FOO
138240
    1MOL0     O    1   4.282   5.314   7.076 -0.0108  0.4776  0.0037
    1MOL0     C    2   4.319   5.195   7.098  0.3984  0.8735 -0.0158
    1MOL0     O    3   4.297   5.128   7.217 -0.1077 -0.7882 -0.6571
    1MOL0     C    4   4.216   5.177   7.320  0.1240  0.6154 -0.4148
    1MOL0     C    5   4.098   5.254   7.303  0.0608  0.3041 -0.8111
    1MOL0     C    6   4.030   5.314   7.413  0.3822  0.0090 -0.4770
    1MOL0     C    7   4.067   5.278   7.540  0.0902 -0.3737  0.0000
    1MOL0     O    8   3.984   5.315   7.643  0.7928 -0.1603  0.4785
    1MOL0     C    9   4.014   5.268   7.778 -0.2203  0.0467 -0.0785
    1MOL0     C   10   3.901   5.275   7.876  0.2699 -0.5306  0.8301
    1MOL0     C   11   3.865   5.425   7.898 -0.4843  0.5655  0.6193
    1MOL0     C   12   3.740   5.442   7.973 -0.0395 -0.2448 -0.7394
    1MOL0     C   13   3.696   5.594   7.985  0.3323  0.2955  1.1355
    1MOL0     C   14   3.580   5.606   8.079 -0.0236  0.4665  1.1987
    1MOL0     C   15   3.527   5.755   8.078  0.4317 -0.8798 -0.1007
    1MOL0     C   16   3.402   5.772   8.168 -0.6589 -0.7167  0.4178
    1MOL0     N   17   3.431   5.743   8.314  0.4503 -0.2442 -0.0448
    1MOL0     C   18   3.551   5.781   8.375  1.1647 -1.1520 -0.0289
    1MOL0     C   19   3.564   5.700   8.483 -0.5178 -0.5229 -0.2413
    1MOL0     C   20   3.685   5.692   8.572  0.8035 -0.7656  0.3082
    1MOL0     C   21   3.813   5.637   8.495 -0.0441 -0.5642 -0.4304
    1MOL0     C   22   3.944   5.677   8.557 -0.1012  0.6059  0.1090
    1MOL0     C   23   3.958   5.648   8.705 -0.0740  0.4816 -0.7310
    1MOL0     O   24   3.892   5.765   8.775  1.0468  0.0042  0.3530
    1MOL0     C   25   3.856   5.771   8.906 -0.3678  0.1282 -0.2350
    1MOL0     C   26   3.797   5.890   8.950  1.1402 -0.0908 -0.6945
    1MOL0     C   27   3.745   5.899   9.082  0.0299 -0.4149  0.2624
    1MOL0     C   28   3.697   6.038   9.106  0.5676 -0.0036 -0.0236
    1MOL0     C   29   3.742   5.786   9.172  0.3732 -0.5210  0.2625
    1MOL0     C   30   3.686   5.791   9.309 -0.2758 -0.5114  0.7390
    1MOL0     O   31   3.646   5.678   9.369 -0.2214 -0.2549 -0.4983
    1MOL0     C   32   3.592   5.690   9.493  0.3774  0.4917 -0.0422
    1MOL0     C   33   3.611   5.574   9.574 -0.0638 -0.0195  0.5006
    1MOL0     C   34   3.563   5.564   9.710  0.2227 -0.7385 -0.1577
    1MOL0     C   35   3.490   5.671   9.765  0.6413  0.5664  0.5482
    1MOL0     O   36   3.430   5.644   9.891 -0.2750 -0.3397  0.2353
    1MOL0     C   37   3.286   5.675   9.892 -0.4681  0.0445 -0.1809
    1MOL0     C   38   3.223   5.637  10.025 -0.5406 -0.0125  0.4567
    1MOL0     C   39   3.195   5.486  10.031  0.2076 -0.1268 -0.4009
    1MOL0     C   40   3.047   5.447  10.000  0.0046  0.6336 -0.5461
    1MOL0     C   41   3.021   5.292  10.005  0.0064  0.3286  0.2983
    1MOL0     C   42   2.882   5.252   9.947 -0.2049  0.1045  0.0439
    1MOL0     C   43   2.880   5.096   9.942 -1.0221  0.8787 -0.0946
    1MOL0     C   44   2.747   5.058   9.866 -0.2230  0.0769 -0.4777
    1MOL0    Cl   45   2.770   5.110   9.692 -0.1445 -0.0213  0.4631
    1MOL0     C   46   3.467   5.787   9.684 -0.6596  0.7523  0.4017
    1MOL0     C   47   3.510   5.785   9.545 -0.0418 -0.8747  0.1705
    1MOL0     O   48   3.686   5.908   9.362  0.1227 -1.0919  0.3190
    1MOL0     C   49   3.796   5.671   9.130  0.0648  0.7421 -0.1163
    1MOL0     C   50   3.859   5.661   8.999  0.3742 -0.5186  0.6091
    1MOL0     N   51   3.449   5.626   8.498  1.1371  0.3189  0.6496
    1MOL0     N   52   3.369   5.653   8.391  0.3602 -0.2350  0.4098
    1MOL0     C   53   4.180   5.200   7.556 -0.4184  0.1970  0.1003
    1MOL0     C   54   4.249   5.149   7.452  0.1914 -0.7996 -0.9158
    1MOL0     C   55   4.398   5.125   6.988  0.0658  0.2549 -0.6541
    1MOL0     C   56   4.500   5.032   7.011  0.2527  0.4097  0.6086
    1MOL0     C   57   4.587   4.991   6.910 -0.1113  0.2598  0.0939
    1MOL0     C   58   4.566   5.031   6.781  0.2747  0.5992 -0.6562
    1MOL0     O   59   4.658   5.000   6.690  0.1629  0.4340  0.1241
    1MOL0     C   60   4.640   5.033   6.548  0.4657 -0.5682 -0.8846
    1MOL0     C   61   4.750   4.979   6.456 -0.1364  0.9782  0.5119
    1MOL0     C   62   4.741   4.820   6.438  0.6498  0.0359 -0.2333
    1MOL0     C   63   4.847   4.770   6.350  0.2226 -0.1078  1.0718
    1MOL0     C   64   4.839   4.623   6.335  0.5310  0.0791  0.3188
    1MOL0     C   65   4.811   4.503   6.322 -0.1249  0.0561  0.1582
    1MOL0     C   66   4.462   5.125   6.750 -0.3152  0.5306 -0.3412
    1MOL0     C   67   4.380   5.171   6.854 -0.2217  0.0076  0.0522
    1MOL0     H   68   4.086   5.299   7.205  2.7168  1.2138 -0.8168
    1MOL0     H   69   3.947   5.382   7.398 -1.2502 -1.7702  0.1094
    1MOL0     H   70   4.050   5.165   7.773 -2.1475 -0.7126  0.5199
    1MOL0     H   71   4.085   5.339   7.820 -1.1372  0.7231  0.3816
    1MOL0     H   72   3.812   5.221   7.841  1.3664 -0.3064 -2.6879
    1MOL0     H   73   3.935   5.239   7.973 -0.8562 -0.1823  1.3710
    1MOL0     H   74   3.945   5.465   7.962 -0.2932 -0.9451  1.3913
    1MOL0     H   75   3.866   5.468   7.798  0.4378 -1.2259 -0.1994
    1MOL0     H   76   3.660   5.392   7.917  1.2044 -2.1017 -0.9389
    1MOL0     H   77   3.747   5.411   8.077 -1.3165  1.6132 -0.0344
    1MOL0     H   78   3.776   5.657   8.025  1.7036  0.0309 -0.9660
    1MOL0     H   79   3.671   5.629   7.884 -1.2405 -3.3853  0.0558
    1MOL0     H   80   3.504   5.541   8.035  3.1027 -1.8721 -1.1680
    1MOL0     H   81   3.615   5.570   8.176 -1.0324  2.9336  2.5797
    1MOL0     H   82   3.609   5.808   8.129  0.3873 -0.8332 -0.0789
    1MOL0     H   83   3.514   5.789   7.975  0.0847 -4.3656 -1.3463
    1MOL0     H   84   3.315   5.711   8.140 -1.8069  1.9759 -2.4894
    1MOL0     H   85   3.366   5.875   8.162  3.0532  0.9433  3.0613
    1MOL0     H   86   3.625   5.855   8.345  0.5785  0.1812  1.6399
    1MOL0     H   87   3.705   5.794   8.607  1.2926  0.4099 -3.0039
    1MOL0     H   88   3.673   5.636   8.665 -0.0135 -1.3150 -0.1115
    1MOL0     H   89   3.817   5.679   8.394 -0.5625 -0.3128 -0.3491
    1MOL0     H   90   3.806   5.529   8.489  3.4449 -1.0265  1.1162
    1MOL0     H   91   3.970   5.783   8.546 -0.8216  0.7830  0.0413
    1MOL0     H   92   4.021   5.611   8.517  0.6187  0.7761  1.1671
    1MOL0     H   93   4.064   5.630   8.727 -0.4386  1.5514  2.4348
    1MOL0     H   94   3.909   5.556   8.737  2.4232  0.5586  4.1859
    1MOL0     H   95   3.794   5.975   8.882  0.4495 -0.5588 -1.2712
    1MOL0     H   96   3.774   6.093   9.160  1.1628  1.9371 -2.6534
    1MOL0     H   97   3.673   6.093   9.015  1.2738  1.0668  0.4205
    1MOL0     H   98   3.602   6.019   9.156  1.8741 -0.0652  2.5995
    1MOL0     H   99   3.666   5.489   9.535 -0.5759  0.2275 -0.8170
    1MOL0     H  100   3.588   5.473   9.765  2.0701  0.1768  0.6012
    1MOL0     H  101   3.281   5.783   9.881  4.1687  0.4182 -0.5591
    1MOL0     H  102   3.233   5.627   9.809 -2.3389 -1.8295  1.9655
    1MOL0     H  103   3.290   5.660  10.109  0.6672 -2.1071  0.1409
    1MOL0     H  104   3.128   5.691  10.036 -2.3854 -3.0344  0.3193
    1MOL0     H  105   3.221   5.450  10.131 -0.9651  1.1833  0.4337
    1MOL0     H  106   3.257   5.433   9.959 -0.2124  1.7884 -2.2817
    1MOL0     H  107   2.997   5.503  10.080  0.5203  0.9315 -0.4246
    1MOL0     H  108   3.011   5.479   9.902 -0.6747 -1.1256 -0.9029
    1MOL0     H  109   3.049   5.249  10.102 -0.5878 -1.3514 -0.2511
    1MOL0     H  110   3.099   5.253   9.940  2.1483  3.3459  0.8447
    1MOL0     H  111   2.803   5.277  10.018 -2.4991  0.2869 -2.4209
    1MOL0     H  112   2.854   5.313   9.861 -1.9047 -0.0062  0.4815
    1MOL0     H  113   2.870   5.060  10.045  0.3299  2.3925  0.6306
    1MOL0     H  114   2.970   5.056   9.893 -0.5841  1.0087  0.5869
    1MOL0     H  115   2.653   5.092   9.910  0.0985 -0.7697  0.9434
    1MOL0     H  116   2.760   4.950   9.857  1.7437  0.2972 -0.6429
    1MOL0     H  117   3.427   5.883   9.712 -2.4536  0.2130 -0.1675
    1MOL0     H  118   3.490   5.875   9.489 -0.3965 -1.8740 -1.3584
    1MOL0     H  119   3.786   5.591   9.203  2.7663  1.0222  0.6637
    1MOL0     H  120   3.910   5.572   8.964 -0.0895 -1.2985  1.8714
    1MOL0     H  121   4.209   5.166   7.655  0.6539 -1.4332 -0.7292
    1MOL0     H  122   4.330   5.082   7.481  1.5867  1.9619  2.0826
    1MOL0     H  123   4.505   4.973   7.102 -0.5539 -3.6925 -1.7246
    1MOL0     H  124   4.668   4.921   6.927 -1.5867 -1.4759  0.3427
    1MOL0     H  125   4.539   5.007   6.515 -0.3112  0.5183  0.5082
    1MOL0     H  126   4.653   5.142   6.552  0.0351 -0.4950 -1.4299
    1MOL0     H  127   4.850   5.003   6.493  0.6927 -2.6027  0.9962
    1MOL0     H  128   4.737   5.017   6.354  0.2708  1.1887  0.5344
    1MOL0     H  129   4.642   4.802   6.394 -0.0992  0.3092  1.2863
    1MOL0     H  130   4.745   4.766   6.533 -0.3315  0.6704  0.1734
    1MOL0     H  131   4.942   4.809   6.387 -0.0712 -0.5541  2.3227
    1MOL0     H  132   4.834   4.820   6.253 -2.4712  1.4282  2.1101
    1MOL0     H  133   4.788   4.402   6.296  2.1800 -0.8981  1.4781
    1MOL0     H  134   4.439   5.164   6.651 -0.0579  1.2649 -0.1184
    1MOL0     H  135   4.311   5.251   6.832 -0.3714 -0.9599 -3.5633
    2MOL0     O  136   5.908   5.134   5.073 -0.0154 -0.1737 -0.4098
    2MOL0     C  137   5.785   5.147   5.103 -0.7363  0.4866 -0.4142
    2MOL0     O  138   5.731   5.158   5.223  0.2780  0.0394  0.4770
    2MOL0     C  139   5.801   5.115   5.331 -0.9515 -0.1099 -0.2071
    2MOL0     C  140   5.725   5.063   5.431  0.9893  0.1320 -0.0428
    2MOL0     C  141   5.777   5.016   5.548 -0.3018  0.3638  0.3418
    2MOL0     C  142   5.910   5.014   5.574  0.5326  0.1706  0.6783
    2MOL0     O  143   5.951   4.974   5.696  0.8203 -0.6945 -0.5178
    2MOL0     C  144   6.065   4.886   5.695  0.0063 -0.4393  0.0405
    2MOL0     C  145   6.084   4.843   5.835 -0.6803 -0.1006 -0.0539
    2MOL0     C  146   6.127   4.957   5.927 -0.0313  0.2034 -0.9397
    2MOL0     C  147   6.148   4.908   6.078  0.6915 -0.1423  0.7206
    2MOL0     C  148   6.256   4.991   6.150  0.0065 -0.0078 -0.4543
    2MOL0     C  149   6.198   5.110   6.237 -0.1577  0.4477 -0.3998
    2MOL0     C  150   6.298   5.157   6.337 -0.1382  0.8863 -0.2252
    2MOL0     C  151   6.240   5.259   6.428  0.0282 -0.0333  0.7207
    2MOL0     N  152   6.258   5.388   6.355 -0.5451  0.8291  0.0496
    2MOL0     C  153   6.359   5.478   6.391  0.8603  0.5726  0.1840
    2MOL0     C  154   6.318   5.593   6.328 -0.6033  0.4995 -0.0254
    2MOL0     C  155   6.377   5.730   6.339  0.9722  0.5722 -0.2576
    2MOL0     C  156   6.301   5.808   6.449  0.3542 -1.0368 -0.5137
    2MOL0     C  157   6.347   5.957   6.449  0.4969 -0.4408  0.0353
    2MOL0     C  158   6.258   6.030   6.550  0.5185 -0.8438  0.4415
    2MOL0     O  159   6.252   5.968   6.686 -0.2176  0.2375  0.1033
    2MOL0     C  160   6.357   5.962   6.773  1.0295  0.4008  0.4230
    2MOL0     C  161   6.486   6.005   6.758  0.2025  0.3170 -0.2207
    2MOL0     C  162   6.588   5.962   6.845 -0.3511  0.2646 -0.6459
    2MOL0     C  163   6.736   5.978   6.811  0.2749  0.1652 -0.4803
    2MOL0     C  164   6.554   5.892   6.960  0.3158 -0.2624 -0.0315
    2MOL0     C  165   6.654   5.839   7.053  0.8658  0.2089  0.9617
    2MOL0     O  166   6.684   5.708   7.046 -0.3954 -0.1915  0.3212
    2MOL0     C  167   6.675   5.635   6.929 -0.2725 -0.7450 -0.4397
    2MOL0     C  168   6.781   5.633   6.844  0.3239 -0.4117 -0.2292
    2MOL0     C  169   6.771   5.556   6.726  0.5083  0.0990  0.2639
    2MOL0     C  170   6.660   5.470   6.701  0.1711 -0.4907  0.2395
    2MOL0     O  171   6.665   5.379   6.599 -0.5015 -0.1432  0.4399
    2MOL0     C  172   6.681   5.245   6.644  0.1944 -0.5611  0.6621
    2MOL0     C  173   6.654   5.154   6.524  0.0298 -0.5055 -0.4062
    2MOL0     C  174   6.753   5.187   6.411 -0.7522  0.9076 -0.3910
    2MOL0     C  175   6.906   5.162   6.456  0.4800 -0.0274  0.1322
    2MOL0     C  176   6.995   5.207   6.343  0.6510  0.1561  0.5578
    2MOL0     C  177   7.136   5.208   6.394 -0.7175 -0.2430  0.0123
    2MOL0     C  178   7.243   5.231   6.288 -0.9166 -0.2178  1.1967
    2MOL0     C  179   7.253   5.140   6.166 -0.9828  0.1519  0.8617
    2MOL0    Cl  180   7.388   5.180   6.068 -0.0762  0.0717 -0.1576
    2MOL0     C  181   6.552   5.481   6.782  0.6006 -0.4806  0.2101
    2MOL0     C  182   6.560   5.561   6.898 -0.1357 -0.5644 -0.3724
    2MOL0     O  183   6.702   5.904   7.138  0.3670 -0.9517 -0.2867
    2MOL0     C  184   6.425   5.854   6.975 -0.1834  0.0964 -0.3123
    2MOL0     C  185   6.321   5.896   6.891 -0.0940 -0.1296 -0.5452
    2MOL0     N  186   6.196   5.576   6.273  0.8065  0.6448 -0.0057
    2MOL0     N  187   6.163   5.446   6.283 -0.3257 -0.8974  0.4890
    2MOL0     C  188   5.995   5.061   5.474  0.6288  0.2074 -1.2787
    2MOL0     C  189   5.944   5.111   5.352 -0.5560 -0.3208  0.5783
    2MOL0     C  190   5.690   5.153   4.987 -0.2807 -0.6913 -0.8660
    2MOL0     C  191   5.733   5.183   4.855 -0.2543  0.3889 -0.0240
    2MOL0     C  192   5.634   5.202   4.757 -1.0753 -0.0848 -0.6747
    2MOL0     C  193   5.494   5.193   4.781  1.1018 -0.2234 -0.0343
    2MOL0     O  194   5.404   5.210   4.678 -1.3432 -0.4647  1.0466
    2MOL0     C  195   5.393   5.346   4.641  0.0240  0.5418 -0.8921
    2MOL0     C  196   5.266   5.397   4.713 -0.0271 -0.2355 -0.1398
    2MOL0     C  197   5.207   5.528   4.654 -0.5158  0.1675  0.2287
    2MOL0     C  198   5.089   5.597   4.725 -0.7882 -0.5677 -0.6103
    2MOL0     C  199   5.057   5.724   4.657 -0.6679 -0.0356 -0.0843
    2MOL0     C  200   5.034   5.835   4.621  0.5576 -0.2013  0.0675
    2MOL0     C  201   5.447   5.161   4.917  0.4709 -0.7460 -0.1279
    2MOL0     C  202   5.549   5.146   5.013  0.2028  0.2213 -0.6084
    2MOL0     H  203   5.618   5.048   5.417  1.3111 -0.5706 -2.2324
    2MOL0     H  204   5.706   4.989   5.626 -1.1164 -0.1544 -0.5589
    2MOL0     H  205   6.032   4.794   5.647  3.5658 -1.7868 -0.1087
    2MOL0     H  206   6.157   4.930   5.655 -0.3576  0.6556  0.3580
    2MOL0     H  207   5.990   4.805   5.875 -0.8878  0.5653  0.1163
    2MOL0     H  208   6.155   4.760   5.831 -0.0090  0.4954 -2.0144
    2MOL0     H  209   6.216   5.006   5.886 -0.9647  2.6391 -0.2227
    2MOL0     H  210   6.045   5.029   5.935  1.7827  2.1857  3.3996
    2MOL0     H  211   6.055   4.922   6.134  2.5200  3.2514  3.3778
    2MOL0     H  212   6.183   4.804   6.072  1.2312  0.0323  0.7126
    2MOL0     H  213   6.306   4.920   6.217  2.7301  1.1862 -1.0854
    2MOL0     H  214   6.328   5.027   6.076  2.2676 -0.0899  1.5682
    2MOL0     H  215   6.179   5.194   6.169  0.2643  1.4880  0.7317
    2MOL0     H  216   6.096   5.092   6.273  1.4105 -0.0700  4.5165
    2MOL0     H  217   6.315   5.065   6.394 -1.0217  1.4560  1.0109
    2MOL0     H  218   6.393   5.183   6.291  0.1231  1.1818  0.4737
    2MOL0     H  219   6.276   5.262   6.531 -0.9952  3.0094  1.0683
    2MOL0     H  220   6.132   5.244   6.424  0.0128  0.3098 -0.5785
    2MOL0     H  221   6.449   5.464   6.450  0.2625 -2.2724  0.5886
    2MOL0     H  222   6.484   5.713   6.348  1.5517  2.5213 -2.4515
    2MOL0     H  223   6.368   5.782   6.243 -3.0559 -0.2562 -0.5031
    2MOL0     H  224   6.304   5.773   6.552 -0.9111  2.6202  0.9542
    2MOL0     H  225   6.197   5.805   6.417 -1.1757  2.6050  3.1844
    2MOL0     H  226   6.340   6.000   6.349 -3.7838 -2.5399 -0.8247
    2MOL0     H  227   6.447   5.977   6.489  0.7670 -2.9619  0.8541
    2MOL0     H  228   6.159   6.038   6.504  1.9892 -1.1589 -3.0575
    2MOL0     H  229   6.296   6.133   6.549  0.4544 -0.7385  2.9006
    2MOL0     H  230   6.527   6.063   6.675 -2.6453  0.2773 -1.7773
    2MOL0     H  231   6.795   5.992   6.902 -1.2388  0.0364  0.5765
    2MOL0     H  232   6.780   5.891   6.762  0.3155  0.0692 -0.2776
    2MOL0     H  233   6.745   6.073   6.758 -4.6686  2.2082  1.6260
    2MOL0     H  234   6.869   5.690   6.872 -0.5852 -0.2321  2.5405
    2MOL0     H  235   6.860   5.553   6.664  2.0266  1.5684  2.2256
    2MOL0     H  236   6.776   5.223   6.693  0.5998  0.5255  0.3865
    2MOL0     H  237   6.603   5.216   6.715 -0.6021 -1.6951 -0.6120
    2MOL0     H  238   6.665   5.050   6.558 -2.0027 -0.8581 -0.6800
    2MOL0     H  239   6.548   5.166   6.499 -0.1030 -1.4586 -0.3458
    2MOL0     H  240   6.734   5.289   6.375 -2.2205  0.5641 -0.6555
    2MOL0     H  241   6.734   5.122   6.325  0.5766 -0.6707  0.4378
    2MOL0     H  242   6.922   5.238   6.533 -1.1950 -0.2248  0.7291
    2MOL0     H  243   6.920   5.059   6.489  0.7593  1.0068  3.6595
    2MOL0     H  244   6.972   5.307   6.305 -0.7316 -0.5269 -0.4821
    2MOL0     H  245   6.991   5.135   6.262 -2.2041  0.8034  0.0280
    2MOL0     H  246   7.152   5.293   6.460 -2.2115  0.2846 -0.2642
    2MOL0     H  247   7.162   5.112   6.438  0.8744  0.9389  1.7912
    2MOL0     H  248   7.333   5.219   6.350 -0.7842 -0.1967  1.0091
    2MOL0     H  249   7.243   5.332   6.246  2.0257 -0.8550 -0.6790
    2MOL0     H  250   7.160   5.144   6.108 -1.1930  1.2062  1.2454
    2MOL0     H  251   7.263   5.036   6.197 -1.7770  0.3057  1.6771
    2MOL0     H  252   6.461   5.429   6.756  0.9788 -1.0442 -0.0255
    2MOL0     H  253   6.479   5.555   6.969 -0.9840 -1.2716 -1.3700
    2MOL0     H  254   6.409   5.786   7.058  0.4691  0.4774  0.1406
    2MOL0     H  255   6.227   5.847   6.912 -0.5650 -0.4430 -3.1425
    2MOL0     H  256   6.102   5.070   5.491  0.8381 -2.0346 -1.0470
    2MOL0     H  257   6.015   5.147   5.278 -1.8756 -0.4598 -0.7906
    2MOL0     H  258   5.838   5.191   4.830  0.0637 -1.0125  0.7655
    2MOL0     H  259   5.677   5.229   4.661  1.7942  0.5952  0.6593
    2MOL0     H  260   5.479   5.400   4.682 -0.2612  0.2511  0.1145
    2MOL0     H  261   5.393   5.362   4.533  0.5314  1.7991 -0.7297
    2MOL0     H  262   5.296   5.411   4.817 -2.0886  1.3361  0.3243
    2MOL0     H  263   5.188   5.321   4.722 -0.0363 -0.1322  0.7709
    2MOL0     H  264   5.197   5.529   4.545  1.8711  1.9809 -0.0773
    2MOL0     H  265   5.289   5.601   4.656  0.3413 -0.7529  0.0238
    2MOL0     H  266   5.110   5.621   4.829  0.8691 -2.9244 -0.3329
    2MOL0     H  267   5.011   5.520   4.726  2.2063 -3.8318 -1.2575
    2MOL0     H  268   5.009   5.934   4.590  0.0933 -1.0213 -2.3959
    2MOL0     H  269   5.346   5.127   4.938 -0.2208  1.5710  0.5590
    2MOL0     H  270   5.524   5.124   5.117 -1.3664  1.0562 -0.7690
    3MOL0     O  271   4.782   7.696   1.878  0.6218  0.3902 -0.1428
    3MOL0     C  272   4.791   7.733   2.000 -0.6665 -0.0942  0.5454
    3MOL0     O  273   4.684   7.762   2.086 -0.1234  0.5503 -0.0837
    3MOL0     C  274   4.570   7.811   2.034  0.9369  0.0585  0.0443
    3MOL0     C  275   4.440   7.780   2.088  0.2065  0.0498  0.0834
    3MOL0     C  276   4.324   7.829   2.036 -0.5458 -0.0883  0.2124
    3MOL0     C  277   4.319   7.902   1.911 -0.1644  0.0158  0.0531
    3MOL0     O  278   4.200   7.936   1.845  0.0875  0.1698 -0.0476
    3MOL0     C  279   4.083   7.972   1.929 -0.5865 -0.5468  0.5067
    3MOL0     C  280   3.981   8.046   1.844  0.1648 -0.1077 -0.2219
    3MOL0     C  281   3.921   7.951   1.741  0.2381 -0.5878  0.7089
    3MOL0     C  282   3.835   8.014   1.631 -0.1109 -0.5531 -0.0642
    3MOL0     C  283   3.704   8.081   1.682  0.0336  0.2987  0.1638
    3MOL0     C  284   3.621   8.156   1.575 -0.3319 -0.0938 -0.8001
    3MOL0     C  285   3.685   8.267   1.494  0.4103  0.1546  0.4020
    3MOL0     C  286   3.706   8.394   1.573  1.2201 -1.0948 -0.8956
    3MOL0     N  287   3.827   8.391   1.657 -0.6670 -0.1259  1.2913
    3MOL0     C  288   3.949   8.369   1.608 -0.6911 -0.4173  0.7594
    3MOL0     C  289   4.035   8.401   1.711 -0.6364  0.4698  0.1170
    3MOL0     C  290   4.195   8.394   1.691  0.0486 -0.3727 -0.8658
    3MOL0     C  291   4.281   8.502   1.771  1.0793 -0.4729 -0.5611
    3MOL0     C  292   4.320   8.625   1.685 -0.4077  0.0432  0.1284
    3MOL0     C  293   4.199   8.680   1.608  0.4861  0.0073  0.4809
    3MOL0     O  294   4.105   8.758   1.692 -0.7403 -0.1506  0.0814
    3MOL0     C  295   4.118   8.895   1.686  0.8147  0.3424 -0.5784
    3MOL0     C  296   4.232   8.961   1.648 -0.2038  0.7119 -0.4474
    3MOL0     C  297   4.231   9.100   1.637  0.5173 -0.3216  0.7092
    3MOL0     C  298   4.370   9.160   1.605  0.4840  0.3703  0.2314
    3MOL0     C  299   4.113   9.173   1.671 -1.4221 -0.1660  0.5807
    3MOL0     C  300   4.107   9.318   1.669 -0.5272 -0.0921 -0.9068
    3MOL0     O  301   4.057   9.372   1.781  0.6569  0.0135 -0.2864
    3MOL0     C  302   4.070   9.510   1.805  0.7420  0.6968 -0.3544
    3MOL0     C  303   3.973   9.607   1.782 -0.1063 -0.7812  0.3142
    3MOL0     C  304   4.004   9.743   1.811 -1.0536  0.1079  0.9320
    3MOL0     C  305   4.122   9.780   1.874  0.2141  0.2284  0.8403
    3MOL0     O  306   4.163   9.914   1.903 -0.1867  0.1041 -0.0272
    3MOL0     C  307   4.069  10.024   1.908  0.0793 -0.1047  0.5390
    3MOL0     C  308   3.971   9.986   2.013  0.0552  0.0464 -0.4563
    3MOL0     C  309   3.868  10.105   2.027 -0.3073  0.4931  0.5967
    3MOL0     C  310   3.763  10.047   2.127  0.4145 -0.0801 -0.0722
    3MOL0     C  311   3.648  10.143   2.154  0.2413  0.0073 -0.0514
    3MOL0     C  312   3.567  10.134   2.279  0.4913 -0.5048 -0.0063
    3MOL0     C  313   3.502  10.268   2.322 -0.0995 -0.2761 -0.6216
    3MOL0     C  314   3.448  10.243   2.458  0.2241 -0.4357  0.4442
    3MOL0    Cl  315   3.292  10.152   2.459  0.0369 -0.0193 -0.0490
    3MOL0     C  316   4.223   9.680   1.878 -0.3954  0.5879 -0.3818
    3MOL0     C  317   4.202   9.548   1.851  1.2069 -0.8329  0.9895
    3MOL0     O  318   4.151   9.376   1.573  0.1442 -0.3180  0.1483
    3MOL0     C  319   4.001   9.109   1.722  0.5944 -0.2812  0.7072
    3MOL0     C  320   4.008   8.972   1.727 -0.3544  0.1396  0.0002
    3MOL0     N  321   3.958   8.414   1.830 -0.6399 -0.0666 -0.4560
    3MOL0     N  322   3.836   8.423   1.794  0.1702 -0.2434 -0.0621
    3MOL0     C  323   4.445   7.936   1.869 -1.0907  0.6260  0.3833
    3MOL0     C  324   4.566   7.898   1.926  0.2214  0.0551  0.1683
    3MOL0     C  325   4.931   7.741   2.037 -0.0098 -0.3536  1.0856
    3MOL0     C  326   5.040   7.688   1.963 -0.4412 -0.4774  0.2787
    3MOL0     C  327   5.170   7.685   2.014  0.1766 -1.3059  0.2107
    3MOL0     C  328   5.193   7.754   2.134  0.2564  0.1163  1.0186
    3MOL0     O  329   5.320   7.743   2.178 -1.1832 -0.3695  0.3543
    3MOL0     C  330   5.384   7.842   2.265  0.2942  0.5678  0.4251
    3MOL0     C  331   5.404   7.971   2.195  1.0888 -0.3023 -0.0894
    3MOL0     C  332   5.501   8.054   2.289 -1.2639 -0.4614  0.1808
    3MOL0     C  333   5.518   8.193   2.236  0.4660  0.2817  0.7032
    3MOL0     C  334   5.395   8.267   2.234 -0.1290 -0.0885  0.0026
    3MOL0     C  335   5.294   8.342   2.230  0.1791  0.1118  0.5921
    3MOL0     C  336   5.095   7.815   2.208  0.8745  1.0089  0.4888
    3MOL0     C  337   4.964   7.803   2.164  0.2013 -0.1592  0.1950
    3MOL0     H  338   4.448   7.723   2.180 -0.6994 -2.0839 -1.0681
    3MOL0     H  339   4.237   7.806   2.097 -1.5706  1.2209 -0.6995
    3MOL0     H  340   4.040   7.883   1.976  0.1686 -1.1039  0.1579
    3MOL0     H  341   4.106   8.035   2.015 -0.3483 -1.4186  1.0958
    3MOL0     H  342   3.901   8.089   1.905  1.6551  1.2074  0.8924
    3MOL0     H  343   4.027   8.132   1.794  0.1577  0.3682  0.5730
    3MOL0     H  344   3.997   7.895   1.686 -0.5643  1.2083 -2.4707
    3MOL0     H  345   3.865   7.885   1.809 -2.2244 -2.3359 -2.7435
    3MOL0     H  346   3.888   8.096   1.581 -1.0189 -1.2657 -2.3066
    3MOL0     H  347   3.817   7.944   1.549 -0.6674  0.9354 -1.2680
    3MOL0     H  348   3.650   8.001   1.733  0.0412  0.5116  0.5061
    3MOL0     H  349   3.731   8.156   1.757  3.4207  0.9818 -1.5278
    3MOL0     H  350   3.583   8.085   1.501 -1.2687 -0.6164  0.1543
    3MOL0     H  351   3.533   8.201   1.622 -1.3180 -1.7276 -0.9996
    3MOL0     H  352   3.782   8.229   1.463  0.0559 -2.8183  2.5276
    3MOL0     H  353   3.625   8.286   1.405 -0.2829 -0.2824  0.7651
    3MOL0     H  354   3.617   8.409   1.635  2.6660 -0.7814  1.2492
    3MOL0     H  355   3.708   8.483   1.510 -1.9932 -0.3066 -0.0869
    3MOL0     H  356   3.992   8.345   1.512  0.0744 -1.8021  1.4173
    3MOL0     H  357   4.221   8.295   1.728 -0.3008  0.3430  1.4367
    3MOL0     H  358   4.219   8.387   1.584 -0.6092 -0.7268 -0.9975
    3MOL0     H  359   4.361   8.443   1.818  3.2800  4.2822  2.5389
    3MOL0     H  360   4.220   8.536   1.856 -1.1344  1.2603 -2.7035
    3MOL0     H  361   4.395   8.585   1.617 -2.5030 -1.2470 -1.5667
    3MOL0     H  362   4.360   8.711   1.739 -2.5208  0.0575  1.8359
    3MOL0     H  363   4.144   8.593   1.568  1.0919 -0.0878 -0.1612
    3MOL0     H  364   4.223   8.731   1.515 -1.4448  0.2910  0.0959
    3MOL0     H  365   4.326   8.911   1.625  1.2527  2.1649  1.9199
    3MOL0     H  366   4.432   9.083   1.559 -1.9254 -2.9954  2.1875
    3MOL0     H  367   4.362   9.239   1.529 -0.1150 -0.6620 -0.8124
    3MOL0     H  368   4.409   9.203   1.697 -0.2880  1.7306 -0.0481
    3MOL0     H  369   3.869   9.583   1.767 -0.4237  0.2024  0.8363
    3MOL0     H  370   3.923   9.806   1.778 -3.0843 -2.3475  0.9216
    3MOL0     H  371   4.126  10.116   1.923  0.5903 -0.7118  2.5458
    3MOL0     H  372   4.009  10.029   1.816 -1.7611 -0.4427  1.6646
    3MOL0     H  373   3.914   9.897   1.984  0.7604 -0.4401 -0.3631
    3MOL0     H  374   4.026   9.965   2.105 -1.9424  0.6661  0.9592
    3MOL0     H  375   3.813  10.122   1.934 -0.2140  0.1759  0.4823
    3MOL0     H  376   3.908  10.203   2.051  1.0443  0.7962 -2.4077
    3MOL0     H  377   3.731   9.945   2.102  2.6590 -1.2342  1.3577
    3MOL0     H  378   3.809  10.028   2.225  0.6736  0.1310 -0.1514
    3MOL0     H  379   3.569  10.131   2.079  0.5162  0.2450 -0.3818
    3MOL0     H  380   3.688  10.245   2.156 -2.3541  1.0928  1.6855
    3MOL0     H  381   3.489  10.058   2.276 -0.8826  0.5381  3.3481
    3MOL0     H  382   3.631  10.089   2.355 -1.3808 -0.6541  1.5770
    3MOL0     H  383   3.428  10.305   2.250 -0.4443  1.0542  0.3843
    3MOL0     H  384   3.580  10.344   2.332 -0.7316  0.1056  2.0630
    3MOL0     H  385   3.435  10.342   2.501 -2.8789 -2.2552  4.3215
    3MOL0     H  386   3.522  10.192   2.520  0.7015  1.6370  1.6837
    3MOL0     H  387   4.314   9.708   1.931  0.3192  0.8174 -1.6904
    3MOL0     H  388   4.290   9.484   1.857  1.6964 -0.1886  0.9170
    3MOL0     H  389   3.908   9.161   1.745 -0.1329  0.0870 -2.6152
    3MOL0     H  390   3.925   8.914   1.767  0.7110 -0.1711  1.8476
    3MOL0     H  391   4.462   7.998   1.781  1.5431  0.2492  0.5547
    3MOL0     H  392   4.652   7.941   1.875 -0.4435 -0.9929 -1.9401
    3MOL0     H  393   5.034   7.629   1.873  0.5161 -1.2828  0.7227
    3MOL0     H  394   5.250   7.650   1.950  2.0446  2.9287 -0.0988
    3MOL0     H  395   5.317   7.859   2.350 -1.4339 -1.5753 -0.4238
    3MOL0     H  396   5.480   7.800   2.298  0.1866  1.3098  1.7500
    3MOL0     H  397   5.305   8.018   2.184  0.3953 -1.3403  1.4155
    3MOL0     H  398   5.457   7.952   2.101  0.4730 -0.1730 -0.4697
    3MOL0     H  399   5.597   8.002   2.286 -3.2312 -4.4184 -1.9999
    3MOL0     H  400   5.467   8.058   2.393  1.7815  1.5557  1.2369
    3MOL0     H  401   5.558   8.190   2.134  0.4371  2.0182  0.6163
    3MOL0     H  402   5.599   8.236   2.296  0.6924  0.6204  0.1708
    3MOL0     H  403   5.221   8.417   2.209  1.1916  1.1681  0.7085
    3MOL0     H  404   5.101   7.878   2.296 -0.7564  2.0004 -0.0440
    3MOL0     H  405   4.883   7.851   2.219 -1.4289 -0.0146 -2.1835
    4MOL0     O  406   2.995   1.918  11.006  0.2187 -0.5462  0.0927
    4MOL0     C  407   3.090   1.987  10.970 -0.4702  0.0655 -0.7601
    4MOL0     O  408   3.092   2.084  10.865 -0.4395 -0.2309 -1.3038
    4MOL0     C  409   3.003   2.061  10.765  0.2024  0.7844  0.1318
    4MOL0     C  410   2.871   2.115  10.766 -0.0776  0.6121 -0.2600
    4MOL0     C  411   2.790   2.090  10.652 -0.4312  0.8891 -0.2606
    4MOL0     C  412   2.836   2.018  10.539 -0.1329 -0.5642  0.1099
    4MOL0     O  413   2.782   2.022  10.415 -0.2659  0.0813  0.0407
    4MOL0     C  414   2.640   2.033  10.408  0.0782 -0.0161  0.0226
    4MOL0     C  415   2.586   2.049  10.267 -0.1670 -0.0311  0.1075
    4MOL0     C  416   2.436   2.081  10.274  0.0392 -0.7848  0.4555
    4MOL0     C  417   2.357   2.086  10.148  0.6397  0.0617  0.4231
    4MOL0     C  418   2.222   2.141  10.176  0.1341 -0.0411 -0.5394
    4MOL0     C  419   2.161   2.182  10.038  0.0245  0.0802 -0.4159
    4MOL0     C  420   2.112   2.052   9.958  0.8148  0.2428  0.1707
    4MOL0     C  421   1.996   1.975  10.025  0.0148 -1.1031 -0.4936
    4MOL0     N  422   1.901   2.062  10.085  0.0534  0.9668 -0.5480
    4MOL0     C  423   1.876   2.067  10.223 -0.3986  0.5077  0.1548
    4MOL0     C  424   1.758   2.137  10.223  0.3340  0.1242  0.9462
    4MOL0     C  425   1.711   2.185  10.356  0.4782 -0.1697  0.8347
    4MOL0     C  426   1.654   2.070  10.438  0.9417  0.1638  0.4584
    4MOL0     C  427   1.653   2.115  10.584  0.2323  0.4201  0.0554
    4MOL0     C  428   1.622   1.999  10.683 -0.6156 -0.3438 -1.5703
    4MOL0     O  429   1.637   2.055  10.815  1.1282 -0.2192  0.3164
    4MOL0     C  430   1.741   2.009  10.892 -0.1243 -0.3939  0.8039
    4MOL0     C  431   1.733   1.890  10.950  0.3621 -0.1358 -0.2961
    4MOL0     C  432   1.843   1.826  11.022  0.0518 -0.2951  0.2800
    4MOL0     C  433   1.803   1.697  11.079  0.0203  0.6746  0.1056
    4MOL0     C  434   1.968   1.897  11.027  0.0349  0.1864  0.4627
    4MOL0     C  435   2.094   1.838  11.088 -0.1754  0.1930 -0.4691
    4MOL0     O  436   2.066   1.742  11.166 -0.0633  0.3630 -0.3431
    4MOL0     C  437   2.159   1.705  11.257 -0.6525 -0.3050  0.6006
    4MOL0     C  438   2.187   1.568  11.273  0.0717  0.9778 -0.6659
    4MOL0     C  439   2.265   1.527  11.387  0.4349 -0.0993  0.7039
    4MOL0     C  440   2.327   1.626  11.466  0.1981 -0.2626 -0.7685
    4MOL0     O  441   2.417   1.595  11.557 -0.2469  0.3982 -0.0751
    4MOL0     C  442   2.383   1.513  11.664 -0.9326  0.3764  0.1561
    4MOL0     C  443   2.501   1.428  11.709 -0.7250  0.1247 -0.2736
    4MOL0     C  444   2.605   1.529  11.771 -0.1783  0.0944 -0.0482
    4MOL0     C  445   2.740   1.465  11.794  0.6246  0.4156  1.0596
    4MOL0     C  446   2.812   1.394  11.675 -0.7609  0.0214 -0.2673
    4MOL0     C  447   2.963   1.379  11.709  0.4636 -0.2176 -0.3135
    4MOL0     C  448   3.051   1.299  11.609 -0.0302 -0.0310 -0.4784
    4MOL0     C  449   3.055   1.147  11.642 -0.9317  0.3736  0.4717
    4MOL0    Cl  450   3.167   1.140  11.793  0.3093 -0.4160  0.3340
    4MOL0     C  451   2.308   1.756  11.449 -0.5723 -0.0265  0.5602
    4MOL0     C  452   2.228   1.800  11.343 -0.5428 -0.7313  0.3128
    4MOL0     O  453   2.199   1.893  11.069 -0.3587  1.0488  0.2012
    4MOL0     C  454   1.977   2.019  10.959  0.1274  0.0655 -0.1739
    4MOL0     C  455   1.869   2.065  10.885 -0.5032 -0.8352  0.3471
    4MOL0     N  456   1.707   2.160  10.094 -0.3164 -0.8652  0.7416
    4MOL0     N  457   1.796   2.114  10.011  0.4437 -0.2668  0.1879
    4MOL0     C  458   2.962   1.959  10.542  0.1211  0.2007 -0.1559
    4MOL0     C  459   3.047   1.986  10.654 -0.4042  0.1960 -0.5947
    4MOL0     C  460   3.209   1.978  11.064  0.0452 -0.5160 -0.0820
    4MOL0     C  461   3.218   1.898  11.181 -0.6388  0.6887 -1.0868
    4MOL0     C  462   3.328   1.917  11.269 -0.2526 -0.3833  0.2185
    4MOL0     C  463   3.438   1.993  11.229  0.3411  1.0494 -0.0486
    4MOL0     O  464   3.554   2.001  11.307  0.3919 -0.6612  0.4464
    4MOL0     C  465   3.554   1.951  11.441  0.2719 -0.2028  0.1721
    4MOL0     C  466   3.682   2.008  11.497  0.1923  0.2979 -0.0535
    4MOL0     C  467   3.704   1.932  11.631  0.0227 -0.0507 -0.6752
    4MOL0     C  468   3.848   1.944  11.678 -0.8531 -0.3720  0.4869
    4MOL0     C  469   3.861   1.949  11.829  0.3262  0.4476  0.5550
    4MOL0     C  470   3.867   1.959  11.951  1.4806 -0.1648 -0.2243
    4MOL0     C  471   3.427   2.082  11.124 -0.0375  1.8357 -0.4154
    4MOL0     C  472   3.307   2.080  11.049  0.3471 -1.4365 -0.3299
    4MOL0     H  473   2.853   2.184  10.848  1.2845 -1.5024  1.9748
    4MOL0     H  474   2.699   2.148  10.644 -0.4515  0.8157 -0.5699
    4MOL0     H  475   2.603   1.947  10.464  3.7158 -0.7298  1.6209
    4MOL0     H  476   2.605   2.123  10.460  0.2372  0.1721 -0.1925
    4MOL0     H  477   2.635   2.140  10.230  1.4779  0.6038  3.4715
    4MOL0     H  478   2.601   1.966  10.198 -3.8128  0.1840 -1.1986
    4MOL0     H  479   2.393   1.998  10.331 -3.7732  0.4770 -0.2558
    4MOL0     H  480   2.418   2.173  10.329  0.2703  1.4687 -2.9169
    4MOL0     H  481   2.404   2.166  10.089 -4.0559  1.5166 -1.8513
    4MOL0     H  482   2.356   1.997  10.084  1.1968  1.1281 -1.1581
    4MOL0     H  483   2.168   2.061  10.227  0.8796 -0.1327  0.1422
    4MOL0     H  484   2.226   2.228  10.241 -1.0572  0.8089 -1.5597
    4MOL0     H  485   2.086   2.260  10.057  0.7795  1.0649 -1.4080
    4MOL0     H  486   2.231   2.246   9.984  1.1157  0.3393  1.2612
    4MOL0     H  487   2.074   2.092   9.863 -0.6603 -0.5836  0.3723
    4MOL0     H  488   2.191   1.979   9.940 -0.9897 -2.6154  2.8450
    4MOL0     H  489   2.041   1.917  10.106 -0.0576  1.5030  1.5537
    4MOL0     H  490   1.951   1.918   9.944 -0.4497  0.8381 -1.6802
    4MOL0     H  491   1.926   2.035  10.314 -0.9722  1.7748  0.9406
    4MOL0     H  492   1.790   2.235  10.412  1.8521  1.1958 -2.0777
    4MOL0     H  493   1.639   2.266  10.340  1.7386  0.6077 -1.4290
    4MOL0     H  494   1.713   1.981  10.414  2.3725  0.6921  1.8204
    4MOL0     H  495   1.553   2.060  10.397  1.9553  0.4024 -2.3000
    4MOL0     H  496   1.571   2.187  10.590 -0.4665 -0.1965 -1.4486
    4MOL0     H  497   1.742   2.166  10.622 -2.6423  5.5666  0.8495
    4MOL0     H  498   1.696   1.920  10.667  0.5027 -0.0194  1.3795
    4MOL0     H  499   1.520   1.972  10.654 -1.4942  2.1448 -1.0672
    4MOL0     H  500   1.636   1.842  10.951 -1.1310  2.6144 -1.8444
    4MOL0     H  501   1.853   1.611  11.034  0.5098  1.2560 -0.4807
    4MOL0     H  502   1.837   1.693  11.183  2.7720  0.0518 -0.7256
    4MOL0     H  503   1.694   1.689  11.080 -0.1594  1.5333 -2.9384
    4MOL0     H  504   2.133   1.501  11.206 -1.5395  1.5383  0.0411
    4MOL0     H  505   2.283   1.420  11.391  0.0003 -0.1974  0.1762
    4MOL0     H  506   2.345   1.576  11.745 -2.7254 -0.2051 -0.1871
    4MOL0     H  507   2.314   1.433  11.635 -1.2141 -0.3817  2.6617
    4MOL0     H  508   2.476   1.350  11.782 -0.6574 -1.2347 -1.6460
    4MOL0     H  509   2.541   1.382  11.618  1.9124 -0.3394  1.0198
    4MOL0     H  510   2.570   1.583  11.859  4.0611  2.3545  0.5440
    4MOL0     H  511   2.614   1.609  11.697 -0.2420 -0.7163 -0.9619
    4MOL0     H  512   2.814   1.527  11.844  2.4645 -1.9885  1.5066
    4MOL0     H  513   2.730   1.386  11.869  1.7383 -1.1331 -0.3454
    4MOL0     H  514   2.805   1.460  11.589  1.5568  3.3277  1.8397
    4MOL0     H  515   2.767   1.295  11.662 -5.4341  0.9777  4.8044
    4MOL0     H  516   3.002   1.481  11.707  1.6601 -0.5758  1.6773
    4MOL0     H  517   2.986   1.343  11.810 -0.0970  0.6381  0.1278
    4MOL0     H  518   3.150   1.345  11.614  0.6216 -1.4979  1.0560
    4MOL0     H  519   3.009   1.310  11.509  0.3414 -0.8771 -0.7351
    4MOL0     H  520   3.108   1.094  11.562 -0.7339 -1.0392  1.4856
    4MOL0     H  521   2.958   1.103  11.666 -1.5155  0.0945 -2.1520
    4MOL0     H  522   2.332   1.838  11.517 -2.2116  1.9291 -1.0811
    4MOL0     H  523   2.222   1.907  11.328 -1.5776 -0.4694  2.2306
    4MOL0     H  524   2.068   2.078  10.964 -2.2189  3.9044  2.6307
    4MOL0     H  525   1.889   2.153  10.824 -0.1364 -0.0309  1.5890
    4MOL0     H  526   3.006   1.908  10.456 -2.5191  1.7643 -2.5741
    4MOL0     H  527   3.151   1.955  10.653 -1.1850 -2.6956 -0.2671
    4MOL0     H  528   3.141   1.825  11.202  3.0040 -2.9581  0.9934
    4MOL0     H  529   3.331   1.859  11.360  1.0863 -1.3693 -0.4213
    4MOL0     H  530   3.470   1.993  11.497  0.5847 -0.6580  0.9847
    4MOL0     H  531   3.550   1.842  11.437 -1.5538 -0.1361 -2.6244
    4MOL0     H  532   3.670   2.116  11.507 -1.9950  0.0208  0.8968
    4MOL0     H  533   3.762   1.992  11.424  1.0757 -3.0197  1.4398
    4MOL0     H  534   3.679   1.826  11.623  2.3226 -0.5068 -2.8346
    4MOL0     H  535   3.645   1.975  11.713 -0.8336  0.7606 -1.6854
    4MOL0     H  536   3.901   2.028  11.632 -0.8965 -1.7295 -2.2136
    4MOL0     H  537   3.899   1.858  11.634 -0.1354  0.5535 -0.5568
    4MOL0     H  538   3.870   1.952  12.057 -0.9057 -0.6341 -0.1336
    4MOL0     H  539   3.510   2.148  11.100  0.5195  1.7711  1.2714
    4MOL0     H  540   3.304   2.156  10.972  2.4945  1.1840  1.9500
    5MOL0     O  541   6.973   5.666   5.185  0.3766 -0.2467 -0.5811
    5MOL0     C  542   6.970   5.769   5.115 -1.0004 -0.5086 -1.1271
    5MOL0     O  543   7.078   5.856   5.108  1.1042 -0.2189  0.1290
    5MOL0     C  544   7.185   5.851   5.194  0.5532 -0.3688  1.6441
    5MOL0     C  545   7.238   5.737   5.264  0.0972 -0.6348  0.1713
    5MOL0     C  546   7.370   5.740   5.318 -0.4249  0.0980  0.7993
    5MOL0     C  547   7.439   5.859   5.312 -0.1767 -0.2368  0.2081
    5MOL0     O  548   7.567   5.875   5.359 -0.2405  0.0026  0.8961
    5MOL0     C  549   7.628   5.759   5.414  0.2143 -0.3891 -0.7632
    5MOL0     C  550   7.776   5.791   5.438 -0.4416  0.2775  0.3463
    5MOL0     C  551   7.857   5.776   5.308  0.1846  0.8274 -0.0332
    5MOL0     C  552   8.007   5.811   5.318  0.2679  0.9415  0.2071
    5MOL0     C  553   8.061   5.865   5.188 -0.1757  0.7149 -0.3245
    5MOL0     C  554   8.212   5.904   5.201 -0.4627 -0.1889  0.7986
    5MOL0     C  555   8.244   6.043   5.122  0.5263  0.2937 -0.5600
    5MOL0     C  556   8.389   6.078   5.107 -0.5327  0.2911 -0.3752
    5MOL0     N  557   8.416   6.211   5.037 -0.0238 -0.4954  0.2231
    5MOL0     C  558   8.323   6.300   5.000 -0.2998 -0.2352 -0.3727
    5MOL0     C  559   8.385   6.418   4.971 -0.0591 -0.1077 -1.3408
    5MOL0     C  560   8.292   6.533   4.925 -0.3777 -0.1911 -0.1156
    5MOL0     C  561   8.231   6.627   5.039 -0.5692 -1.3211  0.5220
    5MOL0     C  562   8.131   6.731   4.982 -0.2536  0.0663  0.3119
    5MOL0     C  563   8.016   6.668   4.898 -0.5436  0.6011  0.4103
    5MOL0     O  564   7.934   6.773   4.852 -0.0806 -0.0065 -0.0171
    5MOL0     C  565   7.830   6.812   4.935 -0.6402  0.3081  0.8686
    5MOL0     C  566   7.790   6.948   4.920 -0.4370  0.6778 -0.1968
    5MOL0     C  567   7.676   6.996   4.992 -0.4702 -0.2310 -0.0266
    5MOL0     C  568   7.627   7.133   4.958 -0.1480 -0.1842  1.1063
    5MOL0     C  569   7.604   6.912   5.081  0.1306  0.2100 -0.6298
    5MOL0     C  570   7.478   6.955   5.153  0.9071 -0.2956 -0.4105
    5MOL0     O  571   7.382   7.027   5.081  0.1352 -0.0383 -0.4780
    5MOL0     C  572   7.253   7.027   5.123 -0.2310  0.4161  0.4880
    5MOL0     C  573   7.170   6.925   5.056  0.1560  0.2091  1.3231
    5MOL0     C  574   7.034   6.923   5.087 -0.7852  0.7891  0.0138
    5MOL0     C  575   6.984   7.005   5.185  0.4402  0.2611 -0.2461
    5MOL0     O  576   6.854   6.987   5.194 -0.5988 -0.2503  0.1199
    5MOL0     C  577   6.782   7.069   5.290  0.2867  0.7120  0.8293
    5MOL0     C  578   6.646   7.017   5.297  0.6979 -0.4597 -1.0859
    5MOL0     C  579   6.566   7.086   5.406  1.1985 -0.4829  0.2596
    5MOL0     C  580   6.528   7.226   5.362 -0.0739  1.2328  0.7078
    5MOL0     C  581   6.462   7.291   5.487 -0.4217  0.3171  0.3468
    5MOL0     C  582   6.319   7.241   5.508  0.1309 -0.3211  0.7108
    5MOL0     C  583   6.238   7.327   5.603  0.5786  0.4360  0.3747
    5MOL0     C  584   6.086   7.307   5.572 -1.1045  0.9819  0.0595
    5MOL0    Cl  585   6.042   7.395   5.430 -0.8320 -0.4295  0.3815
    5MOL0     C  586   7.065   7.084   5.255 -0.0013  0.4870 -0.2754
    5MOL0     C  587   7.199   7.105   5.221  0.6031 -0.3379 -0.3613
    5MOL0     O  588   7.460   6.913   5.268  0.5245 -0.6799  0.8630
    5MOL0     C  589   7.654   6.784   5.103 -0.2473  0.6680  0.0294
    5MOL0     C  590   7.760   6.738   5.025  0.5074 -0.6402 -0.2662
    5MOL0     N  591   8.516   6.399   4.992 -0.2143 -0.1896 -0.3492
    5MOL0     N  592   8.534   6.285   5.034  0.2462  0.3698  0.2202
    5MOL0     C  593   7.378   5.973   5.256  0.2059  0.5263  0.8954
    5MOL0     C  594   7.258   5.966   5.186  0.4244  0.2459 -0.4706
    5MOL0     C  595   6.850   5.802   5.044 -0.5506 -0.4184  0.4126
    5MOL0     C  596   6.861   5.877   4.920 -0.2844  0.4116  0.9864
    5MOL0     C  597   6.749   5.886   4.839 -0.1028 -0.1638 -0.2235
    5MOL0     C  598   6.618   5.849   4.882 -0.2986 -0.8412 -0.6938
    5MOL0     O  599   6.508   5.876   4.807  0.4888 -0.2100 -0.0312
    5MOL0     C  600   6.374   5.842   4.858  0.3247  0.6160 -0.1562
    5MOL0     C  601   6.335   5.702   4.804 -1.4228  0.3431 -0.0468
    5MOL0     C  602   6.421   5.594   4.877 -0.5011 -0.1233  0.3414
    5MOL0     C  603   6.410   5.451   4.813  0.4815 -0.1072 -1.5047
    5MOL0     C  604   6.267   5.403   4.824 -0.9259 -0.2894  0.5896
    5MOL0     C  605   6.155   5.360   4.824 -0.0321  0.2640 -0.4820
    5MOL0     C  606   6.622   5.801   5.020  0.4756 -0.2501 -0.0680
    5MOL0     C  607   6.725   5.769   5.093 -0.7022 -0.1597 -0.0344
    5MOL0     H  608   7.172   5.651   5.265  0.2607 -0.8995 -2.8659
    5MOL0     H  609   7.407   5.653   5.370  0.7208 -0.5825 -1.0562
    5MOL0     H  610   7.585   5.732   5.511  0.0698  0.3664 -0.6100
    5MOL0     H  611   7.620   5.665   5.358  0.7570 -1.7142  1.2761
    5MOL0     H  612   7.794   5.896   5.463 -1.4301  0.9150 -1.4445
    5MOL0     H  613   7.813   5.721   5.514 -4.2787 -2.2893  0.1542
    5MOL0     H  614   7.850   5.668   5.295 -1.7136  0.6292  1.9933
    5MOL0     H  615   7.814   5.820   5.217 -1.3148  2.8800  1.5619
    5MOL0     H  616   8.024   5.889   5.393 -1.4691  2.0820 -0.5013
    5MOL0     H  617   8.052   5.714   5.342 -1.1343  0.7779  2.3764
    5MOL0     H  618   8.043   5.795   5.107  0.0358  2.5602 -2.0484
    5MOL0     H  619   7.998   5.950   5.161 -0.1529  0.2162 -1.9978
    5MOL0     H  620   8.262   5.902   5.299  1.8989  0.3387 -0.3379
    5MOL0     H  621   8.266   5.828   5.144 -1.7275 -0.7416  0.3066
    5MOL0     H  622   8.198   6.035   5.023 -0.5426 -1.2913  0.0184
    5MOL0     H  623   8.203   6.128   5.177  0.2881 -0.7111  0.8796
    5MOL0     H  624   8.423   6.002   5.038 -3.8058 -0.6451 -1.1578
    5MOL0     H  625   8.436   6.073   5.206 -1.7859 -1.0115  0.1984
    5MOL0     H  626   8.217   6.277   5.006 -0.0444 -1.2770  0.6389
    5MOL0     H  627   8.347   6.595   4.853  0.5533  0.7205  1.3216
    5MOL0     H  628   8.220   6.483   4.861 -0.1110  0.7874 -1.2060
    5MOL0     H  629   8.307   6.680   5.096 -0.5552  1.2094 -1.6582
    5MOL0     H  630   8.174   6.567   5.111 -0.1278 -0.4375  1.6325
    5MOL0     H  631   8.173   6.814   4.925 -1.2345 -2.4502 -4.5839
    5MOL0     H  632   8.089   6.772   5.074 -0.5182  1.0906 -0.2515
    5MOL0     H  633   7.961   6.583   4.941 -1.0121  1.9597  2.6439
    5MOL0     H  634   8.067   6.618   4.815  0.7302  1.9152  0.3513
    5MOL0     H  635   7.850   7.007   4.852 -0.5437  1.8306  0.6836
    5MOL0     H  636   7.706   7.194   4.912 -0.1920 -0.9914 -0.0741
    5MOL0     H  637   7.548   7.132   4.883  0.9413 -0.2571 -0.0784
    5MOL0     H  638   7.589   7.199   5.036 -3.5079  2.4243 -2.3661
    5MOL0     H  639   7.212   6.847   4.994 -3.3034 -0.8872  0.1539
    5MOL0     H  640   6.966   6.867   5.023  0.7316  1.1211 -1.9913
    5MOL0     H  641   6.838   7.071   5.384  1.8429  0.3342 -0.0494
    5MOL0     H  642   6.783   7.174   5.260 -2.0552  1.0576  1.7977
    5MOL0     H  643   6.583   7.037   5.210 -0.8841  0.0147  0.1083
    5MOL0     H  644   6.649   6.908   5.309 -0.5430 -0.2318  2.6465
    5MOL0     H  645   6.619   7.084   5.502  1.4135  0.7374  0.1758
    5MOL0     H  646   6.478   7.027   5.434  2.2334 -2.4200 -0.3561
    5MOL0     H  647   6.611   7.287   5.325 -0.5976  0.7890 -1.3161
    5MOL0     H  648   6.453   7.234   5.283  1.0888  2.4179 -0.3172
    5MOL0     H  649   6.464   7.398   5.464  1.0061  0.2627  0.1354
    5MOL0     H  650   6.532   7.270   5.568  2.0796  0.7558 -1.5659
    5MOL0     H  651   6.271   7.237   5.410 -1.4590 -0.1916  1.4593
    5MOL0     H  652   6.319   7.138   5.545 -0.5627 -1.8669 -3.1119
    5MOL0     H  653   6.270   7.431   5.615  0.3532  0.6498 -0.7705
    5MOL0     H  654   6.257   7.293   5.705  2.3162  2.2993  0.7372
    5MOL0     H  655   6.020   7.336   5.654 -0.2096  0.3981  1.0057
    5MOL0     H  656   6.070   7.199   5.558  0.6191  0.4648  1.6679
    5MOL0     H  657   7.019   7.141   5.335 -0.9487  0.4976 -0.8148
    5MOL0     H  658   7.264   7.173   5.275 -1.7252  1.2277  0.6375
    5MOL0     H  659   7.598   6.716   5.167  2.2939 -1.9144 -0.2733
    5MOL0     H  660   7.793   6.637   5.043  2.7926  0.5824  3.6489
    5MOL0     H  661   7.440   6.063   5.253 -1.4002  1.6838 -2.2183
    5MOL0     H  662   7.226   6.050   5.127 -0.2755  0.4053  0.1210
    5MOL0     H  663   6.957   5.905   4.879 -0.9751 -0.2862 -1.2659
    5MOL0     H  664   6.767   5.927   4.740 -1.1734 -0.0609 -0.3837
    5MOL0     H  665   6.362   5.851   4.966 -1.6329 -0.6842 -0.2118
    5MOL0     H  666   6.293   5.904   4.816 -3.0612 -1.4287  2.7454
    5MOL0     H  667   6.360   5.701   4.697 -1.3796  0.2942 -0.0364
    5MOL0     H  668   6.230   5.676   4.819 -1.4833  0.4773 -0.2256
    5MOL0     H  669   6.394   5.586   4.983  0.7582 -2.1244  0.5488
    5MOL0     H  670   6.529   5.605   4.866 -0.3191 -1.7238  0.3819
    5MOL0     H  671   6.473   5.379   4.864 -1.2309  0.0212  0.9580
    5MOL0     H  672   6.443   5.449   4.709  0.7018  1.5571 -1.5024
    5MOL0     H  673   6.065   5.302   4.823  0.1761 -0.1366  0.8860
    5MOL0     H  674   6.534   5.768   5.075  0.1841  1.0862  0.3089
    5MOL0     H  675   6.719   5.723   5.192  3.1813 -2.6943 -0.7518
    6MOL0     O  676   1.107   1.569   2.245 -0.4882 -0.0519  0.1160
    6MOL0     C  677   1.208   1.577   2.170 -0.4262 -0.0332  0.0938
    6MOL0     O  678   1.210   1.625   2.035 -0.3680  0.3218  1.2806
    6MOL0     C  679   1.091   1.657   1.980 -0.4992 -0.6235 -0.2872
    6MOL0     C  680   0.995   1.560   1.965  0.0531 -0.0336 -0.0390
    6MOL0     C  681   0.864   1.575   1.924 -0.1539  0.4646  0.0156
    6MOL0     C  682   0.825   1.698   1.879  0.2250  0.4553  0.4928
    6MOL0     O  683   0.689   1.709   1.837 -0.4873  0.1968  0.8544
    6MOL0     C  684   0.662   1.807   1.742  0.3547  0.4824  0.2586
    6MOL0     C  685   0.526   1.798   1.677  0.2576  0.4244  0.3151
    6MOL0     C  686   0.508   1.663   1.599 -0.1285 -0.9007  0.4429
    6MOL0     C  687   0.358   1.636   1.575  0.3453 -0.7912 -0.4646
    6MOL0     C  688   0.307   1.672   1.438 -0.7755 -0.6398 -0.4984
    6MOL0     C  689   0.183   1.584   1.410  0.2450  0.8507 -0.0845
    6MOL0     C  690   0.134   1.618   1.270  0.0844 -0.1812 -0.0077
    6MOL0     C  691   0.048   1.498   1.223  0.4467 -0.5285  0.0756
    6MOL0     N  692  -0.012   1.539   1.098 -0.5851  0.4562  0.3610
    6MOL0     C  693  -0.017   1.451   0.985 -0.0782  0.0817  0.4161
    6MOL0     C  694  -0.112   1.502   0.912  0.0409 -0.7204  0.0383
    6MOL0     C  695  -0.151   1.430   0.787 -0.0944 -0.1150 -0.1491
    6MOL0     C  696  -0.288   1.369   0.790  0.0556  0.2634 -0.4277
    6MOL0     C  697  -0.291   1.237   0.877 -0.7002  0.8255  1.0007
    6MOL0     C  698  -0.246   1.106   0.808 -0.6494 -0.0809 -0.9089
    6MOL0     O  699  -0.246   0.994   0.896 -0.2604 -0.0260 -0.4380
    6MOL0     C  700  -0.358   0.969   0.968 -0.5149  1.0656 -0.7885
    6MOL0     C  701  -0.344   0.891   1.082 -0.4795  0.1245 -0.8138
    6MOL0     C  702  -0.448   0.856   1.167 -0.5182  0.4308 -0.7681
    6MOL0     C  703  -0.418   0.758   1.280  0.9476 -0.2788 -0.1642
    6MOL0     C  704  -0.578   0.893   1.147  0.4857  0.6398  0.3289
    6MOL0     C  705  -0.693   0.863   1.243 -0.2861 -0.4051  0.2560
    6MOL0     O  706  -0.665   0.852   1.373  0.2768  0.3606  0.2257
    6MOL0     C  707  -0.771   0.831   1.457 -0.2977 -0.5190 -0.2611
    6MOL0     C  708  -0.768   0.713   1.523 -1.3914 -0.5894  0.0746
    6MOL0     C  709  -0.875   0.679   1.602  0.2656 -0.3577  0.2842
    6MOL0     C  710  -0.978   0.775   1.621  0.6118 -0.0009 -0.5848
    6MOL0     O  711  -1.097   0.754   1.687  0.4459 -0.3900 -0.4195
    6MOL0     C  712  -1.117   0.637   1.771 -0.7292 -0.1889  0.9591
    6MOL0     C  713  -1.250   0.626   1.841 -0.3239 -0.3122  0.5409
    6MOL0     C  714  -1.371   0.563   1.760  0.7553 -0.4090  0.3898
    6MOL0     C  715  -1.501   0.571   1.847  0.0412 -0.3456  0.0173
    6MOL0     C  716  -1.629   0.482   1.793 -0.6310 -0.5343 -0.7088
    6MOL0     C  717  -1.684   0.527   1.661 -0.5847 -0.2616  0.1168
    6MOL0     C  718  -1.801   0.437   1.633  0.3855  0.3549 -0.0759
    6MOL0     C  719  -1.896   0.496   1.522 -0.3566 -0.3687 -0.3559
    6MOL0    Cl  720  -2.037   0.390   1.491  0.1424 -0.3970 -0.0411
    6MOL0     C  721  -0.962   0.898   1.570  0.5977  0.5395  0.8693
    6MOL0     C  722  -0.867   0.925   1.479  0.3917  0.8884 -0.0629
    6MOL0     O  723  -0.804   0.850   1.191  0.1044  1.0443  0.5117
    6MOL0     C  724  -0.594   0.969   1.032  0.7211 -0.2310  0.0009
    6MOL0     C  725  -0.493   1.002   0.943 -0.6618  0.1490 -0.1472
    6MOL0     N  726  -0.159   1.622   0.961 -0.3878  0.8796  0.5325
    6MOL0     N  727  -0.098   1.645   1.068  0.2265  0.5736 -0.3335
    6MOL0     C  728   0.915   1.804   1.892  0.0672  0.5855  0.3463
    6MOL0     C  729   1.055   1.782   1.937  0.5041  0.4774  0.2481
    6MOL0     C  730   1.335   1.522   2.226  0.6573  0.4082 -1.0560
    6MOL0     C  731   1.345   1.443   2.345  0.2312  0.0100 -1.0591
    6MOL0     C  732   1.474   1.395   2.384  0.1422 -0.1056  0.0739
    6MOL0     C  733   1.581   1.422   2.306 -0.4246  1.2133  0.6140
    6MOL0     O  734   1.697   1.358   2.351 -0.2776  0.4500  0.6578
    6MOL0     C  735   1.827   1.426   2.320  0.8291 -0.2591 -0.5154
    6MOL0     C  736   1.928   1.389   2.425  0.6483  0.3751  0.0148
    6MOL0     C  737   2.023   1.295   2.365  0.4681 -0.0018  0.1371
    6MOL0     C  738   2.115   1.242   2.473  0.2091  0.6947 -0.7603
    6MOL0     C  739   2.046   1.133   2.539 -1.0649 -0.2738  0.5708
    6MOL0     C  740   2.000   1.041   2.604  0.4680  0.1845  0.0084
    6MOL0     C  741   1.573   1.496   2.184 -0.5000 -0.4741 -0.1886
    6MOL0     C  742   1.444   1.549   2.154 -0.1462 -0.5984 -0.4460
    6MOL0     H  743   1.007   1.463   2.012  0.4527 -0.2840 -0.6423
    6MOL0     H  744   0.784   1.503   1.924 -0.7444  1.0680  1.7378
    6MOL0     H  745   0.685   1.901   1.793  1.5598  0.6347 -0.5130
    6MOL0     H  746   0.736   1.806   1.661 -0.5860 -2.4402 -0.6820
    6MOL0     H  747   0.447   1.800   1.751 -0.0051 -0.4099  0.0739
    6MOL0     H  748   0.521   1.884   1.609  1.6071  0.2740 -0.0121
    6MOL0     H  749   0.559   1.671   1.503  1.7653  2.0896  1.5663
    6MOL0     H  750   0.551   1.582   1.658  3.6070  1.7776  1.7656
    6MOL0     H  751   0.331   1.533   1.598  0.3008 -0.9434 -1.1646
    6MOL0     H  752   0.295   1.684   1.651 -1.7452 -1.6104 -1.5864
    6MOL0     H  753   0.287   1.780   1.440  0.4160 -0.4014 -0.9815
    6MOL0     H  754   0.375   1.657   1.355 -0.8958 -0.5419 -0.6147
    6MOL0     H  755   0.204   1.476   1.409 -1.2874  0.5174  0.0290
    6MOL0     H  756   0.102   1.618   1.475  0.4969  0.3551  0.4976
    6MOL0     H  757   0.073   1.709   1.270 -0.8557 -0.7888  0.4775
    6MOL0     H  758   0.222   1.630   1.206  1.1978  1.2344  1.7070
    6MOL0     H  759  -0.030   1.486   1.298 -0.6679 -1.6744 -1.1971
    6MOL0     H  760   0.103   1.404   1.214 -0.6189 -1.3505  1.8412
    6MOL0     H  761   0.047   1.364   0.974 -2.5732 -1.7793 -0.3443
    6MOL0     H  762  -0.148   1.501   0.704  0.5992 -0.9259 -0.8473
    6MOL0     H  763  -0.075   1.357   0.756  1.8238  2.6077 -2.4339
    6MOL0     H  764  -0.326   1.339   0.692 -0.3517 -4.8949  1.0187
    6MOL0     H  765  -0.355   1.433   0.848  0.4840 -1.2581  1.8646
    6MOL0     H  766  -0.397   1.233   0.903 -1.4981  0.4562 -1.9875
    6MOL0     H  767  -0.224   1.249   0.963  1.1536 -0.6818 -0.1523
    6MOL0     H  768  -0.147   1.128   0.767 -0.5567  3.0006  0.6366
    6MOL0     H  769  -0.317   1.093   0.726 -3.8803 -0.3664  1.7497
    6MOL0     H  770  -0.243   0.859   1.105 -1.4522 -2.3997  0.3870
    6MOL0     H  771  -0.328   0.700   1.258 -0.1264 -0.6494 -4.2607
    6MOL0     H  772  -0.408   0.798   1.382  0.2660  0.0592 -0.2265
    6MOL0     H  773  -0.497   0.683   1.276  0.0884  0.2285  3.6901
    6MOL0     H  774  -0.689   0.639   1.512 -0.8507 -0.5539  2.8034
    6MOL0     H  775  -0.881   0.588   1.660 -3.4215 -0.5594 -0.2111
    6MOL0     H  776  -1.102   0.546   1.711 -2.9725 -0.1255  0.2015
    6MOL0     H  777  -1.040   0.641   1.849 -1.8055  0.4792  2.0242
    6MOL0     H  778  -1.241   0.558   1.927 -2.3230 -1.2160  0.0781
    6MOL0     H  779  -1.270   0.725   1.882  1.6777  0.6011 -0.5403
    6MOL0     H  780  -1.357   0.456   1.740  1.4007 -0.5593  1.5507
    6MOL0     H  781  -1.385   0.617   1.666 -0.1872 -0.7278  0.3432
    6MOL0     H  782  -1.476   0.532   1.946 -2.2235  3.3959  2.3245
    6MOL0     H  783  -1.538   0.674   1.846 -0.7204 -0.3636 -5.2182
    6MOL0     H  784  -1.713   0.498   1.862  0.2928 -0.4926  0.4429
    6MOL0     H  785  -1.609   0.374   1.791 -2.7765 -1.0503  1.3015
    6MOL0     H  786  -1.713   0.633   1.665 -0.3586  0.0915 -3.6023
    6MOL0     H  787  -1.615   0.522   1.577 -1.1481 -3.2358 -0.2670
    6MOL0     H  788  -1.853   0.423   1.728 -0.7618  0.9969 -0.5774
    6MOL0     H  789  -1.763   0.338   1.606 -0.1264  0.7792 -2.6104
    6MOL0     H  790  -1.841   0.514   1.428  0.7055 -4.1640 -0.6328
    6MOL0     H  791  -1.932   0.590   1.564 -1.3387 -0.3625 -1.1811
    6MOL0     H  792  -1.037   0.972   1.598  0.1529  0.1950  0.6011
    6MOL0     H  793  -0.856   1.020   1.427 -0.9520  0.4892 -1.1367
    6MOL0     H  794  -0.695   1.001   1.007 -0.1146  0.7134  3.8172
    6MOL0     H  795  -0.529   1.051   0.854  0.0781  0.7378 -0.1337
    6MOL0     H  796   0.890   1.907   1.873  0.6809  1.3200  3.0269
    6MOL0     H  797   1.117   1.871   1.940  0.6030  0.4669 -1.0083
    6MOL0     H  798   1.261   1.417   2.409 -0.4154 -2.8188 -2.8514
    6MOL0     H  799   1.480   1.340   2.477  3.2353 -0.3758 -0.1903
    6MOL0     H  800   1.860   1.411   2.217 -1.0369  1.9761 -1.5473
    6MOL0     H  801   1.801   1.533   2.314  1.7280  0.0240  0.3068
    6MOL0     H  802   1.875   1.342   2.508 -2.0468  1.8873 -0.7475
    6MOL0     H  803   1.976   1.482   2.458 -0.7832  1.5938 -1.2001
    6MOL0     H  804   2.080   1.353   2.291  3.2181 -4.8898 -2.0204
    6MOL0     H  805   1.984   1.206   2.316  3.3255 -0.4859 -1.4776
    6MOL0     H  806   2.151   1.320   2.542 -1.4327  0.3727  0.5211
    6MOL0     H  807   2.201   1.201   2.420  0.5210  0.1206  0.1565
    6MOL0     H  808   1.979   0.954   2.663 -2.8364  0.0810 -1.0957
    6MOL0     H  809   1.655   1.515   2.117 -0.3784  0.8266  0.2957
    6MOL0     H  810   1.438   1.603   2.060 -0.9581 -1.6635 -1.0280
    7MOL0     O  811   2.385   7.868   5.590 -0.0852  0.3823  0.8330
    7MOL0     C  812   2.366   7.747   5.591  0.3811  0.1585 -0.3147
    7MOL0     O  813   2.249   7.686   5.551  0.7214  0.4542  0.0967
    7MOL0     C  814   2.135   7.759   5.526  0.5063 -0.4380  0.5025
    7MOL0     C  815   2.056   7.769   5.643  0.1089  0.7398  0.1231
    7MOL0     C  816   1.931   7.825   5.635 -0.3011 -0.2007  0.5754
    7MOL0     C  817   1.880   7.894   5.521  0.3618  0.0651  0.6513
    7MOL0     O  818   1.750   7.927   5.529  0.1748 -0.4469 -0.4387
    7MOL0     C  819   1.699   8.009   5.419 -1.0031  0.4290 -0.3464
    7MOL0     C  820   1.557   7.989   5.401  0.2080  0.7779  0.2722
    7MOL0     C  821   1.483   8.122   5.395 -0.0745 -0.4316 -0.3330
    7MOL0     C  822   1.328   8.103   5.368  0.3755  0.5994 -1.0595
    7MOL0     C  823   1.245   8.221   5.404  0.7486 -0.5009  0.8889
    7MOL0     C  824   1.215   8.320   5.290 -0.2330  1.3147  0.1999
    7MOL0     C  825   1.125   8.268   5.177  0.3151  0.6369 -0.3920
    7MOL0     C  826   1.085   8.375   5.079  0.7073  1.2275  0.2292
    7MOL0     N  827   0.995   8.322   4.980 -0.8495 -0.2565 -0.8389
    7MOL0     C  828   0.866   8.328   4.990 -0.3599  0.8951  0.0352
    7MOL0     C  829   0.818   8.263   4.886 -0.0811 -0.0206  0.3580
    7MOL0     C  830   0.669   8.276   4.843 -0.2633 -0.2765 -0.2754
    7MOL0     C  831   0.614   8.155   4.767  0.5642 -0.3758  0.8558
    7MOL0     C  832   0.464   8.130   4.791  0.4760  0.4743 -0.5787
    7MOL0     C  833   0.406   8.033   4.695  0.0646  0.5613 -0.2795
    7MOL0     O  834   0.256   8.030   4.703 -0.1097 -0.2510 -0.0763
    7MOL0     C  835   0.183   8.098   4.610 -0.3387 -0.0325  0.1764
    7MOL0     C  836   0.222   8.192   4.507 -0.5145 -0.8178  0.1817
    7MOL0     C  837   0.123   8.255   4.427 -0.0383 -0.0092  0.1294
    7MOL0     C  838   0.175   8.346   4.315 -0.1028 -0.2670  0.1532
    7MOL0     C  839  -0.013   8.209   4.436  0.4861 -1.0780  0.4201
    7MOL0     C  840  -0.122   8.250   4.354  0.8790  0.0990 -0.7837
    7MOL0     O  841  -0.229   8.168   4.343 -0.1626 -0.1117 -0.2578
    7MOL0     C  842  -0.344   8.199   4.276 -1.0152 -0.1840  0.5163
    7MOL0     C  843  -0.467   8.195   4.345 -0.2292  0.0493 -0.4847
    7MOL0     C  844  -0.590   8.184   4.285  0.2085  0.0310  0.4202
    7MOL0     C  845  -0.593   8.171   4.148 -0.4346 -0.6127  0.5053
    7MOL0     O  846  -0.714   8.172   4.092  0.0916  0.4207 -0.4354
    7MOL0     C  847  -0.741   8.236   3.962 -0.5446  0.6420 -0.4572
    7MOL0     C  848  -0.889   8.224   3.930  0.4029 -0.1840  0.4250
    7MOL0     C  849  -1.002   8.276   4.027 -0.3228  0.6134 -0.2931
    7MOL0     C  850  -1.043   8.185   4.136 -0.5344 -0.0304  0.5891
    7MOL0     C  851  -1.141   8.252   4.225  0.0341  0.2645 -0.3181
    7MOL0     C  852  -1.286   8.280   4.179 -0.1682  0.2497  0.0407
    7MOL0     C  853  -1.381   8.313   4.300  0.6384  0.2111 -0.3654
    7MOL0     C  854  -1.416   8.466   4.303 -0.1899  0.1050 -0.0837
    7MOL0    Cl  855  -1.521   8.501   4.163 -0.2435 -0.1572 -0.6028
    7MOL0     C  856  -0.465   8.164   4.073  0.0448  0.2050 -0.8269
    7MOL0     C  857  -0.348   8.182   4.139 -0.0367  0.3286  0.4533
    7MOL0     O  858  -0.128   8.373   4.318 -0.3161 -0.3330  0.4421
    7MOL0     C  859  -0.044   8.124   4.541  0.0103  0.7631  1.3572
    7MOL0     C  860   0.048   8.068   4.626  0.2267 -0.2380 -0.2342
    7MOL0     N  861   0.916   8.224   4.801 -0.0328 -0.4642 -0.0867
    7MOL0     N  862   1.021   8.256   4.867 -0.2195  0.1414  0.4184
    7MOL0     C  863   1.959   7.877   5.400 -0.1063  0.2332 -0.6471
    7MOL0     C  864   2.085   7.810   5.403 -0.4119  0.1637  1.1042
    7MOL0     C  865   2.489   7.669   5.614 -0.6070  0.1543 -0.3813
    7MOL0     C  866   2.498   7.545   5.545 -0.2812  0.0427  0.4888
    7MOL0     C  867   2.608   7.464   5.566 -1.1103  0.7976  0.3084
    7MOL0     C  868   2.714   7.493   5.644 -0.8052 -0.6579 -0.5227
    7MOL0     O  869   2.816   7.403   5.656 -0.4323 -0.2927 -0.3222
    7MOL0     C  870   2.938   7.427   5.579  0.3593 -0.2984 -0.0896
    7MOL0     C  871   2.921   7.356   5.438  0.8274 -0.6104 -0.5254
    7MOL0     C  872   2.907   7.205   5.448  0.2659 -0.5690 -0.0698
    7MOL0     C  873   2.919   7.109   5.327  0.3058  0.8978  0.1982
    7MOL0     C  874   2.869   7.174   5.202  0.6506  1.5866 -0.3817
    7MOL0     C  875   2.831   7.211   5.093  0.1678  0.4830  0.5270
    7MOL0     C  876   2.705   7.618   5.719 -0.1379 -0.0647  0.3382
    7MOL0     C  877   2.595   7.705   5.697  0.4641  0.0464 -0.4683
    7MOL0     H  878   2.091   7.735   5.740 -1.0117  3.3794  1.5603
    7MOL0     H  879   1.874   7.830   5.728 -1.2290 -0.8508  0.0575
    7MOL0     H  880   1.707   8.117   5.435 -1.4921  0.6206 -1.3272
    7MOL0     H  881   1.747   7.986   5.324  1.0999  1.2065  0.4619
    7MOL0     H  882   1.540   7.924   5.315  1.3873 -0.2664  0.7905
    7MOL0     H  883   1.517   7.938   5.490 -0.1653 -0.0532 -0.3512
    7MOL0     H  884   1.483   8.157   5.498 -1.5195  0.6533 -0.6686
    7MOL0     H  885   1.531   8.195   5.329 -1.4509 -2.0017 -3.2886
    7MOL0     H  886   1.324   8.082   5.261  2.9355  2.0584 -1.5090
    7MOL0     H  887   1.280   8.027   5.430 -1.2422  3.0109  0.8087
    7MOL0     H  888   1.149   8.190   5.448 -0.0226 -0.5799 -0.7755
    7MOL0     H  889   1.295   8.270   5.489  1.6791 -0.0282  0.0852
    7MOL0     H  890   1.162   8.405   5.334 -5.0981 -1.3724  0.2168
    7MOL0     H  891   1.307   8.361   5.248 -0.4742  1.2747 -0.3794
    7MOL0     H  892   1.168   8.185   5.120 -3.5752 -0.5423 -2.0205
    7MOL0     H  893   1.032   8.226   5.216 -0.1579  1.3336 -0.7406
    7MOL0     H  894   1.166   8.422   5.023  2.2334  0.4639  1.7116
    7MOL0     H  895   1.034   8.456   5.132 -1.7355 -1.0527  1.5913
    7MOL0     H  896   0.807   8.386   5.059  1.8729  1.8750  1.2446
    7MOL0     H  897   0.612   8.299   4.934  0.0978  0.5761 -0.2546
    7MOL0     H  898   0.666   8.362   4.776  2.1404 -0.8979 -1.2774
    7MOL0     H  899   0.665   8.071   4.814 -2.0463 -1.8350  1.2699
    7MOL0     H  900   0.638   8.169   4.661 -0.4382 -1.2155  0.5011
    7MOL0     H  901   0.406   8.218   4.761  3.4605  3.2507  1.1085
    7MOL0     H  902   0.450   8.110   4.898 -6.7365  1.8568 -0.7556
    7MOL0     H  903   0.438   7.932   4.718 -1.1639  0.4499  1.1224
    7MOL0     H  904   0.431   8.065   4.593 -1.1980  2.9816  0.0846
    7MOL0     H  905   0.327   8.214   4.488 -0.9511 -0.5517 -2.0821
    7MOL0     H  906   0.284   8.333   4.313 -0.2084 -1.6373 -3.1755
    7MOL0     H  907   0.117   8.326   4.225  0.2592 -0.0439 -0.1318
    7MOL0     H  908   0.158   8.447   4.353  1.9549 -0.8941  3.1483
    7MOL0     H  909  -0.458   8.182   4.452  0.3405 -1.2993 -0.6721
    7MOL0     H  910  -0.686   8.162   4.332 -0.3676 -1.4279 -1.2806
    7MOL0     H  911  -0.717   8.342   3.969  0.6494  0.4468 -1.1680
    7MOL0     H  912  -0.686   8.181   3.884 -2.4754 -2.1821  0.0599
    7MOL0     H  913  -0.890   8.269   3.831 -0.4371 -1.3046 -0.0958
    7MOL0     H  914  -0.911   8.118   3.912  1.2135 -0.5364  1.3674
    7MOL0     H  915  -1.086   8.296   3.960 -0.7647  3.9420  1.0338
    7MOL0     H  916  -0.974   8.380   4.049 -1.7765  1.4884 -2.2926
    7MOL0     H  917  -1.091   8.098   4.089 -0.1760  0.0386  0.0917
    7MOL0     H  918  -0.957   8.149   4.192 -1.9791 -2.0742  1.6493
    7MOL0     H  919  -1.101   8.341   4.276  0.7187 -1.4853  2.4408
    7MOL0     H  920  -1.159   8.185   4.310  1.5960  0.6171  0.3405
    7MOL0     H  921  -1.285   8.369   4.115  2.2784  0.1246 -0.1998
    7MOL0     H  922  -1.321   8.190   4.127  0.2693 -1.7113  2.9173
    7MOL0     H  923  -1.329   8.288   4.393  0.8488 -1.2535 -0.8517
    7MOL0     H  924  -1.473   8.255   4.293 -0.9375  2.6757 -1.3769
    7MOL0     H  925  -1.323   8.524   4.296  1.5021 -1.8826  3.1303
    7MOL0     H  926  -1.474   8.488   4.393 -2.0439  1.6428 -1.5850
    7MOL0     H  927  -0.470   8.150   3.966 -2.4768 -3.1812 -0.4078
    7MOL0     H  928  -0.250   8.179   4.091  0.1012  0.9102  0.6930
    7MOL0     H  929  -0.150   8.101   4.547  0.0607  0.3736  0.8167
    7MOL0     H  930   0.027   7.992   4.700  2.4753  0.4676  1.2190
    7MOL0     H  931   1.933   7.920   5.303 -1.7837 -1.0673 -0.8155
    7MOL0     H  932   2.133   7.796   5.306 -1.1729  1.5284  0.4981
    7MOL0     H  933   2.412   7.515   5.487  1.7475  1.7463 -3.8784
    7MOL0     H  934   2.620   7.365   5.524 -0.9842 -0.1916  2.5633
    7MOL0     H  935   2.955   7.535   5.585 -3.9172  0.5202  0.7720
    7MOL0     H  936   3.014   7.369   5.632 -1.7099 -1.9654  1.2090
    7MOL0     H  937   3.011   7.368   5.376  2.8540 -1.1436  2.1336
    7MOL0     H  938   2.836   7.403   5.387 -0.9241 -0.6140  2.2065
    7MOL0     H  939   2.810   7.173   5.487  0.0342 -0.8433 -0.8522
    7MOL0     H  940   2.991   7.167   5.507 -0.0575  0.0173  0.7909
    7MOL0     H  941   2.874   7.010   5.337 -1.2000  1.5142 -0.1910
    7MOL0     H  942   3.024   7.081   5.315  0.3766  0.4974  1.5710
    7MOL0     H  943   2.803   7.230   4.992  3.3068  0.2609 -0.4804
    7MOL0     H  944   2.787   7.640   5.787 -0.2589 -0.8732  0.7613
    7MOL0     H  945   2.581   7.802   5.742 -0.4946 -0.7225  0.9846
    8MOL0     O  946  10.318  11.334  10.235  0.2337 -0.9447  0.6424
    8MOL0     C  947  10.370  11.225  10.257 -0.0887 -0.2901  0.4179
    8MOL0     O  948  10.300  11.103  10.290 -0.1696 -0.1478  0.3883
    8MOL0     C  949  10.165  11.093  10.291  0.8702 -1.0873  0.2812
    8MOL0     C  950  10.077  11.185  10.227  0.5848  0.1197  0.0085
    8MOL0     C  951   9.942  11.180  10.263 -0.8221  0.4955  1.4653
    8MOL0     C  952   9.885  11.073  10.333  0.2098 -1.1113 -0.2339
    8MOL0     O  953   9.750  11.064  10.321  0.2561  0.3883  0.5763
    8MOL0     C  954   9.679  10.962  10.395 -0.4788  1.0155 -0.0718
    8MOL0     C  955   9.533  10.955  10.357 -1.1129  0.2766  0.1769
    8MOL0     C  956   9.478  11.055  10.442 -0.5042 -0.5109 -0.8320
    8MOL0     C  957   9.340  11.091  10.402 -0.2913 -0.2590 -0.7507
    8MOL0     C  958   9.309  11.233  10.440 -0.7683  0.4783  0.2186
    8MOL0     C  959   9.159  11.266  10.387  0.1130 -0.2905  0.2129
    8MOL0     C  960   9.045  11.191  10.456 -0.5998  0.5422  0.4499
    8MOL0     C  961   9.033  11.223  10.609 -0.2356 -1.2706 -0.4290
    8MOL0     N  962   9.011  11.366  10.632 -0.2284 -0.1245  0.3404
    8MOL0     C  963   8.892  11.426  10.631 -0.7491 -0.1146 -0.4615
    8MOL0     C  964   8.919  11.553  10.660  0.6899 -0.4214 -0.0137
    8MOL0     C  965   8.823  11.654  10.701 -0.5118 -0.2875 -0.2895
    8MOL0     C  966   8.775  11.753  10.594 -0.1011 -0.1977 -0.0997
    8MOL0     C  967   8.728  11.680  10.469 -0.2226  0.2077 -0.4377
    8MOL0     C  968   8.653  11.756  10.367 -0.3499  0.4329 -0.5061
    8MOL0     O  969   8.559  11.839  10.433  0.0299 -0.1373  0.4636
    8MOL0     C  970   8.453  11.907  10.368  0.0637  0.3278  0.0188
    8MOL0     C  971   8.363  11.970  10.442  0.5702 -0.4716 -0.9297
    8MOL0     C  972   8.248  12.028  10.384 -0.8420  0.2660  0.2049
    8MOL0     C  973   8.145  12.083  10.484  0.5324 -0.2369 -0.4449
    8MOL0     C  974   8.230  12.011  10.241 -0.2042  0.0465  0.6000
    8MOL0     C  975   8.103  12.045  10.176  0.4491 -0.5686 -0.0276
    8MOL0     O  976   8.070  11.977  10.060  0.4713  0.1901  0.5049
    8MOL0     C  977   7.941  11.992  10.003 -0.7525  0.2691 -0.0619
    8MOL0     C  978   7.825  11.958  10.071 -0.0496 -1.1990 -0.6086
    8MOL0     C  979   7.700  11.945  10.015  0.0626  0.4890  0.1542
    8MOL0     C  980   7.691  11.954   9.878 -0.5476  0.1892 -0.2855
    8MOL0     O  981   7.568  11.960   9.826  0.3324 -0.4155 -0.0865
    8MOL0     C  982   7.448  11.974   9.905  0.6886 -0.0275 -0.7676
    8MOL0     C  983   7.341  12.047   9.825  0.5788  0.2516  0.1379
    8MOL0     C  984   7.269  11.965   9.719  0.9106 -0.2105 -0.4351
    8MOL0     C  985   7.118  11.978   9.720  0.4676 -0.6104  0.2992
    8MOL0     C  986   7.059  11.857   9.640  0.3141 -0.6022 -0.2463
    8MOL0     C  987   6.906  11.840   9.613  0.5393  0.0262 -1.1301
    8MOL0     C  988   6.822  11.856   9.741  0.2641  0.1444 -0.8170
    8MOL0     C  989   6.675  11.865   9.713  1.2063 -1.0470 -0.0397
    8MOL0    Cl  990   6.576  11.851   9.863 -0.5687  0.0487 -0.2233
    8MOL0     C  991   7.808  11.975   9.804  0.0793 -0.2666 -0.2471
    8MOL0     C  992   7.932  11.994   9.866 -0.5903  0.3467  0.2260
    8MOL0     O  993   8.039  12.140  10.225  1.4034 -1.1835  0.2213
    8MOL0     C  994   8.336  11.954  10.161  0.0440 -0.4693  0.2277
    8MOL0     C  995   8.448  11.904  10.228 -0.5125 -0.1760  0.7680
    8MOL0     N  996   9.056  11.568  10.689 -0.3060 -0.3039  0.1004
    8MOL0     N  997   9.107  11.456  10.661  0.0042  0.3700 -0.0128
    8MOL0     C  998   9.970  10.982  10.384 -1.3887  0.4428  0.4081
    8MOL0     C  999  10.112  10.996  10.366  0.4456 -0.2469 -0.2411
    8MOL0     C 1000  10.514  11.214  10.261  0.4273 -0.3209  0.3548
    8MOL0     C 1001  10.597  11.311  10.196 -0.0159 -0.4470 -0.2147
    8MOL0     C 1002  10.733  11.308  10.210 -0.1448 -0.1453 -0.8508
    8MOL0     C 1003  10.798  11.207  10.281  0.0650  0.3470 -0.9395
    8MOL0     O 1004  10.931  11.217  10.287 -0.0178  0.2316  0.2680
    8MOL0     C 1005  10.994  11.114  10.356  0.7434 -0.0126  0.0713
    8MOL0     C 1006  11.140  11.137  10.357  0.1305  0.6406  0.6858
    8MOL0     C 1007  11.203  11.046  10.461  0.8285 -0.2370 -0.2424
    8MOL0     C 1008  11.357  11.035  10.460  0.6636 -0.3468  0.1545
    8MOL0     C 1009  11.409  11.119  10.567 -0.5947  1.3120  0.5427
    8MOL0     C 1010  11.468  11.190  10.644 -0.5616  0.0472  0.5773
    8MOL0     C 1011  10.712  11.106  10.344 -0.5674 -0.4239 -0.5804
    8MOL0     C 1012  10.575  11.121  10.336  0.2353 -0.2439  0.0533
    8MOL0     H 1013  10.107  11.263  10.158  5.5935  1.2013  2.8363
    8MOL0     H 1014   9.880  11.263  10.228  1.1838  1.4874  0.0837
    8MOL0     H 1015   9.711  10.861  10.372 -1.6299 -0.2135  3.1080
    8MOL0     H 1016   9.700  10.974  10.502 -0.2577  2.2860 -0.2337
    8MOL0     H 1017   9.519  10.963  10.249 -2.6266 -1.9395  0.1334
    8MOL0     H 1018   9.494  10.855  10.380 -3.5552  0.6957 -1.7909
    8MOL0     H 1019   9.468  11.014  10.543  0.4365 -0.1214 -0.5608
    8MOL0     H 1020   9.549  11.138  10.446  1.5175 -2.1194 -1.1392
    8MOL0     H 1021   9.318  11.073  10.296  1.8716  0.0527 -1.2957
    8MOL0     H 1022   9.280  11.026  10.466 -1.6491  1.8002  0.1784
    8MOL0     H 1023   9.313  11.234  10.549  3.7820  1.0296  0.2567
    8MOL0     H 1024   9.384  11.298  10.394  1.5121 -0.9633  1.7010
    8MOL0     H 1025   9.140  11.373  10.397 -3.9124 -0.9096  0.6361
    8MOL0     H 1026   9.164  11.238  10.281 -1.1923  1.0654 -0.2352
    8MOL0     H 1027   8.955  11.232  10.410 -0.1106  3.5645  1.9339
    8MOL0     H 1028   9.048  11.084  10.437 -1.8488  0.4332  0.7857
    8MOL0     H 1029   9.120  11.190  10.667  0.6679  2.3318  0.5413
    8MOL0     H 1030   8.941  11.174  10.642 -2.2324  1.7778 -1.0617
    8MOL0     H 1031   8.796  11.376  10.627  1.0264 -3.8094 -1.0290
    8MOL0     H 1032   8.741  11.605  10.755 -1.2494  2.1972  1.0068
    8MOL0     H 1033   8.866  11.717  10.779  1.1582  0.7498 -1.9568
    8MOL0     H 1034   8.863  11.812  10.568  0.1560 -1.4884 -2.4329
    8MOL0     H 1035   8.698  11.818  10.637  0.5136  1.6125 -1.6051
    8MOL0     H 1036   8.682  11.588  10.507  2.7710 -0.8273  0.9843
    8MOL0     H 1037   8.820  11.647  10.420  1.0121  1.7875  0.7287
    8MOL0     H 1038   8.598  11.694  10.295  3.9457  0.9442 -4.7976
    8MOL0     H 1039   8.710  11.830  10.310  0.0965 -1.4975 -2.7100
    8MOL0     H 1040   8.358  11.955  10.549  2.6837  0.7076 -0.6032
    8MOL0     H 1041   8.042  12.054  10.462  0.7364  0.2502 -2.2146
    8MOL0     H 1042   8.166  12.055  10.587  0.9930  0.7773 -0.2543
    8MOL0     H 1043   8.148  12.192  10.481 -1.9448 -0.1270 -0.7589
    8MOL0     H 1044   7.846  11.934  10.175 -1.0093  1.7355  0.3679
    8MOL0     H 1045   7.615  11.929  10.081 -0.7197 -0.7942 -1.0994
    8MOL0     H 1046   7.417  11.878   9.947  2.2329  0.9411  3.0328
    8MOL0     H 1047   7.465  12.041   9.991  0.6898  1.6755 -2.0438
    8MOL0     H 1048   7.270  12.091   9.895  0.6713  0.4281  0.1213
    8MOL0     H 1049   7.382  12.138   9.780 -3.6467  2.6740  0.5924
    8MOL0     H 1050   7.300  11.860   9.729 -0.9009 -0.6673  1.0158
    8MOL0     H 1051   7.304  11.995   9.620  1.8074 -1.5424 -0.5553
    8MOL0     H 1052   7.080  11.980   9.823  1.9141 -0.3615  0.8524
    8MOL0     H 1053   7.084  12.071   9.673 -0.4298 -0.0071  2.0517
    8MOL0     H 1054   7.099  11.765   9.684 -0.2889  0.9060  3.9963
    8MOL0     H 1055   7.090  11.865   9.536  0.5060 -2.5412 -0.3696
    8MOL0     H 1056   6.874  11.919   9.544  3.6487  1.2305 -1.3311
    8MOL0     H 1057   6.886  11.738   9.582 -1.7157  0.0232  0.1050
    8MOL0     H 1058   6.860  11.947   9.790  2.8388 -0.7113 -1.1101
    8MOL0     H 1059   6.844  11.774   9.809  2.0889  0.5868 -0.8019
    8MOL0     H 1060   6.651  11.776   9.655  0.9344 -1.6920  1.0225
    8MOL0     H 1061   6.632  11.947   9.654  1.4156 -1.2955 -0.5366
    8MOL0     H 1062   7.790  11.978   9.697  0.8434 -0.7473 -0.4035
    8MOL0     H 1063   8.012  11.993   9.792 -2.5897 -0.9557 -2.0810
    8MOL0     H 1064   8.335  11.934  10.055 -1.5270 -0.7382  0.2710
    8MOL0     H 1065   8.526  11.855  10.170 -0.6922  1.1610 -0.6404
    8MOL0     H 1066   9.939  10.890  10.433 -2.6406 -1.4558 -3.4578
    8MOL0     H 1067  10.174  10.935  10.431 -0.2942  0.0470  0.7718
    8MOL0     H 1068  10.557  11.379  10.122  3.7842  1.3132 -0.8794
    8MOL0     H 1069  10.795  11.377  10.152  1.0944 -0.4214  0.0859
    8MOL0     H 1070  10.949  11.116  10.456 -3.2783 -0.0513 -1.5485
    8MOL0     H 1071  10.976  11.014  10.315 -2.1406  0.3282  0.3530
    8MOL0     H 1072  11.154  11.241  10.387 -1.1177  1.1371 -0.3549
    8MOL0     H 1073  11.189  11.111  10.262  1.6925  0.2072  1.5730
    8MOL0     H 1074  11.165  10.946  10.437  1.7852 -0.5854 -0.3401
    8MOL0     H 1075  11.159  11.074  10.557 -0.9451 -3.2418 -0.0444
    8MOL0     H 1076  11.398  11.080  10.369 -0.3768  1.5340  0.5681
    8MOL0     H 1077  11.399  10.934  10.457 -0.0908 -0.6351 -1.0654
    8MOL0     H 1078  11.504  11.258  10.719 -0.9540  1.8243 -0.7885
    8MOL0     H 1079  10.755  11.022  10.397  1.2803  0.5164 -0.5227
    8MOL0     H 1080  10.518  11.043  10.387 -0.4069  1.1967  1.6197
    9MOL0     O 1081   1.046   6.218   4.585  0.5253  0.2821  0.4716
    9MOL0     C 1082   1.123   6.274   4.502 -0.0984 -0.2168 -0.5458
    9MOL0     O 1083   1.074   6.349   4.392 -0.6730  0.7427 -0.0739
    9MOL0     C 1084   0.943   6.359   4.381 -0.4975 -0.1316 -0.8389
    9MOL0     C 1085   0.887   6.473   4.436 -0.1550  0.1496  0.4465
    9MOL0     C 1086   0.756   6.502   4.430 -0.3976  1.3950 -1.1111
    9MOL0     C 1087   0.673   6.407   4.365 -0.1044 -0.5997  1.2786
    9MOL0     O 1088   0.544   6.441   4.325 -0.1241  0.6927 -0.3074
    9MOL0     C 1089   0.499   6.581   4.321 -0.2054 -0.2876 -0.7646
    9MOL0     C 1090   0.368   6.604   4.243  0.1605  0.4276 -0.6031
    9MOL0     C 1091   0.255   6.516   4.305 -0.2369  0.3956 -0.5967
    9MOL0     C 1092   0.125   6.568   4.267 -0.1249 -0.4921  0.3537
    9MOL0     C 1093   0.013   6.478   4.328  0.0879 -0.6216  0.1944
    9MOL0     C 1094  -0.126   6.513   4.266  0.4360 -0.3247 -0.3130
    9MOL0     C 1095  -0.241   6.448   4.345  0.1772 -0.1038  0.1722
    9MOL0     C 1096  -0.381   6.469   4.275 -0.4537  0.0952  0.0644
    9MOL0     N 1097  -0.491   6.447   4.369 -0.1200  0.6162 -0.5757
    9MOL0     C 1098  -0.505   6.343   4.458 -0.2912  0.5693 -0.1725
    9MOL0     C 1099  -0.615   6.380   4.526  0.0197  0.0115  0.4957
    9MOL0     C 1100  -0.682   6.284   4.626 -0.0326 -0.6431  0.0213
    9MOL0     C 1101  -0.656   6.333   4.768  0.4426 -0.2984 -0.1001
    9MOL0     C 1102  -0.738   6.269   4.882  0.7727 -0.4723 -0.5708
    9MOL0     C 1103  -0.872   6.325   4.880 -0.8440  0.1933  0.4519
    9MOL0     O 1104  -0.940   6.245   4.977 -0.6369 -0.4837 -0.4513
    9MOL0     C 1105  -1.069   6.277   5.000 -0.2436 -1.0287  0.2479
    9MOL0     C 1106  -1.134   6.384   4.931 -0.7203  0.1174 -0.1705
    9MOL0     C 1107  -1.262   6.428   4.971  0.1489  0.9502  0.1303
    9MOL0     C 1108  -1.338   6.522   4.888  0.1864  0.4522 -0.1569
    9MOL0     C 1109  -1.331   6.362   5.078 -0.6238  0.9199  0.2769
    9MOL0     C 1110  -1.466   6.412   5.139 -0.1454 -1.4319  0.5860
    9MOL0     O 1111  -1.498   6.544   5.140 -0.1030 -0.5814  0.9413
    9MOL0     C 1112  -1.618   6.591   5.186  0.7043 -0.9183  0.5439
    9MOL0     C 1113  -1.620   6.714   5.245 -0.3370 -1.3264  0.9364
    9MOL0     C 1114  -1.736   6.771   5.284 -0.4788  0.6231 -0.3522
    9MOL0     C 1115  -1.861   6.711   5.278  0.2494  0.3841  0.1294
    9MOL0     O 1116  -1.983   6.759   5.330 -0.1287  0.0326 -0.2792
    9MOL0     C 1117  -1.994   6.883   5.407 -0.0604  0.5137  0.5461
    9MOL0     C 1118  -2.135   6.900   5.468 -0.7029 -0.1392 -0.1997
    9MOL0     C 1119  -2.134   7.018   5.575 -0.4385 -0.0044  0.6199
    9MOL0     C 1120  -2.277   7.068   5.616 -0.3243  0.1286  0.2761
    9MOL0     C 1121  -2.271   7.177   5.721 -0.1572 -0.3938 -0.2845
    9MOL0     C 1122  -2.409   7.223   5.783  0.5893 -0.2451  0.6087
    9MOL0     C 1123  -2.500   7.114   5.851  0.4275  0.7123 -0.6186
    9MOL0     C 1124  -2.603   7.190   5.945  1.0660  0.5012  0.3468
    9MOL0    Cl 1125  -2.689   7.329   5.863 -0.3678  0.4143 -0.2427
    9MOL0     C 1126  -1.863   6.586   5.212 -0.9811  0.1299 -0.5045
    9MOL0     C 1127  -1.745   6.524   5.173 -0.7652 -0.2914 -0.4542
    9MOL0     O 1128  -1.520   6.330   5.207  0.1697 -0.1162 -0.1353
    9MOL0     C 1129  -1.265   6.258   5.143 -0.7047  0.7951  0.5540
    9MOL0     C 1130  -1.137   6.213   5.108 -0.4767 -0.1404  0.4854
    9MOL0     N 1131  -0.662   6.508   4.491 -0.1534 -0.3378  0.8619
    9MOL0     N 1132  -0.582   6.551   4.393  0.2172 -0.0912 -0.2274
    9MOL0     C 1133   0.729   6.293   4.306 -0.2242  0.0533 -0.2894
    9MOL0     C 1134   0.862   6.271   4.312 -0.3146  0.6353 -0.0714
    9MOL0     C 1135   1.271   6.265   4.520  0.1590 -0.4818  0.3262
    9MOL0     C 1136   1.335   6.178   4.603 -0.5681 -0.3487  0.6305
    9MOL0     C 1137   1.471   6.152   4.588  0.3582 -0.3638 -0.2690
    9MOL0     C 1138   1.551   6.235   4.513 -0.3295 -0.3792  0.9425
    9MOL0     O 1139   1.681   6.204   4.526  0.1600 -0.0597  0.4794
    9MOL0     C 1140   1.786   6.269   4.445  0.9532 -0.6456  0.1360
    9MOL0     C 1141   1.819   6.398   4.516  0.6249  0.5130  0.3890
    9MOL0     C 1142   1.875   6.372   4.651 -0.3902  0.1942 -0.0120
    9MOL0     C 1143   1.913   6.500   4.716  0.0967  0.1939  0.7507
    9MOL0     C 1144   1.947   6.486   4.860  0.4312  0.2057  0.4576
    9MOL0     C 1145   2.000   6.493   4.977  0.4845 -0.4213 -0.6690
    9MOL0     C 1146   1.485   6.331   4.435  0.5034 -0.6550  0.4903
    9MOL0     C 1147   1.348   6.344   4.438  0.5057  0.6156 -0.1342
    9MOL0     H 1148   0.957   6.540   4.483  0.1766  0.6970 -0.8024
    9MOL0     H 1149   0.702   6.588   4.469 -0.7685  1.1249 -1.0214
    9MOL0     H 1150   0.485   6.615   4.425  0.1861 -2.9039  0.2127
    9MOL0     H 1151   0.577   6.645   4.277  0.2969 -1.6346 -1.8876
    9MOL0     H 1152   0.360   6.711   4.267  1.5775  1.1293 -2.8338
    9MOL0     H 1153   0.387   6.592   4.135  0.1489 -0.6723 -0.4923
    9MOL0     H 1154   0.273   6.415   4.268 -0.5181  0.4408 -0.8578
    9MOL0     H 1155   0.259   6.511   4.414  1.0193  0.0502 -0.6482
    9MOL0     H 1156   0.123   6.677   4.282 -0.8231 -0.0100 -2.5787
    9MOL0     H 1157   0.102   6.552   4.161  0.5162 -0.7626  0.2566
    9MOL0     H 1158   0.026   6.371   4.310  0.5033 -0.5369 -0.0193
    9MOL0     H 1159   0.003   6.489   4.436 -1.2300 -5.4272  0.8144
    9MOL0     H 1160  -0.130   6.622   4.274  1.1709 -0.4068  4.0378
    9MOL0     H 1161  -0.110   6.474   4.165  2.5796  3.9001 -1.8717
    9MOL0     H 1162  -0.225   6.339   4.346  0.8063 -0.1107 -2.3454
    9MOL0     H 1163  -0.242   6.488   4.447 -2.7930 -2.5265  1.2507
    9MOL0     H 1164  -0.389   6.399   4.191  1.0918 -1.2423  0.9883
    9MOL0     H 1165  -0.381   6.569   4.230 -0.8492 -0.4999 -1.3285
    9MOL0     H 1166  -0.442   6.255   4.459  1.7582  1.9726  1.7978
    9MOL0     H 1167  -0.790   6.282   4.606  0.5526 -1.7878 -3.9258
    9MOL0     H 1168  -0.646   6.182   4.612  1.3907 -0.2940  0.9558
    9MOL0     H 1169  -0.679   6.439   4.761 -3.2757 -0.7749  2.4237
    9MOL0     H 1170  -0.550   6.311   4.788  0.2451 -2.5683 -1.1966
    9MOL0     H 1171  -0.682   6.280   4.975  1.6909 -0.1817 -1.1483
    9MOL0     H 1172  -0.755   6.161   4.868 -2.5419 -0.0831 -0.4711
    9MOL0     H 1173  -0.918   6.309   4.782  0.0548 -2.1506  0.3501
    9MOL0     H 1174  -0.867   6.426   4.920 -0.1270 -0.0932  1.0955
    9MOL0     H 1175  -1.093   6.430   4.841  0.0793  0.3994  0.3348
    9MOL0     H 1176  -1.316   6.623   4.924 -0.7162  0.0821  1.5409
    9MOL0     H 1177  -1.308   6.516   4.784  2.7138 -0.4195  0.5493
    9MOL0     H 1178  -1.446   6.508   4.899  0.2187  0.6795  0.5293
    9MOL0     H 1179  -1.532   6.778   5.239 -0.9345 -0.4937  0.7568
    9MOL0     H 1180  -1.740   6.873   5.322 -1.7507  0.8247 -0.9511
    9MOL0     H 1181  -1.926   6.866   5.492  0.2162  0.5475  0.3340
    9MOL0     H 1182  -1.959   6.972   5.354  1.4479 -0.1131  0.4215
    9MOL0     H 1183  -2.206   6.924   5.388  0.4580  0.5327 -1.0622
    9MOL0     H 1184  -2.168   6.810   5.521 -0.7447  1.4100  2.5998
    9MOL0     H 1185  -2.070   7.098   5.536  1.3519 -1.1532  1.0836
    9MOL0     H 1186  -2.084   6.976   5.663  0.5593 -0.3947 -0.1123
    9MOL0     H 1187  -2.334   7.098   5.528  0.8149 -0.0981 -0.5624
    9MOL0     H 1188  -2.330   6.988   5.669  2.0173  0.9483  4.3646
    9MOL0     H 1189  -2.213   7.256   5.671 -1.8302  0.5882 -0.7360
    9MOL0     H 1190  -2.206   7.144   5.802  0.6827  2.1478  0.1498
    9MOL0     H 1191  -2.385   7.308   5.847  0.8062 -0.3922  0.7245
    9MOL0     H 1192  -2.466   7.256   5.695 -3.6533 -3.6665  1.7222
    9MOL0     H 1193  -2.438   7.036   5.898  0.8716  1.0349 -0.6597
    9MOL0     H 1194  -2.559   7.055   5.780  0.8734  1.0822 -1.3124
    9MOL0     H 1195  -2.562   7.235   6.036  3.2793 -0.1745 -0.2634
    9MOL0     H 1196  -2.677   7.117   5.982  0.3944 -0.1247 -2.0284
    9MOL0     H 1197  -1.953   6.527   5.199  0.2894 -1.3523 -3.6827
    9MOL0     H 1198  -1.734   6.422   5.139  0.8773 -0.5326  0.7146
    9MOL0     H 1199  -1.308   6.212   5.232  0.3171  0.4244  0.8736
    9MOL0     H 1200  -1.087   6.134   5.164  1.7172  0.2483 -0.7991
    9MOL0     H 1201   0.671   6.223   4.246  0.1929  0.6547 -1.4269
    9MOL0     H 1202   0.920   6.194   4.261 -1.8818 -0.1083 -0.7928
    9MOL0     H 1203   1.279   6.111   4.668 -1.3029 -0.1030  0.2477
    9MOL0     H 1204   1.515   6.072   4.646  2.0678 -0.6361 -1.8632
    9MOL0     H 1205   1.865   6.195   4.430  0.6292 -1.2489  1.3179
    9MOL0     H 1206   1.743   6.294   4.348  1.7406  1.2822  0.2390
    9MOL0     H 1207   1.728   6.459   4.520  0.4108  0.3449 -1.1696
    9MOL0     H 1208   1.886   6.467   4.464  3.2155 -0.6419  2.0312
    9MOL0     H 1209   1.962   6.305   4.653  1.4305  2.4291  0.0935
    9MOL0     H 1210   1.799   6.314   4.704 -0.7174 -1.6557 -2.3128
    9MOL0     H 1211   1.824   6.564   4.710 -1.4140 -1.7233  1.6613
    9MOL0     H 1212   2.001   6.541   4.665 -0.8166  2.1412  0.6367
    9MOL0     H 1213   2.048   6.494   5.072  0.2297  2.5644 -0.4842
    9MOL0     H 1214   1.542   6.398   4.372  0.3466 -0.8655  0.1205
    9MOL0     H 1215   1.299   6.409   4.366 -0.6521 -1.3982 -1.2688
   10MOL0     O 1216  10.767   9.969   3.411 -0.0132  0.2554 -0.2388
   10MOL0     C 1217  10.708  10.009   3.516 -0.7698 -0.4673  0.3785
   10MOL0     O 1218  10.579  10.035   3.529  0.5284  0.1701 -0.8233
   10MOL0     C 1219  10.485   9.975   3.451 -0.0415  0.2959 -0.4844
   10MOL0     C 1220  10.458  10.032   3.327 -0.3114  0.0974  0.7304
   10MOL0     C 1221  10.365   9.972   3.241 -0.1117  1.0766  0.3816
   10MOL0     C 1222  10.293   9.854   3.270  0.0312 -0.1245 -0.4547
   10MOL0     O 1223  10.200   9.817   3.177 -0.0938 -0.0429  0.1912
   10MOL0     C 1224  10.129   9.696   3.184  0.1557  0.0200  0.5926
   10MOL0     C 1225   9.989   9.717   3.116 -0.8368 -0.7441 -0.7820
   10MOL0     C 1226   9.896   9.608   3.157  0.7415  1.1608 -0.1263
   10MOL0     C 1227   9.904   9.486   3.057 -0.0543  0.8336  0.2746
   10MOL0     C 1228   9.834   9.504   2.917 -0.7135  0.5468  0.1457
   10MOL0     C 1229   9.685   9.485   2.915 -0.5679 -0.3821 -1.2584
   10MOL0     C 1230   9.629   9.534   2.784 -0.7007  0.1787  0.7691
   10MOL0     C 1231   9.476   9.553   2.789  0.2291 -0.0055  0.0573
   10MOL0     N 1232   9.429   9.689   2.781  0.5081 -0.0966 -0.7995
   10MOL0     C 1233   9.413   9.759   2.898 -0.2790  0.7993 -0.5505
   10MOL0     C 1234   9.342   9.865   2.857  0.2641  0.1110 -0.0305
   10MOL0     C 1235   9.291   9.966   2.961 -0.5193  0.2412 -0.2964
   10MOL0     C 1236   9.137   9.990   2.956  0.5940  0.0182  0.8411
   10MOL0     C 1237   9.093  10.125   3.038  0.4383 -0.7718  0.5842
   10MOL0     C 1238   9.046  10.237   2.937 -0.6789 -0.0210 -0.1845
   10MOL0     O 1239   9.007  10.348   3.021 -0.1556 -0.2204  0.1568
   10MOL0     C 1240   8.967  10.469   2.954  0.6187  0.3741 -0.5999
   10MOL0     C 1241   8.967  10.491   2.812 -0.3690  0.4766 -0.7047
   10MOL0     C 1242   8.938  10.614   2.765  0.4867  0.0159  0.3876
   10MOL0     C 1243   8.926  10.630   2.619 -0.1165 -0.4713 -0.0531
   10MOL0     C 1244   8.913  10.722   2.844  0.6356  0.4261  0.0051
   10MOL0     C 1245   8.866  10.858   2.805  0.3794  1.5146  0.1703
   10MOL0     O 1246   8.792  10.921   2.900 -0.0265 -0.4204  0.1405
   10MOL0     C 1247   8.727  11.035   2.867 -0.3632  0.7517  0.1197
   10MOL0     C 1248   8.599  11.040   2.818 -0.0142  0.2586  0.5624
   10MOL0     C 1249   8.543  11.164   2.800  0.6287  0.0455  0.3311
   10MOL0     C 1250   8.601  11.280   2.838 -0.6242 -0.3586  0.4700
   10MOL0     O 1251   8.531  11.401   2.836 -0.1259 -0.1037 -0.7387
   10MOL0     C 1252   8.608  11.508   2.774  0.3929  0.2319  0.6819
   10MOL0     C 1253   8.508  11.624   2.742 -0.7441  0.4464  0.1851
   10MOL0     C 1254   8.503  11.735   2.848  0.7870 -0.4198 -0.0541
   10MOL0     C 1255   8.400  11.838   2.795  0.2273 -0.5948 -0.4275
   10MOL0     C 1256   8.355  11.944   2.900  0.5755  0.4592 -0.2829
   10MOL0     C 1257   8.212  12.001   2.880 -0.0257 -0.4233 -0.5009
   10MOL0     C 1258   8.184  12.114   2.982  1.1789 -0.6474  0.3002
   10MOL0     C 1259   8.035  12.146   3.001 -0.2997 -0.1187 -0.5797
   10MOL0    Cl 1260   7.953  12.158   2.839  0.6082  0.2311  0.2348
   10MOL0     C 1261   8.737  11.276   2.891  0.9256 -0.1600  0.2874
   10MOL0     C 1262   8.790  11.154   2.901  0.7811  0.1657 -1.5041
   10MOL0     O 1263   8.919  10.909   2.707  0.2262  0.1237  0.4884
   10MOL0     C 1264   8.925  10.702   2.988 -0.4617 -0.2605 -0.5815
   10MOL0     C 1265   8.956  10.573   3.042 -0.0775  0.3075  0.7520
   10MOL0     N 1266   9.318   9.860   2.725 -0.0861 -0.0134 -0.0763
   10MOL0     N 1267   9.372   9.757   2.676  0.5034 -0.1469 -0.0774
   10MOL0     C 1268  10.304   9.805   3.404  0.4376 -1.2241 -0.1853
   10MOL0     C 1269  10.399   9.866   3.492 -0.7092 -0.2081 -0.3679
   10MOL0     C 1270  10.795  10.036   3.632  0.4393 -0.6201 -0.0386
   10MOL0     C 1271  10.731  10.075   3.756 -0.0313 -0.2932 -0.0846
   10MOL0     C 1272  10.811  10.110   3.867  0.9475 -0.4566 -0.5648
   10MOL0     C 1273  10.948  10.115   3.870  0.0876 -0.4746  0.1478
   10MOL0     O 1274  11.003  10.172   3.971 -0.3752 -0.3224 -0.5139
   10MOL0     C 1275  11.145  10.164   3.988  0.1577  0.0385 -0.3682
   10MOL0     C 1276  11.192  10.188   4.133 -0.0508  0.3798 -0.2754
   10MOL0     C 1277  11.188  10.333   4.172 -0.2290 -0.7452 -0.7411
   10MOL0     C 1278  11.285  10.349   4.289  0.3322 -0.6663 -0.0996
   10MOL0     C 1279  11.290  10.485   4.327  0.1813 -0.1575 -0.5431
   10MOL0     C 1280  11.307  10.607   4.342 -0.2417 -0.5476  0.4966
   10MOL0     C 1281  11.005  10.090   3.739 -0.8420 -0.2166 -0.1064
   10MOL0     C 1282  10.936  10.042   3.628 -0.9946  0.4173 -0.0556
   10MOL0     H 1283  10.496  10.130   3.303 -4.7260  1.7035 -0.7306
   10MOL0     H 1284  10.329  10.031   3.157 -3.5375 -0.5582  0.5434
   10MOL0     H 1285  10.176   9.625   3.115 -3.7402  0.0927 -2.4591
   10MOL0     H 1286  10.122   9.642   3.279  3.5520 -0.7694  0.5349
   10MOL0     H 1287   9.945   9.815   3.139  0.9426 -0.1230  0.1755
   10MOL0     H 1288  10.007   9.718   3.009 -0.3980  4.0554 -0.9003
   10MOL0     H 1289   9.902   9.568   3.259 -0.9067  1.4907  0.1330
   10MOL0     H 1290   9.790   9.636   3.158  0.5516  0.4830  1.3583
   10MOL0     H 1291  10.009   9.460   3.048 -0.2892 -0.2321  0.5116
   10MOL0     H 1292   9.860   9.404   3.115  1.8102  0.6984  1.5582
   10MOL0     H 1293   9.861   9.600   2.871  0.1133  2.2099  3.7376
   10MOL0     H 1294   9.877   9.425   2.855 -1.5562  0.3226 -0.1530
   10MOL0     H 1295   9.679   9.377   2.926  0.8189 -0.4522 -1.0922
   10MOL0     H 1296   9.644   9.542   2.999  2.4629  2.1106 -1.2935
   10MOL0     H 1297   9.666   9.629   2.745 -2.2483  0.1619 -0.8745
   10MOL0     H 1298   9.649   9.458   2.709  0.6516  2.7583 -1.6649
   10MOL0     H 1299   9.434   9.509   2.880 -2.4239  1.2392 -0.4718
   10MOL0     H 1300   9.433   9.502   2.703 -0.2825 -0.7655  0.7440
   10MOL0     H 1301   9.431   9.740   3.003 -2.8444  0.2455 -0.1405
   10MOL0     H 1302   9.318   9.924   3.059  1.0815  2.5052  0.3297
   10MOL0     H 1303   9.337  10.061   2.931 -0.6220  0.5282  0.4425
   10MOL0     H 1304   9.074   9.905   2.986 -1.4690  0.3544 -2.1482
   10MOL0     H 1305   9.109  10.001   2.851 -1.7971 -2.0031  1.1750
   10MOL0     H 1306   9.188  10.156   3.082  2.4926 -2.5624 -2.1554
   10MOL0     H 1307   9.019  10.108   3.116  1.5517  0.6839  2.0335
   10MOL0     H 1308   8.962  10.187   2.888 -0.6746 -1.0909  0.8649
   10MOL0     H 1309   9.132  10.259   2.874 -0.4037  2.5562  0.9365
   10MOL0     H 1310   8.981  10.412   2.739 -1.3526  0.7773 -1.2383
   10MOL0     H 1311   8.963  10.536   2.575 -1.6357 -1.1075 -0.0288
   10MOL0     H 1312   8.822  10.630   2.584  0.6480  0.2218 -2.5640
   10MOL0     H 1313   8.973  10.721   2.579  0.8654 -0.2701  1.5004
   10MOL0     H 1314   8.544  10.947   2.807 -1.3997  1.3092 -2.2413
   10MOL0     H 1315   8.442  11.153   2.759  0.8994  2.6248 -1.3115
   10MOL0     H 1316   8.704  11.542   2.813  1.0306 -0.8179  0.0597
   10MOL0     H 1317   8.631  11.473   2.673 -2.5098 -1.4594  0.4928
   10MOL0     H 1318   8.554  11.660   2.650 -0.8211 -0.0358 -0.0450
   10MOL0     H 1319   8.408  11.584   2.720 -1.9463  1.7121  2.8159
   10MOL0     H 1320   8.610  11.759   2.844  0.9561 -0.4114  2.7240
   10MOL0     H 1321   8.480  11.701   2.950  1.1383  0.1643  0.2248
   10MOL0     H 1322   8.446  11.899   2.717  4.6269 -1.9722  0.8036
   10MOL0     H 1323   8.311  11.784   2.761 -0.7350  0.3775  0.4818
   10MOL0     H 1324   8.427  12.027   2.896  0.7582  0.3066 -4.0817
   10MOL0     H 1325   8.359  11.895   2.998  0.0431 -1.0168 -0.9668
   10MOL0     H 1326   8.207  12.039   2.778  2.6182 -0.7019 -0.8029
   10MOL0     H 1327   8.147  11.913   2.883 -0.0920 -0.4706 -2.2825
   10MOL0     H 1328   8.254  12.195   2.959  1.2645 -0.2448  1.8662
   10MOL0     H 1329   8.207  12.081   3.084  1.3624  1.7697  1.1179
   10MOL0     H 1330   8.035  12.236   3.063  0.8631 -0.5765  0.1123
   10MOL0     H 1331   7.991  12.062   3.057  0.5692 -1.8796 -2.3959
   10MOL0     H 1332   8.785  11.364   2.933  0.3676  0.9435 -1.2688
   10MOL0     H 1333   8.886  11.139   2.950 -1.6046 -2.1920  3.1239
   10MOL0     H 1334   8.906  10.787   3.053  1.3124  0.9346 -1.5569
   10MOL0     H 1335   8.984  10.554   3.146 -2.0314  3.3351  1.9685
   10MOL0     H 1336  10.240   9.736   3.458  3.1184 -1.7427  2.6048
   10MOL0     H 1337  10.414   9.835   3.594 -1.2370 -2.3818 -0.9070
   10MOL0     H 1338  10.623  10.079   3.762  0.0580  1.8753  1.0920
   10MOL0     H 1339  10.769  10.107   3.967 -0.2776 -3.0071 -1.0508
   10MOL0     H 1340  11.182  10.063   3.965  0.5526 -0.7432  3.0606
   10MOL0     H 1341  11.188  10.236   3.919  0.9536  0.4495  0.5253
   10MOL0     H 1342  11.292  10.145   4.140 -0.5610 -1.7351 -3.5678
   10MOL0     H 1343  11.122  10.133   4.197 -0.5827  1.1131 -0.2121
   10MOL0     H 1344  11.085  10.350   4.202 -0.6652 -0.2530 -2.4558
   10MOL0     H 1345  11.215  10.400   4.090 -0.4896  0.2694 -0.0200
   10MOL0     H 1346  11.384  10.305   4.276  1.5856  1.2664  2.2218
   10MOL0     H 1347  11.247  10.293   4.376 -0.5651 -3.1139 -1.9441
   10MOL0     H 1348  11.318  10.712   4.360  1.3547 -1.0001  2.4651
   10MOL0     H 1349  11.109  10.122   3.734 -1.8174  3.2767 -0.5295
   10MOL0     H 1350  10.992  10.019   3.538  0.9671 -1.9914  1.6277
   11MOL0     O 1351  11.151   5.108   4.278 -0.2995 -0.2427  0.5333
   11MOL0     C 1352  11.226   5.036   4.212 -1.7007  0.1471 -0.0905
   11MOL0     O 1353  11.187   4.925   4.144 -0.1617 -0.9699  0.1592
   11MOL0     C 1354  11.056   4.903   4.121  0.7994 -0.1073  0.3614
   11MOL0     C 1355  11.005   4.775   4.133 -0.2440 -0.1034 -0.0587
   11MOL0     C 1356  10.868   4.746   4.115  0.0346 -0.0655 -0.8436
   11MOL0     C 1357  10.777   4.850   4.097  0.9518  0.6073  0.0363
   11MOL0     O 1358  10.642   4.836   4.069  0.3978 -0.5039  0.0905
   11MOL0     C 1359  10.593   4.703   4.056  0.6774 -0.3921 -1.1469
   11MOL0     C 1360  10.444   4.688   4.031  0.2884  0.2477  0.2611
   11MOL0     C 1361  10.361   4.793   4.105  0.0611  0.0549  0.3375
   11MOL0     C 1362  10.208   4.781   4.079  0.5450  0.6111 -0.5817
   11MOL0     C 1363  10.159   4.633   4.099 -0.3520  0.1796  0.0676
   11MOL0     C 1364  10.012   4.602   4.065  0.4170 -0.6493  0.7172
   11MOL0     C 1365  10.007   4.449   4.033  0.3136  0.3698  0.1436
   11MOL0     C 1366   9.870   4.398   3.996  0.0656 -0.7465 -0.3776
   11MOL0     N 1367   9.763   4.425   4.099 -0.0311 -0.7982  0.2550
   11MOL0     C 1368   9.785   4.453   4.235  0.8892 -1.3611  1.0249
   11MOL0     C 1369   9.665   4.446   4.296 -0.3415  0.7758 -0.8514
   11MOL0     C 1370   9.620   4.472   4.440 -0.3142 -0.1771  0.4964
   11MOL0     C 1371   9.595   4.628   4.473  0.1961  0.5497  0.3705
   11MOL0     C 1372   9.457   4.687   4.413  0.7977 -0.1499  0.0066
   11MOL0     C 1373   9.339   4.632   4.497 -0.3964 -0.6797  0.6321
   11MOL0     O 1374   9.222   4.697   4.442  0.6760 -0.3665 -0.7632
   11MOL0     C 1375   9.099   4.652   4.484  0.2415 -0.2509 -0.1617
   11MOL0     C 1376   8.986   4.727   4.440 -0.5235  0.0904 -0.5570
   11MOL0     C 1377   8.857   4.693   4.479  0.5275  0.3574 -0.5617
   11MOL0     C 1378   8.746   4.778   4.428  0.9872 -0.9439  0.1009
   11MOL0     C 1379   8.828   4.591   4.569 -0.1961 -0.1611 -0.0590
   11MOL0     C 1380   8.694   4.547   4.610  0.3713 -0.0891  0.4898
   11MOL0     O 1381   8.595   4.639   4.633 -0.6382 -0.1870 -0.3800
   11MOL0     C 1382   8.471   4.584   4.688  0.2587  0.4068  0.0865
   11MOL0     C 1383   8.455   4.541   4.818 -0.9290  0.7615 -0.0832
   11MOL0     C 1384   8.334   4.490   4.872  0.2302 -0.2551 -0.5230
   11MOL0     C 1385   8.217   4.488   4.789 -0.6684 -0.5353  0.6527
   11MOL0     O 1386   8.101   4.433   4.818 -0.0419  0.7832 -0.3983
   11MOL0     C 1387   8.078   4.300   4.772  0.0318 -0.5191  0.6815
   11MOL0     C 1388   7.932   4.248   4.802  0.3466 -0.9603  0.2657
   11MOL0     C 1389   7.834   4.276   4.691  0.2933 -0.3303  0.0581
   11MOL0     C 1390   7.689   4.277   4.745  0.1105 -0.5956  0.0696
   11MOL0     C 1391   7.658   4.137   4.797  0.8475 -0.7611  0.2478
   11MOL0     C 1392   7.516   4.133   4.854 -0.6422  0.5474  0.5395
   11MOL0     C 1393   7.481   3.994   4.911  0.2076  0.4171 -0.5200
   11MOL0     C 1394   7.336   3.999   4.957 -0.1583  0.4981  0.4517
   11MOL0    Cl 1395   7.237   3.961   4.816 -0.0296  0.1321  0.0480
   11MOL0     C 1396   8.233   4.538   4.656  0.8236 -0.4115 -0.0139
   11MOL0     C 1397   8.355   4.586   4.608 -0.1374 -0.0287  0.2056
   11MOL0     O 1398   8.682   4.426   4.633 -0.2702  0.4771 -0.9745
   11MOL0     C 1399   8.938   4.512   4.606 -0.2437 -0.4172 -0.4588
   11MOL0     C 1400   9.071   4.537   4.566  0.3407 -0.1068 -0.5436
   11MOL0     N 1401   9.574   4.408   4.201  0.7525  0.0690  0.2200
   11MOL0     N 1402   9.628   4.407   4.082  0.2065 -0.0635 -0.7207
   11MOL0     C 1403  10.825   4.982   4.098 -0.9093  0.2953  0.5410
   11MOL0     C 1404  10.965   5.007   4.099  0.2379 -0.5671  0.3428
   11MOL0     C 1405  11.370   5.063   4.232  1.8361  0.5283  0.9849
   11MOL0     C 1406  11.415   5.176   4.305  0.7425  1.0309 -0.2064
   11MOL0     C 1407  11.552   5.199   4.332  0.0485  0.4503 -0.9654
   11MOL0     C 1408  11.640   5.100   4.287  0.7117  0.0344  0.3125
   11MOL0     O 1409  11.772   5.124   4.313  0.7237  0.7143  0.1787
   11MOL0     C 1410  11.885   5.041   4.312  0.5936 -0.4807  0.6844
   11MOL0     C 1411  12.004   5.101   4.388 -0.0219  0.5137 -0.0450
   11MOL0     C 1412  11.996   5.075   4.537 -0.8326  0.0519 -0.3970
   11MOL0     C 1413  12.087   5.169   4.615 -0.1194  0.5525  0.5724
   11MOL0     C 1414  12.135   5.134   4.749  0.2869  1.0191 -0.6413
   11MOL0     C 1415  12.168   5.108   4.869  0.3520 -0.8532  0.3384
   11MOL0     C 1416  11.589   4.987   4.223 -0.4796 -0.6142 -0.7832
   11MOL0     C 1417  11.458   4.973   4.185  0.3141  0.3215 -0.3204
   11MOL0     H 1418  11.080   4.697   4.133 -0.9248 -0.9066 -3.3375
   11MOL0     H 1419  10.848   4.640   4.122  2.7344 -0.8278 -2.7723
   11MOL0     H 1420  10.654   4.650   3.982  2.1864 -2.6972  1.5114
   11MOL0     H 1421  10.612   4.652   4.151 -1.9370 -0.6451 -0.7103
   11MOL0     H 1422  10.428   4.700   3.923  0.4447  1.3225  0.3452
   11MOL0     H 1423  10.423   4.582   4.048  0.6883  0.4223  2.0742
   11MOL0     H 1424  10.357   4.773   4.213  2.5890 -0.0528  0.4812
   11MOL0     H 1425  10.394   4.894   4.078  1.6091 -1.0187 -2.0827
   11MOL0     H 1426  10.150   4.837   4.153 -1.1697 -5.0433  2.9543
   11MOL0     H 1427  10.174   4.803   3.977  1.8558 -1.4152 -1.5241
   11MOL0     H 1428  10.214   4.562   4.036 -0.3993  0.4973 -0.3358
   11MOL0     H 1429  10.180   4.592   4.199  4.2429  0.6769 -0.4736
   11MOL0     H 1430   9.946   4.646   4.141  1.5341  1.0246  0.7846
   11MOL0     H 1431   9.977   4.646   3.972  0.7967  0.7561  1.2108
   11MOL0     H 1432  10.065   4.430   3.943 -0.9668  2.2224 -1.1600
   11MOL0     H 1433  10.057   4.393   4.113  1.8002  0.3976 -0.7406
   11MOL0     H 1434   9.859   4.294   3.963  0.3288 -0.2189 -2.2358
   11MOL0     H 1435   9.837   4.448   3.905  0.1166  1.0941  0.5744
   11MOL0     H 1436   9.873   4.484   4.291  1.0246  2.4372 -0.9385
   11MOL0     H 1437   9.533   4.409   4.453  0.4583 -1.2622  0.5229
   11MOL0     H 1438   9.691   4.422   4.506 -0.3522 -0.0042  0.6686
   11MOL0     H 1439   9.673   4.687   4.424 -2.1093  2.4963 -1.1737
   11MOL0     H 1440   9.599   4.644   4.581  2.8357 -0.9644  0.5831
   11MOL0     H 1441   9.443   4.647   4.312 -2.1459  0.2986  0.1620
   11MOL0     H 1442   9.445   4.795   4.414  0.0404 -0.2168 -0.6237
   11MOL0     H 1443   9.347   4.649   4.604 -3.0416 -1.4450  1.0353
   11MOL0     H 1444   9.340   4.523   4.490 -2.3441 -0.6354 -2.3783
   11MOL0     H 1445   8.993   4.809   4.369  1.5364  2.6079  2.3291
   11MOL0     H 1446   8.780   4.811   4.329  1.2416  0.2974  0.5891
   11MOL0     H 1447   8.645   4.735   4.423 -0.1912  1.6148  0.3156
   11MOL0     H 1448   8.726   4.870   4.484  1.8837 -0.2361 -0.7076
   11MOL0     H 1449   8.545   4.556   4.876  1.0135 -0.5015 -2.5749
   11MOL0     H 1450   8.325   4.467   4.978 -1.7106  2.3369 -0.0109
   11MOL0     H 1451   8.090   4.306   4.664  0.0157  2.8466  0.7366
   11MOL0     H 1452   8.159   4.241   4.817 -0.9097 -1.2961  1.3937
   11MOL0     H 1453   7.934   4.139   4.807  0.0052 -0.9898 -0.1615
   11MOL0     H 1454   7.907   4.290   4.900  3.9741 -1.9391  1.7774
   11MOL0     H 1455   7.855   4.215   4.603 -1.5846 -0.2222 -0.5005
   11MOL0     H 1456   7.853   4.383   4.678 -0.3526  0.1015  2.1513
   11MOL0     H 1457   7.691   4.338   4.836  0.9021 -1.2721  0.5144
   11MOL0     H 1458   7.610   4.314   4.679 -1.0329 -1.6667  0.7775
   11MOL0     H 1459   7.723   4.117   4.882  2.0210 -0.3705 -0.5203
   11MOL0     H 1460   7.663   4.058   4.722 -1.6602 -1.1388  0.4070
   11MOL0     H 1461   7.507   4.217   4.923 -0.4274  1.0406 -0.0282
   11MOL0     H 1462   7.450   4.154   4.770  1.2728  3.7010 -0.3390
   11MOL0     H 1463   7.545   3.960   4.993  1.0271 -0.3483 -1.4518
   11MOL0     H 1464   7.481   3.926   4.825 -2.2200 -2.5385  1.5780
   11MOL0     H 1465   7.301   4.099   4.985 -0.4662  0.6076 -0.3109
   11MOL0     H 1466   7.314   3.931   5.040  3.4744  1.4131  2.3909
   11MOL0     H 1467   8.152   4.540   4.584 -0.4198  3.0113  1.2671
   11MOL0     H 1468   8.378   4.617   4.507  1.5500  2.0051  1.1249
   11MOL0     H 1469   8.922   4.423   4.666 -2.5772 -0.0197 -0.3922
   11MOL0     H 1470   9.147   4.465   4.597  2.0079 -0.1985 -4.3388
   11MOL0     H 1471  10.754   5.058   4.066  0.9043  1.3167 -1.2906
   11MOL0     H 1472  10.997   5.111   4.091 -2.0653  0.4908  2.9146
   11MOL0     H 1473  11.347   5.247   4.349 -0.1980  0.3888 -0.5930
   11MOL0     H 1474  11.588   5.286   4.386 -3.4902  1.8456 -0.6184
   11MOL0     H 1475  11.865   4.942   4.355  1.8119 -0.4580  1.3491
   11MOL0     H 1476  11.915   5.040   4.207  1.8087  0.8442  0.9860
   11MOL0     H 1477  12.019   5.206   4.363 -1.5366  0.6459 -0.5336
   11MOL0     H 1478  12.094   5.053   4.347 -0.0681 -0.8970  1.3818
   11MOL0     H 1479  12.013   4.969   4.555  3.2507 -0.2442 -4.3372
   11MOL0     H 1480  11.895   5.113   4.555 -0.6516  0.7150 -0.7678
   11MOL0     H 1481  12.033   5.265   4.614 -3.0529 -0.9662 -1.5957
   11MOL0     H 1482  12.172   5.190   4.549  0.2307  3.4918  1.7909
   11MOL0     H 1483  12.183   5.092   4.974 -2.5027 -1.6600  0.7259
   11MOL0     H 1484  11.649   4.901   4.194  1.2683 -0.4582  2.0228
   11MOL0     H 1485  11.439   4.889   4.120 -0.0789 -1.1432  1.5956
   12MOL0     O 1486   2.243   8.250   2.783 -0.5521 -0.1088  0.4074
   12MOL0     C 1487   2.235   8.329   2.692  1.2193  0.2767 -0.3520
   12MOL0     O 1488   2.139   8.324   2.600  0.9643 -0.6127  0.4547
   12MOL0     C 1489   2.043   8.229   2.617 -0.4159 -0.5375 -0.7968
   12MOL0     C 1490   2.042   8.117   2.537  0.4644  0.1391  0.2919
   12MOL0     C 1491   1.932   8.030   2.556  0.0886  0.3868  0.7415
   12MOL0     C 1492   1.822   8.077   2.635  0.2692 -1.5765 -0.2882
   12MOL0     O 1493   1.696   8.011   2.633 -0.2123 -0.5988  0.0586
   12MOL0     C 1494   1.608   8.095   2.561 -0.2628  0.3795  0.4682
   12MOL0     C 1495   1.547   7.998   2.461 -0.0282  0.6076  0.8242
   12MOL0     C 1496   1.481   7.883   2.531  0.3104 -0.2726 -0.1294
   12MOL0     C 1497   1.398   7.812   2.429 -0.2722  0.2755  0.1425
   12MOL0     C 1498   1.316   7.685   2.482  0.4683  0.4643  0.5997
   12MOL0     C 1499   1.192   7.728   2.555 -0.0097  0.4898  0.2715
   12MOL0     C 1500   1.074   7.625   2.573 -0.6891  0.5363  0.2831
   12MOL0     C 1501   0.981   7.634   2.450 -0.2647  0.2588  0.2230
   12MOL0     N 1502   0.841   7.585   2.465 -0.2478  0.5166 -0.4785
   12MOL0     C 1503   0.802   7.503   2.566  0.8178 -0.5055 -0.1711
   12MOL0     C 1504   0.671   7.481   2.534 -0.4195  1.0682  0.3544
   12MOL0     C 1505   0.565   7.422   2.624  0.1500  0.5152  0.3972
   12MOL0     C 1506   0.498   7.538   2.698  0.0982  0.9467 -0.3441
   12MOL0     C 1507   0.418   7.498   2.812  0.5450  0.1786 -0.6528
   12MOL0     C 1508   0.341   7.608   2.883  0.2883 -0.1356 -0.0357
   12MOL0     O 1509   0.435   7.715   2.938  0.7271 -0.9902  0.5444
   12MOL0     C 1510   0.522   7.683   3.035  0.5349 -0.7121 -0.4209
   12MOL0     C 1511   0.629   7.768   3.060 -1.5799  0.0307  0.1760
   12MOL0     C 1512   0.722   7.741   3.164  0.0310 -1.5098 -0.0246
   12MOL0     C 1513   0.800   7.870   3.186 -0.1268  0.3770  0.6061
   12MOL0     C 1514   0.729   7.618   3.229 -0.4135 -0.3570  0.1241
   12MOL0     C 1515   0.846   7.588   3.310  0.3989  0.5503 -0.8578
   12MOL0     O 1516   0.968   7.610   3.252 -0.2883  0.1503 -0.5392
   12MOL0     C 1517   1.084   7.630   3.318 -0.4002  0.4157  0.6607
   12MOL0     C 1518   1.089   7.671   3.448  0.0896  0.1454  0.4550
   12MOL0     C 1519   1.218   7.683   3.503  0.4490 -0.4554 -0.3355
   12MOL0     C 1520   1.334   7.669   3.433  0.0566  0.2590 -0.6386
   12MOL0     O 1521   1.466   7.692   3.483  1.0530 -0.8794 -0.0364
   12MOL0     C 1522   1.495   7.731   3.618  0.5642 -0.1606  0.1726
   12MOL0     C 1523   1.541   7.598   3.698 -0.0197 -0.0394 -0.6197
   12MOL0     C 1524   1.603   7.492   3.601 -0.1229  0.3102 -0.2212
   12MOL0     C 1525   1.709   7.539   3.494 -0.3089  0.6408  0.8085
   12MOL0     C 1526   1.850   7.535   3.549  0.1141 -0.1671  0.5807
   12MOL0     C 1527   1.943   7.549   3.427 -0.3597 -0.6063  0.0296
   12MOL0     C 1528   2.093   7.557   3.478  0.4673  0.3967 -0.4775
   12MOL0     C 1529   2.152   7.431   3.533  0.0482  0.4649 -0.1054
   12MOL0    Cl 1530   2.335   7.454   3.559  1.0103 -0.1664 -0.1170
   12MOL0     C 1531   1.321   7.628   3.299 -0.3299  0.4724 -0.0720
   12MOL0     C 1532   1.201   7.609   3.237 -0.0658 -0.3112  0.0859
   12MOL0     O 1533   0.827   7.549   3.430  0.2238 -1.1141 -0.9254
   12MOL0     C 1534   0.618   7.529   3.212 -0.0842  0.1350 -0.1152
   12MOL0     C 1535   0.521   7.565   3.115  0.6893 -0.3642 -0.1679
   12MOL0     N 1536   0.638   7.531   2.409 -0.2110  0.6428 -0.8368
   12MOL0     N 1537   0.739   7.597   2.372  0.5183 -0.8385  0.6069
   12MOL0     C 1538   1.836   8.189   2.720  0.3752  0.4402 -0.9280
   12MOL0     C 1539   1.946   8.269   2.704 -0.6091 -0.4015  0.0133
   12MOL0     C 1540   2.359   8.406   2.668 -0.2345 -0.0571  1.3611
   12MOL0     C 1541   2.361   8.501   2.563 -0.4329 -0.8542  0.6770
   12MOL0     C 1542   2.478   8.569   2.517 -0.2299 -0.5569  0.4195
   12MOL0     C 1543   2.597   8.558   2.590  0.5483  0.0669  0.0425
   12MOL0     O 1544   2.699   8.641   2.560  0.2445 -0.3304 -0.7756
   12MOL0     C 1545   2.820   8.638   2.643 -0.4485  0.6802  0.3692
   12MOL0     C 1546   2.931   8.733   2.622 -0.4206  0.2946  0.0379
   12MOL0     C 1547   3.008   8.705   2.499  0.0171 -0.3630 -0.5991
   12MOL0     C 1548   3.085   8.825   2.445  0.3411  0.2092 -0.3663
   12MOL0     C 1549   3.224   8.790   2.401  0.1251  0.1769  0.2991
   12MOL0     C 1550   3.337   8.761   2.369  1.1987 -0.0096 -0.6846
   12MOL0     C 1551   2.596   8.459   2.689  0.2220 -0.1580  0.2592
   12MOL0     C 1552   2.484   8.391   2.729  0.3032 -0.1685 -0.3425
   12MOL0     H 1553   2.121   8.091   2.468  0.4130  0.7202  0.0091
   12MOL0     H 1554   1.920   7.937   2.501  2.4254  2.0887 -3.0837
   12MOL0     H 1555   1.539   8.135   2.635 -1.2005  0.6093 -0.5039
   12MOL0     H 1556   1.663   8.167   2.499  1.2357 -2.0817 -1.3005
   12MOL0     H 1557   1.469   8.061   2.419  1.8232  3.3723  1.2311
   12MOL0     H 1558   1.619   7.972   2.383 -1.1203  1.1574 -0.3960
   12MOL0     H 1559   1.552   7.811   2.572  0.2465 -0.0013  0.4698
   12MOL0     H 1560   1.435   7.914   2.626  2.5133 -0.9801  1.2272
   12MOL0     H 1561   1.324   7.883   2.392 -1.5903  0.1506  2.3502
   12MOL0     H 1562   1.474   7.779   2.358  1.8424  0.0896  2.3558
   12MOL0     H 1563   1.279   7.630   2.395 -1.1516  2.8935 -0.3603
   12MOL0     H 1564   1.367   7.610   2.543 -0.4466  0.1476  0.9807
   12MOL0     H 1565   1.228   7.754   2.655 -1.4762  0.3524  0.8546
   12MOL0     H 1566   1.157   7.828   2.526 -3.6342 -0.8534 -0.4311
   12MOL0     H 1567   1.114   7.523   2.582 -1.0447  0.2784 -0.9454
   12MOL0     H 1568   1.029   7.664   2.665  1.6388  0.4955  1.5273
   12MOL0     H 1569   1.029   7.580   2.369 -0.9291  1.9747 -1.3935
   12MOL0     H 1570   0.952   7.733   2.413 -0.1368  0.7183  1.3053
   12MOL0     H 1571   0.844   7.487   2.665 -1.0852 -1.4778  0.5290
   12MOL0     H 1572   0.494   7.368   2.560  0.5739  1.3587 -0.8168
   12MOL0     H 1573   0.609   7.355   2.699  1.9350  1.7070  0.4767
   12MOL0     H 1574   0.446   7.599   2.624 -1.2051 -0.2108 -0.4133
   12MOL0     H 1575   0.584   7.595   2.735  2.3278 -2.5172  0.2583
   12MOL0     H 1576   0.485   7.446   2.882 -0.4405 -1.5933 -0.9589
   12MOL0     H 1577   0.342   7.432   2.770  1.3703 -0.8742 -0.5371
   12MOL0     H 1578   0.281   7.571   2.966 -0.4357  0.6944 -0.1768
   12MOL0     H 1579   0.286   7.649   2.798 -0.7488 -2.9942 -0.8665
   12MOL0     H 1580   0.635   7.860   3.004  1.9074 -0.8215 -1.0997
   12MOL0     H 1581   0.882   7.842   3.254 -0.7857 -0.6731  0.9943
   12MOL0     H 1582   0.828   7.908   3.088  0.2165 -2.1557 -0.3558
   12MOL0     H 1583   0.749   7.950   3.240  0.1490  0.8824  0.1273
   12MOL0     H 1584   1.001   7.669   3.512 -0.4136 -0.5250 -0.2404
   12MOL0     H 1585   1.222   7.717   3.607 -0.0922  1.4871 -0.9055
   12MOL0     H 1586   1.583   7.796   3.625  0.5407 -0.2199  1.0599
   12MOL0     H 1587   1.414   7.783   3.669  1.8674  2.4420 -0.2305
   12MOL0     H 1588   1.606   7.638   3.776  0.4974  1.1028 -1.6113
   12MOL0     H 1589   1.448   7.557   3.739  0.0485 -0.1688 -0.5934
   12MOL0     H 1590   1.523   7.442   3.547 -0.2040  4.0655 -4.1466
   12MOL0     H 1591   1.647   7.414   3.664  1.5403  1.5649  0.2380
   12MOL0     H 1592   1.702   7.480   3.402  1.1075 -0.2489  1.2399
   12MOL0     H 1593   1.689   7.641   3.460  0.8026  0.1292 -1.6136
   12MOL0     H 1594   1.866   7.449   3.615  0.5558 -0.9439 -0.5122
   12MOL0     H 1595   1.876   7.607   3.627  2.3859 -1.9781  1.6232
   12MOL0     H 1596   1.929   7.465   3.359  0.0182  0.1993 -1.0838
   12MOL0     H 1597   1.914   7.641   3.374  2.9700  1.9436  2.2424
   12MOL0     H 1598   2.102   7.632   3.557 -2.1865 -1.9038  2.2147
   12MOL0     H 1599   2.164   7.577   3.397  3.3059 -3.2565  0.8129
   12MOL0     H 1600   2.129   7.338   3.480  1.6962  0.5433 -0.9936
   12MOL0     H 1601   2.112   7.410   3.633 -1.5469 -0.4240 -0.8795
   12MOL0     H 1602   1.413   7.626   3.240 -1.2689  0.8494 -1.6082
   12MOL0     H 1603   1.180   7.583   3.133  0.3718  1.9761 -0.6379
   12MOL0     H 1604   0.610   7.431   3.258 -1.6864  0.2320 -0.1294
   12MOL0     H 1605   0.441   7.492   3.108  1.7486 -1.6722  0.7664
   12MOL0     H 1606   1.765   8.198   2.801  0.6420 -4.3288  0.1381
   12MOL0     H 1607   1.956   8.357   2.766 -0.9128 -0.1726 -0.2576
   12MOL0     H 1608   2.273   8.524   2.503  0.2764 -0.8777 -0.3954
   12MOL0     H 1609   2.489   8.646   2.441  3.7655 -2.1298 -0.8632
   12MOL0     H 1610   2.797   8.662   2.748 -0.3112  2.0214  0.1103
   12MOL0     H 1611   2.860   8.537   2.629 -0.1712  0.6958  1.0245
   12MOL0     H 1612   2.997   8.745   2.709 -0.3220  1.4493 -0.1820
   12MOL0     H 1613   2.880   8.829   2.615 -1.6866 -0.3058  0.6650
   12MOL0     H 1614   2.939   8.668   2.422  1.4847  0.3406 -2.3317
   12MOL0     H 1615   3.074   8.623   2.530  0.2851  0.5278  1.3013
   12MOL0     H 1616   3.092   8.903   2.522 -0.5372  0.5595 -0.6177
   12MOL0     H 1617   3.035   8.882   2.365  0.2885  1.8233  0.7623
   12MOL0     H 1618   3.437   8.722   2.362  0.9833 -1.0049  1.3435
   12MOL0     H 1619   2.686   8.437   2.747  0.6523  1.6138  0.3071
   12MOL0     H 1620   2.483   8.318   2.809 -0.7259 -0.2816 -0.4426
   13MOL0     O 1621  10.062   3.182   4.399  0.7867  1.0049  0.7563
   13MOL0     C 1622  10.153   3.262   4.413 -0.9035  0.7159  0.5898
   13MOL0     O 1623  10.159   3.388   4.355  0.1220  0.0448  0.4660
   13MOL0     C 1624  10.043   3.443   4.299 -0.9537  0.9084  0.3430
   13MOL0     C 1625   9.920   3.441   4.364 -0.1823 -0.0808  1.1649
   13MOL0     C 1626   9.800   3.475   4.296 -0.8632  0.0970 -0.9708
   13MOL0     C 1627   9.801   3.528   4.165 -0.4333 -0.1568  0.0878
   13MOL0     O 1628   9.681   3.567   4.100  0.0013  0.3994  0.2552
   13MOL0     C 1629   9.666   3.609   3.959 -0.1748 -0.0825 -0.2907
   13MOL0     C 1630   9.571   3.513   3.883 -0.3396 -0.7733  0.2360
   13MOL0     C 1631   9.615   3.367   3.868  0.2032  0.8982  0.1587
   13MOL0     C 1632   9.508   3.274   3.805 -0.4392 -0.2495 -0.4661
   13MOL0     C 1633   9.574   3.144   3.758  0.7670  0.7283  0.7233
   13MOL0     C 1634   9.470   3.048   3.691  0.3779  0.5361  0.2176
   13MOL0     C 1635   9.540   2.930   3.618  1.1500  0.3484 -0.2238
   13MOL0     C 1636   9.654   2.853   3.683  1.1997 -0.8386  1.0740
   13MOL0     N 1637   9.614   2.793   3.809  1.1981  0.0231 -0.2716
   13MOL0     C 1638   9.693   2.758   3.913  0.9718  0.2100  0.3167
   13MOL0     C 1639   9.617   2.694   4.004 -0.1879  0.1369  0.0496
   13MOL0     C 1640   9.664   2.645   4.135 -0.1227  0.2488  0.1226
   13MOL0     C 1641   9.615   2.739   4.252  0.0716 -0.6275  1.2288
   13MOL0     C 1642   9.651   2.684   4.386 -0.2901  0.1663  0.5988
   13MOL0     C 1643   9.804   2.690   4.414  0.3900  0.7681 -0.4552
   13MOL0     O 1644   9.866   2.574   4.360  0.2357 -0.3071  0.0162
   13MOL0     C 1645  10.007   2.549   4.343  0.6495 -0.6766 -0.6517
   13MOL0     C 1646  10.093   2.647   4.372 -0.2523 -0.5141 -0.5434
   13MOL0     C 1647  10.233   2.636   4.350  0.2413 -0.4823  0.8738
   13MOL0     C 1648  10.321   2.756   4.371  0.1020 -0.1591  0.4873
   13MOL0     C 1649  10.276   2.516   4.279 -0.3080  0.6847 -1.0230
   13MOL0     C 1650  10.421   2.500   4.235  0.2767  0.6300 -0.0295
   13MOL0     O 1651  10.496   2.611   4.208 -0.7246 -0.3378  0.0108
   13MOL0     C 1652  10.630   2.607   4.195  0.6319  0.7953 -0.6793
   13MOL0     C 1653  10.678   2.702   4.111 -0.4739  0.9430 -0.0434
   13MOL0     C 1654  10.817   2.702   4.057  0.5738 -0.5245 -0.1592
   13MOL0     C 1655  10.901   2.597   4.091  0.1025 -0.3487 -0.2074
   13MOL0     O 1656  11.028   2.599   4.037 -1.2001 -0.1867 -0.0769
   13MOL0     C 1657  11.137   2.606   4.137 -0.3842 -1.4380  0.2298
   13MOL0     C 1658  11.158   2.738   4.216  0.6331 -0.4800 -0.3582
   13MOL0     C 1659  11.243   2.707   4.350 -0.5595  0.4466  1.0014
   13MOL0     C 1660  11.388   2.678   4.307 -0.6339 -0.3724 -0.0098
   13MOL0     C 1661  11.487   2.672   4.418  0.4247 -1.2014 -0.2596
   13MOL0     C 1662  11.622   2.655   4.355 -0.5293  0.0802  0.1820
   13MOL0     C 1663  11.741   2.678   4.457  0.9365 -0.3766 -0.2994
   13MOL0     C 1664  11.880   2.642   4.401 -0.2530 -0.3144  0.2624
   13MOL0    Cl 1665  11.999   2.716   4.506  0.0012  0.0829 -0.0278
   13MOL0     C 1666  10.850   2.502   4.177  0.5496  0.1437  0.0422
   13MOL0     C 1667  10.719   2.508   4.236 -0.4091  0.2207 -0.1153
   13MOL0     O 1668  10.453   2.385   4.208  0.0910 -0.8410 -0.2458
   13MOL0     C 1669  10.177   2.430   4.234  0.1023  0.4587 -0.1471
   13MOL0     C 1670  10.045   2.446   4.266 -0.4283  0.3488  0.7077
   13MOL0     N 1671   9.490   2.672   3.950 -0.2088 -0.3318  0.0100
   13MOL0     N 1672   9.494   2.722   3.835  0.7216  1.3097 -0.9468
   13MOL0     C 1673   9.930   3.545   4.102 -0.0066 -0.9238  0.2836
   13MOL0     C 1674  10.038   3.499   4.170 -0.2368  0.6878 -0.5328
   13MOL0     C 1675  10.268   3.232   4.498 -0.4498 -0.2475 -0.0573
   13MOL0     C 1676  10.388   3.318   4.499 -0.9032 -0.7591 -0.2507
   13MOL0     C 1677  10.497   3.289   4.579 -0.2910 -0.6355  0.3503
   13MOL0     C 1678  10.494   3.176   4.668 -0.2676 -0.0433  0.3546
   13MOL0     O 1679  10.600   3.144   4.748 -0.1326 -0.0704  0.1592
   13MOL0     C 1680  10.702   3.236   4.781 -0.4410 -0.7457 -0.6329
   13MOL0     C 1681  10.810   3.166   4.846  0.2554  0.4421 -0.3640
   13MOL0     C 1682  10.931   3.259   4.853 -0.3714  0.2565  0.5655
   13MOL0     C 1683  11.046   3.182   4.939 -0.6637 -0.7105  0.3773
   13MOL0     C 1684  11.159   3.282   4.965  0.0345  0.2289  0.4614
   13MOL0     C 1685  11.257   3.352   4.995  0.3813  0.7223  0.1245
   13MOL0     C 1686  10.375   3.105   4.685 -0.8403  0.0799  0.6924
   13MOL0     C 1687  10.267   3.139   4.597 -0.0052 -0.5598  0.6355
   13MOL0     H 1688   9.915   3.384   4.456  1.5469  0.0056  1.3520
   13MOL0     H 1689   9.705   3.444   4.337 -0.1150 -0.9685  0.0092
   13MOL0     H 1690   9.634   3.713   3.959  1.5967  0.5131 -1.7179
   13MOL0     H 1691   9.767   3.610   3.917  0.5188 -0.7631  1.2462
   13MOL0     H 1692   9.483   3.515   3.947 -1.4298  0.2288 -1.2308
   13MOL0     H 1693   9.544   3.561   3.788  0.8860 -1.5678 -0.5472
   13MOL0     H 1694   9.695   3.378   3.794 -3.1940  2.2363 -3.6918
   13MOL0     H 1695   9.648   3.324   3.963 -1.7845  1.9175  1.3805
   13MOL0     H 1696   9.426   3.263   3.877  1.0645  0.1522  1.3927
   13MOL0     H 1697   9.468   3.329   3.720 -3.5598 -3.6251 -1.4340
   13MOL0     H 1698   9.645   3.182   3.684  2.3757  4.2540  3.7580
   13MOL0     H 1699   9.627   3.096   3.841 -0.9149  2.4029  2.9133
   13MOL0     H 1700   9.403   3.008   3.767 -0.1023  2.3146  0.7947
   13MOL0     H 1701   9.398   3.105   3.631  0.8844 -0.1707 -1.1070
   13MOL0     H 1702   9.465   2.856   3.586  1.0528 -0.8453  2.5060
   13MOL0     H 1703   9.578   2.975   3.526  1.2769  1.8040  0.5051
   13MOL0     H 1704   9.733   2.925   3.704  0.9464 -0.2566  0.1131
   13MOL0     H 1705   9.691   2.773   3.617  2.3949  1.0317 -0.6234
   13MOL0     H 1706   9.797   2.787   3.903  0.0847  2.9913 -2.4153
   13MOL0     H 1707   9.638   2.539   4.145  3.1753 -0.7567 -0.5982
   13MOL0     H 1708   9.773   2.649   4.131 -0.1368  2.0933  0.9106
   13MOL0     H 1709   9.508   2.762   4.257  0.5586  1.8701  1.5449
   13MOL0     H 1710   9.651   2.840   4.228  0.6232 -1.1566 -0.2510
   13MOL0     H 1711   9.619   2.580   4.388 -1.1033  0.3106 -1.9184
   13MOL0     H 1712   9.605   2.740   4.469 -0.8408  1.9819 -0.8645
   13MOL0     H 1713   9.828   2.684   4.521  2.8734 -1.0374 -1.0281
   13MOL0     H 1714   9.837   2.785   4.371 -0.2481  1.0623 -0.3137
   13MOL0     H 1715  10.061   2.724   4.442  1.2487  1.5569 -2.0141
   13MOL0     H 1716  10.260   2.830   4.425 -0.4076  0.0645 -0.3838
   13MOL0     H 1717  10.411   2.733   4.429 -1.1617 -1.2613  2.1142
   13MOL0     H 1718  10.353   2.813   4.283  1.8835  1.5294  2.1300
   13MOL0     H 1719  10.604   2.777   4.083 -0.6541 -0.4706 -4.1170
   13MOL0     H 1720  10.839   2.791   3.999  1.3120 -0.1911  0.6070
   13MOL0     H 1721  11.134   2.517   4.201  0.2593 -3.2763 -2.1188
   13MOL0     H 1722  11.232   2.595   4.085  0.3943  1.2048  0.9528
   13MOL0     H 1723  11.197   2.816   4.150 -2.3780 -0.0063 -1.7996
   13MOL0     H 1724  11.059   2.768   4.253  1.5118 -0.6637  2.3706
   13MOL0     H 1725  11.192   2.622   4.396 -1.0931 -1.7064 -3.1323
   13MOL0     H 1726  11.250   2.782   4.429 -0.6874  0.2634  1.1895
   13MOL0     H 1727  11.397   2.585   4.251  0.9676 -2.4784  3.4383
   13MOL0     H 1728  11.423   2.746   4.229  2.5910 -1.7344  0.0818
   13MOL0     H 1729  11.452   2.596   4.488  0.9442 -0.0999  1.2575
   13MOL0     H 1730  11.487   2.764   4.476  1.0820 -0.9753 -0.6065
   13MOL0     H 1731  11.641   2.555   4.314  2.0048 -0.1426  1.6554
   13MOL0     H 1732  11.633   2.724   4.271 -0.7907  2.1306  1.7537
   13MOL0     H 1733  11.730   2.624   4.552  0.0058 -0.5211 -0.4799
   13MOL0     H 1734  11.729   2.784   4.480  0.0346 -0.7736  1.1965
   13MOL0     H 1735  11.887   2.687   4.301 -1.1343  0.8219  0.6860
   13MOL0     H 1736  11.888   2.533   4.395  2.3074 -0.1344 -0.5335
   13MOL0     H 1737  10.916   2.422   4.208 -0.7394 -0.2082  2.0732
   13MOL0     H 1738  10.696   2.433   4.311  2.3088 -1.0042 -0.3916
   13MOL0     H 1739  10.204   2.355   4.161  0.8271 -2.2930  2.7495
   13MOL0     H 1740   9.967   2.388   4.216  0.8048  0.0200 -0.9326
   13MOL0     H 1741   9.951   3.586   4.004  5.2417  0.3678  1.6309
   13MOL0     H 1742  10.134   3.504   4.119 -0.7378  1.9411 -1.3800
   13MOL0     H 1743  10.396   3.408   4.439 -0.3365  1.4657  2.9131
   13MOL0     H 1744  10.587   3.349   4.568 -1.4450  0.8723 -1.4838
   13MOL0     H 1745  10.758   3.271   4.694 -1.5043 -0.6674 -1.2990
   13MOL0     H 1746  10.658   3.313   4.846 -2.0824 -0.9587 -1.4369
   13MOL0     H 1747  10.832   3.073   4.792 -0.2392  0.9638 -1.5043
   13MOL0     H 1748  10.790   3.151   4.952  2.2180 -1.3794 -0.1966
   13MOL0     H 1749  10.907   3.352   4.905  0.5854  2.6614 -2.9441
   13MOL0     H 1750  10.965   3.286   4.753  4.3548 -0.5312  1.7198
   13MOL0     H 1751  11.090   3.092   4.894 -1.0167 -1.6336  1.8401
   13MOL0     H 1752  11.003   3.154   5.035 -1.0377  2.1001  1.1141
   13MOL0     H 1753  11.331   3.426   5.016 -1.9079  2.7412  1.6454
   13MOL0     H 1754  10.365   3.029   4.762  4.0719 -0.6144  0.9679
   13MOL0     H 1755  10.173   3.087   4.616 -0.6098  0.3484  0.1657
   14MOL0     O 1756  10.759   2.907   3.473  0.3605  0.3357 -0.3679
   14MOL0     C 1757  10.815   2.897   3.363 -0.5227  0.3173  0.0374
   14MOL0     O 1758  10.749   2.871   3.236 -0.2233 -0.1107  0.5219
   14MOL0     C 1759  10.616   2.866   3.256 -0.8838 -0.1253 -1.1459
   14MOL0     C 1760  10.538   2.748   3.240  0.3499 -0.4528  0.5846
   14MOL0     C 1761  10.396   2.749   3.254  0.4705 -1.1281 -0.2989
   14MOL0     C 1762  10.330   2.874   3.280 -0.1312  0.3210 -0.0909
   14MOL0     O 1763  10.195   2.876   3.308  0.4277  0.2179 -0.0097
   14MOL0     C 1764  10.125   2.996   3.339  0.5632  0.1467  0.1484
   14MOL0     C 1765   9.977   2.966   3.315  0.0762 -0.0455 -0.0352
   14MOL0     C 1766   9.875   3.026   3.415  0.8285 -0.3106  0.3444
   14MOL0     C 1767   9.888   3.181   3.416 -0.0412  0.3794 -0.2969
   14MOL0     C 1768   9.958   3.238   3.539  0.3186  0.4655 -0.9744
   14MOL0     C 1769   9.906   3.372   3.564 -0.3168 -0.3858  0.4328
   14MOL0     C 1770   9.979   3.449   3.681 -0.1387 -0.3264 -0.5410
   14MOL0     C 1771  10.086   3.548   3.641 -0.1444 -0.1842  0.6168
   14MOL0     N 1772  10.062   3.649   3.538  0.0894 -0.9219  0.0658
   14MOL0     C 1773   9.944   3.694   3.485 -0.2629  0.4318 -0.1720
   14MOL0     C 1774   9.975   3.811   3.423 -1.5290  0.1634 -0.4526
   14MOL0     C 1775   9.878   3.908   3.382  0.4983 -1.0230  0.1176
   14MOL0     C 1776   9.837   3.906   3.227  0.2149  0.4579 -0.4092
   14MOL0     C 1777   9.735   4.016   3.197  0.7639 -1.4835  1.0660
   14MOL0     C 1778   9.774   4.168   3.223  0.5296  0.0993  0.5482
   14MOL0     O 1779   9.912   4.188   3.183 -0.6237  0.1653 -0.2966
   14MOL0     C 1780   9.972   4.309   3.199  0.0072 -0.0363  0.1046
   14MOL0     C 1781   9.914   4.428   3.185 -0.0101  0.7353 -0.0929
   14MOL0     C 1782   9.977   4.546   3.201 -0.0993 -0.9189 -1.0770
   14MOL0     C 1783   9.887   4.672   3.190  0.0901  0.0805 -0.0310
   14MOL0     C 1784  10.111   4.554   3.233 -0.2765  0.0154 -0.2957
   14MOL0     C 1785  10.187   4.681   3.259 -0.2722  0.5505  1.2919
   14MOL0     O 1786  10.320   4.661   3.275  0.1439 -0.1651  0.0069
   14MOL0     C 1787  10.371   4.747   3.368 -0.2715 -0.6100 -0.3444
   14MOL0     C 1788  10.316   4.751   3.495  0.0213  0.2997  0.9169
   14MOL0     C 1789  10.364   4.833   3.593 -0.7612 -0.2125 -0.5353
   14MOL0     C 1790  10.481   4.904   3.577 -0.3351 -0.7761 -0.3076
   14MOL0     O 1791  10.527   5.001   3.667 -0.2097  0.3819  0.9503
   14MOL0     C 1792  10.509   4.982   3.804  0.6357 -0.3084  0.4605
   14MOL0     C 1793  10.520   5.115   3.884 -0.0630 -0.2912 -0.1080
   14MOL0     C 1794  10.462   5.229   3.803  0.3612 -0.7243  1.3495
   14MOL0     C 1795  10.480   5.363   3.875  0.0256 -0.7277  1.2333
   14MOL0     C 1796  10.406   5.463   3.780  0.0866  0.1097  0.1255
   14MOL0     C 1797  10.399   5.606   3.838  0.8236  1.4373  0.8692
   14MOL0     C 1798  10.534   5.658   3.880  0.4794  0.2044  0.5772
   14MOL0     C 1799  10.541   5.811   3.888  0.4407  0.0552  0.4427
   14MOL0    Cl 1800  10.428   5.859   4.021  0.0049 -0.0161 -0.0691
   14MOL0     C 1801  10.538   4.904   3.448 -0.5992  0.3438  0.3650
   14MOL0     C 1802  10.488   4.823   3.343  0.2096  0.0299 -0.4309
   14MOL0     O 1803  10.124   4.787   3.259 -0.1185  0.1453 -0.3724
   14MOL0     C 1804  10.181   4.430   3.232  0.2079 -0.2575 -0.0826
   14MOL0     C 1805  10.110   4.311   3.218 -0.4469  0.2997 -0.3510
   14MOL0     N 1806  10.107   3.819   3.416 -0.7315  0.3058 -0.6526
   14MOL0     N 1807  10.165   3.727   3.494 -0.1211 -0.8140  0.3371
   14MOL0     C 1808  10.407   2.986   3.303 -0.3648  0.0072 -0.9698
   14MOL0     C 1809  10.543   2.982   3.295  0.3524 -0.1292 -0.4418
   14MOL0     C 1810  10.960   2.900   3.363  0.5615  1.0259 -0.0571
   14MOL0     C 1811  11.032   2.926   3.484  0.1937 -0.4638 -0.4088
   14MOL0     C 1812  11.168   2.924   3.480  0.0859  0.7685  0.0315
   14MOL0     C 1813  11.234   2.891   3.363 -0.8515 -0.2726  0.0384
   14MOL0     O 1814  11.373   2.883   3.360  0.0143  0.1236  0.0500
   14MOL0     C 1815  11.444   3.008   3.328 -1.5872  0.0964 -0.0966
   14MOL0     C 1816  11.588   3.003   3.384  1.1910 -0.3270  0.4172
   14MOL0     C 1817  11.578   3.012   3.534 -0.5759  0.1482  0.0401
   14MOL0     C 1818  11.719   3.013   3.600 -0.8364 -0.8654 -0.7822
   14MOL0     C 1819  11.705   3.037   3.748  0.8864  0.3293  0.1612
   14MOL0     C 1820  11.691   3.075   3.861  0.4820  0.0016 -0.1094
   14MOL0     C 1821  11.174   2.865   3.245 -0.4893  1.7629  0.6156
   14MOL0     C 1822  11.032   2.859   3.245 -0.3255  0.1388 -0.1791
   14MOL0     H 1823  10.584   2.652   3.219  4.2382  0.7600  2.6617
   14MOL0     H 1824  10.336   2.659   3.247 -3.7271  0.9791  3.6884
   14MOL0     H 1825  10.136   3.020   3.445  2.0398  4.4791 -0.7774
   14MOL0     H 1826  10.154   3.079   3.274 -0.6526 -1.4884 -2.6379
   14MOL0     H 1827   9.954   3.000   3.214 -0.0467 -5.4782 -2.1794
   14MOL0     H 1828   9.960   2.858   3.314 -1.6804  0.1901  0.0783
   14MOL0     H 1829   9.771   2.994   3.402  1.0585 -1.4129  1.0523
   14MOL0     H 1830   9.915   2.980   3.507 -0.1892  1.5745  1.8040
   14MOL0     H 1831   9.954   3.203   3.331  1.0409  1.1328  0.7022
   14MOL0     H 1832   9.794   3.228   3.388  0.4890  1.0328 -1.0341
   14MOL0     H 1833   9.926   3.174   3.622 -1.7652  1.5209 -0.8972
   14MOL0     H 1834  10.067   3.235   3.541  0.3018 -0.2659 -0.1833
   14MOL0     H 1835   9.902   3.431   3.472 -1.1147  1.0948  1.3755
   14MOL0     H 1836   9.800   3.355   3.588 -0.4889 -0.0076 -0.0393
   14MOL0     H 1837   9.898   3.497   3.738 -0.1879 -1.8277  0.7350
   14MOL0     H 1838  10.026   3.373   3.743  1.7636  0.1921 -1.2838
   14MOL0     H 1839  10.151   3.476   3.589 -4.5503 -3.9220 -0.3492
   14MOL0     H 1840  10.130   3.593   3.730  1.4557  2.1695 -1.2288
   14MOL0     H 1841   9.844   3.654   3.502  0.4317 -2.1878 -1.7407
   14MOL0     H 1842   9.791   3.883   3.443 -0.8635 -0.1465 -1.3788
   14MOL0     H 1843   9.908   4.011   3.403 -2.9912  0.3870 -1.0666
   14MOL0     H 1844   9.783   3.812   3.212  0.7316  0.2821 -1.1862
   14MOL0     H 1845   9.918   3.914   3.155  1.7961  2.5819  1.4783
   14MOL0     H 1846   9.640   4.014   3.253 -0.0199  2.4136  0.1636
   14MOL0     H 1847   9.708   4.012   3.092  0.2832  1.5819  0.9828
   14MOL0     H 1848   9.767   4.182   3.331 -0.6382  3.8695  0.1208
   14MOL0     H 1849   9.711   4.245   3.177  3.2559  1.1165 -1.7652
   14MOL0     H 1850   9.806   4.430   3.177 -0.3678  1.8200  3.3176
   14MOL0     H 1851   9.779   4.657   3.179  0.1045  0.3033 -0.4647
   14MOL0     H 1852   9.890   4.735   3.279  2.7673 -0.4155  0.3128
   14MOL0     H 1853   9.932   4.737   3.115  0.2331 -0.0891 -0.0941
   14MOL0     H 1854  10.236   4.685   3.528  0.7982 -1.1457  0.0112
   14MOL0     H 1855  10.316   4.825   3.690  0.8318 -2.3992  0.1376
   14MOL0     H 1856  10.416   4.935   3.838  2.5472 -1.4332  4.7292
   14MOL0     H 1857  10.580   4.907   3.838 -0.1763 -1.0536  0.5665
   14MOL0     H 1858  10.461   5.098   3.975 -0.6354  0.2777 -0.3595
   14MOL0     H 1859  10.625   5.137   3.901  0.3208  0.0205 -2.4785
   14MOL0     H 1860  10.354   5.212   3.795 -0.1367  2.8774 -3.7193
   14MOL0     H 1861  10.498   5.236   3.701  0.7170  2.7487  1.5947
   14MOL0     H 1862  10.438   5.361   3.975 -2.1821 -0.0939  0.3716
   14MOL0     H 1863  10.586   5.385   3.894  0.2422  0.7601 -1.2478
   14MOL0     H 1864  10.301   5.440   3.760 -0.2965 -0.1614  2.2634
   14MOL0     H 1865  10.451   5.464   3.680  0.6409 -2.6436  0.2681
   14MOL0     H 1866  10.350   5.670   3.764 -0.5477 -1.5249 -0.9819
   14MOL0     H 1867  10.322   5.597   3.915 -1.4777  1.8128 -1.2504
   14MOL0     H 1868  10.614   5.633   3.809  0.0362  0.0678  0.1243
   14MOL0     H 1869  10.557   5.622   3.981 -3.9061  2.1762  2.5593
   14MOL0     H 1870  10.522   5.859   3.792  1.3410  0.1950  0.3267
   14MOL0     H 1871  10.642   5.847   3.911  0.4663  0.6800 -0.5741
   14MOL0     H 1872  10.609   4.983   3.429 -2.8731  2.1755 -0.9956
   14MOL0     H 1873  10.539   4.827   3.247  3.9506  1.3231  1.3975
   14MOL0     H 1874  10.280   4.438   3.277  0.2679  1.0016 -0.3997
   14MOL0     H 1875  10.168   4.220   3.226 -0.0084  0.6500  0.6740
   14MOL0     H 1876  10.361   3.076   3.343  1.0793  0.2925  0.1143
   14MOL0     H 1877  10.589   3.075   3.327  0.4873 -0.3049 -0.1186
   14MOL0     H 1878  10.975   2.947   3.574 -1.7561  0.4027 -1.7628
   14MOL0     H 1879  11.229   2.918   3.570  0.4824 -1.9342 -0.3414
   14MOL0     H 1880  11.433   3.023   3.220 -1.2186 -3.3744 -0.7585
   14MOL0     H 1881  11.394   3.092   3.377  2.1408  0.6767  3.1676
   14MOL0     H 1882  11.651   3.090   3.362 -1.1963  1.6865  1.1799
   14MOL0     H 1883  11.628   2.904   3.358 -0.2161 -0.6099 -0.7774
   14MOL0     H 1884  11.512   2.936   3.577  0.0684  0.2475  1.2475
   14MOL0     H 1885  11.542   3.114   3.547 -0.6663 -0.1774  3.1268
   14MOL0     H 1886  11.780   3.097   3.563 -0.7344 -1.3480 -1.7407
   14MOL0     H 1887  11.780   2.925   3.578  2.1359  0.0783  2.6693
   14MOL0     H 1888  11.679   3.100   3.964  0.7734  1.6019 -0.4472
   14MOL0     H 1889  11.232   2.822   3.164 -1.5292 -1.5682  1.4942
   14MOL0     H 1890  10.992   2.826   3.149 -1.3059 -0.9504  0.5748
   15MOL0     O 1891  10.862   2.599   0.474 -0.3178  0.1935  0.1980
   15MOL0     C 1892  10.878   2.495   0.411 -0.5919  0.4700  0.7119
   15MOL0     O 1893  10.801   2.437   0.316  1.0461 -0.0016 -0.0533
   15MOL0     C 1894  10.662   2.461   0.301  0.1505 -0.3992 -0.1352
   15MOL0     C 1895  10.581   2.496   0.411  0.2908  0.4486 -0.0208
   15MOL0     C 1896  10.453   2.529   0.394  0.0081  0.4037  0.7040
   15MOL0     C 1897  10.389   2.511   0.266 -0.3777  0.1341  0.5397
   15MOL0     O 1898  10.254   2.511   0.276 -0.0826 -0.0950  0.0021
   15MOL0     C 1899  10.175   2.526   0.153 -0.4882 -0.0701 -0.3751
   15MOL0     C 1900  10.041   2.592   0.177  0.0402 -0.5515  0.1436
   15MOL0     C 1901   9.969   2.518   0.284 -0.2113 -0.2948 -0.2854
   15MOL0     C 1902   9.814   2.515   0.257 -0.7955  0.3000  0.6879
   15MOL0     C 1903   9.742   2.427   0.371 -0.2391 -0.0064 -0.7749
   15MOL0     C 1904   9.732   2.524   0.494  0.4914  0.5560  0.3515
   15MOL0     C 1905   9.638   2.454   0.592  0.5913 -0.3996 -0.8041
   15MOL0     C 1906   9.630   2.519   0.730  0.6363  0.4741 -0.5010
   15MOL0     N 1907   9.506   2.487   0.793  0.5153  1.1603  0.4382
   15MOL0     C 1908   9.384   2.548   0.760  0.3573 -0.8727 -0.0348
   15MOL0     C 1909   9.301   2.500   0.853 -0.7710  1.1747  0.1824
   15MOL0     C 1910   9.152   2.528   0.835 -0.5934  0.6068 -1.3955
   15MOL0     C 1911   9.082   2.389   0.848 -0.3168  0.1393  0.2081
   15MOL0     C 1912   8.937   2.390   0.813  0.3356 -0.6733 -0.0557
   15MOL0     C 1913   8.859   2.491   0.902 -0.3430  0.7708  0.7126
   15MOL0     O 1914   8.891   2.473   1.042 -0.3397  0.2729 -0.8999
   15MOL0     C 1915   8.805   2.421   1.135 -0.2506  1.1640  0.9036
   15MOL0     C 1916   8.810   2.438   1.272 -0.2759  0.4728  0.3989
   15MOL0     C 1917   8.728   2.381   1.370 -0.1569 -0.2353  0.1653
   15MOL0     C 1918   8.739   2.400   1.524  0.1958  0.3016 -0.0529
   15MOL0     C 1919   8.631   2.290   1.319  1.2604  0.8448  0.7912
   15MOL0     C 1920   8.519   2.243   1.397 -0.1604  0.7760 -0.7716
   15MOL0     O 1921   8.492   2.114   1.400 -0.0578  0.1188 -0.2622
   15MOL0     C 1922   8.431   2.066   1.514 -0.1562 -0.2840 -0.4391
   15MOL0     C 1923   8.500   1.986   1.602  0.3611  0.7075 -0.0328
   15MOL0     C 1924   8.441   1.928   1.713 -0.1909  0.3298 -0.9858
   15MOL0     C 1925   8.301   1.944   1.737  0.2299  0.8445  0.3381
   15MOL0     O 1926   8.249   1.893   1.853  1.1803  1.0783 -0.3511
   15MOL0     C 1927   8.104   1.896   1.879 -1.1465 -0.4559  0.1222
   15MOL0     C 1928   8.065   1.772   1.947  0.1257  0.4075  0.2490
   15MOL0     C 1929   7.924   1.772   2.003 -0.1972 -0.4035 -0.4606
   15MOL0     C 1930   7.880   1.633   2.036 -0.0668  0.3134  0.5441
   15MOL0     C 1931   7.734   1.623   2.063 -0.2715  0.1318 -0.2656
   15MOL0     C 1932   7.697   1.674   2.206  0.3617  0.9040  1.2591
   15MOL0     C 1933   7.548   1.645   2.229  0.6205 -0.0189  0.3830
   15MOL0     C 1934   7.497   1.695   2.374  0.5911  0.9171  0.1933
   15MOL0    Cl 1935   7.328   1.641   2.418  0.1056 -0.1011  0.5614
   15MOL0     C 1936   8.232   2.027   1.649  0.7679  0.5887 -0.7675
   15MOL0     C 1937   8.298   2.097   1.543 -0.3924 -0.4930 -0.7210
   15MOL0     O 1938   8.457   2.320   1.465  0.3137 -0.3386  0.5967
   15MOL0     C 1939   8.636   2.259   1.179  1.5972 -0.5269  0.0692
   15MOL0     C 1940   8.714   2.326   1.090 -0.0712  0.1666 -0.6996
   15MOL0     N 1941   9.372   2.416   0.934 -0.2886  0.6101 -0.3188
   15MOL0     N 1942   9.491   2.405   0.899  0.8489  0.2870 -0.3903
   15MOL0     C 1943  10.460   2.473   0.152  0.9303  0.7795  0.2912
   15MOL0     C 1944  10.596   2.448   0.175  0.7757  0.0042  0.2297
   15MOL0     C 1945  11.003   2.427   0.423 -0.0741 -0.5139  0.4711
   15MOL0     C 1946  11.061   2.342   0.319  0.2468  0.5757 -0.6033
   15MOL0     C 1947  11.198   2.300   0.334 -0.1464  1.0873 -0.0372
   15MOL0     C 1948  11.278   2.338   0.443  0.3263  0.0402 -0.0384
   15MOL0     O 1949  11.403   2.281   0.458 -0.1860  0.5332  0.9316
   15MOL0     C 1950  11.493   2.269   0.342  0.8581 -0.2438  0.3146
   15MOL0     C 1951  11.624   2.232   0.403  1.1426  0.4783  1.0117
   15MOL0     C 1952  11.686   2.329   0.500 -0.0465  0.8103 -0.1991
   15MOL0     C 1953  11.821   2.275   0.542 -0.7222  0.6658 -0.6922
   15MOL0     C 1954  11.888   2.385   0.617 -0.5411  0.6317  0.5127
   15MOL0     C 1955  11.948   2.474   0.670 -0.3360  0.1802 -0.3652
   15MOL0     C 1956  11.221   2.415   0.540 -0.5178  0.0758  0.1843
   15MOL0     C 1957  11.081   2.454   0.535 -0.3049  0.2088  0.5846
   15MOL0     H 1958  10.614   2.502   0.514 -0.2643  0.1340  0.1812
   15MOL0     H 1959  10.399   2.565   0.481 -1.5311 -2.3680  0.9929
   15MOL0     H 1960  10.219   2.585   0.073 -0.7249  0.8595  0.1683
   15MOL0     H 1961  10.151   2.429   0.109 -1.1282 -1.2623  2.4061
   15MOL0     H 1962  10.049   2.698   0.201  1.2727 -0.2259 -1.4926
   15MOL0     H 1963   9.995   2.590   0.078  1.4089  1.0479 -0.5772
   15MOL0     H 1964  10.011   2.418   0.302  0.6591  0.0311 -0.4532
   15MOL0     H 1965   9.991   2.569   0.378 -0.9338  0.3459 -0.4582
   15MOL0     H 1966   9.766   2.613   0.269  1.3341  1.4527  0.2902
   15MOL0     H 1967   9.794   2.464   0.162 -2.8441 -4.4777  3.3129
   15MOL0     H 1968   9.646   2.404   0.324 -0.1419  2.0936 -2.1490
   15MOL0     H 1969   9.793   2.336   0.403 -0.2285  0.4449  0.5469
   15MOL0     H 1970   9.833   2.538   0.534  1.1983 -0.8124 -0.8646
   15MOL0     H 1971   9.695   2.622   0.461  0.5677  0.5213  0.1617
   15MOL0     H 1972   9.537   2.435   0.553  0.6654 -3.6130  0.2812
   15MOL0     H 1973   9.666   2.351   0.617 -2.9799 -1.3030  0.0741
   15MOL0     H 1974   9.648   2.627   0.732  0.0434  0.5716  1.1123
   15MOL0     H 1975   9.707   2.467   0.788 -1.7500 -2.2131  0.5676
   15MOL0     H 1976   9.367   2.619   0.680  0.7254 -0.4819  0.2286
   15MOL0     H 1977   9.124   2.592   0.919  2.2270 -0.0137  0.1763
   15MOL0     H 1978   9.141   2.587   0.744  1.0104  1.2506 -1.2185
   15MOL0     H 1979   9.091   2.358   0.952  0.2544  3.2874  1.2118
   15MOL0     H 1980   9.135   2.314   0.788  0.1453  0.7889 -0.2031
   15MOL0     H 1981   8.896   2.289   0.825  1.7511 -1.0920  1.5703
   15MOL0     H 1982   8.933   2.421   0.708  0.4114  1.8526  0.6261
   15MOL0     H 1983   8.755   2.463   0.883 -0.1189 -0.2710  0.9532
   15MOL0     H 1984   8.876   2.595   0.874  0.7773  0.3142 -0.3682
   15MOL0     H 1985   8.875   2.515   1.311 -2.6669  2.1127  1.3634
   15MOL0     H 1986   8.698   2.307   1.564  0.3244 -1.4236 -3.5484
   15MOL0     H 1987   8.841   2.408   1.561 -1.1719  2.6028  3.7238
   15MOL0     H 1988   8.664   2.471   1.560 -1.3484 -2.8889  3.6828
   15MOL0     H 1989   8.601   1.949   1.582 -0.0220  1.1780 -3.5442
   15MOL0     H 1990   8.498   1.872   1.786 -3.2491 -2.2160 -0.3757
   15MOL0     H 1991   8.073   1.987   1.932  1.9356  0.5455  0.4354
   15MOL0     H 1992   8.059   1.885   1.780 -2.9971 -1.4035  1.0266
   15MOL0     H 1993   8.065   1.692   1.872 -0.3970  1.1637 -0.5817
   15MOL0     H 1994   8.133   1.763   2.032 -2.0953 -0.4553  2.0149
   15MOL0     H 1995   7.871   1.823   1.922  2.0227 -1.6163 -2.8227
   15MOL0     H 1996   7.915   1.827   2.098  1.2080  2.1424 -1.6860
   15MOL0     H 1997   7.905   1.570   1.951  1.7859 -1.4879  2.2862
   15MOL0     H 1998   7.939   1.605   2.124 -1.4661 -0.5917  1.2244
   15MOL0     H 1999   7.701   1.521   2.042  0.7090 -0.0479 -0.9845
   15MOL0     H 2000   7.683   1.687   1.990  1.2844  2.2825  0.4599
   15MOL0     H 2001   7.752   1.615   2.279  2.4095 -1.7654 -2.1386
   15MOL0     H 2002   7.717   1.780   2.224 -0.3994  0.9574  1.8366
   15MOL0     H 2003   7.532   1.537   2.227 -0.2486  0.1077  0.0978
   15MOL0     H 2004   7.491   1.696   2.151 -2.7397  0.8371  3.1628
   15MOL0     H 2005   7.510   1.802   2.389 -0.3036  0.7052  3.1488
   15MOL0     H 2006   7.563   1.659   2.454  0.6062  4.0094  1.7152
   15MOL0     H 2007   8.131   2.063   1.662  0.6993 -0.0420  0.6882
   15MOL0     H 2008   8.251   2.162   1.470  0.2916  1.0355  0.1743
   15MOL0     H 2009   8.569   2.178   1.149  1.5784 -0.1296 -0.9811
   15MOL0     H 2010   8.716   2.289   0.988  0.9421  1.1632 -1.0582
   15MOL0     H 2011  10.398   2.449   0.066  0.1206 -1.4473  1.4065
   15MOL0     H 2012  10.663   2.431   0.091  0.9069  0.1650  0.3006
   15MOL0     H 2013  11.009   2.322   0.226 -1.6656 -1.4466  0.8170
   15MOL0     H 2014  11.240   2.227   0.265  1.1878  0.7925  1.0257
   15MOL0     H 2015  11.455   2.188   0.279 -1.2281  2.4107 -2.1480
   15MOL0     H 2016  11.497   2.365   0.289 -2.2921 -0.0079  0.2715
   15MOL0     H 2017  11.697   2.217   0.322  1.4982  1.5678  1.1023
   15MOL0     H 2018  11.614   2.137   0.455  0.8492  0.8837  1.7149
   15MOL0     H 2019  11.632   2.342   0.595  0.9306  0.3270  0.4423
   15MOL0     H 2020  11.700   2.428   0.456  0.7619  0.6360 -0.3611
   15MOL0     H 2021  11.867   2.224   0.457 -0.5945 -3.4425  1.5929
   15MOL0     H 2022  11.818   2.193   0.614  1.8527  2.5413  1.8033
   15MOL0     H 2023  11.998   2.555   0.718 -0.9341  1.2195 -1.4635
   15MOL0     H 2024  11.275   2.451   0.627 -1.1130  2.4228 -0.3524
   15MOL0     H 2025  11.041   2.499   0.625 -1.9807 -1.4262  0.7096
   16MOL0     O 2026  10.358   4.433   4.472 -0.0445  0.3624  0.4623
   16MOL0     C 2027  10.295   4.378   4.379  0.1713  0.6961 -0.5935
   16MOL0     O 2028  10.160   4.377   4.368 -0.2343  0.3306 -0.8595
   16MOL0     C 2029  10.092   4.439   4.468  0.3024  0.5113  0.3201
   16MOL0     C 2030  10.071   4.571   4.464 -0.3686 -0.1146  0.3170
   16MOL0     C 2031   9.991   4.628   4.566  1.1570 -0.1579  0.0250
   16MOL0     C 2032   9.924   4.553   4.662 -0.1829  0.2811 -0.1925
   16MOL0     O 2033   9.863   4.620   4.770  0.8412  0.4019  0.1899
   16MOL0     C 2034   9.876   4.555   4.898 -0.8009  0.3365 -0.0321
   16MOL0     C 2035  10.022   4.516   4.943  0.0488 -0.5823  0.0766
   16MOL0     C 2036  10.023   4.447   5.079  0.3103  0.5300 -0.4397
   16MOL0     C 2037   9.942   4.319   5.095 -0.3928  0.4427 -0.1942
   16MOL0     C 2038   9.960   4.247   5.236  0.4685  0.1682  0.8214
   16MOL0     C 2039   9.884   4.320   5.349 -0.3715 -0.8790  0.5837
   16MOL0     C 2040   9.731   4.320   5.348 -0.2595 -0.3205  0.1948
   16MOL0     C 2041   9.680   4.452   5.303 -0.2017  0.7457  0.7632
   16MOL0     N 2042   9.573   4.462   5.201  0.0962  0.4691  0.1699
   16MOL0     C 2043   9.454   4.391   5.202  0.1225 -0.0741  0.0286
   16MOL0     C 2044   9.391   4.428   5.090 -0.3374 -0.4305 -0.2555
   16MOL0     C 2045   9.259   4.375   5.043  0.7017 -0.7009  0.0227
   16MOL0     C 2046   9.264   4.279   4.921 -0.5050 -0.1434 -0.2717
   16MOL0     C 2047   9.156   4.172   4.917 -0.0774  0.4902  0.1511
   16MOL0     C 2048   9.012   4.223   4.948  0.0020 -0.3089  0.6256
   16MOL0     O 2049   8.911   4.118   4.918 -0.4878  0.2556 -0.6616
   16MOL0     C 2050   8.782   4.144   4.963  0.1791  0.0347 -0.5218
   16MOL0     C 2051   8.678   4.120   4.875 -0.4671 -0.9802  0.3110
   16MOL0     C 2052   8.539   4.150   4.911 -0.1561  0.2310  0.2199
   16MOL0     C 2053   8.423   4.124   4.811  0.0352  0.2986  0.3429
   16MOL0     C 2054   8.509   4.172   5.047 -0.9787 -0.4088 -0.0684
   16MOL0     C 2055   8.373   4.172   5.094  0.5753 -0.3336  0.3816
   16MOL0     O 2056   8.302   4.055   5.068 -0.6204  0.1104  0.0704
   16MOL0     C 2057   8.174   4.036   5.120 -0.2436  0.7682  0.4164
   16MOL0     C 2058   8.070   4.124   5.090  1.5805  0.1463  0.5042
   16MOL0     C 2059   7.937   4.103   5.136 -0.1776  0.3385  0.2374
   16MOL0     C 2060   7.899   3.981   5.201  0.2336  0.3510 -0.7531
   16MOL0     O 2061   7.768   3.938   5.252 -0.5303 -0.6119  0.2416
   16MOL0     C 2062   7.664   4.045   5.252 -0.4006 -0.4058  0.4764
   16MOL0     C 2063   7.533   3.992   5.305  0.1893 -0.0354  0.0935
   16MOL0     C 2064   7.534   3.899   5.431 -0.5889  0.1460 -0.1773
   16MOL0     C 2065   7.576   3.970   5.555  0.1779 -1.2223 -0.0580
   16MOL0     C 2066   7.586   3.874   5.672  0.4234  0.0170 -0.3942
   16MOL0     C 2067   7.697   3.763   5.648  0.7872 -0.3097  0.8360
   16MOL0     C 2068   7.839   3.821   5.673  0.4066 -0.2025  0.4562
   16MOL0     C 2069   7.943   3.710   5.648  0.2027 -0.6275 -0.0249
   16MOL0    Cl 2070   7.906   3.580   5.748 -0.2859  0.2078 -0.2171
   16MOL0     C 2071   8.005   3.888   5.225  0.5736  0.4314  0.9138
   16MOL0     C 2072   8.136   3.913   5.175 -0.6629 -0.0082  0.6436
   16MOL0     O 2073   8.332   4.269   5.162  0.2636 -0.2517  0.7235
   16MOL0     C 2074   8.608   4.208   5.134 -0.6721 -0.2611 -0.1014
   16MOL0     C 2075   8.743   4.192   5.091 -0.2325  0.9110 -0.0486
   16MOL0     N 2076   9.477   4.507   5.026 -0.0447 -0.0871 -0.6875
   16MOL0     N 2077   9.581   4.534   5.088 -1.0677  0.3639 -0.6164
   16MOL0     C 2078   9.951   4.413   4.657  0.6453 -0.2048 -0.5820
   16MOL0     C 2079  10.023   4.356   4.557 -0.7438 -0.0158 -0.6280
   16MOL0     C 2080  10.375   4.332   4.263  0.0612  0.2998  0.3610
   16MOL0     C 2081  10.310   4.260   4.152 -1.2626 -0.4224  0.2592
   16MOL0     C 2082  10.391   4.211   4.047  0.5247 -0.0280 -0.3153
   16MOL0     C 2083  10.532   4.221   4.047  0.4151  0.3537 -0.1541
   16MOL0     O 2084  10.611   4.156   3.957  0.2050  0.1843 -0.4320
   16MOL0     C 2085  10.564   4.038   3.888 -0.2700 -0.4414 -0.8330
   16MOL0     C 2086  10.626   4.038   3.760 -0.5241 -0.3270  0.3256
   16MOL0     C 2087  10.773   3.979   3.763 -0.0672  0.8218 -0.7899
   16MOL0     C 2088  10.810   3.944   3.624 -0.3363 -0.9867  0.3721
   16MOL0     C 2089  10.958   3.921   3.612  0.0273  0.0922  0.1295
   16MOL0     C 2090  11.072   3.885   3.592 -0.5544  0.0730 -0.0397
   16MOL0     C 2091  10.593   4.290   4.141  0.0047 -0.2271 -0.5851
   16MOL0     C 2092  10.521   4.347   4.254  0.0476 -0.2069 -0.0294
   16MOL0     H 2093  10.129   4.641   4.404 -3.6422  2.2006 -0.4454
   16MOL0     H 2094   9.986   4.736   4.563 -0.6040 -0.2003  0.2317
   16MOL0     H 2095   9.843   4.623   4.977  1.8287  0.1503  1.3305
   16MOL0     H 2096   9.801   4.476   4.898  0.1282 -0.5800 -0.6398
   16MOL0     H 2097  10.074   4.445   4.878 -0.9935 -1.0345 -0.2803
   16MOL0     H 2098  10.083   4.606   4.954 -1.0000  0.3356 -1.3253
   16MOL0     H 2099  10.127   4.419   5.098  0.3293  1.0690  0.2797
   16MOL0     H 2100   9.980   4.505   5.161  0.8326 -2.9691  2.5576
   16MOL0     H 2101   9.835   4.336   5.081 -0.4886 -0.0590 -0.0901
   16MOL0     H 2102   9.968   4.246   5.018 -3.6961 -1.3224  0.2245
   16MOL0     H 2103   9.912   4.149   5.227  0.3332  0.2326  0.8289
   16MOL0     H 2104  10.064   4.230   5.263  0.8238 -0.7241 -0.9553
   16MOL0     H 2105   9.913   4.277   5.445  1.7105 -1.8167 -0.3995
   16MOL0     H 2106   9.928   4.420   5.356  1.6800 -1.7907  1.6875
   16MOL0     H 2107   9.698   4.238   5.283  2.8003 -1.4117 -0.1744
   16MOL0     H 2108   9.694   4.313   5.450  1.9965  0.0356  1.0957
   16MOL0     H 2109   9.763   4.504   5.254 -1.1887  0.2174 -1.5877
   16MOL0     H 2110   9.635   4.501   5.390 -3.9152 -1.3815  0.2266
   16MOL0     H 2111   9.413   4.324   5.277  0.9580 -1.0238 -0.3375
   16MOL0     H 2112   9.206   4.320   5.121  1.6597 -3.9384 -1.4494
   16MOL0     H 2113   9.195   4.462   5.023  2.5695  1.2549  1.9122
   16MOL0     H 2114   9.355   4.219   4.926 -2.0266 -2.4828  0.8191
   16MOL0     H 2115   9.274   4.341   4.831  3.4095 -0.3135 -0.1435
   16MOL0     H 2116   9.178   4.091   4.987  0.5526 -0.6499 -1.3089
   16MOL0     H 2117   9.170   4.146   4.811  1.1832  1.0948  0.1376
   16MOL0     H 2118   8.989   4.313   4.891  0.0331 -1.4237 -1.2067
   16MOL0     H 2119   9.014   4.261   5.051 -2.3285 -1.8488  1.3189
   16MOL0     H 2120   8.697   4.083   4.775 -1.5306 -2.2275  0.5386
   16MOL0     H 2121   8.361   4.042   4.848 -0.9803  0.4137 -1.0369
   16MOL0     H 2122   8.362   4.214   4.799  0.4362  0.4743 -0.4359
   16MOL0     H 2123   8.455   4.087   4.713 -0.6076 -1.1195  0.6485
   16MOL0     H 2124   8.079   4.217   5.034  1.7407  0.6215  1.2966
   16MOL0     H 2125   7.863   4.181   5.128 -2.2666 -1.7335 -4.0575
   16MOL0     H 2126   7.716   4.119   5.314  1.0223 -0.2920 -0.7869
   16MOL0     H 2127   7.646   4.091   5.154 -0.9218  0.5791  1.0162
   16MOL0     H 2128   7.469   4.078   5.328 -2.8386 -2.0214 -0.3267
   16MOL0     H 2129   7.497   3.923   5.228  1.1333 -1.4433  0.8632
   16MOL0     H 2130   7.602   3.817   5.409 -1.1090 -1.3495  3.1578
   16MOL0     H 2131   7.438   3.852   5.453  0.9274 -2.9207  0.2910
   16MOL0     H 2132   7.680   3.998   5.535  0.7246 -1.8870  1.6809
   16MOL0     H 2133   7.510   4.056   5.573 -3.6867 -4.0277  0.4960
   16MOL0     H 2134   7.490   3.826   5.695 -0.0288  1.0147 -0.1517
   16MOL0     H 2135   7.617   3.927   5.762 -1.7729 -1.2754  1.2710
   16MOL0     H 2136   7.685   3.681   5.719  1.9243  0.3090  1.7774
   16MOL0     H 2137   7.696   3.714   5.550  1.9616 -1.4275  1.3520
   16MOL0     H 2138   7.830   3.849   5.779 -0.2901 -0.8242  0.5671
   16MOL0     H 2139   7.862   3.912   5.618  6.2312 -1.2581  0.4607
   16MOL0     H 2140   8.048   3.731   5.670  0.1483  3.2820 -2.6392
   16MOL0     H 2141   7.936   3.678   5.544 -1.2602  1.0092 -0.4605
   16MOL0     H 2142   7.991   3.793   5.275  2.2594 -0.5955 -0.4568
   16MOL0     H 2143   8.217   3.841   5.188  2.1878  2.6883 -0.6671
   16MOL0     H 2144   8.591   4.245   5.234 -0.0664  2.9692 -1.0773
   16MOL0     H 2145   8.813   4.192   5.174  0.2085  1.0298 -0.4188
   16MOL0     H 2146   9.914   4.346   4.733 -0.3491 -0.9059 -1.6603
   16MOL0     H 2147  10.046   4.253   4.532 -0.0659  0.1314 -0.6352
   16MOL0     H 2148  10.206   4.229   4.147 -0.7312 -2.2260 -0.2294
   16MOL0     H 2149  10.343   4.169   3.959  1.3737  2.0531 -1.8691
   16MOL0     H 2150  10.587   3.956   3.957 -1.1671  2.1406  2.8310
   16MOL0     H 2151  10.457   4.044   3.868 -1.3060 -0.8016  3.6408
   16MOL0     H 2152  10.644   4.138   3.720 -0.6946  0.2599  1.6505
   16MOL0     H 2153  10.570   3.982   3.685  1.6441 -0.1780 -1.5209
   16MOL0     H 2154  10.776   3.885   3.819 -1.8810  0.6694 -0.8679
   16MOL0     H 2155  10.849   4.041   3.811  0.5622 -0.4508 -0.0909
   16MOL0     H 2156  10.778   4.023   3.555  1.3015 -1.3401 -0.8540
   16MOL0     H 2157  10.755   3.861   3.579 -1.9808  1.2003 -1.9783
   16MOL0     H 2158  11.174   3.852   3.597 -0.2325  1.0786  0.1592
   16MOL0     H 2159  10.702   4.289   4.137  0.0027 -1.5281 -0.9107
   16MOL0     H 2160  10.575   4.396   4.334  0.3120 -1.0325  0.3073
   17MOL0     O 2161  11.025  10.185   5.697 -0.3916 -0.3431 -1.1167
   17MOL0     C 2162  10.982  10.078   5.655 -0.6711 -0.0040 -0.3373
   17MOL0     O 2163  11.000   9.957   5.722 -0.6971  0.3107 -0.2020
   17MOL0     C 2164  11.059   9.939   5.842 -1.0385 -1.0563  0.1666
   17MOL0     C 2165  11.081  10.044   5.942  0.5060 -0.0432  0.3060
   17MOL0     C 2166  11.155  10.008   6.053 -0.5263  0.0908 -0.4577
   17MOL0     C 2167  11.207   9.885   6.068  0.1834  0.6198 -0.4730
   17MOL0     O 2168  11.289   9.843   6.176  0.6045  0.2788 -0.5273
   17MOL0     C 2169  11.429   9.866   6.156 -0.0388  0.0965 -0.1059
   17MOL0     C 2170  11.521   9.856   6.276 -0.0693  0.2000 -0.1159
   17MOL0     C 2171  11.518   9.982   6.358 -0.1287  0.2571 -1.0583
   17MOL0     C 2172  11.376  10.002   6.415  0.0111  0.1670 -0.6380
   17MOL0     C 2173  11.365  10.140   6.489 -0.1334  0.0899  0.0888
   17MOL0     C 2174  11.224  10.163   6.540  0.5250  0.4076 -0.6236
   17MOL0     C 2175  11.103  10.169   6.443  0.4717 -0.0078 -0.3376
   17MOL0     C 2176  10.978  10.247   6.483 -0.1853 -0.5794  0.2964
   17MOL0     N 2177  10.892  10.182   6.586  0.0904 -0.5440  0.6722
   17MOL0     C 2178  10.921  10.184   6.726 -0.0627 -0.4724  0.2972
   17MOL0     C 2179  10.854  10.074   6.767 -0.5570  0.8294 -0.6470
   17MOL0     C 2180  10.845  10.002   6.901 -0.1652 -0.2889 -0.3619
   17MOL0     C 2181  10.962   9.994   6.985 -0.4702 -0.8236 -0.4911
   17MOL0     C 2182  10.946   9.895   7.106 -0.0049 -0.3092  0.0894
   17MOL0     C 2183  11.075   9.820   7.158  0.6550 -0.8763 -0.1310
   17MOL0     O 2184  11.035   9.728   7.259  0.2581  0.1417 -0.3490
   17MOL0     C 2185  11.141   9.674   7.338  0.1726  0.0637  0.6088
   17MOL0     C 2186  11.248   9.615   7.276 -0.9715  0.2590 -0.2881
   17MOL0     C 2187  11.351   9.561   7.365  0.0273 -0.1517  0.2775
   17MOL0     C 2188  11.467   9.505   7.292  0.4524 -0.2852  0.4450
   17MOL0     C 2189  11.343   9.553   7.502  0.0219  0.0312 -0.1011
   17MOL0     C 2190  11.443   9.503   7.598  0.4257 -0.1826  0.3951
   17MOL0     O 2191  11.572   9.516   7.573 -0.1368 -0.8195  0.2772
   17MOL0     C 2192  11.669   9.508   7.678  0.2916  0.4126 -0.2254
   17MOL0     C 2193  11.787   9.448   7.642 -0.6148  0.5661  0.2012
   17MOL0     C 2194  11.894   9.419   7.729  0.5233 -0.1318 -0.5244
   17MOL0     C 2195  11.877   9.445   7.869 -0.3753  0.0134  0.8459
   17MOL0     O 2196  11.972   9.401   7.965  0.0881  0.6947 -0.0014
   17MOL0     C 2197  11.916   9.291   8.039 -0.3988 -0.4043  0.5505
   17MOL0     C 2198  12.023   9.225   8.134  0.4909  0.0055  0.1373
   17MOL0     C 2199  12.153   9.192   8.052  0.8346 -0.0532 -0.2223
   17MOL0     C 2200  12.243   9.096   8.132  0.0630  0.3001 -0.2601
   17MOL0     C 2201  12.377   9.046   8.068  0.0230 -0.3746  0.4725
   17MOL0     C 2202  12.450   8.938   8.150  0.1329 -0.8016  1.0353
   17MOL0     C 2203  12.591   8.896   8.079  0.2106 -0.0817  0.3533
   17MOL0     C 2204  12.682   8.837   8.192  0.3515  0.6691  0.0195
   17MOL0    Cl 2205  12.843   8.776   8.130 -0.1995  0.2213  0.3698
   17MOL0     C 2206  11.759   9.510   7.905  0.1149  0.7036 -0.7014
   17MOL0     C 2207  11.653   9.546   7.810  0.5167  0.4101 -0.4944
   17MOL0     O 2208  11.395   9.457   7.702 -0.2389 -0.3095  0.1676
   17MOL0     C 2209  11.233   9.614   7.555  1.5105  0.2098  0.0615
   17MOL0     C 2210  11.133   9.675   7.477  0.3359  0.1551 -1.1682
   17MOL0     N 2211  10.779  10.012   6.670  0.2691  0.6616 -0.9805
   17MOL0     N 2212  10.805  10.076   6.561 -0.2517 -0.2982 -0.1623
   17MOL0     C 2213  11.180   9.784   5.973 -0.3672 -0.6853  0.0570
   17MOL0     C 2214  11.102   9.814   5.862 -0.5602 -0.1795 -0.4073
   17MOL0     C 2215  10.914  10.083   5.525 -0.1744 -0.1602  0.1139
   17MOL0     C 2216  10.940  10.176   5.427 -0.6021 -0.0998 -0.6639
   17MOL0     C 2217  10.876  10.172   5.312  1.1377 -0.2891  0.2809
   17MOL0     C 2218  10.774  10.082   5.281 -0.5517 -0.5239  0.8099
   17MOL0     O 2219  10.726  10.069   5.146  0.7043 -0.3953  0.0630
   17MOL0     C 2220  10.617  10.158   5.119  0.5211  0.1299  0.3645
   17MOL0     C 2221  10.678  10.267   5.038  0.4688 -0.0164 -0.2030
   17MOL0     C 2222  10.565  10.372   5.006 -0.3073  0.0723  0.5276
   17MOL0     C 2223  10.461  10.326   4.912 -0.2929 -0.1416 -0.6953
   17MOL0     C 2224  10.410  10.452   4.845 -0.0116  0.2057 -0.3414
   17MOL0     C 2225  10.365  10.552   4.790 -0.2955  0.8376 -0.0366
   17MOL0     C 2226  10.743   9.990   5.387  0.7244 -0.6108  0.1058
   17MOL0     C 2227  10.808   9.995   5.514  0.5553 -0.4124  0.9762
   17MOL0     H 2228  11.051  10.147   5.926 -1.5602 -0.9711 -2.5922
   17MOL0     H 2229  11.159  10.078   6.136 -0.4638 -1.4686  0.9016
   17MOL0     H 2230  11.465   9.781   6.097 -0.8267 -0.6559  0.4551
   17MOL0     H 2231  11.446   9.966   6.118 -1.2271  0.6696  0.8110
   17MOL0     H 2232  11.492   9.773   6.340 -1.1457  2.0577  1.9319
   17MOL0     H 2233  11.613   9.831   6.223  0.1871 -0.7650  0.7463
   17MOL0     H 2234  11.591   9.978   6.439 -1.7830 -1.8672  0.4698
   17MOL0     H 2235  11.548  10.071   6.302  5.3087 -0.0655  0.7404
   17MOL0     H 2236  11.301  10.009   6.336  0.0118  1.3580 -0.5586
   17MOL0     H 2237  11.345   9.918   6.477 -1.8694 -0.6067 -2.5268
   17MOL0     H 2238  11.443  10.129   6.565  0.7131  0.0376 -0.7596
   17MOL0     H 2239  11.403  10.221   6.425 -1.1031  0.6637  0.2111
   17MOL0     H 2240  11.204  10.091   6.620 -3.0534  0.0710 -1.6535
   17MOL0     H 2241  11.232  10.257   6.597  1.9381  0.0184 -0.1601
   17MOL0     H 2242  11.144  10.217   6.354  0.3890  0.9243  0.1190
   17MOL0     H 2243  11.067  10.068   6.421 -0.4874  0.2915 -0.1947
   17MOL0     H 2244  10.917  10.257   6.393 -0.2912 -0.2297  0.4047
   17MOL0     H 2245  11.003  10.346   6.523 -2.0886  0.8156 -1.6766
   17MOL0     H 2246  10.997  10.243   6.777  0.4219 -1.0165  0.2050
   17MOL0     H 2247  10.760  10.038   6.960  1.6625 -1.5005  3.3702
   17MOL0     H 2248  10.829   9.897   6.873  4.4788 -1.6553  1.2697
   17MOL0     H 2249  10.990  10.097   7.010  0.5533 -1.7705  2.7585
   17MOL0     H 2250  11.034   9.961   6.910  0.7601  0.9937 -0.1731
   17MOL0     H 2251  10.881   9.810   7.086  1.1863 -1.1106 -0.5218
   17MOL0     H 2252  10.906   9.958   7.186 -0.1988  0.9859 -0.9916
   17MOL0     H 2253  11.149   9.887   7.204 -0.4418 -0.3867  0.9896
   17MOL0     H 2254  11.126   9.759   7.084  1.2027 -1.1106  0.4278
   17MOL0     H 2255  11.262   9.612   7.168  1.3019 -1.3390 -0.0409
   17MOL0     H 2256  11.512   9.414   7.333  0.6549 -0.9860 -1.2613
   17MOL0     H 2257  11.423   9.482   7.195  0.0720 -0.1657  0.5871
   17MOL0     H 2258  11.550   9.574   7.270  0.4349 -0.8546 -1.6440
   17MOL0     H 2259  11.795   9.423   7.536  0.0529  3.2611 -0.4771
   17MOL0     H 2260  11.983   9.374   7.688  0.2859  1.7785 -3.4095
   17MOL0     H 2261  11.837   9.324   8.107 -1.5869  0.2081 -1.0717
   17MOL0     H 2262  11.879   9.223   7.962  2.1180  1.2642 -2.3597
   17MOL0     H 2263  12.044   9.307   8.203 -0.9615  2.2491 -1.9684
   17MOL0     H 2264  11.974   9.137   8.177 -0.8602  1.6308  2.1208
   17MOL0     H 2265  12.208   9.283   8.026  1.3513 -0.5905 -1.0537
   17MOL0     H 2266  12.136   9.128   7.965 -1.0237 -0.5383  0.4525
   17MOL0     H 2267  12.269   9.142   8.228 -0.9133 -0.3386  0.3325
   17MOL0     H 2268  12.182   9.010   8.164  2.3451 -1.4770 -0.4327
   17MOL0     H 2269  12.442   9.132   8.050  0.6372 -0.4701  2.0772
   17MOL0     H 2270  12.349   9.012   7.968 -0.4268  2.6868 -0.5507
   17MOL0     H 2271  12.463   8.972   8.253 -0.0841  1.8112  0.2873
   17MOL0     H 2272  12.390   8.847   8.146 -2.1243  0.6675 -0.4961
   17MOL0     H 2273  12.636   8.993   8.056 -3.0682  1.1184 -1.7920
   17MOL0     H 2274  12.557   8.830   7.998 -1.9984 -0.5655  1.5722
   17MOL0     H 2275  12.639   8.748   8.240  0.3169  1.7157  2.0367
   17MOL0     H 2276  12.690   8.899   8.282  0.9854 -1.4224  1.5005
   17MOL0     H 2277  11.734   9.516   8.010  0.3467 -1.2460 -0.4914
   17MOL0     H 2278  11.561   9.591   7.844  0.5628  0.1607 -0.0242
   17MOL0     H 2279  11.194   9.619   7.656 -1.4144 -1.9219 -0.8024
   17MOL0     H 2280  11.044   9.700   7.533 -0.1119 -2.4869 -0.5846
   17MOL0     H 2281  11.206   9.680   5.988  0.1230 -0.8982 -1.9880
   17MOL0     H 2282  11.079   9.738   5.788 -1.0115  0.6493 -1.1384
   17MOL0     H 2283  10.994  10.265   5.456 -4.2981  2.1583 -0.0669
   17MOL0     H 2284  10.880  10.249   5.236  1.1649 -0.2990  0.2724
   17MOL0     H 2285  10.540  10.100   5.067  2.1058 -0.4038 -1.5100
   17MOL0     H 2286  10.575  10.194   5.214 -3.7521 -0.6944 -0.9948
   17MOL0     H 2287  10.728  10.221   4.952  1.7157 -0.9128  0.9602
   17MOL0     H 2288  10.760  10.322   5.085  1.7857 -0.8536 -1.4245
   17MOL0     H 2289  10.610  10.465   4.970 -1.8581  1.5506  2.2057
   17MOL0     H 2290  10.510  10.386   5.099  0.0810 -2.2908  1.1768
   17MOL0     H 2291  10.380  10.279   4.968  0.9458 -1.8832 -0.2839
   17MOL0     H 2292  10.493  10.252   4.838 -0.0999 -1.5242  0.7182
   17MOL0     H 2293  10.307  10.631   4.748  0.9604  1.8087  0.0245
   17MOL0     H 2294  10.683   9.902   5.370  1.4472 -0.5790 -3.5103
   17MOL0     H 2295  10.771   9.921   5.584 -2.4556 -0.8748 -0.9337
   18MOL0     O 2296   2.990  10.227   5.614 -0.1445  0.1133 -0.2576
   18MOL0     C 2297   2.927  10.120   5.622 -0.2710 -0.6229 -0.9146
   18MOL0     O 2298   2.795  10.111   5.651  0.1837  0.2579 -0.0877
   18MOL0     C 2299   2.734  10.222   5.694  0.6647  0.0432 -0.5478
   18MOL0     C 2300   2.601  10.256   5.648 -0.0449  0.4757 -0.3040
   18MOL0     C 2301   2.515  10.337   5.723  0.3802  1.1649  0.6157
   18MOL0     C 2302   2.559  10.390   5.843 -0.3745 -0.9115 -0.8334
   18MOL0     O 2303   2.474  10.462   5.927  0.0597  0.3755 -0.5110
   18MOL0     C 2304   2.378  10.550   5.866  0.6125  0.0177 -0.3636
   18MOL0     C 2305   2.414  10.700   5.887 -0.5383  0.5186  0.0750
   18MOL0     C 2306   2.564  10.737   5.847  0.4227 -0.3382 -0.9034
   18MOL0     C 2307   2.577  10.889   5.821  0.3573 -0.3261  0.1067
   18MOL0     C 2308   2.539  10.921   5.674 -0.3138 -0.4534  0.5425
   18MOL0     C 2309   2.615  11.051   5.628 -0.0008  0.3713 -0.2580
   18MOL0     C 2310   2.592  11.097   5.490 -0.1843 -0.6659  0.5879
   18MOL0     C 2311   2.463  11.175   5.480 -0.3838 -0.1240 -0.5058
   18MOL0     N 2312   2.448  11.232   5.351  0.0104 -0.2384  0.3980
   18MOL0     C 2313   2.452  11.371   5.321 -0.1890  0.6636 -0.4514
   18MOL0     C 2314   2.413  11.368   5.184 -0.3267  0.0893 -0.4074
   18MOL0     C 2315   2.402  11.487   5.107  0.3333 -0.6108 -0.5097
   18MOL0     C 2316   2.272  11.569   5.111 -0.0513  0.5239 -0.5852
   18MOL0     C 2317   2.157  11.492   5.044  0.3698  0.1298 -0.0440
   18MOL0     C 2318   2.017  11.551   5.076 -0.2338 -0.2517 -0.5659
   18MOL0     O 2319   2.014  11.690   5.067  0.9076 -0.0963 -0.2413
   18MOL0     C 2320   1.893  11.747   5.047 -0.4601 -0.3313  0.3710
   18MOL0     C 2321   1.766  11.683   5.072  0.5459  0.4406 -0.2578
   18MOL0     C 2322   1.646  11.755   5.063  0.7358  0.7203  1.0339
   18MOL0     C 2323   1.511  11.673   5.092 -0.3581 -0.7713 -0.2954
   18MOL0     C 2324   1.653  11.899   5.036 -0.4602  0.0659 -0.8118
   18MOL0     C 2325   1.536  11.988   5.040 -0.1109 -0.0310  0.6533
   18MOL0     O 2326   1.553  12.112   5.094 -0.4310 -0.3632  0.0301
   18MOL0     C 2327   1.442  12.179   5.141 -0.9856 -0.5979  0.9326
   18MOL0     C 2328   1.363  12.129   5.240 -1.0493 -0.0979  0.2146
   18MOL0     C 2329   1.247  12.194   5.285  0.4175 -0.9752 -0.1292
   18MOL0     C 2330   1.222  12.322   5.230 -0.5200  0.5132  0.0769
   18MOL0     O 2331   1.101  12.383   5.256 -0.1846  0.4073  0.3449
   18MOL0     C 2332   1.087  12.410   5.401 -0.0113 -0.7266  0.8659
   18MOL0     C 2333   1.010  12.546   5.428 -0.7362  0.0725  0.3058
   18MOL0     C 2334   1.084  12.663   5.361  0.1442  0.3705  0.1111
   18MOL0     C 2335   1.008  12.791   5.368  0.3551  0.5180  0.0605
   18MOL0     C 2336   1.068  12.891   5.271 -0.0449 -0.3084  0.3679
   18MOL0     C 2337   1.216  12.924   5.309 -0.3065  0.6973  0.1118
   18MOL0     C 2338   1.274  13.050   5.239 -1.4659  0.6155 -0.1489
   18MOL0     C 2339   1.428  13.053   5.229  0.4423  0.6297  0.8038
   18MOL0    Cl 2340   1.497  13.073   5.403 -0.2293 -0.2099 -0.4937
   18MOL0     C 2341   1.300  12.381   5.131 -0.6128 -0.8339 -0.2328
   18MOL0     C 2342   1.412  12.312   5.090 -0.3256  0.0121  0.3657
   18MOL0     O 2343   1.427  11.940   5.010  0.4980  0.1962 -0.9750
   18MOL0     C 2344   1.774  11.960   4.999  0.7535 -0.5758 -0.2513
   18MOL0     C 2345   1.892  11.884   5.019 -0.6908  0.2684  0.3941
   18MOL0     N 2346   2.385  11.237   5.143  0.0534  0.3197  0.4924
   18MOL0     N 2347   2.408  11.160   5.242  0.0147 -0.2316  0.2327
   18MOL0     C 2348   2.694  10.378   5.886  0.6527  0.4021  0.5090
   18MOL0     C 2349   2.777  10.290   5.811 -0.3805 -0.6564 -0.2359
   18MOL0     C 2350   2.991   9.996   5.584  0.6287  0.0739 -0.7045
   18MOL0     C 2351   2.924   9.871   5.591  0.3309  0.1321  0.1569
   18MOL0     C 2352   2.998   9.749   5.573  0.1235  0.2130 -0.0549
   18MOL0     C 2353   3.136   9.746   5.552  0.5511  0.4523  0.9321
   18MOL0     O 2354   3.194   9.620   5.568  0.5943  0.4193 -0.3770
   18MOL0     C 2355   3.324   9.615   5.623 -0.2937 -0.2564 -1.0882
   18MOL0     C 2356   3.388   9.477   5.644  0.5172  0.1702  0.1795
   18MOL0     C 2357   3.512   9.468   5.728 -0.0821  0.2593 -0.5662
   18MOL0     C 2358   3.496   9.402   5.863  1.0578  0.0717 -0.0282
   18MOL0     C 2359   3.481   9.500   5.969  0.2231  0.2224  0.9167
   18MOL0     C 2360   3.463   9.566   6.069 -1.4973  0.5382 -0.8087
   18MOL0     C 2361   3.198   9.869   5.535  0.3235 -0.1448 -0.1074
   18MOL0     C 2362   3.130   9.992   5.550  0.1137 -0.8758 -0.4201
   18MOL0     H 2363   2.585  10.198   5.557  1.9764  1.9888 -1.7181
   18MOL0     H 2364   2.413  10.349   5.687  0.5932 -1.0350 -0.9654
   18MOL0     H 2365   2.361  10.539   5.758 -0.3683  2.0310 -0.4540
   18MOL0     H 2366   2.281  10.520   5.907  1.3353  0.4715  1.7760
   18MOL0     H 2367   2.338  10.758   5.834  0.0181 -0.8075 -2.3763
   18MOL0     H 2368   2.405  10.713   5.995 -1.9663 -2.4269  0.4086
   18MOL0     H 2369   2.627  10.718   5.935 -2.4879 -0.6397  1.2941
   18MOL0     H 2370   2.594  10.680   5.758 -1.8721 -0.8697 -1.4046
   18MOL0     H 2371   2.507  10.934   5.892  1.1589 -4.5208  4.0299
   18MOL0     H 2372   2.680  10.924   5.830 -0.1285  1.2376 -0.1184
   18MOL0     H 2373   2.570  10.833   5.617 -0.9665 -1.0083  1.0381
   18MOL0     H 2374   2.431  10.940   5.668 -0.1899 -0.1782 -2.1715
   18MOL0     H 2375   2.584  11.130   5.697  3.2804 -0.1663  2.0556
   18MOL0     H 2376   2.722  11.037   5.644  0.2239  0.7585 -1.3261
   18MOL0     H 2377   2.673  11.165   5.463  1.0214 -1.0070  3.0821
   18MOL0     H 2378   2.591  11.016   5.416  0.1816  0.3520 -0.5551
   18MOL0     H 2379   2.465  11.245   5.564  3.4297 -0.0047 -0.5170
   18MOL0     H 2380   2.378  11.107   5.485  1.4735 -2.6881 -1.5468
   18MOL0     H 2381   2.479  11.451   5.388  2.5579 -0.1216 -0.4856
   18MOL0     H 2382   2.483  11.553   5.142 -1.5073  1.3461  0.2717
   18MOL0     H 2383   2.414  11.455   5.003 -0.5703  2.1426 -1.5397
   18MOL0     H 2384   2.286  11.668   5.066  0.6551  1.0343  0.7207
   18MOL0     H 2385   2.249  11.589   5.216  1.9959  1.4039 -0.2730
   18MOL0     H 2386   2.154  11.391   5.084  0.4924  0.8912  2.0071
   18MOL0     H 2387   2.170  11.488   4.935  2.6373  2.7450  0.0087
   18MOL0     H 2388   1.975  11.516   5.170 -0.9852 -0.9335 -1.1329
   18MOL0     H 2389   1.954  11.502   5.000 -1.6134  1.4459 -0.5837
   18MOL0     H 2390   1.753  11.586   5.118  0.9493  0.9484  0.9729
   18MOL0     H 2391   1.471  11.708   5.188  0.9086  1.0130 -0.3730
   18MOL0     H 2392   1.437  11.691   5.014  0.6778 -0.8115 -1.3086
   18MOL0     H 2393   1.536  11.566   5.094  1.0422 -0.4561 -0.0441
   18MOL0     H 2394   1.387  12.029   5.274  0.2250  1.4623  4.5774
   18MOL0     H 2395   1.185  12.153   5.364 -1.1294 -0.5849 -1.1119
   18MOL0     H 2396   1.022  12.330   5.437 -2.5373  0.7521 -0.1680
   18MOL0     H 2397   1.180  12.418   5.458  0.2943  1.0556  0.1670
   18MOL0     H 2398   0.907  12.530   5.397 -0.5688 -0.0915 -0.1821
   18MOL0     H 2399   1.015  12.566   5.535 -0.6023 -0.9295  0.4968
   18MOL0     H 2400   1.087  12.629   5.257  2.2785 -0.6851  0.4605
   18MOL0     H 2401   1.183  12.677   5.405  0.2712 -0.2856  0.0354
   18MOL0     H 2402   0.903  12.777   5.343  0.5902 -0.2497 -0.5489
   18MOL0     H 2403   1.013  12.823   5.473  1.1516 -2.5781  1.0845
   18MOL0     H 2404   1.005  12.980   5.263  0.8444  0.1418 -2.4617
   18MOL0     H 2405   1.061  12.852   5.169  1.0564  0.6772 -0.1012
   18MOL0     H 2406   1.234  12.927   5.417  2.6005 -0.8897 -0.2573
   18MOL0     H 2407   1.264  12.833   5.273  1.3606  0.8984  1.6948
   18MOL0     H 2408   1.229  13.145   5.268 -1.9057  0.0754  1.0014
   18MOL0     H 2409   1.234  13.031   5.139 -1.6005 -0.3347  0.0737
   18MOL0     H 2410   1.450  13.141   5.168 -1.5704  0.2274 -0.5969
   18MOL0     H 2411   1.455  12.962   5.175  1.7074  1.6903 -0.4200
   18MOL0     H 2412   1.277  12.467   5.070  0.6278 -0.6229 -0.4148
   18MOL0     H 2413   1.476  12.357   5.015 -0.0091 -0.1932  0.5091
   18MOL0     H 2414   1.781  12.064   4.967  1.0491 -0.3610  0.5040
   18MOL0     H 2415   1.988  11.932   5.003 -1.0563  0.1998 -2.3235
   18MOL0     H 2416   2.731  10.421   5.978  5.5264 -1.2100 -0.3826
   18MOL0     H 2417   2.874  10.282   5.858 -1.4222 -2.1088  1.8444
   18MOL0     H 2418   2.819   9.874   5.620 -0.2714  2.8027 -1.8568
   18MOL0     H 2419   2.951   9.658   5.608 -1.0457  0.9842  0.4341
   18MOL0     H 2420   3.388   9.682   5.566 -1.1636  0.1151 -1.6395
   18MOL0     H 2421   3.307   9.662   5.721  0.8668 -0.5631 -0.7165
   18MOL0     H 2422   3.404   9.445   5.540 -2.2250  0.3044 -0.3613
   18MOL0     H 2423   3.305   9.412   5.674 -1.4617  2.8184  0.8529
   18MOL0     H 2424   3.570   9.561   5.732 -3.9743  2.8925  0.9513
   18MOL0     H 2425   3.560   9.394   5.664  1.3150  1.4500 -0.9686
   18MOL0     H 2426   3.588   9.347   5.881  0.2026 -2.9493 -3.6992
   18MOL0     H 2427   3.410   9.335   5.872  0.1312  1.0709 -1.1290
   18MOL0     H 2428   3.451   9.633   6.152  2.5398  0.3884  0.1140
   18MOL0     H 2429   3.298   9.875   5.492 -0.7739  3.0437 -2.6250
   18MOL0     H 2430   3.171  10.091   5.532  0.9435 -0.8885  1.2054
   19MOL0     O 2431   8.484   6.716   1.919  0.3331 -0.3962  0.0439
   19MOL0     C 2432   8.564   6.640   1.862  0.3371  0.2346 -0.0150
   19MOL0     O 2433   8.561   6.589   1.737 -0.2554 -0.3496 -0.1368
   19MOL0     C 2434   8.448   6.607   1.660 -0.9541 -0.5885  0.3306
   19MOL0     C 2435   8.475   6.619   1.519 -0.1041 -0.2906  0.2206
   19MOL0     C 2436   8.367   6.628   1.423  0.2279 -0.0538 -0.8812
   19MOL0     C 2437   8.236   6.612   1.477  0.0006  0.0776 -0.3932
   19MOL0     O 2438   8.146   6.607   1.370 -0.6956 -0.5226 -0.6579
   19MOL0     C 2439   8.006   6.588   1.388 -0.5315  0.8926 -0.0580
   19MOL0     C 2440   7.937   6.601   1.247 -0.0162  0.0505 -0.7164
   19MOL0     C 2441   7.999   6.502   1.141 -0.1076 -0.2885  0.4804
   19MOL0     C 2442   7.889   6.413   1.067  0.1413 -0.4345  0.2055
   19MOL0     C 2443   7.823   6.312   1.162  0.5791 -0.1755 -0.0735
   19MOL0     C 2444   7.904   6.184   1.194 -1.0916  0.1416  0.1088
   19MOL0     C 2445   7.811   6.086   1.273 -0.6139  0.3022  0.9846
   19MOL0     C 2446   7.879   5.947   1.308  0.3731  1.0161  0.4098
   19MOL0     N 2447   7.776   5.845   1.305  0.5992  0.4569 -0.3054
   19MOL0     C 2448   7.716   5.800   1.185  0.3959 -0.1325  0.4803
   19MOL0     C 2449   7.605   5.727   1.231  0.3631  0.3106  0.5942
   19MOL0     C 2450   7.511   5.647   1.143 -0.9171  0.3350  0.2998
   19MOL0     C 2451   7.399   5.573   1.209 -0.5625 -0.2749  0.3402
   19MOL0     C 2452   7.297   5.663   1.278  0.0350 -0.3896  0.9827
   19MOL0     C 2453   7.193   5.587   1.362 -0.0109  1.2058  0.3499
   19MOL0     O 2454   7.143   5.664   1.471 -0.8261  0.7904 -0.4079
   19MOL0     C 2455   7.205   5.657   1.593 -0.0622  0.3580 -0.3660
   19MOL0     C 2456   7.312   5.575   1.643  0.1719 -0.0955  0.7328
   19MOL0     C 2457   7.340   5.570   1.783 -0.2911 -0.7267  0.1091
   19MOL0     C 2458   7.420   5.451   1.831  0.4351 -0.2809  0.3264
   19MOL0     C 2459   7.281   5.661   1.864 -0.9054 -0.8831  0.1095
   19MOL0     C 2460   7.309   5.681   2.015  0.4817  0.6738  0.1775
   19MOL0     O 2461   7.243   5.778   2.078 -0.4980  0.0688 -0.0958
   19MOL0     C 2462   7.272   5.781   2.210  0.1611 -0.8613 -0.5574
   19MOL0     C 2463   7.212   5.684   2.292 -0.2269 -0.2480  0.0980
   19MOL0     C 2464   7.235   5.691   2.436  0.7259 -1.0750  0.6816
   19MOL0     C 2465   7.335   5.765   2.494 -0.5544 -0.6425  0.7144
   19MOL0     O 2466   7.372   5.770   2.633 -0.4241  0.3170  0.7017
   19MOL0     C 2467   7.303   5.669   2.712  0.3223  0.4095  0.1659
   19MOL0     C 2468   7.379   5.667   2.841 -0.9570  0.0052 -0.7404
   19MOL0     C 2469   7.379   5.801   2.918  0.1889 -0.7104  0.3030
   19MOL0     C 2470   7.239   5.839   2.965  1.6444 -0.3488  0.1018
   19MOL0     C 2471   7.248   5.964   3.051  0.6048 -0.5389 -0.8327
   19MOL0     C 2472   7.117   6.029   3.098  0.4368 -0.3850 -0.0684
   19MOL0     C 2473   7.029   5.930   3.190  0.2952 -0.0411 -0.5022
   19MOL0     C 2474   6.886   5.976   3.195  0.6894 -0.4059 -0.3209
   19MOL0    Cl 2475   6.800   5.832   3.240 -0.3461  0.1112 -0.3010
   19MOL0     C 2476   7.401   5.859   2.402 -0.3754  0.7265 -0.1419
   19MOL0     C 2477   7.368   5.867   2.263 -0.4092 -0.1015 -0.6953
   19MOL0     O 2478   7.396   5.613   2.056 -0.0928  0.4156  0.7638
   19MOL0     C 2479   7.190   5.751   1.808 -0.7710 -0.0053 -0.5459
   19MOL0     C 2480   7.149   5.742   1.680  0.8106 -0.5813  0.5890
   19MOL0     N 2481   7.608   5.726   1.368 -0.4794  0.1197  0.5422
   19MOL0     N 2482   7.714   5.787   1.414 -0.5106  0.4742 -0.5258
   19MOL0     C 2483   8.214   6.586   1.614  0.7844 -1.4425  0.4972
   19MOL0     C 2484   8.317   6.578   1.707  0.0727  0.3860  0.8335
   19MOL0     C 2485   8.673   6.582   1.954  0.4019  0.3953 -0.2847
   19MOL0     C 2486   8.695   6.627   2.086  0.7753 -0.2814 -0.4848
   19MOL0     C 2487   8.799   6.568   2.158 -0.1023  0.0394 -0.5250
   19MOL0     C 2488   8.881   6.468   2.108 -0.2906  0.5895  1.0100
   19MOL0     O 2489   8.991   6.411   2.176  0.7837  0.1486 -0.2798
   19MOL0     C 2490   9.061   6.492   2.277  0.4439  0.5868  0.7167
   19MOL0     C 2491   9.150   6.604   2.223 -0.5664  0.2505 -0.1404
   19MOL0     C 2492   9.299   6.603   2.262 -0.5475 -0.2689 -0.2717
   19MOL0     C 2493   9.379   6.659   2.143  0.1878  0.2271  0.9143
   19MOL0     C 2494   9.520   6.696   2.165 -0.5271 -0.9204 -0.1935
   19MOL0     C 2495   9.635   6.726   2.195  0.3384  0.3538 -0.4832
   19MOL0     C 2496   8.854   6.426   1.978 -0.5238  0.1060  0.2645
   19MOL0     C 2497   8.750   6.483   1.900  1.9172 -0.1889 -0.1462
   19MOL0     H 2498   8.581   6.610   1.501 -0.4179 -1.8065 -1.1080
   19MOL0     H 2499   8.380   6.625   1.315  1.3774 -0.6946 -0.7334
   19MOL0     H 2500   7.979   6.490   1.428  0.6062  0.4351 -0.3925
   19MOL0     H 2501   7.961   6.657   1.461 -0.8049  0.2420  0.4011
   19MOL0     H 2502   7.832   6.583   1.274 -0.0648 -1.3801 -1.7396
   19MOL0     H 2503   7.954   6.706   1.223 -0.3175  0.5113  0.9467
   19MOL0     H 2504   8.054   6.566   1.072  0.0444  0.4411  1.2480
   19MOL0     H 2505   8.073   6.433   1.181 -0.1055 -0.3370  0.3907
   19MOL0     H 2506   7.817   6.484   1.026  1.5177 -0.4134 -2.3894
   19MOL0     H 2507   7.936   6.371   0.978 -2.7104  0.3208 -1.7852
   19MOL0     H 2508   7.787   6.354   1.256 -1.7122 -0.5282 -0.7193
   19MOL0     H 2509   7.726   6.285   1.119  0.0161 -1.7715  2.0328
   19MOL0     H 2510   7.945   6.142   1.102 -2.9633 -0.8585 -0.3047
   19MOL0     H 2511   7.981   6.207   1.268 -3.0482  4.2165  1.1788
   19MOL0     H 2512   7.765   6.133   1.361 -2.5257  0.4163 -0.0069
   19MOL0     H 2513   7.734   6.053   1.203  0.4701 -0.8728  0.3012
   19MOL0     H 2514   7.932   5.949   1.404  1.7218  0.0917 -0.2833
   19MOL0     H 2515   7.956   5.910   1.240  1.3689  1.0647  1.4578
   19MOL0     H 2516   7.746   5.833   1.086  1.0049  1.6929  1.2392
   19MOL0     H 2517   7.470   5.715   1.067 -1.2553 -2.8070 -2.6101
   19MOL0     H 2518   7.574   5.574   1.090 -2.7524 -2.1356  1.3159
   19MOL0     H 2519   7.447   5.510   1.284 -0.6718  0.3056  0.8978
   19MOL0     H 2520   7.356   5.499   1.141  2.8516 -0.3550 -2.0205
   19MOL0     H 2521   7.241   5.721   1.204  2.2058  0.1231 -0.3538
   19MOL0     H 2522   7.349   5.737   1.339 -0.8296  0.0556  1.1827
   19MOL0     H 2523   7.234   5.491   1.396 -0.7709 -0.8983 -4.0469
   19MOL0     H 2524   7.103   5.555   1.309  1.0303 -0.9343 -0.2114
   19MOL0     H 2525   7.350   5.495   1.580 -0.5779 -0.7568  1.1041
   19MOL0     H 2526   7.527   5.466   1.850  0.2839  0.5244  0.5712
   19MOL0     H 2527   7.363   5.416   1.917  1.5232  0.3236  1.3273
   19MOL0     H 2528   7.414   5.371   1.756 -1.7182  3.3856 -3.9065
   19MOL0     H 2529   7.146   5.608   2.252  2.2331 -1.9945 -0.9525
   19MOL0     H 2530   7.179   5.619   2.493  2.4638 -1.9473  1.3580
   19MOL0     H 2531   7.200   5.704   2.723 -0.0083 -1.4304  4.7753
   19MOL0     H 2532   7.306   5.571   2.663 -0.0140  0.2081  0.5490
   19MOL0     H 2533   7.351   5.586   2.910  0.8394 -1.2271 -1.3725
   19MOL0     H 2534   7.484   5.648   2.817 -0.8444  1.2972 -1.3301
   19MOL0     H 2535   7.415   5.881   2.853 -1.7065 -1.1652 -1.4205
   19MOL0     H 2536   7.446   5.812   3.003 -2.2879  3.4463  2.0676
   19MOL0     H 2537   7.168   5.851   2.883  0.8305 -0.8604  0.7113
   19MOL0     H 2538   7.218   5.755   3.032  0.9528  0.1179  0.4769
   19MOL0     H 2539   7.300   6.035   2.986 -0.6866  1.1176 -0.1504
   19MOL0     H 2540   7.310   5.954   3.141  1.0118  1.0942 -0.9041
   19MOL0     H 2541   7.136   6.122   3.153 -0.7126  0.4626 -1.0756
   19MOL0     H 2542   7.063   6.053   3.006 -1.3607 -1.4303  0.6686
   19MOL0     H 2543   7.081   5.906   3.283  0.0791  1.4781  0.0445
   19MOL0     H 2544   7.032   5.826   3.158  2.6825 -1.2855  3.1369
   19MOL0     H 2545   6.850   6.007   3.096 -0.1973  1.9838  0.6908
   19MOL0     H 2546   6.862   6.051   3.270 -1.3726 -0.0879 -1.2433
   19MOL0     H 2547   7.469   5.935   2.440 -1.5631  1.7612 -0.0207
   19MOL0     H 2548   7.427   5.925   2.193  2.6986 -1.9058  0.2322
   19MOL0     H 2549   7.135   5.817   1.875  0.7353 -1.3434  2.1695
   19MOL0     H 2550   7.065   5.805   1.653 -0.2639 -1.0610  2.6329
   19MOL0     H 2551   8.110   6.573   1.641  0.7390  1.2230  2.0303
   19MOL0     H 2552   8.300   6.547   1.809  0.6689 -0.5337  0.6652
   19MOL0     H 2553   8.625   6.701   2.122  0.6020 -0.3881 -0.6021
   19MOL0     H 2554   8.817   6.611   2.256 -2.8064  2.0710 -0.8069
   19MOL0     H 2555   9.000   6.519   2.364 -0.9180  0.9413 -0.3135
   19MOL0     H 2556   9.134   6.420   2.316  3.1671  2.1131 -1.1556
   19MOL0     H 2557   9.118   6.695   2.274  0.5420 -1.3557  3.7876
   19MOL0     H 2558   9.140   6.623   2.116 -0.8052  1.5909  0.0957
   19MOL0     H 2559   9.330   6.502   2.289 -0.4001 -0.7167 -1.9872
   19MOL0     H 2560   9.307   6.672   2.347 -2.3394 -0.8127  0.3975
   19MOL0     H 2561   9.321   6.743   2.102  0.8305 -0.2605 -1.1285
   19MOL0     H 2562   9.384   6.579   2.068  1.7083 -1.9751  3.2211
   19MOL0     H 2563   9.733   6.750   2.232  1.4285 -2.7065 -1.0766
   19MOL0     H 2564   8.913   6.344   1.937 -0.5831  0.9052 -1.4682
   19MOL0     H 2565   8.741   6.450   1.797 -0.4994 -0.5332  0.1224
   20MOL0     O 2566   1.278   6.730   8.212 -0.4179  0.5983 -0.0735
   20MOL0     C 2567   1.346   6.646   8.153  0.0005  0.8397 -0.5818
   20MOL0     O 2568   1.292   6.519   8.121  0.2038 -0.2585 -0.1294
   20MOL0     C 2569   1.158   6.495   8.129  0.4937 -0.0522 -0.6520
   20MOL0     C 2570   1.090   6.518   8.246  0.4135  0.8224 -0.2778
   20MOL0     C 2571   0.958   6.474   8.256 -0.2065 -0.4712  0.0467
   20MOL0     C 2572   0.892   6.391   8.166  0.1458 -1.0284  0.1340
   20MOL0     O 2573   0.757   6.356   8.167 -0.7538  0.2559 -0.3205
   20MOL0     C 2574   0.699   6.344   8.299  0.0689 -0.3414 -0.7887
   20MOL0     C 2575   0.580   6.259   8.287  0.3369 -0.4852 -0.0580
   20MOL0     C 2576   0.455   6.344   8.273  1.2336 -0.1635  0.1153
   20MOL0     C 2577   0.332   6.267   8.220 -0.8808 -0.6999 -0.0011
   20MOL0     C 2578   0.206   6.353   8.210  0.2206 -0.1503  0.8535
   20MOL0     C 2579   0.156   6.427   8.338 -0.5553 -0.0087  0.7314
   20MOL0     C 2580   0.014   6.448   8.331 -0.1308 -0.4049  0.0158
   20MOL0     C 2581  -0.071   6.317   8.337 -0.8594 -0.0495 -0.3651
   20MOL0     N 2582  -0.208   6.356   8.374  0.4010 -1.0934  0.1612
   20MOL0     C 2583  -0.293   6.416   8.289 -0.3697 -0.3505 -0.2169
   20MOL0     C 2584  -0.393   6.466   8.366 -1.3559 -0.3089 -1.2980
   20MOL0     C 2585  -0.503   6.554   8.340 -1.1635  0.0360 -0.3332
   20MOL0     C 2586  -0.617   6.471   8.295  0.1906 -0.3653  0.4690
   20MOL0     C 2587  -0.666   6.358   8.391 -0.7804  0.2914 -0.2507
   20MOL0     C 2588  -0.698   6.418   8.535 -0.3250 -0.6285 -0.9676
   20MOL0     O 2589  -0.781   6.534   8.517  0.1141  0.5705 -0.5144
   20MOL0     C 2590  -0.768   6.653   8.590  0.2531 -0.1561 -0.0697
   20MOL0     C 2591  -0.656   6.710   8.641 -0.1799 -0.5208  0.1173
   20MOL0     C 2592  -0.650   6.816   8.726 -0.4473 -0.1331 -0.1128
   20MOL0     C 2593  -0.511   6.846   8.798 -0.3189  0.1231  0.0116
   20MOL0     C 2594  -0.767   6.904   8.737 -0.5376  1.4176  0.0983
   20MOL0     C 2595  -0.784   7.024   8.814 -0.9138 -0.1184 -0.7650
   20MOL0     O 2596  -0.876   7.113   8.778  0.3337 -0.3084  0.3174
   20MOL0     C 2597  -0.943   7.197   8.872 -0.1742  1.1988  0.0580
   20MOL0     C 2598  -0.879   7.261   8.982 -0.0539  0.3307  0.1099
   20MOL0     C 2599  -0.951   7.348   9.065 -0.0740 -0.3647  0.7881
   20MOL0     C 2600  -1.085   7.376   9.051  0.6217 -0.1666  0.5926
   20MOL0     O 2601  -1.150   7.460   9.143 -0.3415 -0.2478 -0.9119
   20MOL0     C 2602  -1.287   7.448   9.143  0.5207  0.1027  0.3353
   20MOL0     C 2603  -1.348   7.513   9.269  0.2891 -0.3153 -0.1873
   20MOL0     C 2604  -1.376   7.668   9.254 -0.5240  0.6131  0.1157
   20MOL0     C 2605  -1.402   7.733   9.398  0.4008  0.8866 -0.9703
   20MOL0     C 2606  -1.476   7.860   9.389  0.3704  0.2562  0.4326
   20MOL0     C 2607  -1.524   7.897   9.526  0.0934 -0.2381 -0.0842
   20MOL0     C 2608  -1.671   7.853   9.552 -1.0727  0.6868 -0.1216
   20MOL0     C 2609  -1.702   7.874   9.702  0.1908 -0.2913 -0.3980
   20MOL0    Cl 2610  -1.645   8.021   9.779  0.0288  0.2528 -0.1155
   20MOL0     C 2611  -1.148   7.315   8.938  0.2253 -0.4525  0.2261
   20MOL0     C 2612  -1.079   7.228   8.852  0.1123 -0.4798  0.1380
   20MOL0     O 2613  -0.711   7.031   8.911  0.1579 -0.0360  0.1190
   20MOL0     C 2614  -0.877   6.860   8.659  0.2458 -0.9705 -1.2080
   20MOL0     C 2615  -0.879   6.741   8.591  0.0762 -0.5297  0.3552
   20MOL0     N 2616  -0.371   6.420   8.495 -0.1310 -0.9978  0.3375
   20MOL0     N 2617  -0.260   6.354   8.495  0.0740  0.6365 -0.0480
   20MOL0     C 2618   0.973   6.357   8.055 -0.3379 -0.5121  1.2427
   20MOL0     C 2619   1.092   6.413   8.033 -1.7186 -0.2407 -0.9149
   20MOL0     C 2620   1.495   6.669   8.127 -0.1565  0.3019 -0.7820
   20MOL0     C 2621   1.574   6.572   8.061 -0.4523 -0.3856  0.2081
   20MOL0     C 2622   1.712   6.597   8.037 -0.3549  0.4793 -0.3299
   20MOL0     C 2623   1.773   6.713   8.075 -0.0580 -0.3752 -0.1588
   20MOL0     O 2624   1.907   6.740   8.060  0.1983 -0.0626  0.9712
   20MOL0     C 2625   1.989   6.625   8.038  0.5149 -0.4591 -0.2734
   20MOL0     C 2626   2.119   6.648   8.103 -0.0747  0.3453 -0.3745
   20MOL0     C 2627   2.236   6.551   8.071 -0.1333  0.3610  0.0614
   20MOL0     C 2628   2.325   6.600   7.958  0.2275 -0.1882  0.0092
   20MOL0     C 2629   2.460   6.536   7.953  0.6815 -0.3871  0.3863
   20MOL0     C 2630   2.564   6.479   7.975 -0.0895  1.5537  0.0963
   20MOL0     C 2631   1.703   6.814   8.147  1.4885 -0.2970  0.0823
   20MOL0     C 2632   1.564   6.784   8.174  0.0519 -0.7788  1.2510
   20MOL0     H 2633   1.146   6.572   8.322 -1.5232  0.5194  1.4590
   20MOL0     H 2634   0.901   6.508   8.342  0.8086 -1.4607  1.1414
   20MOL0     H 2635   0.769   6.288   8.362 -0.3803 -0.3401 -0.2812
   20MOL0     H 2636   0.679   6.436   8.355  4.0380  1.4441 -1.9213
   20MOL0     H 2637   0.594   6.180   8.213  0.8685 -0.9310  0.5115
   20MOL0     H 2638   0.571   6.196   8.376 -0.2373 -1.0717 -0.5256
   20MOL0     H 2639   0.432   6.380   8.374 -0.1188  0.8070 -0.5001
   20MOL0     H 2640   0.470   6.421   8.197 -1.1682 -0.5594 -0.8646
   20MOL0     H 2641   0.370   6.233   8.123 -1.4308  1.4927 -1.0541
   20MOL0     H 2642   0.334   6.183   8.290  0.8100  0.9404  2.0699
   20MOL0     H 2643   0.229   6.436   8.144 -1.5861 -0.3243 -0.0721
   20MOL0     H 2644   0.127   6.300   8.156 -3.7278  5.6141  0.0097
   20MOL0     H 2645   0.192   6.379   8.429  0.6497  0.1620  0.3639
   20MOL0     H 2646   0.199   6.527   8.330 -0.8565  0.0295 -0.8858
   20MOL0     H 2647  -0.015   6.514   8.413 -0.1815 -0.6974  0.2326
   20MOL0     H 2648  -0.012   6.505   8.241 -0.3093 -1.6625 -0.7654
   20MOL0     H 2649  -0.038   6.251   8.418  1.6127  1.9031  0.3425
   20MOL0     H 2650  -0.068   6.257   8.246 -2.9987 -0.9403  0.0963
   20MOL0     H 2651  -0.278   6.441   8.184 -0.2381 -1.0271 -0.3615
   20MOL0     H 2652  -0.539   6.610   8.427 -3.4970 -3.0854  0.8818
   20MOL0     H 2653  -0.477   6.620   8.256  0.7218 -1.4544 -0.9953
   20MOL0     H 2654  -0.575   6.421   8.207 -0.5953 -1.5851  0.7648
   20MOL0     H 2655  -0.704   6.534   8.277  1.4807  1.0806 -1.0615
   20MOL0     H 2656  -0.593   6.278   8.402 -1.3402 -0.1560  0.2737
   20MOL0     H 2657  -0.758   6.312   8.351 -0.1670 -0.9393 -0.2955
   20MOL0     H 2658  -0.607   6.447   8.588  0.5298 -2.9616 -1.0371
   20MOL0     H 2659  -0.745   6.341   8.598  1.3135 -0.0807  1.0210
   20MOL0     H 2660  -0.565   6.652   8.631  0.4977  0.7897 -1.8591
   20MOL0     H 2661  -0.433   6.783   8.753 -0.8987 -0.9175  0.4271
   20MOL0     H 2662  -0.468   6.946   8.790  1.8656 -0.7644 -0.0882
   20MOL0     H 2663  -0.517   6.815   8.903  0.9926 -0.3648 -0.0336
   20MOL0     H 2664  -0.774   7.270   9.009  0.0793  1.8945 -0.7940
   20MOL0     H 2665  -0.899   7.393   9.149 -1.6943  4.0214 -0.2829
   20MOL0     H 2666  -1.323   7.495   9.051  1.9899  1.3945  0.3690
   20MOL0     H 2667  -1.330   7.348   9.143  0.4108  0.1217  2.4902
   20MOL0     H 2668  -1.447   7.471   9.286 -0.1617  0.7127 -0.1683
   20MOL0     H 2669  -1.282   7.507   9.356  1.9092 -1.1171 -1.4288
   20MOL0     H 2670  -1.468   7.679   9.195 -0.4184 -0.4234 -0.2761
   20MOL0     H 2671  -1.297   7.721   9.201 -0.6006 -0.6068 -1.3194
   20MOL0     H 2672  -1.460   7.656   9.450  0.0522 -0.5090 -3.2877
   20MOL0     H 2673  -1.303   7.742   9.444  0.1215  1.1144 -0.4059
   20MOL0     H 2674  -1.563   7.849   9.323  0.6181 -2.7119  0.4840
   20MOL0     H 2675  -1.400   7.926   9.347  0.2629 -0.0797 -0.3058
   20MOL0     H 2676  -1.471   7.841   9.604 -0.0577 -1.0881 -0.5820
   20MOL0     H 2677  -1.513   8.001   9.558 -0.2611 -0.7487  1.8683
   20MOL0     H 2678  -1.688   7.749   9.522 -0.4149  0.5155  0.0780
   20MOL0     H 2679  -1.742   7.909   9.489 -0.5610  0.6450 -0.7508
   20MOL0     H 2680  -1.661   7.791   9.760 -0.5011  0.3132  1.0064
   20MOL0     H 2681  -1.810   7.884   9.715  0.4633 -0.5871  3.1084
   20MOL0     H 2682  -1.252   7.334   8.910 -0.4848 -1.7810  1.7997
   20MOL0     H 2683  -1.135   7.199   8.764  1.5347  2.1139 -1.7788
   20MOL0     H 2684  -0.971   6.914   8.666 -0.9431 -3.1335  2.7903
   20MOL0     H 2685  -0.976   6.723   8.544  0.5930  0.3725 -1.1120
   20MOL0     H 2686   0.932   6.282   7.989  1.7923  0.2165 -1.0650
   20MOL0     H 2687   1.159   6.388   7.951  1.3051  0.2024  1.2531
   20MOL0     H 2688   1.526   6.480   8.031 -2.3177  1.5863 -3.6091
   20MOL0     H 2689   1.764   6.516   7.987  0.5789  0.1005  1.2071
   20MOL0     H 2690   1.947   6.534   8.082 -0.3469  0.3664  0.6656
   20MOL0     H 2691   2.008   6.608   7.932  2.0347 -1.3282  0.1016
   20MOL0     H 2692   2.100   6.633   8.210  1.0572 -0.7178 -0.2948
   20MOL0     H 2693   2.158   6.745   8.072 -0.6083 -0.3714 -3.5905
   20MOL0     H 2694   2.214   6.449   8.036  2.3890 -1.0961  2.3412
   20MOL0     H 2695   2.297   6.545   8.161 -2.0244  2.5420  1.6106
   20MOL0     H 2696   2.346   6.708   7.965 -2.2905  0.3178  0.4490
   20MOL0     H 2697   2.279   6.578   7.861  1.1777  1.5311 -0.8963
   20MOL0     H 2698   2.649   6.434   8.021  0.7311  0.1832 -2.5362
   20MOL0     H 2699   1.754   6.899   8.190  3.2485 -2.0774  1.7086
   20MOL0     H 2700   1.522   6.867   8.230  1.0753  1.1042 -0.6096
   21MOL0     O 2701   4.260   2.067   6.485  0.7237 -0.3849 -0.1136
   21MOL0     C 2702   4.176   1.997   6.546  0.3974 -0.2987 -0.8600
   21MOL0     O 2703   4.050   1.964   6.500  0.0866 -0.2065 -0.2676
   21MOL0     C 2704   3.973   2.033   6.411 -0.3928 -0.5442 -0.2711
   21MOL0     C 2705   3.869   1.970   6.351  0.4340 -0.7113  0.8268
   21MOL0     C 2706   3.788   2.028   6.251  0.7126 -1.4299  0.3443
   21MOL0     C 2707   3.814   2.161   6.220  0.5817 -0.4574  0.2433
   21MOL0     O 2708   3.716   2.223   6.140  0.2377 -0.4386  0.1548
   21MOL0     C 2709   3.712   2.366   6.139 -0.8229  0.4218 -0.8229
   21MOL0     C 2710   3.594   2.435   6.096  0.7151 -0.3549  0.5495
   21MOL0     C 2711   3.468   2.407   6.185 -1.1062 -0.9883  0.1016
   21MOL0     C 2712   3.345   2.474   6.145  0.1217  0.4171  1.0113
   21MOL0     C 2713   3.247   2.501   6.257 -1.0248 -0.3619  0.5921
   21MOL0     C 2714   3.125   2.581   6.215 -0.3745  0.3276  1.1274
   21MOL0     C 2715   3.018   2.564   6.320  0.6600  0.5591 -0.2948
   21MOL0     C 2716   2.881   2.589   6.263  0.1245  0.7528 -0.9895
   21MOL0     N 2717   2.775   2.568   6.361  0.2630  0.1587 -0.8059
   21MOL0     C 2718   2.700   2.666   6.435  0.0218  0.8221  0.5411
   21MOL0     C 2719   2.621   2.584   6.523 -0.7352  0.3294  1.0101
   21MOL0     C 2720   2.525   2.636   6.622 -0.4098 -0.7133  0.2744
   21MOL0     C 2721   2.382   2.644   6.553 -0.0855  0.1930 -0.1481
   21MOL0     C 2722   2.313   2.510   6.542  0.3864 -0.0896 -0.9087
   21MOL0     C 2723   2.164   2.523   6.510  1.3660  0.1038  0.1186
   21MOL0     O 2724   2.122   2.389   6.483  0.1763 -0.2700  0.7492
   21MOL0     C 2725   1.987   2.353   6.506  0.0408 -0.5217 -0.5018
   21MOL0     C 2726   1.875   2.437   6.525 -0.4426  0.2608  0.1660
   21MOL0     C 2727   1.744   2.380   6.531 -0.4513 -0.5975 -0.1232
   21MOL0     C 2728   1.623   2.484   6.534 -0.2307 -0.7085  0.2580
   21MOL0     C 2729   1.728   2.234   6.531  0.0246  0.3481  0.2694
   21MOL0     C 2730   1.592   2.156   6.557 -0.6185  0.0873 -1.1486
   21MOL0     O 2731   1.482   2.231   6.545 -0.0187 -0.3305 -0.6019
   21MOL0     C 2732   1.376   2.166   6.591  0.8026 -0.4361 -0.6772
   21MOL0     C 2733   1.310   2.058   6.529 -0.8962  0.9519  0.0660
   21MOL0     C 2734   1.181   2.012   6.572  0.0215 -0.5975 -0.5137
   21MOL0     C 2735   1.139   2.068   6.693  0.5619 -0.6621 -0.6272
   21MOL0     O 2736   1.012   2.035   6.737  0.6059 -0.5068 -0.2058
   21MOL0     C 2737   0.991   2.012   6.881 -0.2969  0.2214 -0.0618
   21MOL0     C 2738   0.867   1.928   6.888 -0.4770 -0.5684 -0.4046
   21MOL0     C 2739   0.884   1.792   6.817  0.3464  0.2512  0.0975
   21MOL0     C 2740   0.919   1.686   6.920  0.1842 -1.4612  0.7649
   21MOL0     C 2741   0.969   1.558   6.855  0.5509  0.3591  0.2494
   21MOL0     C 2742   0.869   1.490   6.767 -0.2095  0.5470 -0.5470
   21MOL0     C 2743   0.948   1.366   6.709  0.1465  1.3126  0.0729
   21MOL0     C 2744   0.877   1.294   6.586  0.3256 -0.2795  0.2637
   21MOL0    Cl 2745   0.737   1.197   6.635  0.3156 -0.2543 -0.2021
   21MOL0     C 2746   1.208   2.170   6.765  0.6658  0.8893  0.2286
   21MOL0     C 2747   1.322   2.222   6.706 -0.0234  0.1506  0.2062
   21MOL0     O 2748   1.593   2.038   6.599 -0.0893 -0.2888 -0.3045
   21MOL0     C 2749   1.839   2.159   6.501 -0.0269  0.7811  0.1121
   21MOL0     C 2750   1.965   2.217   6.485  0.4459 -0.2019 -0.3146
   21MOL0     N 2751   2.652   2.456   6.490  0.0684  0.5050 -0.1112
   21MOL0     N 2752   2.731   2.445   6.389  0.0979 -0.1946  0.3909
   21MOL0     C 2753   3.930   2.218   6.269  0.5851 -0.3064 -1.6209
   21MOL0     C 2754   4.011   2.156   6.369  0.1777  0.0213  0.3057
   21MOL0     C 2755   4.218   1.926   6.673  0.5494  0.0868 -0.2433
   21MOL0     C 2756   4.129   1.829   6.737  0.2420  0.0229  0.1981
   21MOL0     C 2757   4.167   1.777   6.857  0.1345  0.4854 -0.0380
   21MOL0     C 2758   4.288   1.804   6.917 -0.2419  1.2762  0.3544
   21MOL0     O 2759   4.325   1.735   7.030 -0.0337  1.2153  0.6214
   21MOL0     C 2760   4.230   1.656   7.095  0.1717  0.1122 -0.7069
   21MOL0     C 2761   4.277   1.641   7.233 -0.5417 -0.0862 -0.1341
   21MOL0     C 2762   4.360   1.516   7.250  0.4262  0.3484  0.5506
   21MOL0     C 2763   4.380   1.481   7.392  0.0097 -0.8758 -0.5337
   21MOL0     C 2764   4.477   1.563   7.471 -0.4010 -0.0702  0.8396
   21MOL0     C 2765   4.559   1.639   7.527 -0.2659  0.1295  1.1152
   21MOL0     C 2766   4.376   1.886   6.851  0.0823 -0.7673  0.5274
   21MOL0     C 2767   4.343   1.948   6.727  0.2718  0.2473 -0.6182
   21MOL0     H 2768   3.841   1.871   6.385 -4.2733 -0.3228 -1.0801
   21MOL0     H 2769   3.713   1.976   6.193  1.7803 -2.9142  0.2389
   21MOL0     H 2770   3.724   2.402   6.242 -0.9019  0.4073 -0.8089
   21MOL0     H 2771   3.807   2.385   6.088  2.2488 -4.3267  2.3102
   21MOL0     H 2772   3.634   2.537   6.097  0.6483 -0.3049  2.5693
   21MOL0     H 2773   3.576   2.417   5.989 -0.1075 -2.4437  0.9812
   21MOL0     H 2774   3.457   2.299   6.193  1.5703 -1.4327 -1.4086
   21MOL0     H 2775   3.496   2.432   6.288  2.0801 -2.7073 -0.2207
   21MOL0     H 2776   3.380   2.570   6.106  0.1350 -0.0424 -0.1339
   21MOL0     H 2777   3.304   2.411   6.066  3.4176  0.7854 -1.1841
   21MOL0     H 2778   3.231   2.407   6.310  0.0841  0.5513  2.6613
   21MOL0     H 2779   3.299   2.569   6.325  1.9172 -1.3988 -0.4784
   21MOL0     H 2780   3.170   2.680   6.212  3.3342 -1.2016 -0.5150
   21MOL0     H 2781   3.085   2.557   6.116  1.6737 -2.1664  0.7829
   21MOL0     H 2782   3.017   2.464   6.363 -2.1013  1.0045  0.8525
   21MOL0     H 2783   3.041   2.635   6.400  2.8005 -0.6769  0.2859
   21MOL0     H 2784   2.851   2.522   6.182 -2.3448 -2.6821  2.3920
   21MOL0     H 2785   2.873   2.693   6.231  1.2479  2.0783  2.6071
   21MOL0     H 2786   2.694   2.774   6.426 -3.6147  0.8924  2.1806
   21MOL0     H 2787   2.527   2.585   6.719  2.0711  1.0841  1.2716
   21MOL0     H 2788   2.553   2.737   6.651  0.4199 -0.9312  0.2815
   21MOL0     H 2789   2.384   2.685   6.451 -3.1600 -0.2121 -0.4611
   21MOL0     H 2790   2.317   2.715   6.605 -1.4065  0.6748 -2.3251
   21MOL0     H 2791   2.309   2.460   6.639 -2.4518  3.3642  1.0003
   21MOL0     H 2792   2.358   2.443   6.468 -1.7401 -1.1417 -1.3257
   21MOL0     H 2793   2.139   2.575   6.417 -0.2922  0.1938  0.5927
   21MOL0     H 2794   2.118   2.575   6.594  2.3938  0.8442  0.2405
   21MOL0     H 2795   1.899   2.538   6.557 -1.3616  1.0999 -1.6090
   21MOL0     H 2796   1.665   2.581   6.506  2.2535 -1.8867 -0.4438
   21MOL0     H 2797   1.543   2.465   6.461 -4.0518  2.0578  3.3264
   21MOL0     H 2798   1.573   2.484   6.631 -2.1691  2.1147 -0.5958
   21MOL0     H 2799   1.338   2.014   6.434 -4.0279 -2.0925  0.3649
   21MOL0     H 2800   1.127   1.932   6.524  0.6056 -1.7550  0.7159
   21MOL0     H 2801   1.071   1.954   6.927 -2.0492 -1.1493  1.3906
   21MOL0     H 2802   0.988   2.106   6.936  1.9640  1.4407 -1.8307
   21MOL0     H 2803   0.837   1.937   6.993  0.8134  0.6165 -0.0970
   21MOL0     H 2804   0.786   1.976   6.833  0.9306 -1.0296 -3.0405
   21MOL0     H 2805   0.960   1.817   6.742  0.4757 -0.4287  0.0005
   21MOL0     H 2806   0.795   1.748   6.771  0.9721 -1.1614  0.2032
   21MOL0     H 2807   0.998   1.711   6.990  0.3563  2.5476 -0.5959
   21MOL0     H 2808   0.824   1.672   6.973 -0.1744 -0.7816  0.3208
   21MOL0     H 2809   0.988   1.497   6.944 -0.8743 -0.8213 -0.2068
   21MOL0     H 2810   1.058   1.578   6.793 -0.3526  0.4914 -1.0497
   21MOL0     H 2811   0.777   1.463   6.821  0.3831 -1.0174 -0.2802
   21MOL0     H 2812   0.844   1.553   6.680  4.6580  0.8943 -1.9815
   21MOL0     H 2813   0.977   1.291   6.783  3.4522  1.2266 -1.1081
   21MOL0     H 2814   1.046   1.398   6.672  0.6075 -0.7291 -0.6190
   21MOL0     H 2815   0.956   1.228   6.547  1.9087  0.9275  1.2812
   21MOL0     H 2816   0.861   1.370   6.510  3.5712 -0.8181 -1.1136
   21MOL0     H 2817   1.159   2.202   6.857 -1.8423 -0.9448 -0.3459
   21MOL0     H 2818   1.378   2.306   6.747  0.4810 -1.2301  2.4876
   21MOL0     H 2819   1.834   2.051   6.502  3.7987  0.4738  1.9128
   21MOL0     H 2820   2.059   2.165   6.466  0.6641  1.2611 -4.0237
   21MOL0     H 2821   3.961   2.314   6.230 -1.6726  0.6988 -1.1463
   21MOL0     H 2822   4.086   2.217   6.419 -0.0149  0.3973  0.1405
   21MOL0     H 2823   4.030   1.815   6.695  0.3232 -0.4083  0.1490
   21MOL0     H 2824   4.101   1.696   6.888  0.9274  0.2934  1.2468
   21MOL0     H 2825   4.129   1.698   7.099  0.1653  0.1315 -1.0188
   21MOL0     H 2826   4.221   1.558   7.048 -1.9232 -0.8020  1.3883
   21MOL0     H 2827   4.183   1.641   7.288 -1.7578  0.7381 -2.0944
   21MOL0     H 2828   4.336   1.728   7.261 -1.0801  0.9353 -2.0173
   21MOL0     H 2829   4.458   1.537   7.205  1.9980 -1.5714  2.8625
   21MOL0     H 2830   4.308   1.437   7.195 -0.2763  0.2330  1.3665
   21MOL0     H 2831   4.424   1.381   7.393 -4.9778 -3.3987  1.8032
   21MOL0     H 2832   4.287   1.466   7.448 -0.6490  1.7296 -0.8009
   21MOL0     H 2833   4.623   1.695   7.592 -0.1214  0.4077  0.7330
   21MOL0     H 2834   4.473   1.910   6.894 -0.0393 -0.3701  0.5790
   21MOL0     H 2835   4.420   2.002   6.673  0.5615 -1.5172 -2.0553
   22MOL0     O 2836   7.751   7.058   4.561  0.4690 -0.5474  0.6057
   22MOL0     C 2837   7.629   7.052   4.538  0.1676 -0.7260 -0.3786
   22MOL0     O 2838   7.546   6.939   4.535 -0.0925 -0.0962 -0.2250
   22MOL0     C 2839   7.603   6.819   4.546  0.2490  0.8309  0.0603
   22MOL0     C 2840   7.686   6.762   4.457 -0.0283 -0.4107  0.3401
   22MOL0     C 2841   7.744   6.639   4.475  0.6558 -0.2269  0.2188
   22MOL0     C 2842   7.713   6.567   4.590  0.4240  0.4362 -0.1914
   22MOL0     O 2843   7.757   6.441   4.623 -0.0058  0.0925 -0.3575
   22MOL0     C 2844   7.897   6.435   4.620  0.0106 -0.1675  0.2244
   22MOL0     C 2845   7.960   6.314   4.548  0.1537 -0.5524  0.2919
   22MOL0     C 2846   8.021   6.363   4.421 -0.8689  0.4888  0.5300
   22MOL0     C 2847   8.107   6.260   4.349  0.0756 -0.3468 -0.0691
   22MOL0     C 2848   8.038   6.189   4.231 -0.7027 -0.1637  0.5120
   22MOL0     C 2849   7.992   6.052   4.284  0.8096 -0.2625 -0.7093
   22MOL0     C 2850   7.883   5.986   4.206 -0.1218 -0.2054 -0.0784
   22MOL0     C 2851   7.911   5.829   4.204 -0.6012 -0.2496  0.2176
   22MOL0     N 2852   8.035   5.808   4.130  0.5197  0.7287  1.5270
   22MOL0     C 2853   8.067   5.861   4.008 -0.0012  0.2419  0.3331
   22MOL0     C 2854   8.189   5.813   3.972 -0.6112 -0.4219 -0.6995
   22MOL0     C 2855   8.270   5.848   3.846  0.6684  0.1960  0.1697
   22MOL0     C 2856   8.202   5.789   3.722 -0.5585  0.2303  0.2008
   22MOL0     C 2857   8.275   5.847   3.595 -0.2394  0.5191  0.2496
   22MOL0     C 2858   8.226   5.796   3.460  0.0391 -1.1188 -0.8124
   22MOL0     O 2859   8.085   5.829   3.451  0.8912 -0.2684  0.1540
   22MOL0     C 2860   8.018   5.785   3.338 -0.8312  0.3469  1.0589
   22MOL0     C 2861   7.884   5.785   3.335 -0.1430  0.8687 -0.3127
   22MOL0     C 2862   7.811   5.759   3.217 -0.4045  0.3438 -0.6847
   22MOL0     C 2863   7.666   5.810   3.204  0.9979 -0.5360 -0.4521
   22MOL0     C 2864   7.877   5.698   3.108 -0.1341 -0.4607 -0.3573
   22MOL0     C 2865   7.811   5.664   2.980 -0.8732  0.3782  0.1882
   22MOL0     O 2866   7.878   5.686   2.862  0.2024 -1.5258 -0.1264
   22MOL0     C 2867   7.832   5.635   2.749  1.7550  0.1897  0.1216
   22MOL0     C 2868   7.743   5.716   2.675 -0.0221 -1.0778 -0.5287
   22MOL0     C 2869   7.688   5.660   2.561  0.7288  0.4013  0.3797
   22MOL0     C 2870   7.721   5.540   2.510  0.3021  1.0117  0.3844
   22MOL0     O 2871   7.669   5.490   2.398  0.7776  0.1049  0.1415
   22MOL0     C 2872   7.693   5.571   2.271 -0.3724  0.3916  0.2110
   22MOL0     C 2873   7.843   5.581   2.226  0.3343 -0.4047  0.1166
   22MOL0     C 2874   7.899   5.444   2.184 -0.4536  0.4526  0.1994
   22MOL0     C 2875   8.045   5.459   2.145  0.1557 -0.9843  0.5172
   22MOL0     C 2876   8.132   5.327   2.148  0.0477  0.0508  0.7426
   22MOL0     C 2877   8.137   5.275   2.286  0.0528 -0.6624  0.1538
   22MOL0     C 2878   8.209   5.356   2.396  0.6644 -0.7164  0.4396
   22MOL0     C 2879   8.324   5.282   2.469 -0.2795 -0.7035  0.5029
   22MOL0    Cl 2880   8.453   5.261   2.357 -0.0241  0.0526  0.2102
   22MOL0     C 2881   7.820   5.461   2.573 -0.6065  0.7034 -0.3750
   22MOL0     C 2882   7.872   5.509   2.697  0.2814 -0.1029 -0.0770
   22MOL0     O 2883   7.704   5.607   2.982  0.9304  0.3989 -0.9478
   22MOL0     C 2884   8.012   5.673   3.113  0.6673 -0.0664  0.0952
   22MOL0     C 2885   8.085   5.718   3.228  0.6344 -1.6141 -0.4909
   22MOL0     N 2886   8.239   5.749   4.079  0.1383 -0.2212 -1.0109
   22MOL0     N 2887   8.149   5.734   4.170 -0.9791 -0.7550 -0.0141
   22MOL0     C 2888   7.635   6.623   4.691  0.8459 -0.7016  0.5239
   22MOL0     C 2889   7.572   6.741   4.663 -0.1365  0.1637 -0.0592
   22MOL0     C 2890   7.561   7.178   4.502 -0.1288  0.4440 -0.0362
   22MOL0     C 2891   7.421   7.179   4.477  0.4213 -0.5407 -0.0515
   22MOL0     C 2892   7.364   7.304   4.441 -0.0351 -0.5007  0.0257
   22MOL0     C 2893   7.434   7.433   4.443  0.2027  0.6806 -0.4090
   22MOL0     O 2894   7.362   7.534   4.395 -0.0118 -0.6542 -0.1182
   22MOL0     C 2895   7.427   7.634   4.303  0.3326  0.1138  0.3334
   22MOL0     C 2896   7.446   7.585   4.158  1.4665  0.4569 -0.1237
   22MOL0     C 2897   7.312   7.569   4.081  0.1585  0.0819 -1.1681
   22MOL0     C 2898   7.317   7.515   3.944  0.4902  0.3252 -0.4792
   22MOL0     C 2899   7.323   7.620   3.834  0.0036  1.1311 -0.8136
   22MOL0     C 2900   7.299   7.697   3.745 -0.4888  0.2228 -0.5031
   22MOL0     C 2901   7.575   7.422   4.479 -0.2814 -0.3878 -0.6784
   22MOL0     C 2902   7.630   7.302   4.512 -0.0340  0.8800  0.1407
   22MOL0     H 2903   7.709   6.817   4.366  2.2321  2.5491  2.4902
   22MOL0     H 2904   7.814   6.595   4.404  0.0697  1.4704 -1.4723
   22MOL0     H 2905   7.943   6.528   4.585  2.8728 -0.7916  1.9786
   22MOL0     H 2906   7.941   6.444   4.720  4.0908  0.4562 -1.4471
   22MOL0     H 2907   8.037   6.281   4.619 -0.6265 -0.9173  0.9785
   22MOL0     H 2908   7.883   6.239   4.532  1.4303 -2.3081  1.9160
   22MOL0     H 2909   7.942   6.412   4.363 -1.2533  2.5493  2.6245
   22MOL0     H 2910   8.093   6.442   4.446 -0.2725 -0.0453  0.5373
   22MOL0     H 2911   8.183   6.325   4.303 -0.8682  0.9803  0.1846
   22MOL0     H 2912   8.153   6.184   4.412 -1.4236 -2.8688 -1.8589
   22MOL0     H 2913   7.958   6.248   4.185 -1.4707  1.2321  3.4054
   22MOL0     H 2914   8.118   6.170   4.158 -0.3469 -1.6146  1.2343
   22MOL0     H 2915   8.075   5.982   4.298 -1.1779 -2.3851  1.3928
   22MOL0     H 2916   7.959   6.058   4.388  3.6089 -2.5836  0.4404
   22MOL0     H 2917   7.781   6.000   4.242 -0.1092  2.7770 -1.0120
   22MOL0     H 2918   7.888   6.026   4.105 -1.8311 -0.2337 -0.2055
   22MOL0     H 2919   7.829   5.771   4.161 -1.6554  1.8149 -0.7204
   22MOL0     H 2920   7.925   5.780   4.301  1.0222 -2.2411 -0.9361
   22MOL0     H 2921   8.002   5.912   3.937 -2.6141 -1.8230  1.1225
   22MOL0     H 2922   8.278   5.957   3.841 -0.1013  0.3054  0.9648
   22MOL0     H 2923   8.371   5.805   3.854  0.2939 -1.9823 -4.2092
   22MOL0     H 2924   8.094   5.808   3.717 -0.9310 -1.7322  0.0847
   22MOL0     H 2925   8.231   5.684   3.733  3.3928  1.0801 -0.4029
   22MOL0     H 2926   8.383   5.828   3.593 -0.5045 -1.0399 -2.1539
   22MOL0     H 2927   8.260   5.956   3.593 -0.9978  0.4114 -1.1277
   22MOL0     H 2928   8.242   5.688   3.459 -1.6440 -1.4233  0.5449
   22MOL0     H 2929   8.287   5.846   3.385  3.2923 -1.0746  1.6489
   22MOL0     H 2930   7.839   5.832   3.421 -0.7818  0.5450 -0.4604
   22MOL0     H 2931   7.600   5.723   3.199  3.6477 -2.7437  0.3447
   22MOL0     H 2932   7.638   5.864   3.295  2.9296 -1.5515  0.8131
   22MOL0     H 2933   7.648   5.881   3.122  2.6448 -0.7787 -1.0593
   22MOL0     H 2934   7.703   5.810   2.711  1.6694 -1.3403  2.3175
   22MOL0     H 2935   7.603   5.707   2.512  0.0389 -1.4491 -0.2626
   22MOL0     H 2936   7.623   5.521   2.204 -0.7929 -0.1561  1.0400
   22MOL0     H 2937   7.657   5.674   2.282 -0.9286  0.0643  1.7340
   22MOL0     H 2938   7.853   5.642   2.135  1.6096 -2.3133 -1.0968
   22MOL0     H 2939   7.892   5.623   2.314 -1.4410 -0.7133  1.3088
   22MOL0     H 2940   7.850   5.399   2.097  2.0046  0.4774 -1.2934
   22MOL0     H 2941   7.872   5.367   2.256 -4.4286  0.2792 -1.2313
   22MOL0     H 2942   8.058   5.497   2.043  0.9425  0.3850  1.1029
   22MOL0     H 2943   8.085   5.527   2.220 -0.1702 -0.6103  0.3518
   22MOL0     H 2944   8.231   5.353   2.109 -0.0566  0.8358  0.9776
   22MOL0     H 2945   8.089   5.252   2.081  3.0559 -1.4266  0.2835
   22MOL0     H 2946   8.042   5.230   2.317  0.1409  0.4794  2.3552
   22MOL0     H 2947   8.203   5.189   2.273 -1.6666 -1.7026 -2.4970
   22MOL0     H 2948   8.134   5.394   2.466  0.0800  0.8175 -0.9627
   22MOL0     H 2949   8.244   5.444   2.342 -1.8933  0.8478  1.1899
   22MOL0     H 2950   8.291   5.184   2.505 -0.1202 -0.9060  0.1047
   22MOL0     H 2951   8.345   5.331   2.564 -0.1507  0.2700 -0.0159
   22MOL0     H 2952   7.858   5.371   2.526  3.9262  1.5543  1.1514
   22MOL0     H 2953   7.944   5.448   2.751  0.7089  2.4640  2.4659
   22MOL0     H 2954   8.058   5.608   3.040 -1.3170 -0.2034 -1.0923
   22MOL0     H 2955   8.193   5.709   3.221  0.9689  0.0107  1.6127
   22MOL0     H 2956   7.611   6.578   4.786 -2.6799 -3.1343 -1.3008
   22MOL0     H 2957   7.523   6.798   4.742  1.2588  0.0437  0.9258
   22MOL0     H 2958   7.360   7.090   4.466  1.3944 -1.2175 -0.1661
   22MOL0     H 2959   7.264   7.304   4.399  0.5140  1.2787 -1.3702
   22MOL0     H 2960   7.373   7.729   4.296  3.0858  1.6694 -1.9353
   22MOL0     H 2961   7.523   7.665   4.344 -0.8106  3.2770  0.8915
   22MOL0     H 2962   7.494   7.488   4.166 -1.8416 -1.2146  1.1700
   22MOL0     H 2963   7.510   7.651   4.099  1.4845 -1.9493 -3.0482
   22MOL0     H 2964   7.263   7.667   4.086  1.7842  0.8631  0.6118
   22MOL0     H 2965   7.251   7.496   4.135 -0.8180  1.5330 -0.2422
   22MOL0     H 2966   7.228   7.454   3.926  1.4692 -1.1037 -0.6907
   22MOL0     H 2967   7.409   7.456   3.937  0.6275  0.5140 -0.2593
   22MOL0     H 2968   7.284   7.770   3.668 -0.0303  1.4353  0.5306
   22MOL0     H 2969   7.633   7.511   4.498  0.0470 -0.8886  0.7748
   22MOL0     H 2970   7.732   7.303   4.547 -0.3537 -3.6189  1.8434
   23MOL0     O 2971   3.480   8.739   6.131 -0.0612  0.7755 -0.0454
   23MOL0     C 2972   3.582   8.803   6.112  0.1077 -0.5680  0.8823
   23MOL0     O 2973   3.596   8.937   6.145  0.1902 -0.0713  0.1712
   23MOL0     C 2974   3.501   9.010   6.208 -0.6501 -0.5006  0.8267
   23MOL0     C 2975   3.465   9.136   6.147  0.8047 -0.3283  0.2999
   23MOL0     C 2976   3.375   9.226   6.214  0.2048 -0.3713  0.9611
   23MOL0     C 2977   3.291   9.181   6.323 -0.6767 -0.2534 -0.1185
   23MOL0     O 2978   3.208   9.265   6.396  0.4397  0.1176  0.6853
   23MOL0     C 2979   3.224   9.407   6.395  0.5414 -0.1612 -1.2476
   23MOL0     C 2980   3.148   9.473   6.510  0.1230 -0.7486 -0.3842
   23MOL0     C 2981   3.224   9.489   6.640  0.2111  0.1025 -0.2425
   23MOL0     C 2982   3.166   9.597   6.731 -0.0121 -0.7769 -0.3653
   23MOL0     C 2983   3.276   9.660   6.827  0.7777 -1.0534 -0.1408
   23MOL0     C 2984   3.217   9.718   6.951  0.4139 -0.2299 -0.4322
   23MOL0     C 2985   3.116   9.826   6.919  0.6075  0.6993  0.0515
   23MOL0     C 2986   3.069   9.888   7.048  0.0367 -0.1553  0.4804
   23MOL0     N 2987   2.984   9.999   7.012  0.0144 -0.0264 -0.7015
   23MOL0     C 2988   3.023  10.121   7.032  1.3846 -0.4977  0.8625
   23MOL0     C 2989   2.918  10.197   6.990 -0.4278 -0.9438 -0.6014
   23MOL0     C 2990   2.919  10.356   6.995  0.0410 -1.3223 -0.2899
   23MOL0     C 2991   2.990  10.432   6.872 -0.5820 -0.0115 -0.0628
   23MOL0     C 2992   2.951  10.576   6.848 -1.5906 -0.1661 -0.2656
   23MOL0     C 2993   2.968  10.684   6.954 -0.7329  0.3257 -0.1453
   23MOL0     O 2994   3.098  10.718   6.978  0.0094 -0.0337 -0.5191
   23MOL0     C 2995   3.192  10.628   7.024 -0.1997 -0.8481 -0.0102
   23MOL0     C 2996   3.303  10.594   6.951  0.4921  0.2570 -0.7842
   23MOL0     C 2997   3.394  10.488   6.992 -0.5325  0.1060  1.0160
   23MOL0     C 2998   3.524  10.469   6.910  0.6097 -0.4132  0.0950
   23MOL0     C 2999   3.356  10.411   7.099 -0.3081  1.2743 -0.0014
   23MOL0     C 3000   3.419  10.287   7.138  0.2696 -0.2591 -0.7930
   23MOL0     O 3001   3.333  10.200   7.195  0.1511 -0.0090 -0.2634
   23MOL0     C 3002   3.383  10.077   7.235  1.3785 -0.9467 -0.1387
   23MOL0     C 3003   3.466   9.982   7.166  0.0469 -0.0880  0.8179
   23MOL0     C 3004   3.518   9.873   7.234 -0.2167 -0.5253  0.3638
   23MOL0     C 3005   3.475   9.850   7.367 -0.7530  0.6297 -0.2767
   23MOL0     O 3006   3.540   9.747   7.430  0.0117  0.0603  0.0304
   23MOL0     C 3007   3.478   9.692   7.548  0.5533 -1.0411  0.3613
   23MOL0     C 3008   3.579   9.595   7.601 -0.1017  0.2495  0.2565
   23MOL0     C 3009   3.535   9.514   7.716  0.9434  0.0969 -0.2343
   23MOL0     C 3010   3.651   9.474   7.787 -0.3064  0.3160 -0.1408
   23MOL0     C 3011   3.617   9.389   7.906 -0.2944  0.0446 -0.0001
   23MOL0     C 3012   3.743   9.355   7.988 -0.4017  0.3362  0.4628
   23MOL0     C 3013   3.833   9.247   7.915 -1.3146  0.7544 -0.8338
   23MOL0     C 3014   3.891   9.139   8.017  0.1768  0.7418  0.4320
   23MOL0    Cl 3015   3.762   9.065   8.112  0.5463  0.3697 -0.0021
   23MOL0     C 3016   3.376   9.934   7.422 -0.7360  0.4759 -0.6307
   23MOL0     C 3017   3.325  10.046   7.361 -0.3912  0.6825  0.6057
   23MOL0     O 3018   3.534  10.269   7.107  0.6344  0.8644  0.0852
   23MOL0     C 3019   3.244  10.453   7.180  0.5667  0.6074  0.4711
   23MOL0     C 3020   3.170  10.562   7.143 -0.6523 -0.9977 -0.5944
   23MOL0     N 3021   2.826  10.119   6.927 -0.4869 -0.9073  0.0929
   23MOL0     N 3022   2.862   9.996   6.947 -0.4169  0.0579 -0.8371
   23MOL0     C 3023   3.316   9.054   6.373 -1.4040  0.0209 -0.2922
   23MOL0     C 3024   3.421   8.979   6.315  0.1465  0.0093 -0.5172
   23MOL0     C 3025   3.696   8.728   6.053 -0.7067  0.6463 -0.6055
   23MOL0     C 3026   3.825   8.775   6.088  0.5222  0.1084 -0.0268
   23MOL0     C 3027   3.941   8.711   6.031  0.3097  0.0131  0.6812
   23MOL0     C 3028   3.934   8.595   5.958  0.1543 -0.1561  0.6352
   23MOL0     O 3029   4.041   8.529   5.908  0.4206 -0.2991 -0.3263
   23MOL0     C 3030   4.176   8.568   5.912 -0.0107  0.3344  0.0723
   23MOL0     C 3031   4.240   8.550   6.053 -0.5037  0.5100 -0.1399
   23MOL0     C 3032   4.390   8.537   6.052  0.1412 -0.0122 -0.1750
   23MOL0     C 3033   4.439   8.524   6.197 -0.4198  0.0109  0.1676
   23MOL0     C 3034   4.413   8.396   6.255 -0.5240  0.2352  0.3032
   23MOL0     C 3035   4.393   8.288   6.318  0.2024 -0.3022  0.2951
   23MOL0     C 3036   3.804   8.541   5.943  0.3147  0.7192 -0.0689
   23MOL0     C 3037   3.682   8.610   5.981 -0.2116 -0.2112 -0.8584
   23MOL0     H 3038   3.515   9.160   6.054  1.8806  1.3526  1.2709
   23MOL0     H 3039   3.361   9.330   6.185 -1.1302 -0.5136  1.0552
   23MOL0     H 3040   3.328   9.440   6.404  0.1057  1.4557 -1.7875
   23MOL0     H 3041   3.193   9.433   6.293 -0.8700 -2.7145 -1.5556
   23MOL0     H 3042   3.115   9.569   6.471 -0.1117 -0.6822 -0.0308
   23MOL0     H 3043   3.057   9.417   6.536 -0.2025  0.2698  0.7784
   23MOL0     H 3044   3.204   9.394   6.690  0.0498  0.1983 -0.1252
   23MOL0     H 3045   3.332   9.504   6.631  0.9512 -3.3200  1.1752
   23MOL0     H 3046   3.122   9.681   6.676  2.1475  1.3733  0.9665
   23MOL0     H 3047   3.082   9.548   6.781 -2.0254 -0.8688 -3.5759
   23MOL0     H 3048   3.359   9.589   6.833 -0.3998 -2.5612 -0.9059
   23MOL0     H 3049   3.315   9.740   6.764 -3.1538  4.8486  3.9591
   23MOL0     H 3050   3.183   9.643   7.022  0.5927  2.3969  2.6377
   23MOL0     H 3051   3.306   9.770   6.988 -0.2717  0.7020 -0.0581
   23MOL0     H 3052   3.173   9.905   6.868 -0.3823  0.4789 -1.4478
   23MOL0     H 3053   3.039   9.791   6.850  1.5424 -1.3097 -0.0542
   23MOL0     H 3054   3.162   9.917   7.098  0.2884  0.1631 -0.1706
   23MOL0     H 3055   3.027   9.812   7.116  2.5126 -2.2765 -0.2001
   23MOL0     H 3056   3.119  10.151   7.072  1.5746  0.1969 -0.0682
   23MOL0     H 3057   2.814  10.382   6.981 -0.3919 -2.7894  0.1024
   23MOL0     H 3058   2.960  10.394   7.089 -1.7841 -0.1569  0.0857
   23MOL0     H 3059   2.963  10.370   6.786 -1.9199 -1.6557  1.4470
   23MOL0     H 3060   3.097  10.425   6.892 -0.5758  1.0706  0.2975
   23MOL0     H 3061   2.845  10.571   6.824 -1.5404  0.4548 -0.6594
   23MOL0     H 3062   3.013  10.611   6.765 -1.9212 -1.5658 -1.1377
   23MOL0     H 3063   2.924  10.656   7.050 -0.9322  1.5979  0.1510
   23MOL0     H 3064   2.913  10.774   6.925  0.5699  1.1292 -0.1559
   23MOL0     H 3065   3.335  10.642   6.860 -1.3383  2.3896 -0.3784
   23MOL0     H 3066   3.524  10.366   6.873 -1.9970 -0.5408  0.2699
   23MOL0     H 3067   3.527  10.538   6.825 -0.5314  0.6531  0.8730
   23MOL0     H 3068   3.603  10.485   6.983  1.1286 -2.8267  0.1512
   23MOL0     H 3069   3.495   9.997   7.062 -0.2097 -0.7015  0.6524
   23MOL0     H 3070   3.587   9.801   7.191  0.5890 -1.2266  2.6789
   23MOL0     H 3071   3.437   9.752   7.630  0.8922 -0.3808  0.0580
   23MOL0     H 3072   3.392   9.631   7.519 -0.5522 -0.2061  1.7162
   23MOL0     H 3073   3.602   9.520   7.525  3.0776 -1.8443  3.0178
   23MOL0     H 3074   3.670   9.652   7.621 -1.2502  2.3106 -0.0534
   23MOL0     H 3075   3.486   9.420   7.691  2.8604 -0.2723 -3.1049
   23MOL0     H 3076   3.471   9.568   7.787  0.0457 -1.1887 -0.0423
   23MOL0     H 3077   3.716   9.416   7.720 -0.1835  1.2326 -0.8489
   23MOL0     H 3078   3.708   9.562   7.819  1.3029 -0.9229  0.5328
   23MOL0     H 3079   3.567   9.298   7.869  1.0321 -1.2305  1.2139
   23MOL0     H 3080   3.541   9.433   7.972 -0.8719  0.4847 -0.9397
   23MOL0     H 3081   3.805   9.444   8.001 -0.0083  0.2906 -0.9430
   23MOL0     H 3082   3.717   9.332   8.092  0.0060 -1.2818  0.2309
   23MOL0     H 3083   3.914   9.299   7.864 -1.3012  0.5116 -1.0690
   23MOL0     H 3084   3.784   9.193   7.833  0.7362  1.0818 -2.3594
   23MOL0     H 3085   3.963   9.174   8.091  0.7417  1.6691 -0.5285
   23MOL0     H 3086   3.938   9.064   7.952 -1.1505  1.9079 -2.0580
   23MOL0     H 3087   3.345   9.920   7.525 -0.1801 -2.3493 -0.7575
   23MOL0     H 3088   3.263  10.117   7.416  0.9049  2.3293  0.0232
   23MOL0     H 3089   3.218  10.405   7.274  0.1416 -0.7185 -0.2964
   23MOL0     H 3090   3.103  10.603   7.217  0.9749 -0.1479  0.4868
   23MOL0     H 3091   3.264   9.012   6.458 -0.8258  0.7334  0.4279
   23MOL0     H 3092   3.431   8.884   6.366  1.1029  0.9399  1.1111
   23MOL0     H 3093   3.836   8.858   6.157 -0.0243  0.7856 -0.7350
   23MOL0     H 3094   4.040   8.750   6.052  1.0109 -0.6005 -1.2267
   23MOL0     H 3095   4.228   8.497   5.847  2.2983 -2.2613  4.3034
   23MOL0     H 3096   4.193   8.671   5.880  2.9139  0.4630  1.7239
   23MOL0     H 3097   4.206   8.452   6.085 -0.7319  0.1607 -1.3911
   23MOL0     H 3098   4.208   8.629   6.122  1.2803  1.0879  0.0629
   23MOL0     H 3099   4.439   8.626   6.011  0.2077  0.2669  0.4874
   23MOL0     H 3100   4.414   8.455   5.985  0.9699 -0.2720  0.4290
   23MOL0     H 3101   4.394   8.598   6.264  2.5345 -0.0385  2.3970
   23MOL0     H 3102   4.543   8.557   6.203  0.3888 -2.3139 -0.3060
   23MOL0     H 3103   4.368   8.202   6.376  0.5029 -0.0247  0.8508
   23MOL0     H 3104   3.779   8.447   5.895  2.8792 -0.2156  0.2608
   23MOL0     H 3105   3.582   8.570   5.968 -0.4437 -0.0734  0.4570
   24MOL0     O 3106  10.375   2.348   1.568  1.0664  1.3958 -0.1534
   24MOL0     C 3107  10.318   2.352   1.459 -0.5163 -0.1491  0.3195
   24MOL0     O 3108  10.205   2.282   1.411 -0.2182  0.6012  0.4128
   24MOL0     C 3109  10.141   2.180   1.476  0.3286  0.2024  0.3313
   24MOL0     C 3110  10.203   2.095   1.565 -0.0577  0.3745 -1.1511
   24MOL0     C 3111  10.129   1.986   1.611  0.2033 -0.4950 -0.3169
   24MOL0     C 3112   9.992   1.983   1.594  0.3795 -0.5661 -0.3397
   24MOL0     O 3113   9.925   1.879   1.653  0.3984 -0.1244  0.0542
   24MOL0     C 3114   9.786   1.867   1.644  0.2076 -0.3454 -0.2112
   24MOL0     C 3115   9.733   1.744   1.720 -0.3911 -0.2339 -0.0632
   24MOL0     C 3116   9.595   1.713   1.680 -0.1251 -0.3469 -0.5475
   24MOL0     C 3117   9.564   1.566   1.710  0.1345 -0.7030  0.2728
   24MOL0     C 3118   9.420   1.526   1.660  0.4578 -0.2588  0.5923
   24MOL0     C 3119   9.405   1.376   1.704  0.0477  0.3936 -0.2212
   24MOL0     C 3120   9.282   1.313   1.646 -0.8556 -0.3227  0.1001
   24MOL0     C 3121   9.279   1.163   1.676 -0.5865  0.7617  0.3325
   24MOL0     N 3122   9.167   1.121   1.596 -0.0730  0.0673 -0.6194
   24MOL0     C 3123   9.181   1.065   1.473  0.1037  0.1519  0.9060
   24MOL0     C 3124   9.048   1.043   1.425  0.8139 -0.1671 -0.4448
   24MOL0     C 3125   9.006   1.010   1.291  0.5113  0.1239  0.0293
   24MOL0     C 3126   9.062   1.104   1.188  0.5535  0.9784  0.2781
   24MOL0     C 3127   9.003   1.058   1.049  0.4869 -0.5550  1.1752
   24MOL0     C 3128   9.070   0.937   0.986  0.7540 -0.3650 -1.0139
   24MOL0     O 3129   9.065   0.947   0.842 -0.1360 -0.6810 -0.1548
   24MOL0     C 3130   8.930   0.929   0.796  0.6461  0.0544  0.5724
   24MOL0     C 3131   8.871   0.803   0.807 -0.3666 -0.6471 -0.8223
   24MOL0     C 3132   8.746   0.776   0.760  0.6648 -0.6834  1.4329
   24MOL0     C 3133   8.697   0.635   0.777  0.6827  0.4982 -0.3585
   24MOL0     C 3134   8.668   0.878   0.692 -0.5598  0.0470 -0.1757
   24MOL0     C 3135   8.525   0.868   0.628 -0.0308 -0.6753 -0.1861
   24MOL0     O 3136   8.455   0.980   0.590 -0.9004  0.6688  0.5853
   24MOL0     C 3137   8.321   0.978   0.582  0.2693  0.8804 -0.9123
   24MOL0     C 3138   8.252   1.068   0.662  0.1667  0.4273 -0.3383
   24MOL0     C 3139   8.115   1.078   0.645 -1.0762  0.0542 -0.3025
   24MOL0     C 3140   8.042   1.015   0.551 -0.9371  0.8703  0.2408
   24MOL0     O 3141   7.902   1.031   0.556  0.3431  0.8300 -0.2942
   24MOL0     C 3142   7.824   0.921   0.513  0.8345  0.8504 -0.9342
   24MOL0     C 3143   7.673   0.942   0.524  0.0350  1.1191  0.2523
   24MOL0     C 3144   7.636   1.027   0.399  0.2764 -0.5560  0.1477
   24MOL0     C 3145   7.488   1.066   0.410 -0.2122 -0.3413 -0.1185
   24MOL0     C 3146   7.446   1.158   0.292  0.1445  0.0639 -0.3252
   24MOL0     C 3147   7.305   1.212   0.295 -0.0760 -0.0681 -0.0928
   24MOL0     C 3148   7.201   1.095   0.253  0.4155  0.0546 -0.7759
   24MOL0     C 3149   7.059   1.157   0.241  0.3948 -0.6050 -0.8949
   24MOL0    Cl 3150   7.000   1.243   0.388 -0.0277 -0.1821 -0.1524
   24MOL0     C 3151   8.110   0.931   0.463  0.0220 -0.7613  0.3390
   24MOL0     C 3152   8.247   0.913   0.477  0.0162 -0.1905 -0.1489
   24MOL0     O 3153   8.485   0.753   0.627 -0.5632  0.3382 -0.4636
   24MOL0     C 3154   8.727   1.006   0.674  0.0279  0.2171  0.2410
   24MOL0     C 3155   8.852   1.030   0.727  0.2269 -0.6016 -0.3039
   24MOL0     N 3156   8.961   1.088   1.523  0.9348  0.0171  0.2950
   24MOL0     N 3157   9.027   1.131   1.620 -0.1531  0.3625  0.3780
   24MOL0     C 3158   9.928   2.084   1.528 -1.2525  0.2344 -0.3454
   24MOL0     C 3159  10.001   2.178   1.456 -0.4687  0.6243 -0.0771
   24MOL0     C 3160  10.371   2.462   1.382  0.1809  0.8162  0.5492
   24MOL0     C 3161  10.405   2.581   1.437 -0.0468  0.7117  1.0595
   24MOL0     C 3162  10.456   2.685   1.358  0.0686 -1.3551 -0.0295
   24MOL0     C 3163  10.458   2.671   1.212 -0.0097 -0.2785 -0.3853
   24MOL0     O 3164  10.501   2.767   1.128  0.1690 -0.4897  0.4443
   24MOL0     C 3165  10.641   2.755   1.085 -0.1321  0.7606  0.9163
   24MOL0     C 3166  10.734   2.838   1.176  0.2448  0.5389 -1.2155
   24MOL0     C 3167  10.700   2.987   1.166  0.4178 -0.5427 -0.4446
   24MOL0     C 3168  10.797   3.085   1.240 -0.8166  0.6796 -0.0510
   24MOL0     C 3169  10.839   3.040   1.370 -0.9364 -0.4364 -0.6713
   24MOL0     C 3170  10.892   3.005   1.475  0.4027 -0.3805  0.2368
   24MOL0     C 3171  10.410   2.557   1.160  0.6317 -0.4725  0.3662
   24MOL0     C 3172  10.364   2.454   1.245  0.4393  0.2138  0.2328
   24MOL0     H 3173  10.305   2.117   1.593 -0.7401  3.4971 -0.8263
   24MOL0     H 3174  10.173   1.903   1.666  0.3251 -1.0561 -1.2318
   24MOL0     H 3175   9.733   1.950   1.693 -0.4928 -1.0191  0.2006
   24MOL0     H 3176   9.760   1.854   1.538 -0.5614  1.8771 -0.3575
   24MOL0     H 3177   9.801   1.662   1.696  0.8725  0.8065 -0.1902
   24MOL0     H 3178   9.748   1.772   1.825  3.7226  0.5346 -0.6845
   24MOL0     H 3179   9.528   1.773   1.742 -1.7063 -3.6691  1.2235
   24MOL0     H 3180   9.567   1.732   1.576 -1.6920  2.3354  0.2608
   24MOL0     H 3181   9.640   1.494   1.676  1.4757  1.0023 -0.4956
   24MOL0     H 3182   9.560   1.551   1.818 -1.3993  0.2299  0.3741
   24MOL0     H 3183   9.343   1.581   1.714 -2.5528 -0.6804 -2.9286
   24MOL0     H 3184   9.396   1.539   1.554  0.3921 -0.3660  0.5949
   24MOL0     H 3185   9.491   1.324   1.662  2.1438  1.7063  2.1971
   24MOL0     H 3186   9.398   1.369   1.813  3.2870  0.4889  0.0949
   24MOL0     H 3187   9.192   1.365   1.679 -0.2982 -1.9457  5.0420
   24MOL0     H 3188   9.292   1.329   1.539 -1.5851 -0.5228 -0.0070
   24MOL0     H 3189   9.257   1.148   1.782  3.2342  0.5707  1.2306
   24MOL0     H 3190   9.376   1.117   1.659 -0.0570  1.1493  2.0895
   24MOL0     H 3191   9.266   1.045   1.409  0.3220  0.8293  0.9815
   24MOL0     H 3192   9.038   0.909   1.266 -0.2913  0.0666 -0.8129
   24MOL0     H 3193   8.898   1.026   1.286  0.5799  1.1744  1.2095
   24MOL0     H 3194   9.171   1.102   1.187  0.6221  1.5134  2.0486
   24MOL0     H 3195   9.028   1.204   1.215 -0.0207  0.5031  1.4014
   24MOL0     H 3196   9.007   1.152   0.994  0.8335 -1.2871 -0.0734
   24MOL0     H 3197   8.900   1.023   1.058  0.2016 -0.3703 -0.9646
   24MOL0     H 3198   9.044   0.840   1.028  0.1686 -0.1379 -0.8376
   24MOL0     H 3199   9.172   0.946   1.025 -0.8353  1.7722  3.3127
   24MOL0     H 3200   8.921   0.719   0.854  1.8800  0.3387 -1.3132
   24MOL0     H 3201   8.594   0.636   0.813  0.9759 -2.8794  0.8471
   24MOL0     H 3202   8.691   0.577   0.684 -0.1242 -0.2089  0.1211
   24MOL0     H 3203   8.762   0.569   0.835  1.1070 -0.3467 -1.7498
   24MOL0     H 3204   8.308   1.121   0.739 -0.8470  0.2878  0.5170
   24MOL0     H 3205   8.058   1.140   0.713 -0.3311  1.1658 -0.6653
   24MOL0     H 3206   7.842   0.892   0.409 -1.7044  4.7259 -2.6761
   24MOL0     H 3207   7.843   0.834   0.576 -0.2620  1.4469  0.2690
   24MOL0     H 3208   7.623   0.846   0.509 -0.4545  1.4355 -0.1249
   24MOL0     H 3209   7.640   0.993   0.615 -2.0616 -1.0415  0.7946
   24MOL0     H 3210   7.638   0.972   0.305 -0.5146 -0.7707  0.2441
   24MOL0     H 3211   7.694   1.119   0.388 -0.6698  0.0107 -0.2891
   24MOL0     H 3212   7.414   0.988   0.428 -1.5193  0.8292 -0.2563
   24MOL0     H 3213   7.488   1.127   0.501 -1.4078 -1.0928  0.3996
   24MOL0     H 3214   7.457   1.093   0.205 -1.7375 -0.4463 -0.2341
   24MOL0     H 3215   7.515   1.242   0.282 -0.5421  0.4725 -2.0432
   24MOL0     H 3216   7.289   1.255   0.394 -1.0441 -0.0441 -0.2473
   24MOL0     H 3217   7.299   1.297   0.227 -0.3624 -0.1512 -0.1729
   24MOL0     H 3218   7.212   1.006   0.315  1.3206  0.0204 -0.9677
   24MOL0     H 3219   7.235   1.062   0.154  2.9076 -3.7106  1.0792
   24MOL0     H 3220   6.993   1.074   0.214  0.6138 -2.1416  2.7382
   24MOL0     H 3221   7.057   1.232   0.161  1.6705  3.3748  2.4166
   24MOL0     H 3222   8.046   0.884   0.388 -1.7389 -0.2798  1.4675
   24MOL0     H 3223   8.307   0.854   0.409 -0.1505  1.6040 -1.9374
   24MOL0     H 3224   8.673   1.080   0.616 -0.4733 -0.2921  0.0547
   24MOL0     H 3225   8.889   1.131   0.716 -1.0581  0.0236  0.7793
   24MOL0     H 3226   9.819   2.082   1.532 -1.2014 -1.6052  2.1229
   24MOL0     H 3227   9.937   2.244   1.399 -1.8631  0.6513  1.4245
   24MOL0     H 3228  10.396   2.597   1.544  1.1128  1.1816  1.0996
   24MOL0     H 3229  10.495   2.778   1.396 -0.5591 -0.1877 -2.0963
   24MOL0     H 3230  10.665   2.649   1.076  2.1727  1.2107  1.1946
   24MOL0     H 3231  10.648   2.800   0.985 -1.4180  0.3527  0.6253
   24MOL0     H 3232  10.839   2.812   1.158  0.3477 -2.8471  2.8509
   24MOL0     H 3233  10.722   2.803   1.279 -1.9358 -3.1652 -2.5163
   24MOL0     H 3234  10.602   3.004   1.211  2.1076  2.3138  2.5858
   24MOL0     H 3235  10.695   3.026   1.064  0.3392  0.2545 -0.1399
   24MOL0     H 3236  10.746   3.182   1.247 -0.8713  0.6121  0.5112
   24MOL0     H 3237  10.887   3.099   1.180  0.1656  2.0599  1.6413
   24MOL0     H 3238  10.926   2.968   1.570 -1.4741 -0.3984  0.9479
   24MOL0     H 3239  10.414   2.542   1.053 -0.4592 -0.7560  0.3557
   24MOL0     H 3240  10.323   2.362   1.205 -0.5891 -0.2095  2.1744
   25MOL0     O 3241   6.267   2.687   8.351 -0.0765  0.1164 -0.0999
   25MOL0     C 3242   6.377   2.649   8.390 -0.3625  0.5146  0.1712
   25MOL0     O 3243   6.452   2.544   8.338 -0.1180 -0.6175 -0.0898
   25MOL0     C 3244   6.428   2.516   8.212 -0.0338  0.1274 -0.8621
   25MOL0     C 3245   6.309   2.463   8.160  0.3814 -0.8106 -0.1608
   25MOL0     C 3246   6.283   2.457   8.023 -0.1852 -0.0610  0.0284
   25MOL0     C 3247   6.387   2.499   7.932  1.0505  0.6974 -0.4729
   25MOL0     O 3248   6.376   2.505   7.800 -0.1292 -0.2805 -0.0803
   25MOL0     C 3249   6.249   2.521   7.738  1.5063 -0.1191  0.6693
   25MOL0     C 3250   6.240   2.547   7.577 -0.2728  0.4184 -0.4211
   25MOL0     C 3251   6.092   2.550   7.533  0.1123  0.9750  0.4446
   25MOL0     C 3252   6.089   2.586   7.387  0.5410  0.1339  0.1462
   25MOL0     C 3253   5.963   2.528   7.333  0.6345  0.0568  0.0493
   25MOL0     C 3254   5.965   2.516   7.179  0.4794 -0.1603 -0.5993
   25MOL0     C 3255   5.838   2.443   7.115 -1.2814 -0.0133 -0.7288
   25MOL0     C 3256   5.828   2.291   7.137 -0.6113 -0.0206  0.0963
   25MOL0     N 3257   5.710   2.223   7.078  0.1808  0.1218  0.3721
   25MOL0     C 3258   5.665   2.237   6.941  0.1655  1.1434  0.8911
   25MOL0     C 3259   5.540   2.189   6.942  0.4618  0.0081 -0.0270
   25MOL0     C 3260   5.448   2.192   6.820  0.3840 -0.4309 -0.2084
   25MOL0     C 3261   5.390   2.331   6.786 -0.4480 -0.2478  0.0733
   25MOL0     C 3262   5.325   2.404   6.896 -0.1425  0.0460 -0.3357
   25MOL0     C 3263   5.212   2.328   6.981 -0.7329 -0.0552  0.1191
   25MOL0     O 3264   5.111   2.424   7.019  0.1563  0.3195 -0.0966
   25MOL0     C 3265   4.989   2.364   7.036 -0.3576 -0.5605 -0.7085
   25MOL0     C 3266   4.971   2.234   7.089 -0.7223  0.2791 -0.6933
   25MOL0     C 3267   4.846   2.176   7.111  0.3360 -1.0628 -0.0334
   25MOL0     C 3268   4.849   2.033   7.164  0.2498 -0.1846  0.0978
   25MOL0     C 3269   4.731   2.259   7.078 -0.4055  0.0472  0.3626
   25MOL0     C 3270   4.594   2.224   7.089  0.3307  0.2991  0.7978
   25MOL0     O 3271   4.501   2.283   7.010  0.9589 -0.2417 -0.2886
   25MOL0     C 3272   4.371   2.233   7.020 -0.5651 -0.2559 -0.4111
   25MOL0     C 3273   4.309   2.228   6.898 -0.0854  0.5283 -0.1329
   25MOL0     C 3274   4.177   2.200   6.885  0.0433 -0.0143  0.0614
   25MOL0     C 3275   4.105   2.155   6.994 -0.0056  0.1748  0.4336
   25MOL0     O 3276   3.971   2.136   6.991 -0.1633  0.6477  0.0425
   25MOL0     C 3277   3.871   2.197   6.901 -0.3485 -0.6507  0.2965
   25MOL0     C 3278   3.751   2.109   6.889  0.3771  0.3122  0.1995
   25MOL0     C 3279   3.778   1.992   6.789  1.5998 -0.4379  0.8267
   25MOL0     C 3280   3.664   1.886   6.805  0.0253 -0.7971 -0.2442
   25MOL0     C 3281   3.613   1.836   6.674  0.6512 -0.4410  0.3838
   25MOL0     C 3282   3.538   1.943   6.590 -0.3418  0.2097  0.5449
   25MOL0     C 3283   3.457   1.868   6.483  0.2569 -0.3490 -0.4669
   25MOL0     C 3284   3.382   1.957   6.395  0.5875 -0.3789  0.6587
   25MOL0    Cl 3285   3.271   2.062   6.499 -0.0770  0.0513 -0.1002
   25MOL0     C 3286   4.174   2.144   7.115  0.4486 -0.4813  0.0767
   25MOL0     C 3287   4.302   2.195   7.135  0.3502  1.3399  0.2529
   25MOL0     O 3288   4.572   2.135   7.175  0.3163  0.0022  0.1954
   25MOL0     C 3289   4.752   2.391   7.025 -0.3162  0.8483  0.0677
   25MOL0     C 3290   4.878   2.437   6.995  0.3719 -1.8384  0.5256
   25MOL0     N 3291   5.514   2.147   7.072 -0.5541  0.5070  0.5506
   25MOL0     N 3292   5.611   2.165   7.152 -0.3721 -0.0247  0.4461
   25MOL0     C 3293   6.505   2.553   7.988  0.1585  0.1057 -0.4380
   25MOL0     C 3294   6.527   2.558   8.122  0.5216  0.3037 -0.0916
   25MOL0     C 3295   6.446   2.729   8.490 -0.3758 -0.7162  0.9303
   25MOL0     C 3296   6.590   2.738   8.485  0.5908 -0.2866 -0.1450
   25MOL0     C 3297   6.664   2.792   8.597 -0.1297 -0.2855 -0.0614
   25MOL0     C 3298   6.589   2.840   8.707 -0.6946 -0.7961 -0.8697
   25MOL0     O 3299   6.659   2.901   8.807  0.3698  0.6876 -0.4115
   25MOL0     C 3300   6.591   2.996   8.897  0.6620 -0.2369  0.4432
   25MOL0     C 3301   6.684   3.053   9.003  0.0132  0.6217 -0.5899
   25MOL0     C 3302   6.734   2.932   9.086  0.1261 -0.0019 -0.0908
   25MOL0     C 3303   6.803   2.975   9.217 -0.0334  0.2905  0.4072
   25MOL0     C 3304   6.922   3.052   9.210 -0.5898 -0.1879  0.0454
   25MOL0     C 3305   7.027   3.115   9.195  0.5729  0.4716  0.1605
   25MOL0     C 3306   6.446   2.833   8.705 -0.2291  0.1243 -1.0416
   25MOL0     C 3307   6.374   2.779   8.598 -0.0466 -0.0906 -0.5573
   25MOL0     H 3308   6.246   2.437   8.244  1.5100 -0.8562  0.6858
   25MOL0     H 3309   6.177   2.447   8.003 -0.6001  0.1712  1.9292
   25MOL0     H 3310   6.202   2.422   7.747 -1.3983  0.8961 -1.5299
   25MOL0     H 3311   6.187   2.602   7.777  0.9148  1.2345 -2.6931
   25MOL0     H 3312   6.284   2.644   7.551  1.1992  0.0581  0.5764
   25MOL0     H 3313   6.297   2.476   7.517  1.8241  2.6134 -1.1679
   25MOL0     H 3314   6.047   2.452   7.550 -3.1021  2.2275 -0.0800
   25MOL0     H 3315   6.041   2.626   7.592 -4.4691  0.6258 -2.5764
   25MOL0     H 3316   6.101   2.689   7.351 -1.8133  0.2921 -0.3290
   25MOL0     H 3317   6.164   2.533   7.327 -0.4132  2.1570 -3.1338
   25MOL0     H 3318   5.932   2.432   7.375 -2.4651  0.3018 -1.3755
   25MOL0     H 3319   5.881   2.595   7.359 -2.4138 -3.5590  0.6570
   25MOL0     H 3320   5.993   2.613   7.138  0.0135 -1.2381 -3.7139
   25MOL0     H 3321   6.046   2.449   7.149 -0.5600 -1.2011 -1.2143
   25MOL0     H 3322   5.753   2.490   7.165 -0.1070 -0.4014  1.7831
   25MOL0     H 3323   5.834   2.455   7.006 -0.2771  0.4026 -0.7303
   25MOL0     H 3324   5.830   2.273   7.245  2.1194  0.8742  0.2462
   25MOL0     H 3325   5.919   2.239   7.106 -0.4985  0.7795 -0.9574
   25MOL0     H 3326   5.719   2.281   6.857 -0.5796  1.1252  0.3950
   25MOL0     H 3327   5.498   2.135   6.740  1.9848 -0.3438  0.6975
   25MOL0     H 3328   5.365   2.124   6.838  0.7039 -1.0325 -0.9246
   25MOL0     H 3329   5.319   2.315   6.705  0.5518  0.8847 -1.0681
   25MOL0     H 3330   5.465   2.402   6.749  1.7028 -1.9976  0.7941
   25MOL0     H 3331   5.282   2.493   6.849 -2.7452 -1.7072 -1.5357
   25MOL0     H 3332   5.392   2.446   6.971 -2.2725 -0.3327  1.9527
   25MOL0     H 3333   5.249   2.279   7.072  0.4443  2.1189  0.8699
   25MOL0     H 3334   5.174   2.249   6.915 -2.7935  1.7948 -1.0353
   25MOL0     H 3335   5.051   2.164   7.111 -1.5133  0.1776  2.2271
   25MOL0     H 3336   4.949   1.988   7.163  1.0133  1.4060  1.1322
   25MOL0     H 3337   4.823   2.027   7.270 -1.6019 -1.3496 -0.3733
   25MOL0     H 3338   4.774   1.973   7.111  0.6014  1.3999 -2.3957
   25MOL0     H 3339   4.364   2.250   6.807  1.0127  2.4315  0.9062
   25MOL0     H 3340   4.125   2.195   6.790 -2.1292 -0.2753  1.2015
   25MOL0     H 3341   3.824   2.278   6.958  1.1523 -0.6780  1.6474
   25MOL0     H 3342   3.910   2.244   6.810 -0.0923 -0.9181  0.2685
   25MOL0     H 3343   3.746   2.082   6.995  0.1520 -0.6349 -0.0416
   25MOL0     H 3344   3.657   2.161   6.867 -0.0715 -0.8774 -0.8020
   25MOL0     H 3345   3.868   1.931   6.800  1.1315 -1.3046 -0.0683
   25MOL0     H 3346   3.781   2.031   6.687 -1.3653 -1.3898  0.2816
   25MOL0     H 3347   3.706   1.797   6.852 -0.7008 -0.4724  1.0832
   25MOL0     H 3348   3.584   1.928   6.867  1.5679 -0.6197  1.7411
   25MOL0     H 3349   3.534   1.769   6.708 -1.0955  0.4159 -1.7932
   25MOL0     H 3350   3.694   1.798   6.610  1.1373  1.6912 -0.3459
   25MOL0     H 3351   3.467   1.999   6.651 -0.5658 -0.0749  0.5499
   25MOL0     H 3352   3.616   2.005   6.546 -0.6491 -0.2663 -0.7290
   25MOL0     H 3353   3.385   1.797   6.526  1.3902 -0.6444  1.0335
   25MOL0     H 3354   3.532   1.813   6.426 -0.2491 -2.2120  0.5798
   25MOL0     H 3355   3.333   1.892   6.323 -0.6884  0.9350  0.2704
   25MOL0     H 3356   3.452   2.017   6.336 -3.0088  1.7512 -1.8204
   25MOL0     H 3357   4.102   2.135   7.196  0.5687  1.7966  0.4951
   25MOL0     H 3358   4.347   2.209   7.232  2.2711  0.2947 -0.4383
   25MOL0     H 3359   4.669   2.452   6.991  0.2701  2.5746  1.5533
   25MOL0     H 3360   4.900   2.533   6.950 -2.7282 -1.6563 -0.9003
   25MOL0     H 3361   6.579   2.574   7.911  1.0099 -2.3989 -0.3798
   25MOL0     H 3362   6.611   2.615   8.159  0.8580  0.6433 -1.3154
   25MOL0     H 3363   6.639   2.712   8.392  1.2182 -1.2027  0.4275
   25MOL0     H 3364   6.772   2.803   8.598 -0.3874  6.3470  0.2516
   25MOL0     H 3365   6.545   3.077   8.841  0.2918 -0.6708  0.1106
   25MOL0     H 3366   6.512   2.942   8.950 -1.0805 -0.1344 -1.9007
   25MOL0     H 3367   6.625   3.118   9.069  0.9332  1.7283 -0.8373
   25MOL0     H 3368   6.769   3.104   8.959  3.7591 -2.7813  1.9219
   25MOL0     H 3369   6.799   2.858   9.038  2.7909  1.5854  0.8696
   25MOL0     H 3370   6.645   2.874   9.114  0.0158  0.5691  0.7433
   25MOL0     H 3371   6.809   2.885   9.278 -0.3316 -1.4563 -1.9681
   25MOL0     H 3372   6.742   3.048   9.271  1.8695  2.4602 -0.1838
   25MOL0     H 3373   7.115   3.169   9.169  1.7784 -1.1861  0.6385
   25MOL0     H 3374   6.389   2.884   8.781  3.3472  0.5266  1.6317
   25MOL0     H 3375   6.267   2.762   8.589 -0.2776  1.7307 -1.8111
   26MOL0     O 3376   4.603  10.028  10.601 -0.4829  0.0918 -0.1655
   26MOL0     C 3377   4.643   9.995  10.710  0.0709  0.5007  0.2699
   26MOL0     O 3378   4.748   9.913  10.740  0.0418 -0.2456 -0.1014
   26MOL0     C 3379   4.818   9.851  10.637  0.1921  0.6685  0.1077
   26MOL0     C 3380   4.818   9.712  10.639 -0.7392  0.1732 -0.2853
   26MOL0     C 3381   4.873   9.632  10.530  0.3400 -0.2181 -0.4984
   26MOL0     C 3382   4.929   9.704  10.423  1.0134  0.8966  0.1421
   26MOL0     O 3383   4.981   9.629  10.323  0.1625 -0.0814 -0.4258
   26MOL0     C 3384   5.112   9.570  10.352 -0.2292 -0.7782  0.6169
   26MOL0     C 3385   5.217   9.669  10.394 -0.7348  0.5820 -0.1114
   26MOL0     C 3386   5.213   9.707  10.536 -0.0272  0.1872 -0.2021
   26MOL0     C 3387   5.355   9.698  10.598  0.0777  0.5317  1.3631
   26MOL0     C 3388   5.356   9.712  10.751 -1.1251 -0.5130  0.2436
   26MOL0     C 3389   5.376   9.859  10.807 -0.3529  0.4163  0.1452
   26MOL0     C 3390   5.348   9.879  10.954  0.5546  0.1462  0.3521
   26MOL0     C 3391   5.417   9.788  11.046  0.0758  0.3609  0.0182
   26MOL0     N 3392   5.368   9.809  11.184  0.5817  0.2035 -0.2691
   26MOL0     C 3393   5.294   9.718  11.256 -0.7398  0.9709 -0.4253
   26MOL0     C 3394   5.289   9.777  11.381 -0.4753 -0.5149 -0.6303
   26MOL0     C 3395   5.214   9.725  11.506  0.1945  0.1574  0.2849
   26MOL0     C 3396   5.162   9.833  11.596  0.3903 -0.4462 -0.0938
   26MOL0     C 3397   5.088   9.770  11.722  0.1990  0.1825 -0.2961
   26MOL0     C 3398   4.973   9.672  11.695 -0.3608 -0.4319 -0.5745
   26MOL0     O 3399   4.939   9.617  11.825  0.8249 -0.0820  0.0527
   26MOL0     C 3400   4.811   9.575  11.847 -0.7962 -0.3958  1.4575
   26MOL0     C 3401   4.779   9.512  11.971  0.3244 -0.0317  0.0821
   26MOL0     C 3402   4.649   9.477  12.004  0.0327 -0.7928 -0.6706
   26MOL0     C 3403   4.627   9.433  12.145  0.3477  0.5383  0.6191
   26MOL0     C 3404   4.545   9.498  11.907 -0.5183 -0.4753 -0.5549
   26MOL0     C 3405   4.403   9.468  11.930 -0.0420  0.2854 -0.6997
   26MOL0     O 3406   4.309   9.555  11.886 -0.3965 -0.8495  0.1877
   26MOL0     C 3407   4.178   9.520  11.916 -0.3392 -0.4614  0.0746
   26MOL0     C 3408   4.082   9.631  11.959  0.8497  0.3899  0.3062
   26MOL0     C 3409   3.944   9.601  11.978 -0.0564 -0.3028 -0.2764
   26MOL0     C 3410   3.897   9.465  11.955 -0.2625 -0.4590 -0.2879
   26MOL0     O 3411   3.766   9.440  11.985 -0.8789  1.0553 -0.0060
   26MOL0     C 3412   3.728   9.308  12.036  0.6009  0.3299 -0.3786
   26MOL0     C 3413   3.589   9.270  12.011 -0.1800  0.0489  1.1239
   26MOL0     C 3414   3.499   9.360  12.087 -0.0881  0.3307 -0.7257
   26MOL0     C 3415   3.346   9.315  12.077  0.3750 -0.2558 -0.4317
   26MOL0     C 3416   3.323   9.183  12.152  0.4152 -0.8268 -0.6032
   26MOL0     C 3417   3.168   9.153  12.159 -0.1502 -0.2898 -0.2105
   26MOL0     C 3418   3.146   9.029  12.244  0.2186  0.0489 -0.6976
   26MOL0     C 3419   3.017   8.959  12.197 -0.5710  0.1284  1.1591
   26MOL0    Cl 3420   2.882   9.062  12.227  0.3167 -0.1813 -0.4054
   26MOL0     C 3421   3.981   9.374  11.901 -0.0334  0.3143  0.0405
   26MOL0     C 3422   4.116   9.400  11.881 -0.3500  0.0804 -0.3836
   26MOL0     O 3423   4.379   9.365  11.996 -0.4593  0.1604  0.3249
   26MOL0     C 3424   4.581   9.555  11.773 -0.0933  1.3293 -0.7685
   26MOL0     C 3425   4.714   9.588  11.744 -0.1061 -0.5558 -0.2440
   26MOL0     N 3426   5.349   9.904  11.366  0.3245 -0.3174  0.2654
   26MOL0     N 3427   5.407   9.926  11.254  0.2280  1.0017 -0.3561
   26MOL0     C 3428   4.930   9.838  10.421  0.5634 -0.7045  0.1879
   26MOL0     C 3429   4.881   9.915  10.525 -0.3965  0.2700 -0.5035
   26MOL0     C 3430   4.564  10.050  10.832  0.2167  1.1402 -0.0074
   26MOL0     C 3431   4.590  10.010  10.964 -0.7438 -0.3523  0.0699
   26MOL0     C 3432   4.522  10.061  11.070  0.4192 -0.2974 -0.2380
   26MOL0     C 3433   4.407  10.145  11.048 -0.2609 -0.9658  0.5436
   26MOL0     O 3434   4.327  10.189  11.144  0.6396  0.1481  0.0979
   26MOL0     C 3435   4.305  10.097  11.253 -0.2263 -0.4885  0.5489
   26MOL0     C 3436   4.219  10.171  11.356 -0.5401  0.1207  0.8700
   26MOL0     C 3437   4.083  10.237  11.290 -1.0923 -0.1277  0.3348
   26MOL0     C 3438   4.115  10.382  11.239  0.0868 -0.7012  0.3576
   26MOL0     C 3439   3.996  10.444  11.164 -0.7699  0.2930  0.6689
   26MOL0     C 3440   3.907  10.468  11.081  0.1808  0.4495  0.5383
   26MOL0     C 3441   4.390  10.182  10.922 -0.0661  1.2413  0.1639
   26MOL0     C 3442   4.464  10.148  10.810  0.0445  0.0272  0.2255
   26MOL0     H 3443   4.777   9.661  10.726  0.2854 -0.9251 -0.4207
   26MOL0     H 3444   4.866   9.525  10.543  0.8480  0.0631  3.3123
   26MOL0     H 3445   5.114   9.490  10.427  3.9272 -3.4852 -1.9961
   26MOL0     H 3446   5.147   9.514  10.265 -0.6001  0.8775 -0.6674
   26MOL0     H 3447   5.314   9.627  10.365 -1.3055 -2.0114  1.4183
   26MOL0     H 3448   5.208   9.755  10.327 -2.0679  0.0684 -0.6262
   26MOL0     H 3449   5.169   9.806  10.552 -0.7057  0.6924 -4.1534
   26MOL0     H 3450   5.154   9.630  10.587 -1.1724 -0.4040 -2.2753
   26MOL0     H 3451   5.402   9.602  10.574  1.3820  1.4371  0.0797
   26MOL0     H 3452   5.426   9.768  10.553 -2.5470  1.1797 -2.2302
   26MOL0     H 3453   5.264   9.673  10.795 -0.5448 -1.8028  0.3339
   26MOL0     H 3454   5.441   9.653  10.786 -2.4488 -2.5471  0.1889
   26MOL0     H 3455   5.479   9.895  10.796  0.5022 -1.1639  2.2866
   26MOL0     H 3456   5.311   9.923  10.746  2.5714  3.3592 -0.1868
   26MOL0     H 3457   5.371   9.981  10.986 -1.8008  0.9200 -0.2207
   26MOL0     H 3458   5.244   9.861  10.984  0.5033  2.1167  1.5024
   26MOL0     H 3459   5.522   9.819  11.043 -0.2389  1.4854  0.4082
   26MOL0     H 3460   5.410   9.681  11.023 -1.0577  0.8184 -2.0441
   26MOL0     H 3461   5.256   9.620  11.227  2.1875 -0.2377 -0.5185
   26MOL0     H 3462   5.132   9.669  11.462 -1.2321  0.9891  1.7631
   26MOL0     H 3463   5.279   9.654  11.558 -0.2530  0.1558  0.8510
   26MOL0     H 3464   5.102   9.906  11.543  1.7358  1.6906  1.1543
   26MOL0     H 3465   5.243   9.890  11.645 -1.7706  0.2044  3.0265
   26MOL0     H 3466   5.049   9.846  11.790 -2.9995  0.3535 -2.1044
   26MOL0     H 3467   5.165   9.719  11.781  0.3871 -2.7355 -2.7819
   26MOL0     H 3468   5.002   9.587  11.633 -1.2712 -1.4923  0.4150
   26MOL0     H 3469   4.898   9.740  11.655  0.3373  0.7064 -0.0105
   26MOL0     H 3470   4.865   9.502  12.037  0.2098  1.0750  0.4260
   26MOL0     H 3471   4.574   9.337  12.143 -0.0833  0.7198 -3.2066
   26MOL0     H 3472   4.708   9.440  12.219 -3.1238  2.1583  4.6629
   26MOL0     H 3473   4.563   9.514  12.182 -0.6583  0.7080 -1.4079
   26MOL0     H 3474   4.131   9.723  11.988  0.6535  0.8224 -0.6760
   26MOL0     H 3475   3.868   9.676  11.997 -0.4768 -1.2565  2.3159
   26MOL0     H 3476   3.782   9.222  11.996  1.8743  0.2149  1.5074
   26MOL0     H 3477   3.740   9.320  12.144 -0.8053  0.3994 -0.2022
   26MOL0     H 3478   3.571   9.267  11.903  3.5359 -2.1621  0.4100
   26MOL0     H 3479   3.581   9.169  12.051 -2.2868 -0.3886 -0.2442
   26MOL0     H 3480   3.507   9.462  12.049 -2.3479  1.3655  1.2821
   26MOL0     H 3481   3.520   9.373  12.194 -0.3246  1.4969 -0.8098
   26MOL0     H 3482   3.279   9.393  12.114  0.7578  0.1672 -0.6155
   26MOL0     H 3483   3.312   9.297  11.974 -1.0683 -1.5355  0.2296
   26MOL0     H 3484   3.361   9.181  12.255 -1.7176 -0.2942  0.2444
   26MOL0     H 3485   3.379   9.109  12.094 -0.6049 -1.1288 -1.2207
   26MOL0     H 3486   3.147   9.235  12.229  0.2636 -0.9181  0.6639
   26MOL0     H 3487   3.118   9.159  12.062  1.8034 -0.6538 -1.2873
   26MOL0     H 3488   3.133   9.054  12.349  1.6314 -0.0142 -0.4781
   26MOL0     H 3489   3.236   8.966  12.244  0.3565  0.1332  1.9484
   26MOL0     H 3490   3.011   8.863  12.251  1.4709  0.1716  1.5685
   26MOL0     H 3491   3.042   8.930  12.094  2.2561 -0.9573  2.0252
   26MOL0     H 3492   3.941   9.290  11.845  0.5414 -1.1224  1.7166
   26MOL0     H 3493   4.182   9.330  11.832  1.4759  0.5375  1.3082
   26MOL0     H 3494   4.501   9.546  11.700  0.9876 -0.4134 -1.7981
   26MOL0     H 3495   4.742   9.608  11.641  2.2416 -1.8776  0.0791
   26MOL0     H 3496   4.961   9.877  10.324 -0.9858  0.4879  0.1367
   26MOL0     H 3497   4.898  10.021  10.509  2.1600  0.0818  0.5343
   26MOL0     H 3498   4.672   9.941  10.981 -0.5363 -0.8699 -2.7100
   26MOL0     H 3499   4.551  10.034  11.171 -0.1525 -1.2820 -0.3190
   26MOL0     H 3500   4.242  10.015  11.219 -0.9806  0.3095 -0.0059
   26MOL0     H 3501   4.392  10.056  11.305 -1.2564  0.0661  2.8799
   26MOL0     H 3502   4.279  10.248  11.404  0.0286  2.0092 -2.5534
   26MOL0     H 3503   4.183  10.101  11.432 -1.0135 -0.7540 -0.1243
   26MOL0     H 3504   4.011  10.245  11.372 -0.2109 -0.2935  1.1432
   26MOL0     H 3505   4.035  10.174  11.215 -0.1346 -0.3965 -0.0604
   26MOL0     H 3506   4.203  10.393  11.176 -0.9644 -1.0510 -1.2062
   26MOL0     H 3507   4.122  10.445  11.328  0.7774 -0.2260 -0.0285
   26MOL0     H 3508   3.834  10.483  11.004 -0.8220 -2.9116  0.7032
   26MOL0     H 3509   4.313  10.256  10.906  1.1059  2.0702 -2.1211
   26MOL0     H 3510   4.441  10.184  10.710 -1.5311 -0.3992  0.3999
   27MOL0     O 3511   7.753   0.367   7.069  0.4356  0.1325 -0.0860
   27MOL0     C 3512   7.725   0.249   7.074  0.7373 -1.0645 -0.6859
   27MOL0     O 3513   7.611   0.194   7.140 -0.0792  0.4090 -0.2352
   27MOL0     C 3514   7.532   0.286   7.199 -0.1192 -0.3666 -0.7041
   27MOL0     C 3515   7.522   0.291   7.338 -0.4516 -0.3386 -0.0875
   27MOL0     C 3516   7.448   0.385   7.409  0.5793  0.3036  0.5636
   27MOL0     C 3517   7.371   0.483   7.340  0.2203  0.3384  1.0507
   27MOL0     O 3518   7.296   0.576   7.396  0.3408 -0.1288 -1.1483
   27MOL0     C 3519   7.266   0.553   7.538  0.1866  0.1652  0.0817
   27MOL0     C 3520   7.162   0.657   7.598  0.6295 -0.5049 -0.2703
   27MOL0     C 3521   7.032   0.669   7.507 -1.5246  0.1766  0.7495
   27MOL0     C 3522   6.928   0.558   7.534  0.1498  0.4104  0.1672
   27MOL0     C 3523   6.790   0.626   7.556  0.1007 -0.5397 -0.0435
   27MOL0     C 3524   6.726   0.700   7.444 -0.1988 -0.3319  0.9366
   27MOL0     C 3525   6.657   0.609   7.338  0.1375  1.5045  0.1279
   27MOL0     C 3526   6.581   0.676   7.220 -0.9269 -0.8600 -0.1026
   27MOL0     N 3527   6.508   0.585   7.142  0.0504  0.5397  0.0347
   27MOL0     C 3528   6.573   0.479   7.073 -0.2983 -0.5967 -0.3001
   27MOL0     C 3529   6.476   0.423   7.004  0.8113 -0.5993  0.5107
   27MOL0     C 3530   6.485   0.324   6.885 -1.2296  0.3041 -0.4355
   27MOL0     C 3531   6.418   0.361   6.756  0.5490  0.3336  0.3790
   27MOL0     C 3532   6.488   0.301   6.629  0.0826 -0.5383 -0.2513
   27MOL0     C 3533   6.482   0.404   6.509  0.1370  0.2869 -1.4290
   27MOL0     O 3534   6.450   0.346   6.383 -0.1517  0.0349 -0.2464
   27MOL0     C 3535   6.517   0.227   6.351  0.3173  0.2809 -0.4776
   27MOL0     C 3536   6.649   0.199   6.368 -0.7641 -0.5734 -0.7056
   27MOL0     C 3537   6.709   0.072   6.363 -0.7828 -0.0095  0.3856
   27MOL0     C 3538   6.856   0.065   6.382  0.3472  0.1463 -0.5355
   27MOL0     C 3539   6.618  -0.036   6.321  0.1797  0.3451  0.7185
   27MOL0     C 3540   6.674  -0.173   6.283 -0.1356 -0.6622  0.5899
   27MOL0     O 3541   6.574  -0.270   6.249 -0.2907  0.0630  0.1330
   27MOL0     C 3542   6.610  -0.408   6.231 -0.5005  0.2490  0.7568
   27MOL0     C 3543   6.511  -0.499   6.268 -0.1628  0.5304  0.5733
   27MOL0     C 3544   6.523  -0.639   6.250 -0.1729 -0.3688  0.1479
   27MOL0     C 3545   6.644  -0.693   6.205  0.5122 -1.3595  0.7437
   27MOL0     O 3546   6.679  -0.824   6.195  0.3668 -0.4869 -0.2484
   27MOL0     C 3547   6.595  -0.928   6.226  0.9825 -0.1130  0.0247
   27MOL0     C 3548   6.569  -0.945   6.377  0.1576 -0.0173  0.3843
   27MOL0     C 3549   6.679  -1.028   6.438  0.8970  0.2750  0.7154
   27MOL0     C 3550   6.678  -1.183   6.413 -0.8834 -0.1712  1.3739
   27MOL0     C 3551   6.814  -1.249   6.449 -0.5100 -0.5893 -0.0345
   27MOL0     C 3552   6.837  -1.402   6.418 -0.0475 -0.5504  0.1326
   27MOL0     C 3553   6.975  -1.430   6.463  1.2362 -0.1868  0.5082
   27MOL0     C 3554   7.009  -1.574   6.429 -0.8545  0.6113  0.1034
   27MOL0    Cl 3555   7.164  -1.632   6.533  0.1245  0.1990  0.2187
   27MOL0     C 3556   6.748  -0.602   6.177 -0.2790  1.0690  0.9153
   27MOL0     C 3557   6.729  -0.466   6.177 -0.4752 -0.6161 -0.4851
   27MOL0     O 3558   6.795  -0.196   6.286 -0.2188 -0.2472 -1.3075
   27MOL0     C 3559   6.488  -0.010   6.286  0.2626 -0.9637 -0.7461
   27MOL0     C 3560   6.433   0.120   6.317  0.3482  0.7143  0.0975
   27MOL0     N 3561   6.352   0.486   7.042 -0.1224 -0.1292  0.0164
   27MOL0     N 3562   6.376   0.588   7.121 -0.4693  0.8779 -0.8616
   27MOL0     C 3563   7.372   0.476   7.196 -0.0107  0.4717  0.0043
   27MOL0     C 3564   7.449   0.376   7.127  0.0158 -0.5408  0.1778
   27MOL0     C 3565   7.803   0.160   6.990 -0.2613  0.8821 -0.7551
   27MOL0     C 3566   7.922   0.210   6.940 -0.0722  0.5777  0.6897
   27MOL0     C 3567   8.012   0.131   6.877  1.2067 -0.4966  0.2554
   27MOL0     C 3568   7.983  -0.004   6.857  0.0159 -0.9608 -1.4279
   27MOL0     O 3569   8.067  -0.085   6.780  0.2577  0.2812  0.0105
   27MOL0     C 3570   8.193  -0.033   6.738 -0.6124 -0.1457 -0.7781
   27MOL0     C 3571   8.297  -0.044   6.853 -0.0664 -0.8347 -0.6818
   27MOL0     C 3572   8.318  -0.188   6.902 -0.5109  0.0978  0.0015
   27MOL0     C 3573   8.421  -0.192   7.018  0.2148 -0.7433 -0.0801
   27MOL0     C 3574   8.548  -0.189   6.951  0.7924 -0.5312 -0.3942
   27MOL0     C 3575   8.647  -0.191   6.882 -0.7402  1.0142  0.3549
   27MOL0     C 3576   7.861  -0.051   6.896  1.1135  0.3443 -1.1367
   27MOL0     C 3577   7.772   0.028   6.977  0.3770  0.3341 -0.0475
   27MOL0     H 3578   7.582   0.219   7.391 -2.5225 -1.0465  1.4408
   27MOL0     H 3579   7.446   0.373   7.516  1.0103  0.2960  0.5734
   27MOL0     H 3580   7.232   0.451   7.558  2.0146 -0.5657 -0.3571
   27MOL0     H 3581   7.353   0.579   7.599 -0.7258  1.0727  1.0574
   27MOL0     H 3582   7.131   0.632   7.700  0.2857  0.1591 -0.2054
   27MOL0     H 3583   7.198   0.760   7.597  0.6907 -0.5278 -1.6433
   27MOL0     H 3584   6.979   0.761   7.533 -0.4478 -0.0402  4.1726
   27MOL0     H 3585   7.056   0.650   7.402  0.3950  1.6136  0.8900
   27MOL0     H 3586   6.916   0.486   7.452 -0.0359 -1.1167  1.4757
   27MOL0     H 3587   6.949   0.492   7.619 -0.6332  0.6253  0.5299
   27MOL0     H 3588   6.724   0.542   7.582 -0.1321 -0.5529 -0.6574
   27MOL0     H 3589   6.806   0.679   7.650 -0.0066  0.1895 -0.4362
   27MOL0     H 3590   6.639   0.759   7.475 -0.0466  1.3879 -1.6035
   27MOL0     H 3591   6.801   0.765   7.398  0.1156 -1.9537 -0.9730
   27MOL0     H 3592   6.722   0.526   7.308 -3.3026 -2.3400  2.2399
   27MOL0     H 3593   6.582   0.551   7.392  0.0404  1.5887  0.0839
   27MOL0     H 3594   6.658   0.736   7.170 -1.0668  2.3737  3.1137
   27MOL0     H 3595   6.515   0.751   7.265 -0.7313 -0.7684  0.0316
   27MOL0     H 3596   6.682   0.473   7.073 -0.3390 -1.8670  0.8313
   27MOL0     H 3597   6.592   0.322   6.861 -0.6550 -0.0195  1.9164
   27MOL0     H 3598   6.458   0.223   6.919  4.1934 -0.0910  4.1407
   27MOL0     H 3599   6.433   0.469   6.758  0.9744  0.2994 -0.4045
   27MOL0     H 3600   6.313   0.332   6.759  0.9765 -1.2040  2.1523
   27MOL0     H 3601   6.439   0.207   6.601  1.5789 -0.9456 -1.6713
   27MOL0     H 3602   6.593   0.278   6.649  0.7045  0.6335 -1.9104
   27MOL0     H 3603   6.572   0.466   6.500  0.2367  0.8931  2.3774
   27MOL0     H 3604   6.399   0.471   6.534  0.6466 -0.1785  1.9056
   27MOL0     H 3605   6.714   0.274   6.411 -1.1525 -1.2553  1.1806
   27MOL0     H 3606   6.874  -0.032   6.429  1.0056 -0.6906 -2.4382
   27MOL0     H 3607   6.915   0.067   6.290  0.7155 -3.0345 -0.4701
   27MOL0     H 3608   6.893   0.134   6.459 -0.1210 -1.0486  0.8055
   27MOL0     H 3609   6.425  -0.459   6.322  1.5800 -0.1507  4.1540
   27MOL0     H 3610   6.456  -0.720   6.275  1.0236 -2.8146 -3.6605
   27MOL0     H 3611   6.501  -0.917   6.171 -1.3180 -0.8116  3.4794
   27MOL0     H 3612   6.648  -1.013   6.183 -0.2356 -0.1019 -1.6466
   27MOL0     H 3613   6.576  -0.848   6.428 -1.9865  0.4898 -0.1636
   27MOL0     H 3614   6.469  -0.982   6.399  0.2280  0.7337  2.1169
   27MOL0     H 3615   6.691  -1.011   6.545  1.6082  0.4239  0.6146
   27MOL0     H 3616   6.770  -0.988   6.393  0.3113  0.0425 -0.7633
   27MOL0     H 3617   6.602  -1.226   6.479 -2.5750  2.5714  1.3405
   27MOL0     H 3618   6.664  -1.204   6.306  3.7196 -0.4622  0.6349
   27MOL0     H 3619   6.821  -1.234   6.557  0.0428  1.1708 -0.2906
   27MOL0     H 3620   6.890  -1.186   6.401  0.0901 -0.5297  0.9609
   27MOL0     H 3621   6.766  -1.466   6.470  1.9253 -0.5090  3.0950
   27MOL0     H 3622   6.825  -1.422   6.311  0.6935  0.9500 -0.2632
   27MOL0     H 3623   6.972  -1.421   6.572  3.3347  2.5885  0.4416
   27MOL0     H 3624   7.045  -1.352   6.433  6.1624 -3.2680  2.8615
   27MOL0     H 3625   7.030  -1.605   6.326  0.9767 -1.0459  0.8948
   27MOL0     H 3626   6.922  -1.628   6.467 -0.7942  0.9421  0.7382
   27MOL0     H 3627   6.837  -0.660   6.155  0.8365  1.9012  2.9217
   27MOL0     H 3628   6.818  -0.407   6.156 -1.6596  0.0033 -4.6246
   27MOL0     H 3629   6.427  -0.088   6.241  0.6864 -0.7753 -1.6632
   27MOL0     H 3630   6.330   0.145   6.294  0.1356  4.7283  3.8291
   27MOL0     H 3631   7.329   0.562   7.145 -3.7364 -0.4901  1.1764
   27MOL0     H 3632   7.458   0.369   7.019 -1.9431  2.7189 -0.3118
   27MOL0     H 3633   7.937   0.317   6.930 -0.7465  0.5772 -0.7076
   27MOL0     H 3634   8.087   0.186   6.822  0.9001 -0.9543 -0.6511
   27MOL0     H 3635   8.236  -0.099   6.662  0.6100  0.8186 -0.9628
   27MOL0     H 3636   8.189   0.067   6.693 -0.6589 -0.6397 -1.9307
   27MOL0     H 3637   8.268   0.017   6.939 -1.3917 -0.1689 -1.5739
   27MOL0     H 3638   8.391   0.001   6.819  0.5221 -0.1704  1.6347
   27MOL0     H 3639   8.354  -0.252   6.821  0.8960 -0.3208  0.9212
   27MOL0     H 3640   8.225  -0.232   6.939 -0.3572 -1.9031 -1.8359
   27MOL0     H 3641   8.400  -0.286   7.070 -2.3726 -0.3221 -0.2412
   27MOL0     H 3642   8.424  -0.104   7.083  2.3595  0.3658 -1.5418
   27MOL0     H 3643   8.745  -0.195   6.837 -1.6172 -1.0541 -1.5550
   27MOL0     H 3644   7.838  -0.156   6.902 -1.5008  0.8999  2.3719
   27MOL0     H 3645   7.681  -0.017   7.017 -1.4081  1.5158 -2.5232
   28MOL0     O 3646   8.688   9.048   0.813  0.5574 -0.1173  0.8004
   28MOL0     C 3647   8.670   8.976   0.716  0.0468 -0.4483  0.5420
   28MOL0     O 3648   8.548   8.962   0.645  0.1964  0.1727  0.1244
   28MOL0     C 3649   8.439   9.036   0.686 -0.1560 -0.2145  1.0067
   28MOL0     C 3650   8.321   8.968   0.715  0.5104 -0.1927 -0.4071
   28MOL0     C 3651   8.207   9.030   0.761  1.1303  0.4612 -0.0750
   28MOL0     C 3652   8.205   9.170   0.774 -0.4092  0.7078 -0.1752
   28MOL0     O 3653   8.105   9.249   0.824  0.1039 -0.3209  0.5893
   28MOL0     C 3654   8.010   9.168   0.892 -0.5979  0.3248 -1.1044
   28MOL0     C 3655   7.938   9.253   0.994 -0.0789 -0.5729 -0.1164
   28MOL0     C 3656   7.834   9.354   0.939  0.2288 -0.6655 -0.1175
   28MOL0     C 3657   7.730   9.410   1.038  0.1247  0.7068 -0.1315
   28MOL0     C 3658   7.667   9.525   0.965  0.1677  0.5765  0.4624
   28MOL0     C 3659   7.573   9.599   1.059  0.8205 -0.0216  1.0885
   28MOL0     C 3660   7.482   9.699   0.979 -0.5214 -1.3801 -0.9430
   28MOL0     C 3661   7.384   9.755   1.084  0.2982 -0.2285 -0.4720
   28MOL0     N 3662   7.404   9.888   1.143  0.2902  0.0177 -0.0514
   28MOL0     C 3663   7.315   9.929   1.247  1.1303 -0.3890  0.0451
   28MOL0     C 3664   7.370  10.052   1.279  0.2817  0.3875  0.1657
   28MOL0     C 3665   7.325  10.135   1.390  0.0786  0.2544  0.0658
   28MOL0     C 3666   7.173  10.158   1.398  0.4282  0.1938  0.0754
   28MOL0     C 3667   7.113  10.249   1.507 -1.5379  0.2492 -1.3036
   28MOL0     C 3668   6.985  10.322   1.470  0.0656 -0.3401 -0.5385
   28MOL0     O 3669   6.908  10.233   1.385 -0.4355  0.1926  0.1412
   28MOL0     C 3670   6.776  10.237   1.402  0.6013 -0.4557 -0.2376
   28MOL0     C 3671   6.706  10.356   1.413 -0.1964 -0.0211 -0.1272
   28MOL0     C 3672   6.569  10.357   1.432  0.0135 -1.0764  0.1631
   28MOL0     C 3673   6.503  10.492   1.465 -0.0780  0.7805 -0.2430
   28MOL0     C 3674   6.496  10.241   1.458  1.0179  0.4980  0.5639
   28MOL0     C 3675   6.351  10.231   1.472  1.3820 -0.0332 -0.4180
   28MOL0     O 3676   6.274  10.332   1.418 -0.0249 -1.0117 -0.0120
   28MOL0     C 3677   6.142  10.333   1.444 -0.7432 -0.2798  0.3817
   28MOL0     C 3678   6.077  10.287   1.564 -0.3860  0.1675  0.7809
   28MOL0     C 3679   5.941  10.322   1.578  0.9804  0.1332  0.1724
   28MOL0     C 3680   5.872  10.391   1.477  0.5036 -0.1417  0.4897
   28MOL0     O 3681   5.741  10.414   1.503 -0.1300  0.1775 -0.3531
   28MOL0     C 3682   5.668  10.485   1.404  0.1034 -0.6927  0.3756
   28MOL0     C 3683   5.524  10.494   1.456  0.3913 -0.0733  0.3576
   28MOL0     C 3684   5.435  10.372   1.452 -0.0708 -0.5971  0.1401
   28MOL0     C 3685   5.370  10.339   1.311  0.1825 -0.5299  0.4426
   28MOL0     C 3686   5.258  10.237   1.319 -0.3882  0.2423 -0.4357
   28MOL0     C 3687   5.320  10.095   1.329  0.5496 -0.4520  0.7563
   28MOL0     C 3688   5.201   9.997   1.330 -0.7080  0.4810  0.4222
   28MOL0     C 3689   5.153   9.966   1.470 -1.3755 -0.4210  0.3673
   28MOL0    Cl 3690   5.015   9.852   1.463  0.6215 -0.2692 -0.3491
   28MOL0     C 3691   5.935  10.416   1.361 -0.0160  0.3072  0.2916
   28MOL0     C 3692   6.066  10.390   1.343  0.3513 -0.0637  0.5505
   28MOL0     O 3693   6.309  10.120   1.498  0.6146  0.7152  0.5977
   28MOL0     C 3694   6.572  10.118   1.446 -0.6073 -0.5433 -0.4041
   28MOL0     C 3695   6.705  10.118   1.418 -0.2095  0.5194  0.6514
   28MOL0     N 3696   7.479  10.078   1.202 -0.2923 -0.0302 -1.4932
   28MOL0     N 3697   7.504   9.976   1.129 -0.7732  0.4239  0.5502
   28MOL0     C 3698   8.319   9.232   0.735 -0.5642  0.0174  1.1610
   28MOL0     C 3699   8.437   9.175   0.684 -0.2136  0.2265  1.0365
   28MOL0     C 3700   8.783   8.919   0.647  0.0885 -0.3005  0.5990
   28MOL0     C 3701   8.781   8.809   0.559  0.1580 -0.7812  0.9136
   28MOL0     C 3702   8.898   8.749   0.517  0.7573  1.7766 -0.0531
   28MOL0     C 3703   9.022   8.786   0.570  0.0644  0.2874  0.2535
   28MOL0     O 3704   9.134   8.723   0.547  0.5055 -0.4298  0.4064
   28MOL0     C 3705   9.198   8.777   0.428 -0.4664 -0.0436  0.1850
   28MOL0     C 3706   9.329   8.688   0.398  0.2047 -0.4908  0.3378
   28MOL0     C 3707   9.397   8.744   0.262  0.0295  0.6970  0.1564
   28MOL0     C 3708   9.537   8.663   0.248  0.3570 -0.6418  0.1787
   28MOL0     C 3709   9.524   8.528   0.193  0.2246  0.4852 -0.8263
   28MOL0     C 3710   9.507   8.434   0.125 -0.3829  0.1387 -0.5577
   28MOL0     C 3711   9.023   8.894   0.663 -0.1344  0.0591  0.8458
   28MOL0     C 3712   8.909   8.961   0.693 -0.1615 -0.5462 -0.1696
   28MOL0     H 3713   8.310   8.862   0.695 -0.6588 -0.1443 -0.0952
   28MOL0     H 3714   8.117   8.971   0.773  1.2478  0.3025  0.0174
   28MOL0     H 3715   7.932   9.127   0.826 -3.3085  1.2824  1.2771
   28MOL0     H 3716   8.055   9.094   0.958  0.7595  2.1251  0.0906
   28MOL0     H 3717   7.888   9.181   1.059 -1.6912 -0.9832 -1.7379
   28MOL0     H 3718   8.008   9.312   1.053  0.1882 -0.4023 -0.6011
   28MOL0     H 3719   7.889   9.436   0.892 -6.2848  3.5128 -1.7279
   28MOL0     H 3720   7.774   9.302   0.863  2.7703  0.4512 -3.0931
   28MOL0     H 3721   7.661   9.330   1.066  1.1207 -0.4839 -1.0065
   28MOL0     H 3722   7.788   9.453   1.121  0.1904  3.8624 -1.6802
   28MOL0     H 3723   7.743   9.598   0.934  4.2131 -2.4027  2.3382
   28MOL0     H 3724   7.609   9.496   0.877  0.7513 -2.1271  0.8703
   28MOL0     H 3725   7.509   9.522   1.104  0.4816 -2.6350 -3.3060
   28MOL0     H 3726   7.626   9.646   1.143 -1.3853 -1.6969  3.6074
   28MOL0     H 3727   7.541   9.786   0.949 -0.0481 -1.6626 -0.8443
   28MOL0     H 3728   7.433   9.648   0.895  0.9245 -0.9584 -2.0802
   28MOL0     H 3729   7.379   9.681   1.165  0.7107  2.7658  2.5193
   28MOL0     H 3730   7.286   9.762   1.036  0.8684  0.6553 -1.5624
   28MOL0     H 3731   7.224   9.883   1.284  1.7271 -3.3541 -1.8493
   28MOL0     H 3732   7.364  10.092   1.483 -0.1556  1.6473  0.8278
   28MOL0     H 3733   7.367  10.235   1.377 -1.6043  0.6379 -4.2819
   28MOL0     H 3734   7.124  10.061   1.408 -0.6963  1.0053  4.3068
   28MOL0     H 3735   7.133  10.202   1.306 -2.2927  0.3031  1.2306
   28MOL0     H 3736   7.195  10.310   1.546 -1.9685  0.6472 -1.0179
   28MOL0     H 3737   7.090  10.183   1.591 -0.9049  0.0754 -1.2585
   28MOL0     H 3738   7.009  10.417   1.422 -0.8906  0.0692 -0.2192
   28MOL0     H 3739   6.925  10.350   1.557 -0.0595 -0.3486 -0.6224
   28MOL0     H 3740   6.758  10.451   1.406  1.5003 -1.0279 -2.6238
   28MOL0     H 3741   6.415  10.496   1.529 -0.5435  0.0077 -0.8232
   28MOL0     H 3742   6.583  10.548   1.516 -1.2170  0.1464  2.3970
   28MOL0     H 3743   6.490  10.533   1.364 -0.4755 -0.9599 -0.9321
   28MOL0     H 3744   6.121  10.219   1.637 -2.4583  0.0557  2.0205
   28MOL0     H 3745   5.894  10.279   1.666 -0.5375  0.2963 -0.5242
   28MOL0     H 3746   5.696  10.590   1.394  1.3991 -1.1758 -1.4723
   28MOL0     H 3747   5.675  10.426   1.312  0.5020 -0.1223  0.0350
   28MOL0     H 3748   5.521  10.538   1.556  0.1493  3.3687 -1.0413
   28MOL0     H 3749   5.475  10.578   1.406  0.1340 -1.0410 -1.0666
   28MOL0     H 3750   5.356  10.397   1.524  0.5499  1.7096  0.1007
   28MOL0     H 3751   5.491  10.284   1.482 -2.8562 -2.7872 -0.6957
   28MOL0     H 3752   5.324  10.430   1.272  1.4381 -0.4336 -0.8739
   28MOL0     H 3753   5.449  10.315   1.239  0.5972  2.6112 -0.3055
   28MOL0     H 3754   5.202  10.252   1.226 -0.6221  2.3284 -0.0088
   28MOL0     H 3755   5.191  10.251   1.404  2.3261 -3.1837  2.5667
   28MOL0     H 3756   5.385  10.080   1.243  0.2663  0.3662  0.3921
   28MOL0     H 3757   5.379  10.087   1.421 -0.2568  0.1612  1.3442
   28MOL0     H 3758   5.242   9.902   1.294  1.4151  0.2967  2.9808
   28MOL0     H 3759   5.116  10.021   1.266 -0.2919  1.8455  0.3481
   28MOL0     H 3760   5.128  10.056   1.527 -1.0114  0.4503 -0.8204
   28MOL0     H 3761   5.223   9.906   1.528 -2.1873 -1.1364  0.6417
   28MOL0     H 3762   5.884  10.456   1.275 -3.3995 -0.3590  1.8310
   28MOL0     H 3763   6.120  10.422   1.254  3.4758 -1.4504  1.7748
   28MOL0     H 3764   6.522  10.023   1.455  0.2398 -0.8666  1.3502
   28MOL0     H 3765   6.751  10.021   1.400 -2.9062 -0.6765 -0.3492
   28MOL0     H 3766   8.328   9.339   0.755  3.9626 -0.2414  1.4963
   28MOL0     H 3767   8.519   9.237   0.650 -0.8340 -0.9119 -3.0783
   28MOL0     H 3768   8.687   8.767   0.526  0.7319 -1.9058  0.6558
   28MOL0     H 3769   8.901   8.677   0.436 -0.0021  2.7540 -0.9793
   28MOL0     H 3770   9.126   8.776   0.345 -0.6765  2.9040  0.2336
   28MOL0     H 3771   9.237   8.879   0.440 -0.7757  0.0120  0.7508
   28MOL0     H 3772   9.312   8.582   0.377  0.2414 -0.2560 -0.9307
   28MOL0     H 3773   9.399   8.699   0.482  2.2519  0.3859 -1.3851
   28MOL0     H 3774   9.421   8.849   0.278 -2.2010  1.3636 -0.4479
   28MOL0     H 3775   9.323   8.743   0.180 -1.4194 -1.0054  1.3948
   28MOL0     H 3776   9.590   8.662   0.344 -0.8589  2.1079  0.9841
   28MOL0     H 3777   9.587   8.725   0.172  0.5255 -2.2940 -1.1119
   28MOL0     H 3778   9.473   8.357   0.059  0.8277 -1.2903  0.4085
   28MOL0     H 3779   9.126   8.915   0.690  1.7916 -0.4259 -4.8767
   28MOL0     H 3780   8.922   9.043   0.764  0.0140  1.4898 -2.4296
   29MOL0     O 3781   6.076   3.954   5.500 -1.3588 -0.3821  0.2584
   29MOL0     C 3782   6.178   3.883   5.476 -0.6251 -0.0665 -0.5209
   29MOL0     O 3783   6.177   3.750   5.471  0.1413  0.8124 -0.3447
   29MOL0     C 3784   6.063   3.682   5.494  0.3665  0.6884  0.0095
   29MOL0     C 3785   6.056   3.582   5.591  0.2868  0.3353 -0.0247
   29MOL0     C 3786   5.943   3.494   5.608  1.0086 -1.5201 -0.5387
   29MOL0     C 3787   5.830   3.501   5.521 -0.9202 -0.2090  0.4697
   29MOL0     O 3788   5.715   3.420   5.543  0.4227 -0.2832 -0.5514
   29MOL0     C 3789   5.603   3.423   5.444  0.4202 -0.3478  1.2469
   29MOL0     C 3790   5.488   3.333   5.487 -0.2368  0.2786  0.5856
   29MOL0     C 3791   5.416   3.399   5.612  0.1110 -0.4950 -0.7368
   29MOL0     C 3792   5.304   3.304   5.665 -0.6876 -0.3043 -0.2946
   29MOL0     C 3793   5.215   3.379   5.751 -0.0083  0.0758 -1.5873
   29MOL0     C 3794   5.092   3.282   5.791  0.6855  0.6657  0.2150
   29MOL0     C 3795   4.994   3.367   5.867  0.3771 -0.1875  0.5476
   29MOL0     C 3796   5.034   3.378   6.007  0.0951 -0.2264 -0.1234
   29MOL0     N 3797   5.034   3.255   6.082 -0.3690 -0.3135  0.2076
   29MOL0     C 3798   4.925   3.193   6.135  0.7101 -0.9230 -0.9295
   29MOL0     C 3799   4.978   3.099   6.218  0.0095  0.3797 -0.8665
   29MOL0     C 3800   4.899   3.015   6.325  0.3093 -0.7165 -0.7684
   29MOL0     C 3801   4.762   2.963   6.276  0.0059 -0.4991 -0.2281
   29MOL0     C 3802   4.672   2.919   6.394 -0.2048  0.3988 -0.1078
   29MOL0     C 3803   4.540   2.857   6.356  0.2502 -0.8509  0.9045
   29MOL0     O 3804   4.436   2.946   6.393  0.0118  0.0583 -0.7107
   29MOL0     C 3805   4.309   2.897   6.380 -0.2945  1.3047  0.3356
   29MOL0     C 3806   4.268   2.785   6.310  0.1825  0.6512 -0.3406
   29MOL0     C 3807   4.136   2.748   6.290  0.2936  0.5076 -0.5222
   29MOL0     C 3808   4.107   2.627   6.204  0.3054 -0.3277 -0.6232
   29MOL0     C 3809   4.038   2.817   6.365 -0.2285  0.6154 -0.0685
   29MOL0     C 3810   3.886   2.793   6.357  0.3191  0.0652  0.0449
   29MOL0     O 3811   3.808   2.894   6.416  0.4231  0.0623  0.3420
   29MOL0     C 3812   3.672   2.876   6.423 -1.2221 -0.7764 -0.1324
   29MOL0     C 3813   3.600   2.899   6.535  0.6918  0.0531 -1.1966
   29MOL0     C 3814   3.457   2.899   6.534 -0.8302  0.4853 -0.5369
   29MOL0     C 3815   3.397   2.871   6.415 -0.0523  0.1800 -0.3957
   29MOL0     O 3816   3.257   2.877   6.419  0.1180 -0.4378 -0.6170
   29MOL0     C 3817   3.206   3.011   6.403  0.0937 -0.5483 -0.1534
   29MOL0     C 3818   3.089   3.011   6.300  0.8625 -0.1821  0.0350
   29MOL0     C 3819   3.141   2.984   6.162 -0.6358  0.1429  0.0751
   29MOL0     C 3820   3.023   2.963   6.067  0.9775 -0.8991  0.8944
   29MOL0     C 3821   3.070   2.973   5.918 -0.2856  0.0402  0.2526
   29MOL0     C 3822   2.983   2.890   5.823 -0.4636  0.1581  0.4812
   29MOL0     C 3823   3.028   2.747   5.842  0.1023 -0.1727 -0.1265
   29MOL0     C 3824   2.924   2.644   5.800 -0.9417 -0.2834 -0.1340
   29MOL0    Cl 3825   2.785   2.650   5.913 -0.2996 -0.2361  0.0849
   29MOL0     C 3826   3.470   2.841   6.300  0.1065 -0.7795 -0.4823
   29MOL0     C 3827   3.606   2.852   6.306  0.1479 -0.4731 -0.4957
   29MOL0     O 3828   3.850   2.698   6.296  0.4676 -0.2042 -0.5145
   29MOL0     C 3829   4.078   2.929   6.436 -0.7845  0.0668 -0.2778
   29MOL0     C 3830   4.209   2.967   6.444 -0.6706 -0.4443  0.0128
   29MOL0     N 3831   5.119   3.112   6.225  0.0171 -0.2624 -0.1921
   29MOL0     N 3832   5.151   3.207   6.141 -0.2328 -0.2534 -0.5027
   29MOL0     C 3833   5.842   3.598   5.429 -0.3335  0.0572  0.0074
   29MOL0     C 3834   5.945   3.695   5.413  0.0104 -0.0317  0.0799
   29MOL0     C 3835   6.303   3.951   5.455 -0.5082 -0.9613 -0.1938
   29MOL0     C 3836   6.420   3.881   5.422  0.2246 -0.7406 -0.3627
   29MOL0     C 3837   6.542   3.950   5.412 -0.7540  0.2048 -0.4044
   29MOL0     C 3838   6.552   4.094   5.417  0.1063  0.6330  0.0459
   29MOL0     O 3839   6.670   4.159   5.400  0.6248  0.0348 -0.0515
   29MOL0     C 3840   6.681   4.294   5.439 -0.0510  0.4584  0.2257
   29MOL0     C 3841   6.828   4.333   5.446  0.3773  0.4138  0.2504
   29MOL0     C 3842   6.915   4.238   5.539  0.0306 -0.3889 -0.0070
   29MOL0     C 3843   7.047   4.303   5.590  0.1611  0.5019  0.5357
   29MOL0     C 3844   7.146   4.215   5.654 -0.1352 -0.9157  0.2631
   29MOL0     C 3845   7.219   4.133   5.693  0.7004 -0.2160  0.2727
   29MOL0     C 3846   6.436   4.165   5.449  0.6012 -0.0946 -0.5063
   29MOL0     C 3847   6.323   4.088   5.480 -0.2413  0.0287 -0.5861
   29MOL0     H 3848   6.128   3.560   5.669  0.6092  0.7271 -0.2096
   29MOL0     H 3849   5.929   3.425   5.690 -1.8154 -0.5447 -0.0725
   29MOL0     H 3850   5.567   3.526   5.433 -2.7175 -1.1803  2.6534
   29MOL0     H 3851   5.647   3.386   5.350 -1.7959  0.3693 -0.1546
   29MOL0     H 3852   5.410   3.314   5.413  0.2469 -1.4160  0.4795
   29MOL0     H 3853   5.534   3.238   5.516  1.0571  0.3845 -1.0192
   29MOL0     H 3854   5.476   3.422   5.700 -0.8094 -1.9397  0.3071
   29MOL0     H 3855   5.373   3.495   5.582  0.4818 -0.6301 -1.7226
   29MOL0     H 3856   5.237   3.269   5.585 -1.9095  1.6832 -0.1926
   29MOL0     H 3857   5.356   3.217   5.706 -2.8467 -0.7681  1.6938
   29MOL0     H 3858   5.276   3.402   5.839 -2.4990 -0.0935  0.2965
   29MOL0     H 3859   5.178   3.472   5.709 -1.9227 -0.5811 -1.4246
   29MOL0     H 3860   5.046   3.230   5.706  0.2655 -1.4048  1.6309
   29MOL0     H 3861   5.122   3.196   5.853  1.8270 -0.4953 -1.8393
   29MOL0     H 3862   4.987   3.466   5.821 -0.9623 -0.5824 -0.1594
   29MOL0     H 3863   4.891   3.332   5.851  0.2059  1.2400 -1.9828
   29MOL0     H 3864   4.955   3.440   6.050 -1.5007 -0.5791 -2.3868
   29MOL0     H 3865   5.135   3.416   6.022  0.1345 -0.7082  0.9177
   29MOL0     H 3866   4.819   3.209   6.119  0.9247 -2.2339 -4.5477
   29MOL0     H 3867   4.949   2.924   6.358  0.0875  0.5092  3.6129
   29MOL0     H 3868   4.884   3.075   6.416  0.8551 -1.4033 -0.2194
   29MOL0     H 3869   4.782   2.880   6.208  2.0675  0.8092 -1.3094
   29MOL0     H 3870   4.715   3.042   6.219  2.1380 -0.7418 -2.4948
   29MOL0     H 3871   4.644   3.005   6.455  1.4085 -0.1252  1.4671
   29MOL0     H 3872   4.729   2.854   6.461 -0.8304  0.6921  0.7251
   29MOL0     H 3873   4.524   2.756   6.395  1.0795 -2.5950 -2.8148
   29MOL0     H 3874   4.533   2.855   6.247  1.2066  0.4516  0.7876
   29MOL0     H 3875   4.348   2.725   6.268  2.9683  2.0798  2.5070
   29MOL0     H 3876   4.056   2.557   6.271  0.0743  2.8016  2.7721
   29MOL0     H 3877   4.050   2.651   6.114 -2.6580  1.0515  1.4574
   29MOL0     H 3878   4.205   2.586   6.178  1.1640 -0.8006  2.8452
   29MOL0     H 3879   3.654   2.924   6.626  0.7167 -1.7730 -0.6791
   29MOL0     H 3880   3.388   2.908   6.618  0.0579  0.1927  0.2457
   29MOL0     H 3881   3.160   3.050   6.494  2.0517 -1.3843  1.2525
   29MOL0     H 3882   3.288   3.078   6.376  1.9316 -2.7163 -0.2140
   29MOL0     H 3883   3.024   2.926   6.322  0.7541 -0.0239  0.3311
   29MOL0     H 3884   3.031   3.104   6.300  0.9627 -0.1153 -0.5729
   29MOL0     H 3885   3.208   2.898   6.154 -0.0637  0.2929  2.4825
   29MOL0     H 3886   3.210   3.061   6.126  0.0178 -0.6551 -0.4133
   29MOL0     H 3887   2.979   2.864   6.082 -1.3667 -0.1236 -0.3469
   29MOL0     H 3888   2.946   3.038   6.087  0.9801 -0.7240  0.2545
   29MOL0     H 3889   3.172   2.933   5.911 -0.6038 -0.5067 -2.1376
   29MOL0     H 3890   3.062   3.072   5.873  1.7527 -0.2127 -0.8010
   29MOL0     H 3891   2.876   2.908   5.834 -0.9529 -1.6261 -1.0927
   29MOL0     H 3892   3.000   2.920   5.720  0.4539 -1.1808  0.2263
   29MOL0     H 3893   3.053   2.713   5.943  3.3415 -2.4878 -1.5237
   29MOL0     H 3894   3.113   2.727   5.775 -0.4430  0.3582 -0.9897
   29MOL0     H 3895   2.975   2.547   5.800  0.7887  0.5742  0.0368
   29MOL0     H 3896   2.896   2.664   5.697  3.0229  0.7079 -1.2236
   29MOL0     H 3897   3.415   2.803   6.214  1.7207 -2.0316 -1.0104
   29MOL0     H 3898   3.663   2.852   6.214 -1.5694  2.1229 -1.6792
   29MOL0     H 3899   4.009   2.987   6.497 -0.6728  0.5966 -0.6502
   29MOL0     H 3900   4.226   3.056   6.505 -0.5961  0.2624 -1.0097
   29MOL0     H 3901   5.760   3.612   5.359  0.2255  0.1019 -0.6460
   29MOL0     H 3902   5.933   3.772   5.338  0.0486  2.1721  2.2017
   29MOL0     H 3903   6.413   3.773   5.408 -1.6496 -0.4210 -2.7102
   29MOL0     H 3904   6.632   3.896   5.383 -1.6742 -1.4507 -0.2843
   29MOL0     H 3905   6.622   4.350   5.366  1.2574 -1.0521 -2.1263
   29MOL0     H 3906   6.643   4.318   5.539  1.7602 -1.4025  1.4484
   29MOL0     H 3907   6.837   4.442   5.452 -2.3843  0.6775  0.5766
   29MOL0     H 3908   6.873   4.311   5.349  0.1960 -0.3669  0.3338
   29MOL0     H 3909   6.937   4.147   5.482  1.8115 -0.0742  0.1171
   29MOL0     H 3910   6.858   4.203   5.625  0.6566 -0.6683  0.3042
   29MOL0     H 3911   7.028   4.385   5.661 -0.6061  0.1724  0.7255
   29MOL0     H 3912   7.092   4.349   5.502  0.1887 -0.8245 -0.1646
   29MOL0     H 3913   7.281   4.049   5.717 -0.5041 -1.5761 -1.0988
   29MOL0     H 3914   6.423   4.271   5.466 -2.6474 -0.7830  2.6544
   29MOL0     H 3915   6.242   4.145   5.525 -0.2325 -0.5768  0.2204
   30MOL0     O 3916   8.066   0.669   8.896 -0.9954 -0.6307  0.2155
   30MOL0     C 3917   8.145   0.641   8.804 -0.2663  1.6826 -0.1207
   30MOL0     O 3918   8.113   0.636   8.666  0.0368  0.5135 -0.3409
   30MOL0     C 3919   7.999   0.695   8.625  0.3455 -0.1759 -0.3958
   30MOL0     C 3920   7.940   0.818   8.677 -0.4298  0.7503  0.2589
   30MOL0     C 3921   7.826   0.868   8.618 -0.5282 -0.0811 -0.0152
   30MOL0     C 3922   7.767   0.797   8.513  0.6788  0.6083  0.0274
   30MOL0     O 3923   7.666   0.870   8.463  0.3568 -0.5066  0.2369
   30MOL0     C 3924   7.568   0.806   8.374 -0.6032  0.2592  0.0657
   30MOL0     C 3925   7.433   0.879   8.385  0.3496 -0.1534  0.9746
   30MOL0     C 3926   7.314   0.813   8.312  0.0100  0.1290  1.3425
   30MOL0     C 3927   7.310   0.826   8.162  0.3403 -0.1376 -0.0472
   30MOL0     C 3928   7.195   0.743   8.108 -1.1082 -0.0568  0.4335
   30MOL0     C 3929   7.056   0.806   8.143  0.7941  0.0926 -0.1648
   30MOL0     C 3930   6.940   0.714   8.096 -0.4632 -0.6933  0.5726
   30MOL0     C 3931   6.950   0.676   7.940  0.6434 -0.3835 -0.6504
   30MOL0     N 3932   6.831   0.607   7.907  0.0604  0.7564 -0.1262
   30MOL0     C 3933   6.706   0.657   7.911  0.4462  0.1335  0.0537
   30MOL0     C 3934   6.625   0.550   7.886 -0.0273 -0.2181  1.5471
   30MOL0     C 3935   6.475   0.570   7.878  0.2349  0.4818  0.7434
   30MOL0     C 3936   6.421   0.542   8.024  1.1444 -0.2584 -0.0630
   30MOL0     C 3937   6.276   0.569   8.025 -0.3015 -0.2339  0.6451
   30MOL0     C 3938   6.201   0.533   8.148  0.5531  0.2135 -0.9077
   30MOL0     O 3939   6.069   0.589   8.129  0.1735 -0.1081 -0.6067
   30MOL0     C 3940   5.971   0.575   8.218  0.1694 -0.4360 -0.4497
   30MOL0     C 3941   5.978   0.486   8.324  0.1638  0.2301 -0.0857
   30MOL0     C 3942   5.867   0.463   8.407 -0.1735 -0.1842 -0.0115
   30MOL0     C 3943   5.883   0.375   8.522  0.3108  0.8294  0.6067
   30MOL0     C 3944   5.752   0.549   8.390  0.0569 -0.6102  0.8921
   30MOL0     C 3945   5.632   0.544   8.472 -0.6544  0.5672 -0.3351
   30MOL0     O 3946   5.554   0.653   8.458 -0.1927 -0.4188  0.3118
   30MOL0     C 3947   5.424   0.641   8.508 -0.1956 -0.9598  0.2008
   30MOL0     C 3948   5.392   0.623   8.642  0.3552 -1.2964 -0.0689
   30MOL0     C 3949   5.262   0.600   8.692  1.0544  0.7908 -0.3442
   30MOL0     C 3950   5.164   0.603   8.599  0.2073  0.4826 -1.0083
   30MOL0     O 3951   5.023   0.579   8.623  0.5374 -0.0422  0.7578
   30MOL0     C 3952   4.969   0.561   8.754 -0.2751  0.2030 -0.7960
   30MOL0     C 3953   4.816   0.557   8.756 -0.7210 -0.4351  0.0492
   30MOL0     C 3954   4.748   0.690   8.728  0.6127  0.3012  1.4332
   30MOL0     C 3955   4.593   0.664   8.710 -0.2090  1.0936 -0.9908
   30MOL0     C 3956   4.515   0.787   8.673 -0.2163  0.3241 -0.1390
   30MOL0     C 3957   4.366   0.755   8.629 -0.3680 -0.6926 -0.2623
   30MOL0     C 3958   4.299   0.881   8.570  0.3165  0.1447  1.1661
   30MOL0     C 3959   4.267   0.992   8.660  1.1067 -0.7059 -0.7203
   30MOL0    Cl 3960   4.190   1.128   8.562  0.2461 -0.1014 -0.0104
   30MOL0     C 3961   5.191   0.617   8.464 -1.0208  0.4970 -1.4466
   30MOL0     C 3962   5.324   0.629   8.413  0.7221  0.0164  0.2036
   30MOL0     O 3963   5.605   0.448   8.548 -0.4094  0.2755  0.8406
   30MOL0     C 3964   5.755   0.654   8.289 -0.6910  0.6948 -0.0256
   30MOL0     C 3965   5.860   0.658   8.203 -0.0001  0.0152 -0.1631
   30MOL0     N 3966   6.702   0.439   7.853 -0.4185 -0.5802 -0.7686
   30MOL0     N 3967   6.824   0.471   7.863  0.3500 -0.3064  1.0917
   30MOL0     C 3968   7.826   0.681   8.457 -0.0663  0.0442 -0.8014
   30MOL0     C 3969   7.940   0.624   8.519  0.9004 -1.2190 -0.6840
   30MOL0     C 3970   8.268   0.569   8.846  0.2790  0.1440  0.0888
   30MOL0     C 3971   8.346   0.494   8.758 -0.5312  0.4120 -1.5882
   30MOL0     C 3972   8.452   0.425   8.808 -0.8525  0.9893 -0.7609
   30MOL0     C 3973   8.495   0.442   8.940 -0.4696 -0.2420  0.0627
   30MOL0     O 3974   8.603   0.375   8.982 -0.1713  0.8931 -0.4006
   30MOL0     C 3975   8.676   0.421   9.103  0.2793 -0.3146  0.2832
   30MOL0     C 3976   8.820   0.367   9.098  0.9779  0.0260 -0.0415
   30MOL0     C 3977   8.898   0.386   8.966  0.1099  0.7064  0.5699
   30MOL0     C 3978   8.901   0.528   8.905 -0.3017  0.2986  0.9583
   30MOL0     C 3979   9.022   0.568   8.829 -0.4168  0.4748 -1.2175
   30MOL0     C 3980   9.133   0.598   8.787 -0.1228  0.4802 -0.0773
   30MOL0     C 3981   8.422   0.523   9.028 -0.9258 -0.3908 -0.5698
   30MOL0     C 3982   8.296   0.577   8.984 -1.0190  0.4338 -0.2709
   30MOL0     H 3983   7.981   0.874   8.760 -0.0818  0.2103  0.4561
   30MOL0     H 3984   7.769   0.958   8.641 -0.1573 -0.1853  1.4658
   30MOL0     H 3985   7.613   0.807   8.274  0.5038 -0.7409  0.5255
   30MOL0     H 3986   7.569   0.699   8.398 -0.0349 -0.3581 -2.4280
   30MOL0     H 3987   7.418   0.899   8.491 -1.8689  2.9038  0.2161
   30MOL0     H 3988   7.449   0.972   8.330  3.4793 -0.0316  1.8900
   30MOL0     H 3989   7.313   0.707   8.337  0.0421  0.3551  2.3498
   30MOL0     H 3990   7.222   0.854   8.356  0.9255  0.4192  3.0966
   30MOL0     H 3991   7.301   0.932   8.137 -0.1264  0.8013  3.5998
   30MOL0     H 3992   7.396   0.782   8.111  0.1534 -0.5386 -0.0226
   30MOL0     H 3993   7.208   0.752   8.000 -2.2122  2.4360  0.4267
   30MOL0     H 3994   7.199   0.636   8.130 -1.8422 -0.0185  0.8210
   30MOL0     H 3995   7.050   0.813   8.252  0.3876  2.4825 -0.3025
   30MOL0     H 3996   7.041   0.905   8.099 -0.7245  0.3627  0.8692
   30MOL0     H 3997   6.934   0.627   8.162  1.4246 -0.8809  0.5443
   30MOL0     H 3998   6.856   0.783   8.104  0.1607  1.3591 -5.6017
   30MOL0     H 3999   7.034   0.609   7.921  0.5195 -0.8898  0.4910
   30MOL0     H 4000   6.966   0.759   7.871  0.1202 -1.0390 -1.5874
   30MOL0     H 4001   6.675   0.758   7.935  0.6522 -0.0989  1.3594
   30MOL0     H 4002   6.453   0.670   7.839  1.2754  0.3635 -0.2165
   30MOL0     H 4003   6.437   0.492   7.812  1.6701 -1.9749  2.6810
   30MOL0     H 4004   6.473   0.606   8.095  1.4711 -0.3683 -0.1985
   30MOL0     H 4005   6.443   0.441   8.060  2.2795 -0.9800 -2.5264
   30MOL0     H 4006   6.219   0.537   7.937  1.6612 -1.0042 -0.3943
   30MOL0     H 4007   6.275   0.678   8.020  1.1875 -0.2655 -0.8399
   30MOL0     H 4008   6.248   0.569   8.239 -0.4418  1.1495 -0.7456
   30MOL0     H 4009   6.205   0.425   8.162  4.0832  0.4763  1.0515
   30MOL0     H 4010   6.067   0.426   8.338 -1.1094 -1.8758 -0.5061
   30MOL0     H 4011   5.805   0.299   8.526  0.9085  0.0046 -1.6585
   30MOL0     H 4012   5.977   0.319   8.514  0.1652  0.5085  1.1300
   30MOL0     H 4013   5.881   0.442   8.609 -0.8337  2.0762 -0.3286
   30MOL0     H 4014   5.478   0.617   8.707  0.7797  1.8163 -0.2203
   30MOL0     H 4015   5.244   0.581   8.797 -2.7005  1.4906 -0.7132
   30MOL0     H 4016   5.002   0.467   8.799 -0.3372  0.9936  1.0054
   30MOL0     H 4017   5.001   0.634   8.829 -1.3927  0.6944 -0.7812
   30MOL0     H 4018   4.783   0.499   8.669 -3.0476  0.6239  0.1379
   30MOL0     H 4019   4.793   0.509   8.851  1.9145  1.2967  1.7000
   30MOL0     H 4020   4.773   0.733   8.631 -0.5497  3.3511  2.3592
   30MOL0     H 4021   4.779   0.756   8.810  2.5969 -1.0660  1.8471
   30MOL0     H 4022   4.591   0.596   8.624 -1.4100 -2.1158  1.3573
   30MOL0     H 4023   4.544   0.617   8.796  0.0104  1.3707 -0.7116
   30MOL0     H 4024   4.568   0.841   8.593 -3.2719  1.1786 -1.7439
   30MOL0     H 4025   4.502   0.849   8.762  1.7643  2.1305 -0.9961
   30MOL0     H 4026   4.355   0.673   8.557  1.0858 -1.3203  0.2136
   30MOL0     H 4027   4.309   0.725   8.718  0.2010  2.4326  1.2863
   30MOL0     H 4028   4.210   0.847   8.517  0.8617 -1.8748  1.4805
   30MOL0     H 4029   4.368   0.921   8.494 -0.5960 -0.6784 -0.1441
   30MOL0     H 4030   4.362   1.038   8.690  0.3528  1.5745 -1.5619
   30MOL0     H 4031   4.204   0.955   8.741  0.6637 -0.1396 -0.7960
   30MOL0     H 4032   5.105   0.611   8.399 -2.6495 -1.8274  0.7324
   30MOL0     H 4033   5.334   0.630   8.305  1.7212  2.5291  0.2639
   30MOL0     H 4034   5.685   0.737   8.287 -4.4987 -2.1787  1.3385
   30MOL0     H 4035   5.862   0.735   8.127 -1.0104  1.5055  1.2512
   30MOL0     H 4036   7.793   0.644   8.361  0.6897  2.7756 -2.2105
   30MOL0     H 4037   7.984   0.536   8.472  0.3643 -1.2518 -1.1263
   30MOL0     H 4038   8.323   0.501   8.653 -0.6270 -1.1674 -1.6915
   30MOL0     H 4039   8.515   0.356   8.753  1.0240  1.5239  0.6176
   30MOL0     H 4040   8.678   0.530   9.108 -1.9776 -0.2423  0.5742
   30MOL0     H 4041   8.629   0.381   9.194 -2.0645 -0.8612 -1.0727
   30MOL0     H 4042   8.815   0.259   9.114  1.0468  0.1535  0.8785
   30MOL0     H 4043   8.872   0.421   9.177 -1.6739 -0.5455  2.2593
   30MOL0     H 4044   8.861   0.317   8.889  1.3436 -0.7095  1.1799
   30MOL0     H 4045   9.003   0.364   8.987  0.7623  4.8018  2.6070
   30MOL0     H 4046   8.881   0.607   8.978  0.8771  2.0564 -0.5446
   30MOL0     H 4047   8.819   0.527   8.833 -0.2230 -4.4318  0.5874
   30MOL0     H 4048   9.236   0.615   8.763  0.5329 -0.2315  1.9599
   30MOL0     H 4049   8.459   0.553   9.126  2.9016 -0.9129 -1.6960
   30MOL0     H 4050   8.236   0.624   9.061 -0.4881 -1.0156  1.0981
   31MOL0     O 4051   0.661   6.065  11.001  0.3240 -0.0235  0.0868
   31MOL0     C 4052   0.772   6.113  11.039  1.2938  0.6050 -0.1127
   31MOL0     O 4053   0.790   6.222  11.114  0.6200  0.1870  0.0134
   31MOL0     C 4054   0.685   6.315  11.129 -0.8899  0.2413 -0.1835
   31MOL0     C 4055   0.722   6.450  11.141  0.1983  0.3639 -0.0122
   31MOL0     C 4056   0.626   6.549  11.152  0.0832  0.5173  0.1657
   31MOL0     C 4057   0.494   6.515  11.162  0.5595 -0.2686  0.7740
   31MOL0     O 4058   0.393   6.606  11.178 -0.4371 -0.0250  0.4509
   31MOL0     C 4059   0.422   6.740  11.165  0.3803  0.2028 -0.3641
   31MOL0     C 4060   0.307   6.830  11.119 -0.0043  0.1258  0.0386
   31MOL0     C 4061   0.353   6.977  11.149  0.2855  0.0185  0.8862
   31MOL0     C 4062   0.240   7.085  11.118  0.4598  0.0872  0.6329
   31MOL0     C 4063   0.101   7.072  11.175 -0.1390  0.2535  0.0432
   31MOL0     C 4064  -0.005   7.167  11.106  0.0993  0.2689 -0.5087
   31MOL0     C 4065  -0.140   7.138  11.165 -0.1969 -0.0821 -0.1772
   31MOL0     C 4066  -0.182   7.229  11.279  0.6633  0.1102  0.1739
   31MOL0     N 4067  -0.283   7.176  11.369  1.0371 -0.0749  0.3603
   31MOL0     C 4068  -0.259   7.077  11.458  0.3194 -0.1476 -0.0399
   31MOL0     C 4069  -0.367   7.065  11.536 -1.5438 -0.1511  0.6134
   31MOL0     C 4070  -0.379   6.959  11.650  0.1031  0.0621 -0.1777
   31MOL0     C 4071  -0.501   6.869  11.623 -0.0761 -0.7944  0.1297
   31MOL0     C 4072  -0.500   6.791  11.500 -0.3323 -0.9604 -0.8866
   31MOL0     C 4073  -0.612   6.685  11.495  1.1268  0.6960  0.1951
   31MOL0     O 4074  -0.621   6.639  11.361 -0.2381  0.1134 -0.0204
   31MOL0     C 4075  -0.729   6.549  11.338 -0.1231 -1.1344  0.2997
   31MOL0     C 4076  -0.692   6.414  11.347  0.1746 -0.6241 -0.3441
   31MOL0     C 4077  -0.778   6.309  11.331  0.4391  0.3846 -0.9117
   31MOL0     C 4078  -0.721   6.176  11.352  0.0700  0.3947  0.2711
   31MOL0     C 4079  -0.919   6.343  11.302 -0.5025  0.4081  0.4909
   31MOL0     C 4080  -1.028   6.239  11.280 -0.2259 -0.2931  0.0951
   31MOL0     O 4081  -1.164   6.279  11.294  0.7661  0.1777 -0.1438
   31MOL0     C 4082  -1.265   6.181  11.310 -0.2418  0.1903  0.5364
   31MOL0     C 4083  -1.399   6.216  11.279  0.5109  0.0059 -0.2016
   31MOL0     C 4084  -1.503   6.127  11.288 -0.1524  0.5271  0.3624
   31MOL0     C 4085  -1.487   5.997  11.329  0.3458  0.0804 -0.5217
   31MOL0     O 4086  -1.601   5.926  11.356  0.7383 -0.3525  0.3638
   31MOL0     C 4087  -1.584   5.798  11.417 -0.1272 -0.7998  0.2613
   31MOL0     C 4088  -1.729   5.774  11.453  0.7401 -0.3841 -0.7202
   31MOL0     C 4089  -1.826   5.785  11.333 -0.5457 -0.2086 -0.4126
   31MOL0     C 4090  -1.968   5.750  11.369 -0.0815  0.1189 -0.7610
   31MOL0     C 4091  -2.032   5.859  11.457  0.4939 -0.8464  0.4440
   31MOL0     C 4092  -2.170   5.831  11.517 -0.5882 -0.7121  0.1903
   31MOL0     C 4093  -2.210   5.925  11.631 -0.3967 -0.4874  0.4626
   31MOL0     C 4094  -2.327   5.891  11.714 -0.4505  0.6448  0.1390
   31MOL0    Cl 4095  -2.318   5.738  11.809  0.1826  0.1906 -0.1102
   31MOL0     C 4096  -1.356   5.957  11.361  0.3734  0.6078 -0.4222
   31MOL0     C 4097  -1.244   6.048  11.357 -0.1165  0.2764  0.4936
   31MOL0     O 4098  -0.996   6.127  11.232  0.3854  1.1768  0.8093
   31MOL0     C 4099  -0.954   6.483  11.307  0.5039 -0.1167 -0.6071
   31MOL0     C 4100  -0.858   6.584  11.317 -0.0064 -0.0010  0.4084
   31MOL0     N 4101  -0.455   7.168  11.496 -0.4875 -1.2983 -0.2096
   31MOL0     N 4102  -0.408   7.232  11.401 -0.4620  0.2660  0.0852
   31MOL0     C 4103   0.455   6.383  11.155  0.5481  0.1948 -0.0153
   31MOL0     C 4104   0.550   6.281  11.153 -1.0121 -0.2385  0.1708
   31MOL0     C 4105   0.894   6.052  10.985 -0.4270 -0.3028 -0.2399
   31MOL0     C 4106   1.014   6.125  10.995  0.0019 -0.2916  0.1998
   31MOL0     C 4107   1.126   6.074  10.924  0.6943 -0.0666  0.1947
   31MOL0     C 4108   1.113   5.958  10.845  0.2702 -0.3505  0.0079
   31MOL0     O 4109   1.214   5.906  10.763  0.5851  0.1206 -0.8356
   31MOL0     C 4110   1.346   5.962  10.757  0.0285  0.6122  0.8329
   31MOL0     C 4111   1.421   5.884  10.654 -0.5832  1.1414 -0.3842
   31MOL0     C 4112   1.566   5.944  10.648 -0.7015  1.1488 -0.1783
   31MOL0     C 4113   1.644   5.893  10.525 -0.2349  0.1011 -0.4453
   31MOL0     C 4114   1.778   5.940  10.526 -0.6602  0.1112 -0.3911
   31MOL0     C 4115   1.895   5.975  10.524  0.2037  0.0439 -0.2537
   31MOL0     C 4116   0.992   5.884  10.845  0.3602 -0.8669  0.4709
   31MOL0     C 4117   0.882   5.932  10.913 -0.4486 -0.1315 -0.8170
   31MOL0     H 4118   0.829   6.467  11.141  0.6811 -2.2345 -0.6056
   31MOL0     H 4119   0.656   6.652  11.133  0.4325  0.0137 -2.3944
   31MOL0     H 4120   0.457   6.775  11.263  0.4807  1.7482 -0.9242
   31MOL0     H 4121   0.500   6.768  11.092  2.7883  3.2352  2.9952
   31MOL0     H 4122   0.278   6.818  11.014 -3.2831 -1.1688  0.9839
   31MOL0     H 4123   0.227   6.795  11.185 -0.3150  1.9527  0.6965
   31MOL0     H 4124   0.375   6.970  11.256 -1.1422 -2.5076  1.1105
   31MOL0     H 4125   0.444   6.996  11.092 -1.0678 -0.8208 -1.6885
   31MOL0     H 4126   0.279   7.182  11.147  1.1123  0.1055 -0.2640
   31MOL0     H 4127   0.243   7.105  11.010 -0.2595 -2.3482  0.0759
   31MOL0     H 4128   0.071   6.967  11.179 -0.5342  0.4011  1.7437
   31MOL0     H 4129   0.114   7.091  11.282  1.9147  1.4062 -0.3819
   31MOL0     H 4130   0.023   7.269  11.132 -2.1490 -0.0067  3.8340
   31MOL0     H 4131  -0.014   7.157  10.997 -2.0511 -0.0654 -0.3464
   31MOL0     H 4132  -0.217   7.147  11.088 -1.5549 -0.4872  1.0669
   31MOL0     H 4133  -0.142   7.033  11.195  2.7063 -0.1690 -0.0242
   31MOL0     H 4134  -0.221   7.319  11.232  1.6854  0.5842  0.2120
   31MOL0     H 4135  -0.087   7.243  11.332  2.8285  0.5585 -3.5194
   31MOL0     H 4136  -0.173   7.012  11.449 -0.6091 -1.3792 -0.3212
   31MOL0     H 4137  -0.287   6.900  11.648  0.3768  0.4852 -0.3020
   31MOL0     H 4138  -0.387   7.010  11.746 -2.6802  0.2983 -0.4364
   31MOL0     H 4139  -0.596   6.924  11.625  0.3602 -0.0339  0.3306
   31MOL0     H 4140  -0.496   6.797  11.705  0.1377 -2.1022 -0.9820
   31MOL0     H 4141  -0.404   6.741  11.486 -0.3484 -1.7135  1.3413
   31MOL0     H 4142  -0.510   6.855  11.412 -1.1146  1.7184  1.0241
   31MOL0     H 4143  -0.707   6.728  11.529  0.2016  0.6063 -2.1020
   31MOL0     H 4144  -0.586   6.605  11.566  1.8568  0.4350 -0.3528
   31MOL0     H 4145  -0.588   6.397  11.369 -0.3783 -2.1066  1.3518
   31MOL0     H 4146  -0.698   6.158  11.457 -0.0658 -1.3059  0.0366
   31MOL0     H 4147  -0.789   6.099  11.314  1.6221 -0.2310 -1.4414
   31MOL0     H 4148  -0.623   6.170  11.302  1.6133 -0.4894  3.1832
   31MOL0     H 4149  -1.423   6.318  11.251  0.8346 -0.5447 -2.7843
   31MOL0     H 4150  -1.599   6.169  11.259  0.0165 -0.5471 -2.0460
   31MOL0     H 4151  -1.549   5.722  11.346 -1.9915 -3.1747  1.7430
   31MOL0     H 4152  -1.521   5.807  11.506 -0.5017 -1.4005  0.5954
   31MOL0     H 4153  -1.740   5.670  11.488  1.5684 -1.1040 -2.4948
   31MOL0     H 4154  -1.760   5.833  11.539  0.0587  1.5044 -2.2027
   31MOL0     H 4155  -1.779   5.724  11.256 -0.6416  0.4878 -1.0351
   31MOL0     H 4156  -1.825   5.883  11.285  0.1798 -0.0453 -0.0894
   31MOL0     H 4157  -2.034   5.736  11.282 -1.5861  0.7251  0.2453
   31MOL0     H 4158  -1.977   5.657  11.425 -1.7500  0.4107 -0.4933
   31MOL0     H 4159  -2.035   5.947  11.393 -0.3503  0.0453  1.6592
   31MOL0     H 4160  -1.972   5.895  11.542  2.1262  0.7969 -1.3189
   31MOL0     H 4161  -2.236   5.837  11.430 -1.5008  0.3390  0.9347
   31MOL0     H 4162  -2.186   5.730  11.556  0.6433 -0.8237  0.4377
   31MOL0     H 4163  -2.228   6.026  11.593  3.4178  0.7989  1.6178
   31MOL0     H 4164  -2.130   5.937  11.704 -0.2954  0.6537  0.1844
   31MOL0     H 4165  -2.418   5.891  11.654  2.0773 -1.2355 -4.2016
   31MOL0     H 4166  -2.333   5.975  11.783  0.1805  0.6563  0.1881
   31MOL0     H 4167  -1.343   5.858  11.403 -1.2319  0.4423 -0.2733
   31MOL0     H 4168  -1.144   6.012  11.379 -0.9204 -2.0289  0.7265
   31MOL0     H 4169  -1.057   6.520  11.307  0.4451  0.3315  4.3780
   31MOL0     H 4170  -0.891   6.685  11.296  1.3182  0.4933  0.6035
   31MOL0     H 4171   0.348   6.362  11.152  0.2691  0.9201  2.3221
   31MOL0     H 4172   0.517   6.178  11.157  1.1663 -0.9723  0.3511
   31MOL0     H 4173   1.023   6.222  11.044 -0.3192 -0.4016  0.4824
   31MOL0     H 4174   1.224   6.121  10.931 -0.6996  3.0751  0.2978
   31MOL0     H 4175   1.351   6.064  10.718  5.5109  1.8683  3.7593
   31MOL0     H 4176   1.391   5.962  10.857 -0.9372  0.8950  1.2864
   31MOL0     H 4177   1.391   5.884  10.549  0.6891  0.2719 -0.7605
   31MOL0     H 4178   1.424   5.783  10.696  0.2883  0.3110 -2.3635
   31MOL0     H 4179   1.622   5.903  10.732 -1.5972 -1.0833 -0.6092
   31MOL0     H 4180   1.569   6.053  10.656  0.8214  1.2209 -1.3753
   31MOL0     H 4181   1.583   5.928  10.441 -1.8492 -0.6932  0.3636
   31MOL0     H 4182   1.652   5.785  10.539  0.2836  0.0579 -0.9996
   31MOL0     H 4183   1.997   6.009  10.524 -0.7317  3.2663 -1.8712
   31MOL0     H 4184   0.977   5.788  10.796  1.8009 -0.7210 -0.3052
   31MOL0     H 4185   0.784   5.885  10.917 -0.8637  0.7409 -0.4478
   32MOL0     O 4186   9.923   5.273   9.018  0.2617 -0.2044 -0.5246
   32MOL0     C 4187  10.040   5.258   9.046  0.5426  0.5232  1.0413
   32MOL0     O 4188  10.098   5.287   9.164  0.0660  0.2312 -0.0885
   32MOL0     C 4189  10.015   5.350   9.256  0.0138 -0.3882  0.8345
   32MOL0     C 4190   9.953   5.282   9.363  0.0385  0.1480  0.4061
   32MOL0     C 4191   9.898   5.347   9.465 -0.6754  0.8006  0.9027
   32MOL0     C 4192   9.876   5.489   9.455  0.3420  0.7397 -0.6911
   32MOL0     O 4193   9.811   5.556   9.560 -0.5629 -0.8008 -0.1353
   32MOL0     C 4194   9.801   5.495   9.691  0.0690 -0.7224 -0.4063
   32MOL0     C 4195   9.741   5.605   9.782 -0.6671  0.3190  0.9112
   32MOL0     C 4196   9.844   5.701   9.839  0.4136  0.8044 -0.0815
   32MOL0     C 4197   9.844   5.832   9.770 -0.0482 -0.2339  0.4897
   32MOL0     C 4198   9.965   5.917   9.813  0.1657  0.3409 -0.2442
   32MOL0     C 4199   9.980   6.051   9.753  0.4294  0.0989  0.1504
   32MOL0     C 4200   9.875   6.138   9.794  0.8053  0.3719 -0.3586
   32MOL0     C 4201   9.846   6.265   9.719 -0.2906  0.7526  0.2463
   32MOL0     N 4202   9.952   6.359   9.749  0.3144 -0.1386  0.3256
   32MOL0     C 4203   9.931   6.487   9.801  0.0608 -0.2393 -0.2485
   32MOL0     C 4204  10.047   6.553   9.794 -0.3682 -0.3405  0.2989
   32MOL0     C 4205  10.079   6.691   9.854 -0.0687 -0.4919 -0.8840
   32MOL0     C 4206  10.002   6.787   9.762  0.0456 -0.0020  0.1604
   32MOL0     C 4207  10.054   6.930   9.788 -0.3525  0.3757 -0.7310
   32MOL0     C 4208   9.960   7.053   9.748  1.0654 -0.2223 -0.0800
   32MOL0     O 4209   9.845   7.064   9.837  0.4622 -0.0523 -0.4664
   32MOL0     C 4210   9.751   7.167   9.817  0.3888  0.3643  0.2807
   32MOL0     C 4211   9.636   7.163   9.901  0.6016  0.4342  0.1219
   32MOL0     C 4212   9.536   7.263   9.898 -0.5900  0.8966  0.7266
   32MOL0     C 4213   9.424   7.240   9.990  0.7036  1.2373 -1.2339
   32MOL0     C 4214   9.548   7.376   9.801 -0.7760  0.2741  0.2950
   32MOL0     C 4215   9.444   7.477   9.788 -0.2624  0.9948  0.1642
   32MOL0     O 4216   9.426   7.549   9.666  0.6852  0.1431 -0.1815
   32MOL0     C 4217   9.303   7.613   9.658 -0.3357  0.3883 -0.7612
   32MOL0     C 4218   9.203   7.563   9.579  0.2395  0.6227  0.2498
   32MOL0     C 4219   9.077   7.633   9.574  0.8197  0.5308  0.3080
   32MOL0     C 4220   9.057   7.745   9.656  0.6426 -0.3897  0.0120
   32MOL0     O 4221   8.941   7.815   9.677 -0.5630 -0.3186 -0.4496
   32MOL0     C 4222   8.846   7.834   9.571 -0.2189  0.2394 -0.0738
   32MOL0     C 4223   8.710   7.746   9.595  0.3262 -0.4526 -0.1220
   32MOL0     C 4224   8.653   7.765   9.746  0.2909  0.0527 -0.0059
   32MOL0     C 4225   8.703   7.652   9.837 -0.4500  0.2356 -0.7214
   32MOL0     C 4226   8.687   7.666   9.991  0.7910  0.3307 -0.7608
   32MOL0     C 4227   8.547   7.626  10.033  0.7488  0.8713  0.3029
   32MOL0     C 4228   8.529   7.518  10.141 -0.1939 -0.7989 -1.1867
   32MOL0     C 4229   8.636   7.404  10.148 -0.0974 -0.1899  0.4687
   32MOL0    Cl 4230   8.629   7.295  10.007 -0.4187  0.3935  0.2139
   32MOL0     C 4231   9.162   7.795   9.729  0.0256  0.0833  0.1778
   32MOL0     C 4232   9.286   7.733   9.724 -0.1722 -0.6066 -0.8971
   32MOL0     O 4233   9.399   7.515   9.895  0.0513 -0.0141 -0.7075
   32MOL0     C 4234   9.660   7.377   9.717  0.2311  0.8250  0.5928
   32MOL0     C 4235   9.764   7.280   9.729  0.0035 -0.3298 -0.4045
   32MOL0     N 4236  10.135   6.474   9.720  0.0198  0.0779  0.5390
   32MOL0     N 4237  10.074   6.360   9.684  0.4026 -0.6289 -0.0596
   32MOL0     C 4238   9.916   5.551   9.342 -0.5131 -0.4640 -0.4466
   32MOL0     C 4239   9.993   5.489   9.247  0.3297 -0.1656 -0.9138
   32MOL0     C 4240  10.130   5.196   8.938  0.1584 -0.2775  0.1758
   32MOL0     C 4241  10.101   5.192   8.800 -0.2264  0.6364  0.5697
   32MOL0     C 4242  10.200   5.158   8.710  0.1430 -0.0776  0.4519
   32MOL0     C 4243  10.323   5.112   8.758  0.9626 -0.7312  1.4519
   32MOL0     O 4244  10.431   5.074   8.676  0.1483 -0.3647 -0.4982
   32MOL0     C 4245  10.412   5.046   8.537  0.7178  0.5630  0.4495
   32MOL0     C 4246  10.517   4.937   8.491  0.4178  1.5905  0.5432
   32MOL0     C 4247  10.663   4.986   8.455  1.9048 -0.1038  0.2534
   32MOL0     C 4248  10.657   5.092   8.344  0.0751 -0.2650  0.3497
   32MOL0     C 4249  10.791   5.126   8.300  0.0534 -0.6342 -0.1204
   32MOL0     C 4250  10.895   5.151   8.252  0.7392 -0.8259 -0.2497
   32MOL0     C 4251  10.344   5.100   8.891  0.9665  1.0271 -0.9291
   32MOL0     C 4252  10.259   5.153   8.987  0.3592 -0.1192  0.5713
   32MOL0     H 4253   9.954   5.173   9.367 -0.8826  0.1042 -0.1873
   32MOL0     H 4254   9.862   5.285   9.547 -0.1231 -1.7302 -0.6499
   32MOL0     H 4255   9.731   5.411   9.690 -0.2468 -0.4597 -0.5925
   32MOL0     H 4256   9.901   5.467   9.725  0.6774  0.5921 -1.0384
   32MOL0     H 4257   9.661   5.656   9.727  0.6417  2.8945  1.2047
   32MOL0     H 4258   9.710   5.545   9.868  0.2568 -2.8609 -0.8379
   32MOL0     H 4259   9.820   5.721   9.944  2.2114 -0.8879  0.7231
   32MOL0     H 4260   9.938   5.645   9.836 -0.5372 -0.8035 -2.5174
   32MOL0     H 4261   9.862   5.808   9.665 -0.4096 -0.8243  0.5600
   32MOL0     H 4262   9.749   5.882   9.791  0.9336  1.1764  1.8234
   32MOL0     H 4263   9.963   5.929   9.922 -1.0910 -1.1056 -0.0778
   32MOL0     H 4264  10.059   5.863   9.796 -0.4186 -0.6012 -0.5964
   32MOL0     H 4265  10.076   6.096   9.782  1.6766 -2.4614  0.3599
   32MOL0     H 4266   9.976   6.037   9.645 -2.4723  0.9711  0.0594
   32MOL0     H 4267   9.775   6.095   9.792 -0.9863  3.8022  3.0165
   32MOL0     H 4268   9.876   6.158   9.901  2.3334 -0.0148 -0.2687
   32MOL0     H 4269   9.753   6.304   9.760 -0.1723  0.2451  1.0094
   32MOL0     H 4270   9.836   6.258   9.610 -1.0277  1.0473  0.2876
   32MOL0     H 4271   9.846   6.533   9.850  0.8916  0.4987  0.5233
   32MOL0     H 4272  10.063   6.699   9.962 -1.1075 -3.6429 -0.6994
   32MOL0     H 4273  10.183   6.719   9.838 -0.6467  0.9346 -2.4787
   32MOL0     H 4274   9.897   6.785   9.792  0.6710  2.2913  2.8591
   32MOL0     H 4275  10.015   6.752   9.659  1.2299 -1.0987  0.6485
   32MOL0     H 4276  10.148   6.950   9.736 -0.8880  1.3281 -1.3465
   32MOL0     H 4277  10.078   6.955   9.892  1.6558  5.0689 -2.0412
   32MOL0     H 4278   9.927   7.052   9.644  2.6399  3.4314 -0.7592
   32MOL0     H 4279  10.018   7.146   9.757  2.3706 -1.0693  0.4872
   32MOL0     H 4280   9.615   7.070   9.953 -2.7621 -0.6659 -2.8617
   32MOL0     H 4281   9.434   7.310  10.073 -1.1243 -1.0187  1.0369
   32MOL0     H 4282   9.328   7.239   9.936 -0.9435  1.7097  1.5274
   32MOL0     H 4283   9.420   7.142  10.038 -0.0501  1.6674 -0.4035
   32MOL0     H 4284   9.220   7.476   9.516  2.6075  2.2623 -1.5691
   32MOL0     H 4285   8.995   7.604   9.509  1.4900 -0.0046 -0.3200
   32MOL0     H 4286   8.827   7.941   9.578 -0.8731  0.0304  2.1470
   32MOL0     H 4287   8.889   7.802   9.475 -2.1632  0.8617 -1.2147
   32MOL0     H 4288   8.638   7.783   9.521  0.4699  1.0003  0.4292
   32MOL0     H 4289   8.718   7.639   9.572 -1.8875 -0.6907 -0.0425
   32MOL0     H 4290   8.543   7.761   9.745  0.1222  2.2181  1.5593
   32MOL0     H 4291   8.679   7.864   9.785 -1.8830  0.9036 -0.5245
   32MOL0     H 4292   8.655   7.559   9.805  2.2009 -1.2562 -0.6674
   32MOL0     H 4293   8.811   7.648   9.819 -0.3720  0.6134 -0.3434
   32MOL0     H 4294   8.700   7.774  10.005  1.7388  0.0018  1.2612
   32MOL0     H 4295   8.770   7.615  10.041  1.0382  1.4095 -0.0317
   32MOL0     H 4296   8.490   7.713  10.068  1.0974  1.3399 -0.2809
   32MOL0     H 4297   8.490   7.591   9.946  1.0964  0.3720  0.2716
   32MOL0     H 4298   8.431   7.470  10.139 -0.0517 -1.4117  1.7648
   32MOL0     H 4299   8.533   7.564  10.240 -0.1182 -1.0765 -1.0585
   32MOL0     H 4300   8.611   7.345  10.237 -1.8256  0.7310  0.6366
   32MOL0     H 4301   8.734   7.449  10.166  0.0722  0.0575 -0.9532
   32MOL0     H 4302   9.163   7.888   9.784  0.4647 -0.5568  1.2676
   32MOL0     H 4303   9.370   7.771   9.780 -0.9858  1.0146 -0.7265
   32MOL0     H 4304   9.674   7.451   9.638  0.2911 -1.4354 -1.6518
   32MOL0     H 4305   9.858   7.284   9.675  0.3456  3.8349  0.2010
   32MOL0     H 4306   9.898   5.658   9.341 -0.6221 -0.4770  0.2171
   32MOL0     H 4307  10.031   5.536   9.157  0.0834 -1.4257 -1.6984
   32MOL0     H 4308  10.006   5.238   8.777  0.8596  0.8804 -4.7349
   32MOL0     H 4309  10.189   5.163   8.603  2.4204 -0.4069  0.1440
   32MOL0     H 4310  10.311   5.009   8.513  1.1828 -1.1569  0.9795
   32MOL0     H 4311  10.418   5.136   8.475  0.1454 -0.6409 -1.4657
   32MOL0     H 4312  10.487   4.887   8.398  3.1139 -1.3338  1.0946
   32MOL0     H 4313  10.524   4.861   8.569  0.7639  0.2111 -0.7789
   32MOL0     H 4314  10.712   4.893   8.424 -1.8145 -2.6722  1.3914
   32MOL0     H 4315  10.713   5.030   8.542  0.3082  1.4284  0.4500
   32MOL0     H 4316  10.625   5.190   8.382  1.2316  0.8688 -1.4148
   32MOL0     H 4317  10.595   5.056   8.261 -0.7192  0.3272  0.6644
   32MOL0     H 4318  10.980   5.184   8.195  0.9968 -2.6260 -0.9933
   32MOL0     H 4319  10.440   5.059   8.921 -0.0480 -2.3347 -1.8630
   32MOL0     H 4320  10.285   5.143   9.092 -1.1970  0.5209  1.0350
   33MOL0     O 4321  10.689   7.377  10.144 -0.4520  0.5590 -0.4968
   33MOL0     C 4322  10.651   7.497  10.130  0.3737  0.3212  0.1319
   33MOL0     O 4323  10.524   7.554  10.155 -0.5907  0.0427 -0.1207
   33MOL0     C 4324  10.439   7.483  10.239  0.0362 -0.4681  0.0009
   33MOL0     C 4325  10.410   7.536  10.363 -0.3789  0.0029  0.4876
   33MOL0     C 4326  10.323   7.474  10.454 -0.6988  0.2913 -1.0089
   33MOL0     C 4327  10.257   7.362  10.414  0.7611 -0.4147 -0.1571
   33MOL0     O 4328  10.160   7.305  10.482 -0.5379 -0.3520 -0.5195
   33MOL0     C 4329  10.136   7.342  10.615  0.0981  0.5400 -0.5634
   33MOL0     C 4330  10.040   7.242  10.678 -0.0482 -0.9089 -0.9984
   33MOL0     C 4331   9.905   7.241  10.608 -0.6066  0.9582  0.0716
   33MOL0     C 4332   9.877   7.143  10.488  0.2091  0.4227 -0.6418
   33MOL0     C 4333   9.725   7.120  10.470  0.5509  0.4063 -0.0271
   33MOL0     C 4334   9.686   7.077  10.320 -0.8392 -0.0587  0.2535
   33MOL0     C 4335   9.543   7.020  10.301  0.0691 -0.9551 -0.2773
   33MOL0     C 4336   9.538   6.886  10.356  0.2031 -0.6928  0.3209
   33MOL0     N 4337   9.419   6.804  10.330  0.0764 -0.3432  0.3437
   33MOL0     C 4338   9.358   6.778  10.210  0.6273  0.5658 -1.1963
   33MOL0     C 4339   9.231   6.758  10.235 -0.0433 -0.4552 -0.6153
   33MOL0     C 4340   9.121   6.752  10.127  0.0381 -0.7222 -0.7010
   33MOL0     C 4341   9.001   6.835  10.167 -0.0714  0.2625 -0.6960
   33MOL0     C 4342   8.881   6.828  10.072 -0.7510  0.3477 -0.0497
   33MOL0     C 4343   8.805   6.693  10.070 -0.2918 -0.5612  0.5573
   33MOL0     O 4344   8.737   6.675  10.189  0.1914 -0.1565 -0.0727
   33MOL0     C 4345   8.627   6.592  10.193  1.6276 -0.5354 -0.2457
   33MOL0     C 4346   8.523   6.637  10.275  0.8789 -0.0648 -0.2281
   33MOL0     C 4347   8.404   6.563  10.275 -0.1200  0.1594 -0.4105
   33MOL0     C 4348   8.282   6.616  10.340  0.8697  0.1270  0.3197
   33MOL0     C 4349   8.400   6.440  10.211  0.2905  0.3811  0.0845
   33MOL0     C 4350   8.286   6.342  10.226  0.6833  0.0412  0.1871
   33MOL0     O 4351   8.188   6.353  10.137 -0.2045  0.3294 -0.1532
   33MOL0     C 4352   8.063   6.303  10.156  0.2981  0.0412 -0.7899
   33MOL0     C 4353   7.960   6.393  10.173 -0.3494 -0.1410  1.5643
   33MOL0     C 4354   7.827   6.349  10.172  1.1594 -0.3298  0.8171
   33MOL0     C 4355   7.799   6.220  10.135 -1.2543  0.0005  0.1710
   33MOL0     O 4356   7.671   6.170  10.136 -0.5993  0.3808  0.2951
   33MOL0     C 4357   7.562   6.248  10.097 -0.8566 -0.5441 -0.7007
   33MOL0     C 4358   7.431   6.163  10.099 -0.5519 -0.0169 -0.4829
   33MOL0     C 4359   7.362   6.160  10.238 -0.0858  0.0956  0.0687
   33MOL0     C 4360   7.229   6.082  10.238  0.3612  0.0954  0.2015
   33MOL0     C 4361   7.140   6.125  10.361  0.1206 -0.6442  0.4037
   33MOL0     C 4362   7.006   6.049  10.376  0.7201  0.2604  0.6949
   33MOL0     C 4363   7.021   5.908  10.435  0.0982  0.4280 -0.9020
   33MOL0     C 4364   6.880   5.842  10.435  0.2902 -0.5323 -0.3987
   33MOL0    Cl 4365   6.784   5.885  10.582  0.2267  0.0633 -0.0768
   33MOL0     C 4366   7.900   6.134  10.102  0.0073 -0.1782 -0.7092
   33MOL0     C 4367   8.029   6.177  10.113  0.0319 -1.1745 -0.6462
   33MOL0     O 4368   8.292   6.250  10.305 -0.2937 -0.0873 -0.3664
   33MOL0     C 4369   8.509   6.392  10.138 -0.5613 -0.1875 -0.0327
   33MOL0     C 4370   8.619   6.481  10.126 -0.1996  0.9287 -0.6655
   33MOL0     N 4371   9.216   6.748  10.372 -0.9661 -0.0541  0.4287
   33MOL0     N 4372   9.330   6.787  10.429  0.2247  0.1071 -0.2412
   33MOL0     C 4373  10.285   7.309  10.290 -0.5347  0.5794 -0.1617
   33MOL0     C 4374  10.376   7.361  10.200 -0.1615 -0.2987 -0.7235
   33MOL0     C 4375  10.755   7.595  10.081  1.1536  0.2792  1.5512
   33MOL0     C 4376  10.897   7.591  10.112  0.6817 -0.7232 -0.1994
   33MOL0     C 4377  10.986   7.668  10.044  0.7241 -0.1615 -0.6379
   33MOL0     C 4378  10.944   7.772   9.962 -0.2503  0.8264  0.8827
   33MOL0     O 4379  11.047   7.850   9.927 -0.6384  1.4634  0.0516
   33MOL0     C 4380  11.013   7.973   9.872  0.3126 -0.7121  0.7259
   33MOL0     C 4381  11.134   8.068   9.841  0.2546  0.1182 -0.5132
   33MOL0     C 4382  11.108   8.144   9.708 -0.4640  0.7135  0.3642
   33MOL0     C 4383  10.977   8.202   9.690 -0.3303 -0.4113 -0.3135
   33MOL0     C 4384  10.978   8.327   9.617  0.9256  0.2795  0.0648
   33MOL0     C 4385  10.988   8.416   9.541 -0.2887 -0.3633 -0.5915
   33MOL0     C 4386  10.805   7.784   9.927  0.8575  0.1105 -0.6498
   33MOL0     C 4387  10.718   7.684   9.980 -0.1875  0.4039  1.2203
   33MOL0     H 4388  10.466   7.628  10.374 -0.3152  0.0781 -0.4339
   33MOL0     H 4389  10.301   7.513  10.552 -1.1240 -2.1423 -0.0483
   33MOL0     H 4390  10.224   7.349  10.679  1.4637 -2.4912 -1.9284
   33MOL0     H 4391  10.086   7.440  10.612  1.4742  1.2509 -1.3641
   33MOL0     H 4392  10.080   7.141  10.687  1.2888 -0.2196  2.0081
   33MOL0     H 4393  10.015   7.277  10.778  0.2437 -2.0268 -0.5275
   33MOL0     H 4394   9.824   7.222  10.679 -0.2173  1.6551  0.7224
   33MOL0     H 4395   9.877   7.342  10.576  0.9713  0.8530 -1.8141
   33MOL0     H 4396   9.915   7.196  10.400 -1.2192 -0.4714 -1.8513
   33MOL0     H 4397   9.928   7.046  10.491 -2.1503 -0.9354 -1.2870
   33MOL0     H 4398   9.699   7.038  10.538 -2.5960  0.8924 -0.5043
   33MOL0     H 4399   9.663   7.204  10.502  1.6283  1.5462 -0.8477
   33MOL0     H 4400   9.698   7.164  10.255  1.2630 -0.7397 -0.3695
   33MOL0     H 4401   9.758   6.998  10.295  0.2966  1.0479 -0.0384
   33MOL0     H 4402   9.459   7.073  10.347  2.1433  0.5528  2.0053
   33MOL0     H 4403   9.514   7.013  10.196  1.1879 -1.6942 -0.5608
   33MOL0     H 4404   9.549   6.892  10.464  0.2726 -0.1675  0.2862
   33MOL0     H 4405   9.626   6.828  10.328  0.5686 -0.6422  1.3531
   33MOL0     H 4406   9.398   6.779  10.109 -0.2513  1.4063 -1.5511
   33MOL0     H 4407   9.163   6.790  10.033  4.2132  0.9971  1.5702
   33MOL0     H 4408   9.093   6.648  10.112 -2.2256 -0.2724  0.0895
   33MOL0     H 4409   9.040   6.937  10.178 -0.6222  0.2742  1.8779
   33MOL0     H 4410   8.963   6.803  10.265  1.6229  0.2542 -0.0209
   33MOL0     H 4411   8.929   6.840   9.974  1.9110  2.5426  1.3819
   33MOL0     H 4412   8.806   6.907  10.086 -1.6743 -0.5358  0.0776
   33MOL0     H 4413   8.879   6.615  10.048  1.3696  1.8906 -3.6829
   33MOL0     H 4414   8.733   6.693   9.988  0.1895 -1.2500  0.1241
   33MOL0     H 4415   8.543   6.716  10.347 -0.6361 -1.0572  1.3539
   33MOL0     H 4416   8.226   6.536  10.389 -0.0422  1.2528  1.1358
   33MOL0     H 4417   8.307   6.699  10.406 -1.3519  3.2822 -2.4343
   33MOL0     H 4418   8.219   6.659  10.262 -0.2453 -1.6594  0.1899
   33MOL0     H 4419   7.978   6.497  10.199 -0.6643 -0.1308  1.7515
   33MOL0     H 4420   7.754   6.427  10.187  1.3221 -0.3146  1.5780
   33MOL0     H 4421   7.537   6.337  10.156 -0.1739 -0.3127 -0.7533
   33MOL0     H 4422   7.570   6.273   9.990  1.3671  0.6592 -0.3187
   33MOL0     H 4423   7.360   6.220  10.038  0.7982  0.6511 -1.4642
   33MOL0     H 4424   7.458   6.064  10.063  2.1489 -0.2313  1.7878
   33MOL0     H 4425   7.340   6.266  10.251  2.2663  0.7909 -1.0926
   33MOL0     H 4426   7.434   6.127  10.314  0.3531  2.1039  0.5887
   33MOL0     H 4427   7.171   6.091  10.146  1.1633 -0.2321 -0.3379
   33MOL0     H 4428   7.251   5.976  10.254 -0.1496  0.0906  0.9737
   33MOL0     H 4429   7.118   6.231  10.377 -1.7293 -1.0492  0.7614
   33MOL0     H 4430   7.203   6.112  10.449  1.3802 -1.3090 -0.5524
   33MOL0     H 4431   6.941   6.101  10.446 -0.8665  0.2511 -0.7177
   33MOL0     H 4432   6.962   6.050  10.276  1.0491 -1.3905  0.4891
   33MOL0     H 4433   7.058   5.922  10.537  0.3256  2.9822 -1.2869
   33MOL0     H 4434   7.094   5.849  10.379 -0.3214  0.7840 -1.8364
   33MOL0     H 4435   6.884   5.734  10.420 -3.2137 -1.0485  1.3911
   33MOL0     H 4436   6.822   5.884  10.352  3.5541  1.2280 -1.9795
   33MOL0     H 4437   7.873   6.029  10.099  2.2962 -0.9354  1.6997
   33MOL0     H 4438   8.115   6.112  10.102  0.5397 -0.2075 -2.9252
   33MOL0     H 4439   8.525   6.292  10.098  1.1564  1.0063 -2.6264
   33MOL0     H 4440   8.702   6.443  10.067 -1.5072 -2.2109 -0.7051
   33MOL0     H 4441  10.228   7.221  10.263 -1.1504  1.7177 -2.8472
   33MOL0     H 4442  10.405   7.304  10.113 -3.5942 -3.3565 -0.1369
   33MOL0     H 4443  10.936   7.512  10.175  0.6942 -0.1259  0.5532
   33MOL0     H 4444  11.088   7.660  10.080  0.4167 -1.5144 -0.0157
   33MOL0     H 4445  10.959   7.954   9.778  1.6094  0.2983 -0.2606
   33MOL0     H 4446  10.947   8.037   9.931  0.4260  1.7502 -1.6011
   33MOL0     H 4447  11.231   8.018   9.836  0.8222  0.9795  1.1972
   33MOL0     H 4448  11.140   8.142   9.922  1.5698 -4.9765  4.6504
   33MOL0     H 4449  11.117   8.076   9.623  3.1362  1.5837 -0.1029
   33MOL0     H 4450  11.184   8.220   9.689  0.2633  0.5540  2.3252
   33MOL0     H 4451  10.932   8.219   9.789 -2.1882 -0.2802 -1.1477
   33MOL0     H 4452  10.917   8.121   9.648  1.5087 -2.5069  0.8767
   33MOL0     H 4453  10.998   8.488   9.462 -0.2363 -2.8334 -2.9516
   33MOL0     H 4454  10.766   7.863   9.862 -1.6111 -0.9394 -0.5676
   33MOL0     H 4455  10.615   7.682   9.947 -0.1626  0.3810  1.1425
   34MOL0     O 4456   8.012   3.886  10.541  0.6093 -0.5700  1.4551
   34MOL0     C 4457   8.131   3.877  10.528 -0.8167 -0.5671  1.1508
   34MOL0     O 4458   8.214   3.875  10.642 -0.2180 -0.6158  0.0230
   34MOL0     C 4459   8.155   3.857  10.763 -0.2118  0.2614 -0.0836
   34MOL0     C 4460   8.104   3.959  10.845 -0.2129  0.6000  1.0292
   34MOL0     C 4461   8.054   3.943  10.971 -0.3873 -0.1314  0.6157
   34MOL0     C 4462   8.045   3.813  11.035  0.1831 -0.5298 -0.4931
   34MOL0     O 4463   7.989   3.794  11.164  0.1092 -0.1985  0.2188
   34MOL0     C 4464   8.000   3.663  11.228 -0.4021  0.0394  0.8830
   34MOL0     C 4465   7.948   3.691  11.372 -0.1985  0.2652 -0.7445
   34MOL0     C 4466   7.825   3.783  11.376  0.6539 -0.3512  0.1378
   34MOL0     C 4467   7.750   3.795  11.516 -0.4475 -2.0469  0.0657
   34MOL0     C 4468   7.626   3.877  11.521  0.9642  0.1436  0.1652
   34MOL0     C 4469   7.583   3.913  11.670  0.0523 -0.2995  1.1656
   34MOL0     C 4470   7.442   3.972  11.683 -0.3163  0.0508  0.4962
   34MOL0     C 4471   7.413   4.048  11.820  0.9015  0.3375  0.3772
   34MOL0     N 4472   7.316   4.153  11.802 -0.2881  0.3189  0.2596
   34MOL0     C 4473   7.355   4.279  11.775 -0.0754  0.1332  1.0971
   34MOL0     C 4474   7.240   4.348  11.780  0.5853  0.0077  0.3608
   34MOL0     C 4475   7.224   4.491  11.767  0.2362  0.3163  0.1586
   34MOL0     C 4476   7.285   4.564  11.882  0.2593 -0.5936 -0.1652
   34MOL0     C 4477   7.225   4.704  11.887  0.9646 -0.0961  0.7976
   34MOL0     C 4478   7.096   4.695  11.958  0.1811 -0.5528 -0.6913
   34MOL0     O 4479   7.056   4.830  12.000  0.6148  0.1971 -0.3921
   34MOL0     C 4480   6.936   4.849  12.068 -0.4037  0.7701  0.0331
   34MOL0     C 4481   6.918   4.979  12.127  0.5200  0.5084  0.2657
   34MOL0     C 4482   6.800   5.020  12.195  0.4058 -0.4521 -0.8408
   34MOL0     C 4483   6.788   5.162  12.259 -0.6270 -0.0571  0.7990
   34MOL0     C 4484   6.688   4.924  12.198  0.1513  0.7496  0.5266
   34MOL0     C 4485   6.544   4.955  12.249 -0.0645 -0.1576  0.0627
   34MOL0     O 4486   6.460   4.859  12.210  0.1550  0.0196 -0.1786
   34MOL0     C 4487   6.321   4.871  12.218  0.1508  0.1491  0.6184
   34MOL0     C 4488   6.260   4.797  12.316  0.3424  0.3506 -0.0765
   34MOL0     C 4489   6.131   4.824  12.344  0.2072 -0.2492 -0.4295
   34MOL0     C 4490   6.052   4.918  12.271 -0.5930 -0.4895  0.3996
   34MOL0     O 4491   5.919   4.921  12.283  0.4271 -0.4035  0.1620
   34MOL0     C 4492   5.854   4.943  12.411  0.1303 -0.4711 -0.5480
   34MOL0     C 4493   5.717   4.879  12.409 -0.1066  0.4835  0.0377
   34MOL0     C 4494   5.637   4.903  12.273 -1.3259 -0.2714 -0.3025
   34MOL0     C 4495   5.491   4.852  12.304  0.3290  0.2378  0.1516
   34MOL0     C 4496   5.413   4.831  12.173 -0.1037 -0.0149 -0.2168
   34MOL0     C 4497   5.260   4.843  12.195  0.3748 -0.5467  0.5314
   34MOL0     C 4498   5.178   4.773  12.083 -0.7539 -0.5615  0.1961
   34MOL0     C 4499   5.170   4.836  11.947 -0.0580 -0.3221  0.6336
   34MOL0    Cl 4500   5.111   5.008  11.970 -0.5162 -0.0143 -0.5990
   34MOL0     C 4501   6.118   4.993  12.172 -0.2563  0.6382 -0.2534
   34MOL0     C 4502   6.256   4.971  12.144  0.2747  0.2360 -0.0337
   34MOL0     O 4503   6.513   5.056  12.308  0.1047  0.1823  0.7144
   34MOL0     C 4504   6.714   4.793  12.133 -0.8142  0.1489 -0.8864
   34MOL0     C 4505   6.831   4.761  12.071 -0.9288  0.2169 -0.3375
   34MOL0     N 4506   7.137   4.268  11.814 -0.2564  0.1594 -0.5738
   34MOL0     N 4507   7.186   4.145  11.819 -0.1516  0.2681 -0.2626
   34MOL0     C 4508   8.106   3.709  10.954 -0.9807  0.3531 -1.3838
   34MOL0     C 4509   8.150   3.728  10.820  0.5497  0.2529 -0.0784
   34MOL0     C 4510   8.190   3.859  10.399  0.1780  0.0874 -0.0716
   34MOL0     C 4511   8.103   3.869  10.280 -0.2761  0.1975  0.4461
   34MOL0     C 4512   8.170   3.865  10.162 -0.7557  0.7515 -0.0035
   34MOL0     C 4513   8.304   3.853  10.146 -0.8947  0.1936 -0.5574
   34MOL0     O 4514   8.349   3.861  10.019 -0.7787 -0.6613 -0.3374
   34MOL0     C 4515   8.487   3.849   9.990 -0.3144 -0.3689 -0.8458
   34MOL0     C 4516   8.515   3.710   9.939 -0.4161  0.3656  0.1136
   34MOL0     C 4517   8.424   3.686   9.817 -1.0137 -0.2061  0.3787
   34MOL0     C 4518   8.460   3.566   9.724 -0.4356 -1.4981  0.4850
   34MOL0     C 4519   8.357   3.533   9.624  0.0659  0.1327 -0.6224
   34MOL0     C 4520   8.298   3.491   9.527 -0.3816  1.1711  0.5054
   34MOL0     C 4521   8.388   3.834  10.254  0.7592 -0.1001 -0.1249
   34MOL0     C 4522   8.327   3.841  10.384 -0.8657  0.6342 -0.0272
   34MOL0     H 4523   8.119   4.058  10.803 -0.8396 -0.1725 -1.1673
   34MOL0     H 4524   8.012   4.029  11.021  0.3584 -1.0866  3.0054
   34MOL0     H 4525   7.941   3.591  11.170 -1.8003  0.9514  1.1360
   34MOL0     H 4526   8.106   3.637  11.226  0.0606  1.5909  2.7652
   34MOL0     H 4527   7.929   3.592  11.416  3.1543 -0.5079 -0.7924
   34MOL0     H 4528   8.023   3.748  11.427 -2.9874  1.3501  2.2441
   34MOL0     H 4529   7.857   3.886  11.354  3.2913 -0.8402  1.3109
   34MOL0     H 4530   7.752   3.752  11.301  2.0560  1.6018 -2.2040
   34MOL0     H 4531   7.719   3.697  11.554 -0.7430 -1.2016  2.1633
   34MOL0     H 4532   7.829   3.838  11.578 -0.8243 -2.0329  0.5404
   34MOL0     H 4533   7.643   3.969  11.464  1.8462  0.4926  0.9745
   34MOL0     H 4534   7.544   3.832  11.464 -1.9900  3.1676  1.6731
   34MOL0     H 4535   7.583   3.818  11.725 -0.6201 -1.4131 -0.6668
   34MOL0     H 4536   7.656   3.986  11.706  1.0350 -1.0984  0.8632
   34MOL0     H 4537   7.436   4.052  11.609  0.9882 -0.6558 -0.4318
   34MOL0     H 4538   7.360   3.902  11.667 -1.7013  1.9112 -0.9861
   34MOL0     H 4539   7.510   4.089  11.849  1.4497  0.0800 -1.0078
   34MOL0     H 4540   7.378   3.969  11.888  1.1627  0.9116  1.1920
   34MOL0     H 4541   7.449   4.315  11.736 -0.5268  0.8464  0.6470
   34MOL0     H 4542   7.267   4.534  11.676 -2.0976 -0.4402 -1.3795
   34MOL0     H 4543   7.117   4.505  11.753  0.5019  1.6014 -0.7780
   34MOL0     H 4544   7.391   4.573  11.856  0.3648 -0.3813  0.3309
   34MOL0     H 4545   7.286   4.500  11.971 -0.5759 -1.7689 -0.9576
   34MOL0     H 4546   7.214   4.746  11.786  2.3124  1.3232  1.1959
   34MOL0     H 4547   7.286   4.769  11.950 -1.3717  2.2215  0.8511
   34MOL0     H 4548   7.104   4.637  12.050  0.8060  1.8703  0.8867
   34MOL0     H 4549   7.027   4.651  11.885  2.9316 -1.8097 -2.6679
   34MOL0     H 4550   7.005   5.043  12.142  1.1830 -0.5423  1.0662
   34MOL0     H 4551   6.773   5.172  12.366 -2.0451 -0.4561  0.6567
   34MOL0     H 4552   6.872   5.224  12.223  0.4407 -1.8740  0.0273
   34MOL0     H 4553   6.706   5.212  12.207  0.3776  0.2899 -0.5205
   34MOL0     H 4554   6.316   4.728  12.378  2.5578 -0.1233 -2.4228
   34MOL0     H 4555   6.094   4.764  12.426  0.5076  2.0838  1.5303
   34MOL0     H 4556   5.904   4.919  12.505  1.1012 -1.9775 -1.4000
   34MOL0     H 4557   5.829   5.049  12.422 -0.6439 -0.7199  0.2511
   34MOL0     H 4558   5.738   4.773  12.427 -0.5677  0.2397 -0.8138
   34MOL0     H 4559   5.653   4.918  12.489  1.4133 -0.5969  1.8578
   34MOL0     H 4560   5.685   4.840  12.197  0.3217  0.3490  0.1943
   34MOL0     H 4561   5.627   5.009  12.247 -1.4078  0.8391  3.6215
   34MOL0     H 4562   5.491   4.758  12.361 -0.2171  0.0152 -0.2081
   34MOL0     H 4563   5.432   4.927  12.359 -0.5480  0.0905 -0.5649
   34MOL0     H 4564   5.437   4.732  12.133  0.9232 -0.5338  1.5638
   34MOL0     H 4565   5.444   4.903  12.096 -0.5619  0.4839  0.0563
   34MOL0     H 4566   5.241   4.795  12.291  2.4033 -3.3140 -0.2934
   34MOL0     H 4567   5.235   4.949  12.185  0.2037 -0.7294 -1.6160
   34MOL0     H 4568   5.073   4.778  12.116 -1.1340  0.0327 -1.0624
   34MOL0     H 4569   5.209   4.670  12.068 -0.5792 -0.8925  2.4138
   34MOL0     H 4570   5.102   4.783  11.879  0.2699 -0.3207  0.3065
   34MOL0     H 4571   5.269   4.846  11.902 -0.7335  2.2349 -0.4564
   34MOL0     H 4572   6.053   5.061  12.118 -1.4763 -0.8894 -0.7911
   34MOL0     H 4573   6.303   5.038  12.073  0.5178 -1.4509 -1.5702
   34MOL0     H 4574   6.640   4.713  12.135 -1.3842  0.4669 -4.2230
   34MOL0     H 4575   6.855   4.664  12.028  1.9438  1.3973 -1.6357
   34MOL0     H 4576   8.120   3.611  10.998 -3.1105  0.1011 -1.1445
   34MOL0     H 4577   8.184   3.637  10.772  1.1775  0.5481 -0.2040
   34MOL0     H 4578   7.997   3.889  10.272  0.0266  1.1804 -1.9146
   34MOL0     H 4579   8.107   3.870  10.073 -0.1522 -0.3285 -0.5201
   34MOL0     H 4580   8.503   3.923   9.911 -1.6095  1.5811  0.6587
   34MOL0     H 4581   8.540   3.880  10.080 -4.3127  1.3311  1.1774
   34MOL0     H 4582   8.501   3.637  10.019 -0.1586 -1.4358 -1.4369
   34MOL0     H 4583   8.612   3.707   9.888 -3.2624 -1.0492 -6.1556
   34MOL0     H 4584   8.415   3.775   9.755  2.3563 -0.4438 -0.6778
   34MOL0     H 4585   8.328   3.658   9.861 -0.7723 -0.7881  0.5471
   34MOL0     H 4586   8.489   3.485   9.793 -0.7441  0.2184  2.7480
   34MOL0     H 4587   8.544   3.600   9.663 -0.0296  1.1992  2.3841
   34MOL0     H 4588   8.241   3.450   9.446 -1.6438  3.8854 -0.1066
   34MOL0     H 4589   8.495   3.818  10.245  1.0709  1.9478 -0.5686
   34MOL0     H 4590   8.390   3.819  10.470 -2.9769  2.0064  1.9666
   35MOL0     O 4591   0.626   8.138   8.086 -0.1453 -0.3316  0.1215
   35MOL0     C 4592   0.719   8.085   8.027  0.1649  0.2979  0.1372
   35MOL0     O 4593   0.732   8.058   7.887  0.0627  0.2565  0.0467
   35MOL0     C 4594   0.626   8.100   7.805 -0.3967  0.3409 -0.0219
   35MOL0     C 4595   0.589   8.236   7.813 -0.4094  0.4860 -0.5339
   35MOL0     C 4596   0.496   8.281   7.716  0.2522  0.3896 -0.5573
   35MOL0     C 4597   0.455   8.204   7.607 -0.5864 -0.1473 -0.3832
   35MOL0     O 4598   0.363   8.267   7.516 -0.4711  0.0427  0.3118
   35MOL0     C 4599   0.333   8.196   7.393 -0.8630 -0.1534  0.1777
   35MOL0     C 4600   0.267   8.295   7.297 -0.2160  0.4123 -0.0308
   35MOL0     C 4601   0.127   8.328   7.356 -0.6905  0.4695 -0.5468
   35MOL0     C 4602   0.042   8.407   7.256 -0.4231  0.0061 -0.6129
   35MOL0     C 4603  -0.081   8.471   7.322  0.0962  0.4249 -0.5398
   35MOL0     C 4604  -0.152   8.587   7.245  0.2008  0.5831 -0.2285
   35MOL0     C 4605  -0.210   8.562   7.099 -0.2099  0.2449 -0.3768
   35MOL0     C 4606  -0.343   8.495   7.114  0.6049  0.1791  0.6831
   35MOL0     N 4607  -0.369   8.420   6.995  0.0731  0.6410  0.3084
   35MOL0     C 4608  -0.470   8.443   6.904 -0.3356  0.4082  0.1270
   35MOL0     C 4609  -0.474   8.340   6.820 -0.5682  0.3078  0.2700
   35MOL0     C 4610  -0.570   8.326   6.706 -0.2350  0.5573  0.0910
   35MOL0     C 4611  -0.718   8.362   6.724 -0.1807 -0.0508 -0.2136
   35MOL0     C 4612  -0.797   8.360   6.591  0.1904 -0.5043  0.7153
   35MOL0     C 4613  -0.952   8.376   6.602  0.1978 -0.2985 -0.8286
   35MOL0     O 4614  -0.994   8.514   6.630 -0.6387 -0.3453 -0.5232
   35MOL0     C 4615  -1.132   8.535   6.647 -0.9151  0.0268 -0.8989
   35MOL0     C 4616  -1.199   8.462   6.740 -0.1898 -0.1634 -0.1494
   35MOL0     C 4617  -1.337   8.485   6.774 -0.7009  0.9269 -0.2421
   35MOL0     C 4618  -1.399   8.402   6.884 -0.1384 -0.5968 -0.0435
   35MOL0     C 4619  -1.408   8.584   6.706  0.6791 -0.8801 -0.1265
   35MOL0     C 4620  -1.553   8.613   6.729 -0.7107  0.3356  0.3795
   35MOL0     O 4621  -1.593   8.714   6.661 -0.3035 -0.5422 -0.3555
   35MOL0     C 4622  -1.719   8.766   6.690 -0.2086  1.0366 -0.2878
   35MOL0     C 4623  -1.730   8.902   6.726 -1.0334  0.7103  0.7527
   35MOL0     C 4624  -1.855   8.961   6.740 -0.2983  0.9129 -0.7663
   35MOL0     C 4625  -1.975   8.879   6.733  1.3558 -0.1738 -0.5246
   35MOL0     O 4626  -2.103   8.919   6.782 -0.5458 -0.8378  0.3879
   35MOL0     C 4627  -2.117   9.049   6.837  1.0252 -0.6581 -0.1089
   35MOL0     C 4628  -2.252   9.070   6.908  0.3813 -1.1459  1.6608
   35MOL0     C 4629  -2.240   9.009   7.043 -0.0547 -0.1649 -0.2253
   35MOL0     C 4630  -2.371   9.047   7.124 -0.1910  0.2009  0.4492
   35MOL0     C 4631  -2.369   8.974   7.259  0.4274  0.0175 -0.4338
   35MOL0     C 4632  -2.513   8.940   7.302 -0.0392 -0.1629 -0.3009
   35MOL0     C 4633  -2.566   8.813   7.253  0.0349 -0.0670 -0.2019
   35MOL0     C 4634  -2.703   8.785   7.291 -0.4160  0.6553  0.0182
   35MOL0    Cl 4635  -2.778   8.649   7.191 -0.2065  0.1087 -0.5828
   35MOL0     C 4636  -1.969   8.753   6.698 -0.8972  0.0201 -0.3724
   35MOL0     C 4637  -1.838   8.699   6.679  1.2611  0.4785 -0.2470
   35MOL0     O 4638  -1.623   8.551   6.807 -1.2271  0.1553  0.4630
   35MOL0     C 4639  -1.334   8.657   6.607  0.9840  0.1049 -0.3585
   35MOL0     C 4640  -1.197   8.640   6.586 -0.0999  0.1835 -0.6792
   35MOL0     N 4641  -0.380   8.254   6.870 -0.1683 -0.4124 -0.2453
   35MOL0     N 4642  -0.324   8.303   6.968 -0.5593 -1.1535  0.4122
   35MOL0     C 4643   0.493   8.072   7.602  0.7938  0.4637  0.0777
   35MOL0     C 4644   0.577   8.015   7.705  0.3383  0.1202  0.3764
   35MOL0     C 4645   0.828   8.037   8.113  0.2367  1.0110  0.1531
   35MOL0     C 4646   0.956   8.008   8.068 -0.0882 -0.5437 -0.2300
   35MOL0     C 4647   1.072   7.972   8.153  0.5662 -0.1261  0.4312
   35MOL0     C 4648   1.049   7.959   8.290 -0.2437 -0.5426  0.2414
   35MOL0     O 4649   1.138   7.920   8.395  0.7831  0.9832 -0.2074
   35MOL0     C 4650   1.275   7.892   8.365 -0.9469  0.2871 -0.7467
   35MOL0     C 4651   1.284   7.737   8.334  0.5629 -0.9034 -0.1651
   35MOL0     C 4652   1.395   7.709   8.239  0.1889 -0.0327 -0.6080
   35MOL0     C 4653   1.375   7.577   8.163 -0.0484 -0.4077 -0.4330
   35MOL0     C 4654   1.455   7.564   8.047  0.2691  0.2252  0.3666
   35MOL0     C 4655   1.515   7.561   7.945 -0.3692 -0.2034  0.6762
   35MOL0     C 4656   0.919   7.982   8.338 -0.2477 -0.5229  0.3351
   35MOL0     C 4657   0.818   8.024   8.250 -0.1905 -0.3612 -0.0541
   35MOL0     H 4658   0.646   8.301   7.878 -1.4433  2.3093 -1.3895
   35MOL0     H 4659   0.463   8.384   7.719 -1.1914  0.0250 -2.1642
   35MOL0     H 4660   0.430   8.164   7.353  0.5913  2.8747  0.9474
   35MOL0     H 4661   0.274   8.105   7.408 -1.5292  0.2903  0.2987
   35MOL0     H 4662   0.329   8.383   7.279 -1.2983  0.8266 -2.0593
   35MOL0     H 4663   0.241   8.237   7.208 -2.0667 -0.2666  0.8818
   35MOL0     H 4664   0.073   8.239   7.389  1.3008 -1.1955 -1.5270
   35MOL0     H 4665   0.137   8.384   7.449  0.2007  3.1758 -2.1766
   35MOL0     H 4666   0.094   8.490   7.207  0.2151 -1.5075 -2.6411
   35MOL0     H 4667   0.002   8.334   7.185 -3.4188 -0.6763  1.5683
   35MOL0     H 4668  -0.159   8.398   7.346  0.8676 -0.2461 -0.0169
   35MOL0     H 4669  -0.041   8.509   7.417  1.5511 -0.4266 -0.7849
   35MOL0     H 4670  -0.239   8.618   7.304 -0.4833 -0.4140 -0.7005
   35MOL0     H 4671  -0.074   8.664   7.238 -1.7151  2.5210 -1.8363
   35MOL0     H 4672  -0.224   8.654   7.041  1.8909 -0.0864 -1.4851
   35MOL0     H 4673  -0.141   8.499   7.042 -0.8342 -1.3495  0.5546
   35MOL0     H 4674  -0.426   8.563   7.134 -0.5213 -1.1064  0.5930
   35MOL0     H 4675  -0.350   8.424   7.197 -0.3451 -0.3025  0.2163
   35MOL0     H 4676  -0.538   8.526   6.891 -0.1163  0.5152 -0.3594
   35MOL0     H 4677  -0.532   8.380   6.618 -1.5438  0.6655 -0.4353
   35MOL0     H 4678  -0.565   8.221   6.675 -0.3424  0.2982  0.9302
   35MOL0     H 4679  -0.729   8.464   6.761  0.1019 -0.0415 -0.1516
   35MOL0     H 4680  -0.762   8.289   6.793  1.4882 -2.5671 -1.6070
   35MOL0     H 4681  -0.778   8.267   6.537 -0.8289 -1.1630  1.4459
   35MOL0     H 4682  -0.756   8.431   6.519 -2.7128  1.2384  0.6599
   35MOL0     H 4683  -0.981   8.310   6.685  2.5148  0.1399  0.4220
   35MOL0     H 4684  -0.997   8.357   6.504 -0.0643  0.5344 -0.8759
   35MOL0     H 4685  -1.140   8.397   6.804 -1.1640 -0.6731  0.2446
   35MOL0     H 4686  -1.496   8.358   6.859  1.0750 -4.4845  1.2777
   35MOL0     H 4687  -1.334   8.318   6.912 -3.3347 -2.2151  3.4132
   35MOL0     H 4688  -1.422   8.466   6.970  0.7842  4.5703 -3.2313
   35MOL0     H 4689  -1.641   8.964   6.717  0.3028 -0.9708  1.6312
   35MOL0     H 4690  -1.865   9.067   6.760 -2.4987  1.1613 -2.7753
   35MOL0     H 4691  -2.037   9.081   6.905  0.8527  1.9243 -0.9976
   35MOL0     H 4692  -2.102   9.122   6.757  1.8075  0.7746  1.2801
   35MOL0     H 4693  -2.283   9.174   6.918  1.9918 -0.2778 -1.1147
   35MOL0     H 4694  -2.332   9.035   6.842  2.3020 -0.5172 -1.2034
   35MOL0     H 4695  -2.142   9.019   7.091  0.1696 -2.2990 -0.1240
   35MOL0     H 4696  -2.251   8.901   7.030  2.6669 -0.8687  2.1827
   35MOL0     H 4697  -2.384   9.155   7.138  0.8517  1.0769 -3.8920
   35MOL0     H 4698  -2.448   9.022   7.052  0.3475  2.0570 -0.8647
   35MOL0     H 4699  -2.320   9.035   7.335  0.4233 -0.8030  0.2395
   35MOL0     H 4700  -2.315   8.880   7.247 -2.2351 -1.4970 -1.4032
   35MOL0     H 4701  -2.519   8.939   7.411  0.5695 -0.8155 -0.2697
   35MOL0     H 4702  -2.578   9.021   7.267  0.7671 -0.3493 -2.3906
   35MOL0     H 4703  -2.497   8.731   7.277 -1.1240 -0.8902  0.3831
   35MOL0     H 4704  -2.571   8.819   7.144  0.7143  0.4232 -0.2184
   35MOL0     H 4705  -2.768   8.871   7.270 -0.3145  0.5652 -0.7246
   35MOL0     H 4706  -2.702   8.771   7.399  0.5001 -1.7261 -0.2506
   35MOL0     H 4707  -2.063   8.700   6.683 -1.2614  1.0359 -1.9124
   35MOL0     H 4708  -1.826   8.595   6.650  1.1625  1.0725 -2.6367
   35MOL0     H 4709  -1.381   8.736   6.550  0.9101 -0.8618 -1.6825
   35MOL0     H 4710  -1.139   8.692   6.510  0.5559 -0.4929 -0.6568
   35MOL0     H 4711   0.438   7.999   7.543  0.8075  0.6844 -0.2147
   35MOL0     H 4712   0.609   7.912   7.701  3.0808  0.7504  2.5838
   35MOL0     H 4713   0.971   8.015   7.960 -1.7024 -1.7777 -0.5807
   35MOL0     H 4714   1.172   7.962   8.113  0.4478  1.3013 -0.2782
   35MOL0     H 4715   1.309   7.953   8.280  1.2103  0.6350  0.3086
   35MOL0     H 4716   1.333   7.919   8.453  0.7668 -3.4748 -0.5679
   35MOL0     H 4717   1.191   7.707   8.284  1.7369  0.2316 -3.2459
   35MOL0     H 4718   1.306   7.687   8.429  1.0070 -1.6105 -0.6398
   35MOL0     H 4719   1.495   7.708   8.284  0.9786  0.8074 -2.2781
   35MOL0     H 4720   1.404   7.784   8.160  0.2819  1.0603  0.3999
   35MOL0     H 4721   1.269   7.552   8.150 -0.8097 -1.1298  4.9032
   35MOL0     H 4722   1.389   7.491   8.230  0.7855 -0.4899 -0.7004
   35MOL0     H 4723   1.568   7.575   7.853 -0.3520 -1.3608  0.4902
   35MOL0     H 4724   0.898   7.971   8.443  4.6171 -2.7754  1.3614
   35MOL0     H 4725   0.719   8.033   8.292 -0.1501  0.4289 -0.1124
   36MOL0     O 4726   0.187   6.250   0.286  0.4473  0.3863  0.2007
   36MOL0     C 4727   0.252   6.147   0.300  1.0050 -0.5511  0.2103
   36MOL0     O 4728   0.222   6.046   0.380  0.8574 -0.2212  0.3139
   36MOL0     C 4729   0.102   6.048   0.447 -0.8074 -0.2318  0.2852
   36MOL0     C 4730   0.063   6.158   0.526  0.4533 -0.1603  0.0341
   36MOL0     C 4731  -0.053   6.155   0.604  0.3792  0.0122 -0.0588
   36MOL0     C 4732  -0.128   6.035   0.593 -0.2288 -0.5890 -0.2885
   36MOL0     O 4733  -0.248   6.022   0.657 -0.1800 -0.0845  0.0321
   36MOL0     C 4734  -0.372   6.043   0.584 -0.0054  0.1026 -0.6151
   36MOL0     C 4735  -0.410   6.188   0.615  0.4557 -0.2154  0.1058
   36MOL0     C 4736  -0.555   6.225   0.577 -0.6981  0.2770  0.1455
   36MOL0     C 4737  -0.662   6.181   0.677 -0.6447 -1.0947  0.1695
   36MOL0     C 4738  -0.788   6.275   0.678 -0.2745 -0.3958  0.2767
   36MOL0     C 4739  -0.774   6.418   0.727 -0.5706 -0.2820 -0.1246
   36MOL0     C 4740  -0.714   6.414   0.864  0.0956 -0.5266  0.2023
   36MOL0     C 4741  -0.723   6.555   0.919  0.0110  0.5410 -0.9510
   36MOL0     N 4742  -0.658   6.564   1.058 -0.7050 -0.2661  0.8725
   36MOL0     C 4743  -0.698   6.499   1.174  1.0865  0.3928 -0.0935
   36MOL0     C 4744  -0.623   6.555   1.265  0.8239 -0.1572  0.0222
   36MOL0     C 4745  -0.613   6.518   1.409 -0.1640 -0.5443  0.8401
   36MOL0     C 4746  -0.670   6.629   1.502 -0.0739  0.4064  0.5574
   36MOL0     C 4747  -0.650   6.595   1.646 -0.1317 -0.3889 -0.3789
   36MOL0     C 4748  -0.760   6.493   1.688 -0.1615  0.2476  0.0906
   36MOL0     O 4749  -0.888   6.546   1.673  0.3460 -0.9969  0.8784
   36MOL0     C 4750  -0.952   6.619   1.771 -0.5046  0.4076 -0.1542
   36MOL0     C 4751  -0.898   6.657   1.892 -0.6579 -0.0642 -0.3664
   36MOL0     C 4752  -0.958   6.739   1.988 -0.2309 -0.6174  0.5533
   36MOL0     C 4753  -0.883   6.782   2.112  0.0471 -0.3944 -0.4690
   36MOL0     C 4754  -1.096   6.767   1.957  0.2995 -0.1376  1.0863
   36MOL0     C 4755  -1.193   6.831   2.056 -0.7015 -0.1164 -0.0258
   36MOL0     O 4756  -1.297   6.912   2.008 -0.0861  0.3686  0.0990
   36MOL0     C 4757  -1.348   7.005   2.096 -0.9525  0.8931 -0.2631
   36MOL0     C 4758  -1.457   6.964   2.174 -0.0306  0.5439  0.3769
   36MOL0     C 4759  -1.506   7.057   2.268 -0.2924 -0.8543 -0.2752
   36MOL0     C 4760  -1.439   7.184   2.283  0.5189  1.0089 -0.4353
   36MOL0     O 4761  -1.487   7.263   2.386 -0.1250  0.2614  0.4438
   36MOL0     C 4762  -1.477   7.406   2.398  0.0283  0.3777  0.4402
   36MOL0     C 4763  -1.364   7.461   2.478  0.2200 -0.2830 -0.2469
   36MOL0     C 4764  -1.292   7.358   2.570  0.2053 -0.1154 -0.2962
   36MOL0     C 4765  -1.229   7.428   2.695 -0.5730 -0.0244  0.3794
   36MOL0     C 4766  -1.102   7.349   2.750  0.2618 -0.1634  0.4305
   36MOL0     C 4767  -1.033   7.433   2.850 -0.2500  0.0018  0.2761
   36MOL0     C 4768  -0.903   7.372   2.910 -0.5150 -0.0412  0.1087
   36MOL0     C 4769  -0.851   7.465   3.020  0.6658  0.2225  0.2275
   36MOL0    Cl 4770  -0.704   7.402   3.074 -0.0693 -0.5832 -0.1674
   36MOL0     C 4771  -1.330   7.216   2.206  0.8367 -0.2140  0.0056
   36MOL0     C 4772  -1.283   7.130   2.110 -0.1152 -0.3910 -0.4137
   36MOL0     O 4773  -1.168   6.811   2.172 -0.2808 -0.1646  0.7414
   36MOL0     C 4774  -1.147   6.733   1.837  0.6256  0.6180  0.7716
   36MOL0     C 4775  -1.082   6.663   1.747  0.4307 -0.3124  0.3517
   36MOL0     N 4776  -0.541   6.655   1.208  0.0122  0.0434  0.6693
   36MOL0     N 4777  -0.557   6.650   1.082 -0.4992  0.7446  0.0917
   36MOL0     C 4778  -0.085   5.925   0.521 -0.5401  0.3208 -1.4883
   36MOL0     C 4779   0.034   5.927   0.448  0.1339  0.1409 -0.1554
   36MOL0     C 4780   0.369   6.131   0.210  0.6390 -0.7393  0.4338
   36MOL0     C 4781   0.417   6.002   0.185 -0.6351  0.3664 -0.5975
   36MOL0     C 4782   0.532   5.983   0.105 -0.7773 -0.4650  0.4175
   36MOL0     C 4783   0.592   6.101   0.056 -0.4649  0.0118  0.2731
   36MOL0     O 4784   0.706   6.108  -0.016 -0.5344  0.5513 -0.2014
   36MOL0     C 4785   0.810   6.014   0.014  0.0961 -0.1095  0.1507
   36MOL0     C 4786   0.953   6.046  -0.028 -0.2116  0.6088 -0.0582
   36MOL0     C 4787   1.005   6.181   0.038 -0.3438  0.3338 -0.0884
   36MOL0     C 4788   1.153   6.214  -0.010 -0.2865  1.0807  0.3652
   36MOL0     C 4789   1.225   6.309   0.073  1.4884 -0.4643 -0.4484
   36MOL0     C 4790   1.287   6.385   0.139 -0.8395  0.5475 -0.0931
   36MOL0     C 4791   0.528   6.227   0.066 -0.3597 -0.2060  0.1638
   36MOL0     C 4792   0.434   6.243   0.155 -0.1876  0.0109  0.0810
   36MOL0     H 4793   0.109   6.256   0.519 -4.1843  2.2815 -0.4813
   36MOL0     H 4794  -0.090   6.236   0.667  3.6793  0.5328  1.3827
   36MOL0     H 4795  -0.356   6.024   0.478 -1.5663  0.1894 -0.8864
   36MOL0     H 4796  -0.444   5.970   0.620  0.7931 -0.1785  0.4666
   36MOL0     H 4797  -0.403   6.214   0.721 -4.4087  1.3905  0.2805
   36MOL0     H 4798  -0.335   6.249   0.563  1.0352 -0.7083  0.3393
   36MOL0     H 4799  -0.569   6.332   0.558  0.3487  0.3193 -0.4700
   36MOL0     H 4800  -0.577   6.179   0.480  0.8903  1.2515 -0.7293
   36MOL0     H 4801  -0.712   6.089   0.644 -0.2795 -1.1130 -0.3454
   36MOL0     H 4802  -0.617   6.165   0.776 -1.2205 -2.0851  0.2895
   36MOL0     H 4803  -0.827   6.296   0.577 -1.7099 -0.7932  0.7229
   36MOL0     H 4804  -0.863   6.224   0.739  0.7124 -1.6397  0.4825
   36MOL0     H 4805  -0.708   6.480   0.665 -3.2283  0.2732 -2.6048
   36MOL0     H 4806  -0.870   6.469   0.734 -1.2453 -0.8508 -3.3548
   36MOL0     H 4807  -0.768   6.349   0.934  0.2459  0.4500  1.2544
   36MOL0     H 4808  -0.613   6.379   0.841 -0.1958 -1.2859  0.0397
   36MOL0     H 4809  -0.825   6.591   0.934  0.7609  3.0736 -1.3696
   36MOL0     H 4810  -0.683   6.626   0.845  0.3548 -1.2268 -2.5304
   36MOL0     H 4811  -0.775   6.424   1.193  0.1881  1.4874  0.7429
   36MOL0     H 4812  -0.686   6.437   1.416 -1.4293  0.1151 -2.7265
   36MOL0     H 4813  -0.509   6.489   1.423  0.6663  2.3225  1.2784
   36MOL0     H 4814  -0.777   6.643   1.487 -0.9246 -2.5970  2.7327
   36MOL0     H 4815  -0.614   6.718   1.471  0.2407  0.2999  0.8139
   36MOL0     H 4816  -0.649   6.694   1.692 -1.0588 -0.1788 -0.7976
   36MOL0     H 4817  -0.548   6.554   1.650  0.6467  1.3919 -0.9630
   36MOL0     H 4818  -0.751   6.462   1.793 -0.6215 -0.3019 -0.0273
   36MOL0     H 4819  -0.740   6.400   1.634  2.7622  0.4808  0.5773
   36MOL0     H 4820  -0.793   6.635   1.902 -0.7665  0.0652  1.4103
   36MOL0     H 4821  -0.946   6.780   2.201  0.2411 -1.5094 -0.3498
   36MOL0     H 4822  -0.788   6.729   2.118  1.3027  1.7354 -0.7180
   36MOL0     H 4823  -0.856   6.888   2.103  1.3946 -0.5940  0.7740
   36MOL0     H 4824  -1.491   6.863   2.155  0.3094  0.7226 -1.3590
   36MOL0     H 4825  -1.593   7.023   2.324 -0.5337  0.3831  0.1459
   36MOL0     H 4826  -1.471   7.443   2.295  2.8986 -1.2399 -0.0779
   36MOL0     H 4827  -1.569   7.444   2.444  0.4404  0.5309  1.1547
   36MOL0     H 4828  -1.284   7.501   2.415  2.4758  1.5834  3.4365
   36MOL0     H 4829  -1.400   7.544   2.540 -0.1888 -1.6718  1.4693
   36MOL0     H 4830  -1.217   7.309   2.506 -0.1795 -0.0787 -0.7828
   36MOL0     H 4831  -1.360   7.288   2.618 -0.8589  1.6040  0.7961
   36MOL0     H 4832  -1.200   7.525   2.655 -2.3250  0.5872  0.4823
   36MOL0     H 4833  -1.307   7.437   2.771  1.2563 -0.3685  2.3800
   36MOL0     H 4834  -1.039   7.338   2.661  0.2561  0.0233  0.4034
   36MOL0     H 4835  -1.135   7.253   2.792 -0.4302  0.7219  2.0010
   36MOL0     H 4836  -1.009   7.533   2.813 -0.1580  0.0418  0.4410
   36MOL0     H 4837  -1.089   7.452   2.942 -0.2093  0.0227  0.2970
   36MOL0     H 4838  -0.833   7.366   2.827 -0.5820  0.2747  0.0289
   36MOL0     H 4839  -0.912   7.279   2.967 -0.6278  0.8680  1.6284
   36MOL0     H 4840  -0.923   7.464   3.103  0.0920  0.7282 -0.2528
   36MOL0     H 4841  -0.838   7.567   2.983  1.9791 -0.6375 -1.8605
   36MOL0     H 4842  -1.282   7.313   2.215  0.6394 -0.2625  2.1182
   36MOL0     H 4843  -1.190   7.145   2.056 -0.4078 -0.0681 -0.8411
   36MOL0     H 4844  -1.248   6.761   1.810  0.1344 -2.5220 -1.0587
   36MOL0     H 4845  -1.137   6.626   1.661  3.8966 -2.7784 -1.0023
   36MOL0     H 4846  -0.132   5.829   0.538  0.7537 -0.2252 -0.8970
   36MOL0     H 4847   0.067   5.842   0.388  0.0947 -0.7874  1.1039
   36MOL0     H 4848   0.374   5.914   0.230  0.3707 -2.4779 -4.6525
   36MOL0     H 4849   0.568   5.885   0.076 -1.7592 -0.3298 -1.3364
   36MOL0     H 4850   0.811   5.998   0.123  1.7635 -0.6680  0.0689
   36MOL0     H 4851   0.779   5.916  -0.023 -0.0024 -0.4967  1.2114
   36MOL0     H 4852   0.966   6.047  -0.136  2.3727  2.2053  0.2084
   36MOL0     H 4853   1.014   5.967   0.018 -1.0900 -0.0743 -0.0118
   36MOL0     H 4854   1.008   6.169   0.146 -0.3258 -0.3389 -0.1535
   36MOL0     H 4855   0.935   6.260   0.010 -0.2015  0.0529 -1.3075
   36MOL0     H 4856   1.164   6.247  -0.114 -2.6346  0.7680 -0.0441
   36MOL0     H 4857   1.213   6.123  -0.003 -4.0903 -1.7279 -0.2202
   36MOL0     H 4858   1.353   6.461   0.175  1.3573  0.2864 -3.1722
   36MOL0     H 4859   0.573   6.312   0.015  4.2150 -1.8817  0.8921
   36MOL0     H 4860   0.400   6.341   0.186 -0.8643 -0.0109 -0.5885
   37MOL0     O 4861   7.553   3.768   7.472  0.3060  0.2656  0.0138
   37MOL0     C 4862   7.576   3.684   7.565  0.0327 -0.2505 -0.1478
   37MOL0     O 4863   7.501   3.674   7.682 -0.4306 -0.3906 -0.5869
   37MOL0     C 4864   7.407   3.763   7.719  0.1203  0.3795  0.2753
   37MOL0     C 4865   7.317   3.716   7.811  0.6140  0.9616 -0.6056
   37MOL0     C 4866   7.218   3.802   7.877 -0.6521  0.0151 -0.2931
   37MOL0     C 4867   7.213   3.933   7.835 -0.5315 -0.5791  0.4150
   37MOL0     O 4868   7.120   4.029   7.859  0.6269  0.0084  0.5599
   37MOL0     C 4869   7.004   4.008   7.939  0.1190  0.1099  0.3555
   37MOL0     C 4870   7.030   4.017   8.089  0.8644 -0.4150 -0.3111
   37MOL0     C 4871   6.909   3.976   8.172  0.2036 -0.1389 -1.1060
   37MOL0     C 4872   6.934   3.922   8.313  0.1133 -0.3329  0.9773
   37MOL0     C 4873   6.805   3.916   8.400 -0.1900  1.3682  0.3617
   37MOL0     C 4874   6.747   4.047   8.438  0.5870  0.1663  0.3793
   37MOL0     C 4875   6.588   4.053   8.443 -0.4303  1.0482 -0.3333
   37MOL0     C 4876   6.540   4.141   8.555 -0.2304 -0.3554 -0.1050
   37MOL0     N 4877   6.609   4.270   8.560 -0.6864 -0.1865  0.4910
   37MOL0     C 4878   6.552   4.383   8.514 -0.0217  0.2662  0.5119
   37MOL0     C 4879   6.610   4.484   8.583 -0.5992 -0.5750  0.5557
   37MOL0     C 4880   6.585   4.632   8.586  0.2015  1.2223 -0.8594
   37MOL0     C 4881   6.635   4.682   8.451  0.0146 -0.1243  0.4704
   37MOL0     C 4882   6.633   4.826   8.439  0.3371 -1.4185 -0.1979
   37MOL0     C 4883   6.487   4.881   8.387 -0.4819 -0.2245  0.1152
   37MOL0     O 4884   6.490   5.022   8.405  0.5710 -0.0551 -0.2229
   37MOL0     C 4885   6.434   5.102   8.310  0.0205 -0.0350  0.5456
   37MOL0     C 4886   6.506   5.216   8.269  0.6525 -0.4829  0.6047
   37MOL0     C 4887   6.456   5.297   8.163 -0.6402  0.0058  0.5130
   37MOL0     C 4888   6.533   5.413   8.114 -0.7595 -0.6805 -0.4485
   37MOL0     C 4889   6.329   5.271   8.106  0.7254 -0.3569  0.0363
   37MOL0     C 4890   6.256   5.358   8.013  1.0087  0.6950 -1.4678
   37MOL0     O 4891   6.180   5.300   7.916 -0.1082  0.5056 -0.0713
   37MOL0     C 4892   6.084   5.373   7.853 -0.5980 -0.2843 -0.3340
   37MOL0     C 4893   5.973   5.417   7.922 -0.3295 -0.3721  0.1754
   37MOL0     C 4894   5.890   5.516   7.866 -0.3294  0.3142 -0.6994
   37MOL0     C 4895   5.912   5.549   7.734  0.0680 -1.3306 -0.3972
   37MOL0     O 4896   5.841   5.643   7.670 -0.3869  0.0283 -0.1912
   37MOL0     C 4897   5.708   5.677   7.722  0.2409  0.0291  0.7431
   37MOL0     C 4898   5.656   5.780   7.620 -0.4659  1.3046  0.3677
   37MOL0     C 4899   5.521   5.825   7.664  0.1314 -0.6523  0.7093
   37MOL0     C 4900   5.482   5.941   7.568  0.0866 -0.1117 -0.8582
   37MOL0     C 4901   5.325   5.931   7.535 -0.2323 -0.1628 -0.4480
   37MOL0     C 4902   5.267   6.054   7.452  0.0564  0.7895  0.0359
   37MOL0     C 4903   5.115   6.028   7.417 -0.4116  0.0057  0.4162
   37MOL0     C 4904   5.030   6.155   7.433  0.0170  0.8125 -0.1890
   37MOL0    Cl 4905   4.858   6.149   7.361  0.1003  0.0706 -0.1885
   37MOL0     C 4906   6.021   5.499   7.665 -0.7447  0.8778 -0.1140
   37MOL0     C 4907   6.109   5.411   7.724  0.2451 -0.8016  1.2078
   37MOL0     O 4908   6.244   5.471   8.044  0.5033  0.0830  0.8693
   37MOL0     C 4909   6.250   5.160   8.148  0.2339 -0.2009  0.5163
   37MOL0     C 4910   6.305   5.074   8.246 -0.1620  0.5316 -0.5351
   37MOL0     N 4911   6.716   4.429   8.648 -0.9144  0.0251  0.1281
   37MOL0     N 4912   6.726   4.300   8.629 -0.2287 -0.4010 -0.2652
   37MOL0     C 4913   7.300   3.980   7.731  0.2593 -1.5967 -0.3648
   37MOL0     C 4914   7.391   3.892   7.674 -0.1796 -0.7887 -0.2831
   37MOL0     C 4915   7.694   3.594   7.545 -0.2409  0.1124 -0.0545
   37MOL0     C 4916   7.755   3.526   7.650  0.2436 -0.0709 -0.5611
   37MOL0     C 4917   7.855   3.430   7.633 -0.2654  0.2090 -0.2347
   37MOL0     C 4918   7.898   3.416   7.500  0.1151 -0.5447 -0.4554
   37MOL0     O 4919   7.976   3.309   7.491 -0.8059  0.5970 -1.2252
   37MOL0     C 4920   8.071   3.300   7.387 -0.0928 -0.3095 -0.3988
   37MOL0     C 4921   8.121   3.147   7.393 -0.2272 -0.3503 -0.4409
   37MOL0     C 4922   8.185   3.103   7.529 -0.2146  0.1989  0.6897
   37MOL0     C 4923   8.296   3.199   7.562 -0.6062 -0.2123  0.0676
   37MOL0     C 4924   8.398   3.199   7.458 -1.5219 -0.8806 -0.7860
   37MOL0     C 4925   8.472   3.215   7.362  0.1745 -0.3072 -0.1948
   37MOL0     C 4926   7.848   3.491   7.389 -0.0963 -0.3598  0.4185
   37MOL0     C 4927   7.750   3.584   7.415 -0.4325  0.3865 -1.2588
   37MOL0     H 4928   7.332   3.618   7.853  1.0557  1.9845  1.7886
   37MOL0     H 4929   7.159   3.773   7.963  1.3853  3.1629  2.4021
   37MOL0     H 4930   6.929   4.081   7.908  0.9302  1.4359  1.4168
   37MOL0     H 4931   6.970   3.905   7.921  0.2591  0.1958 -0.4408
   37MOL0     H 4932   7.119   3.964   8.123  0.9235 -0.5603 -0.6818
   37MOL0     H 4933   7.046   4.123   8.113 -2.2596 -0.4951  2.7782
   37MOL0     H 4934   6.839   4.059   8.189  0.6635 -0.0021  0.2440
   37MOL0     H 4935   6.857   3.900   8.114  1.1499 -0.7573 -1.1549
   37MOL0     H 4936   6.970   3.820   8.302 -0.6527 -0.4012 -1.4803
   37MOL0     H 4937   7.008   3.983   8.366  1.3687  1.6396 -2.6402
   37MOL0     H 4938   6.730   3.860   8.342 -0.0187  0.4910  0.9788
   37MOL0     H 4939   6.825   3.855   8.488  0.9291 -0.0883 -0.8416
   37MOL0     H 4940   6.775   4.043   8.544  0.0435 -2.9604  0.4998
   37MOL0     H 4941   6.798   4.133   8.394  2.4555  0.5536  3.0248
   37MOL0     H 4942   6.545   4.081   8.346  1.2961 -1.9511 -2.1046
   37MOL0     H 4943   6.545   3.953   8.454  0.2251  0.7602 -0.3465
   37MOL0     H 4944   6.561   4.082   8.646  1.2284  1.5090  0.8372
   37MOL0     H 4945   6.433   4.151   8.536 -1.0460 -3.3248  2.0494
   37MOL0     H 4946   6.457   4.376   8.462  0.9263  0.1246 -1.2709
   37MOL0     H 4947   6.476   4.645   8.594  0.2066  0.6058  0.4426
   37MOL0     H 4948   6.631   4.674   8.676  3.7679 -2.1408 -0.8761
   37MOL0     H 4949   6.586   4.645   8.360  1.4372  0.8570 -0.7253
   37MOL0     H 4950   6.738   4.647   8.443  0.7686  2.3791 -2.7646
   37MOL0     H 4951   6.709   4.855   8.366 -1.7232 -1.5498 -2.5172
   37MOL0     H 4952   6.660   4.875   8.533 -3.1176  0.6600 -0.0985
   37MOL0     H 4953   6.414   4.829   8.450  2.0494 -2.9596  1.0443
   37MOL0     H 4954   6.477   4.853   8.282 -1.7972 -0.7426  0.3525
   37MOL0     H 4955   6.595   5.244   8.324  1.4287  1.4575 -1.4661
   37MOL0     H 4956   6.632   5.367   8.115 -0.5469 -0.2986  1.5959
   37MOL0     H 4957   6.508   5.451   8.015 -0.1229  2.7330  0.5586
   37MOL0     H 4958   6.528   5.502   8.178 -0.5455 -0.5883 -0.5596
   37MOL0     H 4959   5.977   5.378   8.024 -1.8347  1.7192  1.1257
   37MOL0     H 4960   5.803   5.560   7.914 -0.0658 -0.5817  0.6577
   37MOL0     H 4961   5.647   5.588   7.730 -1.1467  0.9625  0.8898
   37MOL0     H 4962   5.714   5.738   7.813 -3.2150 -1.3942  2.0717
   37MOL0     H 4963   5.722   5.867   7.610  0.0104  0.6723 -2.9767
   37MOL0     H 4964   5.647   5.729   7.524 -1.0822 -2.0792  2.0731
   37MOL0     H 4965   5.515   5.866   7.766 -0.6395  0.6289  0.1788
   37MOL0     H 4966   5.442   5.750   7.662 -2.0264  1.4783  1.1152
   37MOL0     H 4967   5.511   6.039   7.605 -0.9009  0.3900 -1.3826
   37MOL0     H 4968   5.537   5.931   7.474 -0.6151  0.4293 -1.3278
   37MOL0     H 4969   5.283   5.923   7.635  2.7706 -2.3061  0.7913
   37MOL0     H 4970   5.311   5.835   7.484 -1.6659  0.7030 -1.7870
   37MOL0     H 4971   5.283   6.149   7.504 -0.3144 -1.1407  3.9920
   37MOL0     H 4972   5.323   6.071   7.359  2.0145  1.4368  1.2728
   37MOL0     H 4973   5.085   5.947   7.483 -3.9251 -0.0829 -1.0883
   37MOL0     H 4974   5.115   5.991   7.314  0.3184 -1.0133  0.7656
   37MOL0     H 4975   5.084   6.238   7.387  1.9279 -1.5396 -2.4894
   37MOL0     H 4976   5.015   6.174   7.540  2.1137  2.0813 -0.0708
   37MOL0     H 4977   6.044   5.538   7.566  0.3962  2.9491  0.9128
   37MOL0     H 4978   6.189   5.362   7.670  1.3836  1.8312  0.3192
   37MOL0     H 4979   6.146   5.156   8.119  0.0584 -1.3637  1.2688
   37MOL0     H 4980   6.246   4.989   8.277  2.3376 -0.0150  3.3858
   37MOL0     H 4981   7.274   4.072   7.682 -1.9736 -3.7491 -3.6017
   37MOL0     H 4982   7.449   3.935   7.593 -0.6628  3.2246  1.2617
   37MOL0     H 4983   7.709   3.530   7.749 -3.1154  0.8878 -2.0086
   37MOL0     H 4984   7.902   3.374   7.714  2.0536  1.2984 -0.7486
   37MOL0     H 4985   8.026   3.319   7.289  0.4797 -0.1092 -0.6267
   37MOL0     H 4986   8.151   3.371   7.413 -1.2293  1.2604 -1.0151
   37MOL0     H 4987   8.200   3.126   7.320  0.3879 -0.2170  0.1789
   37MOL0     H 4988   8.030   3.088   7.377 -0.7015  0.2628 -0.0510
   37MOL0     H 4989   8.235   3.006   7.520  2.1322  1.2189  2.0260
   37MOL0     H 4990   8.113   3.105   7.612  0.3519 -0.4526  1.1997
   37MOL0     H 4991   8.344   3.171   7.657 -2.7154 -1.7665  0.7548
   37MOL0     H 4992   8.266   3.304   7.569  3.8722  1.2833  0.0227
   37MOL0     H 4993   8.544   3.222   7.283  1.1076 -0.5473  0.6185
   37MOL0     H 4994   7.873   3.473   7.285 -0.7974 -0.8393  0.3308
   37MOL0     H 4995   7.709   3.651   7.341 -3.2818 -1.3820 -1.4387
   38MOL0     O 4996   2.685   9.260   0.444  0.4504 -0.3879  0.2827
   38MOL0     C 4997   2.728   9.358   0.509 -1.0210 -0.0428 -0.5389
   38MOL0     O 4998   2.667   9.410   0.623 -0.3681  0.1571 -0.4849
   38MOL0     C 4999   2.560   9.358   0.686 -0.0906  0.3808  0.0327
   38MOL0     C 5000   2.470   9.442   0.751  1.0734  0.3844  0.9849
   38MOL0     C 5001   2.367   9.399   0.828  0.3450  0.5777 -0.3075
   38MOL0     C 5002   2.338   9.262   0.833 -0.2195  0.0249  0.0793
   38MOL0     O 5003   2.219   9.238   0.898  0.7442 -0.6423  0.6577
   38MOL0     C 5004   2.164   9.104   0.887  0.6203 -0.0058 -0.3338
   38MOL0     C 5005   2.114   9.055   1.028  0.0546 -0.6751 -0.5500
   38MOL0     C 5006   2.038   8.928   1.006 -0.8142  0.6870 -0.0851
   38MOL0     C 5007   1.893   8.937   0.958  0.0593  0.1642 -0.5116
   38MOL0     C 5008   1.830   8.798   0.938  0.2829 -0.2975  0.4148
   38MOL0     C 5009   1.694   8.796   0.864 -0.3966  0.3815 -0.3288
   38MOL0     C 5010   1.647   8.650   0.828 -0.3397  0.1541 -0.7159
   38MOL0     C 5011   1.513   8.670   0.761 -0.0167 -0.1787 -0.6512
   38MOL0     N 5012   1.413   8.715   0.863  0.2673  0.2241  0.5559
   38MOL0     C 5013   1.408   8.682   0.994  0.9012 -0.1880  0.4956
   38MOL0     C 5014   1.311   8.760   1.034 -0.1788  0.8095 -0.2100
   38MOL0     C 5015   1.272   8.751   1.179  0.2614  0.2948 -1.0618
   38MOL0     C 5016   1.133   8.692   1.199  0.7928  0.3535 -0.1362
   38MOL0     C 5017   1.090   8.711   1.347  0.2434  0.7039 -0.3184
   38MOL0     C 5018   1.155   8.620   1.465 -0.9273 -0.5462 -0.3767
   38MOL0     O 5019   1.152   8.482   1.438 -0.5467  0.4726  0.4879
   38MOL0     C 5020   1.028   8.426   1.448  0.1889  0.4087  0.3298
   38MOL0     C 5021   1.009   8.306   1.378 -0.6702  0.0180 -0.4561
   38MOL0     C 5022   0.885   8.243   1.353  0.7588 -0.1226 -0.9786
   38MOL0     C 5023   0.873   8.106   1.306 -0.2971  0.9280  0.7104
   38MOL0     C 5024   0.766   8.311   1.392 -0.0513 -0.0089 -0.0713
   38MOL0     C 5025   0.629   8.266   1.364 -0.3965  0.0628  0.0968
   38MOL0     O 5026   0.584   8.259   1.233 -0.1915 -0.3621 -0.2562
   38MOL0     C 5027   0.485   8.170   1.197 -0.0382 -0.0405 -0.1570
   38MOL0     C 5028   0.359   8.229   1.168  0.7222 -0.5345  0.3772
   38MOL0     C 5029   0.250   8.143   1.160 -0.2188 -0.3855 -0.6864
   38MOL0     C 5030   0.267   7.999   1.174 -0.8191  0.3958  0.0566
   38MOL0     O 5031   0.163   7.907   1.176 -0.3624  0.5228  0.0534
   38MOL0     C 5032   0.044   7.928   1.100  0.0213 -0.3250  0.0698
   38MOL0     C 5033  -0.067   7.986   1.187 -0.2430 -0.1122  0.1966
   38MOL0     C 5034  -0.190   7.998   1.103  0.4415  0.2183 -0.2076
   38MOL0     C 5035  -0.318   7.950   1.175 -0.5721 -0.9803 -0.0599
   38MOL0     C 5036  -0.446   7.978   1.100 -0.4839 -0.2917  0.8729
   38MOL0     C 5037  -0.573   7.913   1.165  0.1876  0.2600  0.5603
   38MOL0     C 5038  -0.614   7.978   1.301  0.6627 -0.8896 -0.1832
   38MOL0     C 5039  -0.747   7.911   1.354 -0.1618 -0.1368  0.6418
   38MOL0    Cl 5040  -0.722   7.733   1.371  0.4645  0.4082 -0.1543
   38MOL0     C 5041   0.398   7.948   1.210  0.4963 -0.8331 -0.1952
   38MOL0     C 5042   0.504   8.034   1.220 -0.0844 -0.2977 -0.4568
   38MOL0     O 5043   0.561   8.245   1.460 -0.0719 -0.0728 -0.8022
   38MOL0     C 5044   0.784   8.430   1.463 -0.2409 -0.9519  0.0036
   38MOL0     C 5045   0.908   8.493   1.483  0.9286  0.7018 -0.3031
   38MOL0     N 5046   1.256   8.835   0.938 -0.1452 -1.6332 -0.1359
   38MOL0     N 5047   1.318   8.816   0.830  0.8818  0.3321 -0.7838
   38MOL0     C 5048   2.437   9.174   0.786  0.1290  0.5183  0.1757
   38MOL0     C 5049   2.542   9.221   0.717 -0.1380  0.2220  0.2813
   38MOL0     C 5050   2.870   9.397   0.476  0.0711 -0.0426  0.1360
   38MOL0     C 5051   2.926   9.374   0.343  0.2749 -0.2516 -0.0436
   38MOL0     C 5052   3.057   9.416   0.310 -1.3123  0.0437  0.0750
   38MOL0     C 5053   3.135   9.496   0.401 -1.3863 -0.2248  0.5730
   38MOL0     O 5054   3.251   9.553   0.384 -0.3758 -0.2853  1.0017
   38MOL0     C 5055   3.332   9.538   0.262 -0.4184  0.6805  0.4052
   38MOL0     C 5056   3.482   9.581   0.295 -0.6487 -0.3456 -0.4604
   38MOL0     C 5057   3.568   9.550   0.175 -0.6870  0.3443  0.4410
   38MOL0     C 5058   3.719   9.525   0.213 -0.5453 -0.3379 -0.0203
   38MOL0     C 5059   3.782   9.413   0.138  0.0953  0.3233  0.7266
   38MOL0     C 5060   3.828   9.303   0.106 -0.6846  0.2578  0.0793
   38MOL0     C 5061   3.077   9.518   0.525  0.3801  0.8943  1.2034
   38MOL0     C 5062   2.951   9.472   0.564 -0.9430  1.1382  1.2275
   38MOL0     H 5063   2.478   9.548   0.727  2.4129  0.4684  1.7501
   38MOL0     H 5064   2.289   9.462   0.869 -1.5841 -1.5465 -0.5190
   38MOL0     H 5065   2.084   9.107   0.812 -0.5089  0.6696  0.8690
   38MOL0     H 5066   2.239   9.033   0.850 -0.6484 -0.8358 -1.3986
   38MOL0     H 5067   2.193   9.045   1.103 -2.4162 -2.3525  2.0736
   38MOL0     H 5068   2.048   9.129   1.076  0.8768 -2.5609  4.0489
   38MOL0     H 5069   2.092   8.871   0.930 -0.3001 -0.2997  0.9735
   38MOL0     H 5070   2.047   8.874   1.101 -2.2413  4.4231  2.4254
   38MOL0     H 5071   1.826   8.999   1.018 -2.3050 -2.2504 -0.4294
   38MOL0     H 5072   1.893   8.997   0.866  0.5469  2.2274  0.7752
   38MOL0     H 5073   1.899   8.750   0.869 -0.2141 -0.9065  0.3319
   38MOL0     H 5074   1.830   8.739   1.030 -0.9952 -0.1956  0.5047
   38MOL0     H 5075   1.631   8.825   0.949  1.7521  1.3223  1.0513
   38MOL0     H 5076   1.699   8.873   0.787  1.2543  1.4672  0.7660
   38MOL0     H 5077   1.713   8.613   0.749 -0.5007 -1.1135 -0.2839
   38MOL0     H 5078   1.640   8.580   0.911  2.0356 -0.2699 -0.8102
   38MOL0     H 5079   1.494   8.582   0.699  0.4329 -3.5231  3.5237
   38MOL0     H 5080   1.521   8.756   0.694  2.8393 -0.2436 -0.4909
   38MOL0     H 5081   1.457   8.614   1.063  1.7303  2.1928  2.4303
   38MOL0     H 5082   1.343   8.688   1.234  1.1352 -0.3269 -2.8325
   38MOL0     H 5083   1.282   8.852   1.220  2.2112 -0.1453 -0.3358
   38MOL0     H 5084   1.133   8.589   1.163 -0.8601  0.7165 -1.3446
   38MOL0     H 5085   1.061   8.743   1.134 -0.8611  0.9702  2.0267
   38MOL0     H 5086   0.982   8.696   1.339  0.4220  0.0676 -1.9490
   38MOL0     H 5087   1.111   8.810   1.387  0.5827  0.8617 -0.8791
   38MOL0     H 5088   1.118   8.644   1.565 -3.2758 -1.5668 -0.9283
   38MOL0     H 5089   1.258   8.652   1.452 -0.3808 -1.8084  0.7212
   38MOL0     H 5090   1.100   8.251   1.353  0.7364  0.7790  2.5629
   38MOL0     H 5091   0.800   8.094   1.226  2.0434 -1.9178 -1.2051
   38MOL0     H 5092   0.963   8.070   1.257  0.0520  0.9882  1.2929
   38MOL0     H 5093   0.858   8.029   1.383  0.3996  0.4289  0.3528
   38MOL0     H 5094   0.349   8.333   1.139  1.9884 -0.6006 -0.3876
   38MOL0     H 5095   0.145   8.166   1.148 -0.9451 -1.9434  1.7756
   38MOL0     H 5096   0.065   7.979   1.006 -0.4826  0.8684  0.5747
   38MOL0     H 5097   0.010   7.829   1.069 -1.1691  0.8707 -2.8436
   38MOL0     H 5098  -0.090   7.922   1.272  1.8172  0.0108  0.9175
   38MOL0     H 5099  -0.037   8.083   1.229 -0.0395 -0.3009  0.4993
   38MOL0     H 5100  -0.181   7.936   1.013  2.4704  0.1377  0.0058
   38MOL0     H 5101  -0.198   8.104   1.077  0.4538  0.5909  1.2220
   38MOL0     H 5102  -0.320   7.841   1.186 -2.3308 -0.9302  0.4297
   38MOL0     H 5103  -0.320   7.989   1.277  2.1732  1.0285 -0.6553
   38MOL0     H 5104  -0.438   7.931   1.001 -4.0992  2.6681 -1.0935
   38MOL0     H 5105  -0.475   8.083   1.089 -0.6126 -0.5807 -3.0759
   38MOL0     H 5106  -0.662   7.935   1.105  0.2832 -1.6281 -0.3318
   38MOL0     H 5107  -0.558   7.805   1.167 -2.3120 -0.1621  2.7597
   38MOL0     H 5108  -0.618   8.088   1.301  2.9409 -0.6631  3.4525
   38MOL0     H 5109  -0.533   7.954   1.369  0.5375 -1.1481 -0.1272
   38MOL0     H 5110  -0.827   7.933   1.282  0.1270 -3.6700 -0.9693
   38MOL0     H 5111  -0.773   7.949   1.454  0.3594  4.3593 -0.7252
   38MOL0     H 5112   0.414   7.841   1.219  0.2589 -0.8771 -0.2975
   38MOL0     H 5113   0.602   8.000   1.253 -1.1121  0.3540  3.9536
   38MOL0     H 5114   0.693   8.482   1.491 -0.6487 -1.1374 -0.9293
   38MOL0     H 5115   0.913   8.591   1.531  2.0532 -0.1762  1.4729
   38MOL0     H 5116   2.441   9.070   0.819  4.6212  0.3262 -0.3839
   38MOL0     H 5117   2.608   9.146   0.673  0.6559 -0.4441  2.4914
   38MOL0     H 5118   2.874   9.319   0.265 -0.5749 -0.2673  0.5157
   38MOL0     H 5119   3.082   9.390   0.207 -0.4981  1.2634 -0.0463
   38MOL0     H 5120   3.328   9.438   0.217  1.0405  2.1408 -3.3262
   38MOL0     H 5121   3.289   9.609   0.191  0.7394  1.0361  0.0469
   38MOL0     H 5122   3.515   9.527   0.384  2.6309  2.5173  0.3025
   38MOL0     H 5123   3.499   9.681   0.334  0.6904 -0.7951  0.1952
   38MOL0     H 5124   3.574   9.633   0.103  0.4406  0.7473  0.9835
   38MOL0     H 5125   3.525   9.468   0.117 -0.9010 -0.2980  1.4925
   38MOL0     H 5126   3.735   9.499   0.318  3.3765 -1.0770 -0.6585
   38MOL0     H 5127   3.772   9.621   0.203 -1.4805  0.2721  0.6372
   38MOL0     H 5128   3.875   9.217   0.063  0.8656  1.8659 -1.6674
   38MOL0     H 5129   3.129   9.573   0.602 -1.4199  4.9393 -0.1872
   38MOL0     H 5130   2.923   9.473   0.669 -0.9181  0.2927  1.2434
   39MOL0     O 5131   0.410   9.246   0.752 -0.2887  0.3005 -0.2013
   39MOL0     C 5132   0.465   9.220   0.640 -0.4409  0.3886  0.5912
   39MOL0     O 5133   0.416   9.149   0.541  0.2279  0.0123 -0.4176
   39MOL0     C 5134   0.278   9.132   0.524 -0.5438  0.8634  0.0605
   39MOL0     C 5135   0.245   9.036   0.424  1.0339  0.9210  0.1671
   39MOL0     C 5136   0.116   9.019   0.370  0.1377  0.6017  0.5984
   39MOL0     C 5137   0.009   9.100   0.422 -0.0742  0.9603  0.6076
   39MOL0     O 5138  -0.119   9.064   0.376 -0.2886 -0.0790  0.0630
   39MOL0     C 5139  -0.234   9.128   0.438 -0.5779 -0.0449 -0.2748
   39MOL0     C 5140  -0.366   9.070   0.390 -0.3211 -0.9703  0.0662
   39MOL0     C 5141  -0.376   8.928   0.441  0.1740 -0.2017  0.0135
   39MOL0     C 5142  -0.512   8.859   0.399  0.4374 -0.4874 -0.6520
   39MOL0     C 5143  -0.538   8.723   0.457 -0.7283  0.6955 -0.0276
   39MOL0     C 5144  -0.687   8.689   0.429 -0.3561 -0.1950  0.0513
   39MOL0     C 5145  -0.780   8.704   0.553  0.6078 -0.0650 -0.3553
   39MOL0     C 5146  -0.929   8.739   0.520  0.3638 -0.1087  0.0040
   39MOL0     N 5147  -0.985   8.647   0.427  1.2631 -0.8361  0.3913
   39MOL0     C 5148  -1.023   8.517   0.457 -0.4138 -0.1681 -0.8896
   39MOL0     C 5149  -1.090   8.477   0.347  0.7006 -0.0735  0.2962
   39MOL0     C 5150  -1.149   8.333   0.322 -0.3945  1.0249 -0.2646
   39MOL0     C 5151  -1.280   8.349   0.248 -0.5946  0.2145  0.2114
   39MOL0     C 5152  -1.266   8.371   0.103  0.2855 -0.1873  0.3561
   39MOL0     C 5153  -1.408   8.349   0.042 -0.3364 -0.2722  0.3857
   39MOL0     O 5154  -1.414   8.404  -0.095  0.4100  0.3274 -0.4954
   39MOL0     C 5155  -1.537   8.426  -0.142  1.2593 -1.2275  0.7960
   39MOL0     C 5156  -1.567   8.564  -0.151 -0.4539 -0.0441  0.1345
   39MOL0     C 5157  -1.699   8.613  -0.174  0.0633 -0.4133 -0.4355
   39MOL0     C 5158  -1.721   8.763  -0.178 -0.3037  0.0925  0.1788
   39MOL0     C 5159  -1.805   8.524  -0.187 -0.2895  0.5455 -0.2748
   39MOL0     C 5160  -1.947   8.560  -0.202  0.9833 -0.3694  1.4669
   39MOL0     O 5161  -2.037   8.457  -0.169  0.4705 -0.3699 -0.2844
   39MOL0     C 5162  -2.173   8.481  -0.162 -0.0864 -1.1931 -0.5393
   39MOL0     C 5163  -2.229   8.559  -0.061  1.2430  0.9435 -0.1606
   39MOL0     C 5164  -2.368   8.582  -0.054 -0.6087 -0.3262  0.4964
   39MOL0     C 5165  -2.451   8.523  -0.142 -0.1782 -1.1486  2.3277
   39MOL0     O 5166  -2.578   8.545  -0.118  0.2198 -0.4703 -0.1670
   39MOL0     C 5167  -2.664   8.427  -0.118 -0.6928  0.3222  0.0363
   39MOL0     C 5168  -2.774   8.452  -0.017  0.1826  0.1306 -0.3632
   39MOL0     C 5169  -2.894   8.536  -0.067 -0.4000 -0.5652  0.9420
   39MOL0     C 5170  -2.995   8.568   0.044 -0.6337  0.0651  0.0260
   39MOL0     C 5171  -3.120   8.637  -0.025 -0.7617 -0.5208 -0.0872
   39MOL0     C 5172  -3.082   8.778  -0.076  0.9988 -0.3424  0.1552
   39MOL0     C 5173  -3.170   8.879  -0.000 -0.2570 -0.3286 -0.0144
   39MOL0     C 5174  -3.180   9.021  -0.062 -0.2295 -0.0348 -0.1661
   39MOL0    Cl 5175  -3.217   9.028  -0.234  0.3792  0.0894  0.3120
   39MOL0     C 5176  -2.396   8.438  -0.247 -0.1336 -0.5611 -0.2480
   39MOL0     C 5177  -2.261   8.426  -0.252 -0.4046  0.4156 -0.6695
   39MOL0     O 5178  -1.981   8.666  -0.258 -0.5371 -0.4328 -0.0268
   39MOL0     C 5179  -1.772   8.384  -0.190  1.1038 -0.6352 -0.6345
   39MOL0     C 5180  -1.645   8.335  -0.163 -0.0874  0.3525 -0.0440
   39MOL0     N 5181  -1.103   8.588   0.261  1.2579  0.2305  0.2724
   39MOL0     N 5182  -1.039   8.688   0.312  1.0332 -0.4431  0.3551
   39MOL0     C 5183   0.038   9.198   0.526 -0.7783 -0.1779 -0.4649
   39MOL0     C 5184   0.173   9.215   0.572 -0.4547 -0.4082  0.9564
   39MOL0     C 5185   0.608   9.254   0.622 -0.3519 -0.3916  0.4494
   39MOL0     C 5186   0.669   9.365   0.689 -0.7245  0.5321  0.9912
   39MOL0     C 5187   0.806   9.375   0.669  0.1198 -0.5745 -0.5055
   39MOL0     C 5188   0.882   9.294   0.586 -0.8757  0.2796 -0.4817
   39MOL0     O 5189   1.013   9.320   0.577 -0.1462 -0.3414 -0.1608
   39MOL0     C 5190   1.103   9.263   0.476 -0.5167 -0.1671 -0.0570
   39MOL0     C 5191   1.178   9.136   0.511 -0.9016 -0.2148 -0.0839
   39MOL0     C 5192   1.337   9.148   0.520 -0.4109 -0.1593 -0.0143
   39MOL0     C 5193   1.400   9.012   0.530  0.8342  0.8414  0.7224
   39MOL0     C 5194   1.545   9.032   0.553  0.5818  0.7232 -0.4110
   39MOL0     C 5195   1.667   9.018   0.558  0.2474  0.0479 -0.1297
   39MOL0     C 5196   0.814   9.190   0.517  0.1883 -0.2519  0.2652
   39MOL0     C 5197   0.682   9.163   0.534 -0.5060 -0.0325 -0.6417
   39MOL0     H 5198   0.330   8.977   0.389 -0.4110 -0.6620 -0.8818
   39MOL0     H 5199   0.079   8.942   0.303  0.3118  1.1352 -0.1282
   39MOL0     H 5200  -0.222   9.134   0.547 -2.3698  0.9145 -0.0977
   39MOL0     H 5201  -0.238   9.234   0.411 -1.1926 -0.1444 -0.5728
   39MOL0     H 5202  -0.456   9.129   0.407 -1.6233 -1.9631 -2.6798
   39MOL0     H 5203  -0.370   9.075   0.280 -0.7275  0.9875  0.1446
   39MOL0     H 5204  -0.297   8.866   0.398 -0.9734 -2.2252  0.7178
   39MOL0     H 5205  -0.364   8.936   0.550  2.1416  0.6291 -0.2099
   39MOL0     H 5206  -0.594   8.926   0.427 -1.8788 -3.5428  0.3525
   39MOL0     H 5207  -0.512   8.845   0.290  2.7066  0.4017 -0.8140
   39MOL0     H 5208  -0.468   8.645   0.426  1.7834  3.6203 -2.4865
   39MOL0     H 5209  -0.537   8.724   0.567 -3.3063  1.5987  0.0507
   39MOL0     H 5210  -0.732   8.750   0.350  0.9027  0.3044 -0.3185
   39MOL0     H 5211  -0.702   8.588   0.390  2.6291 -0.5822 -0.3286
   39MOL0     H 5212  -0.785   8.611   0.610 -0.2987 -1.3486 -2.3841
   39MOL0     H 5213  -0.737   8.780   0.619 -1.4788  1.3620 -0.5468
   39MOL0     H 5214  -0.942   8.839   0.476  0.1390  1.0813  2.5848
   39MOL0     H 5215  -0.989   8.733   0.612  0.9481  2.1083  0.5986
   39MOL0     H 5216  -0.991   8.471   0.550 -0.0693 -0.3136 -1.0816
   39MOL0     H 5217  -1.082   8.272   0.259 -1.6224 -1.5101  0.7468
   39MOL0     H 5218  -1.161   8.280   0.417  2.6433  0.7650  0.0785
   39MOL0     H 5219  -1.340   8.427   0.297 -0.3704  2.3492 -2.6593
   39MOL0     H 5220  -1.344   8.265   0.276 -1.4835  0.8260  0.0625
   39MOL0     H 5221  -1.204   8.291   0.062 -1.9787 -1.1299 -1.4413
   39MOL0     H 5222  -1.223   8.466   0.070 -1.5496  0.0935 -1.4167
   39MOL0     H 5223  -1.476   8.405   0.107  0.8428  0.0623  1.3733
   39MOL0     H 5224  -1.436   8.243   0.040 -1.4103 -0.0028 -1.0252
   39MOL0     H 5225  -1.490   8.635  -0.123 -0.8971 -0.8815  4.1625
   39MOL0     H 5226  -1.756   8.789  -0.279 -3.7116 -0.0728  1.2037
   39MOL0     H 5227  -1.790   8.797  -0.100  1.0459  0.8274  1.0998
   39MOL0     H 5228  -1.630   8.823  -0.166  1.3590 -2.1138 -0.8462
   39MOL0     H 5229  -2.164   8.602   0.015  0.5377 -1.1471  1.7239
   39MOL0     H 5230  -2.415   8.644   0.022 -0.3207  0.0596  0.3623
   39MOL0     H 5231  -2.708   8.411  -0.217  3.8668  0.3728 -2.2721
   39MOL0     H 5232  -2.603   8.337  -0.105  0.9817  1.3088 -0.5490
   39MOL0     H 5233  -2.805   8.351   0.012  3.9893 -0.8469  0.7758
   39MOL0     H 5234  -2.732   8.498   0.073 -0.0411  1.4825 -0.9162
   39MOL0     H 5235  -2.943   8.493  -0.155 -0.6147 -1.2161  1.3739
   39MOL0     H 5236  -2.843   8.627  -0.101  0.5839 -0.7631  1.8316
   39MOL0     H 5237  -3.021   8.470   0.087  2.1714 -0.1563  1.4597
   39MOL0     H 5238  -2.949   8.631   0.120  0.7703 -0.6362 -0.2044
   39MOL0     H 5239  -3.194   8.635   0.056  1.7046  0.7376  2.3508
   39MOL0     H 5240  -3.166   8.580  -0.106 -1.7752  1.7975 -1.2667
   39MOL0     H 5241  -2.978   8.806  -0.059  0.8417 -0.1539  0.8386
   39MOL0     H 5242  -3.099   8.788  -0.184  3.0248  3.4228  0.0177
   39MOL0     H 5243  -3.126   8.885   0.100  0.2361 -1.7587 -0.1266
   39MOL0     H 5244  -3.270   8.836  -0.003  0.2612 -1.5774  0.1138
   39MOL0     H 5245  -3.077   9.059  -0.051  0.5884 -2.3123  0.5860
   39MOL0     H 5246  -3.255   9.077  -0.005  0.6667  1.8578 -0.7662
   39MOL0     H 5247  -2.458   8.376  -0.311 -1.9481  1.7361 -0.8886
   39MOL0     H 5248  -2.218   8.365  -0.330 -1.0884 -0.6611 -0.2327
   39MOL0     H 5249  -1.857   8.315  -0.189 -0.3293  1.0358 -1.4419
   39MOL0     H 5250  -1.617   8.231  -0.152  2.8190  1.1426  0.7936
   39MOL0     H 5251  -0.044   9.244   0.581  0.1609 -0.3693  1.1802
   39MOL0     H 5252   0.186   9.283   0.656 -2.8362  2.3188 -0.6863
   39MOL0     H 5253   0.614   9.436   0.750 -0.8138  0.3174  1.1592
   39MOL0     H 5254   0.856   9.443   0.736 -0.2347 -0.9441  0.1402
   39MOL0     H 5255   1.056   9.257   0.378 -0.9724  5.0067 -0.4483
   39MOL0     H 5256   1.183   9.335   0.456 -0.7979 -0.0193 -0.6639
   39MOL0     H 5257   1.151   9.054   0.443 -1.3656  0.7754 -1.1445
   39MOL0     H 5258   1.142   9.094   0.605 -2.4374  0.3503 -0.3847
   39MOL0     H 5259   1.367   9.197   0.614  0.5777 -0.3677 -0.2082
   39MOL0     H 5260   1.385   9.212   0.445 -1.3922 -0.6479 -1.0795
   39MOL0     H 5261   1.380   8.960   0.436 -0.2320 -1.8323  2.3374
   39MOL0     H 5262   1.353   8.940   0.597  1.5093 -3.2159 -2.7870
   39MOL0     H 5263   1.770   9.003   0.582 -0.5472 -0.3577  3.6236
   39MOL0     H 5264   0.872   9.128   0.449  0.8721  1.3234 -0.6660
   39MOL0     H 5265   0.639   9.071   0.495  0.0139 -2.9219  4.6049
   40MOL0     O 5266   1.130   9.018   2.113  1.2175  0.1341 -0.2789
   40MOL0     C 5267   1.034   9.051   2.182 -0.2577  1.0296  0.5820
   40MOL0     O 5268   1.036   9.136   2.288  0.0997  0.0106 -0.3222
   40MOL0     C 5269   1.159   9.143   2.348  0.3641  1.2765  0.4290
   40MOL0     C 5270   1.265   9.197   2.273 -1.3335  0.7071  0.2236
   40MOL0     C 5271   1.390   9.209   2.338 -0.1116  1.0285  0.3042
   40MOL0     C 5272   1.404   9.161   2.473  0.3678 -0.4509  0.0233
   40MOL0     O 5273   1.521   9.194   2.533  0.7757  0.4545  0.8562
   40MOL0     C 5274   1.554   9.122   2.646  0.5879 -0.1508  1.2286
   40MOL0     C 5275   1.694   9.148   2.691  0.0209  0.6979  0.9310
   40MOL0     C 5276   1.732   9.059   2.811  0.1205 -0.2722 -1.0074
   40MOL0     C 5277   1.729   9.124   2.946 -0.2663  0.8445  0.1566
   40MOL0     C 5278   1.588   9.164   2.987 -0.0529  0.4920  0.1980
   40MOL0     C 5279   1.568   9.221   3.123  0.3412  0.0386  0.7752
   40MOL0     C 5280   1.654   9.344   3.159  0.3335  0.3129  0.4521
   40MOL0     C 5281   1.638   9.366   3.312 -0.4742  0.6184  0.4903
   40MOL0     N 5282   1.510   9.426   3.340  0.2368  0.2827 -0.3685
   40MOL0     C 5283   1.462   9.551   3.310  0.7020 -0.0445  0.5262
   40MOL0     C 5284   1.332   9.556   3.355  0.1891  0.9019 -0.2311
   40MOL0     C 5285   1.248   9.674   3.370  0.1757  0.0340 -0.4790
   40MOL0     C 5286   1.188   9.714   3.239  0.6556 -0.2336 -0.6370
   40MOL0     C 5287   1.116   9.847   3.246  0.2405  0.1498 -0.5872
   40MOL0     C 5288   0.996   9.841   3.160  0.5880 -0.2900  0.2924
   40MOL0     O 5289   1.033   9.811   3.025  0.3756 -0.3030 -0.5293
   40MOL0     C 5290   0.931   9.792   2.932  0.3599 -0.6395 -0.8955
   40MOL0     C 5291   0.977   9.817   2.799 -0.4312 -0.6606 -0.1478
   40MOL0     C 5292   0.886   9.807   2.690  0.4608  0.4599 -0.4600
   40MOL0     C 5293   0.949   9.855   2.564 -0.2354 -0.5764  1.1405
   40MOL0     C 5294   0.753   9.760   2.706 -0.2617 -0.2903  0.3386
   40MOL0     C 5295   0.655   9.736   2.592 -0.3406 -0.5448  0.2370
   40MOL0     O 5296   0.523   9.726   2.627  0.2320  0.1613 -0.1269
   40MOL0     C 5297   0.428   9.695   2.530 -0.0904 -0.1463  0.1933
   40MOL0     C 5298   0.320   9.617   2.574  0.5252 -0.0471 -0.4644
   40MOL0     C 5299   0.207   9.606   2.500 -0.6136  0.4220  1.0920
   40MOL0     C 5300   0.199   9.652   2.366 -0.6178 -0.0577  0.4574
   40MOL0     O 5301   0.080   9.636   2.301 -0.0785 -0.0790 -0.1175
   40MOL0     C 5302   0.063   9.626   2.161 -0.4653  0.4929 -0.4266
   40MOL0     C 5303  -0.090   9.648   2.146  0.6552  0.7982  0.0392
   40MOL0     C 5304  -0.124   9.658   1.991 -0.6578  0.0268  1.1534
   40MOL0     C 5305  -0.128   9.799   1.929 -0.5024 -0.3044 -0.1558
   40MOL0     C 5306  -0.198   9.801   1.794  0.3925 -0.6251  0.2302
   40MOL0     C 5307  -0.216   9.946   1.744 -0.5726 -0.2471  0.1591
   40MOL0     C 5308  -0.321   9.952   1.636 -0.2965 -0.3295 -0.5548
   40MOL0     C 5309  -0.453  10.007   1.688 -0.0052 -0.1431 -0.0818
   40MOL0    Cl 5310  -0.595   9.961   1.577  0.3713  0.1381  0.3598
   40MOL0     C 5311   0.310   9.716   2.308 -0.5574  0.7728 -0.3932
   40MOL0     C 5312   0.416   9.739   2.400 -0.4588 -0.3600  0.1477
   40MOL0     O 5313   0.705   9.708   2.483 -0.3661  0.4086 -0.0917
   40MOL0     C 5314   0.710   9.733   2.835 -0.9939 -0.0352  0.3094
   40MOL0     C 5315   0.797   9.751   2.949 -0.1082 -0.2317  0.0018
   40MOL0     N 5316   1.300   9.431   3.396  0.7338 -0.3122 -0.1484
   40MOL0     N 5317   1.407   9.362   3.410  0.2696 -0.0157 -0.3178
   40MOL0     C 5318   1.296   9.109   2.542  0.0903  0.5242 -0.1180
   40MOL0     C 5319   1.175   9.106   2.480 -0.5481 -0.2395 -0.9392
   40MOL0     C 5320   0.902   8.987   2.151  0.8500  0.5023  0.7436
   40MOL0     C 5321   0.880   8.889   2.053  0.1894 -0.7413 -0.7134
   40MOL0     C 5322   0.748   8.832   2.030 -0.2011 -0.0720 -0.0423
   40MOL0     C 5323   0.641   8.880   2.103  0.9768  0.3071 -0.2385
   40MOL0     O 5324   0.515   8.838   2.087  0.2264  0.1383 -0.0235
   40MOL0     C 5325   0.465   8.796   1.950  0.2659  0.1853  0.1329
   40MOL0     C 5326   0.316   8.806   1.959  0.0972 -0.2076 -0.7148
   40MOL0     C 5327   0.266   8.715   2.067 -0.0737  0.4147  0.2579
   40MOL0     C 5328   0.119   8.708   2.051  0.5375 -0.3426  0.0814
   40MOL0     C 5329   0.070   8.611   1.948  0.2430  0.5747 -0.4125
   40MOL0     C 5330   0.024   8.526   1.863 -1.5414 -0.6492 -0.1506
   40MOL0     C 5331   0.658   8.968   2.207 -0.7040 -0.3780  0.4381
   40MOL0     C 5332   0.785   9.018   2.234 -0.1738 -0.5038 -0.1160
   40MOL0     H 5333   1.248   9.238   2.174  1.9808  1.2714 -0.2325
   40MOL0     H 5334   1.477   9.248   2.285  1.7281 -1.9421  0.9321
   40MOL0     H 5335   1.491   9.141   2.733 -4.4134 -0.9664 -1.7883
   40MOL0     H 5336   1.534   9.017   2.626 -1.8736  0.7726 -2.0345
   40MOL0     H 5337   1.762   9.139   2.606 -1.3944  5.0430 -0.9537
   40MOL0     H 5338   1.716   9.251   2.720  5.6572 -0.5028  2.2285
   40MOL0     H 5339   1.675   8.966   2.806 -0.9251  0.2794  0.0614
   40MOL0     H 5340   1.839   9.038   2.799  1.7325  3.7878  3.1274
   40MOL0     H 5341   1.764   9.044   3.012  0.2274 -1.3317 -2.5379
   40MOL0     H 5342   1.800   9.207   2.952 -2.7338  3.2064 -1.1791
   40MOL0     H 5343   1.550   9.235   2.913 -1.9897 -1.5083 -0.8534
   40MOL0     H 5344   1.521   9.078   2.984  1.7147 -0.9130 -1.0100
   40MOL0     H 5345   1.461   9.243   3.136  0.4535  0.2446  1.3560
   40MOL0     H 5346   1.599   9.147   3.197  1.9002 -0.7171 -0.5720
   40MOL0     H 5347   1.757   9.313   3.142  0.3940  1.0494 -0.6318
   40MOL0     H 5348   1.639   9.428   3.090 -0.4157 -1.9312 -2.2828
   40MOL0     H 5349   1.712   9.442   3.338  0.0881  0.8038 -1.4398
   40MOL0     H 5350   1.644   9.275   3.372 -2.9576 -0.8175 -1.2308
   40MOL0     H 5351   1.532   9.628   3.279  1.8310 -0.4888  1.8481
   40MOL0     H 5352   1.166   9.649   3.439  0.4553 -0.0851 -0.1835
   40MOL0     H 5353   1.310   9.749   3.420 -0.8554  1.4158 -1.2231
   40MOL0     H 5354   1.113   9.637   3.218  0.6576 -0.6523  0.7476
   40MOL0     H 5355   1.256   9.715   3.154 -0.1810 -0.5221 -1.3294
   40MOL0     H 5356   1.175   9.932   3.211  1.2683 -1.0284 -1.8305
   40MOL0     H 5357   1.081   9.865   3.347 -3.3837 -2.0100 -1.2619
   40MOL0     H 5358   0.954   9.942   3.158  0.6417 -0.1991  2.2248
   40MOL0     H 5359   0.921   9.768   3.193  0.7548 -0.9916 -0.8372
   40MOL0     H 5360   1.081   9.846   2.789 -0.4748 -0.3854  0.1849
   40MOL0     H 5361   1.024   9.779   2.541  2.2778  1.8326  0.6768
   40MOL0     H 5362   0.877   9.872   2.484  0.8599  1.6393  0.5301
   40MOL0     H 5363   0.994   9.955   2.566 -1.3596  0.0055 -0.6333
   40MOL0     H 5364   0.323   9.584   2.678 -2.4189 -0.2740 -0.3818
   40MOL0     H 5365   0.120   9.551   2.536 -1.1030 -0.4040 -1.1733
   40MOL0     H 5366   0.109   9.701   2.096  0.4346  0.4516  0.1279
   40MOL0     H 5367   0.108   9.533   2.125 -2.7971 -0.4798 -0.9757
   40MOL0     H 5368  -0.156   9.574   2.193 -1.4673  2.5488 -0.0389
   40MOL0     H 5369  -0.123   9.744   2.187 -1.3275  1.6692 -3.1768
   40MOL0     H 5370  -0.223   9.611   1.982 -1.0240  1.1171 -1.1838
   40MOL0     H 5371  -0.049   9.598   1.939  0.5258  0.7216  2.0176
   40MOL0     H 5372  -0.185   9.862   1.999 -2.6008 -2.4078  0.1656
   40MOL0     H 5373  -0.024   9.833   1.931 -0.4744 -0.4022  0.9780
   40MOL0     H 5374  -0.296   9.754   1.804 -0.7280  1.3535 -0.8707
   40MOL0     H 5375  -0.151   9.731   1.723 -1.2404 -1.7089  0.1674
   40MOL0     H 5376  -0.227  10.009   1.834 -0.3122  0.2415 -0.1420
   40MOL0     H 5377  -0.118   9.977   1.706 -1.3129  0.6792 -1.0622
   40MOL0     H 5378  -0.347   9.853   1.596  0.2179 -0.1190 -1.4399
   40MOL0     H 5379  -0.288  10.008   1.548 -0.5842  0.5558 -0.1057
   40MOL0     H 5380  -0.449  10.114   1.711  1.3919  0.0592 -1.1636
   40MOL0     H 5381  -0.466   9.962   1.787 -0.3963 -0.4014 -0.2489
   40MOL0     H 5382   0.326   9.756   2.209 -1.5188  4.1710  0.6664
   40MOL0     H 5383   0.507   9.785   2.362  1.6157 -3.7923  0.5088
   40MOL0     H 5384   0.611   9.691   2.853 -2.6588  2.9155 -1.2287
   40MOL0     H 5385   0.762   9.737   3.051 -0.7525  4.3540  0.6074
   40MOL0     H 5386   1.305   9.072   2.644  1.3937  0.4620 -0.2405
   40MOL0     H 5387   1.086   9.076   2.535  0.3196  4.7039  4.2077
   40MOL0     H 5388   0.968   8.864   1.995  2.0049  0.1622  1.4506
   40MOL0     H 5389   0.751   8.748   1.961 -3.2840 -1.4344  1.2747
   40MOL0     H 5390   0.518   8.852   1.872  4.9189 -2.0260  1.3565
   40MOL0     H 5391   0.495   8.691   1.937 -1.9245 -0.3623 -0.9778
   40MOL0     H 5392   0.265   8.782   1.865 -0.1629  0.0459 -0.6393
   40MOL0     H 5393   0.283   8.904   1.993 -0.2383 -0.7711  0.6243
   40MOL0     H 5394   0.298   8.759   2.162  3.1359  0.7216 -0.8188
   40MOL0     H 5395   0.305   8.614   2.052  0.7690  0.5784  1.2085
   40MOL0     H 5396   0.071   8.805   2.039  1.3808  0.0739  0.0448
   40MOL0     H 5397   0.081   8.682   2.150 -2.3718 -0.0871 -0.8662
   40MOL0     H 5398  -0.010   8.447   1.800  0.4429 -0.5820 -1.3820
   40MOL0     H 5399   0.581   8.996   2.278 -0.2881  0.5258  0.5532
   40MOL0     H 5400   0.800   9.075   2.326 -1.7707 -0.8949  0.4150
   41MOL0     O 5401   1.418   6.844  10.963  0.6057  0.0534 -0.1426
   41MOL0     C 5402   1.330   6.919  10.925 -0.6729 -1.1440 -0.0817
   41MOL0     O 5403   1.304   7.042  10.973  0.5355  0.3317 -0.3129
   41MOL0     C 5404   1.392   7.099  11.058 -1.3067  0.6682 -0.3110
   41MOL0     C 5405   1.432   7.236  11.046  0.3002  0.0926 -0.2745
   41MOL0     C 5406   1.519   7.301  11.143  0.5302  0.7164 -0.8197
   41MOL0     C 5407   1.558   7.221  11.250 -0.7287  0.2202  0.3208
   41MOL0     O 5408   1.621   7.277  11.359  0.1070  0.0213  0.3311
   41MOL0     C 5409   1.687   7.407  11.347 -1.0850 -0.1728 -0.2465
   41MOL0     C 5410   1.757   7.454  11.477  0.1612  0.1504 -0.1340
   41MOL0     C 5411   1.879   7.376  11.515 -0.2672  0.0991 -0.7057
   41MOL0     C 5412   1.942   7.426  11.646 -0.8300 -0.1265 -0.4507
   41MOL0     C 5413   2.071   7.359  11.688  0.4595 -0.6321 -0.1858
   41MOL0     C 5414   2.179   7.359  11.579 -0.0511 -0.9948  0.0267
   41MOL0     C 5415   2.304   7.296  11.634  0.1226  0.2614  0.4542
   41MOL0     C 5416   2.426   7.298  11.525 -0.0889  0.0116 -0.3353
   41MOL0     N 5417   2.396   7.245  11.395 -0.3952  0.5822 -0.2152
   41MOL0     C 5418   2.403   7.109  11.358 -0.1429 -0.3720  0.6366
   41MOL0     C 5419   2.400   7.107  11.221  0.5189  0.1114 -1.6628
   41MOL0     C 5420   2.375   6.985  11.138 -0.0114  0.6069  0.8756
   41MOL0     C 5421   2.359   7.009  10.988 -0.4803 -0.1279  0.7141
   41MOL0     C 5422   2.386   6.880  10.903  0.8103  0.0047  0.4447
   41MOL0     C 5423   2.366   6.900  10.748  0.6570  0.4835 -0.3899
   41MOL0     O 5424   2.227   6.896  10.708 -0.3335 -0.5144 -0.3756
   41MOL0     C 5425   2.182   6.962  10.589 -0.2663  0.2434  0.3662
   41MOL0     C 5426   2.259   7.051  10.505  0.2833  0.4309 -0.6407
   41MOL0     C 5427   2.204   7.087  10.382  0.6963 -0.2198 -0.5433
   41MOL0     C 5428   2.296   7.152  10.288 -0.6561 -0.2291  0.6636
   41MOL0     C 5429   2.059   7.073  10.359 -0.6221  0.2795 -0.2369
   41MOL0     C 5430   1.995   7.119  10.233 -0.1920 -0.8501  0.3349
   41MOL0     O 5431   1.895   7.210  10.254 -0.2259  0.5776  0.0260
   41MOL0     C 5432   1.807   7.237  10.150  0.1026  0.0450  0.0502
   41MOL0     C 5433   1.851   7.308  10.031 -0.4916 -0.0873  0.0000
   41MOL0     C 5434   1.772   7.322   9.916  0.3727 -0.7239 -1.1701
   41MOL0     C 5435   1.638   7.263   9.922  0.3711 -0.2869 -0.4281
   41MOL0     O 5436   1.566   7.280   9.809 -0.8041  0.0593 -0.1695
   41MOL0     C 5437   1.424   7.241   9.790 -0.2480 -0.1240 -0.1262
   41MOL0     C 5438   1.377   7.275   9.646 -0.1976  0.2543 -0.2649
   41MOL0     C 5439   1.251   7.186   9.621  0.2049 -0.2581  0.1496
   41MOL0     C 5440   1.118   7.226   9.679 -0.1494 -0.0713 -0.7763
   41MOL0     C 5441   1.009   7.118   9.676  0.4825  0.1551  0.0195
   41MOL0     C 5442   0.977   7.055   9.537  0.0348 -0.1732 -0.6676
   41MOL0     C 5443   0.909   7.158   9.444  1.4971 -0.0991  0.8155
   41MOL0     C 5444   0.854   7.077   9.327 -0.4764 -0.6153  0.4904
   41MOL0    Cl 5445   0.708   7.150   9.255  0.2005 -0.3581 -0.2704
   41MOL0     C 5446   1.599   7.196  10.043  0.1393 -0.5800  0.1272
   41MOL0     C 5447   1.684   7.185  10.153 -0.0205  0.7195 -0.0319
   41MOL0     O 5448   2.026   7.068  10.126 -0.6878 -0.7421 -0.4532
   41MOL0     C 5449   1.982   7.003  10.457 -0.0375  1.1470  0.2928
   41MOL0     C 5450   2.045   6.945  10.573  0.4148 -0.8805  0.4193
   41MOL0     N 5451   2.372   7.237  11.180 -0.4159 -0.2928 -0.9668
   41MOL0     N 5452   2.388   7.320  11.282  0.2889 -0.1712  0.6720
   41MOL0     C 5453   1.518   7.089  11.263 -0.6189 -0.3710  0.7244
   41MOL0     C 5454   1.435   7.031  11.173  0.8256  0.6283  0.6892
   41MOL0     C 5455   1.272   6.900  10.798 -0.5394  1.0543  0.0462
   41MOL0     C 5456   1.325   6.806  10.707 -0.6461  0.7255  0.0557
   41MOL0     C 5457   1.260   6.774  10.587 -1.2992  0.7512  0.0292
   41MOL0     C 5458   1.140   6.835  10.556  0.7360 -0.0099 -0.7663
   41MOL0     O 5459   1.083   6.793  10.443 -0.7191  0.3655  0.0367
   41MOL0     C 5460   0.971   6.865  10.392  0.2353  0.0784  0.4065
   41MOL0     C 5461   0.831   6.814  10.425 -0.1301  0.8517  0.0422
   41MOL0     C 5462   0.720   6.920  10.394 -0.0412 -0.5553  0.7403
   41MOL0     C 5463   0.580   6.874  10.425  0.2319  0.1253  0.0309
   41MOL0     C 5464   0.562   6.740  10.361  0.8411  0.5021 -0.5414
   41MOL0     C 5465   0.550   6.629  10.316 -0.6759 -0.3878  0.6709
   41MOL0     C 5466   1.087   6.928  10.648 -0.7535 -0.0688 -0.1603
   41MOL0     C 5467   1.148   6.958  10.771  0.4188  0.5573 -0.7431
   41MOL0     H 5468   1.400   7.291  10.958 -0.2997  0.6795  0.3006
   41MOL0     H 5469   1.531   7.409  11.145 -0.1509  0.7890 -0.1565
   41MOL0     H 5470   1.753   7.396  11.261 -0.6462 -0.8275  0.1702
   41MOL0     H 5471   1.612   7.481  11.316  1.7028  1.6733 -3.2763
   41MOL0     H 5472   1.776   7.561  11.473 -0.9500  0.3827 -3.7028
   41MOL0     H 5473   1.684   7.456  11.558 -0.5168 -1.5916 -0.6425
   41MOL0     H 5474   1.838   7.275  11.526 -1.2389  0.6455  1.0265
   41MOL0     H 5475   1.943   7.394  11.428 -0.2888  0.9929 -0.5461
   41MOL0     H 5476   1.954   7.534  11.649 -2.5151  0.1157 -1.5011
   41MOL0     H 5477   1.868   7.407  11.725 -3.2233  2.4594 -1.8867
   41MOL0     H 5478   2.105   7.408  11.779 -0.1791 -2.5418  1.1299
   41MOL0     H 5479   2.054   7.255  11.719  1.0583  0.1059  2.9123
   41MOL0     H 5480   2.160   7.312  11.482 -0.2516 -2.3530  0.6918
   41MOL0     H 5481   2.205   7.463  11.557 -1.3821 -0.8418 -0.9342
   41MOL0     H 5482   2.328   7.359  11.720 -0.8686  0.8177  0.3349
   41MOL0     H 5483   2.280   7.191  11.654  0.9345 -0.0768 -0.2728
   41MOL0     H 5484   2.506   7.233  11.562 -2.3198 -1.2029  2.8056
   41MOL0     H 5485   2.465   7.397  11.502 -0.7080  0.4014  0.2463
   41MOL0     H 5486   2.412   7.012  11.407 -1.9653 -1.8692 -1.7634
   41MOL0     H 5487   2.467   6.927  11.153 -0.7681 -0.2522  2.4935
   41MOL0     H 5488   2.298   6.910  11.159  2.2152 -3.1779 -2.9578
   41MOL0     H 5489   2.440   7.077  10.964  2.4311 -3.3334  0.6987
   41MOL0     H 5490   2.268   7.065  10.966 -0.0709 -0.9089 -3.8688
   41MOL0     H 5491   2.318   6.802  10.938 -0.1820  1.4635  1.8670
   41MOL0     H 5492   2.486   6.849  10.937  0.0134  0.2624  3.2149
   41MOL0     H 5493   2.404   6.806  10.705 -0.0556 -1.5355  2.9865
   41MOL0     H 5494   2.419   6.990  10.716 -1.5238  2.6018  1.5951
   41MOL0     H 5495   2.365   7.063  10.524  0.3603  2.8340 -2.0694
   41MOL0     H 5496   2.397   7.157  10.329  0.2952 -2.5040 -1.1285
   41MOL0     H 5497   2.316   7.090  10.200  1.7721 -0.0940  1.0359
   41MOL0     H 5498   2.269   7.253  10.258  1.5923  1.5602  4.0951
   41MOL0     H 5499   1.947   7.355  10.012 -1.4382  0.3772 -4.8916
   41MOL0     H 5500   1.801   7.379   9.829 -1.0854 -0.8921 -1.8060
   41MOL0     H 5501   1.429   7.132   9.802  1.8295 -0.2607 -1.7596
   41MOL0     H 5502   1.360   7.279   9.871 -2.8003 -2.1000 -1.0699
   41MOL0     H 5503   1.354   7.382   9.641  1.0974  0.5058 -1.3741
   41MOL0     H 5504   1.447   7.240   9.569 -1.9664  1.1001 -2.3500
   41MOL0     H 5505   1.269   7.080   9.646  3.4448  0.4948  1.5662
   41MOL0     H 5506   1.241   7.174   9.513 -3.5766  0.9874  0.2364
   41MOL0     H 5507   1.138   7.250   9.784  0.6649 -0.5137 -0.8221
   41MOL0     H 5508   1.083   7.321   9.638 -1.1140  0.0949  0.3831
   41MOL0     H 5509   0.915   7.160   9.715 -0.0955  0.2117 -1.3659
   41MOL0     H 5510   1.055   7.042   9.739 -1.7993 -2.3200 -1.1072
   41MOL0     H 5511   1.072   7.029   9.490  2.3746  3.4086  1.6468
   41MOL0     H 5512   0.918   6.967   9.564  1.1143  0.0565  2.8679
   41MOL0     H 5513   0.976   7.240   9.420  1.5471  0.3894  2.5358
   41MOL0     H 5514   0.817   7.195   9.491  1.7581 -0.8928  1.9869
   41MOL0     H 5515   0.819   6.979   9.361  1.1209 -0.3225  3.2938
   41MOL0     H 5516   0.931   7.064   9.251 -0.2575 -1.2743  0.8155
   41MOL0     H 5517   1.503   7.152  10.069  1.5609 -3.3650  1.0363
   41MOL0     H 5518   1.651   7.124  10.236 -2.6484  2.8952  0.6518
   41MOL0     H 5519   1.877   6.988  10.434 -0.3917  4.3272 -0.6997
   41MOL0     H 5520   1.998   6.870  10.635  0.8059 -1.1657  0.3766
   41MOL0     H 5521   1.550   7.038  11.353 -0.6081 -0.7247  0.5248
   41MOL0     H 5522   1.391   6.932  11.187 -0.2901  1.0947  0.5756
   41MOL0     H 5523   1.419   6.755  10.729 -0.0933  1.8997  0.4746
   41MOL0     H 5524   1.302   6.703  10.517  0.3690  1.0112  0.7139
   41MOL0     H 5525   0.975   6.971  10.418  0.1260  0.5128 -1.2722
   41MOL0     H 5526   0.991   6.862  10.285 -1.2329 -0.3791  0.1191
   41MOL0     H 5527   0.816   6.791  10.531 -1.4274  0.0472 -0.2862
   41MOL0     H 5528   0.820   6.724  10.365  1.1902 -0.7774  2.1109
   41MOL0     H 5529   0.726   6.944  10.287 -0.2874  0.0802  0.8645
   41MOL0     H 5530   0.738   7.013  10.448  0.6529 -1.6088  2.3809
   41MOL0     H 5531   0.502   6.948  10.404  0.8790  1.3320  1.6818
   41MOL0     H 5532   0.580   6.866  10.534  0.1675 -0.3917 -0.0033
   41MOL0     H 5533   0.554   6.531  10.274 -0.0455 -0.1668  0.1854
   41MOL0     H 5534   0.994   6.980  10.628  0.3291  1.7505 -0.7092
   41MOL0     H 5535   1.106   7.020  10.850 -0.1648  2.3708 -2.3952
   42MOL0     O 5536   8.914   4.792   6.508 -0.8755  0.0369  0.6422
   42MOL0     C 5537   8.909   4.900   6.464 -0.6442  0.0366  0.6264
   42MOL0     O 5538   8.815   4.988   6.498  0.2401  0.0021 -0.1066
   42MOL0     C 5539   8.709   4.944   6.572  0.1013  0.2053 -0.9649
   42MOL0     C 5540   8.583   4.924   6.520  1.4158  0.4990 -0.3836
   42MOL0     C 5541   8.474   4.873   6.595  0.5637  0.1767  0.3449
   42MOL0     C 5542   8.490   4.871   6.735  0.1600  0.1704  0.9809
   42MOL0     O 5543   8.394   4.811   6.819  0.2783 -0.0288 -0.4995
   42MOL0     C 5544   8.273   4.766   6.757  0.4099 -0.3426  0.0110
   42MOL0     C 5545   8.164   4.728   6.861  0.1825 -0.2858  0.8820
   42MOL0     C 5546   8.034   4.689   6.788  0.1311  0.0919 -0.2781
   42MOL0     C 5547   7.917   4.669   6.883 -0.3335  0.6749 -0.1302
   42MOL0     C 5548   7.789   4.660   6.801  0.0503  0.0730 -0.0600
   42MOL0     C 5549   7.758   4.519   6.743 -0.3976  0.0182  0.5471
   42MOL0     C 5550   7.626   4.509   6.651 -0.4931  1.0583 -0.4701
   42MOL0     C 5551   7.635   4.386   6.560  0.4331  0.5573 -0.2387
   42MOL0     N 5552   7.529   4.401   6.464 -0.8655 -0.0649  0.7605
   42MOL0     C 5553   7.393   4.398   6.493  0.1089 -0.0372 -0.9938
   42MOL0     C 5554   7.331   4.441   6.381  0.1924  0.0031  0.0017
   42MOL0     C 5555   7.183   4.457   6.359 -0.3707 -0.0481 -0.2243
   42MOL0     C 5556   7.129   4.575   6.442 -0.4073  0.7256  0.3947
   42MOL0     C 5557   7.012   4.633   6.368 -0.2744  0.1646  0.6573
   42MOL0     C 5558   6.975   4.773   6.422  0.3555 -0.1896  0.8555
   42MOL0     O 5559   6.845   4.802   6.364 -0.0879  0.1562 -0.5808
   42MOL0     C 5560   6.837   4.847   6.237  0.6644 -0.6238  0.0856
   42MOL0     C 5561   6.938   4.860   6.147 -0.6997 -0.1813  0.5194
   42MOL0     C 5562   6.922   4.919   6.013 -0.6821 -0.3485  0.4702
   42MOL0     C 5563   7.050   4.886   5.926 -0.6975  0.5358 -0.4987
   42MOL0     C 5564   6.792   4.948   5.973 -0.8032 -0.1166 -0.2906
   42MOL0     C 5565   6.751   5.001   5.846  0.5074 -0.3659 -0.6753
   42MOL0     O 5566   6.624   4.961   5.796 -0.5803 -0.2892 -0.0936
   42MOL0     C 5567   6.599   4.959   5.660 -0.2357  0.9790  0.3619
   42MOL0     C 5568   6.679   4.893   5.568  0.5689  0.3100  0.0517
   42MOL0     C 5569   6.648   4.883   5.427 -0.1850  0.3529  0.6236
   42MOL0     C 5570   6.540   4.950   5.380  0.3024 -0.0972  0.2578
   42MOL0     O 5571   6.509   4.949   5.248 -0.3460  0.5847 -0.3121
   42MOL0     C 5572   6.549   4.831   5.167  0.3567  0.1238 -0.2699
   42MOL0     C 5573   6.439   4.800   5.061  0.3246  0.6015 -0.4547
   42MOL0     C 5574   6.407   4.927   4.971  0.5165  0.0669  0.6124
   42MOL0     C 5575   6.317   4.900   4.851 -0.2823 -0.4457 -0.1030
   42MOL0     C 5576   6.307   5.027   4.770  0.1354 -0.4899 -0.2888
   42MOL0     C 5577   6.430   5.074   4.689 -0.1749  0.8860 -0.0228
   42MOL0     C 5578   6.388   5.158   4.567  0.4817  0.7876 -0.4982
   42MOL0     C 5579   6.507   5.206   4.492 -0.2079  0.8991 -0.1452
   42MOL0    Cl 5580   6.474   5.293   4.339 -0.0046  0.0022  0.5328
   42MOL0     C 5581   6.453   5.022   5.473 -0.4586 -0.5150  0.8253
   42MOL0     C 5582   6.483   5.023   5.614  0.6913  1.1142  0.4377
   42MOL0     O 5583   6.832   5.073   5.790  0.1357  0.4256  0.0515
   42MOL0     C 5584   6.689   4.921   6.059 -0.2580 -0.5125  0.3378
   42MOL0     C 5585   6.710   4.873   6.187  0.3438 -0.6596  0.0409
   42MOL0     N 5586   7.427   4.463   6.278  0.0681  0.1634  0.4036
   42MOL0     N 5587   7.542   4.444   6.336  0.1718  0.6469  0.3643
   42MOL0     C 5588   8.608   4.922   6.790  0.1386 -1.1023 -0.3213
   42MOL0     C 5589   8.717   4.949   6.710 -0.4283 -0.0068  0.0282
   42MOL0     C 5590   9.016   4.941   6.369  1.4171  0.4158 -0.6247
   42MOL0     C 5591   9.117   4.851   6.337  0.8961  0.7676  0.6426
   42MOL0     C 5592   9.236   4.886   6.275 -0.4056 -0.0327 -0.5825
   42MOL0     C 5593   9.251   5.020   6.225 -0.8164  0.2594  0.1511
   42MOL0     O 5594   9.362   5.065   6.160 -0.1093  0.5013 -0.5484
   42MOL0     C 5595   9.456   4.967   6.118 -0.0649 -0.1352 -1.2392
   42MOL0     C 5596   9.554   5.016   6.006  1.2047 -0.4671  0.2481
   42MOL0     C 5597   9.648   5.127   6.059  0.3414  0.3050  0.4489
   42MOL0     C 5598   9.765   5.181   5.969 -0.8735  0.5631  1.4024
   42MOL0     C 5599   9.865   5.074   5.942  0.5168  0.1136 -0.2679
   42MOL0     C 5600   9.948   4.994   5.915  0.3823  0.6588 -0.4251
   42MOL0     C 5601   9.143   5.113   6.245 -0.2448  0.3822  0.2173
   42MOL0     C 5602   9.029   5.074   6.324 -0.1285 -0.4905 -0.0869
   42MOL0     H 5603   8.586   4.915   6.412  1.0062 -1.6260 -0.2677
   42MOL0     H 5604   8.386   4.846   6.537  0.2784 -1.0935  1.3313
   42MOL0     H 5605   8.237   4.851   6.699 -0.6059 -0.6733  0.1355
   42MOL0     H 5606   8.291   4.693   6.678  2.4599 -0.3255  0.4041
   42MOL0     H 5607   8.208   4.641   6.911  1.2164 -0.0176  0.4559
   42MOL0     H 5608   8.147   4.802   6.940 -1.3720 -1.3825  1.6420
   42MOL0     H 5609   8.019   4.774   6.721 -1.1376  0.2981  0.2363
   42MOL0     H 5610   8.056   4.603   6.724 -4.1788 -0.1640 -1.7452
   42MOL0     H 5611   7.933   4.575   6.936  0.2485 -0.9189 -2.9591
   42MOL0     H 5612   7.900   4.747   6.958  0.2792  1.1860 -0.5143
   42MOL0     H 5613   7.701   4.687   6.860  0.9138 -1.5713  2.1165
   42MOL0     H 5614   7.805   4.725   6.715 -2.6147  0.0885 -0.6389
   42MOL0     H 5615   7.841   4.496   6.676 -1.5149 -0.1892 -0.8070
   42MOL0     H 5616   7.754   4.441   6.820  1.7645  0.1650  0.8749
   42MOL0     H 5617   7.535   4.503   6.711 -1.2592 -0.0989 -1.6948
   42MOL0     H 5618   7.601   4.596   6.590 -2.1311 -0.2452 -1.7396
   42MOL0     H 5619   7.634   4.299   6.627 -1.6480 -0.1496 -1.1011
   42MOL0     H 5620   7.732   4.391   6.510 -0.0366 -1.5277 -1.5005
   42MOL0     H 5621   7.350   4.365   6.586 -0.7741 -0.3319 -1.4951
   42MOL0     H 5622   7.164   4.478   6.253  1.4102  1.6217 -0.2780
   42MOL0     H 5623   7.141   4.362   6.393 -0.4917  0.6838  1.7854
   42MOL0     H 5624   7.205   4.653   6.446 -1.3282  1.6821 -0.3071
   42MOL0     H 5625   7.109   4.539   6.544  3.5184 -1.0478  0.7136
   42MOL0     H 5626   6.923   4.573   6.392 -0.3206  0.2229  0.6332
   42MOL0     H 5627   7.031   4.638   6.261 -1.6934 -0.2250  0.3606
   42MOL0     H 5628   7.053   4.845   6.394  1.6983 -1.3554  1.4373
   42MOL0     H 5629   6.963   4.767   6.530  0.0540 -2.1074  0.7622
   42MOL0     H 5630   7.037   4.836   6.182 -0.1557 -1.0231 -1.4901
   42MOL0     H 5631   7.085   4.979   5.881  0.8601  0.2436  0.0336
   42MOL0     H 5632   7.140   4.858   5.981 -0.9099  0.8384  0.0185
   42MOL0     H 5633   7.036   4.814   5.846 -0.8240  1.5701 -1.4349
   42MOL0     H 5634   6.771   4.849   5.603  0.7661 -1.9052 -2.8657
   42MOL0     H 5635   6.721   4.829   5.367  1.0505  1.5759  0.9920
   42MOL0     H 5636   6.642   4.839   5.110  0.4470 -2.0407 -0.5223
   42MOL0     H 5637   6.561   4.744   5.233 -1.6731  0.9932  1.3621
   42MOL0     H 5638   6.463   4.718   4.993 -1.2216 -1.9593  1.8456
   42MOL0     H 5639   6.342   4.771   5.102 -1.3258  2.5625 -2.6955
   42MOL0     H 5640   6.495   4.979   4.933 -0.7795  2.3803  0.5869
   42MOL0     H 5641   6.361   5.002   5.036 -0.5778  0.2483 -0.3422
   42MOL0     H 5642   6.358   4.823   4.785 -0.9344  0.0588 -1.1281
   42MOL0     H 5643   6.223   4.857   4.886 -0.3785 -0.9803 -0.9901
   42MOL0     H 5644   6.266   5.109   4.829  0.9765  2.4251 -3.4337
   42MOL0     H 5645   6.232   4.997   4.696 -0.2346 -1.1090  0.3274
   42MOL0     H 5646   6.495   5.127   4.759  1.1910 -0.4406 -0.2416
   42MOL0     H 5647   6.490   4.989   4.655 -1.0479  0.0912  0.3580
   42MOL0     H 5648   6.324   5.237   4.607 -0.5887 -0.1515 -0.2881
   42MOL0     H 5649   6.334   5.088   4.503 -1.3047  1.9555 -0.3420
   42MOL0     H 5650   6.570   5.123   4.458 -1.3220 -0.5667  1.2442
   42MOL0     H 5651   6.566   5.274   4.553  0.2417  0.5138 -0.1448
   42MOL0     H 5652   6.368   5.073   5.428 -0.6385 -1.1657  0.4093
   42MOL0     H 5653   6.413   5.073   5.681 -0.7659  0.4100 -0.4934
   42MOL0     H 5654   6.590   4.946   6.023  0.0139  1.1105  0.6137
   42MOL0     H 5655   6.633   4.862   6.263 -0.2126 -1.3998 -0.6214
   42MOL0     H 5656   8.617   4.922   6.898 -1.5891  0.0031 -0.1380
   42MOL0     H 5657   8.812   4.975   6.754 -0.0820 -0.9246 -0.1448
   42MOL0     H 5658   9.103   4.746   6.362 -0.2292  0.2913 -1.6278
   42MOL0     H 5659   9.305   4.803   6.275 -0.5092 -0.1195 -0.7152
   42MOL0     H 5660   9.515   4.934   6.204 -5.3550 -3.0854  1.8327
   42MOL0     H 5661   9.413   4.873   6.081  0.1547 -1.3017  1.2412
   42MOL0     H 5662   9.497   5.047   5.917  2.1227 -1.9361 -0.9007
   42MOL0     H 5663   9.611   4.928   5.974 -1.6872 -2.0656 -0.9956
   42MOL0     H 5664   9.707   5.089   6.143  0.3303  1.1522  0.8421
   42MOL0     H 5665   9.585   5.212   6.086 -1.8404 -0.5665 -1.5448
   42MOL0     H 5666   9.822   5.260   6.019  3.0012 -0.9095 -0.3723
   42MOL0     H 5667   9.732   5.219   5.872 -0.6879 -4.3744 -0.9072
   42MOL0     H 5668  10.031   4.929   5.894  0.4773 -0.4707  2.8717
   42MOL0     H 5669   9.157   5.214   6.209  3.1167 -0.0699 -0.0506
   42MOL0     H 5670   8.955   5.153   6.336  0.6760  0.7267 -2.3676
   43MOL0     O 5671   0.270   1.680  11.008 -0.2345 -0.4413  0.1298
   43MOL0     C 5672   0.368   1.700  11.082  0.0417  1.0140 -0.6288
   43MOL0     O 5673   0.360   1.697  11.223 -0.5144  1.1238  0.4253
   43MOL0     C 5674   0.247   1.653  11.290 -0.4370 -0.5483 -0.9540
   43MOL0     C 5675   0.151   1.561  11.264  0.8816 -1.2937  0.4743
   43MOL0     C 5676   0.047   1.527  11.357  0.0477 -0.9866 -0.1328
   43MOL0     C 5677   0.044   1.577  11.486  0.2935 -0.7737  0.3338
   43MOL0     O 5678  -0.044   1.555  11.586  0.1795  0.3645  0.0230
   43MOL0     C 5679  -0.160   1.470  11.560  0.0488 -0.7205 -0.2715
   43MOL0     C 5680  -0.250   1.488  11.674  0.5067 -0.6447  0.2846
   43MOL0     C 5681  -0.376   1.405  11.673  1.2426 -0.1263 -0.5428
   43MOL0     C 5682  -0.476   1.449  11.783  0.1341  0.7080 -0.2130
   43MOL0     C 5683  -0.618   1.405  11.746  0.3110 -0.6330 -0.3136
   43MOL0     C 5684  -0.712   1.405  11.869 -0.3883 -0.4936 -0.4169
   43MOL0     C 5685  -0.852   1.349  11.836  0.5066  0.1870  0.8044
   43MOL0     C 5686  -0.869   1.205  11.871  0.2519 -0.3404 -0.3630
   43MOL0     N 5687  -1.015   1.180  11.853  0.4772 -0.4273  0.3407
   43MOL0     C 5688  -1.116   1.229  11.928 -0.8672  0.4395  0.2431
   43MOL0     C 5689  -1.226   1.195  11.863 -0.6218  0.0671  0.7666
   43MOL0     C 5690  -1.357   1.217  11.937 -1.0022 -0.8644  0.8168
   43MOL0     C 5691  -1.414   1.098  12.010 -0.1332  0.0276 -0.9040
   43MOL0     C 5692  -1.555   1.112  12.058 -0.6262 -0.1704  0.0797
   43MOL0     C 5693  -1.660   1.089  11.951 -0.7784 -0.2554 -0.7953
   43MOL0     O 5694  -1.788   1.090  12.016 -0.1708  0.6742 -0.0323
   43MOL0     C 5695  -1.902   1.075  11.941  0.2772  0.1192  0.1853
   43MOL0     C 5696  -1.903   1.044  11.806 -0.3259  0.2436 -0.8480
   43MOL0     C 5697  -2.025   1.011  11.744 -0.4022 -0.3816 -0.0338
   43MOL0     C 5698  -2.016   0.976  11.595  0.9993 -0.3988 -0.6848
   43MOL0     C 5699  -2.152   1.022  11.811 -0.8110  0.2823 -0.8250
   43MOL0     C 5700  -2.283   0.984  11.753 -1.4310 -0.0498  0.5708
   43MOL0     O 5701  -2.393   1.013  11.818  0.1961 -0.4256  0.5162
   43MOL0     C 5702  -2.512   1.018  11.740  0.6070 -0.3143 -0.3864
   43MOL0     C 5703  -2.626   0.948  11.792  0.6860 -0.1861 -0.4607
   43MOL0     C 5704  -2.738   0.933  11.715  0.3521  0.9433 -0.3081
   43MOL0     C 5705  -2.755   1.017  11.604  0.1879 -0.3230  0.7399
   43MOL0     O 5706  -2.870   1.020  11.525  0.2670  0.0404  0.6547
   43MOL0     C 5707  -2.982   0.950  11.578 -0.6785 -0.4367  0.6368
   43MOL0     C 5708  -3.099   1.008  11.493  0.2317  1.0211  0.2354
   43MOL0     C 5709  -3.247   0.948  11.499  0.6222  0.0302  0.7670
   43MOL0     C 5710  -3.331   1.015  11.391 -1.0515 -0.3588  0.1276
   43MOL0     C 5711  -3.478   0.975  11.408  0.0739  0.1761  0.1564
   43MOL0     C 5712  -3.576   1.031  11.303  0.3540  0.2257 -0.2369
   43MOL0     C 5713  -3.708   0.960  11.313  0.8793  0.0370  0.1366
   43MOL0     C 5714  -3.816   1.023  11.215 -0.1384 -0.0536 -0.5681
   43MOL0    Cl 5715  -3.771   1.018  11.036  0.0286  0.1660 -0.2936
   43MOL0     C 5716  -2.651   1.109  11.569 -0.0777 -0.3182  0.1448
   43MOL0     C 5717  -2.524   1.106  11.633  0.8445  0.6253 -0.0551
   43MOL0     O 5718  -2.282   0.926  11.648  0.4856 -0.1429 -0.0257
   43MOL0     C 5719  -2.139   1.078  11.936 -0.0516 -0.7900  0.0580
   43MOL0     C 5720  -2.020   1.093  12.008  0.9544  0.7569 -1.1397
   43MOL0     N 5721  -1.197   1.116  11.757  0.8800 -0.0812 -0.2750
   43MOL0     N 5722  -1.066   1.113  11.749 -0.8872 -0.7611  0.1635
   43MOL0     C 5723   0.144   1.672  11.518  0.0943  0.4686  0.2756
   43MOL0     C 5724   0.237   1.706  11.420 -0.5019 -0.6884 -0.9737
   43MOL0     C 5725   0.504   1.710  11.020  0.9109 -0.8944  0.0606
   43MOL0     C 5726   0.528   1.758  10.891 -0.0167 -1.1690 -0.5382
   43MOL0     C 5727   0.660   1.752  10.837  0.8115  0.7579  0.2109
   43MOL0     C 5728   0.765   1.709  10.922  0.7168 -0.0758  0.6616
   43MOL0     O 5729   0.890   1.713  10.868  0.4505 -0.1530  0.5249
   43MOL0     C 5730   1.005   1.686  10.955  0.2778  0.6883 -0.7060
   43MOL0     C 5731   1.126   1.691  10.874  0.9692 -0.3115 -0.2467
   43MOL0     C 5732   1.259   1.681  10.949  0.3737  0.1633  0.0388
   43MOL0     C 5733   1.315   1.820  10.973  0.2429 -0.9974  0.1474
   43MOL0     C 5734   1.248   1.914  11.062 -0.1935  0.3053 -0.3082
   43MOL0     C 5735   1.200   1.996  11.136  0.2733  0.3307  0.1970
   43MOL0     C 5736   0.739   1.658  11.048 -1.0207  0.3307 -0.3096
   43MOL0     C 5737   0.613   1.656  11.100  0.0292  0.4968  0.4683
   43MOL0     H 5738   0.131   1.536  11.161 -0.8848  0.0683  0.4458
   43MOL0     H 5739  -0.027   1.458  11.319  2.2867 -2.5719 -1.9291
   43MOL0     H 5740  -0.214   1.496  11.469 -1.5185  0.6234  0.9751
   43MOL0     H 5741  -0.124   1.367  11.559  2.5641  0.1079 -1.3089
   43MOL0     H 5742  -0.198   1.464  11.768  1.7406 -1.3048 -0.5339
   43MOL0     H 5743  -0.280   1.592  11.660  0.0554 -1.2170 -4.5422
   43MOL0     H 5744  -0.424   1.426  11.577  1.1289 -1.5980 -0.8327
   43MOL0     H 5745  -0.347   1.299  11.672  1.5755 -0.1581  2.5696
   43MOL0     H 5746  -0.449   1.414  11.883 -0.3107 -0.6260 -0.5470
   43MOL0     H 5747  -0.492   1.558  11.783 -1.8162  0.4697  0.7383
   43MOL0     H 5748  -0.672   1.474  11.680 -0.7680  0.5548  1.6836
   43MOL0     H 5749  -0.612   1.304  11.705  0.4513 -0.7780  0.0618
   43MOL0     H 5750  -0.673   1.361  11.962  1.1027  2.0720  0.2640
   43MOL0     H 5751  -0.732   1.509  11.895 -3.6475 -1.1254  0.0122
   43MOL0     H 5752  -0.924   1.409  11.892 -0.5285  2.9277 -3.0551
   43MOL0     H 5753  -0.871   1.365  11.730 -1.1302  0.6981  1.1393
   43MOL0     H 5754  -0.838   1.191  11.975 -0.8072 -3.7179 -0.3500
   43MOL0     H 5755  -0.811   1.138  11.806 -1.1430 -2.1772  0.1912
   43MOL0     H 5756  -1.116   1.277  12.025  1.7412  0.7745  0.1636
   43MOL0     H 5757  -1.342   1.300  12.007  2.9689 -0.2542 -0.5006
   43MOL0     H 5758  -1.433   1.238  11.861  1.7124 -1.5864 -2.2800
   43MOL0     H 5759  -1.347   1.078  12.094 -0.3830 -0.9604 -0.9244
   43MOL0     H 5760  -1.421   1.015  11.938 -2.7575  1.4943 -2.4880
   43MOL0     H 5761  -1.577   1.216  12.087 -1.0579 -0.5858  1.3043
   43MOL0     H 5762  -1.580   1.041  12.137 -2.5768 -1.8400 -1.8913
   43MOL0     H 5763  -1.646   0.982  11.928 -1.1582  0.1069 -2.9446
   43MOL0     H 5764  -1.644   1.168  11.878  1.7407  1.9265  1.8478
   43MOL0     H 5765  -1.807   1.032  11.756  0.4720  1.7760  0.2211
   43MOL0     H 5766  -2.085   1.044  11.544  3.0985  1.3297 -1.3412
   43MOL0     H 5767  -1.925   1.020  11.555 -0.6782  2.5139 -1.5796
   43MOL0     H 5768  -2.034   0.868  11.582 -0.5004 -0.6802  2.8238
   43MOL0     H 5769  -2.617   0.878  11.875  4.5767 -0.3774 -0.8565
   43MOL0     H 5770  -2.817   0.871  11.757  0.1462  2.0688  1.0506
   43MOL0     H 5771  -2.966   0.844  11.552  0.4027  0.6402 -4.1025
   43MOL0     H 5772  -2.994   0.970  11.684  1.2228 -0.5981  0.9213
   43MOL0     H 5773  -3.107   1.117  11.508  1.2515  1.4579 -1.9549
   43MOL0     H 5774  -3.068   1.000  11.388 -0.7178 -0.4413  0.0383
   43MOL0     H 5775  -3.285   0.959  11.601  1.6078 -0.6485  1.2192
   43MOL0     H 5776  -3.236   0.842  11.475  2.7920  0.4200 -0.2552
   43MOL0     H 5777  -3.318   1.124  11.391  1.7412 -0.6039 -1.1772
   43MOL0     H 5778  -3.297   0.986  11.291 -0.8518  0.3954 -0.0356
   43MOL0     H 5779  -3.509   1.007  11.508  1.9102 -2.6144  1.7435
   43MOL0     H 5780  -3.478   0.866  11.414  1.6077 -0.0541 -2.2233
   43MOL0     H 5781  -3.602   1.135  11.329 -0.1421  0.2870 -0.9608
   43MOL0     H 5782  -3.531   1.028  11.204  1.2748  0.9492  0.1394
   43MOL0     H 5783  -3.748   0.981  11.413  0.8610 -0.8079  0.3097
   43MOL0     H 5784  -3.690   0.854  11.295  0.0439 -0.5362  2.2785
   43MOL0     H 5785  -3.844   1.125  11.246  2.3633 -0.1942  2.7549
   43MOL0     H 5786  -3.905   0.963  11.238  0.7146 -0.1693  2.9149
   43MOL0     H 5787  -2.671   1.173  11.483 -2.8339 -2.3194 -0.8473
   43MOL0     H 5788  -2.437   1.162  11.603  1.0305 -0.0027 -0.6968
   43MOL0     H 5789  -2.228   1.101  11.994  0.1004 -1.0287  0.3944
   43MOL0     H 5790  -2.014   1.129  12.110 -1.0274 -3.4193  0.6792
   43MOL0     H 5791   0.136   1.716  11.617 -1.7091  3.3391 -1.0142
   43MOL0     H 5792   0.308   1.773  11.467 -0.3830 -1.1737 -0.4505
   43MOL0     H 5793   0.444   1.796  10.834  0.7200  2.5062  0.5114
   43MOL0     H 5794   0.688   1.780  10.736  0.6429  2.2637  0.5632
   43MOL0     H 5795   1.001   1.748  11.045 -1.2512 -0.2060 -0.1150
   43MOL0     H 5796   0.983   1.587  10.996 -1.2775  2.7641  4.3734
   43MOL0     H 5797   1.128   1.777  10.807 -1.1158 -1.5825 -2.0611
   43MOL0     H 5798   1.126   1.611  10.799 -0.5691 -0.1915 -0.4019
   43MOL0     H 5799   1.336   1.636  10.885  1.2059  2.3076 -0.5616
   43MOL0     H 5800   1.252   1.621  11.040  1.2142  0.8756  0.5793
   43MOL0     H 5801   1.331   1.881  10.883 -1.6455  2.5397  1.9692
   43MOL0     H 5802   1.413   1.799  11.018  0.3578 -3.3356 -1.0592
   43MOL0     H 5803   1.150   2.064  11.203  0.8483 -1.7383  2.9482
   43MOL0     H 5804   0.808   1.602  11.111  0.0614 -1.0651 -2.6176
   43MOL0     H 5805   0.604   1.617  11.201  1.3783 -1.1569  0.0043
   44MOL0     O 5806   6.692  11.247  10.947  0.1062  0.5223 -0.4363
   44MOL0     C 5807   6.713  11.185  11.056 -0.2872 -0.1178 -0.3368
   44MOL0     O 5808   6.624  11.162  11.148  0.3838 -0.9114  0.6919
   44MOL0     C 5809   6.495  11.201  11.132  0.6344  0.0120 -0.8815
   44MOL0     C 5810   6.400  11.104  11.154 -0.2990 -0.5776  0.2899
   44MOL0     C 5811   6.266  11.120  11.136 -1.1268 -0.3506 -0.3667
   44MOL0     C 5812   6.213  11.253  11.132  0.2713 -0.2649  0.0276
   44MOL0     O 5813   6.083  11.292  11.117 -0.2496  0.0320  0.1996
   44MOL0     C 5814   6.008  11.232  11.218  0.0576  1.2006  1.2434
   44MOL0     C 5815   5.868  11.206  11.170  0.3811  0.4152  0.4383
   44MOL0     C 5816   5.769  11.185  11.287 -0.3606 -0.0657 -0.4150
   44MOL0     C 5817   5.632  11.144  11.224  0.2594 -0.1215  0.7247
   44MOL0     C 5818   5.519  11.185  11.320 -0.1441 -0.6406  0.1872
   44MOL0     C 5819   5.373  11.151  11.276 -0.1527  0.0867 -0.4218
   44MOL0     C 5820   5.334  11.235  11.148 -0.4047 -0.5358 -1.1334
   44MOL0     C 5821   5.176  11.270  11.154  0.4339 -0.3324 -0.2846
   44MOL0     N 5822   5.090  11.157  11.144 -0.7970 -0.2088 -0.3232
   44MOL0     C 5823   5.083  11.056  11.046 -0.1443 -0.2498 -0.1862
   44MOL0     C 5824   4.985  10.980  11.084  0.6696  0.7904 -0.1662
   44MOL0     C 5825   4.947  10.857  11.007  0.5913 -0.2018 -0.1749
   44MOL0     C 5826   4.792  10.843  10.994  0.7061 -0.4196  1.4026
   44MOL0     C 5827   4.721  10.965  10.925 -0.2818 -0.8373 -0.1418
   44MOL0     C 5828   4.562  10.958  10.940 -0.6149  0.8761 -0.0717
   44MOL0     O 5829   4.516  11.048  10.839 -0.5063 -0.0750  0.2926
   44MOL0     C 5830   4.384  11.079  10.830 -0.7001  0.4420 -0.6154
   44MOL0     C 5831   4.345  11.181  10.738 -1.2216 -0.4170  0.6016
   44MOL0     C 5832   4.209  11.216  10.723 -0.0782 -0.4842  0.3646
   44MOL0     C 5833   4.182  11.327  10.624 -0.7319 -0.2747 -0.3896
   44MOL0     C 5834   4.106  11.157  10.794 -0.0376 -0.0400  1.0098
   44MOL0     C 5835   3.963  11.200  10.789 -0.3133 -0.1660  0.6703
   44MOL0     O 5836   3.948  11.328  10.807 -0.0458 -0.6984  0.1390
   44MOL0     C 5837   3.821  11.387  10.807 -0.7015 -0.4260  0.4142
   44MOL0     C 5838   3.760  11.440  10.920  0.4761  0.1062 -0.5536
   44MOL0     C 5839   3.627  11.497  10.913  0.1991 -0.0600  0.7326
   44MOL0     C 5840   3.564  11.501  10.789 -0.0162 -0.9210 -0.1131
   44MOL0     O 5841   3.441  11.550  10.791  0.6219 -0.1383  1.0846
   44MOL0     C 5842   3.417  11.637  10.678  0.7226 -0.9346  0.3885
   44MOL0     C 5843   3.328  11.744  10.740 -0.0017 -0.4820  0.4569
   44MOL0     C 5844   3.386  11.865  10.821  0.5117  0.9083  0.1719
   44MOL0     C 5845   3.399  11.824  10.966  0.6028 -0.0208  0.2078
   44MOL0     C 5846   3.443  11.931  11.060  0.4100  0.8031  0.3958
   44MOL0     C 5847   3.435  11.882  11.204 -1.0675  0.2186  0.1269
   44MOL0     C 5848   3.429  12.001  11.299  0.5433  0.6964 -0.9419
   44MOL0     C 5849   3.458  11.960  11.447  0.0081  0.3212 -0.8026
   44MOL0    Cl 5850   3.634  11.928  11.468  0.1973 -0.0877  0.4643
   44MOL0     C 5851   3.626  11.438  10.681 -0.3779 -0.1670 -0.2181
   44MOL0     C 5852   3.754  11.393  10.685 -0.6504  0.3352  0.8415
   44MOL0     O 5853   3.875  11.123  10.748 -0.0906 -0.3153  0.1211
   44MOL0     C 5854   4.144  11.040  10.863 -0.6532  0.3358  0.7777
   44MOL0     C 5855   4.276  11.006  10.890  0.2735 -0.9638  0.2329
   44MOL0     N 5856   4.938  11.028  11.201 -0.1935 -0.3680 -0.4221
   44MOL0     N 5857   4.999  11.132  11.239  0.7599 -0.5242  0.3963
   44MOL0     C 5858   6.308  11.358  11.119 -0.9341  0.1493  0.0697
   44MOL0     C 5859   6.458  11.333  11.123  0.8468 -1.0675  0.9104
   44MOL0     C 5860   6.850  11.135  11.091  0.0985 -0.1290  0.6264
   44MOL0     C 5861   6.951  11.141  11.000  0.0697  0.7398  1.3938
   44MOL0     C 5862   7.077  11.083  11.025  0.0577 -0.0679 -0.1402
   44MOL0     C 5863   7.099  11.020  11.149  0.2491 -0.0179  0.2634
   44MOL0     O 5864   7.217  10.956  11.185  0.3986  0.3588  0.8827
   44MOL0     C 5865   7.319  10.939  11.087 -0.3272 -0.1598  1.0338
   44MOL0     C 5866   7.447  10.987  11.146  0.3901  0.0485  0.5174
   44MOL0     C 5867   7.559  10.886  11.110  0.0553 -0.3652 -0.0745
   44MOL0     C 5868   7.558  10.773  11.210 -0.6865 -0.0393  0.1890
   44MOL0     C 5869   7.664  10.684  11.161 -0.2698  1.0576 -0.0610
   44MOL0     C 5870   7.739  10.584  11.138  0.3651 -0.2174  0.3220
   44MOL0     C 5871   7.007  11.025  11.245  0.4521  0.0302 -0.2031
   44MOL0     C 5872   6.882  11.083  11.217 -0.2238 -0.0183 -0.1668
   44MOL0     H 5873   6.442  11.017  11.204  0.7604 -0.1708  0.1265
   44MOL0     H 5874   6.205  11.030  11.142 -1.0833 -0.4967 -1.7662
   44MOL0     H 5875   6.054  11.142  11.262  1.4864  1.6763  0.7665
   44MOL0     H 5876   5.995  11.301  11.302 -1.2610  0.3677  1.7570
   44MOL0     H 5877   5.845  11.291  11.105  0.4120  0.8067  0.9275
   44MOL0     H 5878   5.881  11.117  11.109  1.6215  0.9202 -0.0580
   44MOL0     H 5879   5.801  11.108  11.358 -2.7717 -0.5199  0.2672
   44MOL0     H 5880   5.747  11.277  11.342  1.8175  1.1078 -1.3488
   44MOL0     H 5881   5.614  11.194  11.128 -2.7436  0.2407  1.4031
   44MOL0     H 5882   5.621  11.038  11.200 -0.2379  0.6087 -2.8131
   44MOL0     H 5883   5.535  11.137  11.416 -0.7766  0.6729  0.9847
   44MOL0     H 5884   5.523  11.294  11.331  1.0978 -0.7620  1.1556
   44MOL0     H 5885   5.364  11.045  11.248 -0.0121  0.2826 -1.2555
   44MOL0     H 5886   5.309  11.167  11.363  0.4369 -2.4811  0.5856
   44MOL0     H 5887   5.386  11.331  11.140  1.0915 -1.0575  1.2426
   44MOL0     H 5888   5.352  11.175  11.058 -1.1792  2.7373 -3.6624
   44MOL0     H 5889   5.149  11.343  11.077  3.2045  0.7469 -0.3474
   44MOL0     H 5890   5.161  11.329  11.245 -2.9555  1.0630 -1.5891
   44MOL0     H 5891   5.164  11.055  10.974 -1.0382  0.7702 -1.2558
   44MOL0     H 5892   4.997  10.866  10.910 -1.0573  0.1073 -1.0380
   44MOL0     H 5893   4.996  10.770  11.051  0.0322 -0.1686  0.5147
   44MOL0     H 5894   4.756  10.835  11.096 -1.7509  0.0087  0.6419
   44MOL0     H 5895   4.775  10.758  10.926  0.6766  0.8862 -0.3041
   44MOL0     H 5896   4.746  10.989  10.821  0.7790  2.8931  0.8333
   44MOL0     H 5897   4.751  11.054  10.982 -0.8153  0.4801 -1.8192
   44MOL0     H 5898   4.538  10.984  11.043 -0.6941  2.1590 -0.3952
   44MOL0     H 5899   4.520  10.861  10.911 -2.9739  0.7913  3.0628
   44MOL0     H 5900   4.422  11.233  10.682 -0.5104 -1.8232  0.2306
   44MOL0     H 5901   4.108  11.313  10.545 -1.6226  0.5639  0.2752
   44MOL0     H 5902   4.160  11.418  10.680  5.1664  0.2427  1.8119
   44MOL0     H 5903   4.267  11.360  10.564 -3.0540  2.7924 -2.2411
   44MOL0     H 5904   3.807  11.439  11.018 -1.2298  1.8992  0.3518
   44MOL0     H 5905   3.582  11.550  10.997 -1.1854 -0.2574  0.1362
   44MOL0     H 5906   3.507  11.686  10.640  1.5107 -1.9502  0.9190
   44MOL0     H 5907   3.365  11.578  10.602  1.6815  0.1690 -1.1710
   44MOL0     H 5908   3.284  11.793  10.652  2.7538 -2.1118 -1.9968
   44MOL0     H 5909   3.249  11.696  10.798 -0.5252  0.3194  0.4203
   44MOL0     H 5910   3.307  11.940  10.821 -0.2054  0.1933  1.5179
   44MOL0     H 5911   3.478  11.897  10.773 -0.1944  1.3458 -0.9384
   44MOL0     H 5912   3.300  11.782  10.989 -0.7974  1.7825 -2.0766
   44MOL0     H 5913   3.472  11.743  10.973  0.1698 -0.3971  0.4286
   44MOL0     H 5914   3.370  12.010  11.041  0.7768  1.3789  1.2701
   44MOL0     H 5915   3.546  11.956  11.032  0.6768  0.9216  1.4349
   44MOL0     H 5916   3.358  11.809  11.229  0.0622 -1.3442 -0.7778
   44MOL0     H 5917   3.530  11.833  11.227 -0.7485  1.5735  1.8981
   44MOL0     H 5918   3.328  12.044  11.289 -1.3549 -2.9634  0.5080
   44MOL0     H 5919   3.506  12.072  11.269 -0.4248  1.6585 -1.2309
   44MOL0     H 5920   3.389  11.876  11.456 -1.5221  1.2982 -2.6486
   44MOL0     H 5921   3.432  12.039  11.518  2.4021 -0.3037  0.8677
   44MOL0     H 5922   3.587  11.437  10.579  1.4906  1.8155 -1.0395
   44MOL0     H 5923   3.795  11.343  10.597 -2.0737 -0.2592  0.4809
   44MOL0     H 5924   4.071  10.976  10.913  1.6536 -3.4572 -0.2907
   44MOL0     H 5925   4.288  10.932  10.968 -0.0895  0.2676  1.4938
   44MOL0     H 5926   6.272  11.460  11.124 -0.1210  0.4478  0.0802
   44MOL0     H 5927   6.541  11.402  11.115 -0.4194  0.4429  0.1012
   44MOL0     H 5928   6.941  11.190  10.904 -0.0070 -0.3949  0.7978
   44MOL0     H 5929   7.136  11.061  10.937 -1.0230 -0.9155 -0.6869
   44MOL0     H 5930   7.318  10.832  11.066  2.9653 -0.6213  2.5459
   44MOL0     H 5931   7.313  11.001  10.997  2.7994  0.5909  1.2326
   44MOL0     H 5932   7.431  11.005  11.253  1.4769  1.1374  0.5128
   44MOL0     H 5933   7.476  11.081  11.099 -1.0323  0.6809  0.8547
   44MOL0     H 5934   7.657  10.935  11.113 -0.0998 -0.0554  0.0320
   44MOL0     H 5935   7.544  10.847  11.009 -2.3317  2.7209 -1.0625
   44MOL0     H 5936   7.461  10.725  11.197 -0.6954  0.0165  0.0522
   44MOL0     H 5937   7.586  10.806  11.311 -1.0961  2.9796 -0.5827
   44MOL0     H 5938   7.814  10.511  11.112 -0.3364 -0.2681 -1.7004
   44MOL0     H 5939   7.015  10.977  11.342 -2.1715  1.5094  0.8421
   44MOL0     H 5940   6.811  11.068  11.298  0.5931  2.5611  1.1371
   45MOL0     O 5941   5.795   2.466   6.714  0.0219 -0.1601 -1.0018
   45MOL0     C 5942   5.912   2.436   6.685  0.2845  0.0725  0.4695
   45MOL0     O 5943   5.952   2.320   6.638  0.4959 -0.7057 -0.0103
   45MOL0     C 5944   5.868   2.226   6.590  0.3612  0.6633  0.0937
   45MOL0     C 5945   5.925   2.101   6.586  0.2103  0.6303  0.0046
   45MOL0     C 5946   5.846   2.000   6.531  0.0105  0.4425 -0.1880
   45MOL0     C 5947   5.718   2.014   6.488  0.0071  0.0270 -0.3093
   45MOL0     O 5948   5.669   1.903   6.428 -0.0962  1.0975 -0.5390
   45MOL0     C 5949   5.523   1.886   6.454  0.1027  1.7416  0.5155
   45MOL0     C 5950   5.477   1.740   6.438 -0.0053 -0.1132  0.7487
   45MOL0     C 5951   5.334   1.709   6.489  1.3008  0.7966 -0.1932
   45MOL0     C 5952   5.269   1.576   6.424 -0.4820  0.5913  0.8916
   45MOL0     C 5953   5.134   1.533   6.477 -1.4140 -0.8972  0.6612
   45MOL0     C 5954   5.058   1.427   6.397  0.3858 -0.0860  0.1226
   45MOL0     C 5955   5.041   1.458   6.246  0.0754 -0.1049 -0.6361
   45MOL0     C 5956   4.934   1.370   6.173 -0.4177 -0.0021 -0.1008
   45MOL0     N 5957   4.805   1.380   6.234  0.7433 -0.5316  0.3155
   45MOL0     C 5958   4.700   1.454   6.190  0.3197  0.0083  0.3181
   45MOL0     C 5959   4.589   1.400   6.261 -0.2319 -0.8822 -0.1942
   45MOL0     C 5960   4.454   1.457   6.246 -0.4254 -0.3562  0.8505
   45MOL0     C 5961   4.343   1.398   6.330 -0.2690 -0.5492  0.1322
   45MOL0     C 5962   4.212   1.477   6.333 -0.3967 -0.3233  1.7240
   45MOL0     C 5963   4.147   1.466   6.473  0.2616  0.0199  0.6404
   45MOL0     O 5964   4.035   1.555   6.477 -0.0549 -0.0807 -0.4696
   45MOL0     C 5965   3.920   1.501   6.531 -0.6424 -0.0088  0.4648
   45MOL0     C 5966   3.885   1.506   6.660 -0.2990  0.5200  0.0002
   45MOL0     C 5967   3.759   1.459   6.698 -0.3317  0.0158 -0.3529
   45MOL0     C 5968   3.732   1.452   6.846 -0.3714 -0.2629  0.6855
   45MOL0     C 5969   3.659   1.419   6.607  1.2164 -0.4265 -0.1011
   45MOL0     C 5970   3.519   1.396   6.630 -0.4392  0.4543  0.3609
   45MOL0     O 5971   3.454   1.325   6.533  0.3811  0.2551 -0.4027
   45MOL0     C 5972   3.315   1.324   6.538 -0.0747 -0.5297 -0.0862
   45MOL0     C 5973   3.266   1.216   6.603 -0.0668  1.0948  0.2663
   45MOL0     C 5974   3.134   1.207   6.618 -0.0051 -0.2655 -0.8934
   45MOL0     C 5975   3.046   1.304   6.578  0.0693  0.1563  1.3114
   45MOL0     O 5976   2.909   1.306   6.601  0.1837  0.3098  0.7812
   45MOL0     C 5977   2.844   1.200   6.676 -0.0118  0.9534 -0.6182
   45MOL0     C 5978   2.700   1.244   6.690  0.3113  0.2961 -0.4888
   45MOL0     C 5979   2.596   1.138   6.726  0.7837  0.0641 -0.6780
   45MOL0     C 5980   2.459   1.193   6.763 -0.3333 -0.3543 -0.1274
   45MOL0     C 5981   2.362   1.085   6.803  0.0722 -0.2085 -0.6018
   45MOL0     C 5982   2.218   1.125   6.797  0.4745 -0.2390 -0.2879
   45MOL0     C 5983   2.129   1.005   6.840 -0.4678 -0.1571  0.5352
   45MOL0     C 5984   2.125   0.984   6.992 -0.2095 -0.0866 -0.1543
   45MOL0    Cl 5985   2.071   1.134   7.070  0.5369 -0.0503 -0.5096
   45MOL0     C 5986   3.094   1.422   6.519 -0.3781  0.0755  0.5175
   45MOL0     C 5987   3.233   1.425   6.491  0.3644 -0.4724 -0.5421
   45MOL0     O 5988   3.469   1.434   6.733 -0.3526  0.2420  0.1934
   45MOL0     C 5989   3.701   1.421   6.475  0.5804  0.8944 -0.1865
   45MOL0     C 5990   3.824   1.466   6.437  0.4405 -0.3642 -0.3898
   45MOL0     N 5991   4.631   1.303   6.354 -0.0051 -0.3712  0.1869
   45MOL0     N 5992   4.759   1.294   6.328  0.1487  0.2049  0.0162
   45MOL0     C 5993   5.666   2.144   6.488  0.7137  0.2481  0.7096
   45MOL0     C 5994   5.739   2.246   6.536  0.5365 -0.3626 -0.1559
   45MOL0     C 5995   6.015   2.530   6.728  0.0082 -0.6979 -0.6454
   45MOL0     C 5996   6.151   2.500   6.746 -0.2881 -0.2598  0.0361
   45MOL0     C 5997   6.236   2.600   6.798  0.9884 -0.2310  0.2290
   45MOL0     C 5998   6.186   2.730   6.828 -1.3784  1.1663 -0.8300
   45MOL0     O 5999   6.269   2.825   6.891 -0.2302  0.7580 -0.3277
   45MOL0     C 6000   6.410   2.814   6.877  0.5819 -1.0211  0.2277
   45MOL0     C 6001   6.464   2.827   6.729  0.6287 -0.6143 -0.3481
   45MOL0     C 6002   6.443   2.967   6.680  0.2540 -0.3504  0.0165
   45MOL0     C 6003   6.518   2.990   6.554 -0.2884 -0.5832 -0.9388
   45MOL0     C 6004   6.523   3.130   6.507 -0.1859  0.0172 -0.0483
   45MOL0     C 6005   6.515   3.245   6.459 -0.0670  0.2766  0.3833
   45MOL0     C 6006   6.060   2.765   6.803 -0.4042  1.2241 -0.3606
   45MOL0     C 6007   5.977   2.662   6.757  0.1616 -0.1269  0.3775
   45MOL0     H 6008   6.028   2.078   6.613 -0.5932 -1.2666  1.7111
   45MOL0     H 6009   5.873   1.895   6.525 -2.7042 -0.5847  2.6190
   45MOL0     H 6010   5.494   1.907   6.557  0.7333 -2.8522  1.8419
   45MOL0     H 6011   5.468   1.950   6.383 -1.1460  0.2968  0.1357
   45MOL0     H 6012   5.505   1.696   6.342 -1.6066  0.8280 -0.1886
   45MOL0     H 6013   5.535   1.684   6.512  1.2306  0.6947  0.4323
   45MOL0     H 6014   5.333   1.699   6.598  1.0507 -0.2824 -0.2860
   45MOL0     H 6015   5.267   1.791   6.462  0.0637  0.3714  1.4185
   45MOL0     H 6016   5.256   1.594   6.317 -1.4070  0.0590  0.9091
   45MOL0     H 6017   5.340   1.495   6.444  1.8335  2.4655  0.7628
   45MOL0     H 6018   5.137   1.513   6.585 -1.3310  1.1237  1.0722
   45MOL0     H 6019   5.073   1.624   6.479 -1.2728 -0.6262 -2.5779
   45MOL0     H 6020   5.113   1.335   6.418 -1.3218 -0.6801  2.4024
   45MOL0     H 6021   4.960   1.427   6.445  1.0767 -0.1981  1.6224
   45MOL0     H 6022   5.020   1.563   6.227 -3.1984 -1.0386 -3.0463
   45MOL0     H 6023   5.130   1.438   6.185  1.2815  4.2826 -0.5998
   45MOL0     H 6024   4.951   1.263   6.184  0.1116  0.1380  0.4634
   45MOL0     H 6025   4.920   1.405   6.070 -0.3183 -0.4929 -0.2825
   45MOL0     H 6026   4.697   1.542   6.126 -0.0308  1.1070  1.7812
   45MOL0     H 6027   4.473   1.564   6.264  4.2354 -0.4622 -1.6688
   45MOL0     H 6028   4.425   1.461   6.141  0.3242  1.9769  0.6636
   45MOL0     H 6029   4.372   1.383   6.435  0.7935 -4.7599 -0.5925
   45MOL0     H 6030   4.326   1.297   6.292 -1.2376  0.2330 -1.5978
   45MOL0     H 6031   4.139   1.437   6.262 -0.2137  1.6546  0.3271
   45MOL0     H 6032   4.213   1.582   6.302 -0.4481 -1.5692 -3.3427
   45MOL0     H 6033   4.212   1.507   6.551  0.2489  2.1654 -0.4067
   45MOL0     H 6034   4.124   1.363   6.502 -1.3838 -0.4231 -1.9199
   45MOL0     H 6035   3.957   1.536   6.736 -0.1652 -1.1313  0.5879
   45MOL0     H 6036   3.649   1.523   6.847  0.9140  1.3663 -1.1167
   45MOL0     H 6037   3.697   1.352   6.875  1.1235 -1.7595 -2.2075
   45MOL0     H 6038   3.814   1.485   6.910 -1.0859  0.3789  1.2831
   45MOL0     H 6039   3.340   1.147   6.643  0.0109 -1.1433 -3.3140
   45MOL0     H 6040   3.099   1.126   6.681 -5.0261  2.2927  0.0936
   45MOL0     H 6041   2.852   1.103   6.627 -2.8581  0.0909  0.4126
   45MOL0     H 6042   2.899   1.186   6.770 -0.8496  2.3632  0.1245
   45MOL0     H 6043   2.689   1.331   6.754 -1.4726  0.8043 -1.4199
   45MOL0     H 6044   2.671   1.279   6.590 -0.0751 -1.1979 -0.9333
   45MOL0     H 6045   2.631   1.086   6.815  0.9841 -1.2088 -1.4735
   45MOL0     H 6046   2.590   1.067   6.643  2.0753  2.5728 -3.0907
   45MOL0     H 6047   2.473   1.267   6.842  1.7503  2.0851 -2.5797
   45MOL0     H 6048   2.422   1.251   6.677 -3.2767 -3.8989 -1.5322
   45MOL0     H 6049   2.383   1.057   6.906 -0.0785 -0.0917 -0.5399
   45MOL0     H 6050   2.403   1.001   6.746  0.1661  0.0168 -0.8714
   45MOL0     H 6051   2.201   1.211   6.862  1.2725 -1.9944  2.4008
   45MOL0     H 6052   2.203   1.155   6.693  2.0927 -0.8880 -0.7491
   45MOL0     H 6053   2.169   0.914   6.794  2.5582  1.4203 -0.2587
   45MOL0     H 6054   2.034   1.026   6.789  0.5958  0.4672 -1.3013
   45MOL0     H 6055   2.225   0.961   7.029  0.0727 -0.3544 -1.0593
   45MOL0     H 6056   2.053   0.904   7.011 -1.8653  1.3963  0.1036
   45MOL0     H 6057   3.038   1.513   6.498 -1.4738 -0.5174  0.7849
   45MOL0     H 6058   3.270   1.514   6.442  3.9959 -0.2881  2.1251
   45MOL0     H 6059   3.636   1.393   6.393 -0.4794  1.6820  0.3624
   45MOL0     H 6060   3.856   1.472   6.334 -0.6380 -0.4723 -0.7396
   45MOL0     H 6061   5.571   2.157   6.438  1.7915 -0.1512 -1.5684
   45MOL0     H 6062   5.702   2.347   6.516  1.4215  0.1362  0.6352
   45MOL0     H 6063   6.189   2.399   6.731  0.5836 -0.0434  0.7083
   45MOL0     H 6064   6.335   2.565   6.826  1.2743  0.3971  0.0145
   45MOL0     H 6065   6.443   2.902   6.933  0.9154 -1.6988  1.1265
   45MOL0     H 6066   6.453   2.726   6.927 -1.8402 -2.8550 -0.7570
   45MOL0     H 6067   6.404   2.762   6.664  0.0840 -0.1476 -0.3203
   45MOL0     H 6068   6.570   2.803   6.739  1.5311  3.4132  1.7391
   45MOL0     H 6069   6.484   3.038   6.753  1.0257 -2.0388  1.2901
   45MOL0     H 6070   6.338   2.993   6.662  0.9561  0.2864 -4.0392
   45MOL0     H 6071   6.487   2.918   6.479 -2.8025 -0.4882 -0.0854
   45MOL0     H 6072   6.623   2.971   6.578 -0.0832  1.2017 -0.2378
   45MOL0     H 6073   6.523   3.342   6.413 -1.3258  0.7191  1.0300
   45MOL0     H 6074   6.036   2.867   6.832  0.7624  0.9610  1.7224
   45MOL0     H 6075   5.873   2.687   6.741  0.8143  1.7107 -1.5316
   46MOL0     O 6076   8.242   5.304   1.197  0.1408  0.7306  0.1438
   46MOL0     C 6077   8.234   5.352   1.310 -0.0048 -0.1732 -0.7624
   46MOL0     O 6078   8.199   5.278   1.420  0.2472 -0.1896  0.0971
   46MOL0     C 6079   8.213   5.135   1.419  0.0295  1.6732  0.2293
   46MOL0     C 6080   8.320   5.070   1.360 -1.2314 -0.0728 -0.5452
   46MOL0     C 6081   8.329   4.927   1.365  0.0215 -0.4250  0.0111
   46MOL0     C 6082   8.227   4.847   1.423  0.2183 -0.8052 -0.2802
   46MOL0     O 6083   8.228   4.709   1.450  0.0946 -0.6058  0.0660
   46MOL0     C 6084   8.284   4.645   1.331 -0.7711 -0.5313  0.1025
   46MOL0     C 6085   8.219   4.506   1.327 -0.0690 -0.2924 -0.2016
   46MOL0     C 6086   8.062   4.512   1.310  0.1420 -0.0586  0.6943
   46MOL0     C 6087   7.990   4.378   1.250  0.3201  0.4853 -0.6984
   46MOL0     C 6088   7.835   4.394   1.258  0.1685  0.2733 -0.7326
   46MOL0     C 6089   7.773   4.328   1.387 -0.1426  0.5152 -0.5524
   46MOL0     C 6090   7.619   4.345   1.383  0.6295 -0.7351 -0.5673
   46MOL0     C 6091   7.543   4.214   1.412  0.4664 -0.4965 -0.5292
   46MOL0     N 6092   7.407   4.225   1.359 -0.3167  0.0997 -0.2791
   46MOL0     C 6093   7.294   4.160   1.407 -0.5668  0.0939  0.4224
   46MOL0     C 6094   7.191   4.182   1.325  1.1614 -0.8341  0.5347
   46MOL0     C 6095   7.055   4.123   1.349 -0.4506  0.6434  0.2338
   46MOL0     C 6096   6.948   4.233   1.339 -0.1659 -0.3232  0.1835
   46MOL0     C 6097   6.806   4.183   1.360  0.3205 -0.2456  0.2490
   46MOL0     C 6098   6.706   4.291   1.352 -0.6671 -0.2578 -0.1283
   46MOL0     O 6099   6.600   4.265   1.442 -0.0388  0.0490 -1.0723
   46MOL0     C 6100   6.480   4.340   1.443 -0.3917 -0.2094 -0.2210
   46MOL0     C 6101   6.381   4.298   1.536  0.9949 -0.5155  0.3065
   46MOL0     C 6102   6.251   4.349   1.523  0.4873  0.1487 -0.5192
   46MOL0     C 6103   6.145   4.284   1.611  0.1891 -0.0195  0.3987
   46MOL0     C 6104   6.219   4.460   1.430  0.8221  0.3603  0.2166
   46MOL0     C 6105   6.086   4.536   1.434 -0.2793 -1.2861 -0.6439
   46MOL0     O 6106   6.074   4.641   1.348  0.1028  0.7465 -0.2257
   46MOL0     C 6107   5.964   4.718   1.342  1.0583 -0.2492 -0.9258
   46MOL0     C 6108   5.838   4.677   1.297 -0.1775  0.0060  0.1858
   46MOL0     C 6109   5.730   4.769   1.309  0.4169 -0.5236 -0.6280
   46MOL0     C 6110   5.751   4.901   1.366 -0.1575  0.3101  0.0894
   46MOL0     O 6111   5.644   4.988   1.359  0.5749 -0.6716  0.0921
   46MOL0     C 6112   5.564   5.018   1.473 -1.1418 -0.6274  0.3149
   46MOL0     C 6113   5.466   5.136   1.449  0.0525  0.7140  0.6068
   46MOL0     C 6114   5.370   5.150   1.565 -0.1506  0.7264 -0.2972
   46MOL0     C 6115   5.239   5.058   1.566 -0.5798  0.7925  0.1330
   46MOL0     C 6116   5.160   5.102   1.691 -0.4049 -0.7145  1.3485
   46MOL0     C 6117   5.029   5.019   1.704 -1.0659  0.7945  0.8226
   46MOL0     C 6118   4.947   5.060   1.827 -0.4862  0.8335  0.3630
   46MOL0     C 6119   4.856   4.934   1.857 -0.4413 -0.7631 -1.0187
   46MOL0    Cl 6120   4.948   4.787   1.923  0.1187 -0.4365  0.1761
   46MOL0     C 6121   5.874   4.936   1.406 -0.9140 -0.7791  0.0622
   46MOL0     C 6122   5.983   4.847   1.388  0.1435 -0.0779  0.4173
   46MOL0     O 6123   6.009   4.510   1.527 -0.7656 -0.1101 -0.0229
   46MOL0     C 6124   6.325   4.499   1.343 -0.4305 -0.4885 -0.4157
   46MOL0     C 6125   6.448   4.439   1.355 -0.3066  0.5171 -0.5894
   46MOL0     N 6126   7.238   4.252   1.215  0.6512 -0.5186  0.7189
   46MOL0     N 6127   7.367   4.274   1.237  0.6018  0.9254 -0.1320
   46MOL0     C 6128   8.117   4.913   1.467  0.0031  0.6275 -0.7193
   46MOL0     C 6129   8.104   5.057   1.457 -0.0406 -0.0729 -0.5154
   46MOL0     C 6130   8.215   5.499   1.334 -0.5860 -0.1791 -0.2034
   46MOL0     C 6131   8.236   5.556   1.459  0.3801  0.4487  1.2219
   46MOL0     C 6132   8.249   5.692   1.468 -0.0439  0.6260 -0.6816
   46MOL0     C 6133   8.241   5.775   1.351 -0.3755  0.3040 -0.2190
   46MOL0     O 6134   8.253   5.918   1.357  0.6711  0.5572 -0.0583
   46MOL0     C 6135   8.253   5.979   1.488  0.0354  0.6044 -0.7871
   46MOL0     C 6136   8.255   6.126   1.471 -0.1092 -0.6614 -0.1155
   46MOL0     C 6137   8.250   6.198   1.600 -0.5892 -0.1943 -0.2112
   46MOL0     C 6138   8.112   6.246   1.646 -0.5975 -0.5260 -0.4355
   46MOL0     C 6139   8.014   6.143   1.681  0.1762  0.2034 -0.4050
   46MOL0     C 6140   7.944   6.043   1.683 -0.1154 -0.2149 -0.1711
   46MOL0     C 6141   8.192   5.711   1.236 -0.2314 -0.2184 -0.6184
   46MOL0     C 6142   8.192   5.576   1.226  0.9804  0.6797  0.4848
   46MOL0     H 6143   8.405   5.123   1.319 -0.1984 -2.5788 -1.9057
   46MOL0     H 6144   8.415   4.878   1.319 -0.3576  0.8855 -2.2600
   46MOL0     H 6145   8.262   4.701   1.240 -0.9807 -1.6434 -0.5517
   46MOL0     H 6146   8.393   4.638   1.340 -0.8260  0.4187  2.0576
   46MOL0     H 6147   8.269   4.453   1.246  0.6060 -0.0423  0.0455
   46MOL0     H 6148   8.250   4.453   1.418 -0.0616  0.9082  0.5195
   46MOL0     H 6149   8.020   4.532   1.409 -0.1823 -0.1131  0.5680
   46MOL0     H 6150   8.045   4.589   1.235  1.9361 -0.8593 -0.6157
   46MOL0     H 6151   8.015   4.387   1.144  0.9728  1.4877 -0.4756
   46MOL0     H 6152   8.025   4.288   1.301 -0.2652  1.2846  1.2056
   46MOL0     H 6153   7.816   4.500   1.279  0.5529 -0.0526  1.5489
   46MOL0     H 6154   7.788   4.345   1.173  0.3661 -0.9788 -0.1411
   46MOL0     H 6155   7.792   4.221   1.386 -0.5171  0.4502 -1.1855
   46MOL0     H 6156   7.825   4.377   1.470 -0.3759  0.7875 -0.5645
   46MOL0     H 6157   7.606   4.431   1.449  0.2810 -0.4611 -0.9892
   46MOL0     H 6158   7.592   4.389   1.286 -1.3579 -0.3351  0.1233
   46MOL0     H 6159   7.539   4.184   1.517 -1.2966 -1.8177 -0.9315
   46MOL0     H 6160   7.597   4.137   1.356 -0.0812  0.3552 -2.3091
   46MOL0     H 6161   7.292   4.101   1.498  1.5230 -1.4871 -0.4552
   46MOL0     H 6162   7.040   4.047   1.271 -1.1639  0.0720  0.9096
   46MOL0     H 6163   7.061   4.069   1.444  1.0862 -0.5099 -0.4736
   46MOL0     H 6164   6.965   4.281   1.242  3.7062 -1.6992  0.0037
   46MOL0     H 6165   6.963   4.299   1.425  1.7135 -1.4265  0.7440
   46MOL0     H 6166   6.792   4.130   1.454  2.0908 -3.6760 -1.2643
   46MOL0     H 6167   6.783   4.118   1.275 -0.6379  2.6492 -1.9111
   46MOL0     H 6168   6.660   4.283   1.253 -2.5805  0.1731  0.6668
   46MOL0     H 6169   6.756   4.388   1.362  1.0079 -1.0266 -0.7381
   46MOL0     H 6170   6.403   4.210   1.595  1.1017  1.1426  2.8823
   46MOL0     H 6171   6.062   4.249   1.550 -0.9572 -1.0313  2.4227
   46MOL0     H 6172   6.172   4.192   1.663  0.2244  0.2627  0.8969
   46MOL0     H 6173   6.106   4.354   1.687 -1.1345 -0.5991  0.2789
   46MOL0     H 6174   5.810   4.578   1.263 -3.2243 -0.0042  2.3475
   46MOL0     H 6175   5.628   4.736   1.291  0.6427 -1.6176 -0.0032
   46MOL0     H 6176   5.526   4.919   1.496  1.2463 -1.6252  0.2412
   46MOL0     H 6177   5.629   5.054   1.554  3.5553  1.5664 -3.8837
   46MOL0     H 6178   5.524   5.227   1.432 -0.9413  1.3636  0.6109
   46MOL0     H 6179   5.407   5.112   1.360  0.8930  0.3157  0.1386
   46MOL0     H 6180   5.338   5.255   1.557  0.0980  0.8713  0.4883
   46MOL0     H 6181   5.426   5.139   1.659 -0.2409  2.6430  0.0189
   46MOL0     H 6182   5.183   5.065   1.472 -1.0234  1.5928  0.4461
   46MOL0     H 6183   5.254   4.950   1.578  0.3187  0.8221 -0.5512
   46MOL0     H 6184   5.140   5.209   1.688 -0.9947 -0.8275 -0.6987
   46MOL0     H 6185   5.224   5.078   1.776  1.2496 -3.0011 -0.3984
   46MOL0     H 6186   4.969   5.025   1.613  0.8370 -0.1786 -0.5794
   46MOL0     H 6187   5.035   4.910   1.709 -3.0967  0.6386  0.6521
   46MOL0     H 6188   4.904   5.159   1.808  0.0737  0.9978 -0.1051
   46MOL0     H 6189   5.011   5.072   1.916  1.2010  1.1783 -0.8487
   46MOL0     H 6190   4.815   4.904   1.760  0.0047 -1.5133 -0.9849
   46MOL0     H 6191   4.772   4.947   1.926  0.7860 -0.5903  0.4990
   46MOL0     H 6192   5.893   5.033   1.451 -0.8636 -1.2712  1.1113
   46MOL0     H 6193   6.085   4.875   1.414  0.5980 -3.1646  2.5484
   46MOL0     H 6194   6.309   4.577   1.269 -0.2850 -1.9163 -2.0101
   46MOL0     H 6195   6.532   4.460   1.290  2.1909 -1.9617  1.5966
   46MOL0     H 6196   8.044   4.841   1.502  1.6428 -0.8169 -0.1374
   46MOL0     H 6197   8.012   5.102   1.492  0.0285  0.3285 -0.8371
   46MOL0     H 6198   8.251   5.499   1.550  0.8913  3.2707  3.0261
   46MOL0     H 6199   8.269   5.746   1.560  2.2836  1.2767 -1.4873
   46MOL0     H 6200   8.157   5.951   1.532 -1.2831  1.0541 -3.2308
   46MOL0     H 6201   8.341   5.946   1.544 -0.6107 -1.3007 -0.8330
   46MOL0     H 6202   8.176   6.144   1.398  0.6267 -1.0578 -1.0287
   46MOL0     H 6203   8.345   6.166   1.423  2.0071 -0.6138  3.5386
   46MOL0     H 6204   8.317   6.284   1.589  1.5552 -1.6427  0.7717
   46MOL0     H 6205   8.300   6.146   1.682 -0.2016  0.9478  0.2958
   46MOL0     H 6206   8.089   6.301   1.555  2.1484 -1.6239 -1.8984
   46MOL0     H 6207   8.119   6.306   1.737 -0.3135 -2.2085  0.7150
   46MOL0     H 6208   7.889   5.956   1.653 -1.2833 -0.1089  1.4916
   46MOL0     H 6209   8.166   5.776   1.153 -1.3374 -2.8169 -2.4396
   46MOL0     H 6210   8.189   5.524   1.131  6.2129  0.7390  0.0219
   47MOL0     O 6211   4.891   2.546   2.699 -0.8301  0.9610 -0.0239
   47MOL0     C 6212   4.830   2.523   2.803  0.3516  0.3598 -0.3223
   47MOL0     O 6213   4.726   2.606   2.848 -0.3824 -0.3066 -0.2266
   47MOL0     C 6214   4.731   2.734   2.788 -0.1525 -0.0080 -0.1207
   47MOL0     C 6215   4.611   2.790   2.743 -1.3269  0.1602  0.1501
   47MOL0     C 6216   4.599   2.910   2.688 -0.1101 -0.2547 -0.3831
   47MOL0     C 6217   4.710   2.986   2.663 -0.1340 -0.3856  0.7774
   47MOL0     O 6218   4.697   3.107   2.593 -0.1575  0.1590 -1.0588
   47MOL0     C 6219   4.803   3.145   2.498 -0.3743 -0.1153  0.2326
   47MOL0     C 6220   4.725   3.249   2.409  0.6371 -0.5294 -0.4581
   47MOL0     C 6221   4.609   3.186   2.320 -0.0117  0.7900  0.3449
   47MOL0     C 6222   4.533   3.300   2.238 -0.0738  0.7497  0.1505
   47MOL0     C 6223   4.417   3.384   2.301  0.0014  0.8739  0.5334
   47MOL0     C 6224   4.314   3.315   2.378  0.3050  0.2465  0.0864
   47MOL0     C 6225   4.264   3.187   2.318  0.5509  0.7495  0.0317
   47MOL0     C 6226   4.109   3.167   2.338 -0.8217 -0.8305 -0.8478
   47MOL0     N 6227   4.064   3.062   2.253 -0.7006  0.0484 -0.9644
   47MOL0     C 6228   3.977   2.970   2.306 -0.0308 -0.7390  0.9944
   47MOL0     C 6229   3.949   2.893   2.203 -0.4990 -0.1011  0.1431
   47MOL0     C 6230   3.846   2.779   2.194  0.4389  0.1172  0.5315
   47MOL0     C 6231   3.919   2.646   2.225  0.3168  0.1142 -0.2712
   47MOL0     C 6232   3.924   2.615   2.371  0.3534  0.1600  0.6453
   47MOL0     C 6233   3.973   2.472   2.376  0.1128  0.3654  0.3289
   47MOL0     O 6234   3.871   2.389   2.318  0.3097  0.0293 -0.9167
   47MOL0     C 6235   3.771   2.328   2.397 -0.3474  0.4349  0.1844
   47MOL0     C 6236   3.688   2.235   2.328  0.2307  0.0254  0.2148
   47MOL0     C 6237   3.587   2.171   2.397  0.6749 -0.1216  0.6991
   47MOL0     C 6238   3.512   2.067   2.324  0.1972  0.5865  0.1800
   47MOL0     C 6239   3.552   2.200   2.536  0.5161  0.3005  0.2065
   47MOL0     C 6240   3.439   2.137   2.617 -0.9790 -0.7929  0.1898
   47MOL0     O 6241   3.429   2.176   2.748  0.4131  0.4842  0.4142
   47MOL0     C 6242   3.318   2.134   2.818  0.2253  0.7407  0.2280
   47MOL0     C 6243   3.322   1.999   2.856 -0.5268 -0.3457 -0.3908
   47MOL0     C 6244   3.224   1.940   2.940  0.1840  0.0768 -1.0630
   47MOL0     C 6245   3.117   2.018   2.979  0.7725  0.3433  0.2208
   47MOL0     O 6246   3.029   1.977   3.077  0.0412 -0.0804 -0.2723
   47MOL0     C 6247   2.902   1.940   3.031  0.4746  0.6691  0.2826
   47MOL0     C 6248   2.817   1.873   3.139  0.5466 -0.8909  0.0139
   47MOL0     C 6249   2.899   1.773   3.226  0.2217  0.2095  0.3227
   47MOL0     C 6250   2.958   1.654   3.150  0.3100  0.9003  0.6148
   47MOL0     C 6251   3.101   1.629   3.195  0.2763  0.4793 -0.7108
   47MOL0     C 6252   3.178   1.536   3.107 -1.6335 -0.0970  0.5985
   47MOL0     C 6253   3.111   1.403   3.089 -0.6795  1.1546  0.5631
   47MOL0     C 6254   3.201   1.283   3.090 -0.1167  0.3478  0.2993
   47MOL0    Cl 6255   3.282   1.290   3.252  0.2161 -0.3293  0.0918
   47MOL0     C 6256   3.110   2.157   2.933 -0.5960  0.3984  0.7476
   47MOL0     C 6257   3.218   2.214   2.861 -0.0217 -0.4209 -0.7356
   47MOL0     O 6258   3.361   2.060   2.555  0.8963 -0.5241  0.0176
   47MOL0     C 6259   3.631   2.296   2.600  0.4515 -0.5384 -0.6534
   47MOL0     C 6260   3.730   2.359   2.526  0.2505  0.4361  0.0181
   47MOL0     N 6261   4.032   2.919   2.103  0.0802  0.3994  0.2394
   47MOL0     N 6262   4.103   3.023   2.136  0.6105  0.5081  0.0278
   47MOL0     C 6263   4.835   2.942   2.715 -0.4894  0.5891  0.9769
   47MOL0     C 6264   4.841   2.818   2.766  1.1420  0.1352  0.4671
   47MOL0     C 6265   4.830   2.387   2.866  0.0480 -0.8698 -0.6856
   47MOL0     C 6266   4.729   2.341   2.936  0.8584  0.1533  0.0834
   47MOL0     C 6267   4.734   2.220   2.999  0.6170  0.2150  0.2603
   47MOL0     C 6268   4.843   2.132   2.988  0.5206  0.0924 -0.3544
   47MOL0     O 6269   4.848   2.010   3.041 -0.2826  0.1488  0.6872
   47MOL0     C 6270   4.729   1.932   3.048  0.1360  0.1602  0.2095
   47MOL0     C 6271   4.754   1.792   3.101  0.2349 -0.4103  0.1054
   47MOL0     C 6272   4.843   1.727   2.999 -0.9174  0.6741  0.3769
   47MOL0     C 6273   4.888   1.592   3.054  0.5555  0.4893  0.7182
   47MOL0     C 6274   4.775   1.496   3.069 -0.2007 -0.8765  0.3144
   47MOL0     C 6275   4.688   1.410   3.081  0.7494  0.7306  0.7428
   47MOL0     C 6276   4.947   2.178   2.908 -0.2386  1.3335 -0.2716
   47MOL0     C 6277   4.939   2.306   2.841 -0.0890  0.3606 -0.2050
   47MOL0     H 6278   4.526   2.723   2.755 -0.9698 -0.3404 -0.1248
   47MOL0     H 6279   4.505   2.935   2.639 -0.1576 -0.4436 -0.3887
   47MOL0     H 6280   4.878   3.202   2.553 -1.2531  0.7830  0.5185
   47MOL0     H 6281   4.850   3.061   2.446  0.4160  0.0516  0.6719
   47MOL0     H 6282   4.684   3.329   2.472 -0.5667  1.0579 -3.0563
   47MOL0     H 6283   4.787   3.313   2.345 -1.5298  1.6653 -0.5572
   47MOL0     H 6284   4.668   3.127   2.250  1.9392  0.9126  1.7953
   47MOL0     H 6285   4.545   3.129   2.388  1.2125 -0.3409  0.5889
   47MOL0     H 6286   4.605   3.378   2.209 -1.5529  2.6275  1.2612
   47MOL0     H 6287   4.504   3.248   2.147 -1.5833 -2.5667  2.3267
   47MOL0     H 6288   4.462   3.467   2.357  2.9621 -0.5492  0.4903
   47MOL0     H 6289   4.371   3.437   2.218 -2.6003  1.1708  2.0779
   47MOL0     H 6290   4.367   3.290   2.470 -0.8255  1.1039  0.9861
   47MOL0     H 6291   4.231   3.383   2.399 -0.2619 -1.1701  3.0146
   47MOL0     H 6292   4.283   3.186   2.210  2.4345 -2.2234  0.2717
   47MOL0     H 6293   4.316   3.100   2.360  1.9038  1.3718 -0.3203
   47MOL0     H 6294   4.057   3.261   2.318  3.7710  1.8552 -1.6391
   47MOL0     H 6295   4.092   3.155   2.446 -2.1528 -1.0385 -1.0628
   47MOL0     H 6296   3.933   2.964   2.406  1.9479 -0.8324  1.9015
   47MOL0     H 6297   3.764   2.795   2.264 -2.2893 -1.7981 -1.9646
   47MOL0     H 6298   3.793   2.765   2.099  0.7237 -2.5600  0.6813
   47MOL0     H 6299   4.024   2.659   2.197  0.1938 -0.2304 -0.9159
   47MOL0     H 6300   3.879   2.566   2.161  3.9051 -2.3299  0.2327
   47MOL0     H 6301   3.821   2.614   2.406  0.2213  0.1170  0.2628
   47MOL0     H 6302   3.991   2.687   2.419  0.9012 -0.1850  0.4062
   47MOL0     H 6303   3.986   2.446   2.482 -1.3616 -1.1814  0.1755
   47MOL0     H 6304   4.069   2.467   2.324 -0.2016  2.0126 -0.4930
   47MOL0     H 6305   3.725   2.212   2.228  2.2880  2.3225  0.3479
   47MOL0     H 6306   3.490   1.976   2.380 -0.0736 -0.4980 -1.6090
   47MOL0     H 6307   3.417   2.115   2.300 -1.0468 -1.4429  0.8044
   47MOL0     H 6308   3.561   2.019   2.238 -3.2554 -3.7587  0.3065
   47MOL0     H 6309   3.402   1.937   2.818 -0.9552 -0.4405 -1.1484
   47MOL0     H 6310   3.236   1.836   2.967 -0.4031  0.2861  0.0706
   47MOL0     H 6311   2.859   2.027   2.981  2.6367  0.0582 -2.9384
   47MOL0     H 6312   2.917   1.859   2.959  1.2108  0.5923  0.5177
   47MOL0     H 6313   2.773   1.944   3.210 -2.6031 -2.2687 -0.3984
   47MOL0     H 6314   2.732   1.826   3.088 -0.9738 -1.6041  3.0135
   47MOL0     H 6315   2.835   1.752   3.312  1.1884 -0.2765  0.9570
   47MOL0     H 6316   2.984   1.835   3.257 -0.3429  1.0639  0.1710
   47MOL0     H 6317   2.902   1.565   3.179 -0.3506  1.0935 -0.0432
   47MOL0     H 6318   2.955   1.656   3.041  4.0161 -1.8686  0.2592
   47MOL0     H 6319   3.099   1.588   3.296 -1.1181 -1.6823 -1.5481
   47MOL0     H 6320   3.156   1.723   3.188  3.6721 -1.2069  0.5304
   47MOL0     H 6321   3.190   1.585   3.009  1.9895  1.2390  1.5350
   47MOL0     H 6322   3.283   1.532   3.140 -1.4391 -1.4959 -0.1188
   47MOL0     H 6323   3.060   1.411   2.993  0.1367  0.2743  0.0405
   47MOL0     H 6324   3.035   1.390   3.167 -0.8646 -0.9969  0.0798
   47MOL0     H 6325   3.273   1.286   3.007 -1.6336  0.1425 -1.0865
   47MOL0     H 6326   3.144   1.190   3.076  0.2682  0.4273 -2.2764
   47MOL0     H 6327   3.033   2.224   2.971 -0.1897  1.9968 -1.1375
   47MOL0     H 6328   3.217   2.321   2.844 -1.4265  0.0776  2.1036
   47MOL0     H 6329   3.634   2.331   2.702 -1.9946  0.4692 -0.8637
   47MOL0     H 6330   3.801   2.426   2.572 -1.0311  1.5230  0.4761
   47MOL0     H 6331   4.929   2.995   2.717  0.1494 -0.4301 -0.6483
   47MOL0     H 6332   4.944   2.792   2.788  1.5316 -1.1038 -2.3237
   47MOL0     H 6333   4.636   2.397   2.945  0.2637 -1.0364  2.1502
   47MOL0     H 6334   4.652   2.196   3.066  0.0515  2.9888  0.6807
   47MOL0     H 6335   4.664   1.986   3.117  1.4482  0.7192  1.0394
   47MOL0     H 6336   4.679   1.921   2.951 -2.4297 -1.1701  1.5969
   47MOL0     H 6337   4.662   1.732   3.110  0.4651 -0.8940 -0.6850
   47MOL0     H 6338   4.812   1.796   3.194  0.7617  4.2606 -0.1872
   47MOL0     H 6339   4.932   1.786   2.973  1.8119 -2.8593  0.8504
   47MOL0     H 6340   4.779   1.703   2.914  0.6261 -2.7831  0.0204
   47MOL0     H 6341   4.947   1.606   3.145  1.3528 -0.8812  0.4556
   47MOL0     H 6342   4.943   1.539   2.975 -1.9442 -0.3879 -0.5596
   47MOL0     H 6343   4.608   1.340   3.097  1.2470 -0.3858 -1.3215
   47MOL0     H 6344   5.033   2.117   2.884 -1.1472  0.1655 -0.6303
   47MOL0     H 6345   5.009   2.339   2.765  0.3647 -0.2978 -0.0763
   48MOL0     O 6346   2.586   3.766   8.648  0.3067  0.5761 -0.5050
   48MOL0     C 6347   2.641   3.792   8.542 -1.1594 -0.6359 -0.0652
   48MOL0     O 6348   2.590   3.861   8.437 -0.0319  0.2644 -0.8463
   48MOL0     C 6349   2.460   3.906   8.458 -0.5547  0.5815 -0.6878
   48MOL0     C 6350   2.450   4.043   8.475  0.1279  1.0307  0.0383
   48MOL0     C 6351   2.323   4.091   8.514  0.6270 -0.3213 -0.1296
   48MOL0     C 6352   2.202   4.013   8.521 -0.1413  1.0727 -0.6540
   48MOL0     O 6353   2.089   4.075   8.556  0.3211  0.2814  0.1609
   48MOL0     C 6354   1.958   4.009   8.561  0.3242  0.5108  0.8078
   48MOL0     C 6355   1.897   3.996   8.424 -0.3781 -0.1176 -0.1289
   48MOL0     C 6356   1.743   3.984   8.433  0.1633  0.6609 -0.0586
   48MOL0     C 6357   1.670   3.985   8.300 -0.6446 -0.9470 -0.6383
   48MOL0     C 6358   1.521   3.974   8.337  0.4242  0.6597  0.3234
   48MOL0     C 6359   1.432   3.976   8.214 -0.5864  0.4383  0.2865
   48MOL0     C 6360   1.280   3.953   8.251  0.3971 -0.9448  0.2233
   48MOL0     C 6361   1.194   3.979   8.123 -0.4003 -0.0836 -0.2366
   48MOL0     N 6362   1.051   3.965   8.149 -0.8316  0.2327  0.4374
   48MOL0     C 6363   0.959   3.980   8.052  0.3207 -0.8753 -0.5542
   48MOL0     C 6364   0.844   3.991   8.113 -0.6067 -0.3463 -0.1792
   48MOL0     C 6365   0.713   4.003   8.037 -0.0486  0.4247 -0.4589
   48MOL0     C 6366   0.591   3.946   8.109  0.7130 -0.3532  0.7460
   48MOL0     C 6367   0.470   4.028   8.055 -0.0008  0.6828  0.5018
   48MOL0     C 6368   0.330   3.978   8.096 -1.5549  0.3308 -0.8183
   48MOL0     O 6369   0.322   3.992   8.241  1.0791 -0.1383 -0.2496
   48MOL0     C 6370   0.193   3.964   8.292  0.0027  0.2760 -0.0913
   48MOL0     C 6371   0.188   3.925   8.422 -0.5574  0.0644 -1.0739
   48MOL0     C 6372   0.061   3.919   8.487  0.3615  0.0334  0.7005
   48MOL0     C 6373   0.061   3.879   8.630 -0.5459  0.4044  0.1359
   48MOL0     C 6374  -0.058   3.959   8.418 -0.3183 -0.3597 -0.4877
   48MOL0     C 6375  -0.191   3.997   8.481  0.2312 -1.3332 -0.1717
   48MOL0     O 6376  -0.275   4.053   8.389 -0.1731  0.1906 -0.2467
   48MOL0     C 6377  -0.405   4.072   8.432  0.6865 -1.0941  0.5732
   48MOL0     C 6378  -0.490   3.972   8.491 -1.5496  0.7291  0.6915
   48MOL0     C 6379  -0.620   4.010   8.533 -0.7820 -0.0514 -0.0007
   48MOL0     C 6380  -0.668   4.144   8.514  0.6630 -0.0052 -0.3483
   48MOL0     O 6381  -0.792   4.187   8.552  0.0112  0.3676 -0.7845
   48MOL0     C 6382  -0.875   4.107   8.645  0.2766  0.2148  0.0491
   48MOL0     C 6383  -0.958   3.997   8.570 -0.7510 -0.0592  0.9821
   48MOL0     C 6384  -1.033   3.913   8.681  0.4916  0.2658  0.1930
   48MOL0     C 6385  -1.089   3.792   8.618  0.0697  0.4112 -0.4834
   48MOL0     C 6386  -1.085   3.663   8.706 -1.5169  0.6351  0.0973
   48MOL0     C 6387  -1.170   3.674   8.829  0.0315 -0.3615 -0.3502
   48MOL0     C 6388  -1.303   3.615   8.811  0.2837 -0.7890 -0.8036
   48MOL0     C 6389  -1.394   3.636   8.926  0.5595  0.4499 -0.3158
   48MOL0    Cl 6390  -1.332   3.528   9.072 -0.1217 -0.0533 -0.0528
   48MOL0     C 6391  -0.584   4.238   8.460 -0.1606 -0.0975  0.3993
   48MOL0     C 6392  -0.450   4.206   8.421 -0.7369 -0.3412  0.5590
   48MOL0     O 6393  -0.207   3.986   8.605 -0.4628  0.5058 -0.0954
   48MOL0     C 6394  -0.043   3.987   8.284  0.4717 -0.3679 -0.4707
   48MOL0     C 6395   0.078   3.984   8.222  0.1728  0.2110 -0.2293
   48MOL0     N 6396   0.871   3.997   8.248  0.4436 -0.8392  0.1808
   48MOL0     N 6397   0.994   3.990   8.269 -0.3002  0.4936 -0.2593
   48MOL0     C 6398   2.222   3.873   8.500 -0.9461  0.2240 -0.0568
   48MOL0     C 6399   2.350   3.824   8.468  0.0261  0.2021  0.4111
   48MOL0     C 6400   2.787   3.753   8.526 -0.2387  0.3363 -1.6704
   48MOL0     C 6401   2.878   3.831   8.455 -0.1645 -0.2052  0.1699
   48MOL0     C 6402   3.010   3.803   8.437 -0.5883  0.3119 -0.2493
   48MOL0     C 6403   3.065   3.692   8.499  0.0702  0.0902 -0.6912
   48MOL0     O 6404   3.200   3.659   8.503 -0.0546 -0.1026  0.0590
   48MOL0     C 6405   3.283   3.708   8.391 -1.0753  0.8805 -0.5691
   48MOL0     C 6406   3.440   3.676   8.406 -0.1547  0.0222 -0.4272
   48MOL0     C 6407   3.461   3.538   8.484 -0.8568 -0.5080  0.3182
   48MOL0     C 6408   3.614   3.501   8.461 -0.6123 -1.2192 -1.3467
   48MOL0     C 6409   3.704   3.600   8.531  0.6731  0.6842  0.3820
   48MOL0     C 6410   3.783   3.685   8.565  0.3394 -0.9510 -0.4421
   48MOL0     C 6411   2.978   3.608   8.573 -0.2097 -0.5728  0.7128
   48MOL0     C 6412   2.842   3.631   8.583 -0.4376  0.1974 -0.0459
   48MOL0     H 6413   2.535   4.108   8.458 -0.2062  1.6062  0.5136
   48MOL0     H 6414   2.322   4.199   8.517 -0.3413 -0.2420 -1.8463
   48MOL0     H 6415   1.964   3.919   8.623 -1.5764  0.0417  0.3435
   48MOL0     H 6416   1.903   4.082   8.622  3.1410  4.1064 -0.5253
   48MOL0     H 6417   1.929   4.086   8.371  3.8670 -2.7679 -2.6328
   48MOL0     H 6418   1.948   3.913   8.374  0.7376  1.3746 -1.5530
   48MOL0     H 6419   1.726   3.890   8.486  0.0371  0.6149 -0.1781
   48MOL0     H 6420   1.705   4.064   8.496 -0.7125  2.2956 -2.5167
   48MOL0     H 6421   1.675   4.086   8.258 -0.9478 -0.0740  1.3006
   48MOL0     H 6422   1.703   3.910   8.228 -1.1121 -1.5629 -0.2188
   48MOL0     H 6423   1.496   3.881   8.389  0.7624  0.1376 -0.4279
   48MOL0     H 6424   1.503   4.051   8.413 -1.5496 -2.2673  3.1135
   48MOL0     H 6425   1.435   4.069   8.157 -1.7135 -1.0235 -2.3499
   48MOL0     H 6426   1.476   3.895   8.156  0.5218  1.8345 -0.9003
   48MOL0     H 6427   1.260   3.852   8.288  0.7669 -0.0318  3.1995
   48MOL0     H 6428   1.256   4.021   8.333  0.7097  0.6273 -0.9505
   48MOL0     H 6429   1.222   3.906   8.047 -0.2205 -1.3806  1.0214
   48MOL0     H 6430   1.208   4.075   8.074  0.6674 -0.6350 -1.0609
   48MOL0     H 6431   0.975   3.969   7.945  1.0253  0.9536 -0.6817
   48MOL0     H 6432   0.699   4.111   8.035 -0.4442  0.4418  1.3703
   48MOL0     H 6433   0.721   3.975   7.932 -0.1450  1.2401 -0.6849
   48MOL0     H 6434   0.608   3.958   8.217  1.0568 -0.3844  0.6965
   48MOL0     H 6435   0.569   3.841   8.086  1.3901 -0.7168  1.6839
   48MOL0     H 6436   0.480   4.029   7.946 -1.9038  2.0583  0.3000
   48MOL0     H 6437   0.472   4.133   8.087 -6.5300  1.4790 -0.3374
   48MOL0     H 6438   0.330   3.872   8.069 -1.0988 -0.1818  1.0754
   48MOL0     H 6439   0.259   4.032   8.032  0.2195  0.2668 -2.9965
   48MOL0     H 6440   0.286   3.902   8.463 -0.8616  0.3908 -0.1355
   48MOL0     H 6441   0.160   3.841   8.656 -0.7416 -0.9846 -1.0221
   48MOL0     H 6442   0.039   3.961   8.698 -3.2922 -1.3128  1.5019
   48MOL0     H 6443  -0.013   3.804   8.661 -0.1551  0.2793  0.7706
   48MOL0     H 6444  -0.453   3.870   8.500 -0.8368  1.0579  1.7215
   48MOL0     H 6445  -0.700   3.948   8.574 -0.5585 -0.4181 -0.1132
   48MOL0     H 6446  -0.804   4.071   8.720  0.0110 -0.6736 -0.1155
   48MOL0     H 6447  -0.948   4.172   8.695 -0.7821 -1.7161  1.1115
   48MOL0     H 6448  -1.033   4.039   8.503  0.4358 -1.6858 -1.5560
   48MOL0     H 6449  -0.896   3.937   8.502 -0.6873  2.1974 -1.0981
   48MOL0     H 6450  -1.116   3.977   8.713 -1.6819 -2.6290  0.7309
   48MOL0     H 6451  -0.965   3.895   8.765  0.1401 -3.2168 -0.1149
   48MOL0     H 6452  -1.195   3.793   8.589 -0.6722 -0.5017  1.9590
   48MOL0     H 6453  -1.042   3.768   8.522  0.4455  2.9776 -0.9995
   48MOL0     H 6454  -0.978   3.645   8.722 -1.8106 -0.6556  0.7376
   48MOL0     H 6455  -1.115   3.574   8.650 -0.2985  0.7754 -0.8046
   48MOL0     H 6456  -1.117   3.633   8.916  0.7054  2.3592  0.6054
   48MOL0     H 6457  -1.168   3.780   8.854 -0.4949 -0.7502  1.5486
   48MOL0     H 6458  -1.306   3.506   8.801 -4.9385 -1.1432  1.4821
   48MOL0     H 6459  -1.352   3.664   8.726 -1.3620  0.1173  0.6134
   48MOL0     H 6460  -1.496   3.601   8.909  0.6300  0.1688 -0.1584
   48MOL0     H 6461  -1.391   3.742   8.953  0.8838  0.2354  0.5135
   48MOL0     H 6462  -0.628   4.337   8.450 -0.3439 -0.2287 -0.1155
   48MOL0     H 6463  -0.392   4.290   8.385 -1.5580  0.8214  1.8516
   48MOL0     H 6464  -0.129   4.023   8.228 -0.4291 -0.7968  0.5973
   48MOL0     H 6465   0.072   3.986   8.114 -2.2886 -1.0078 -0.1958
   48MOL0     H 6466   2.145   3.797   8.510 -0.3313 -0.3786  0.1679
   48MOL0     H 6467   2.350   3.716   8.459  0.1968  0.1688  0.8198
   48MOL0     H 6468   2.847   3.930   8.421 -1.0928  0.2262  2.1436
   48MOL0     H 6469   3.076   3.865   8.378  2.9890  1.3719  4.3726
   48MOL0     H 6470   3.247   3.648   8.307  2.7116 -0.5477 -1.4027
   48MOL0     H 6471   3.265   3.812   8.363  0.6732  1.7823  1.3716
   48MOL0     H 6472   3.489   3.753   8.466 -1.9437 -0.4191  1.7426
   48MOL0     H 6473   3.477   3.668   8.303  1.4085  1.9276 -0.0739
   48MOL0     H 6474   3.402   3.454   8.447 -0.2909 -1.3851  1.3480
   48MOL0     H 6475   3.439   3.540   8.591  1.1852 -2.3491  0.8371
   48MOL0     H 6476   3.640   3.493   8.355  1.1778  2.2672 -1.2906
   48MOL0     H 6477   3.633   3.402   8.505  0.0139 -1.3476 -1.8981
   48MOL0     H 6478   3.852   3.761   8.595 -0.4273 -1.1772  2.1251
   48MOL0     H 6479   3.020   3.520   8.622 -0.5766 -2.6005 -2.3553
   48MOL0     H 6480   2.770   3.561   8.624 -0.0527  0.9188  1.9737
   49MOL0     O 6481   7.923   2.604   2.565 -0.6234  0.1862  0.2171
   49MOL0     C 6482   7.969   2.635   2.674 -0.3149  0.1048  0.2178
   49MOL0     O 6483   7.898   2.687   2.782  0.0068 -0.2371  0.0208
   49MOL0     C 6484   7.761   2.685   2.783  0.7017  0.3620 -0.7258
   49MOL0     C 6485   7.697   2.570   2.746  0.4830  0.2229  0.0979
   49MOL0     C 6486   7.556   2.557   2.775  0.4513  0.1865 -0.2840
   49MOL0     C 6487   7.475   2.657   2.828 -0.5336  0.5437  0.1828
   49MOL0     O 6488   7.338   2.651   2.837 -0.6235  0.1827 -0.2068
   49MOL0     C 6489   7.283   2.526   2.878 -1.1249  0.2098  0.4835
   49MOL0     C 6490   7.135   2.540   2.866  0.1725 -0.1664  0.0683
   49MOL0     C 6491   7.079   2.663   2.951 -0.6266  0.1694  0.2941
   49MOL0     C 6492   6.923   2.645   2.933  0.8303 -0.2341 -0.7014
   49MOL0     C 6493   6.864   2.704   3.053  0.0678 -0.1611  0.5632
   49MOL0     C 6494   6.715   2.683   3.074 -0.8584 -0.0140 -0.2655
   49MOL0     C 6495   6.669   2.780   3.178  0.0974 -1.1679  0.2542
   49MOL0     C 6496   6.525   2.747   3.213 -0.3992 -0.6116  0.3543
   49MOL0     N 6497   6.453   2.857   3.284  0.0230 -0.1838  0.0793
   49MOL0     C 6498   6.404   2.971   3.231 -0.6839  1.2091  0.1116
   49MOL0     C 6499   6.336   3.030   3.331 -0.1364 -0.0780  0.2436
   49MOL0     C 6500   6.273   3.165   3.325 -0.6746 -1.5110 -0.0479
   49MOL0     C 6501   6.121   3.175   3.351 -0.6017  0.0449  0.6296
   49MOL0     C 6502   6.067   3.311   3.328 -0.2033  0.0688 -1.0225
   49MOL0     C 6503   6.016   3.327   3.190  0.0854 -0.8378 -0.0280
   49MOL0     O 6504   5.938   3.452   3.186  0.0878  0.4754  0.0858
   49MOL0     C 6505   5.820   3.469   3.112  0.0302  0.5864 -0.0774
   49MOL0     C 6506   5.736   3.586   3.135 -0.7056  0.2018  0.6210
   49MOL0     C 6507   5.621   3.609   3.056  0.0151  0.3769 -0.3868
   49MOL0     C 6508   5.533   3.730   3.093 -0.0189  0.3318  1.0374
   49MOL0     C 6509   5.576   3.519   2.959 -0.1847  0.8827  0.2006
   49MOL0     C 6510   5.448   3.535   2.882  0.5744 -0.1236 -0.0417
   49MOL0     O 6511   5.403   3.656   2.857  0.1446  0.0808  0.4757
   49MOL0     C 6512   5.325   3.672   2.747  0.5146 -0.1603  0.3163
   49MOL0     C 6513   5.347   3.642   2.613 -0.3494  0.4776 -0.3353
   49MOL0     C 6514   5.249   3.653   2.510  0.7037 -0.2620  0.7766
   49MOL0     C 6515   5.118   3.676   2.548 -0.3596 -0.0315 -0.3815
   49MOL0     O 6516   5.013   3.684   2.456  1.1259  0.0970  0.0803
   49MOL0     C 6517   5.022   3.593   2.340  0.9113 -0.3294  0.1915
   49MOL0     C 6518   4.884   3.591   2.276 -0.3797 -0.8060 -0.8360
   49MOL0     C 6519   4.838   3.738   2.234 -0.3286  0.3403 -0.5944
   49MOL0     C 6520   4.679   3.758   2.235  0.3260  0.8218 -0.6973
   49MOL0     C 6521   4.641   3.908   2.189 -0.5597 -0.4656  0.4834
   49MOL0     C 6522   4.682   3.936   2.043 -0.1550 -0.8809  0.6512
   49MOL0     C 6523   4.619   4.066   1.991 -0.0237 -0.5713  0.8465
   49MOL0     C 6524   4.669   4.112   1.854  0.7656 -0.0932 -0.0442
   49MOL0    Cl 6525   4.861   4.116   1.863  0.2420 -0.3240 -0.2694
   49MOL0     C 6526   5.085   3.696   2.682 -0.1015 -0.7720  0.1356
   49MOL0     C 6527   5.186   3.695   2.778  0.1391 -1.2876 -0.6542
   49MOL0     O 6528   5.395   3.431   2.847  0.4200  0.8701 -0.2846
   49MOL0     C 6529   5.677   3.423   2.918  1.5871 -0.4924  0.1571
   49MOL0     C 6530   5.786   3.393   3.002  0.4534  0.2873  1.1842
   49MOL0     N 6531   6.319   2.944   3.436  0.1317 -0.2462 -0.0736
   49MOL0     N 6532   6.392   2.840   3.408  0.9192 -0.0742  0.7679
   49MOL0     C 6533   7.549   2.765   2.876 -0.6499  0.4860 -0.1753
   49MOL0     C 6534   7.687   2.785   2.847  0.4093 -0.2532 -0.1663
   49MOL0     C 6535   8.116   2.609   2.676  0.5370  0.8266  0.2769
   49MOL0     C 6536   8.197   2.603   2.561 -0.4887 -0.0426  0.3993
   49MOL0     C 6537   8.334   2.571   2.560 -0.2154 -0.2925  0.2796
   49MOL0     C 6538   8.392   2.534   2.680 -0.3341 -1.0563 -0.0749
   49MOL0     O 6539   8.525   2.509   2.711  0.3975  0.0359  0.7019
   49MOL0     C 6540   8.602   2.438   2.619 -0.2726  0.2840 -0.3415
   49MOL0     C 6541   8.583   2.286   2.650  1.8050 -0.0810 -0.1366
   49MOL0     C 6542   8.460   2.236   2.581 -0.1071  0.6210 -0.0137
   49MOL0     C 6543   8.458   2.249   2.424 -0.3569 -0.1314  0.2943
   49MOL0     C 6544   8.349   2.150   2.376  0.0525 -0.1841  0.2435
   49MOL0     C 6545   8.275   2.060   2.338 -0.9519  0.0551 -0.8841
   49MOL0     C 6546   8.313   2.530   2.796  0.1475  0.0951 -0.2123
   49MOL0     C 6547   8.178   2.569   2.797  0.9990 -0.4169  0.4365
   49MOL0     H 6548   7.750   2.488   2.698  0.6206 -0.7819  1.8570
   49MOL0     H 6549   7.516   2.460   2.744  0.5582  0.3316 -0.9052
   49MOL0     H 6550   7.328   2.455   2.808  3.2728  2.1714  1.0160
   49MOL0     H 6551   7.319   2.492   2.975 -2.1183 -0.3448  0.6769
   49MOL0     H 6552   7.112   2.541   2.759  1.2336 -2.0044 -0.2306
   49MOL0     H 6553   7.094   2.444   2.899  1.5134 -1.3133 -1.4703
   49MOL0     H 6554   7.122   2.646   3.051 -2.8009 -1.0764  1.0756
   49MOL0     H 6555   7.113   2.761   2.918 -2.4051  0.5183 -0.6212
   49MOL0     H 6556   6.883   2.697   2.846  1.3739  1.6034  0.1048
   49MOL0     H 6557   6.887   2.542   2.940  0.2698  0.0915  2.6282
   49MOL0     H 6558   6.920   2.669   3.141 -1.5648  1.4622  2.3600
   49MOL0     H 6559   6.885   2.811   3.043 -0.0458 -0.0283  1.6092
   49MOL0     H 6560   6.654   2.701   2.985 -0.1853  1.9231 -0.3746
   49MOL0     H 6561   6.697   2.585   3.120 -0.9864  0.6368  1.1311
   49MOL0     H 6562   6.738   2.773   3.263  1.6849 -2.2742 -1.0678
   49MOL0     H 6563   6.669   2.885   3.148 -2.5923 -1.5532 -1.3723
   49MOL0     H 6564   6.525   2.662   3.282  1.2902 -1.2365 -0.3640
   49MOL0     H 6565   6.460   2.732   3.126  3.7251 -3.0030 -2.6441
   49MOL0     H 6566   6.415   3.004   3.128  1.3818  4.1701  1.1347
   49MOL0     H 6567   6.333   3.223   3.395 -0.8647 -0.7976 -0.4692
   49MOL0     H 6568   6.292   3.204   3.225  1.5097  0.8533  1.1872
   49MOL0     H 6569   6.102   3.146   3.455 -1.2721 -2.6311 -0.1725
   49MOL0     H 6570   6.071   3.109   3.280 -2.4613  2.5443 -0.5635
   49MOL0     H 6571   6.131   3.397   3.353  0.9351 -1.0429  0.0156
   49MOL0     H 6572   5.985   3.311   3.400  1.5497  2.1558  1.1427
   49MOL0     H 6573   5.965   3.235   3.161  1.5052 -1.9597  0.9080
   49MOL0     H 6574   6.107   3.342   3.131  1.3386  1.2523  2.2530
   49MOL0     H 6575   5.774   3.654   3.210 -0.3298 -0.3788  0.9611
   49MOL0     H 6576   5.435   3.684   3.110  0.1502 -1.2203 -1.5711
   49MOL0     H 6577   5.572   3.779   3.182  1.0703  2.6602 -0.6303
   49MOL0     H 6578   5.527   3.804   3.012 -0.3379  0.1061  0.8513
   49MOL0     H 6579   5.454   3.635   2.591  0.6186  2.6601  2.9147
   49MOL0     H 6580   5.271   3.651   2.404 -0.8007  0.1881  0.4295
   49MOL0     H 6581   5.107   3.620   2.277 -1.5481  4.8687 -1.4460
   49MOL0     H 6582   5.028   3.489   2.375 -0.1261 -0.2195  0.7426
   49MOL0     H 6583   4.877   3.517   2.196  1.5291 -1.4209 -0.4813
   49MOL0     H 6584   4.816   3.555   2.354 -1.4028 -1.6710 -2.0982
   49MOL0     H 6585   4.882   3.757   2.136  0.8791 -1.8845 -0.5452
   49MOL0     H 6586   4.872   3.814   2.305  0.1383  0.2322 -0.6990
   49MOL0     H 6587   4.625   3.690   2.169 -0.1696  0.5630 -0.0400
   49MOL0     H 6588   4.632   3.746   2.333 -2.7336  3.3150 -1.7292
   49MOL0     H 6589   4.676   3.974   2.270 -0.2915 -0.2677  0.2074
   49MOL0     H 6590   4.533   3.916   2.197 -0.8234  1.6751 -3.1297
   49MOL0     H 6591   4.791   3.939   2.035 -0.2967  1.7013 -1.5083
   49MOL0     H 6592   4.654   3.855   1.975  1.7570 -1.4679  0.5050
   49MOL0     H 6593   4.643   4.153   2.053  0.1902  0.8601 -1.1611
   49MOL0     H 6594   4.510   4.067   1.997 -0.0718  3.0572  1.6726
   49MOL0     H 6595   4.636   4.212   1.824 -1.4589 -1.2435 -1.6771
   49MOL0     H 6596   4.651   4.038   1.775  2.3442 -0.8833  0.2946
   49MOL0     H 6597   4.983   3.717   2.713  0.7005  1.0734  1.7180
   49MOL0     H 6598   5.155   3.691   2.882  0.0169 -0.7322 -0.6631
   49MOL0     H 6599   5.651   3.360   2.833 -1.5165 -2.1441  2.1123
   49MOL0     H 6600   5.853   3.318   2.962 -0.5606 -0.4110  0.7654
   49MOL0     H 6601   7.499   2.847   2.926 -0.5258 -0.6412  1.8885
   49MOL0     H 6602   7.730   2.881   2.874  0.3542 -0.3785  0.3910
   49MOL0     H 6603   8.154   2.624   2.463  0.6475  0.0871 -0.0883
   49MOL0     H 6604   8.401   2.562   2.475 -0.7960 -1.3013 -0.0948
   49MOL0     H 6605   8.589   2.463   2.513 -0.5164 -0.2315 -0.4399
   49MOL0     H 6606   8.702   2.462   2.655 -0.6235  1.7053 -0.2592
   49MOL0     H 6607   8.587   2.273   2.759  2.1698 -1.8019 -0.3249
   49MOL0     H 6608   8.674   2.233   2.622  2.1576  0.0272  0.7604
   49MOL0     H 6609   8.368   2.287   2.608 -0.8681  0.5880 -2.2864
   49MOL0     H 6610   8.464   2.130   2.608  1.1872  0.6258 -0.0976
   49MOL0     H 6611   8.557   2.239   2.378  0.8556  2.6137  2.0206
   49MOL0     H 6612   8.424   2.351   2.401 -2.7735 -0.7251  0.9063
   49MOL0     H 6613   8.198   1.996   2.301 -1.2603  0.3424 -0.7498
   49MOL0     H 6614   8.354   2.505   2.893  0.0509 -0.8647 -0.4133
   49MOL0     H 6615   8.121   2.559   2.889 -1.1997  3.9091 -0.1417
   50MOL0     O 6616  10.458   9.536   4.390 -0.2054  0.0839 -0.1624
   50MOL0     C 6617  10.506   9.641   4.413  0.5222  0.0934 -0.0697
   50MOL0     O 6618  10.458   9.769   4.390  0.2314 -0.4356 -1.0109
   50MOL0     C 6619  10.344   9.789   4.310  0.9239 -0.6723  0.5577
   50MOL0     C 6620  10.243   9.873   4.352  0.6937 -0.4396  0.1801
   50MOL0     C 6621  10.114   9.890   4.295  0.0580  0.5197  0.2529
   50MOL0     C 6622  10.087   9.816   4.176 -0.1418 -0.0586  0.8401
   50MOL0     O 6623   9.963   9.824   4.110 -0.1926 -0.1632  0.9661
   50MOL0     C 6624   9.902   9.954   4.114  0.0871 -0.0066 -0.5035
   50MOL0     C 6625   9.792   9.959   4.012  0.3441 -0.2379  0.4925
   50MOL0     C 6626   9.764  10.103   3.967  0.0941  0.0867  0.4187
   50MOL0     C 6627   9.833  10.136   3.828  0.3135 -0.0247 -0.6511
   50MOL0     C 6628   9.791  10.270   3.793 -0.6365 -0.2727  1.1446
   50MOL0     C 6629   9.886  10.380   3.857  0.4949 -0.0928 -1.2949
   50MOL0     C 6630  10.002  10.419   3.764  0.4777  0.3463  0.2024
   50MOL0     C 6631  10.095  10.535   3.810 -0.1152  0.2463  0.3724
   50MOL0     N 6632  10.102  10.560   3.952  0.0155 -0.4792 -0.8861
   50MOL0     C 6633  10.150  10.464   4.042  0.2617 -0.2722 -0.6635
   50MOL0     C 6634  10.104  10.516   4.161 -0.3957 -0.0265  0.1706
   50MOL0     C 6635  10.137  10.466   4.297  0.7877  0.9629 -0.9785
   50MOL0     C 6636  10.022  10.410   4.386  0.2393 -0.1470 -0.1875
   50MOL0     C 6637   9.987  10.277   4.323  0.3138 -0.0569 -0.2893
   50MOL0     C 6638   9.853  10.222   4.382  0.9311 -0.8079 -0.5439
   50MOL0     O 6639   9.755  10.329   4.394  0.0276  0.5533  0.2037
   50MOL0     C 6640   9.677  10.353   4.281 -0.2511 -1.2168  0.0305
   50MOL0     C 6641   9.705  10.461   4.201 -1.0008  0.1000  0.0777
   50MOL0     C 6642   9.621  10.497   4.091 -0.0488 -0.4969  0.1900
   50MOL0     C 6643   9.659  10.634   4.024 -0.1538 -0.7334  0.6379
   50MOL0     C 6644   9.516  10.412   4.047  0.0527 -0.4862 -0.5485
   50MOL0     C 6645   9.436  10.430   3.929 -0.7224  0.3186  0.1163
   50MOL0     O 6646   9.304  10.406   3.936 -0.4490 -0.6807 -0.5540
   50MOL0     C 6647   9.219  10.422   3.826 -0.4035  0.6422  0.5944
   50MOL0     C 6648   9.243  10.380   3.690  0.0562 -0.2512  0.3017
   50MOL0     C 6649   9.137  10.376   3.596 -0.4473 -0.0852  0.6527
   50MOL0     C 6650   9.009  10.422   3.634 -0.9412 -0.6293 -0.1111
   50MOL0     O 6651   8.912  10.423   3.538 -0.1830 -0.8499  0.3954
   50MOL0     C 6652   8.851  10.297   3.514  0.3435 -0.4478  0.4338
   50MOL0     C 6653   8.708  10.329   3.443 -0.6838 -0.3660 -0.6721
   50MOL0     C 6654   8.718  10.403   3.308 -0.8062  0.3651  0.6839
   50MOL0     C 6655   8.578  10.455   3.260  0.1932 -0.1028  0.1776
   50MOL0     C 6656   8.552  10.592   3.321 -0.5947 -0.2615  0.1145
   50MOL0     C 6657   8.453  10.676   3.241  0.3893 -0.6470 -0.1515
   50MOL0     C 6658   8.514  10.735   3.111 -0.1434 -0.2057  0.1061
   50MOL0     C 6659   8.394  10.776   3.030 -0.8149  0.4413 -0.0712
   50MOL0    Cl 6660   8.345  10.943   3.081  0.4030 -0.1980 -0.0518
   50MOL0     C 6661   8.994  10.497   3.752 -0.6794 -0.8035 -1.4449
   50MOL0     C 6662   9.097  10.488   3.849 -0.8234 -0.6446 -1.1015
   50MOL0     O 6663   9.483  10.472   3.829 -0.0009 -0.1017 -0.5764
   50MOL0     C 6664   9.480  10.303   4.132  1.0722  0.0692 -0.6484
   50MOL0     C 6665   9.561  10.282   4.244 -0.3878 -0.4775 -0.1884
   50MOL0     N 6666  10.027  10.627   4.141 -0.4698  0.1240  0.5295
   50MOL0     N 6667  10.049  10.667   4.020 -0.0324  0.4130 -0.2382
   50MOL0     C 6668  10.187   9.722   4.132 -0.4154 -0.2589  0.3198
   50MOL0     C 6669  10.311   9.711   4.205  0.2806  0.0364  0.5046
   50MOL0     C 6670  10.632   9.646   4.482 -1.0874 -0.5672  0.4010
   50MOL0     C 6671  10.694   9.532   4.537 -1.3360  1.0381 -0.3263
   50MOL0     C 6672  10.822   9.531   4.586  0.4362  0.1129 -0.1493
   50MOL0     C 6673  10.901   9.643   4.581  0.0587 -1.0373  0.0078
   50MOL0     O 6674  11.023   9.675   4.641 -0.0317 -0.2731 -0.2123
   50MOL0     C 6675  11.045   9.589   4.748 -0.4307  0.3346 -0.6916
   50MOL0     C 6676  11.185   9.615   4.812 -0.1858  0.5537  0.0795
   50MOL0     C 6677  11.304   9.542   4.744  0.1033  0.2743  0.1532
   50MOL0     C 6678  11.422   9.519   4.827 -0.7392 -0.7578 -0.1447
   50MOL0     C 6679  11.504   9.639   4.836  0.9926 -0.5121 -0.1550
   50MOL0     C 6680  11.561   9.742   4.843  0.4087  1.0307  0.5622
   50MOL0     C 6681  10.843   9.755   4.523 -0.4506  0.2740 -0.2682
   50MOL0     C 6682  10.716   9.765   4.470 -0.0491  1.2137  0.0531
   50MOL0     H 6683  10.258   9.915   4.451 -0.5700 -0.2616  0.3135
   50MOL0     H 6684  10.038   9.945   4.350  1.0114  0.5559  1.5607
   50MOL0     H 6685   9.843   9.959   4.206 -1.7580  0.6706 -1.6869
   50MOL0     H 6686   9.973  10.037   4.105 -1.4246  1.3142 -0.7859
   50MOL0     H 6687   9.814   9.897   3.924 -1.6880  2.9912 -2.5767
   50MOL0     H 6688   9.695   9.932   4.054 -0.3035 -0.2171 -0.9200
   50MOL0     H 6689   9.655  10.114   3.958 -0.2044 -1.4969  1.7154
   50MOL0     H 6690   9.807  10.164   4.047  1.7806  0.7759 -0.9506
   50MOL0     H 6691   9.942  10.135   3.838  0.2036  0.5238  0.8778
   50MOL0     H 6692   9.789  10.074   3.749 -2.1508 -0.5021  0.9569
   50MOL0     H 6693   9.784  10.268   3.684 -0.1094 -3.3419  1.0833
   50MOL0     H 6694   9.695  10.296   3.838  0.8685 -1.3302  5.4419
   50MOL0     H 6695   9.826  10.471   3.872  0.4772 -0.4278  0.9766
   50MOL0     H 6696   9.922  10.349   3.955 -1.0073  0.4486 -0.5491
   50MOL0     H 6697  10.066  10.332   3.748  1.6696  1.1123  0.6829
   50MOL0     H 6698   9.954  10.437   3.667  1.5364 -4.6492 -1.5442
   50MOL0     H 6699  10.063  10.628   3.763 -2.0522 -0.9184 -0.7422
   50MOL0     H 6700  10.197  10.511   3.777  0.4779  3.4962 -0.4796
   50MOL0     H 6701  10.210  10.376   4.021  0.4080 -0.6916  1.3257
   50MOL0     H 6702  10.204  10.380   4.287 -0.6048 -0.3601  0.5430
   50MOL0     H 6703  10.184  10.540   4.362  0.1418  0.4274  0.1185
   50MOL0     H 6704   9.949  10.491   4.386 -0.1036 -0.4548 -0.7859
   50MOL0     H 6705  10.047  10.406   4.493 -1.7195 -0.2143  0.3047
   50MOL0     H 6706  10.062  10.200   4.342  0.8554  0.8959  1.6962
   50MOL0     H 6707   9.982  10.302   4.217  1.4884  0.1209 -0.3084
   50MOL0     H 6708   9.867  10.184   4.484  1.8789 -0.1109 -0.3997
   50MOL0     H 6709   9.823  10.143   4.312 -1.1994  0.4930 -1.1891
   50MOL0     H 6710   9.789  10.522   4.236  2.6612 -4.6770  0.7206
   50MOL0     H 6711   9.604  10.655   3.932  0.6940 -1.0691  0.0439
   50MOL0     H 6712   9.637  10.716   4.094  0.6522 -2.1848  2.6746
   50MOL0     H 6713   9.765  10.634   3.996  0.2242  1.6207  1.7567
   50MOL0     H 6714   9.328  10.313   3.679 -0.3386 -0.8538  0.7922
   50MOL0     H 6715   9.159  10.323   3.504 -0.0916 -2.8194  2.2121
   50MOL0     H 6716   8.904  10.232   3.444 -0.2154  0.6903 -1.0885
   50MOL0     H 6717   8.822  10.248   3.608 -2.6958  2.0782  1.0044
   50MOL0     H 6718   8.655  10.234   3.425 -2.4863  1.0120 -3.4030
   50MOL0     H 6719   8.672  10.389   3.527 -1.3634 -0.6385 -0.7626
   50MOL0     H 6720   8.745  10.330   3.231  1.8948  1.0581  0.8731
   50MOL0     H 6721   8.801  10.474   3.312  0.2612 -0.9074  1.4358
   50MOL0     H 6722   8.585  10.466   3.151 -0.1871 -0.5827  0.0973
   50MOL0     H 6723   8.489  10.392   3.266 -2.3583  3.3090  1.1607
   50MOL0     H 6724   8.652  10.636   3.311 -0.8783  1.4347  3.3460
   50MOL0     H 6725   8.532  10.573   3.427 -0.7297  3.8317  0.9886
   50MOL0     H 6726   8.371  10.613   3.207  0.6775 -0.4463 -1.2567
   50MOL0     H 6727   8.410  10.752   3.308  3.7954  0.6039  0.8182
   50MOL0     H 6728   8.569  10.656   3.060  1.2585  0.0806  1.1318
   50MOL0     H 6729   8.571  10.825   3.134  0.0408 -0.3210  0.0981
   50MOL0     H 6730   8.316  10.699   3.033 -0.2173 -0.1858 -0.4367
   50MOL0     H 6731   8.429  10.782   2.927 -0.4702 -3.7609 -0.3441
   50MOL0     H 6732   8.904  10.550   3.785  0.5353  1.0700 -0.9379
   50MOL0     H 6733   9.081  10.509   3.955 -1.4480 -1.2329 -1.0686
   50MOL0     H 6734   9.390  10.243   4.122 -0.0298  0.9664  2.5869
   50MOL0     H 6735   9.535  10.203   4.313 -1.0048  2.1392  2.7973
   50MOL0     H 6736  10.178   9.659   4.045  1.0489 -0.8247  0.5356
   50MOL0     H 6737  10.382   9.632   4.184  0.2951  0.1743  0.0260
   50MOL0     H 6738  10.628   9.446   4.534  1.1266 -0.9613 -1.6759
   50MOL0     H 6739  10.847   9.435   4.630  1.8938 -1.8160 -4.6129
   50MOL0     H 6740  10.970   9.601   4.827 -3.0089  0.3097 -3.0167
   50MOL0     H 6741  11.045   9.485   4.715  2.1676 -0.1761  0.6164
   50MOL0     H 6742  11.181   9.575   4.914 -0.7522  0.8243  0.1689
   50MOL0     H 6743  11.198   9.722   4.827  0.9608  0.4263  0.0649
   50MOL0     H 6744  11.316   9.616   4.665  1.0585 -1.7936 -1.7755
   50MOL0     H 6745  11.272   9.447   4.699 -3.6495  0.6309  1.7401
   50MOL0     H 6746  11.485   9.447   4.775  0.0204  0.5176 -1.0615
   50MOL0     H 6747  11.398   9.471   4.922 -2.8214  1.1760  0.4070
   50MOL0     H 6748  11.602   9.841   4.845 -0.8771  1.5674  1.6261
   50MOL0     H 6749  10.921   9.830   4.509  2.0370 -1.0347  4.3876
   50MOL0     H 6750  10.693   9.860   4.421 -2.9059  0.9705  0.6983
   51MOL0     O 6751   6.996   3.404   8.273 -0.3309  0.5190 -0.6248
   51MOL0     C 6752   7.025   3.298   8.333 -0.7693 -0.4462  0.9192
   51MOL0     O 6753   6.936   3.233   8.415 -0.2813 -0.0701 -0.2808
   51MOL0     C 6754   6.797   3.245   8.418  0.2108 -0.3585 -0.5904
   51MOL0     C 6755   6.729   3.173   8.519  0.0851 -0.0734  1.2426
   51MOL0     C 6756   6.589   3.176   8.513  0.7197  0.2819  0.2053
   51MOL0     C 6757   6.511   3.252   8.423 -0.3413 -0.5149 -0.0281
   51MOL0     O 6758   6.377   3.261   8.432 -0.4404  0.3115 -0.1121
   51MOL0     C 6759   6.314   3.130   8.468 -0.3714  0.5903 -0.1787
   51MOL0     C 6760   6.169   3.138   8.411  0.3938  0.8862 -0.6560
   51MOL0     C 6761   6.090   3.005   8.433 -0.0800  0.6160  0.9905
   51MOL0     C 6762   5.978   3.015   8.548 -0.2620 -0.1123  0.6704
   51MOL0     C 6763   5.910   2.882   8.545  0.0059  0.3029  0.5206
   51MOL0     C 6764   5.827   2.847   8.671 -0.2552 -0.0872 -0.3552
   51MOL0     C 6765   5.706   2.758   8.621  0.2937  1.8751 -0.5731
   51MOL0     C 6766   5.573   2.822   8.619 -0.1577 -0.4475 -0.2269
   51MOL0     N 6767   5.571   2.951   8.555 -0.0385  0.7140  0.3037
   51MOL0     C 6768   5.586   2.953   8.421 -0.3042 -0.0855  0.4353
   51MOL0     C 6769   5.600   3.085   8.396  0.5234 -0.3667  0.1060
   51MOL0     C 6770   5.635   3.145   8.262  0.3701  0.7567  0.5954
   51MOL0     C 6771   5.649   3.296   8.270 -0.0526  0.9852 -0.0575
   51MOL0     C 6772   5.795   3.341   8.325  0.7387  0.2698 -0.3968
   51MOL0     C 6773   5.909   3.294   8.226  0.5837 -0.2037  0.1436
   51MOL0     O 6774   5.867   3.308   8.088 -0.2571 -0.5072  0.0887
   51MOL0     C 6775   5.969   3.316   7.995  0.3073  0.0048  0.3878
   51MOL0     C 6776   5.930   3.375   7.868 -0.4862  0.2232 -0.9779
   51MOL0     C 6777   6.014   3.379   7.757 -0.0297 -0.5811 -0.1828
   51MOL0     C 6778   5.939   3.422   7.635 -0.4908  0.1051  0.0171
   51MOL0     C 6779   6.148   3.332   7.767  0.4278 -0.2707  0.4403
   51MOL0     C 6780   6.247   3.323   7.646 -0.5771 -0.9382  0.0459
   51MOL0     O 6781   6.384   3.334   7.683  0.1556  0.1034  0.2018
   51MOL0     C 6782   6.477   3.347   7.592 -0.4572  0.3186  0.1270
   51MOL0     C 6783   6.586   3.258   7.607  0.0585 -0.3579  0.3414
   51MOL0     C 6784   6.706   3.294   7.527 -0.0399  0.0581 -1.1105
   51MOL0     C 6785   6.699   3.407   7.440 -0.3552  1.2704 -0.2466
   51MOL0     O 6786   6.802   3.437   7.352  0.2394 -0.5608 -0.6701
   51MOL0     C 6787   6.844   3.319   7.281  0.3205 -1.3088 -0.4222
   51MOL0     C 6788   6.994   3.297   7.305 -0.3276 -0.6418 -0.3933
   51MOL0     C 6789   7.028   3.153   7.247 -0.4018 -1.0358 -0.1535
   51MOL0     C 6790   7.167   3.118   7.296 -0.2369 -0.0821  0.2937
   51MOL0     C 6791   7.269   3.191   7.211  0.3072  1.1314 -1.0352
   51MOL0     C 6792   7.406   3.207   7.277  0.0682 -0.2583 -0.0726
   51MOL0     C 6793   7.459   3.079   7.331  0.2206  0.0089 -0.3263
   51MOL0     C 6794   7.602   3.093   7.373  0.3300 -1.0934  0.0581
   51MOL0    Cl 6795   7.681   2.940   7.409  0.4170 -0.3719 -0.2749
   51MOL0     C 6796   6.586   3.485   7.428  0.4706 -0.1157  0.4074
   51MOL0     C 6797   6.473   3.456   7.504 -0.1271 -0.2201  0.8725
   51MOL0     O 6798   6.197   3.322   7.534 -0.0410 -0.2960 -0.5932
   51MOL0     C 6799   6.191   3.285   7.893 -0.1606 -0.8770  0.3356
   51MOL0     C 6800   6.107   3.279   8.006  0.5646 -0.1068  0.8757
   51MOL0     N 6801   5.603   3.157   8.517  0.1808 -0.0794 -0.1852
   51MOL0     N 6802   5.575   3.074   8.609 -1.2964 -0.2150 -0.0406
   51MOL0     C 6803   6.576   3.329   8.328 -0.2668 -0.4700 -0.0901
   51MOL0     C 6804   6.715   3.310   8.321  0.0920  0.8162  0.4502
   51MOL0     C 6805   7.163   3.256   8.319 -0.8916  0.1509 -0.5040
   51MOL0     C 6806   7.205   3.144   8.396 -0.1125 -0.2649  0.5579
   51MOL0     C 6807   7.336   3.099   8.387 -0.6602  0.4987  0.3601
   51MOL0     C 6808   7.430   3.150   8.296  0.2434  0.0415 -0.1703
   51MOL0     O 6809   7.564   3.106   8.313  0.8412  0.1709  0.7677
   51MOL0     C 6810   7.652   3.140   8.208 -0.5172 -0.0406 -0.1303
   51MOL0     C 6811   7.756   3.034   8.205  0.3525  0.6599  0.6960
   51MOL0     C 6812   7.824   2.995   8.345 -0.9144  1.2994  1.2072
   51MOL0     C 6813   7.940   2.894   8.320 -0.3416 -0.5531 -0.0641
   51MOL0     C 6814   7.959   2.813   8.447  0.3343 -0.2951  0.0541
   51MOL0     C 6815   7.984   2.755   8.552 -0.4875  0.5526 -0.1621
   51MOL0     C 6816   7.382   3.248   8.205 -0.0457  0.4825 -0.6865
   51MOL0     C 6817   7.256   3.300   8.228 -0.1922  0.6648 -0.1527
   51MOL0     H 6818   6.786   3.136   8.604 -0.4009  2.1849  2.6306
   51MOL0     H 6819   6.533   3.141   8.599 -2.8151 -0.3671 -2.1204
   51MOL0     H 6820   6.371   3.045   8.429 -0.5693  0.6190 -0.5406
   51MOL0     H 6821   6.299   3.105   8.573 -2.8487  1.1893 -0.3285
   51MOL0     H 6822   6.120   3.228   8.451 -1.4180 -0.4302  0.2145
   51MOL0     H 6823   6.178   3.158   8.304 -1.8413  1.1147 -0.8560
   51MOL0     H 6824   6.042   2.975   8.339  3.3618 -0.7881 -0.4801
   51MOL0     H 6825   6.161   2.926   8.459  0.5098  1.1360  1.0015
   51MOL0     H 6826   6.020   3.033   8.648 -1.5671  1.5015  0.9666
   51MOL0     H 6827   5.903   3.092   8.534 -1.9583 -1.8637 -0.3393
   51MOL0     H 6828   5.850   2.873   8.454 -0.2602  0.1918  0.7087
   51MOL0     H 6829   5.977   2.799   8.521 -1.7581 -1.8345  2.5862
   51MOL0     H 6830   5.894   2.799   8.744 -0.7948 -2.4897 -1.3396
   51MOL0     H 6831   5.782   2.930   8.727 -0.4907 -0.1139 -0.5069
   51MOL0     H 6832   5.725   2.709   8.524 -0.4913 -1.4684  0.8005
   51MOL0     H 6833   5.702   2.670   8.686  0.8960  0.5667 -2.2140
   51MOL0     H 6834   5.530   2.841   8.718 -2.3603 -3.2312 -0.5291
   51MOL0     H 6835   5.505   2.756   8.565 -1.0181  0.4462 -0.2733
   51MOL0     H 6836   5.596   2.867   8.355 -0.7164 -3.3073  4.1573
   51MOL0     H 6837   5.728   3.098   8.228  1.3778  0.5329  3.3912
   51MOL0     H 6838   5.553   3.120   8.195 -2.4516  0.6235  3.8730
   51MOL0     H 6839   5.572   3.337   8.335  0.8533 -1.6052  2.9058
   51MOL0     H 6840   5.635   3.343   8.172  1.5360 -0.6251 -1.1411
   51MOL0     H 6841   5.824   3.313   8.427  1.5508  2.6403  0.0740
   51MOL0     H 6842   5.802   3.450   8.323 -0.6563  0.3660 -1.7773
   51MOL0     H 6843   5.928   3.189   8.251  0.2497 -1.2309 -3.3146
   51MOL0     H 6844   6.000   3.346   8.256 -0.0673 -1.0314  3.9660
   51MOL0     H 6845   5.827   3.410   7.862 -0.2720  0.8687 -0.9312
   51MOL0     H 6846   5.888   3.342   7.581 -3.7539  2.2362 -0.3135
   51MOL0     H 6847   5.869   3.504   7.655 -0.4240  0.4711 -1.1696
   51MOL0     H 6848   6.019   3.469   7.577  1.2450  0.2162  2.3248
   51MOL0     H 6849   6.591   3.176   7.678  1.7422  1.8173  2.9247
   51MOL0     H 6850   6.789   3.225   7.521 -0.9837 -1.0296 -2.1978
   51MOL0     H 6851   6.769   3.243   7.302  0.1871 -0.7743  1.1466
   51MOL0     H 6852   6.833   3.334   7.173 -1.4964  0.5572 -0.0427
   51MOL0     H 6853   7.048   3.377   7.255 -0.8648 -1.8586 -3.0694
   51MOL0     H 6854   7.020   3.295   7.412 -0.5501  0.6986 -0.2987
   51MOL0     H 6855   7.019   3.141   7.139  1.5517 -2.4343 -0.2226
   51MOL0     H 6856   6.958   3.074   7.277 -0.4950 -0.8962  0.0020
   51MOL0     H 6857   7.182   3.147   7.400  0.5747 -1.1349  0.4898
   51MOL0     H 6858   7.183   3.009   7.295 -3.2578 -0.6302  0.3645
   51MOL0     H 6859   7.232   3.284   7.168 -1.2164  0.1808 -1.8938
   51MOL0     H 6860   7.282   3.143   7.114  0.2044  1.8208 -1.3933
   51MOL0     H 6861   7.482   3.237   7.205  2.6197 -2.4820  1.5384
   51MOL0     H 6862   7.385   3.284   7.352 -4.1093  1.3808 -2.5566
   51MOL0     H 6863   7.445   2.999   7.257 -0.0303 -0.6827  0.4563
   51MOL0     H 6864   7.410   3.035   7.418  2.7008 -2.9922 -0.2742
   51MOL0     H 6865   7.614   3.173   7.447  0.5938 -0.0999 -1.0124
   51MOL0     H 6866   7.669   3.143   7.301  0.6578  0.0702  1.1355
   51MOL0     H 6867   6.588   3.567   7.357 -1.5850  1.0121  1.5518
   51MOL0     H 6868   6.383   3.511   7.481  0.6454  0.1188 -1.7901
   51MOL0     H 6869   6.296   3.256   7.895 -0.0065 -0.4131 -0.3986
   51MOL0     H 6870   6.131   3.240   8.104 -1.6520 -4.8020 -0.1521
   51MOL0     H 6871   6.514   3.396   8.269  0.2245 -0.8506 -1.0577
   51MOL0     H 6872   6.764   3.352   8.234 -1.7190  2.0175 -0.0584
   51MOL0     H 6873   7.141   3.093   8.468  0.9710 -0.8024  1.1541
   51MOL0     H 6874   7.371   3.017   8.449  1.5526  0.0367 -1.3595
   51MOL0     H 6875   7.594   3.144   8.116 -1.0629 -2.2200  0.0609
   51MOL0     H 6876   7.701   3.236   8.224  1.0518 -0.9217  0.6411
   51MOL0     H 6877   7.836   3.056   8.133 -0.3683 -0.3943 -0.4753
   51MOL0     H 6878   7.707   2.945   8.165  3.1447 -0.6483 -0.0835
   51MOL0     H 6879   7.736   2.946   8.390 -2.7184  2.5920 -0.6993
   51MOL0     H 6880   7.854   3.088   8.393 -0.8921  0.9574  1.8610
   51MOL0     H 6881   8.034   2.943   8.292 -0.8656 -0.9026 -2.7590
   51MOL0     H 6882   7.926   2.818   8.242  2.7225 -1.4677  0.1251
   51MOL0     H 6883   8.020   2.695   8.634 -1.4251 -0.5815 -0.5586
   51MOL0     H 6884   7.451   3.290   8.132  2.2659 -1.9448 -0.0546
   51MOL0     H 6885   7.232   3.390   8.171  2.2321  1.0921 -0.6137
   52MOL0     O 6886   9.127   3.260   6.942 -0.5409 -1.4369 -0.1678
   52MOL0     C 6887   9.085   3.217   6.832  0.2924  0.5960  0.8020
   52MOL0     O 6888   8.959   3.196   6.797 -0.8642 -0.1235  0.3039
   52MOL0     C 6889   8.853   3.262   6.855 -1.3236 -0.1905 -1.0152
   52MOL0     C 6890   8.850   3.403   6.872 -0.0745  0.2356 -0.6933
   52MOL0     C 6891   8.749   3.466   6.935 -0.0787 -1.0447  0.5070
   52MOL0     C 6892   8.654   3.392   7.006  0.0530 -0.6438 -0.1075
   52MOL0     O 6893   8.549   3.456   7.084  0.0478  0.5615 -0.0835
   52MOL0     C 6894   8.556   3.600   7.109 -0.6345 -0.8534  0.4604
   52MOL0     C 6895   8.433   3.650   7.168 -0.0634 -1.9220  0.3967
   52MOL0     C 6896   8.411   3.556   7.294 -0.5606 -0.0838  0.6487
   52MOL0     C 6897   8.348   3.632   7.413  0.9907  0.5388 -0.4128
   52MOL0     C 6898   8.211   3.684   7.377  0.4592 -0.0697  1.0512
   52MOL0     C 6899   8.106   3.683   7.492  0.2574 -0.3013  0.0978
   52MOL0     C 6900   8.135   3.800   7.590  0.2919 -0.2861 -0.0076
   52MOL0     C 6901   8.082   3.766   7.728 -0.0063  0.2073  0.0022
   52MOL0     N 6902   8.176   3.676   7.791  0.4466 -0.7783 -0.0486
   52MOL0     C 6903   8.308   3.703   7.817 -0.5647  0.5895  0.0694
   52MOL0     C 6904   8.363   3.588   7.862  0.1784  0.9830  0.5626
   52MOL0     C 6905   8.501   3.570   7.913 -0.7804 -0.4191 -0.2880
   52MOL0     C 6906   8.603   3.549   7.803 -0.6816 -0.5751 -0.0807
   52MOL0     C 6907   8.587   3.403   7.767  0.1239  0.6635  1.2711
   52MOL0     C 6908   8.685   3.355   7.652 -0.8414 -0.0685 -0.6324
   52MOL0     O 6909   8.803   3.318   7.728 -0.0470  0.3406 -0.3419
   52MOL0     C 6910   8.916   3.290   7.661 -1.2085  0.1149 -0.2653
   52MOL0     C 6911   8.912   3.198   7.554 -0.1616  0.4567  0.1927
   52MOL0     C 6912   9.026   3.162   7.486 -0.5960 -0.0432  1.0766
   52MOL0     C 6913   8.999   3.079   7.358 -0.9838 -0.0448 -0.2255
   52MOL0     C 6914   9.149   3.220   7.523 -0.0206 -0.1893 -0.3689
   52MOL0     C 6915   9.280   3.200   7.443 -0.2586 -0.4638  0.5067
   52MOL0     O 6916   9.392   3.275   7.475  0.2775  0.0728  0.3128
   52MOL0     C 6917   9.498   3.295   7.394 -0.2112 -0.1344  0.3105
   52MOL0     C 6918   9.625   3.322   7.451  0.1493 -1.0815 -0.3149
   52MOL0     C 6919   9.735   3.339   7.366 -0.5677  0.2162  0.1156
   52MOL0     C 6920   9.725   3.319   7.221 -0.2536  0.1390  0.5518
   52MOL0     O 6921   9.830   3.333   7.141  0.5203  0.1813 -0.0615
   52MOL0     C 6922   9.938   3.423   7.169 -0.9227 -0.6597 -0.3921
   52MOL0     C 6923  10.028   3.451   7.049  0.2293 -0.9078 -1.2702
   52MOL0     C 6924   9.970   3.556   6.952 -0.7510 -0.4503  0.3704
   52MOL0     C 6925  10.075   3.584   6.853 -1.4076 -0.2845 -0.2387
   52MOL0     C 6926  10.056   3.721   6.790  0.6779 -0.1934  0.1090
   52MOL0     C 6927  10.164   3.763   6.692  0.8706 -0.1865 -0.1319
   52MOL0     C 6928  10.148   3.695   6.553  0.6587  0.5539  0.7470
   52MOL0     C 6929  10.276   3.714   6.474 -0.3680  0.0862 -0.0329
   52MOL0    Cl 6930  10.293   3.874   6.396 -0.1475 -0.1914  0.0666
   52MOL0     C 6931   9.604   3.277   7.177  0.2989  0.5263  0.3011
   52MOL0     C 6932   9.492   3.270   7.255  1.0870  0.2280  0.6099
   52MOL0     O 6933   9.280   3.098   7.377 -0.3582  0.1368 -0.0043
   52MOL0     C 6934   9.147   3.326   7.623 -0.9187  0.6909 -0.4503
   52MOL0     C 6935   9.034   3.358   7.690  0.0511 -0.1350 -0.5739
   52MOL0     N 6936   8.265   3.493   7.866  0.1864 -0.7804  0.9637
   52MOL0     N 6937   8.156   3.544   7.818 -0.2177 -0.6766  0.9393
   52MOL0     C 6938   8.648   3.253   6.988 -0.5010  0.1759 -0.1747
   52MOL0     C 6939   8.749   3.186   6.910  0.0754 -0.3901 -0.4793
   52MOL0     C 6940   9.188   3.169   6.744 -0.2676  0.5215 -0.3805
   52MOL0     C 6941   9.159   3.136   6.613 -1.4912  0.2122  0.0675
   52MOL0     C 6942   9.258   3.100   6.524 -0.9155  0.4107  0.6292
   52MOL0     C 6943   9.397   3.079   6.560  0.2934  0.1894 -0.2144
   52MOL0     O 6944   9.491   3.013   6.469  0.1425 -0.8235 -0.0198
   52MOL0     C 6945   9.470   2.996   6.335  0.1868  0.3355  0.0394
   52MOL0     C 6946   9.611   2.970   6.276  0.1215 -0.3987  0.3254
   52MOL0     C 6947   9.668   2.847   6.345  0.7693 -0.6015  0.4721
   52MOL0     C 6948   9.790   2.802   6.265 -0.6143 -0.5310  0.8585
   52MOL0     C 6949   9.770   2.750   6.128  0.3489  0.8909  0.8228
   52MOL0     C 6950   9.767   2.695   6.016 -0.8816 -0.4145  0.9975
   52MOL0     C 6951   9.428   3.092   6.698  0.2426 -0.2218 -0.0821
   52MOL0     C 6952   9.330   3.144   6.789 -0.4860  0.5511 -0.0471
   52MOL0     H 6953   8.921   3.458   6.811  1.7872 -0.6547  0.5638
   52MOL0     H 6954   8.751   3.573   6.953  0.3722 -1.4019  2.8365
   52MOL0     H 6955   8.640   3.615   7.178  1.1275  1.9763 -2.0492
   52MOL0     H 6956   8.574   3.661   7.020 -0.5807  2.2327  2.4050
   52MOL0     H 6957   8.446   3.753   7.203 -1.2591 -1.3285 -0.8177
   52MOL0     H 6958   8.348   3.659   7.099 -0.7024  0.2629  1.3850
   52MOL0     H 6959   8.346   3.469   7.278 -0.9749  0.5406 -1.3903
   52MOL0     H 6960   8.505   3.515   7.332 -0.1562 -2.7087 -2.7258
   52MOL0     H 6961   8.330   3.563   7.496 -1.4532  2.2299  0.5810
   52MOL0     H 6962   8.416   3.709   7.451  3.0774 -1.7911  0.8608
   52MOL0     H 6963   8.231   3.784   7.337 -1.2810  0.6085  1.7743
   52MOL0     H 6964   8.168   3.618   7.301 -0.1275 -2.5825  3.4076
   52MOL0     H 6965   8.010   3.715   7.451  1.0692  3.3298  0.6204
   52MOL0     H 6966   8.095   3.584   7.536 -1.2087 -1.4297 -2.6036
   52MOL0     H 6967   8.242   3.824   7.596  0.9237 -0.7596 -4.9329
   52MOL0     H 6968   8.105   3.896   7.548  0.6947  0.6912  1.8188
   52MOL0     H 6969   7.981   3.729   7.709  0.9872 -0.7449 -4.6779
   52MOL0     H 6970   8.079   3.859   7.786  2.1538  1.5597 -1.8766
   52MOL0     H 6971   8.361   3.797   7.801 -0.6944  0.7574  0.5940
   52MOL0     H 6972   8.519   3.665   7.964 -0.0888  0.8111 -2.6763
   52MOL0     H 6973   8.510   3.493   7.990  1.8972 -0.4681 -0.5724
   52MOL0     H 6974   8.704   3.564   7.843  0.3796 -0.8562 -2.4816
   52MOL0     H 6975   8.590   3.616   7.718  0.2115 -0.8180 -0.4188
   52MOL0     H 6976   8.488   3.392   7.723  0.8948 -1.6077 -0.0499
   52MOL0     H 6977   8.591   3.336   7.854 -0.4183  2.6350  2.8764
   52MOL0     H 6978   8.715   3.440   7.590 -1.6036 -0.2073 -1.1995
   52MOL0     H 6979   8.630   3.279   7.596 -1.3538  0.6364 -1.0876
   52MOL0     H 6980   8.819   3.146   7.535  1.0161 -1.0759 -1.7426
   52MOL0     H 6981   9.073   3.002   7.335  1.2502  1.9092  0.0681
   52MOL0     H 6982   8.906   3.021   7.366  1.7058 -4.8763 -0.3911
   52MOL0     H 6983   8.992   3.143   7.269  0.6313 -0.0044 -0.3510
   52MOL0     H 6984   9.637   3.335   7.558  1.5832  0.2670 -0.6017
   52MOL0     H 6985   9.831   3.369   7.407 -0.5107  1.1402 -0.6480
   52MOL0     H 6986   9.909   3.519   7.212 -0.8832 -0.4140 -0.9150
   52MOL0     H 6987   9.994   3.369   7.247 -2.7304 -4.0832 -1.2473
   52MOL0     H 6988  10.123   3.478   7.095 -1.0939  0.8693  0.6080
   52MOL0     H 6989  10.052   3.362   6.990  0.3835  0.9033 -4.1012
   52MOL0     H 6990   9.934   3.644   7.006 -0.9453 -0.7815  0.7934
   52MOL0     H 6991   9.880   3.514   6.907 -1.1720  0.5570  0.2540
   52MOL0     H 6992  10.176   3.583   6.896 -1.0416  2.9458 -0.7629
   52MOL0     H 6993  10.064   3.502   6.782 -1.6565 -0.7537  0.3378
   52MOL0     H 6994  10.050   3.799   6.866  2.0852 -0.3881  0.4514
   52MOL0     H 6995   9.958   3.726   6.742  1.6449  2.5896 -1.8397
   52MOL0     H 6996  10.167   3.873   6.685 -2.5258  0.0662  0.5543
   52MOL0     H 6997  10.258   3.728   6.735 -0.5946 -3.6872  0.5004
   52MOL0     H 6998  10.067   3.743   6.499  0.8249 -1.2408 -1.2129
   52MOL0     H 6999  10.132   3.588   6.565 -0.6475  0.4937 -1.1366
   52MOL0     H 7000  10.269   3.640   6.394 -0.4587  0.8809 -0.7746
   52MOL0     H 7001  10.373   3.682   6.514  1.0676 -1.0543 -3.9667
   52MOL0     H 7002   9.584   3.261   7.072 -1.4605 -1.9267  0.9351
   52MOL0     H 7003   9.407   3.251   7.191 -0.3378 -0.0060  2.5006
   52MOL0     H 7004   9.244   3.359   7.657 -0.4626 -2.5033  1.8666
   52MOL0     H 7005   9.038   3.432   7.770  2.0443  3.4093 -3.6030
   52MOL0     H 7006   8.576   3.190   7.039  3.0284 -2.7476  1.6910
   52MOL0     H 7007   8.755   3.079   6.898 -2.3167 -0.4677 -1.6026
   52MOL0     H 7008   9.063   3.154   6.567 -1.0669  0.2943 -0.8065
   52MOL0     H 7009   9.222   3.067   6.427 -1.1140  1.2624  0.4031
   52MOL0     H 7010   9.410   2.908   6.312  1.0800 -0.4840  0.7821
   52MOL0     H 7011   9.411   3.078   6.292 -2.8753 -1.6588  0.1623
   52MOL0     H 7012   9.674   3.056   6.296 -1.5432  0.9599 -0.0629
   52MOL0     H 7013   9.613   2.959   6.167  0.4032  0.3958  0.2473
   52MOL0     H 7014   9.597   2.765   6.335  0.7075 -1.0214  3.5039
   52MOL0     H 7015   9.687   2.858   6.452  0.5199  2.5102  0.2959
   52MOL0     H 7016   9.852   2.729   6.317  1.1209  1.6501  2.0078
   52MOL0     H 7017   9.861   2.884   6.250  0.7147 -1.5943  1.1410
   52MOL0     H 7018   9.763   2.660   5.914 -1.7479  2.8713 -0.2423
   52MOL0     H 7019   9.525   3.055   6.729  0.6984  1.1741  0.2217
   52MOL0     H 7020   9.365   3.153   6.891 -2.3851 -0.7426  0.7657
   53MOL0     O 7021   3.081  11.162   2.999  0.0071  0.9147  0.0551
   53MOL0     C 7022   3.162  11.116   3.078 -0.5928 -0.1602  1.0369
   53MOL0     O 7023   3.176  11.146   3.205 -0.1960  0.5514 -0.0124
   53MOL0     C 7024   3.100  11.237   3.268  0.1222 -0.2474 -0.8182
   53MOL0     C 7025   2.963  11.254   3.265 -0.3263 -0.1244 -0.2371
   53MOL0     C 7026   2.895  11.350   3.344 -0.2817 -0.4889  0.7419
   53MOL0     C 7027   2.962  11.438   3.429  0.3679  0.2769  0.2448
   53MOL0     O 7028   2.909  11.536   3.499 -0.3845  0.0224 -0.2405
   53MOL0     C 7029   2.791  11.606   3.445  0.6510 -0.7578  0.7556
   53MOL0     C 7030   2.672  11.579   3.539 -0.1915 -0.5350 -0.0146
   53MOL0     C 7031   2.684  11.619   3.687 -0.0505 -1.4050  0.1447
   53MOL0     C 7032   2.674  11.777   3.703 -0.4693  0.5353 -0.1809
   53MOL0     C 7033   2.705  11.813   3.845  0.0725 -0.9584 -1.2221
   53MOL0     C 7034   2.723  11.965   3.862  0.2441  0.1933 -0.5188
   53MOL0     C 7035   2.789  11.998   4.000  0.1543  0.2412  0.9752
   53MOL0     C 7036   2.696  11.979   4.115 -0.4578  1.2810 -0.4120
   53MOL0     N 7037   2.743  11.998   4.258 -0.1640 -0.0836  0.4386
   53MOL0     C 7038   2.822  11.910   4.324  0.8622 -0.5195  0.3956
   53MOL0     C 7039   2.822  11.942   4.455 -0.0343 -0.3900  0.2444
   53MOL0     C 7040   2.911  11.883   4.560 -0.1422  0.6052  0.2150
   53MOL0     C 7041   2.958  11.986   4.665 -0.1357 -0.1546  0.1729
   53MOL0     C 7042   2.999  11.931   4.804 -0.1950 -0.1171  0.9623
   53MOL0     C 7043   2.875  11.908   4.895 -0.0028 -0.0790  0.5968
   53MOL0     O 7044   2.927  11.879   5.026  0.1285 -0.0109 -0.1232
   53MOL0     C 7045   2.857  11.865   5.138 -0.1434  0.8891  0.3353
   53MOL0     C 7046   2.929  11.859   5.260  0.0895 -0.3145 -0.2811
   53MOL0     C 7047   2.866  11.838   5.380  0.0612  0.4608 -0.8536
   53MOL0     C 7048   2.954  11.834   5.513 -1.2345 -0.5911 -0.4472
   53MOL0     C 7049   2.727  11.822   5.392  0.0563  0.9042 -0.7119
   53MOL0     C 7050   2.644  11.770   5.513  0.4221  0.1104 -0.5581
   53MOL0     O 7051   2.685  11.795   5.641 -0.4539  0.0096 -0.1338
   53MOL0     C 7052   2.592  11.781   5.743 -1.0669 -0.4643 -0.2251
   53MOL0     C 7053   2.544  11.901   5.801 -0.8979 -0.1382 -0.7163
   53MOL0     C 7054   2.452  11.893   5.906  0.5557  0.8423  0.1377
   53MOL0     C 7055   2.396  11.764   5.937  0.3123  0.6284 -0.2876
   53MOL0     O 7056   2.286  11.751   6.023 -0.0348 -0.1906 -0.2202
   53MOL0     C 7057   2.251  11.869   6.095 -0.5854  0.6115 -0.1211
   53MOL0     C 7058   2.141  11.837   6.193  0.5302  0.7297  1.0817
   53MOL0     C 7059   2.014  11.804   6.116 -0.0349  0.5693  0.2876
   53MOL0     C 7060   1.877  11.834   6.189  0.3063  0.1851 -0.1658
   53MOL0     C 7061   1.887  11.782   6.334  0.8791 -0.0413  0.6588
   53MOL0     C 7062   1.770  11.846   6.420 -0.2425  0.5498 -0.3470
   53MOL0     C 7063   1.639  11.837   6.342  0.1665 -0.0604 -0.8503
   53MOL0     C 7064   1.584  11.692   6.333 -0.1377 -0.6026 -0.6285
   53MOL0    Cl 7065   1.415  11.692   6.280 -0.8499 -0.3061 -0.3885
   53MOL0     C 7066   2.442  11.646   5.879  0.4385  0.3482 -0.6850
   53MOL0     C 7067   2.547  11.658   5.790  0.3169  0.2205 -0.5921
   53MOL0     O 7068   2.534  11.718   5.485 -0.4355  0.1431  0.3462
   53MOL0     C 7069   2.660  11.822   5.266  0.5108 -0.6268  0.0015
   53MOL0     C 7070   2.725  11.838   5.145 -0.4353  0.0993  0.7395
   53MOL0     N 7071   2.756  12.070   4.462 -0.7506  0.1896  0.4815
   53MOL0     N 7072   2.696  12.093   4.353  0.0116 -0.3370 -0.0665
   53MOL0     C 7073   3.098  11.422   3.437  0.1499  1.1501  0.6553
   53MOL0     C 7074   3.164  11.325   3.359 -0.5847  0.8845 -0.0872
   53MOL0     C 7075   3.245  11.003   3.022  0.5451 -0.5235  0.2803
   53MOL0     C 7076   3.195  10.918   2.919  0.5535  0.2726  0.3458
   53MOL0     C 7077   3.264  10.825   2.857 -0.6628 -0.1341  0.9975
   53MOL0     C 7078   3.400  10.814   2.895 -0.2120 -0.1761 -0.3336
   53MOL0     O 7079   3.493  10.730   2.838 -0.9130  0.1810 -0.0969
   53MOL0     C 7080   3.444  10.602   2.790  0.0850  1.0925 -0.6019
   53MOL0     C 7081   3.540  10.493   2.769  0.0812  0.0002  0.4815
   53MOL0     C 7082   3.660  10.531   2.678 -0.5996 -0.0134  1.1035
   53MOL0     C 7083   3.728  10.394   2.646  0.6139  0.5222  0.4567
   53MOL0     C 7084   3.803  10.396   2.517 -0.3051 -0.8009  0.0462
   53MOL0     C 7085   3.848  10.399   2.405  0.3593 -0.3409  0.3007
   53MOL0     C 7086   3.456  10.903   2.999  0.3447  0.1086 -0.1177
   53MOL0     C 7087   3.375  10.994   3.062  0.1702  0.5049 -0.4910
   53MOL0     H 7088   2.904  11.192   3.198 -0.4855 -1.6697  1.2666
   53MOL0     H 7089   2.787  11.346   3.347 -0.2503 -2.4216  0.3145
   53MOL0     H 7090   2.817  11.712   3.457  2.3131 -1.3261  3.1405
   53MOL0     H 7091   2.769  11.588   3.340  1.0429  2.8584 -0.0838
   53MOL0     H 7092   2.592  11.645   3.503  2.6530  2.9139 -0.5570
   53MOL0     H 7093   2.644  11.474   3.524 -0.9522 -0.1777 -1.2477
   53MOL0     H 7094   2.609  11.568   3.748 -2.3864  0.8691 -0.6511
   53MOL0     H 7095   2.784  11.591   3.721  0.7353 -1.1661 -1.8100
   53MOL0     H 7096   2.744  11.827   3.636  2.0557 -0.5443  1.4955
   53MOL0     H 7097   2.575  11.810   3.669 -0.2926  1.8614  0.5154
   53MOL0     H 7098   2.619  11.784   3.907  0.0844 -1.3439 -1.3820
   53MOL0     H 7099   2.787  11.754   3.887  0.2139 -0.0583 -0.2092
   53MOL0     H 7100   2.788  12.003   3.782 -0.0196  2.1999  0.1636
   53MOL0     H 7101   2.628  12.019   3.861  0.8847  1.4748  1.6474
   53MOL0     H 7102   2.875  11.931   4.006 -0.6274 -0.9595 -0.4190
   53MOL0     H 7103   2.818  12.102   3.988 -2.3374  0.6748 -5.2229
   53MOL0     H 7104   2.655  11.878   4.112  2.6251 -0.0782 -0.7090
   53MOL0     H 7105   2.610  12.042   4.092  0.0194  1.4455 -1.8445
   53MOL0     H 7106   2.856  11.828   4.263  1.5749  1.3229 -1.8053
   53MOL0     H 7107   2.863  11.793   4.601  0.8271 -0.4705 -0.9127
   53MOL0     H 7108   3.002  11.854   4.507 -1.2646  0.5589 -1.7910
   53MOL0     H 7109   2.878  12.058   4.682 -0.0150 -0.1388  0.6969
   53MOL0     H 7110   3.049  12.031   4.627 -1.8735  0.2747 -4.0324
   53MOL0     H 7111   3.069  11.994   4.860 -0.3673  2.1752 -1.2298
   53MOL0     H 7112   3.049  11.835   4.788 -0.5785 -0.4006  1.4349
   53MOL0     H 7113   2.811  11.827   4.858  0.9838 -0.1593 -1.0056
   53MOL0     H 7114   2.808  11.995   4.897  0.9628  0.7744 -1.4754
   53MOL0     H 7115   3.037  11.865   5.259  0.0663  0.0898 -1.3226
   53MOL0     H 7116   2.915  11.909   5.584  0.8057 -3.0335  3.6355
   53MOL0     H 7117   2.958  11.733   5.555 -0.9149 -0.8358 -1.0612
   53MOL0     H 7118   3.055  11.868   5.490 -1.2453  1.1799  1.7565
   53MOL0     H 7119   2.580  11.997   5.763 -0.7985 -0.6718 -2.0230
   53MOL0     H 7120   2.413  11.983   5.953  2.6838  0.2988  3.2320
   53MOL0     H 7121   2.339  11.910   6.145 -0.1109 -0.9980  0.4180
   53MOL0     H 7122   2.205  11.944   6.029  0.7947  2.4324  0.9044
   53MOL0     H 7123   2.185  11.764   6.261  1.1756  1.3891  1.3859
   53MOL0     H 7124   2.128  11.933   6.243  1.7041  2.1956 -1.2245
   53MOL0     H 7125   2.018  11.696   6.101  1.8424  0.8067 -1.4169
   53MOL0     H 7126   2.023  11.868   6.028 -0.4999 -1.1043 -1.0167
   53MOL0     H 7127   1.869  11.943   6.194  1.8748  0.4775 -2.6090
   53MOL0     H 7128   1.794  11.799   6.126  2.8279 -0.5017 -3.3370
   53MOL0     H 7129   1.985  11.802   6.378 -0.0367  1.4706  2.1205
   53MOL0     H 7130   1.871  11.674   6.342  3.3300 -0.4333  1.1474
   53MOL0     H 7131   1.769  11.797   6.518  0.8191 -0.5542 -0.8599
   53MOL0     H 7132   1.786  11.951   6.446 -2.5446  1.2071 -1.2973
   53MOL0     H 7133   1.644  11.891   6.247  0.1273 -1.7525 -1.8588
   53MOL0     H 7134   1.563  11.891   6.400  1.5085  0.7164  0.2692
   53MOL0     H 7135   1.577  11.635   6.426 -1.9266 -0.5778 -0.7022
   53MOL0     H 7136   1.643  11.642   6.256 -1.7803 -2.0045 -1.0374
   53MOL0     H 7137   2.389  11.552   5.894 -0.5356  1.1062  1.0287
   53MOL0     H 7138   2.564  11.558   5.752 -1.9827 -0.8319  0.9306
   53MOL0     H 7139   2.552  11.810   5.261  0.1247  1.8615  0.9236
   53MOL0     H 7140   2.669  11.845   5.052  2.6454 -0.8621 -1.3546
   53MOL0     H 7141   3.147  11.499   3.497  0.4855  1.1262  0.4172
   53MOL0     H 7142   3.272  11.328   3.352 -0.6713  1.0343 -2.1211
   53MOL0     H 7143   3.092  10.937   2.891  0.1221  0.2277  1.7981
   53MOL0     H 7144   3.208  10.777   2.777  1.6821  1.8690 -2.0249
   53MOL0     H 7145   3.373  10.567   2.866  0.0662  2.6377  0.1387
   53MOL0     H 7146   3.395  10.621   2.694  0.4379  0.1539 -0.9755
   53MOL0     H 7147   3.481  10.412   2.724 -0.8921  1.0671 -0.2379
   53MOL0     H 7148   3.585  10.469   2.865 -0.1441 -0.5629  0.4496
   53MOL0     H 7149   3.729  10.589   2.739  0.5927 -0.5324  0.2788
   53MOL0     H 7150   3.634  10.577   2.581  3.9518  0.9565  0.1275
   53MOL0     H 7151   3.654  10.316   2.629  0.5540  0.8381 -0.8499
   53MOL0     H 7152   3.797  10.366   2.727  0.6234  2.0414  0.9931
   53MOL0     H 7153   3.883  10.406   2.304 -1.1937 -2.0159 -0.4017
   53MOL0     H 7154   3.559  10.891   3.030  0.8472 -1.0059 -2.0127
   53MOL0     H 7155   3.403  11.054   3.148 -1.1911  1.5791 -0.7637
   54MOL0     O 7156   9.380   4.030   5.466  1.1762 -0.0629 -0.4952
   54MOL0     C 7157   9.374   3.996   5.349  0.3967 -0.5144 -0.1887
   54MOL0     O 7158   9.262   4.004   5.268  0.2446 -0.2701  0.2603
   54MOL0     C 7159   9.138   4.028   5.334 -1.0588 -0.3724 -0.7357
   54MOL0     C 7160   9.053   3.923   5.358 -0.1232  0.5998 -0.2927
   54MOL0     C 7161   8.932   3.952   5.432 -0.5078  0.4492  0.3620
   54MOL0     C 7162   8.902   4.076   5.486  0.8710  0.0657  0.9476
   54MOL0     O 7163   8.775   4.095   5.528  0.4566  0.3561 -0.2657
   54MOL0     C 7164   8.676   3.992   5.551  0.1900  0.3382 -0.2005
   54MOL0     C 7165   8.606   3.960   5.420 -0.4658  0.0897 -0.1627
   54MOL0     C 7166   8.496   3.862   5.445  0.3046 -0.1522 -0.2108
   54MOL0     C 7167   8.372   3.914   5.523 -0.0595  0.9103  0.6196
   54MOL0     C 7168   8.311   4.038   5.464 -0.2772  0.5395  0.0182
   54MOL0     C 7169   8.170   4.065   5.519  0.4611 -0.7037  0.6252
   54MOL0     C 7170   8.101   4.201   5.481 -0.3728  0.3281 -0.2093
   54MOL0     C 7171   7.945   4.201   5.508  0.0211  0.0848 -0.5415
   54MOL0     N 7172   7.917   4.242   5.650  0.2193 -0.2028 -0.4902
   54MOL0     C 7173   7.909   4.370   5.698 -0.1173  0.5724 -0.0462
   54MOL0     C 7174   7.897   4.357   5.829  0.0328  0.1481 -0.7999
   54MOL0     C 7175   7.893   4.474   5.920  0.9245  0.2798 -0.0935
   54MOL0     C 7176   8.010   4.478   6.021  0.3685  0.5051  0.4290
   54MOL0     C 7177   8.002   4.611   6.102  0.9172  0.1235 -0.0606
   54MOL0     C 7178   8.089   4.584   6.230 -0.0745  0.2913 -0.6541
   54MOL0     O 7179   8.096   4.706   6.302 -0.3489 -0.3435  0.2986
   54MOL0     C 7180   8.198   4.805   6.272  0.8420  0.9914 -1.2824
   54MOL0     C 7181   8.187   4.923   6.351  0.1067  0.5969  0.6955
   54MOL0     C 7182   8.261   5.043   6.325 -0.5100  0.6539  0.2276
   54MOL0     C 7183   8.220   5.166   6.394  0.0150  0.4607 -0.1168
   54MOL0     C 7184   8.368   5.024   6.229  0.7108 -0.0140  0.6987
   54MOL0     C 7185   8.463   5.131   6.189  0.0968  0.3350  0.4684
   54MOL0     O 7186   8.582   5.096   6.142 -0.1720 -1.1234  0.2460
   54MOL0     C 7187   8.675   5.191   6.106 -0.5467  0.6218  0.2397
   54MOL0     C 7188   8.683   5.322   6.161 -0.3195  0.1931 -0.9351
   54MOL0     C 7189   8.790   5.401   6.132 -1.4932 -0.2323  0.4595
   54MOL0     C 7190   8.901   5.356   6.050 -0.1118 -0.2968  1.2152
   54MOL0     O 7191   8.999   5.432   6.016 -0.2169 -0.2702  0.9432
   54MOL0     C 7192   8.965   5.565   5.974 -0.4378 -0.7815 -0.0217
   54MOL0     C 7193   8.925   5.571   5.821  0.2400  0.8748  0.1099
   54MOL0     C 7194   9.037   5.509   5.739  1.1455 -0.6503  1.2202
   54MOL0     C 7195   9.075   5.596   5.617 -0.2551 -0.1849  0.2587
   54MOL0     C 7196   9.221   5.573   5.585 -0.0770  0.2105  0.0271
   54MOL0     C 7197   9.267   5.664   5.473 -0.3294 -0.5337  0.2831
   54MOL0     C 7198   9.415   5.666   5.477  0.2806 -0.0529  0.2404
   54MOL0     C 7199   9.486   5.765   5.387 -0.6989 -0.0142  0.0577
   54MOL0    Cl 7200   9.452   5.733   5.217 -0.0713  0.5561 -0.2814
   54MOL0     C 7201   8.888   5.232   5.988 -0.4122  0.9412  0.1608
   54MOL0     C 7202   8.774   5.154   6.008 -0.0517 -0.1984  0.2765
   54MOL0     O 7203   8.416   5.241   6.194 -0.1098  0.4961 -0.2795
   54MOL0     C 7204   8.388   4.905   6.151  0.3919  0.5869 -0.6767
   54MOL0     C 7205   8.295   4.798   6.167 -0.1097  0.3817 -0.2107
   54MOL0     N 7206   7.897   4.220   5.860  0.5241  0.6446  1.0398
   54MOL0     N 7207   7.919   4.154   5.747 -0.1535 -0.4456 -0.7213
   54MOL0     C 7208   8.997   4.175   5.471  1.1309  0.2297 -1.1082
   54MOL0     C 7209   9.115   4.157   5.397  1.0043  0.0396 -0.3837
   54MOL0     C 7210   9.508   3.971   5.293  0.0942 -0.5079  0.3975
   54MOL0     C 7211   9.527   3.953   5.156 -0.1975 -0.2524 -0.3879
   54MOL0     C 7212   9.656   3.927   5.102 -0.7821 -0.1689 -0.1778
   54MOL0     C 7213   9.768   3.906   5.180 -0.1951  0.0111 -0.7395
   54MOL0     O 7214   9.891   3.891   5.116  0.7244 -0.8155  0.6857
   54MOL0     C 7215  10.012   3.881   5.186 -0.0783 -0.4019 -0.3756
   54MOL0     C 7216  10.143   3.890   5.097 -0.1999  0.9266  0.2209
   54MOL0     C 7217  10.170   4.027   5.046 -0.9166  0.0807 -0.6061
   54MOL0     C 7218  10.253   4.029   4.922  0.9461 -0.0461 -0.0744
   54MOL0     C 7219  10.258   4.156   4.851 -0.8789 -0.8772  0.2454
   54MOL0     C 7220  10.266   4.256   4.777  0.1245  0.8517  0.2755
   54MOL0     C 7221   9.752   3.921   5.316 -0.3500  0.2798 -0.4514
   54MOL0     C 7222   9.627   3.960   5.375  0.1666  0.6600  0.1396
   54MOL0     H 7223   9.084   3.821   5.338 -0.0125  0.2856  1.3257
   54MOL0     H 7224   8.868   3.865   5.435  2.9727 -2.3237  1.0930
   54MOL0     H 7225   8.722   3.908   5.605  1.3763  0.7176 -0.5917
   54MOL0     H 7226   8.615   4.033   5.632 -0.7106  0.9888 -1.1909
   54MOL0     H 7227   8.573   4.056   5.380  1.7493  0.5683 -0.9866
   54MOL0     H 7228   8.670   3.918   5.342 -2.4087 -0.8867 -1.2952
   54MOL0     H 7229   8.452   3.829   5.350 -2.3070 -0.8351  1.1303
   54MOL0     H 7230   8.537   3.773   5.492  0.5242 -0.0067 -0.1281
   54MOL0     H 7231   8.295   3.836   5.530 -0.9854  1.9414  3.3943
   54MOL0     H 7232   8.415   3.923   5.623  2.3148 -2.5629  0.1016
   54MOL0     H 7233   8.368   4.125   5.497 -0.6812 -0.1211  2.7777
   54MOL0     H 7234   8.307   4.032   5.355  2.2909  0.3536 -0.1271
   54MOL0     H 7235   8.106   3.989   5.473  0.3639  1.0186 -2.3542
   54MOL0     H 7236   8.169   4.048   5.627 -1.8915 -2.6701  0.3863
   54MOL0     H 7237   8.153   4.279   5.537  0.8537 -1.0427  0.6452
   54MOL0     H 7238   8.106   4.227   5.375 -2.2252  4.4909  0.5490
   54MOL0     H 7239   7.901   4.105   5.480  0.0994  0.0602 -0.5824
   54MOL0     H 7240   7.898   4.276   5.443 -0.6939 -0.1950 -0.3495
   54MOL0     H 7241   7.911   4.460   5.638  0.0943  1.6861  1.5467
   54MOL0     H 7242   7.906   4.573   5.877 -0.4208  0.8595  0.7608
   54MOL0     H 7243   7.798   4.480   5.974  2.6201 -0.4524  3.2050
   54MOL0     H 7244   8.105   4.476   5.967 -0.1330  4.8980 -1.0456
   54MOL0     H 7245   8.000   4.392   6.088 -1.3169 -1.0255 -1.6176
   54MOL0     H 7246   7.897   4.623   6.131  1.2574  2.3758  0.4265
   54MOL0     H 7247   8.044   4.698   6.050  3.1903 -1.2374 -0.6601
   54MOL0     H 7248   8.190   4.549   6.205  0.8372  1.6915  0.8343
   54MOL0     H 7249   8.041   4.504   6.285 -0.0160 -0.6603 -1.9474
   54MOL0     H 7250   8.106   4.926   6.422  0.2719 -3.4305  1.3174
   54MOL0     H 7251   8.291   5.213   6.462  0.1831 -0.5330  0.4078
   54MOL0     H 7252   8.190   5.238   6.318  2.6347  0.5009 -1.2206
   54MOL0     H 7253   8.133   5.146   6.457  0.3737 -1.0734 -0.0696
   54MOL0     H 7254   8.603   5.365   6.220  1.1509  3.0608 -0.8774
   54MOL0     H 7255   8.790   5.494   6.188  0.2102  2.3137 -3.3040
   54MOL0     H 7256   8.892   5.608   6.043  1.7500  1.0647  1.2940
   54MOL0     H 7257   9.051   5.632   5.987 -3.1114  2.7817  0.6133
   54MOL0     H 7258   8.827   5.528   5.796  1.0037  0.0045 -1.5114
   54MOL0     H 7259   8.911   5.674   5.789  0.7358  0.6054 -1.0147
   54MOL0     H 7260   9.017   5.407   5.705  2.0232 -0.2337 -0.6171
   54MOL0     H 7261   9.124   5.490   5.803  3.3970 -0.5733 -1.6347
   54MOL0     H 7262   9.017   5.571   5.527 -2.0422  1.5558  0.8663
   54MOL0     H 7263   9.053   5.701   5.638 -0.4541 -0.3196  0.7356
   54MOL0     H 7264   9.240   5.468   5.563  0.7886  0.8011 -2.3663
   54MOL0     H 7265   9.266   5.602   5.681 -0.3185  2.4056 -0.4723
   54MOL0     H 7266   9.236   5.638   5.372 -0.3677  0.5946 -0.0067
   54MOL0     H 7267   9.225   5.760   5.505  1.1665 -0.9037  3.8384
   54MOL0     H 7268   9.458   5.566   5.467 -1.5374 -0.8064 -0.5537
   54MOL0     H 7269   9.444   5.700   5.577 -1.4821  0.8165  0.4975
   54MOL0     H 7270   9.593   5.746   5.402 -0.5593  1.2721  0.8872
   54MOL0     H 7271   9.464   5.864   5.428 -2.0226 -0.3454  0.2063
   54MOL0     H 7272   8.966   5.184   5.930 -1.5527 -0.2443 -0.4625
   54MOL0     H 7273   8.758   5.063   5.951  2.1656 -0.5092  0.0835
   54MOL0     H 7274   8.464   4.886   6.075 -0.0686 -1.8359 -0.6356
   54MOL0     H 7275   8.293   4.713   6.098 -2.3262 -0.9655  1.3678
   54MOL0     H 7276   8.976   4.270   5.518 -0.9956 -0.7404  0.0467
   54MOL0     H 7277   9.182   4.241   5.380 -0.6389  1.7713  1.2726
   54MOL0     H 7278   9.451   3.972   5.082  0.6162 -1.2627 -1.5324
   54MOL0     H 7279   9.676   3.932   4.996 -0.4618  0.5300 -0.0866
   54MOL0     H 7280  10.017   3.954   5.267  2.8953  0.5102 -1.2619
   54MOL0     H 7281  10.005   3.781   5.232  0.1599 -0.3786 -0.2892
   54MOL0     H 7282  10.121   3.815   5.020  1.3610  1.4769 -0.8174
   54MOL0     H 7283  10.222   3.848   5.161 -0.8582  0.2884  0.6313
   54MOL0     H 7284  10.218   4.087   5.124  0.6847 -0.7256 -0.9322
   54MOL0     H 7285  10.068   4.064   5.030 -1.5556 -1.4246 -0.1237
   54MOL0     H 7286  10.227   3.951   4.850  0.6582  1.4106 -1.6115
   54MOL0     H 7287  10.357   4.010   4.953  0.5768  0.8035  1.8107
   54MOL0     H 7288  10.286   4.342   4.717 -1.2867  0.2114 -1.1714
   54MOL0     H 7289   9.836   3.905   5.384 -2.1085 -5.5029  0.9663
   54MOL0     H 7290   9.623   3.966   5.483 -0.4767  1.1452  0.0954
   55MOL0     O 7291   3.106   3.604   4.613  0.1181 -0.0483  0.3739
   55MOL0     C 7292   3.143   3.699   4.683 -1.1359 -0.8006  0.4109
   55MOL0     O 7293   3.062   3.773   4.774  0.3731  0.3310 -0.1248
   55MOL0     C 7294   2.925   3.769   4.765  0.1476  0.6885 -0.2329
   55MOL0     C 7295   2.865   3.871   4.835 -0.3307 -0.1770 -0.3005
   55MOL0     C 7296   2.726   3.876   4.866  0.2051 -0.6998 -0.0836
   55MOL0     C 7297   2.641   3.791   4.802 -0.1670  0.7835  0.6012
   55MOL0     O 7298   2.500   3.804   4.798  0.0081 -0.2429  0.4857
   55MOL0     C 7299   2.433   3.801   4.919 -0.2496  0.2234 -0.0973
   55MOL0     C 7300   2.295   3.859   4.916  0.3345 -0.3991 -0.1553
   55MOL0     C 7301   2.202   3.817   5.034 -1.0351  0.6004 -0.2965
   55MOL0     C 7302   2.053   3.843   5.008  0.1371  0.3448  0.3635
   55MOL0     C 7303   1.970   3.837   5.141  0.0478 -0.5559 -1.0221
   55MOL0     C 7304   1.821   3.855   5.093  1.0021  0.4592 -0.4242
   55MOL0     C 7305   1.731   3.911   5.215  0.2309  0.6340  0.4195
   55MOL0     C 7306   1.587   3.940   5.183 -1.4792  0.1179 -0.2433
   55MOL0     N 7307   1.508   3.828   5.153  0.2517  0.3526  0.0558
   55MOL0     C 7308   1.447   3.746   5.251  0.5313 -0.4108  0.1113
   55MOL0     C 7309   1.375   3.661   5.173  0.1575 -0.4761  0.4151
   55MOL0     C 7310   1.265   3.572   5.228  0.3764  0.1247  0.1054
   55MOL0     C 7311   1.141   3.584   5.148  0.7074  0.0856 -0.5570
   55MOL0     C 7312   1.024   3.487   5.194  0.2571  0.3561  0.1927
   55MOL0     C 7313   1.039   3.328   5.198 -0.1424 -0.3319  0.3800
   55MOL0     O 7314   0.904   3.288   5.211  0.3243  0.0142 -0.0457
   55MOL0     C 7315   0.827   3.241   5.104 -0.4065  0.0460 -0.1143
   55MOL0     C 7316   0.866   3.217   4.979 -0.4814 -0.1686  0.7209
   55MOL0     C 7317   0.776   3.161   4.885  0.2922  0.6908 -0.1809
   55MOL0     C 7318   0.823   3.152   4.743 -0.5943  0.1524 -0.7515
   55MOL0     C 7319   0.648   3.131   4.933 -0.3302 -0.5538  0.0424
   55MOL0     C 7320   0.541   3.078   4.854  0.7486  2.0692 -0.5820
   55MOL0     O 7321   0.439   3.154   4.834  0.3077 -0.5122  0.1496
   55MOL0     C 7322   0.322   3.122   4.769  0.2452 -0.6001 -0.6947
   55MOL0     C 7323   0.300   3.039   4.655 -0.0081 -0.6402  0.1903
   55MOL0     C 7324   0.172   3.024   4.593 -0.2083  0.4325 -0.7299
   55MOL0     C 7325   0.059   3.076   4.650 -0.6850  0.3157 -0.1459
   55MOL0     O 7326  -0.067   3.046   4.591 -0.7086  0.4709 -0.0914
   55MOL0     C 7327  -0.192   3.093   4.637  0.1781 -0.5670 -0.1565
   55MOL0     C 7328  -0.283   3.153   4.527  0.0587  0.0362  0.3234
   55MOL0     C 7329  -0.346   3.047   4.434 -0.0017  1.2937 -0.3933
   55MOL0     C 7330  -0.444   3.081   4.316 -0.5563  0.2034 -0.0364
   55MOL0     C 7331  -0.573   3.154   4.368 -0.0483 -0.0482 -0.1639
   55MOL0     C 7332  -0.694   3.177   4.266 -0.2497 -0.0957 -0.6112
   55MOL0     C 7333  -0.760   3.060   4.192  0.1585 -0.2450  0.9449
   55MOL0     C 7334  -0.911   3.069   4.188  0.8637 -0.8350  0.6774
   55MOL0    Cl 7335  -0.967   3.184   4.073  0.4641 -0.1192  0.7488
   55MOL0     C 7336   0.079   3.157   4.764 -0.9470 -0.2340  0.3226
   55MOL0     C 7337   0.207   3.175   4.828 -0.1161  0.3062 -0.3427
   55MOL0     O 7338   0.555   2.962   4.803 -0.2639 -0.0356 -0.3295
   55MOL0     C 7339   0.612   3.160   5.063  0.7082  0.7346  1.3724
   55MOL0     C 7340   0.702   3.211   5.152 -0.4208 -0.0867 -0.5191
   55MOL0     N 7341   1.409   3.675   5.036  0.5218 -0.9874  0.0936
   55MOL0     N 7342   1.481   3.781   5.027  0.6262 -0.4270  0.0310
   55MOL0     C 7343   2.701   3.699   4.709 -0.6985  0.2122  0.0823
   55MOL0     C 7344   2.837   3.680   4.699  0.7037 -0.8458 -0.0763
   55MOL0     C 7345   3.289   3.705   4.701  0.0640 -0.9178  0.4569
   55MOL0     C 7346   3.349   3.811   4.770 -0.2190 -0.3243  0.1680
   55MOL0     C 7347   3.486   3.817   4.790  0.7077  0.0400 -0.4460
   55MOL0     C 7348   3.570   3.730   4.729  0.1801  0.7028 -0.4178
   55MOL0     O 7349   3.699   3.740   4.771 -0.9862 -0.2923  0.0044
   55MOL0     C 7350   3.776   3.618   4.759 -0.2230  0.2833  0.3360
   55MOL0     C 7351   3.931   3.645   4.790  0.0227 -0.2351  0.7031
   55MOL0     C 7352   3.998   3.745   4.697  0.6974 -0.9773  0.1044
   55MOL0     C 7353   4.034   3.695   4.547 -0.4949 -0.4485 -0.2855
   55MOL0     C 7354   3.921   3.640   4.459  0.3714 -0.6923  0.1673
   55MOL0     C 7355   3.846   3.583   4.381 -0.1380 -0.5145 -0.4544
   55MOL0     C 7356   3.512   3.632   4.645 -0.6438  0.8909 -0.8382
   55MOL0     C 7357   3.373   3.627   4.628 -0.3441  0.8958  0.6749
   55MOL0     H 7358   2.943   3.932   4.878  2.2727 -3.8867  0.7451
   55MOL0     H 7359   2.677   3.949   4.929  0.2490 -0.4289 -0.3626
   55MOL0     H 7360   2.419   3.698   4.952 -2.1875  0.2405 -0.7586
   55MOL0     H 7361   2.490   3.850   4.998  1.2560 -1.8102  0.1675
   55MOL0     H 7362   2.307   3.967   4.905 -1.2593 -0.4334 -3.2119
   55MOL0     H 7363   2.248   3.823   4.824 -0.6558  1.1563 -0.2917
   55MOL0     H 7364   2.216   3.711   5.056 -4.0486  0.6078  2.3327
   55MOL0     H 7365   2.238   3.858   5.129  0.7271 -1.5882  0.0789
   55MOL0     H 7366   2.035   3.930   4.944 -1.2456 -0.2816 -0.1542
   55MOL0     H 7367   2.028   3.753   4.950 -0.3880 -1.5249  3.2626
   55MOL0     H 7368   1.991   3.747   5.200 -0.0051  0.8915  1.3283
   55MOL0     H 7369   1.996   3.921   5.205  0.5386 -0.0903 -1.8120
   55MOL0     H 7370   1.812   3.922   5.007 -2.6588 -2.7192 -2.8697
   55MOL0     H 7371   1.781   3.755   5.071 -1.2197  0.1457  3.8395
   55MOL0     H 7372   1.729   3.834   5.292  1.1153  0.8676  0.6874
   55MOL0     H 7373   1.793   3.994   5.251  1.5964  0.1618 -0.7378
   55MOL0     H 7374   1.586   4.014   5.103 -0.0886 -0.0937 -0.4689
   55MOL0     H 7375   1.536   3.988   5.267 -1.1269  0.6838 -0.3520
   55MOL0     H 7376   1.442   3.761   5.358 -0.2215  0.7636 -0.0632
   55MOL0     H 7377   1.305   3.471   5.240  1.2939  0.4414 -0.1999
   55MOL0     H 7378   1.240   3.607   5.329  1.8833 -2.7723  1.6103
   55MOL0     H 7379   1.168   3.560   5.045  0.4706  1.1466 -0.8823
   55MOL0     H 7380   1.109   3.688   5.145  0.5081  0.0043 -1.9162
   55MOL0     H 7381   0.941   3.507   5.126 -1.0060  0.0991  1.6030
   55MOL0     H 7382   0.998   3.505   5.298 -1.5278 -1.1692  0.0616
   55MOL0     H 7383   1.102   3.287   5.276 -1.8951  0.2439  2.1941
   55MOL0     H 7384   1.091   3.293   5.108 -1.0381  0.0390 -0.3052
   55MOL0     H 7385   0.960   3.257   4.944  0.4578 -1.1053  2.0807
   55MOL0     H 7386   0.775   3.070   4.690 -0.7644  1.5552 -2.8935
   55MOL0     H 7387   0.785   3.237   4.684 -0.1722  0.6600 -0.3089
   55MOL0     H 7388   0.931   3.139   4.744 -0.5767  0.1755  1.2496
   55MOL0     H 7389   0.383   2.984   4.612  0.8210  0.1231  0.7542
   55MOL0     H 7390   0.171   2.965   4.502 -1.6096 -1.9331  0.7057
   55MOL0     H 7391  -0.239   3.014   4.697 -2.8674  1.6905  0.7037
   55MOL0     H 7392  -0.184   3.178   4.706 -2.2568 -0.1362 -0.3163
   55MOL0     H 7393  -0.362   3.207   4.580 -0.2018  0.3883 -0.4178
   55MOL0     H 7394  -0.223   3.232   4.481 -0.7628  1.3929  1.5272
   55MOL0     H 7395  -0.390   2.968   4.495 -0.0033  0.1434 -1.8293
   55MOL0     H 7396  -0.261   2.999   4.384  0.6586  0.2386  1.6093
   55MOL0     H 7397  -0.375   3.141   4.256 -0.2712  0.9724  1.0310
   55MOL0     H 7398  -0.475   2.995   4.255  0.9967 -1.9459  2.0202
   55MOL0     H 7399  -0.550   3.254   4.407 -0.3059 -0.5376  1.2774
   55MOL0     H 7400  -0.602   3.094   4.454  1.3742  2.6975  2.4346
   55MOL0     H 7401  -0.773   3.236   4.313 -0.5430 -0.1876 -0.9840
   55MOL0     H 7402  -0.656   3.246   4.190  2.0984 -1.0802 -0.4087
   55MOL0     H 7403  -0.750   2.968   4.250 -0.5922  0.2131  1.8434
   55MOL0     H 7404  -0.712   3.064   4.094  2.6605  0.2440  2.0939
   55MOL0     H 7405  -0.939   3.092   4.291  1.7419 -1.7552  1.1461
   55MOL0     H 7406  -0.959   2.973   4.167  3.7026 -2.3858  0.7642
   55MOL0     H 7407  -0.006   3.208   4.808 -0.2944  3.4119 -2.1023
   55MOL0     H 7408   0.221   3.230   4.921 -1.9165  0.5639 -0.1950
   55MOL0     H 7409   0.511   3.151   5.101  0.3151  0.2081  0.2575
   55MOL0     H 7410   0.688   3.246   5.254  2.4483 -1.0128  0.3066
   55MOL0     H 7411   2.635   3.633   4.653  0.7112 -0.9496 -0.2647
   55MOL0     H 7412   2.871   3.600   4.635 -0.1712 -2.9554  1.9364
   55MOL0     H 7413   3.296   3.898   4.809  1.6367  0.8457  0.2108
   55MOL0     H 7414   3.533   3.896   4.848  0.6593  1.4066 -2.1981
   55MOL0     H 7415   3.734   3.552   4.835 -1.6592 -0.5421 -1.1304
   55MOL0     H 7416   3.780   3.561   4.666 -0.0378 -1.2924  1.2815
   55MOL0     H 7417   3.994   3.555   4.791 -1.3944 -1.2724  1.7405
   55MOL0     H 7418   3.930   3.677   4.894 -1.7407  2.3672 -0.0214
   55MOL0     H 7419   4.088   3.787   4.741  1.0211 -0.7873 -0.7391
   55MOL0     H 7420   3.930   3.830   4.687  1.1461 -0.6770 -0.3997
   55MOL0     H 7421   4.120   3.628   4.554  0.1878  0.5157  0.6994
   55MOL0     H 7422   4.060   3.787   4.494  1.4544  0.6046  2.2808
   55MOL0     H 7423   3.773   3.528   4.325  0.7720 -1.5481 -0.6530
   55MOL0     H 7424   3.584   3.574   4.588  0.9840  2.8247 -0.8632
   55MOL0     H 7425   3.345   3.560   4.548 -0.3047  3.3385 -1.4981
   56MOL0     O 7426  10.274   2.410   0.846 -0.0577 -0.1641 -0.4286
   56MOL0     C 7427  10.167   2.451   0.892  0.3850 -0.3270  0.1547
   56MOL0     O 7428  10.110   2.567   0.850 -0.1923 -0.0996 -0.4552
   56MOL0     C 7429  10.177   2.649   0.772 -0.5470  0.1663  0.1957
   56MOL0     C 7430  10.151   2.653   0.635 -1.0288 -0.5857 -0.1357
   56MOL0     C 7431  10.218   2.746   0.566 -0.3592  0.3587  0.2453
   56MOL0     C 7432  10.302   2.839   0.621  0.8385 -0.0005  0.1036
   56MOL0     O 7433  10.360   2.930   0.544 -0.2537  0.3650  0.4351
   56MOL0     C 7434  10.279   3.052   0.533  0.1179 -0.2448  0.1346
   56MOL0     C 7435  10.351   3.143   0.440 -0.5556 -0.0016 -0.4420
   56MOL0     C 7436  10.271   3.278   0.417 -0.0143 -0.0445 -0.0523
   56MOL0     C 7437  10.276   3.361   0.546  0.4483 -0.1540  0.2246
   56MOL0     C 7438  10.188   3.491   0.524  0.0704 -0.4000 -0.4285
   56MOL0     C 7439  10.292   3.604   0.513 -0.0539 -0.7800 -0.4603
   56MOL0     C 7440  10.206   3.738   0.505 -0.0534 -0.2756  0.0055
   56MOL0     C 7441  10.282   3.862   0.535 -0.5940 -0.5775 -0.4884
   56MOL0     N 7442  10.422   3.861   0.499 -0.1835 -0.8442  0.9039
   56MOL0     C 7443  10.456   3.868   0.360 -0.4593  0.6171  1.6243
   56MOL0     C 7444  10.591   3.857   0.359 -0.0900 -0.3630 -0.0590
   56MOL0     C 7445  10.692   3.859   0.253  0.2311 -0.4423 -0.3666
   56MOL0     C 7446  10.780   3.728   0.246  0.1004 -0.2943 -0.1417
   56MOL0     C 7447  10.685   3.616   0.193  0.0269 -0.4609 -0.2379
   56MOL0     C 7448  10.756   3.491   0.169  1.2610 -0.4285  0.1800
   56MOL0     O 7449  10.820   3.488   0.042 -0.2170  0.1391 -0.4023
   56MOL0     C 7450  10.924   3.392   0.024  0.0013  0.1509 -0.3941
   56MOL0     C 7451  10.994   3.420  -0.097  0.3671  0.4283 -0.5109
   56MOL0     C 7452  11.117   3.362  -0.126  0.7047 -0.4629 -0.3043
   56MOL0     C 7453  11.189   3.399  -0.255  0.5397 -0.6753 -0.1916
   56MOL0     C 7454  11.164   3.263  -0.036 -0.2539 -0.0341 -0.3798
   56MOL0     C 7455  11.290   3.186  -0.065  0.5915  0.2570 -0.0567
   56MOL0     O 7456  11.296   3.122  -0.183  0.4374 -0.6791  0.4382
   56MOL0     C 7457  11.405   3.054  -0.227  0.4239  0.2071 -0.3289
   56MOL0     C 7458  11.383   2.916  -0.268 -0.3938  0.2780 -1.4723
   56MOL0     C 7459  11.484   2.844  -0.337  0.5198 -0.4082 -0.5931
   56MOL0     C 7460  11.607   2.901  -0.349 -0.1328 -0.1944  1.1095
   56MOL0     O 7461  11.707   2.828  -0.411 -0.5972  0.0794 -0.6113
   56MOL0     C 7462  11.812   2.909  -0.474 -0.5056 -0.0538  0.0990
   56MOL0     C 7463  11.875   2.814  -0.580 -0.6703  0.0219  0.2117
   56MOL0     C 7464  12.024   2.852  -0.608 -0.2675 -0.6867 -0.6397
   56MOL0     C 7465  12.097   2.752  -0.711  0.3999  0.8306  0.2423
   56MOL0     C 7466  12.255   2.748  -0.706  0.4463  0.2094 -0.1133
   56MOL0     C 7467  12.312   2.642  -0.804 -0.9061 -0.0478  0.2854
   56MOL0     C 7468  12.465   2.625  -0.777  0.4386  0.5947 -0.7973
   56MOL0     C 7469  12.556   2.615  -0.900  1.3857  0.1000 -1.3249
   56MOL0    Cl 7470  12.725   2.567  -0.854  0.0240  0.2663  0.1182
   56MOL0     C 7471  11.631   3.027  -0.292 -0.2335 -0.4412 -0.4301
   56MOL0     C 7472  11.527   3.102  -0.240  0.3337 -0.3924 -0.9918
   56MOL0     O 7473  11.375   3.183   0.024 -0.1066  0.1866  0.4777
   56MOL0     C 7474  11.090   3.222   0.074 -0.4121  0.6367 -0.1546
   56MOL0     C 7475  10.966   3.291   0.104  0.2847 -0.2463  0.6054
   56MOL0     N 7476  10.627   3.855   0.490  0.0029 -0.3932 -0.2230
   56MOL0     N 7477  10.532   3.854   0.577  0.8064  0.0631  0.0554
   56MOL0     C 7478  10.344   2.835   0.755 -0.3702 -0.2519  1.4024
   56MOL0     C 7479  10.277   2.742   0.827  0.4395 -0.3634  0.1979
   56MOL0     C 7480  10.079   2.357   0.968 -0.3286  0.1519 -0.2001
   56MOL0     C 7481  10.132   2.243   1.028  0.4797  0.1638  0.6840
   56MOL0     C 7482  10.048   2.156   1.105  0.3104  0.0841 -0.2239
   56MOL0     C 7483   9.908   2.173   1.102  0.0042  0.6650 -0.2049
   56MOL0     O 7484   9.819   2.074   1.150  0.8900 -0.4062 -0.0587
   56MOL0     C 7485   9.694   2.119   1.208  0.8747  1.0329 -0.6256
   56MOL0     C 7486   9.627   1.991   1.269 -0.4603 -1.2967  1.1739
   56MOL0     C 7487   9.519   2.035   1.372 -0.6864  0.5586  0.4084
   56MOL0     C 7488   9.423   1.919   1.390 -0.7000  0.3999  0.1348
   56MOL0     C 7489   9.348   1.930   1.514 -0.2997  0.1651 -0.2475
   56MOL0     C 7490   9.292   1.917   1.618  0.5525 -0.6084  0.3017
   56MOL0     C 7491   9.865   2.290   1.049  0.6198  0.5853 -0.9151
   56MOL0     C 7492   9.944   2.378   0.975 -0.5215 -0.5749  0.4650
   56MOL0     H 7493  10.094   2.571   0.591  1.8453 -1.7848 -1.8727
   56MOL0     H 7494  10.199   2.753   0.460  1.7048 -0.1317 -0.2013
   56MOL0     H 7495  10.176   3.038   0.499  0.4857 -0.2724 -1.0265
   56MOL0     H 7496  10.285   3.099   0.631 -1.5140  1.1787 -0.4123
   56MOL0     H 7497  10.455   3.164   0.468 -0.8910 -0.3982  1.1722
   56MOL0     H 7498  10.359   3.088   0.346 -1.3655 -1.2406  0.1863
   56MOL0     H 7499  10.304   3.339   0.332 -1.4108  1.1568  0.2264
   56MOL0     H 7500  10.165   3.258   0.399 -0.1762  2.2103 -2.2147
   56MOL0     H 7501  10.227   3.317   0.634  1.1894 -0.2901  0.5769
   56MOL0     H 7502  10.376   3.385   0.581 -0.3119  2.7612  0.6438
   56MOL0     H 7503  10.128   3.488   0.433  2.1750 -2.2043 -1.8758
   56MOL0     H 7504  10.124   3.511   0.611  0.3028  2.2047 -0.7816
   56MOL0     H 7505  10.362   3.592   0.597 -0.5243 -4.5786 -0.4441
   56MOL0     H 7506  10.341   3.587   0.417 -0.8984  0.6437 -1.1856
   56MOL0     H 7507  10.166   3.749   0.404  0.3002 -0.3130 -0.1391
   56MOL0     H 7508  10.127   3.739   0.581  0.7217 -2.1440  0.8984
   56MOL0     H 7509  10.281   3.871   0.644  0.2568 -0.7916 -0.4538
   56MOL0     H 7510  10.238   3.947   0.483  1.5598 -0.7078 -2.6930
   56MOL0     H 7511  10.394   3.901   0.277  0.3429 -0.6691  0.4855
   56MOL0     H 7512  10.639   3.878   0.160  0.5177 -0.8766 -0.6250
   56MOL0     H 7513  10.751   3.950   0.269 -3.3048  1.9794  0.0590
   56MOL0     H 7514  10.815   3.701   0.346  0.8210 -1.7545 -0.7593
   56MOL0     H 7515  10.863   3.745   0.176 -1.8210  1.2088 -2.2141
   56MOL0     H 7516  10.643   3.649   0.097 -1.3516 -1.1418  0.1053
   56MOL0     H 7517  10.609   3.590   0.267 -0.4004 -1.3796 -0.9824
   56MOL0     H 7518  10.685   3.408   0.182 -0.3418  0.3653 -2.6051
   56MOL0     H 7519  10.830   3.475   0.248  0.8264 -0.9585  0.4852
   56MOL0     H 7520  10.944   3.501  -0.150  1.6745 -0.5363 -3.4162
   56MOL0     H 7521  11.162   3.500  -0.285  0.3375 -0.4313  0.8122
   56MOL0     H 7522  11.297   3.389  -0.238  0.4773 -0.5825  0.2471
   56MOL0     H 7523  11.162   3.330  -0.336  0.4955  1.1735 -1.8392
   56MOL0     H 7524  11.289   2.864  -0.250 -0.1647  0.5826  0.9947
   56MOL0     H 7525  11.465   2.745  -0.376  1.0293 -0.2982 -1.1260
   56MOL0     H 7526  11.775   2.993  -0.533  0.9073  0.9088  0.5397
   56MOL0     H 7527  11.878   2.954  -0.400 -1.8143  0.5719  0.9284
   56MOL0     H 7528  11.878   2.708  -0.554  1.6503 -0.0944 -0.2662
   56MOL0     H 7529  11.815   2.823  -0.671 -0.1502 -0.6393 -0.2095
   56MOL0     H 7530  12.093   2.846  -0.523 -0.1840 -2.2985 -0.7996
   56MOL0     H 7531  12.031   2.954  -0.648 -0.6550  0.5878  2.2420
   56MOL0     H 7532  12.066   2.652  -0.678  1.5777 -0.6664 -2.8496
   56MOL0     H 7533  12.055   2.765  -0.811  1.3309  0.3307 -0.2328
   56MOL0     H 7534  12.282   2.712  -0.606  0.8294 -1.4970 -0.8087
   56MOL0     H 7535  12.303   2.841  -0.739  1.1719 -1.0766 -2.9269
   56MOL0     H 7536  12.266   2.544  -0.787 -2.6850  0.9515  1.5449
   56MOL0     H 7537  12.290   2.677  -0.905 -1.6010  0.5603  0.6357
   56MOL0     H 7538  12.479   2.534  -0.717 -1.7018  0.3431 -0.5955
   56MOL0     H 7539  12.497   2.710  -0.716 -0.5144 -0.3511  1.0884
   56MOL0     H 7540  12.572   2.715  -0.939 -0.9249  0.3260 -1.8356
   56MOL0     H 7541  12.516   2.546  -0.974  1.7029 -1.2513 -0.2881
   56MOL0     H 7542  11.728   3.076  -0.296 -0.6073  0.4119  0.3659
   56MOL0     H 7543  11.525   3.209  -0.219  1.3371  0.1101 -3.1270
   56MOL0     H 7544  11.117   3.144   0.145  0.8362  0.5548 -0.6902
   56MOL0     H 7545  10.913   3.275   0.197  2.8355 -0.2663  2.1610
   56MOL0     H 7546  10.413   2.897   0.812 -1.1937  1.2300  0.8426
   56MOL0     H 7547  10.289   2.734   0.934  0.7523 -2.8165  0.0299
   56MOL0     H 7548  10.239   2.231   1.029  0.4309 -0.2873  0.5803
   56MOL0     H 7549  10.078   2.060   1.145  1.1767  0.9207  1.2173
   56MOL0     H 7550   9.710   2.202   1.277 -1.0712  1.1841 -0.3106
   56MOL0     H 7551   9.619   2.167   1.145 -2.2980 -1.6163  0.8160
   56MOL0     H 7552   9.696   1.929   1.327 -0.2959 -1.6128  0.6489
   56MOL0     H 7553   9.593   1.930   1.185 -2.0632  0.0332  0.7990
   56MOL0     H 7554   9.468   2.127   1.340  0.2249  0.6579 -0.8536
   56MOL0     H 7555   9.578   2.043   1.463 -0.6269  1.8633  0.2755
   56MOL0     H 7556   9.480   1.827   1.403 -0.4208  0.0095 -3.0358
   56MOL0     H 7557   9.359   1.906   1.302  3.4521 -1.1728 -2.9875
   56MOL0     H 7558   9.236   1.910   1.709  0.4421 -0.3600  0.2529
   56MOL0     H 7559   9.762   2.325   1.052 -0.2518 -1.8578  0.8351
   56MOL0     H 7560   9.900   2.462   0.922  0.8459  0.2443  0.5877
   57MOL0     O 7561  11.215  11.069   3.025  0.0658 -0.2493 -0.1394
   57MOL0     C 7562  11.109  11.122   2.985  0.7016  0.4503  0.7306
   57MOL0     O 7563  11.098  11.247   2.921  0.5518  0.2788 -0.2312
   57MOL0     C 7564  11.183  11.346   2.939 -0.1210  0.0904  0.8432
   57MOL0     C 7565  11.256  11.378   3.060 -0.7252  0.1170 -0.7078
   57MOL0     C 7566  11.347  11.490   3.069  0.3651 -1.1815 -0.5708
   57MOL0     C 7567  11.348  11.581   2.961  0.3108  0.2208 -0.7828
   57MOL0     O 7568  11.423  11.696   2.970 -0.7064 -0.0497  0.3363
   57MOL0     C 7569  11.483  11.749   2.850 -0.1292  0.4598 -0.5325
   57MOL0     C 7570  11.570  11.872   2.887 -0.8116  0.4731  0.6912
   57MOL0     C 7571  11.473  11.996   2.925  0.1066  0.3763 -0.9833
   57MOL0     C 7572  11.535  12.116   2.999  0.3928  0.2541 -0.4405
   57MOL0     C 7573  11.626  12.186   2.898 -0.6109 -0.2496  0.2918
   57MOL0     C 7574  11.728  12.284   2.964  0.3382  0.9589  0.4465
   57MOL0     C 7575  11.681  12.426   2.992  0.2807 -0.0081 -0.9408
   57MOL0     C 7576  11.804  12.496   3.050 -0.2989 -0.1503  0.0576
   57MOL0     N 7577  11.818  12.633   3.007  0.2312 -1.2179 -0.3151
   57MOL0     C 7578  11.744  12.743   3.059 -0.3498  0.5905 -0.3331
   57MOL0     C 7579  11.782  12.852   2.984  0.1383  0.0123  0.1309
   57MOL0     C 7580  11.734  12.993   2.989  0.1458  0.4954 -0.8334
   57MOL0     C 7581  11.861  13.075   3.015  0.5978  0.4552  0.8298
   57MOL0     C 7582  11.817  13.222   3.037 -1.1044  0.5186  0.4376
   57MOL0     C 7583  11.913  13.318   3.123 -0.0158  0.0724  0.6894
   57MOL0     O 7584  12.052  13.286   3.107  0.5802 -0.6707 -0.7782
   57MOL0     C 7585  12.148  13.371   3.161 -0.0142 -0.4255 -0.2464
   57MOL0     C 7586  12.126  13.469   3.265  0.6191  1.3661 -0.8789
   57MOL0     C 7587  12.232  13.536   3.321 -0.1648 -1.2054  0.3080
   57MOL0     C 7588  12.207  13.652   3.422  0.8381 -0.5667 -1.0354
   57MOL0     C 7589  12.366  13.515   3.275  0.5929 -0.8757 -0.5877
   57MOL0     C 7590  12.482  13.585   3.330 -0.0450 -0.5316  0.0701
   57MOL0     O 7591  12.521  13.703   3.266  1.3583 -0.0894  0.8246
   57MOL0     C 7592  12.633  13.768   3.293  0.4699 -0.1886 -1.1819
   57MOL0     C 7593  12.726  13.794   3.194  0.9323 -0.0134  0.0776
   57MOL0     C 7594  12.845  13.873   3.224  0.7170  0.3443  0.2053
   57MOL0     C 7595  12.863  13.928   3.356 -0.4622  0.9635 -0.0913
   57MOL0     O 7596  12.986  13.990   3.376  0.2442 -0.5087 -0.1337
   57MOL0     C 7597  13.041  13.975   3.504  0.6011 -0.2096  0.4281
   57MOL0     C 7598  13.196  13.988   3.500  0.5707  0.5824  0.3620
   57MOL0     C 7599  13.258  13.863   3.428 -0.6164 -0.3805 -0.5168
   57MOL0     C 7600  13.379  13.807   3.501 -0.0614  0.7346 -0.3364
   57MOL0     C 7601  13.426  13.677   3.428 -0.2826 -0.9379 -0.5831
   57MOL0     C 7602  13.324  13.564   3.418 -1.2485  0.0236 -0.3796
   57MOL0     C 7603  13.402  13.431   3.378 -0.3782 -0.7136  0.5142
   57MOL0     C 7604  13.322  13.302   3.390  0.1587  0.7622  1.0651
   57MOL0    Cl 7605  13.272  13.256   3.553 -0.1140  0.1554  0.4557
   57MOL0     C 7606  12.764  13.912   3.449  1.1558  0.9929 -0.2079
   57MOL0     C 7607  12.650  13.843   3.408 -0.0938 -0.0766 -0.6064
   57MOL0     O 7608  12.523  13.546   3.438 -0.1993  0.1594  0.1663
   57MOL0     C 7609  12.385  13.434   3.167 -0.3409 -0.3726  0.4051
   57MOL0     C 7610  12.273  13.354   3.115 -0.4160 -0.8504 -0.2287
   57MOL0     N 7611  11.881  12.804   2.905  0.4184  0.0754  0.6744
   57MOL0     N 7612  11.915  12.681   2.923 -0.0026  0.3732  0.5902
   57MOL0     C 7613  11.290  11.538   2.842 -0.9647 -0.9796  0.1603
   57MOL0     C 7614  11.209  11.429   2.832 -0.6913  0.5283  0.4230
   57MOL0     C 7615  10.981  11.059   3.006  0.1242 -0.4118 -0.3380
   57MOL0     C 7616  10.973  10.931   3.070 -0.2692 -0.3036 -0.8896
   57MOL0     C 7617  10.859  10.854   3.094  0.5024 -0.3745  0.0289
   57MOL0     C 7618  10.736  10.913   3.041 -0.2665  0.4632 -0.8030
   57MOL0     O 7619  10.614  10.852   3.049  0.1342 -0.0099  0.2965
   57MOL0     C 7620  10.609  10.727   3.122  0.0557 -0.1226 -0.0732
   57MOL0     C 7621  10.471  10.707   3.173  0.2426  0.6515  0.5869
   57MOL0     C 7622  10.429  10.777   3.290 -0.1986  0.1441  0.7865
   57MOL0     C 7623  10.285  10.757   3.341  0.0526 -0.1715 -0.4666
   57MOL0     C 7624  10.173  10.819   3.261  0.2286 -0.6339 -0.1280
   57MOL0     C 7625  10.088  10.858   3.183  0.0963  0.3456 -0.2252
   57MOL0     C 7626  10.741  11.033   2.968 -0.3241 -0.8304  0.3705
   57MOL0     C 7627  10.858  11.105   2.961 -0.0054 -0.6696 -1.1693
   57MOL0     H 7628  11.246  11.314   3.147  0.5307  1.9875  0.8950
   57MOL0     H 7629  11.403  11.507   3.161  0.1808  2.1419 -0.9349
   57MOL0     H 7630  11.542  11.671   2.801 -2.1443 -0.8758 -0.9440
   57MOL0     H 7631  11.409  11.790   2.780 -1.4087 -1.4692 -0.3691
   57MOL0     H 7632  11.635  11.866   2.974  2.1963  0.3964 -1.4021
   57MOL0     H 7633  11.637  11.900   2.805  0.3190  0.9325  1.7446
   57MOL0     H 7634  11.424  12.029   2.834 -0.8758  0.3808 -0.4655
   57MOL0     H 7635  11.402  11.943   2.989  0.3329  0.2448 -0.8373
   57MOL0     H 7636  11.459  12.186   3.035  1.8246  1.6863 -0.0382
   57MOL0     H 7637  11.604  12.079   3.076  0.1261 -4.6540 -2.2097
   57MOL0     H 7638  11.676  12.107   2.842 -0.3653 -0.3323  0.6299
   57MOL0     H 7639  11.572  12.257   2.835  2.9131  3.0196  0.6177
   57MOL0     H 7640  11.761  12.231   3.054  2.1444 -0.8901 -1.1852
   57MOL0     H 7641  11.821  12.292   2.907 -0.9334  2.2616 -1.5522
   57MOL0     H 7642  11.645  12.474   2.901 -2.5030  2.0692  1.0666
   57MOL0     H 7643  11.595  12.422   3.060 -1.1981 -0.1810 -2.7696
   57MOL0     H 7644  11.895  12.444   3.018 -0.9315 -0.6786 -0.9346
   57MOL0     H 7645  11.805  12.475   3.157  2.2081 -0.8103 -0.0384
   57MOL0     H 7646  11.682  12.755   3.147 -3.2423  1.1235 -2.3102
   57MOL0     H 7647  11.681  13.027   2.899 -0.1287  1.2633 -0.3845
   57MOL0     H 7648  11.661  13.006   3.068 -1.1526 -3.0235 -1.2631
   57MOL0     H 7649  11.925  13.071   2.926 -1.8403 -0.3762 -0.9967
   57MOL0     H 7650  11.917  13.036   3.101 -0.1538  0.7432  1.4592
   57MOL0     H 7651  11.721  13.216   3.089 -1.4586 -2.5520 -0.4255
   57MOL0     H 7652  11.802  13.276   2.943 -0.4555 -2.0277 -1.2325
   57MOL0     H 7653  11.878  13.295   3.224 -1.9761 -1.8491 -0.3692
   57MOL0     H 7654  11.903  13.423   3.095  1.5091  0.8551  2.7590
   57MOL0     H 7655  12.028  13.492   3.307  1.4357  1.9425  0.7911
   57MOL0     H 7656  12.263  13.744   3.404  0.4946 -0.3803 -1.1490
   57MOL0     H 7657  12.102  13.681   3.428  0.4258 -2.0749 -0.4463
   57MOL0     H 7658  12.225  13.628   3.527  1.2983  0.0197 -0.9734
   57MOL0     H 7659  12.715  13.746   3.097 -1.0257  0.6510 -0.0676
   57MOL0     H 7660  12.917  13.885   3.145 -1.0419  1.1594 -1.3527
   57MOL0     H 7661  13.010  14.052   3.574  3.2637 -0.9192  2.5419
   57MOL0     H 7662  12.999  13.882   3.543 -1.9577 -0.0009 -1.5220
   57MOL0     H 7663  13.218  14.079   3.443 -0.1025  2.0160  2.3070
   57MOL0     H 7664  13.224  14.010   3.603  0.4640  2.6800 -0.0184
   57MOL0     H 7665  13.288  13.891   3.326 -0.4472 -0.8612 -0.6045
   57MOL0     H 7666  13.176  13.790   3.422 -3.0699  1.6569  3.9116
   57MOL0     H 7667  13.463  13.877   3.508  0.7215 -0.3737  2.7004
   57MOL0     H 7668  13.347  13.783   3.603 -1.0832  1.7563 -0.3889
   57MOL0     H 7669  13.520  13.650   3.476  0.2968  0.0611 -1.1221
   57MOL0     H 7670  13.436  13.700   3.321 -2.6683 -2.9270 -1.3299
   57MOL0     H 7671  13.273  13.561   3.515 -1.7483 -1.6390 -0.6496
   57MOL0     H 7672  13.247  13.582   3.342 -1.1494 -1.7870 -0.9531
   57MOL0     H 7673  13.496  13.423   3.432  1.8360  1.8133 -2.5968
   57MOL0     H 7674  13.437  13.432   3.274 -0.9545 -1.5651  0.2977
   57MOL0     H 7675  13.383  13.214   3.368  0.6568  0.6613  2.7322
   57MOL0     H 7676  13.251  13.302   3.306  2.1879  2.2059 -0.7488
   57MOL0     H 7677  12.776  13.954   3.549  2.4685  5.1247 -1.9136
   57MOL0     H 7678  12.573  13.832   3.484 -0.4706  1.4941 -0.7228
   57MOL0     H 7679  12.481  13.416   3.118 -0.7579  0.1321 -0.6229
   57MOL0     H 7680  12.300  13.302   3.024  2.7394 -0.0758  0.1727
   57MOL0     H 7681  11.303  11.595   2.751  0.6316  0.0271  0.9765
   57MOL0     H 7682  11.160  11.406   2.737 -0.1372  2.1654 -0.2954
   57MOL0     H 7683  11.067  10.893   3.108 -1.7170 -1.5909  1.6070
   57MOL0     H 7684  10.862  10.751   3.129  2.3186 -0.5068 -0.4094
   57MOL0     H 7685  10.638  10.654   3.045 -0.0409  0.6030 -0.8056
   57MOL0     H 7686  10.682  10.710   3.202  1.6007  0.3934 -1.3158
   57MOL0     H 7687  10.473  10.599   3.195  0.6134  1.1857  3.6619
   57MOL0     H 7688  10.397  10.721   3.094  2.1213 -3.5310 -2.2748
   57MOL0     H 7689  10.449  10.881   3.262  0.0573 -0.5701 -1.8929
   57MOL0     H 7690  10.499  10.754   3.371 -1.1805 -1.7235  1.1642
   57MOL0     H 7691  10.297  10.800   3.441  3.2635  0.0515 -0.8457
   57MOL0     H 7692  10.272  10.649   3.350  2.9360 -0.4761  1.3588
   57MOL0     H 7693  10.004  10.882   3.121 -1.7847  1.6637  2.6057
   57MOL0     H 7694  10.648  11.067   2.924  0.8894  1.5687 -0.5158
   57MOL0     H 7695  10.861  11.203   2.915 -1.2757  0.3813  0.8409
   58MOL0     O 7696   6.815   8.552   2.450  0.5606 -0.1944  0.1662
   58MOL0     C 7697   6.780   8.631   2.366  0.7575 -0.4685 -1.0179
   58MOL0     O 7698   6.801   8.623   2.229 -0.7846  0.1160 -0.5609
   58MOL0     C 7699   6.871   8.510   2.194  0.1158 -0.9096  0.6571
   58MOL0     C 7700   7.010   8.499   2.215 -0.0264  0.2961 -0.7684
   58MOL0     C 7701   7.084   8.378   2.187 -0.0024 -0.0750  0.6921
   58MOL0     C 7702   7.002   8.265   2.141 -0.6224 -1.4135 -0.2649
   58MOL0     O 7703   7.066   8.147   2.116  0.0788 -0.3289  0.0995
   58MOL0     C 7704   7.136   8.083   2.232 -0.0740  0.3750  0.8073
   58MOL0     C 7705   7.282   8.070   2.211 -0.2419 -0.1794 -0.7243
   58MOL0     C 7706   7.356   8.050   2.344  0.6088 -0.4345  0.4568
   58MOL0     C 7707   7.515   8.067   2.337 -0.1217 -0.4458  0.6660
   58MOL0     C 7708   7.583   8.099   2.471 -0.5560 -0.1653 -0.2324
   58MOL0     C 7709   7.607   7.985   2.567 -0.1965  0.0956  0.2658
   58MOL0     C 7710   7.733   8.018   2.653 -0.0223 -0.3043  0.7696
   58MOL0     C 7711   7.712   8.153   2.725 -0.5083  0.7847  0.2098
   58MOL0     N 7712   7.794   8.138   2.840 -0.3310 -0.4105 -0.0170
   58MOL0     C 7713   7.754   8.188   2.965  0.1937  0.6010  0.1295
   58MOL0     C 7714   7.866   8.171   3.046  1.0753  0.4736  0.7908
   58MOL0     C 7715   7.863   8.194   3.192 -0.8176 -0.8343 -0.0786
   58MOL0     C 7716   7.881   8.343   3.224  0.5689 -0.0414  0.8659
   58MOL0     C 7717   7.744   8.412   3.214  0.7633 -0.6600 -1.0090
   58MOL0     C 7718   7.752   8.548   3.285 -0.3505  0.5261  0.2727
   58MOL0     O 7719   7.847   8.632   3.223 -0.3589 -0.3285  0.5652
   58MOL0     C 7720   7.852   8.767   3.240  0.1141 -0.4726  2.2228
   58MOL0     C 7721   7.770   8.840   3.330 -0.5988  0.4019  0.2791
   58MOL0     C 7722   7.782   8.978   3.338 -0.0038 -0.7145  0.7317
   58MOL0     C 7723   7.686   9.034   3.440 -0.2806 -0.1011  0.1413
   58MOL0     C 7724   7.868   9.053   3.257  0.2552 -0.2882  0.5808
   58MOL0     C 7725   7.880   9.203   3.261  0.1277  0.4042  0.1203
   58MOL0     O 7726   7.870   9.258   3.386 -0.2993  0.3772  0.0317
   58MOL0     C 7727   7.896   9.397   3.399  0.4708 -0.6333  0.1549
   58MOL0     C 7728   7.793   9.484   3.428  0.3340  0.1856 -0.0021
   58MOL0     C 7729   7.817   9.624   3.451  0.2951 -0.1034  0.3705
   58MOL0     C 7730   7.948   9.674   3.430  0.9580  0.5243  0.2472
   58MOL0     O 7731   7.974   9.803   3.463 -0.6067 -0.0189 -0.4235
   58MOL0     C 7732   7.924   9.897   3.371  0.0929  0.6648  0.5255
   58MOL0     C 7733   8.027   9.988   3.319 -0.3992  0.5064  0.0322
   58MOL0     C 7734   8.090  10.065   3.434  0.4688 -0.5148 -0.3595
   58MOL0     C 7735   8.198  10.163   3.399 -0.2375  0.5022 -0.0736
   58MOL0     C 7736   8.256  10.216   3.528  1.2003  0.8866  0.2125
   58MOL0     C 7737   8.383  10.136   3.564  0.0895  0.0368 -0.2132
   58MOL0     C 7738   8.433  10.161   3.703 -0.8791  0.1842  0.6425
   58MOL0     C 7739   8.552  10.067   3.749 -0.8777 -0.0372 -0.7424
   58MOL0    Cl 7740   8.519   9.901   3.711 -0.0776  0.1326  0.5466
   58MOL0     C 7741   8.042   9.583   3.398  0.3594 -1.4177  0.6779
   58MOL0     C 7742   8.026   9.452   3.381 -0.0666  0.8867  0.5956
   58MOL0     O 7743   7.916   9.265   3.165 -0.3838 -0.2125  0.4608
   58MOL0     C 7744   7.938   8.980   3.156 -0.1308 -0.1348 -1.5056
   58MOL0     C 7745   7.942   8.840   3.158  0.8844 -0.5165 -0.4188
   58MOL0     N 7746   7.962   8.124   2.967 -0.0958  0.3132  0.5867
   58MOL0     N 7747   7.921   8.103   2.846 -0.6588 -0.1501 -0.8448
   58MOL0     C 7748   6.863   8.275   2.134 -0.2647 -0.3498 -0.5551
   58MOL0     C 7749   6.800   8.400   2.147 -0.8171  0.3510 -0.2759
   58MOL0     C 7750   6.705   8.742   2.425 -0.1083 -0.3924  0.1402
   58MOL0     C 7751   6.608   8.808   2.343 -0.3332 -0.4488 -0.2165
   58MOL0     C 7752   6.546   8.930   2.370  0.0717  0.1247 -0.0969
   58MOL0     C 7753   6.562   8.969   2.507  0.6708  0.0168  0.8520
   58MOL0     O 7754   6.487   9.065   2.563  0.1584 -0.4545  0.3900
   58MOL0     C 7755   6.362   9.100   2.503 -0.0494  0.2293 -0.7330
   58MOL0     C 7756   6.251   9.139   2.603 -0.3293  0.1943  0.7422
   58MOL0     C 7757   6.223   9.034   2.707  0.2134 -1.0506 -0.3979
   58MOL0     C 7758   6.223   8.895   2.642 -0.2455 -0.4720 -0.5281
   58MOL0     C 7759   6.153   8.806   2.740 -0.4273  0.6898 -0.5307
   58MOL0     C 7760   6.090   8.734   2.819 -0.8280  0.3196  0.0722
   58MOL0     C 7761   6.652   8.903   2.595 -0.7501  0.1021  0.1561
   58MOL0     C 7762   6.726   8.793   2.557 -0.2173  0.1501 -0.1307
   58MOL0     H 7763   7.071   8.584   2.245 -0.5495  1.0940 -1.8874
   58MOL0     H 7764   7.191   8.367   2.193  0.3468  0.6981 -2.3114
   58MOL0     H 7765   7.111   8.134   2.326  4.5485  1.6596  1.6093
   58MOL0     H 7766   7.105   7.978   2.236 -0.4547  0.2941 -2.2009
   58MOL0     H 7767   7.305   7.990   2.140  2.3287 -1.7466  1.6369
   58MOL0     H 7768   7.310   8.164   2.163 -3.5253  2.2514  1.6622
   58MOL0     H 7769   7.318   8.132   2.406 -0.7099 -0.3319 -0.4486
   58MOL0     H 7770   7.320   7.960   2.394 -0.5398 -0.3997 -0.2643
   58MOL0     H 7771   7.562   7.982   2.287 -1.6254 -1.7414  1.3296
   58MOL0     H 7772   7.536   8.157   2.280  2.0874 -1.0437  0.4715
   58MOL0     H 7773   7.683   8.131   2.442 -0.4160  2.6901  2.8514
   58MOL0     H 7774   7.529   8.183   2.515  1.8439  1.6357 -0.5451
   58MOL0     H 7775   7.514   7.970   2.622  0.6643 -2.1614  1.2507
   58MOL0     H 7776   7.619   7.894   2.508  1.1045  2.2269 -3.0169
   58MOL0     H 7777   7.749   7.934   2.721 -0.3163  1.3737  3.0154
   58MOL0     H 7778   7.824   8.013   2.591 -0.3620 -2.6523  0.3634
   58MOL0     H 7779   7.609   8.154   2.762  0.0629  0.1315  1.9543
   58MOL0     H 7780   7.732   8.238   2.660 -0.0857  0.3634 -0.2155
   58MOL0     H 7781   7.657   8.228   2.993  0.2533  1.3398 -0.6904
   58MOL0     H 7782   7.771   8.145   3.225 -2.3117  0.1409 -2.5533
   58MOL0     H 7783   7.947   8.144   3.241 -0.8778  0.8563  1.9325
   58MOL0     H 7784   7.951   8.374   3.146 -0.5447  1.6154  0.4676
   58MOL0     H 7785   7.918   8.361   3.325  1.8890 -1.5739  0.6866
   58MOL0     H 7786   7.666   8.359   3.269  0.9843 -0.8231 -0.8570
   58MOL0     H 7787   7.702   8.425   3.113  0.3228 -2.5325 -1.0903
   58MOL0     H 7788   7.789   8.539   3.388  0.3813 -1.5936 -0.1300
   58MOL0     H 7789   7.651   8.588   3.289 -1.7503 -2.5700 -1.0124
   58MOL0     H 7790   7.721   8.786   3.410 -1.4416  1.1447  0.2725
   58MOL0     H 7791   7.590   8.990   3.412 -0.2667 -3.5348  4.4050
   58MOL0     H 7792   7.721   8.998   3.537 -0.3069 -2.4055 -0.6662
   58MOL0     H 7793   7.673   9.143   3.446  0.7005  0.1716 -1.7782
   58MOL0     H 7794   7.694   9.449   3.457  1.1901 -2.9196 -0.4182
   58MOL0     H 7795   7.731   9.684   3.482  0.8393  1.5094 -1.1387
   58MOL0     H 7796   7.879   9.841   3.288 -0.4466  2.2582 -0.3070
   58MOL0     H 7797   7.845   9.961   3.413 -0.7320  0.8076 -1.1196
   58MOL0     H 7798   8.099   9.934   3.257  0.3508  1.8895 -0.3592
   58MOL0     H 7799   7.982  10.065   3.255  0.7820  3.2902  2.3041
   58MOL0     H 7800   8.132   9.999   3.510  1.7577 -0.6288 -1.1526
   58MOL0     H 7801   8.004  10.113   3.481  0.8033  0.9274 -1.1736
   58MOL0     H 7802   8.269  10.103   3.341 -0.4777 -0.9306  1.0257
   58MOL0     H 7803   8.146  10.238   3.340 -2.1564 -0.2040  0.6449
   58MOL0     H 7804   8.180  10.223   3.607  3.0338  2.0689  1.9975
   58MOL0     H 7805   8.283  10.321   3.516 -1.7619  1.6243 -0.8535
   58MOL0     H 7806   8.360  10.029   3.552  1.1018 -0.3056  0.6746
   58MOL0     H 7807   8.454  10.169   3.488 -1.9996  5.0165 -0.3501
   58MOL0     H 7808   8.351  10.146   3.773  1.2889 -1.3777  3.0542
   58MOL0     H 7809   8.463  10.265   3.719  0.9387  0.2828 -2.4522
   58MOL0     H 7810   8.557  10.079   3.857  0.0959  0.2868 -0.8098
   58MOL0     H 7811   8.645  10.096   3.698 -1.4723  0.3927 -1.6111
   58MOL0     H 7812   8.144   9.613   3.373  0.2149 -1.2523  0.2747
   58MOL0     H 7813   8.107   9.392   3.341 -1.3541 -1.7065  1.6411
   58MOL0     H 7814   8.013   9.020   3.089  1.5355 -3.8130 -2.0856
   58MOL0     H 7815   8.001   8.790   3.082  0.7247  1.6823 -2.0857
   58MOL0     H 7816   6.806   8.186   2.111 -1.1901 -0.1113  0.6998
   58MOL0     H 7817   6.692   8.394   2.140 -1.0584  1.4939  1.8217
   58MOL0     H 7818   6.590   8.761   2.246 -2.1228  3.0122 -1.7409
   58MOL0     H 7819   6.469   8.962   2.301 -2.6557  0.3862  2.8107
   58MOL0     H 7820   6.377   9.171   2.421  4.0027  2.6481  1.8054
   58MOL0     H 7821   6.320   9.005   2.469  0.3969 -1.0543  1.9911
   58MOL0     H 7822   6.153   9.150   2.555  0.1559  0.5358 -0.1951
   58MOL0     H 7823   6.279   9.229   2.658  1.7962 -0.6095  1.0784
   58MOL0     H 7824   6.130   9.058   2.760 -0.2390  3.1821 -2.6790
   58MOL0     H 7825   6.299   9.038   2.786 -0.9823  1.4955  0.7515
   58MOL0     H 7826   6.327   8.860   2.632 -0.0356  0.0743 -0.2896
   58MOL0     H 7827   6.178   8.886   2.543  2.7030  1.1174 -2.1704
   58MOL0     H 7828   6.028   8.673   2.883 -0.4998 -2.2819 -1.9350
   58MOL0     H 7829   6.664   8.926   2.701  0.5700  2.5037 -0.4499
   58MOL0     H 7830   6.803   8.748   2.620 -2.9411 -3.8457  0.7392
   59MOL0     O 7831   5.138   4.929  10.545  0.4105  1.2973  0.5413
   59MOL0     C 7832   5.228   4.971  10.476 -0.4943 -0.3340 -0.8969
   59MOL0     O 7833   5.200   5.066  10.378 -0.0337 -0.2497  0.1049
   59MOL0     C 7834   5.070   5.068  10.343  0.2618  0.0686 -0.5197
   59MOL0     C 7835   4.976   5.149  10.401 -0.7876 -0.1467  0.1806
   59MOL0     C 7836   4.840   5.145  10.367  0.4063  0.2113  0.1594
   59MOL0     C 7837   4.811   5.071  10.256  0.6956 -0.0832 -0.4662
   59MOL0     O 7838   4.671   5.057  10.229 -0.4857 -0.7408  0.1247
   59MOL0     C 7839   4.610   4.961  10.141 -0.4204 -0.7295  0.3624
   59MOL0     C 7840   4.469   5.006  10.129  0.3476  0.5005  0.6917
   59MOL0     C 7841   4.384   4.905  10.047 -0.2078  0.2085  0.1574
   59MOL0     C 7842   4.254   4.972   9.997  0.0835 -0.4896 -0.4389
   59MOL0     C 7843   4.181   4.859   9.928 -0.2858  0.6768 -0.9727
   59MOL0     C 7844   4.049   4.904   9.869 -0.6036 -0.0738  0.4982
   59MOL0     C 7845   3.933   4.886   9.963 -0.1928 -0.6210 -0.6444
   59MOL0     C 7846   3.822   4.980   9.920  0.0951  0.3804  0.3498
   59MOL0     N 7847   3.697   4.949   9.981 -0.1311  0.4128 -0.1444
   59MOL0     C 7848   3.571   4.998   9.952  0.1924 -0.1531  0.7431
   59MOL0     C 7849   3.491   4.963  10.059 -0.6066  0.3749  0.6933
   59MOL0     C 7850   3.351   4.999  10.078  0.7949 -0.6814 -0.2520
   59MOL0     C 7851   3.306   4.957  10.212 -0.4311 -0.0520  0.0379
   59MOL0     C 7852   3.159   5.002  10.231 -0.8176 -1.0713  0.4880
   59MOL0     C 7853   3.086   4.939  10.348 -0.2362 -0.7604  0.5150
   59MOL0     O 7854   3.103   4.792  10.345 -1.1436 -0.3688 -0.8614
   59MOL0     C 7855   3.018   4.705  10.395 -0.5315  0.8092 -0.7337
   59MOL0     C 7856   3.062   4.564  10.407 -0.1551 -0.0850  0.5980
   59MOL0     C 7857   2.987   4.468  10.474  0.4285 -1.0564  0.0726
   59MOL0     C 7858   3.050   4.333  10.482  0.2267  0.3091 -0.7364
   59MOL0     C 7859   2.872   4.515  10.545 -0.1808  0.1023 -1.2815
   59MOL0     C 7860   2.791   4.437  10.633 -0.8706  0.1713 -0.4498
   59MOL0     O 7861   2.697   4.504  10.704 -0.0808 -0.4639 -0.4676
   59MOL0     C 7862   2.633   4.443  10.814 -0.7846  1.0174 -0.3730
   59MOL0     C 7863   2.709   4.370  10.914  0.6642 -0.0864  0.2951
   59MOL0     C 7864   2.636   4.298  11.014  0.3421  0.4540  0.1522
   59MOL0     C 7865   2.499   4.296  11.016  0.3752 -0.2524  0.4337
   59MOL0     O 7866   2.448   4.237  11.126 -0.5646 -0.1948 -0.1808
   59MOL0     C 7867   2.417   4.327  11.234 -0.0867 -0.1029  0.5372
   59MOL0     C 7868   2.317   4.264  11.336  0.3979  0.1167  0.2587
   59MOL0     C 7869   2.385   4.200  11.461 -0.0550 -0.7489 -0.6520
   59MOL0     C 7870   2.394   4.048  11.444 -0.6745  0.5554  0.0309
   59MOL0     C 7871   2.273   3.955  11.432  0.6957  0.5472  0.6548
   59MOL0     C 7872   2.140   4.012  11.489  0.1230  0.2556  0.2265
   59MOL0     C 7873   2.041   3.895  11.482 -1.1222 -0.1961 -0.0664
   59MOL0     C 7874   1.907   3.939  11.514  0.0083 -0.0375 -0.7194
   59MOL0    Cl 7875   1.793   3.807  11.504 -0.2668  0.2907  0.4572
   59MOL0     C 7876   2.422   4.373  10.921 -0.7352 -0.1442 -0.9975
   59MOL0     C 7877   2.496   4.444  10.824  0.6748  0.3204 -0.1381
   59MOL0     O 7878   2.807   4.318  10.647 -0.2246 -0.3527  0.4111
   59MOL0     C 7879   2.835   4.656  10.533  0.5755  0.3099  0.4187
   59MOL0     C 7880   2.896   4.745  10.450 -0.0984 -0.3882  0.0619
   59MOL0     N 7881   3.573   4.876  10.134  0.3155 -0.1788 -0.2003
   59MOL0     N 7882   3.694   4.874  10.093 -1.2178  0.3101 -0.1129
   59MOL0     C 7883   4.903   5.005  10.183 -0.6220 -0.1382 -0.9595
   59MOL0     C 7884   5.036   4.999  10.228  0.7096  0.0580 -0.3683
   59MOL0     C 7885   5.379   4.939  10.512  0.6934  0.2593  0.2784
   59MOL0     C 7886   5.410   4.816  10.579 -0.0074  0.6089 -0.1200
   59MOL0     C 7887   5.544   4.777  10.585 -0.6523 -0.2300 -0.0134
   59MOL0     C 7888   5.645   4.840  10.515  0.1805 -0.2482 -0.8196
   59MOL0     O 7889   5.781   4.802  10.514  0.0517 -0.7633 -0.5555
   59MOL0     C 7890   5.822   4.690  10.597 -0.2503 -0.6149  0.4323
   59MOL0     C 7891   5.970   4.662  10.612  0.6349 -0.5261 -0.2441
   59MOL0     C 7892   6.025   4.641  10.477  0.3327 -0.0215 -1.2171
   59MOL0     C 7893   6.154   4.573  10.491  0.1929  0.3623 -0.0990
   59MOL0     C 7894   6.146   4.436  10.524  0.2184 -0.9242 -0.0608
   59MOL0     C 7895   6.155   4.318  10.535  0.2602 -0.1339 -0.3334
   59MOL0     C 7896   5.611   4.961  10.442  1.0522 -0.4636 -0.1821
   59MOL0     C 7897   5.479   5.017  10.448 -1.1507  0.3370  0.2639
   59MOL0     H 7898   5.001   5.199  10.494  0.8212 -2.0503  0.8319
   59MOL0     H 7899   4.768   5.196  10.429  0.7288  1.1111 -0.1990
   59MOL0     H 7900   4.660   4.965  10.044  0.9246  1.2530  1.0655
   59MOL0     H 7901   4.621   4.864  10.190 -2.2494 -1.7457 -1.1029
   59MOL0     H 7902   4.436   5.018  10.233 -2.0688  0.1893  0.0384
   59MOL0     H 7903   4.466   5.103  10.080 -2.2980 -0.7168 -1.8899
   59MOL0     H 7904   4.441   4.881   9.956 -1.5544 -2.3551 -0.1095
   59MOL0     H 7905   4.366   4.807  10.092 -4.5591 -0.4479 -2.3735
   59MOL0     H 7906   4.193   5.020  10.074 -0.7872 -1.6002 -0.4162
   59MOL0     H 7907   4.259   5.055   9.926 -1.3782 -0.3731 -0.4222
   59MOL0     H 7908   4.240   4.821   9.845 -1.7592 -2.9260 -0.5572
   59MOL0     H 7909   4.170   4.770   9.991 -1.7476  1.7295  0.3400
   59MOL0     H 7910   4.067   5.007   9.836  3.2371 -0.4301  1.0019
   59MOL0     H 7911   4.017   4.841   9.785 -0.8298 -2.1215  2.0287
   59MOL0     H 7912   3.910   4.779   9.951  1.5744 -0.9386 -1.6435
   59MOL0     H 7913   3.946   4.906  10.070  1.4789  3.0573 -1.3776
   59MOL0     H 7914   3.808   4.967   9.812 -1.4838 -0.7663  0.6676
   59MOL0     H 7915   3.850   5.085   9.935 -4.4685  2.9931 -5.1658
   59MOL0     H 7916   3.548   5.066   9.872  1.8334 -2.6533 -2.0499
   59MOL0     H 7917   3.335   5.107  10.077 -4.1646 -0.9807  3.6171
   59MOL0     H 7918   3.295   4.956   9.994 -3.5762 -0.0123  2.0081
   59MOL0     H 7919   3.362   5.014  10.286 -0.0567  3.0643 -2.3925
   59MOL0     H 7920   3.307   4.850  10.234 -2.2297 -0.0093  0.4729
   59MOL0     H 7921   3.094   4.964  10.152 -0.1188 -1.8945  0.3026
   59MOL0     H 7922   3.152   5.110  10.250 -1.7418 -0.8627 -0.9068
   59MOL0     H 7923   2.982   4.973  10.340 -0.4809 -0.9673  2.4787
   59MOL0     H 7924   3.129   4.967  10.444  2.3240 -0.0654 -0.7409
   59MOL0     H 7925   3.159   4.541  10.365 -0.8887 -0.0924 -1.1582
   59MOL0     H 7926   3.100   4.307  10.576  0.7262 -0.6788 -1.2500
   59MOL0     H 7927   2.973   4.256  10.468  0.3698  0.0007  0.0856
   59MOL0     H 7928   3.132   4.312  10.412  0.9128 -3.4728  0.9174
   59MOL0     H 7929   2.817   4.380  10.911  0.8387 -1.3748  1.5901
   59MOL0     H 7930   2.686   4.240  11.092 -2.1130 -1.0935  0.6824
   59MOL0     H 7931   2.505   4.360  11.291  0.3079 -0.9035  0.4085
   59MOL0     H 7932   2.369   4.411  11.183 -2.1045 -1.6350 -0.2138
   59MOL0     H 7933   2.252   4.341  11.378 -1.0423 -2.2271  2.6618
   59MOL0     H 7934   2.260   4.189  11.280  4.0777 -1.9334 -1.0559
   59MOL0     H 7935   2.329   4.233  11.549  0.2256  1.4726 -1.2274
   59MOL0     H 7936   2.490   4.226  11.478 -0.2688 -1.7241  3.1456
   59MOL0     H 7937   2.454   4.014  11.359 -1.2089  2.6896 -1.2523
   59MOL0     H 7938   2.441   4.010  11.535 -3.5143  0.4201  1.5524
   59MOL0     H 7939   2.288   3.855  11.473 -1.5157  0.4363  1.3149
   59MOL0     H 7940   2.252   3.935  11.326  0.4130 -1.0428  0.9885
   59MOL0     H 7941   2.153   4.040  11.594  1.3800 -1.2978  0.5263
   59MOL0     H 7942   2.112   4.103  11.436 -0.4879  0.0018  0.1066
   59MOL0     H 7943   2.068   3.820  11.557 -2.5384  0.6604  1.3726
   59MOL0     H 7944   2.041   3.843  11.386  1.0954 -1.2369  0.4346
   59MOL0     H 7945   1.873   4.007  11.435 -0.0859 -0.8849 -1.4198
   59MOL0     H 7946   1.912   4.003  11.602 -0.1006  0.0580 -0.7818
   59MOL0     H 7947   2.315   4.374  10.933 -0.9085  5.3506 -0.3965
   59MOL0     H 7948   2.442   4.500  10.749 -0.0265 -1.3847 -0.9373
   59MOL0     H 7949   2.754   4.701  10.590  0.2310  3.9132 -2.5097
   59MOL0     H 7950   2.848   4.842  10.458  2.0471  0.7782 -0.4756
   59MOL0     H 7951   4.875   4.939  10.102 -0.2657 -0.5882 -0.7182
   59MOL0     H 7952   5.108   4.933  10.179  0.6016 -0.2993 -0.0503
   59MOL0     H 7953   5.335   4.757  10.631 -0.0432  0.2204 -0.6067
   59MOL0     H 7954   5.582   4.698  10.649 -3.0296 -0.0930  1.6897
   59MOL0     H 7955   5.779   4.713  10.695  1.1139  3.8476  0.2035
   59MOL0     H 7956   5.774   4.595  10.569  2.0355 -1.7083  0.0046
   59MOL0     H 7957   5.979   4.569  10.669  1.3613 -3.3174 -4.4986
   59MOL0     H 7958   6.015   4.753  10.654 -3.0915  3.4752 -3.9396
   59MOL0     H 7959   6.035   4.732  10.416  0.5265  0.0444 -1.0904
   59MOL0     H 7960   5.964   4.566  10.427 -1.7845  0.1283  0.9606
   59MOL0     H 7961   6.226   4.622  10.557  1.5324  0.2499 -1.4322
   59MOL0     H 7962   6.199   4.577  10.391  1.4081  0.2014  0.4172
   59MOL0     H 7963   6.166   4.211  10.529  0.3420 -0.2378  1.3161
   59MOL0     H 7964   5.692   5.009  10.388 -0.2863  3.6590  1.1361
   59MOL0     H 7965   5.461   5.115  10.406 -0.3799  0.9839  1.3922
   60MOL0     O 7966  11.010  10.519   9.934 -0.6623 -0.3742  0.6506
   60MOL0     C 7967  11.097  10.460   9.998 -0.2335  0.2112  0.1691
   60MOL0     O 7968  11.080  10.397  10.126  0.3853 -0.8051 -0.1690
   60MOL0     C 7969  10.962  10.436  10.175  0.5541 -0.8939  0.1892
   60MOL0     C 7970  10.839  10.379  10.121  0.2492  0.3058  0.2606
   60MOL0     C 7971  10.718  10.424  10.169  0.4861 -0.2268 -1.2009
   60MOL0     C 7972  10.718  10.522  10.271 -0.1684 -0.4277  0.4509
   60MOL0     O 7973  10.597  10.580  10.307 -0.3576  0.8943  0.3401
   60MOL0     C 7974  10.545  10.675  10.214 -0.6612 -0.5370  0.1540
   60MOL0     C 7975  10.415  10.735  10.262 -0.5193 -0.1971  0.1749
   60MOL0     C 7976  10.313  10.628  10.317  1.1487  0.2686 -0.0208
   60MOL0     C 7977  10.177  10.649  10.267 -0.5762  0.5070 -0.0546
   60MOL0     C 7978  10.068  10.580  10.343  0.4422 -0.3898 -0.4239
   60MOL0     C 7979   9.927  10.605  10.273  0.2236  0.9805 -0.1208
   60MOL0     C 7980   9.818  10.567  10.379  0.3391  0.1844 -0.5494
   60MOL0     C 7981   9.845  10.442  10.467 -0.1878 -0.0564 -0.0469
   60MOL0     N 7982   9.852  10.316  10.390  0.0266  0.1279  0.5036
   60MOL0     C 7983   9.766  10.289  10.288  0.3253  0.3447  0.0883
   60MOL0     C 7984   9.751  10.151  10.285 -0.6179  0.8729  0.0153
   60MOL0     C 7985   9.662  10.048  10.218 -0.0417  0.0615  0.5449
   60MOL0     C 7986   9.535  10.043  10.303 -0.5867 -0.1935 -0.2111
   60MOL0     C 7987   9.434   9.958  10.234  1.1998  1.0808 -0.7490
   60MOL0     C 7988   9.307   9.977  10.309  0.0034  0.2197 -0.8783
   60MOL0     O 7989   9.213   9.883  10.256  0.0412 -0.1359  0.7224
   60MOL0     C 7990   9.080   9.878  10.303 -0.1530 -0.2770  0.0776
   60MOL0     C 7991   9.046   9.911  10.431  0.1684  0.6236  0.3913
   60MOL0     C 7992   8.907   9.909  10.471 -0.2733 -0.5372 -0.5900
   60MOL0     C 7993   8.874   9.961  10.616 -0.5601  0.3479  0.0549
   60MOL0     C 7994   8.804   9.881  10.378  0.3114 -0.7250  0.4229
   60MOL0     C 7995   8.660   9.887  10.403  0.6420  0.1632  0.0804
   60MOL0     O 7996   8.592   9.829  10.306  0.6854 -0.2689 -0.3464
   60MOL0     C 7997   8.458   9.797  10.306 -0.0425  0.1817 -0.6555
   60MOL0     C 7998   8.413   9.715  10.201  0.0757  0.2575 -1.0504
   60MOL0     C 7999   8.283   9.702  10.169  0.1008 -0.8877 -0.1331
   60MOL0     C 8000   8.192   9.742  10.271  0.1620  0.2002 -0.1155
   60MOL0     O 8001   8.055   9.722  10.252 -0.1746  0.4550  0.2082
   60MOL0     C 8002   7.973   9.833  10.221  0.5296  0.1506 -0.1165
   60MOL0     C 8003   7.832   9.783  10.230 -0.6350 -0.6667 -0.0985
   60MOL0     C 8004   7.725   9.881  10.176  0.2764 -0.3621  0.4974
   60MOL0     C 8005   7.587   9.818  10.180  0.2720  0.4931  0.2298
   60MOL0     C 8006   7.470   9.922  10.170  0.7701 -0.7125 -0.0822
   60MOL0     C 8007   7.476  10.019  10.056  0.1163  0.6573  0.0866
   60MOL0     C 8008   7.350  10.086  10.010 -0.5359  0.6205 -0.2722
   60MOL0     C 8009   7.333  10.084   9.865  0.3460  0.0293 -0.2369
   60MOL0    Cl 8010   7.169  10.127   9.826  0.0911 -0.1562 -0.1383
   60MOL0     C 8011   8.235   9.792  10.395 -0.2034  0.1650 -0.1943
   60MOL0     C 8012   8.365   9.832  10.405 -0.2778  0.2524 -0.8158
   60MOL0     O 8013   8.616   9.969  10.483  0.7767  0.4206 -0.2608
   60MOL0     C 8014   8.847   9.851  10.243 -0.5659 -0.8029  0.2194
   60MOL0     C 8015   8.984   9.850  10.210  0.2889 -0.1160 -0.2092
   60MOL0     N 8016   9.852  10.106  10.362  0.1037  0.9957 -0.7559
   60MOL0     N 8017   9.904  10.203  10.433  0.5454 -0.1786  0.7593
   60MOL0     C 8018  10.838  10.580  10.315 -0.0978  0.5745 -0.2356
   60MOL0     C 8019  10.963  10.529  10.277 -0.9340  0.2590 -0.5554
   60MOL0     C 8020  11.228  10.441   9.926 -0.5580 -0.1050  0.0262
   60MOL0     C 8021  11.255  10.522   9.817 -0.9877 -0.4695  0.2157
   60MOL0     C 8022  11.387  10.530   9.765  0.5929  0.5387 -0.0306
   60MOL0     C 8023  11.487  10.444   9.814  0.0522 -0.6788 -0.7640
   60MOL0     O 8024  11.613  10.434   9.763  0.0292  0.6643  0.2574
   60MOL0     C 8025  11.695  10.541   9.693  0.6764  0.2701 -0.1196
   60MOL0     C 8026  11.832  10.496   9.707 -0.5076  0.5595 -0.4129
   60MOL0     C 8027  11.877  10.548   9.846 -0.6763  0.0058 -0.4167
   60MOL0     C 8028  11.966  10.453   9.911 -0.2695  0.7575 -0.3620
   60MOL0     C 8029  12.074  10.516   9.988 -0.3753 -0.8810 -0.8548
   60MOL0     C 8030  12.161  10.558  10.064  0.7716  0.0122  0.2981
   60MOL0     C 8031  11.453  10.365   9.918  0.1981  0.1201 -0.2132
   60MOL0     C 8032  11.332  10.363   9.979 -0.1722 -0.8256 -0.3170
   60MOL0     H 8033  10.846  10.301  10.046 -1.6577 -1.7071  2.0357
   60MOL0     H 8034  10.622  10.393  10.129 -0.9450  2.3722 -0.0828
   60MOL0     H 8035  10.607  10.765  10.208  0.8333 -1.3080  2.7205
   60MOL0     H 8036  10.529  10.623  10.118 -0.8413  3.2962 -2.1176
   60MOL0     H 8037  10.442  10.805  10.341 -0.5181 -0.4353  0.3842
   60MOL0     H 8038  10.361  10.791  10.185 -3.0436 -1.1510  1.1336
   60MOL0     H 8039  10.345  10.523  10.309  0.9079  0.0390  1.6646
   60MOL0     H 8040  10.306  10.645  10.424 -2.8173  0.2400 -0.1460
   60MOL0     H 8041  10.153  10.756  10.276 -1.8821  0.4863 -2.5737
   60MOL0     H 8042  10.177  10.618  10.162  3.9512 -0.5806  0.0558
   60MOL0     H 8043  10.082  10.472  10.355 -4.2481 -1.0470  1.2811
   60MOL0     H 8044  10.056  10.622  10.444 -0.4641 -0.0997 -0.6463
   60MOL0     H 8045   9.915  10.708  10.238  0.6121  0.9129 -0.4616
   60MOL0     H 8046   9.915  10.540  10.186  0.5207 -0.8743  1.1521
   60MOL0     H 8047   9.810  10.648  10.451 -0.7483  0.3171 -0.7894
   60MOL0     H 8048   9.717  10.554  10.337  1.1188  0.0279 -2.4709
   60MOL0     H 8049   9.755  10.433  10.529  0.1543 -2.7068  0.1548
   60MOL0     H 8050   9.927  10.446  10.539  0.9153 -1.0945 -1.2012
   60MOL0     H 8051   9.699  10.357  10.236  2.5438  1.8853 -0.9209
   60MOL0     H 8052   9.638  10.082  10.117  1.1290  1.9245  0.8367
   60MOL0     H 8053   9.704   9.947  10.213 -0.2067  0.0668 -2.1743
   60MOL0     H 8054   9.486  10.141  10.310  0.2527  0.1072  2.0883
   60MOL0     H 8055   9.565  10.006  10.401  2.0805  2.4899  0.1461
   60MOL0     H 8056   9.467   9.853  10.233  0.8531  0.8555  2.3539
   60MOL0     H 8057   9.407   9.998  10.136  1.5910  2.8240 -0.1859
   60MOL0     H 8058   9.283  10.083  10.305  1.3119  0.5633 -0.2647
   60MOL0     H 8059   9.321   9.945  10.413  2.1043 -0.9292 -1.4626
   60MOL0     H 8060   9.111   9.943  10.512 -2.0503  2.9244  1.3743
   60MOL0     H 8061   8.969   9.983  10.666 -0.5466  0.6695 -0.1083
   60MOL0     H 8062   8.816  10.053  10.610 -0.9763  0.0426 -0.6903
   60MOL0     H 8063   8.817   9.887  10.674  2.3118 -0.6312  1.8379
   60MOL0     H 8064   8.497   9.686  10.137  1.4745 -1.9024  1.5630
   60MOL0     H 8065   8.238   9.660  10.079 -2.2430  0.0510  0.5154
   60MOL0     H 8066   7.980   9.912  10.297  0.9111  0.5367 -0.5447
   60MOL0     H 8067   7.997   9.865  10.119 -0.1581 -1.1137 -0.7024
   60MOL0     H 8068   7.819   9.689  10.175 -0.3718  0.5665 -2.4012
   60MOL0     H 8069   7.807   9.765  10.335 -0.9246  1.2521  0.1854
   60MOL0     H 8070   7.747   9.906  10.071 -2.5296  1.6708  0.2978
   60MOL0     H 8071   7.729   9.971  10.237  0.1999  0.0771 -0.1293
   60MOL0     H 8072   7.578   9.748  10.096  0.0235  0.8664 -0.0596
   60MOL0     H 8073   7.576   9.759  10.271 -0.8180  1.9004  1.0578
   60MOL0     H 8074   7.478   9.986  10.259  0.0288  0.4566 -0.8241
   60MOL0     H 8075   7.377   9.865  10.185  0.7023 -1.6554 -3.3745
   60MOL0     H 8076   7.545  10.096  10.093 -0.4177 -0.3245  3.4160
   60MOL0     H 8077   7.521   9.981   9.964  0.0468  3.8520 -1.4007
   60MOL0     H 8078   7.337  10.186  10.053 -2.1370 -0.2483  1.3615
   60MOL0     H 8079   7.265  10.026  10.043 -0.4066 -0.1221 -1.2639
   60MOL0     H 8080   7.331   9.983   9.823 -2.8450 -0.7974  1.5823
   60MOL0     H 8081   7.405  10.150   9.816  1.2575 -0.8860 -0.1638
   60MOL0     H 8082   8.153   9.810  10.463 -0.6528  0.0168 -0.6908
   60MOL0     H 8083   8.389   9.866  10.505  0.8290 -0.1843 -0.9193
   60MOL0     H 8084   8.769   9.827  10.172  0.3377  1.3029 -1.5878
   60MOL0     H 8085   9.024   9.830  10.111  0.8976 -0.6012  0.1242
   60MOL0     H 8086  10.843  10.661  10.388  1.8188  0.7636 -0.5418
   60MOL0     H 8087  11.060  10.565  10.309  0.7464 -4.4563  0.4362
   60MOL0     H 8088  11.180  10.581   9.765 -0.2791 -1.2668 -1.8084
   60MOL0     H 8089  11.409  10.595   9.681  0.1471  0.5136 -0.1650
   60MOL0     H 8090  11.672  10.552   9.587  2.5372  1.7967 -0.4288
   60MOL0     H 8091  11.674  10.641   9.733 -0.5767  0.8200 -2.0495
   60MOL0     H 8092  11.903  10.532   9.632 -1.7338 -0.1328 -1.9364
   60MOL0     H 8093  11.841  10.387   9.702  1.5261  0.5667  1.2671
   60MOL0     H 8094  11.807  10.566   9.928  1.3619 -1.6214  1.7894
   60MOL0     H 8095  11.925  10.645   9.825  1.4855 -0.5215  1.6887
   60MOL0     H 8096  12.017  10.386   9.841  0.4356  3.6415 -2.8052
   60MOL0     H 8097  11.913  10.383   9.976 -0.2380 -2.5778 -3.5868
   60MOL0     H 8098  12.228  10.596  10.139  0.1788  2.1677 -0.2014
   60MOL0     H 8099  11.536  10.305   9.953 -0.5969 -0.2920  0.9831
   60MOL0     H 8100  11.318  10.298  10.065  0.1763 -0.3959  0.0677
   61MOL0     O 8101   7.596   8.465   0.905  0.1258  0.1149  0.1182
   61MOL0     C 8102   7.592   8.401   1.011  0.2711  0.4550  0.9480
   61MOL0     O 8103   7.489   8.407   1.102  0.1168  0.3065  1.2544
   61MOL0     C 8104   7.389   8.494   1.062  0.5271  0.1204  0.0947
   61MOL0     C 8105   7.412   8.631   1.078  0.5199 -0.3408 -0.0698
   61MOL0     C 8106   7.309   8.724   1.051  0.1180 -0.3725  0.5443
   61MOL0     C 8107   7.179   8.684   1.031  0.3754  0.6824  0.5546
   61MOL0     O 8108   7.072   8.762   1.011  0.2693 -0.1660  0.8453
   61MOL0     C 8109   7.091   8.873   0.926  0.0356 -0.1698  0.2546
   61MOL0     C 8110   6.954   8.942   0.913  0.3535  0.9495  0.3296
   61MOL0     C 8111   6.832   8.847   0.881 -0.2805 -0.8936 -0.6807
   61MOL0     C 8112   6.700   8.923   0.884  0.0061  0.1770 -0.0389
   61MOL0     C 8113   6.582   8.847   0.829 -0.3378  0.5875  0.7553
   61MOL0     C 8114   6.452   8.919   0.806 -0.1667 -0.3906  0.1619
   61MOL0     C 8115   6.451   8.996   0.669 -0.0429 -0.5928 -0.1195
   61MOL0     C 8116   6.314   9.058   0.657  0.3928 -0.5232 -0.0749
   61MOL0     N 8117   6.219   8.973   0.592  0.2175 -0.3165 -0.0049
   61MOL0     C 8118   6.161   8.855   0.634 -0.3144  0.4762  0.6504
   61MOL0     C 8119   6.091   8.811   0.529 -0.4196 -0.4383  0.2736
   61MOL0     C 8120   6.021   8.679   0.520  0.3006  0.1088 -0.1772
   61MOL0     C 8121   5.902   8.677   0.616 -0.6961 -0.9004 -0.1869
   61MOL0     C 8122   5.837   8.544   0.619 -0.0919  0.5915  0.0128
   61MOL0     C 8123   5.709   8.550   0.693  1.0558 -0.5697 -0.9969
   61MOL0     O 8124   5.642   8.419   0.719 -0.0714 -0.2118  0.3911
   61MOL0     C 8125   5.505   8.413   0.717 -0.8094 -0.3898  0.1730
   61MOL0     C 8126   5.462   8.275   0.718  0.5163 -0.0431 -0.5082
   61MOL0     C 8127   5.322   8.256   0.725  0.3328  0.4036 -0.9152
   61MOL0     C 8128   5.277   8.107   0.722  0.3392  0.7297 -0.3314
   61MOL0     C 8129   5.226   8.361   0.732  0.5133  0.7301  0.2658
   61MOL0     C 8130   5.078   8.336   0.734 -0.1548 -1.0946 -0.0947
   61MOL0     O 8131   5.034   8.227   0.676 -0.5858  0.0957 -0.0882
   61MOL0     C 8132   4.897   8.201   0.695  0.4156 -0.5283  0.1252
   61MOL0     C 8133   4.858   8.138   0.814 -0.0467 -0.1262 -0.2437
   61MOL0     C 8134   4.726   8.107   0.834 -0.0444 -0.6861 -0.2974
   61MOL0     C 8135   4.626   8.148   0.735  0.4043  0.7545 -0.7539
   61MOL0     O 8136   4.490   8.111   0.739  0.5178  0.5659 -0.3576
   61MOL0     C 8137   4.457   8.011   0.832  0.6725  0.2374  0.6798
   61MOL0     C 8138   4.312   7.977   0.811  0.1732 -0.0327 -0.2787
   61MOL0     C 8139   4.208   8.079   0.847 -0.1076 -0.7551 -0.7242
   61MOL0     C 8140   4.060   8.053   0.823  0.1457  0.4277  0.0933
   61MOL0     C 8141   3.974   8.172   0.811  0.6422  0.2559 -0.0883
   61MOL0     C 8142   3.819   8.142   0.846 -0.1536  0.1220  0.3169
   61MOL0     C 8143   3.752   8.274   0.826  0.9969  0.0395 -0.7078
   61MOL0     C 8144   3.601   8.255   0.815 -0.6437 -0.3668  0.8882
   61MOL0    Cl 8145   3.533   8.309   0.969 -0.8746 -0.4205  0.0195
   61MOL0     C 8146   4.663   8.210   0.623 -0.1077  0.4719  0.6337
   61MOL0     C 8147   4.803   8.234   0.598 -0.5750 -0.3287  0.8553
   61MOL0     O 8148   5.001   8.427   0.780 -0.2442 -0.3135  0.1335
   61MOL0     C 8149   5.270   8.491   0.734  0.1530 -0.1866  0.6406
   61MOL0     C 8150   5.409   8.521   0.728  0.7177  0.3050  0.6822
   61MOL0     N 8151   6.112   8.900   0.420  0.1701  0.6965  0.9025
   61MOL0     N 8152   6.182   8.998   0.458  0.6779 -0.1903  0.6430
   61MOL0     C 8153   7.155   8.546   1.014  0.2901  0.1038  0.0208
   61MOL0     C 8154   7.264   8.452   1.017 -0.3825  0.2213 -0.0757
   61MOL0     C 8155   7.719   8.330   1.046  0.3245 -0.0005 -0.5219
   61MOL0     C 8156   7.826   8.304   0.955 -0.0833 -0.3155  0.1215
   61MOL0     C 8157   7.940   8.226   0.988 -0.1161  0.2943 -0.0162
   61MOL0     C 8158   7.952   8.185   1.128 -0.1615  0.6014 -0.3938
   61MOL0     O 8159   8.045   8.102   1.174 -0.2266  0.5478 -0.8053
   61MOL0     C 8160   8.178   8.095   1.117  0.8337  0.5250  0.4168
   61MOL0     C 8161   8.241   8.234   1.120 -0.3471  0.3765  0.6887
   61MOL0     C 8162   8.277   8.283   1.262 -0.5656 -0.3028  0.5396
   61MOL0     C 8163   8.379   8.400   1.254  0.5415  0.4921  0.4245
   61MOL0     C 8164   8.399   8.443   1.389  0.5479  0.1177  0.1735
   61MOL0     C 8165   8.401   8.501   1.499  0.4102  0.7925  1.0183
   61MOL0     C 8166   7.846   8.207   1.214  1.2383  0.2817  0.9957
   61MOL0     C 8167   7.729   8.275   1.172  0.1033  0.5125 -1.0317
   61MOL0     H 8168   7.508   8.662   1.118  0.2937 -0.7070  0.7828
   61MOL0     H 8169   7.336   8.825   1.078  2.0923 -0.9137  0.7023
   61MOL0     H 8170   7.165   8.941   0.969 -2.1456  0.6635  3.0093
   61MOL0     H 8171   7.114   8.837   0.825 -1.5863 -2.5348  0.6442
   61MOL0     H 8172   6.931   8.995   1.005 -2.0679 -4.3506  3.1988
   61MOL0     H 8173   6.966   9.018   0.835  0.3628  0.7267  0.1104
   61MOL0     H 8174   6.855   8.809   0.781 -1.9648  0.1943 -1.5168
   61MOL0     H 8175   6.811   8.768   0.953 -2.7467  0.6431  0.4195
   61MOL0     H 8176   6.681   8.970   0.981 -1.2328 -1.1314  0.3831
   61MOL0     H 8177   6.721   8.999   0.808  2.0590 -1.1639 -0.8768
   61MOL0     H 8178   6.616   8.807   0.733 -0.7953  0.0854  0.7944
   61MOL0     H 8179   6.558   8.760   0.892 -4.3433  1.5667  0.8575
   61MOL0     H 8180   6.371   8.847   0.819 -1.1032  0.8212  1.3355
   61MOL0     H 8181   6.441   9.000   0.878  0.4372  0.3213 -0.5261
   61MOL0     H 8182   6.519   9.081   0.680 -2.3086  1.2064  0.8190
   61MOL0     H 8183   6.478   8.933   0.584  3.7277  2.8454 -1.8396
   61MOL0     H 8184   6.324   9.144   0.591 -3.5856  0.8105  0.7510
   61MOL0     H 8185   6.280   9.082   0.759  1.6341 -1.7645  0.6652
   61MOL0     H 8186   6.161   8.812   0.733 -0.6387  4.4409  2.5751
   61MOL0     H 8187   5.985   8.645   0.423  0.6386 -2.4600  0.5222
   61MOL0     H 8188   6.093   8.606   0.559  0.1881 -0.1101 -0.3752
   61MOL0     H 8189   5.831   8.756   0.590  2.3712  1.1515 -3.1769
   61MOL0     H 8190   5.940   8.694   0.717 -2.4735 -1.2693  0.5894
   61MOL0     H 8191   5.905   8.475   0.670 -0.4655  2.1973  2.8862
   61MOL0     H 8192   5.808   8.500   0.523 -0.1145  0.5614  0.0337
   61MOL0     H 8193   5.642   8.612   0.633  1.6895  1.2402  0.0786
   61MOL0     H 8194   5.715   8.608   0.786  1.0273  0.7422 -1.7789
   61MOL0     H 8195   5.533   8.194   0.730  1.0946  0.5810  0.4801
   61MOL0     H 8196   5.214   8.090   0.634 -0.2610 -0.6056  0.3214
   61MOL0     H 8197   5.365   8.042   0.718  0.2148  0.6275 -1.9360
   61MOL0     H 8198   5.214   8.086   0.809  2.7549 -1.1555  1.0859
   61MOL0     H 8199   4.932   8.110   0.888 -2.1502 -1.8705  1.3365
   61MOL0     H 8200   4.708   8.054   0.927  1.1221  1.6149  1.3358
   61MOL0     H 8201   4.527   7.927   0.823  3.1025  2.3381 -2.7210
   61MOL0     H 8202   4.468   8.051   0.933 -0.1625 -0.0287  0.8847
   61MOL0     H 8203   4.298   7.943   0.709  0.2470  0.4978 -0.4708
   61MOL0     H 8204   4.295   7.891   0.876  0.6348 -1.9370 -2.5538
   61MOL0     H 8205   4.226   8.179   0.806 -2.7042  0.7479  1.4845
   61MOL0     H 8206   4.212   8.085   0.956  0.5646  0.0472 -0.7818
   61MOL0     H 8207   4.053   8.003   0.726 -1.7050 -1.9801  1.3569
   61MOL0     H 8208   4.031   7.984   0.903 -0.7848 -0.0922 -0.6680
   61MOL0     H 8209   3.980   8.218   0.712  2.2962  1.6971  0.6520
   61MOL0     H 8210   4.005   8.238   0.892 -0.6053  0.2255  0.4322
   61MOL0     H 8211   3.786   8.066   0.774  2.0379 -1.7130  1.1271
   61MOL0     H 8212   3.807   8.102   0.947  4.9157 -0.3640  0.9641
   61MOL0     H 8213   3.795   8.325   0.740  3.7582  0.0202  0.5462
   61MOL0     H 8214   3.782   8.341   0.907 -1.0286  0.2708 -0.0686
   61MOL0     H 8215   3.572   8.150   0.807  0.3773 -0.6776  1.0457
   61MOL0     H 8216   3.557   8.301   0.726 -0.2544 -1.8408 -0.1048
   61MOL0     H 8217   4.589   8.228   0.545 -0.0840 -0.6308  0.3317
   61MOL0     H 8218   4.846   8.275   0.508  1.7444  1.3123  2.5754
   61MOL0     H 8219   5.196   8.568   0.747  2.5328  1.9210  2.7939
   61MOL0     H 8220   5.454   8.619   0.724  3.1602 -0.7390  0.7625
   61MOL0     H 8221   7.054   8.505   1.012  0.7240 -1.0454  0.6462
   61MOL0     H 8222   7.239   8.347   1.012 -3.2863  0.8601 -0.5250
   61MOL0     H 8223   7.801   8.335   0.854 -1.0997  1.9208  0.9778
   61MOL0     H 8224   8.012   8.197   0.912  1.3232  2.4442  0.4431
   61MOL0     H 8225   8.238   8.025   1.176  0.4124 -0.8768 -0.7404
   61MOL0     H 8226   8.173   8.047   1.018 -1.0483  3.2572 -0.9650
   61MOL0     H 8227   8.182   8.310   1.068  1.2784  1.4658  0.3495
   61MOL0     H 8228   8.329   8.232   1.055 -1.5088 -1.4766 -0.9418
   61MOL0     H 8229   8.308   8.207   1.334  1.3688  1.2863  1.4782
   61MOL0     H 8230   8.183   8.323   1.302 -0.0698  0.3936  1.0192
   61MOL0     H 8231   8.337   8.485   1.199 -1.8756  0.8882  2.7141
   61MOL0     H 8232   8.468   8.376   1.194 -0.7242  0.4340 -1.5211
   61MOL0     H 8233   8.388   8.554   1.591  0.7832  1.0458  0.9239
   61MOL0     H 8234   7.852   8.155   1.309  3.8263  0.1851  0.8320
   61MOL0     H 8235   7.655   8.280   1.251  0.4269 -1.0837 -0.5956
   62MOL0     O 8236   0.212   3.161  10.181 -0.5379  0.1317 -0.4959
   62MOL0     C 8237   0.152   3.271  10.209 -0.1089 -0.5179 -0.4633
   62MOL0     O 8238   0.157   3.375  10.120  0.2203 -0.0992 -0.1799
   62MOL0     C 8239   0.254   3.390  10.027 -0.4001 -0.6820  0.9119
   62MOL0     C 8240   0.388   3.342  10.045  0.3103 -0.1277  1.2060
   62MOL0     C 8241   0.470   3.338   9.933  0.5863 -0.6066 -1.1228
   62MOL0     C 8242   0.434   3.405   9.811  0.1323 -0.7884 -0.2608
   62MOL0     O 8243   0.507   3.394   9.697  0.1433  0.2364 -0.0395
   62MOL0     C 8244   0.638   3.331   9.684  0.6956  0.1729 -0.7547
   62MOL0     C 8245   0.703   3.363   9.545  0.7145 -0.3505 -0.7026
   62MOL0     C 8246   0.710   3.512   9.510  0.6487 -0.0227  0.2024
   62MOL0     C 8247   0.856   3.561   9.514  0.4977  0.8958 -0.3717
   62MOL0     C 8248   0.860   3.714   9.541 -0.4645 -0.3340  0.3668
   62MOL0     C 8249   0.998   3.766   9.519  0.0163 -0.3422 -0.5067
   62MOL0     C 8250   1.004   3.923   9.534 -0.1660  0.2356 -0.5764
   62MOL0     C 8251   0.975   3.993   9.676 -0.5832  0.3027  0.2159
   62MOL0     N 8252   1.065   3.961   9.789 -1.3034 -0.7756  0.2407
   62MOL0     C 8253   1.206   3.954   9.782  0.1182  0.1912 -0.1050
   62MOL0     C 8254   1.245   3.919   9.900 -1.0243 -0.5070  0.1614
   62MOL0     C 8255   1.387   3.888   9.945 -0.6107 -0.3047 -0.0407
   62MOL0     C 8256   1.409   3.737   9.956 -0.8008 -0.2003 -0.0083
   62MOL0     C 8257   1.530   3.674   9.881 -0.0075 -0.1455  0.1351
   62MOL0     C 8258   1.522   3.674   9.728 -0.6482  0.8782  0.5177
   62MOL0     O 8259   1.424   3.576   9.704 -0.2107 -0.3708  0.2353
   62MOL0     C 8260   1.373   3.561   9.579  0.4567  0.3741  0.4830
   62MOL0     C 8261   1.423   3.603   9.462 -0.3353 -0.6223 -0.0298
   62MOL0     C 8262   1.358   3.583   9.337  0.4444 -0.6743 -0.6819
   62MOL0     C 8263   1.421   3.636   9.218 -0.6075 -0.8628  0.0450
   62MOL0     C 8264   1.246   3.500   9.327  1.0124 -0.2535 -0.0426
   62MOL0     C 8265   1.179   3.450   9.201  0.4711  0.6853 -0.6762
   62MOL0     O 8266   1.048   3.405   9.211 -0.0739 -0.0818  0.4934
   62MOL0     C 8267   0.971   3.401   9.088 -0.4256 -0.2327 -1.2362
   62MOL0     C 8268   0.843   3.446   9.097  0.1750 -0.6368  0.4165
   62MOL0     C 8269   0.758   3.448   8.989 -0.8642 -0.0866  0.2479
   62MOL0     C 8270   0.815   3.406   8.866  0.3704 -0.4133  1.3054
   62MOL0     O 8271   0.740   3.397   8.747  0.2758 -0.2447 -0.9373
   62MOL0     C 8272   0.616   3.478   8.743  0.7127 -0.1369  0.5844
   62MOL0     C 8273   0.515   3.390   8.660  0.1048  0.2532 -0.2678
   62MOL0     C 8274   0.369   3.416   8.674 -0.0369  0.4168  0.2651
   62MOL0     C 8275   0.312   3.372   8.805 -0.6793  1.6443  0.0694
   62MOL0     C 8276   0.162   3.388   8.803 -0.6750 -0.1465  0.2022
   62MOL0     C 8277   0.108   3.396   8.946 -0.7655 -0.1031  0.4081
   62MOL0     C 8278  -0.027   3.453   8.936 -0.6374  1.0353  0.3881
   62MOL0     C 8279  -0.100   3.432   9.063  0.0064 -0.2973  0.0943
   62MOL0    Cl 8280  -0.277   3.498   9.066 -0.0898 -0.4804 -0.0669
   62MOL0     C 8281   0.945   3.368   8.851  0.5484 -0.3897 -0.1889
   62MOL0     C 8282   1.016   3.354   8.968 -0.4098  0.5469  0.3209
   62MOL0     O 8283   1.248   3.459   9.095 -0.3214 -0.0889  0.5446
   62MOL0     C 8284   1.188   3.456   9.451  0.1672  0.6754  0.5962
   62MOL0     C 8285   1.257   3.484   9.569 -0.2544  0.4301  0.2446
   62MOL0     N 8286   1.137   3.931   9.981 -0.2656  0.2189  0.4001
   62MOL0     N 8287   1.029   3.964   9.920 -0.5162 -0.6478 -0.0885
   62MOL0     C 8288   0.305   3.466   9.804  0.1824 -0.4446 -0.2258
   62MOL0     C 8289   0.219   3.466   9.914  0.0879 -0.5753  0.3176
   62MOL0     C 8290   0.075   3.292  10.335 -0.6962  0.0750  0.5174
   62MOL0     C 8291   0.044   3.415  10.383  0.0740  0.3009 -0.3057
   62MOL0     C 8292  -0.046   3.442  10.488  0.0174  0.2187 -0.4249
   62MOL0     C 8293  -0.088   3.331  10.557  0.2905  0.3535 -0.5560
   62MOL0     O 8294  -0.167   3.332  10.666  0.0590 -0.2308 -0.0218
   62MOL0     C 8295  -0.272   3.431  10.675 -0.1516 -0.6177  0.5630
   62MOL0     C 8296  -0.404   3.385  10.610 -0.1187  0.4818  0.0977
   62MOL0     C 8297  -0.468   3.261  10.667 -0.6160  0.8923 -0.5098
   62MOL0     C 8298  -0.618   3.264  10.667  0.3665 -0.1806 -0.5838
   62MOL0     C 8299  -0.690   3.265  10.539 -0.6882 -0.5046  0.4636
   62MOL0     C 8300  -0.739   3.247  10.434  0.7623  0.4609  0.4648
   62MOL0     C 8301  -0.064   3.199  10.505  0.4758 -0.7194 -0.9052
   62MOL0     C 8302   0.012   3.172  10.396 -0.0982 -0.1242  0.4581
   62MOL0     H 8303   0.413   3.303  10.144 -0.3324  1.7868  2.1825
   62MOL0     H 8304   0.565   3.286   9.950  0.4111 -0.7194 -0.4549
   62MOL0     H 8305   0.715   3.363   9.754 -0.3268  1.5432 -0.2044
   62MOL0     H 8306   0.620   3.224   9.686 -1.3677  0.4863  0.9461
   62MOL0     H 8307   0.801   3.314   9.549  0.8021 -0.1223  0.3862
   62MOL0     H 8308   0.653   3.302   9.469  1.9820 -2.2645 -0.0827
   62MOL0     H 8309   0.676   3.519   9.406  0.5807 -1.7649  0.0873
   62MOL0     H 8310   0.640   3.574   9.567 -2.3778  0.2679 -3.4344
   62MOL0     H 8311   0.914   3.512   9.592  1.0951  0.8012 -0.8652
   62MOL0     H 8312   0.894   3.544   9.412 -1.0577  3.1808 -1.4232
   62MOL0     H 8313   0.797   3.763   9.465  1.4919  1.3659 -0.2283
   62MOL0     H 8314   0.811   3.736   9.636  1.0667  1.9472  0.6969
   62MOL0     H 8315   1.059   3.708   9.589  1.9807  1.3154 -0.7536
   62MOL0     H 8316   1.040   3.740   9.421  0.2392 -0.1129 -0.4712
   62MOL0     H 8317   1.105   3.953   9.504  1.5440 -1.6830  2.6506
   62MOL0     H 8318   0.936   3.961   9.457 -2.6586 -3.8204 -0.6441
   62MOL0     H 8319   0.871   3.973   9.701 -0.2773 -1.8556 -0.1076
   62MOL0     H 8320   0.979   4.098   9.643 -1.6458  0.1512 -0.4452
   62MOL0     H 8321   1.271   3.963   9.695 -1.8445 -0.8242 -1.7809
   62MOL0     H 8322   1.465   3.935   9.884  1.6250 -1.9292  1.4028
   62MOL0     H 8323   1.407   3.940  10.039  0.3624 -0.7009 -0.0112
   62MOL0     H 8324   1.329   3.672   9.920  0.2127 -0.5215 -1.7933
   62MOL0     H 8325   1.421   3.725  10.064  1.3262 -1.0762 -0.3006
   62MOL0     H 8326   1.541   3.569   9.907  0.8461 -1.0268 -3.3052
   62MOL0     H 8327   1.623   3.716   9.918  1.6596 -3.5772  0.2113
   62MOL0     H 8328   1.612   3.634   9.681  0.0784  2.6061  0.3654
   62MOL0     H 8329   1.499   3.772   9.685  0.7119  0.6209 -0.8527
   62MOL0     H 8330   1.513   3.662   9.457 -0.4217 -0.5766 -2.1134
   62MOL0     H 8331   1.486   3.721   9.239 -2.5036  0.8445 -0.7178
   62MOL0     H 8332   1.480   3.557   9.170 -1.1827 -0.4663 -1.3470
   62MOL0     H 8333   1.348   3.687   9.155  1.7140  2.3931 -0.2361
   62MOL0     H 8334   0.804   3.466   9.196  0.5557  1.4554  0.1879
   62MOL0     H 8335   0.656   3.484   9.002 -1.2190  0.3412 -2.8569
   62MOL0     H 8336   0.567   3.497   8.839 -1.9172 -0.5100 -0.6034
   62MOL0     H 8337   0.635   3.575   8.697 -0.0044 -0.9558 -1.5395
   62MOL0     H 8338   0.529   3.416   8.554 -0.8901  0.0981 -0.4553
   62MOL0     H 8339   0.526   3.282   8.672  0.0312  0.1214 -1.2910
   62MOL0     H 8340   0.315   3.358   8.599  0.9648  1.1545 -1.0903
   62MOL0     H 8341   0.347   3.522   8.658  0.4872  0.1357 -3.1618
   62MOL0     H 8342   0.329   3.267   8.830 -3.8163  0.2547 -2.7481
   62MOL0     H 8343   0.350   3.432   8.888  2.3697  0.6849 -0.5240
   62MOL0     H 8344   0.125   3.301   8.748  0.6368 -0.2724 -0.5197
   62MOL0     H 8345   0.137   3.481   8.751 -2.0585  0.6598  2.1952
   62MOL0     H 8346   0.098   3.294   8.984  0.2648 -0.2639  0.2658
   62MOL0     H 8347   0.178   3.449   9.011  3.5931 -2.0796 -2.2412
   62MOL0     H 8348  -0.080   3.390   8.864  1.7739  0.5535 -1.1104
   62MOL0     H 8349  -0.023   3.555   8.897 -1.4656  1.0549  0.3473
   62MOL0     H 8350  -0.036   3.476   9.140  1.6661  0.8951 -1.8581
   62MOL0     H 8351  -0.097   3.324   9.079  0.7462 -0.2160  0.5326
   62MOL0     H 8352   0.984   3.322   8.761 -0.3499 -1.0176 -0.2692
   62MOL0     H 8353   1.111   3.302   8.955  0.2137  1.5413  0.8551
   62MOL0     H 8354   1.105   3.386   9.455 -1.1906  2.0442 -1.5770
   62MOL0     H 8355   1.236   3.446   9.669 -1.5035  1.8184  0.5495
   62MOL0     H 8356   0.271   3.518   9.715  0.2307 -0.0191  0.0047
   62MOL0     H 8357   0.127   3.524   9.919  3.0735  4.8514  0.3814
   62MOL0     H 8358   0.087   3.501  10.332  3.3640 -0.5753  0.7616
   62MOL0     H 8359  -0.063   3.547  10.510 -2.8495 -0.1062 -0.6712
   62MOL0     H 8360  -0.290   3.453  10.781  0.2948 -2.5792  1.0892
   62MOL0     H 8361  -0.242   3.530  10.640 -1.0974 -0.2793  0.6898
   62MOL0     H 8362  -0.386   3.379  10.502  2.3275  0.0127  0.4714
   62MOL0     H 8363  -0.471   3.471  10.612  0.5496  1.2114 -2.9673
   62MOL0     H 8364  -0.428   3.251  10.768  0.7089 -3.0259 -1.2722
   62MOL0     H 8365  -0.434   3.175  10.609 -2.2359  0.0467 -0.2690
   62MOL0     H 8366  -0.645   3.357  10.718  0.7268 -0.2593 -0.2480
   62MOL0     H 8367  -0.661   3.185  10.729 -0.9124  2.4241  2.0559
   62MOL0     H 8368  -0.788   3.248  10.339 -0.3839  1.6931  1.0395
   62MOL0     H 8369  -0.115   3.120  10.559  0.1796  0.0956  0.0552
   62MOL0     H 8370   0.037   3.074  10.358  0.4704 -0.6065  2.0324
   63MOL0     O 8371   5.167   5.897  10.105  0.3973  0.5802  0.2241
   63MOL0     C 8372   5.188   5.788  10.061 -0.6112 -0.7598 -0.6959
   63MOL0     O 8373   5.101   5.716   9.994  0.6750  0.7049 -0.2224
   63MOL0     C 8374   4.968   5.749  10.011 -0.0785  0.6522  0.4598
   63MOL0     C 8375   4.913   5.781  10.140  0.1136  0.5010  0.9459
   63MOL0     C 8376   4.778   5.784  10.153  0.0669  0.7711  0.1209
   63MOL0     C 8377   4.700   5.783  10.041  0.0936 -0.0386 -0.5425
   63MOL0     O 8378   4.564   5.820  10.042  0.1261  0.9239  0.0726
   63MOL0     C 8379   4.477   5.701  10.039 -0.2339  0.5426  0.1802
   63MOL0     C 8380   4.375   5.725  10.155 -0.2291 -0.4208 -0.8244
   63MOL0     C 8381   4.226   5.692  10.145 -0.7844  0.0588  0.3530
   63MOL0     C 8382   4.175   5.777  10.017  0.6305  0.3668 -0.6796
   63MOL0     C 8383   4.033   5.721   9.986  0.5226 -0.3431  0.6978
   63MOL0     C 8384   3.971   5.796   9.867  0.1058 -0.3924 -0.0993
   63MOL0     C 8385   4.032   5.752   9.738 -0.0231  0.4085  0.5828
   63MOL0     C 8386   3.916   5.723   9.642 -0.4144  1.1161 -0.0412
   63MOL0     N 8387   3.964   5.681   9.510  0.0180  0.5106 -0.0318
   63MOL0     C 8388   4.071   5.738   9.437  0.2582  0.0650 -0.5304
   63MOL0     C 8389   4.079   5.651   9.329 -0.0573 -0.0351  0.1948
   63MOL0     C 8390   4.158   5.668   9.199  0.5998 -0.9695 -0.1054
   63MOL0     C 8391   4.306   5.680   9.226 -0.4005 -0.8497  0.1057
   63MOL0     C 8392   4.344   5.549   9.307  0.0162  0.6265 -0.2950
   63MOL0     C 8393   4.488   5.507   9.292  0.0321  0.1783 -0.6762
   63MOL0     O 8394   4.525   5.524   9.148 -0.1383 -0.4899 -0.5369
   63MOL0     C 8395   4.654   5.533   9.098  0.3412  0.3165  0.4911
   63MOL0     C 8396   4.672   5.526   8.957  0.5237 -0.4662 -0.2729
   63MOL0     C 8397   4.799   5.524   8.891  0.2631  0.1080  0.2975
   63MOL0     C 8398   4.794   5.489   8.745 -1.0760 -0.6632  0.1023
   63MOL0     C 8399   4.912   5.529   8.975 -1.2404 -0.5875 -0.0180
   63MOL0     C 8400   5.060   5.526   8.925  0.4110 -0.1265 -0.5212
   63MOL0     O 8401   5.154   5.561   9.021  0.4692 -0.4857 -0.0369
   63MOL0     C 8402   5.283   5.582   8.972  1.1236  0.1196 -0.4469
   63MOL0     C 8403   5.363   5.477   8.915  0.8729  0.1132  0.2785
   63MOL0     C 8404   5.507   5.505   8.887 -0.8904 -0.5728  0.0534
   63MOL0     C 8405   5.558   5.634   8.903  0.3079  0.7484 -0.1495
   63MOL0     O 8406   5.686   5.685   8.881 -0.0047 -0.0350  0.6792
   63MOL0     C 8407   5.792   5.600   8.837 -0.6352  0.3938  0.6026
   63MOL0     C 8408   5.922   5.672   8.825 -0.5362  0.4953  0.1653
   63MOL0     C 8409   5.932   5.792   8.734 -0.2209 -0.2808 -0.2107
   63MOL0     C 8410   6.037   5.755   8.632  0.3990 -0.0885  0.2071
   63MOL0     C 8411   6.092   5.882   8.554  0.7303  0.4365  0.3587
   63MOL0     C 8412   6.206   5.843   8.457  0.5922  0.2291 -0.4296
   63MOL0     C 8413   6.332   5.858   8.534 -0.1163 -0.8770 -0.1498
   63MOL0     C 8414   6.456   5.816   8.456  0.0147  0.7338  0.2648
   63MOL0    Cl 8415   6.586   5.798   8.576 -0.1204  0.4394 -0.3127
   63MOL0     C 8416   5.473   5.733   8.954 -0.2040 -0.0914 -0.3222
   63MOL0     C 8417   5.335   5.711   8.985  0.3152  0.6157 -0.6343
   63MOL0     O 8418   5.079   5.495   8.806 -0.5306  0.5493 -0.2886
   63MOL0     C 8419   4.894   5.539   9.115 -0.1355  0.3482 -0.9271
   63MOL0     C 8420   4.771   5.542   9.173  0.6180 -0.4994 -1.2695
   63MOL0     N 8421   3.981   5.557   9.345  0.6168  0.8461  1.0226
   63MOL0     N 8422   3.926   5.568   9.453  1.0866 -0.9595 -0.2085
   63MOL0     C 8423   4.759   5.753   9.912  1.1107 -0.3948 -0.1339
   63MOL0     C 8424   4.892   5.737   9.898 -0.3437 -0.1206 -0.0548
   63MOL0     C 8425   5.316   5.718  10.096 -0.1592 -0.2866  0.3124
   63MOL0     C 8426   5.333   5.576  10.067 -0.0421 -0.3946  0.1706
   63MOL0     C 8427   5.445   5.513  10.100 -0.1571 -0.1169 -0.7123
   63MOL0     C 8428   5.545   5.576  10.175 -0.5552 -0.4352  0.6194
   63MOL0     O 8429   5.652   5.502  10.211  0.1648  0.3758  0.3854
   63MOL0     C 8430   5.777   5.564  10.186 -1.2079 -0.1509 -0.0374
   63MOL0     C 8431   5.894   5.468  10.213 -0.3387 -0.6226 -0.1668
   63MOL0     C 8432   6.021   5.547  10.200 -0.5132 -0.0210  0.7546
   63MOL0     C 8433   6.161   5.468  10.186 -0.3686 -0.4176  0.0351
   63MOL0     C 8434   6.268   5.571  10.191  0.5199  1.6858 -0.3401
   63MOL0     C 8435   6.346   5.659  10.181 -0.5741  0.9135 -0.9849
   63MOL0     C 8436   5.526   5.711  10.221 -0.0753  0.2277  0.4761
   63MOL0     C 8437   5.415   5.788  10.170  0.0305  0.2194 -0.0981
   63MOL0     H 8438   4.971   5.769  10.231  2.7933  1.2363 -0.5544
   63MOL0     H 8439   4.736   5.792  10.253  0.0050 -0.2792  0.1862
   63MOL0     H 8440   4.434   5.709   9.938  2.0780  3.9882 -0.6885
   63MOL0     H 8441   4.539   5.612  10.056  1.6240  1.8106  0.2544
   63MOL0     H 8442   4.422   5.659  10.230  2.1861 -0.0784 -1.9271
   63MOL0     H 8443   4.391   5.827  10.194  2.8294 -0.6523 -1.2381
   63MOL0     H 8444   4.206   5.585  10.135 -0.0590  0.0523 -1.3404
   63MOL0     H 8445   4.177   5.723  10.238  1.8783  3.4728  0.8049
   63MOL0     H 8446   4.175   5.882  10.048 -0.0424  0.2494 -0.2700
   63MOL0     H 8447   4.237   5.760   9.929  0.8853  0.5528 -0.5387
   63MOL0     H 8448   4.038   5.614   9.962 -0.7433 -0.1620 -0.4734
   63MOL0     H 8449   3.963   5.729  10.069  0.7711 -1.4860  1.0373
   63MOL0     H 8450   3.863   5.782   9.857 -0.1861  2.6372 -3.5861
   63MOL0     H 8451   3.999   5.901   9.878  3.7987 -1.5284  4.4920
   63MOL0     H 8452   4.103   5.826   9.698 -0.4202 -0.3457 -1.6374
   63MOL0     H 8453   4.084   5.658   9.758 -2.0346 -0.4713  2.0447
   63MOL0     H 8454   3.852   5.811   9.633  0.8500  2.1003  0.3938
   63MOL0     H 8455   3.858   5.641   9.684  0.1332  1.2821  1.0681
   63MOL0     H 8456   4.125   5.828   9.464  0.4883 -0.1529 -0.2523
   63MOL0     H 8457   4.139   5.574   9.147 -1.0067  0.2791 -1.8835
   63MOL0     H 8458   4.119   5.749   9.138  2.0094  0.1968  0.4846
   63MOL0     H 8459   4.315   5.775   9.279 -0.9634 -1.2601  0.9627
   63MOL0     H 8460   4.356   5.686   9.129  2.2733  0.9418  1.4978
   63MOL0     H 8461   4.294   5.462   9.263  3.1044 -1.1305 -0.5720
   63MOL0     H 8462   4.319   5.554   9.413 -0.6610  3.3756 -0.5104
   63MOL0     H 8463   4.485   5.403   9.324 -1.5474  0.1392 -0.8584
   63MOL0     H 8464   4.570   5.539   9.357  1.6353 -1.9146 -1.5596
   63MOL0     H 8465   4.588   5.512   8.890  2.0393 -0.9520 -2.2030
   63MOL0     H 8466   4.718   5.540   8.685 -2.4116  0.1206  2.3450
   63MOL0     H 8467   4.883   5.486   8.682 -0.9004 -2.5091  0.3744
   63MOL0     H 8468   4.766   5.385   8.763  2.3826 -1.2399  3.3636
   63MOL0     H 8469   5.327   5.376   8.897 -0.2775  0.6539 -0.5713
   63MOL0     H 8470   5.576   5.431   8.847  1.0129  1.8752 -1.5612
   63MOL0     H 8471   5.794   5.520   8.911 -3.0766  1.2092  1.6789
   63MOL0     H 8472   5.771   5.559   8.738  0.4255 -0.8936  0.8852
   63MOL0     H 8473   5.937   5.700   8.930  1.2459 -0.7853  0.3031
   63MOL0     H 8474   6.008   5.604   8.818  0.5511  1.9509 -1.4279
   63MOL0     H 8475   5.949   5.890   8.780 -3.7313  0.4430 -0.1990
   63MOL0     H 8476   5.839   5.808   8.678 -0.2782  2.7609  0.5692
   63MOL0     H 8477   6.124   5.707   8.677 -0.3868  0.6891  2.7285
   63MOL0     H 8478   5.988   5.677   8.573 -1.2548  0.4994  0.7342
   63MOL0     H 8479   6.133   5.961   8.618 -0.0529  1.5005 -0.4076
   63MOL0     H 8480   6.016   5.940   8.501 -0.6269  0.0769  1.8270
   63MOL0     H 8481   6.193   5.740   8.424  0.7997  0.2361 -0.5334
   63MOL0     H 8482   6.198   5.905   8.367 -0.7938 -1.5204 -1.5818
   63MOL0     H 8483   6.322   5.803   8.628 -3.4853  2.0550  1.4482
   63MOL0     H 8484   6.351   5.964   8.555  1.9239 -1.3741  0.6977
   63MOL0     H 8485   6.471   5.884   8.372 -4.2411 -1.2225 -2.3906
   63MOL0     H 8486   6.432   5.723   8.404 -1.3694  1.2207 -0.0050
   63MOL0     H 8487   5.518   5.832   8.958 -0.2942  0.2604 -4.0733
   63MOL0     H 8488   5.277   5.793   9.025  0.8519 -0.2322  2.1156
   63MOL0     H 8489   4.981   5.537   9.179 -0.9291  0.4103  0.1847
   63MOL0     H 8490   4.761   5.537   9.281  3.2385 -2.1572 -0.9971
   63MOL0     H 8491   4.702   5.745   9.821 -0.4774  0.3100  0.7652
   63MOL0     H 8492   4.947   5.705   9.810  2.2053 -0.1833  1.4723
   63MOL0     H 8493   5.255   5.518  10.018  2.5085 -2.2175 -2.0640
   63MOL0     H 8494   5.455   5.408  10.075  2.4603  0.4216 -2.2557
   63MOL0     H 8495   5.785   5.591  10.081  3.3342  1.8484  0.5657
   63MOL0     H 8496   5.787   5.662  10.235  1.8354  0.6224 -1.9379
   63MOL0     H 8497   5.895   5.390  10.136 -1.5709  1.6309 -2.6386
   63MOL0     H 8498   5.889   5.427  10.314  1.1248 -0.1670  0.1160
   63MOL0     H 8499   6.034   5.617  10.283  1.6590 -1.3249  1.5766
   63MOL0     H 8500   6.012   5.609  10.110  2.5104  0.7497  0.8760
   63MOL0     H 8501   6.162   5.416  10.090  0.8909 -0.6326  0.1561
   63MOL0     H 8502   6.164   5.402  10.272  0.8671  0.4072  0.6504
   63MOL0     H 8503   6.420   5.736  10.172  2.8016 -2.1222 -1.2431
   63MOL0     H 8504   5.601   5.761  10.282  4.0016 -2.1714 -2.1133
   63MOL0     H 8505   5.409   5.891  10.201  3.2887  0.9999 -1.6784
   64MOL0     O 8506   3.716   8.766   4.883  1.0431  0.0440  0.2625
   64MOL0     C 8507   3.676   8.735   4.996  0.3414 -0.1117  0.0658
   64MOL0     O 8508   3.736   8.784   5.115 -0.5070 -0.5063  0.4155
   64MOL0     C 8509   3.860   8.837   5.106  0.9218  0.1563 -0.1165
   64MOL0     C 8510   3.966   8.772   5.038  0.3193 -0.1478 -0.5331
   64MOL0     C 8511   4.087   8.842   5.030  0.4043  0.5381  0.0460
   64MOL0     C 8512   4.103   8.966   5.091 -0.4901 -0.6045 -0.3022
   64MOL0     O 8513   4.227   9.025   5.075 -0.8665 -0.6734  0.2200
   64MOL0     C 8514   4.227   9.168   5.057 -1.0443  0.6808  0.7261
   64MOL0     C 8515   4.302   9.233   5.174 -0.3824  0.4195  0.3096
   64MOL0     C 8516   4.285   9.380   5.189 -0.4815  0.1346  0.1622
   64MOL0     C 8517   4.140   9.420   5.237 -0.4808 -0.4034  0.3175
   64MOL0     C 8518   4.124   9.580   5.240 -0.0737  0.1624  0.5954
   64MOL0     C 8519   3.991   9.612   5.299 -0.4527  0.4695  0.1167
   64MOL0     C 8520   3.973   9.751   5.355  0.4241 -0.0861  0.6227
   64MOL0     C 8521   3.843   9.757   5.432 -0.7623 -0.0213  0.2154
   64MOL0     N 8522   3.728   9.700   5.363 -0.0028  0.2677  0.3647
   64MOL0     C 8523   3.634   9.767   5.295  0.6962  0.8371 -0.6909
   64MOL0     C 8524   3.535   9.687   5.264  0.4290 -0.3633  0.3950
   64MOL0     C 8525   3.404   9.727   5.207 -0.3230  0.4532  0.2559
   64MOL0     C 8526   3.394   9.664   5.064 -0.1318 -0.2609 -0.7977
   64MOL0     C 8527   3.426   9.776   4.967  0.6361  0.1389  0.2598
   64MOL0     C 8528   3.464   9.723   4.834 -0.4970 -0.8844 -0.1747
   64MOL0     O 8529   3.356   9.652   4.790  0.5697  0.1957  0.4691
   64MOL0     C 8530   3.239   9.718   4.751  0.4652 -0.2064  0.1813
   64MOL0     C 8531   3.230   9.796   4.632  0.0019 -0.1713 -0.1533
   64MOL0     C 8532   3.117   9.866   4.603 -0.3322 -0.3226  0.3689
   64MOL0     C 8533   3.118   9.960   4.489 -0.6553 -0.2865  0.1759
   64MOL0     C 8534   3.005   9.865   4.690 -0.9654  0.8223  0.1187
   64MOL0     C 8535   2.876   9.924   4.661  0.3236  0.5655 -0.6282
   64MOL0     O 8536   2.867  10.060   4.659 -0.3491 -0.3221  0.7278
   64MOL0     C 8537   2.742  10.104   4.616  0.7957  0.6161 -0.1036
   64MOL0     C 8538   2.736  10.180   4.500  0.4595  0.0682 -0.6326
   64MOL0     C 8539   2.617  10.233   4.453  0.8823 -0.4112  0.0498
   64MOL0     C 8540   2.498  10.203   4.517  0.6148 -0.9008  0.3476
   64MOL0     O 8541   2.379  10.244   4.453 -0.1565 -0.3482 -0.0581
   64MOL0     C 8542   2.254  10.221   4.509  0.2564  0.4488 -0.0441
   64MOL0     C 8543   2.144  10.277   4.425  0.9954  0.0566  0.1149
   64MOL0     C 8544   2.122  10.203   4.292  0.0970  0.1252 -0.3712
   64MOL0     C 8545   1.988  10.247   4.242  0.5111 -1.1230  0.0332
   64MOL0     C 8546   1.948  10.185   4.110  0.2292  0.3823  0.3140
   64MOL0     C 8547   1.812  10.223   4.068  0.0112  0.0136  0.2778
   64MOL0     C 8548   1.789  10.198   3.916 -0.3614  1.0402 -0.0741
   64MOL0     C 8549   1.702  10.297   3.843  0.0882 -0.7184 -0.4031
   64MOL0    Cl 8550   1.535  10.286   3.905  0.1477 -0.6553  0.2094
   64MOL0     C 8551   2.500  10.124   4.637  0.1554 -0.2773  0.0541
   64MOL0     C 8552   2.625  10.089   4.685 -0.7317  0.1690 -0.8634
   64MOL0     O 8553   2.787   9.842   4.637 -0.4212 -0.2344  0.1279
   64MOL0     C 8554   3.000   9.763   4.788  0.5675 -0.2509 -0.2069
   64MOL0     C 8555   3.120   9.697   4.818  1.1489  0.3665  0.0491
   64MOL0     N 8556   3.575   9.561   5.308 -0.1618  0.3592  0.1835
   64MOL0     N 8557   3.690   9.570   5.364  0.4577  0.1112 -0.4075
   64MOL0     C 8558   4.004   9.018   5.166 -0.9835  0.3222  0.6947
   64MOL0     C 8559   3.880   8.957   5.178  0.4209  0.9460 -0.2468
   64MOL0     C 8560   3.550   8.664   5.013 -1.0931 -0.7385 -0.1816
   64MOL0     C 8561   3.511   8.648   5.146  0.0503  0.1509 -0.4976
   64MOL0     C 8562   3.397   8.565   5.174 -0.6729 -0.6148 -0.1580
   64MOL0     C 8563   3.322   8.507   5.078  0.6053 -0.6114  1.0175
   64MOL0     O 8564   3.212   8.423   5.093 -0.4029  0.4651  0.5089
   64MOL0     C 8565   3.102   8.457   5.169 -0.1563  0.3731 -0.3736
   64MOL0     C 8566   3.048   8.599   5.121  0.3898 -2.1080  0.2385
   64MOL0     C 8567   3.089   8.712   5.214 -0.1732 -0.3185 -0.1297
   64MOL0     C 8568   2.997   8.829   5.213  0.1775 -0.3803 -0.1452
   64MOL0     C 8569   2.875   8.802   5.292 -0.9363 -1.1149  0.3808
   64MOL0     C 8570   2.787   8.767   5.365  0.6788  0.6064 -0.3984
   64MOL0     C 8571   3.350   8.546   4.945 -0.5006 -0.7991  0.7131
   64MOL0     C 8572   3.467   8.613   4.913  0.6509  0.1091  0.2692
   64MOL0     H 8573   3.956   8.675   4.990  1.2028 -1.1070  1.1454
   64MOL0     H 8574   4.173   8.809   4.973  0.1386 -1.4728  0.7299
   64MOL0     H 8575   4.281   9.177   4.962  0.2632  1.1845  1.4870
   64MOL0     H 8576   4.122   9.200   5.058 -1.7614 -1.2757  4.7481
   64MOL0     H 8577   4.272   9.184   5.267 -0.4146 -2.6736 -1.1870
   64MOL0     H 8578   4.409   9.216   5.158 -0.9113 -1.6250 -1.5841
   64MOL0     H 8579   4.366   9.411   5.256  2.1824 -2.9839 -1.3445
   64MOL0     H 8580   4.304   9.425   5.091  3.2900 -0.2856  0.5497
   64MOL0     H 8581   4.068   9.374   5.169 -0.5794  2.3271 -1.5541
   64MOL0     H 8582   4.144   9.371   5.335  1.1356 -0.1041  0.4335
   64MOL0     H 8583   4.207   9.625   5.296  3.2484 -1.2210 -2.7222
   64MOL0     H 8584   4.148   9.618   5.140 -3.5026 -0.6221 -0.6370
   64MOL0     H 8585   3.911   9.580   5.231  0.4632 -1.8302  0.0519
   64MOL0     H 8586   3.985   9.546   5.386  1.3933 -1.8444 -1.4031
   64MOL0     H 8587   4.050   9.769   5.431  0.4737 -1.2569  0.8730
   64MOL0     H 8588   3.980   9.825   5.275  1.6647 -1.0752 -0.2238
   64MOL0     H 8589   3.820   9.860   5.462  1.0704 -0.3103  2.8673
   64MOL0     H 8590   3.867   9.704   5.524  1.8219  0.4085 -0.1230
   64MOL0     H 8591   3.630   9.875   5.285 -0.6243  1.1895  2.6541
   64MOL0     H 8592   3.328   9.684   5.274 -0.5164 -1.1659 -0.9429
   64MOL0     H 8593   3.391   9.835   5.214 -0.8756  0.2967  3.3605
   64MOL0     H 8594   3.295   9.621   5.045  0.5397 -1.2697 -2.1861
   64MOL0     H 8595   3.461   9.581   5.042  0.6111  0.3791 -1.0081
   64MOL0     H 8596   3.504   9.837   5.015  1.2422 -0.1747 -0.3179
   64MOL0     H 8597   3.336   9.838   4.958  0.2377 -0.2923  1.1436
   64MOL0     H 8598   3.555   9.663   4.846  1.3506  1.5930 -1.1089
   64MOL0     H 8599   3.498   9.798   4.763 -0.6344 -1.2464 -0.6310
   64MOL0     H 8600   3.326   9.805   4.582 -0.1963  2.6602 -0.1667
   64MOL0     H 8601   3.080  10.054   4.531  2.8041  1.6347 -0.6262
   64MOL0     H 8602   3.214   9.989   4.445 -1.7297  0.4757 -1.7625
   64MOL0     H 8603   3.063   9.910   4.409  0.5057  1.2581 -1.6539
   64MOL0     H 8604   2.827  10.200   4.444  0.5527  0.1716 -0.4445
   64MOL0     H 8605   2.615  10.290   4.360 -0.5009  1.7751  1.3333
   64MOL0     H 8606   2.243  10.112   4.520 -1.1332  0.5679 -0.0221
   64MOL0     H 8607   2.250  10.270   4.607  1.9794  3.1820 -1.2153
   64MOL0     H 8608   2.050  10.275   4.482  0.0331  0.9853 -1.3882
   64MOL0     H 8609   2.158  10.382   4.398  0.6399 -0.5922 -2.8563
   64MOL0     H 8610   2.127  10.095   4.304  0.2964  0.3441  1.8318
   64MOL0     H 8611   2.196  10.240   4.220 -2.0667  2.6552 -1.4649
   64MOL0     H 8612   1.917  10.220   4.320 -0.9040  0.1606 -0.7661
   64MOL0     H 8613   1.990  10.355   4.227  1.5505 -1.2599 -0.9403
   64MOL0     H 8614   1.961  10.078   4.131  1.0289  0.6648  1.3528
   64MOL0     H 8615   2.011  10.223   4.030 -2.3773  0.9907 -1.5607
   64MOL0     H 8616   1.736  10.170   4.125 -0.2350 -0.9502 -0.9020
   64MOL0     H 8617   1.811  10.333   4.072  0.2126  0.0241  0.0717
   64MOL0     H 8618   1.748  10.097   3.904  3.0910 -0.2792 -2.3603
   64MOL0     H 8619   1.889  10.197   3.872  0.1200 -0.2087  0.9654
   64MOL0     H 8620   1.690  10.283   3.735 -2.6752 -1.8193 -0.0365
   64MOL0     H 8621   1.744  10.398   3.850 -0.3614 -0.5743  0.3733
   64MOL0     H 8622   2.412  10.103   4.697 -0.3449 -1.3616 -1.0089
   64MOL0     H 8623   2.635  10.042   4.782  0.5241  1.3813 -0.3738
   64MOL0     H 8624   2.912   9.747   4.849 -1.2086  1.1844 -2.2771
   64MOL0     H 8625   3.125   9.632   4.904 -0.0365  0.7152  0.4034
   64MOL0     H 8626   4.026   9.097   5.237 -0.2048 -1.2910  2.3648
   64MOL0     H 8627   3.809   8.992   5.252  2.4507 -0.1186  2.3994
   64MOL0     H 8628   3.563   8.678   5.236 -2.5594  0.2751  1.0686
   64MOL0     H 8629   3.360   8.555   5.275 -2.2876 -1.3287 -0.7815
   64MOL0     H 8630   3.031   8.379   5.143  1.7813 -1.0094 -1.8403
   64MOL0     H 8631   3.130   8.461   5.275  0.5263  1.2100 -0.5709
   64MOL0     H 8632   2.938   8.596   5.121  0.1747  1.3225 -1.0587
   64MOL0     H 8633   3.083   8.621   5.020 -0.7669  1.0677  0.4281
   64MOL0     H 8634   3.189   8.751   5.194 -0.6821  2.3765  1.9643
   64MOL0     H 8635   3.101   8.672   5.315  0.8910  2.8786  1.1116
   64MOL0     H 8636   2.965   8.850   5.111  0.9093  1.4904 -0.0412
   64MOL0     H 8637   3.047   8.913   5.262  1.1297 -2.8441  3.5288
   64MOL0     H 8638   2.697   8.740   5.415  0.5423  0.3773 -0.7586
   64MOL0     H 8639   3.286   8.509   4.866  0.0567  1.0076 -0.6403
   64MOL0     H 8640   3.480   8.624   4.805  0.6662  1.6739  0.4089
   65MOL0     O 8641   9.010   5.664   6.590  0.6123 -0.2416  0.6314
   65MOL0     C 8642   8.995   5.679   6.466  0.1763  0.7080  0.9103
   65MOL0     O 8643   8.885   5.629   6.395 -0.0610  0.7380  0.0857
   65MOL0     C 8644   8.789   5.561   6.467 -0.7652  0.6219  0.6531
   65MOL0     C 8645   8.801   5.419   6.490  0.3308  0.3879 -0.2508
   65MOL0     C 8646   8.691   5.352   6.544 -0.1388 -0.5418 -0.5335
   65MOL0     C 8647   8.581   5.427   6.591 -0.0327  0.3796 -0.0378
   65MOL0     O 8648   8.480   5.373   6.664 -0.9230  0.0654  0.5445
   65MOL0     C 8649   8.508   5.262   6.747 -0.0609 -0.3730  0.2039
   65MOL0     C 8650   8.394   5.237   6.849  0.6548  0.3198  0.6652
   65MOL0     C 8651   8.262   5.203   6.772 -0.7501  0.5258  0.1546
   65MOL0     C 8652   8.153   5.169   6.869  0.1529  0.1323  0.1944
   65MOL0     C 8653   8.020   5.145   6.807 -0.6561  0.1102 -0.0078
   65MOL0     C 8654   7.923   5.121   6.923  0.4567  0.3263 -0.1342
   65MOL0     C 8655   7.789   5.061   6.873 -0.7119 -0.1243 -0.5111
   65MOL0     C 8656   7.713   5.149   6.772  0.0406 -0.2600  1.1938
   65MOL0     N 8657   7.662   5.061   6.663 -0.2048 -0.0717 -0.8659
   65MOL0     C 8658   7.717   5.024   6.552 -0.3667  0.6171  0.2874
   65MOL0     C 8659   7.662   4.907   6.503 -0.4553 -0.5735 -0.5174
   65MOL0     C 8660   7.689   4.841   6.369 -1.2419  0.2107  0.2761
   65MOL0     C 8661   7.580   4.879   6.271  0.0887 -0.5569  0.1566
   65MOL0     C 8662   7.614   4.804   6.135 -0.0954  0.2989  0.0546
   65MOL0     C 8663   7.527   4.863   6.021 -0.6675 -0.8930  0.1086
   65MOL0     O 8664   7.499   4.770   5.923 -0.5178  0.7257 -0.1035
   65MOL0     C 8665   7.420   4.806   5.812 -0.3051  0.0827 -1.6266
   65MOL0     C 8666   7.371   4.714   5.722  0.3360  0.8192 -0.4934
   65MOL0     C 8667   7.288   4.742   5.614  0.3103 -0.9457 -0.2587
   65MOL0     C 8668   7.224   4.633   5.541 -0.1777  0.5237  0.6910
   65MOL0     C 8669   7.257   4.877   5.580 -0.5320 -0.3623 -1.0109
   65MOL0     C 8670   7.184   4.927   5.470 -0.0750  0.9367 -0.0092
   65MOL0     O 8671   7.215   5.058   5.429 -0.1312 -0.1625  0.4867
   65MOL0     C 8672   7.144   5.103   5.320  0.2717 -0.2312 -0.3577
   65MOL0     C 8673   7.002   5.124   5.314 -0.5570  0.3961 -0.2321
   65MOL0     C 8674   6.941   5.181   5.208 -0.1991  0.1850 -0.2484
   65MOL0     C 8675   7.020   5.210   5.100 -0.3084 -0.8510 -0.0345
   65MOL0     O 8676   6.984   5.274   4.986 -0.1959  0.1288  0.1711
   65MOL0     C 8677   6.845   5.303   4.958  1.2493 -0.3491  0.4049
   65MOL0     C 8678   6.768   5.175   4.930 -1.0917 -0.0645  1.0525
   65MOL0     C 8679   6.845   5.056   4.882 -0.7153  0.5285  0.3037
   65MOL0     C 8680   6.748   4.939   4.837  0.1474 -0.1051 -0.3278
   65MOL0     C 8681   6.813   4.814   4.777  0.0844 -0.1980 -0.8300
   65MOL0     C 8682   6.709   4.707   4.749 -0.6176  0.1409 -0.3750
   65MOL0     C 8683   6.768   4.579   4.686  0.6838 -0.2124 -0.6298
   65MOL0     C 8684   6.651   4.493   4.627  0.8758 -0.1458 -0.3546
   65MOL0    Cl 8685   6.514   4.480   4.738 -0.2653 -0.2216 -0.0311
   65MOL0     C 8686   7.156   5.191   5.103  0.0645  0.2313  0.9277
   65MOL0     C 8687   7.225   5.138   5.209  0.4136 -0.1409 -0.4658
   65MOL0     O 8688   7.109   4.845   5.407 -0.3111  0.4988 -0.5816
   65MOL0     C 8689   7.315   4.970   5.668  0.4170  0.2211 -0.0309
   65MOL0     C 8690   7.389   4.938   5.776 -0.2336 -0.4999  0.0077
   65MOL0     N 8691   7.569   4.878   6.599 -0.3660 -0.5482  0.2268
   65MOL0     N 8692   7.556   4.981   6.683 -0.9177 -0.0086 -0.9218
   65MOL0     C 8693   8.572   5.565   6.564  0.8961 -1.1077 -0.5973
   65MOL0     C 8694   8.677   5.626   6.493 -0.1345  0.1351  0.1908
   65MOL0     C 8695   9.095   5.769   6.390  0.4150 -0.5648 -0.2447
   65MOL0     C 8696   9.074   5.813   6.263  0.2243 -0.6185  0.4392
   65MOL0     C 8697   9.167   5.897   6.192  0.3782  0.2641 -0.3440
   65MOL0     C 8698   9.287   5.924   6.250  0.3338 -0.1525  0.4988
   65MOL0     O 8699   9.382   5.997   6.171 -0.2632  0.3007 -0.6223
   65MOL0     C 8700   9.519   5.994   6.228  0.3246  0.6931  0.4861
   65MOL0     C 8701   9.609   6.050   6.125  0.3851 -0.4586 -0.6606
   65MOL0     C 8702   9.599   5.957   6.000  0.2634  0.3129 -0.1706
   65MOL0     C 8703   9.711   5.979   5.898 -0.0793  0.5342  0.7202
   65MOL0     C 8704   9.705   5.886   5.782 -0.5979 -0.6073  0.1326
   65MOL0     C 8705   9.715   5.809   5.689  1.0227  0.8290 -0.0692
   65MOL0     C 8706   9.315   5.869   6.378  0.4289 -0.1863 -0.0940
   65MOL0     C 8707   9.221   5.801   6.446  1.2705  0.9136 -0.2566
   65MOL0     H 8708   8.894   5.369   6.464  0.7302  0.4438  1.0221
   65MOL0     H 8709   8.691   5.244   6.555 -0.3020 -0.4985 -0.0952
   65MOL0     H 8710   8.517   5.165   6.697 -2.6976 -0.9857  0.7631
   65MOL0     H 8711   8.605   5.282   6.794  1.0094  0.0273 -2.0262
   65MOL0     H 8712   8.421   5.147   6.904  0.2843  0.0539  0.4161
   65MOL0     H 8713   8.386   5.327   6.911  0.1200  1.4323 -0.9658
   65MOL0     H 8714   8.235   5.290   6.712 -2.0848  0.7309  1.0171
   65MOL0     H 8715   8.272   5.118   6.704  1.8619 -0.4969  1.6791
   65MOL0     H 8716   8.180   5.069   6.904 -1.2478 -0.8884 -1.4469
   65MOL0     H 8717   8.148   5.245   6.947 -1.6898  0.0736  0.1716
   65MOL0     H 8718   7.999   5.242   6.762  2.9443  0.3737 -1.4645
   65MOL0     H 8719   8.016   5.057   6.741  2.0766  0.5338 -0.8548
   65MOL0     H 8720   7.970   5.045   6.986  0.3438 -1.5866 -2.2181
   65MOL0     H 8721   7.910   5.210   6.986  0.4453 -0.0074  0.3347
   65MOL0     H 8722   7.814   4.957   6.848  1.5553 -0.6237  3.2109
   65MOL0     H 8723   7.728   5.040   6.962  1.5909 -1.6777  0.7891
   65MOL0     H 8724   7.775   5.227   6.727 -2.6088  1.2676 -0.0115
   65MOL0     H 8725   7.622   5.193   6.813 -0.8735 -0.6346 -0.3903
   65MOL0     H 8726   7.807   5.067   6.510  0.3672  0.6605  1.8494
   65MOL0     H 8727   7.791   4.868   6.340 -0.6341  2.5460  3.9187
   65MOL0     H 8728   7.675   4.733   6.375  1.0371 -0.1844 -0.5025
   65MOL0     H 8729   7.587   4.987   6.260 -0.6782 -0.6030 -1.0723
   65MOL0     H 8730   7.478   4.867   6.310 -0.0028 -0.1479  0.0554
   65MOL0     H 8731   7.598   4.696   6.142 -1.5896  0.4516 -0.6704
   65MOL0     H 8732   7.719   4.828   6.117 -0.6758  2.5678 -0.6735
   65MOL0     H 8733   7.594   4.942   5.985  0.2286 -1.5045  0.3885
   65MOL0     H 8734   7.440   4.918   6.057 -0.1702  0.0648 -0.1328
   65MOL0     H 8735   7.398   4.612   5.748 -0.1242  0.3658 -1.7089
   65MOL0     H 8736   7.234   4.534   5.586 -0.2393  0.8805  1.5094
   65MOL0     H 8737   7.118   4.658   5.530  0.6315  4.2212 -0.0146
   65MOL0     H 8738   7.272   4.634   5.442  3.3402  1.6418  2.2483
   65MOL0     H 8739   6.937   5.090   5.393  0.2884  0.7540  0.6438
   65MOL0     H 8740   6.833   5.196   5.201 -0.2945  1.1474  2.2654
   65MOL0     H 8741   6.794   5.367   5.031  0.4512 -0.7188  0.1928
   65MOL0     H 8742   6.832   5.353   4.862 -1.1307 -2.4762 -0.5024
   65MOL0     H 8743   6.704   5.153   5.016 -1.9997  4.1791  1.6657
   65MOL0     H 8744   6.698   5.194   4.848 -1.2783 -1.1353  0.9460
   65MOL0     H 8745   6.911   5.016   4.959 -0.6993  1.5967  0.8558
   65MOL0     H 8746   6.911   5.089   4.801 -2.2900  0.0513 -1.2311
   65MOL0     H 8747   6.694   4.923   4.931 -2.1288  3.0494 -0.9338
   65MOL0     H 8748   6.676   4.970   4.761  2.2291  2.6112 -1.3119
   65MOL0     H 8749   6.883   4.772   4.850 -0.7340 -1.4653 -0.7361
   65MOL0     H 8750   6.858   4.833   4.679 -1.2582  1.0239 -1.2481
   65MOL0     H 8751   6.663   4.676   4.843 -1.5400 -2.8038 -1.6615
   65MOL0     H 8752   6.649   4.736   4.662  0.6462  1.1781 -0.9209
   65MOL0     H 8753   6.823   4.514   4.756  0.6355  2.1924  1.8123
   65MOL0     H 8754   6.836   4.606   4.605  0.1671  1.8029 -0.4468
   65MOL0     H 8755   6.688   4.394   4.599 -0.5240 -0.9026  0.3842
   65MOL0     H 8756   6.616   4.534   4.532 -2.4120 -1.0044  0.3387
   65MOL0     H 8757   7.223   5.203   5.018  1.1342 -1.7599  1.4303
   65MOL0     H 8758   7.331   5.120   5.219  0.3059 -0.2246  0.6033
   65MOL0     H 8759   7.296   5.077   5.660 -0.7097  0.1160  0.9223
   65MOL0     H 8760   7.423   5.011   5.849  0.5232 -2.3528  1.5989
   65MOL0     H 8761   8.491   5.623   6.607  1.9780 -1.5259  2.2259
   65MOL0     H 8762   8.675   5.730   6.463 -0.4560 -0.2559 -1.2165
   65MOL0     H 8763   8.981   5.782   6.216  1.1634 -2.0366 -0.5693
   65MOL0     H 8764   9.154   5.943   6.095 -0.1823  0.8534  0.0040
   65MOL0     H 8765   9.524   6.056   6.318  5.3126 -1.0132  1.7391
   65MOL0     H 8766   9.557   5.895   6.254  1.2279  0.7157 -0.6257
   65MOL0     H 8767   9.712   6.062   6.159  0.0024 -0.6400  0.6396
   65MOL0     H 8768   9.566   6.146   6.097  1.4982  0.0772 -0.5926
   65MOL0     H 8769   9.498   5.981   5.964 -0.2191  0.1333  1.0180
   65MOL0     H 8770   9.606   5.853   6.033 -0.3791 -0.1907 -1.5377
   65MOL0     H 8771   9.812   5.971   5.938  0.4189  2.0981 -0.1651
   65MOL0     H 8772   9.692   6.077   5.855  0.2115 -0.1960 -1.1810
   65MOL0     H 8773   9.712   5.743   5.605 -0.4011  0.6151  0.1385
   65MOL0     H 8774   9.403   5.882   6.440 -1.1881 -0.7975  2.4700
   65MOL0     H 8775   9.248   5.765   6.545 -0.9300  1.3817  0.5530
   66MOL0     O 8776   7.737   7.062   2.797  0.4946 -0.0633  0.0486
   66MOL0     C 8777   7.718   7.124   2.693  0.5549 -1.0031 -0.1465
   66MOL0     O 8778   7.605   7.180   2.650 -0.6399 -0.8291  0.2123
   66MOL0     C 8779   7.484   7.136   2.676  0.4683  0.8867  0.0725
   66MOL0     C 8780   7.447   7.003   2.702  0.0494 -0.2455  0.8973
   66MOL0     C 8781   7.314   6.967   2.732 -0.2038 -0.2095  0.0973
   66MOL0     C 8782   7.211   7.060   2.718  1.3311  0.3753 -0.0459
   66MOL0     O 8783   7.080   7.035   2.721  0.4820  0.0251 -0.4214
   66MOL0     C 8784   7.053   6.892   2.719  0.7953 -0.2912 -0.0182
   66MOL0     C 8785   6.899   6.863   2.709 -0.4687 -1.4788 -0.6999
   66MOL0     C 8786   6.836   6.881   2.836 -0.4026 -0.0297  0.3019
   66MOL0     C 8787   6.682   6.852   2.824  0.3502  0.6891  0.1012
   66MOL0     C 8788   6.609   6.910   2.949  0.0350 -0.2840  0.0351
   66MOL0     C 8789   6.455   6.932   2.928  0.3030 -0.1251 -0.2125
   66MOL0     C 8790   6.397   6.788   2.934 -0.6699  0.6333 -0.8649
   66MOL0     C 8791   6.247   6.788   2.977 -0.3917  0.2887  0.1538
   66MOL0     N 8792   6.147   6.846   2.885 -0.9970  0.5758  0.2818
   66MOL0     C 8793   6.101   6.969   2.895  0.2930  0.4263  0.4687
   66MOL0     C 8794   5.996   6.972   2.807  0.3137 -0.2639 -0.4025
   66MOL0     C 8795   5.903   7.092   2.807  0.1544 -0.2296  0.2209
   66MOL0     C 8796   5.779   7.053   2.884 -0.3102 -0.1756 -0.0301
   66MOL0     C 8797   5.789   7.075   3.030  0.4956  0.8671 -0.7122
   66MOL0     C 8798   5.660   7.045   3.101 -0.6738  0.2516  0.4309
   66MOL0     O 8799   5.548   7.122   3.064  0.6588 -0.5367  0.5021
   66MOL0     C 8800   5.430   7.055   3.064  0.3940  0.0250 -0.7954
   66MOL0     C 8801   5.343   7.055   2.954 -0.6990  0.3979  0.6661
   66MOL0     C 8802   5.217   7.003   2.964 -0.6318 -0.3725 -0.4201
   66MOL0     C 8803   5.122   7.016   2.840 -0.5216 -0.3163  0.0276
   66MOL0     C 8804   5.171   6.934   3.083 -1.0211  0.0544 -0.4296
   66MOL0     C 8805   5.033   6.891   3.109  0.2110 -0.5629 -0.1531
   66MOL0     O 8806   4.985   6.904   3.240 -0.3542  0.5036  0.3726
   66MOL0     C 8807   4.853   6.886   3.282  0.0934 -0.4170  0.5916
   66MOL0     C 8808   4.831   6.853   3.420  0.8226  0.2908  0.3018
   66MOL0     C 8809   4.707   6.839   3.480  0.2279 -0.4969 -0.0493
   66MOL0     C 8810   4.592   6.843   3.396 -0.5157 -1.0036 -0.0556
   66MOL0     O 8811   4.473   6.856   3.467  0.0565  0.3087 -0.0101
   66MOL0     C 8812   4.368   6.772   3.429  0.3620  1.0594  0.2052
   66MOL0     C 8813   4.239   6.821   3.506 -1.2111 -0.0822  0.2773
   66MOL0     C 8814   4.132   6.718   3.495  0.3899  0.1663 -0.3899
   66MOL0     C 8815   4.009   6.747   3.583  0.3363 -0.7402 -0.4248
   66MOL0     C 8816   3.910   6.631   3.591  0.7268 -0.4537 -0.4312
   66MOL0     C 8817   3.779   6.668   3.659  0.5799 -0.6791  0.3206
   66MOL0     C 8818   3.679   6.550   3.611  0.1801  0.2852 -0.5062
   66MOL0     C 8819   3.547   6.550   3.676 -0.5452  0.8162 -0.5507
   66MOL0    Cl 8820   3.556   6.489   3.845 -0.1760 -0.0928  0.2384
   66MOL0     C 8821   4.611   6.860   3.258 -0.4870 -0.3631  0.6014
   66MOL0     C 8822   4.735   6.877   3.199 -0.0686 -1.1286  0.0419
   66MOL0     O 8823   4.966   6.842   3.018  0.4350  0.4246 -1.0222
   66MOL0     C 8824   5.256   6.935   3.194  0.3673 -0.1752 -0.4605
   66MOL0     C 8825   5.385   6.992   3.187 -1.0360 -0.1801 -0.3486
   66MOL0     N 8826   5.976   6.843   2.756 -0.3330  0.6762 -0.8211
   66MOL0     N 8827   6.076   6.772   2.798 -0.3149  0.3488 -0.6408
   66MOL0     C 8828   7.246   7.192   2.671 -0.0797  0.1219  0.3224
   66MOL0     C 8829   7.381   7.229   2.661 -0.3678 -0.2196 -0.7350
   66MOL0     C 8830   7.835   7.150   2.605 -0.0833 -0.5877 -0.6917
   66MOL0     C 8831   7.819   7.189   2.481  0.2678 -0.6439 -0.2438
   66MOL0     C 8832   7.928   7.206   2.401 -0.3543  0.0631 -0.0706
   66MOL0     C 8833   8.055   7.157   2.435  0.4950  0.4985  0.2824
   66MOL0     O 8834   8.159   7.167   2.348  0.0416  0.0530 -0.5062
   66MOL0     C 8835   8.265   7.077   2.357 -0.8811  0.6364 -0.1084
   66MOL0     C 8836   8.379   7.134   2.272 -0.2271  0.3209 -1.0598
   66MOL0     C 8837   8.509   7.058   2.279  0.3018 -0.0161 -0.4351
   66MOL0     C 8838   8.585   7.060   2.416 -0.2181  0.6879  0.0197
   66MOL0     C 8839   8.674   6.942   2.446 -0.1406  0.5303 -0.1867
   66MOL0     C 8840   8.717   6.835   2.456  0.5709  0.2048  0.5709
   66MOL0     C 8841   8.072   7.111   2.567 -0.8051  0.0726 -0.4809
   66MOL0     C 8842   7.964   7.128   2.655  0.6530  0.4407 -0.0846
   66MOL0     H 8843   7.526   6.928   2.705  0.4284  0.1255  0.4006
   66MOL0     H 8844   7.289   6.864   2.758  1.2785  0.1408  3.4899
   66MOL0     H 8845   7.108   6.835   2.642  1.2362 -2.8108  2.0186
   66MOL0     H 8846   7.094   6.852   2.812 -0.4282 -1.2858  0.1137
   66MOL0     H 8847   6.860   6.927   2.629 -2.7117 -1.9619 -0.0651
   66MOL0     H 8848   6.891   6.758   2.680 -2.4519 -2.4428  2.7087
   66MOL0     H 8849   6.886   6.833   2.921  3.0869  0.2537 -1.4178
   66MOL0     H 8850   6.851   6.987   2.859  0.3395 -0.6596  3.1661
   66MOL0     H 8851   6.635   6.899   2.737  0.1094  0.9643  0.3779
   66MOL0     H 8852   6.657   6.746   2.817  0.5755  0.7386 -2.1078
   66MOL0     H 8853   6.643   6.848   3.033  3.4618  0.9195 -0.3222
   66MOL0     H 8854   6.652   7.008   2.970  0.4252 -0.9019  2.3696
   66MOL0     H 8855   6.417   7.002   3.003  3.4575 -2.9305  4.4966
   66MOL0     H 8856   6.441   6.962   2.823  0.9221 -3.2627 -1.3111
   66MOL0     H 8857   6.409   6.748   2.833 -2.4724 -0.1260 -0.8055
   66MOL0     H 8858   6.446   6.724   3.007 -0.4530  0.6098 -1.0296
   66MOL0     H 8859   6.241   6.825   3.080  0.9948 -3.0375  1.5742
   66MOL0     H 8860   6.242   6.680   2.993  3.4457  0.2345  2.2206
   66MOL0     H 8861   6.143   7.046   2.959  0.0241 -0.7836  2.1911
   66MOL0     H 8862   5.955   7.180   2.845  0.9909  1.1650 -3.6764
   66MOL0     H 8863   5.873   7.112   2.703  0.2935 -0.7675  0.0708
   66MOL0     H 8864   5.758   6.946   2.870  1.6726 -0.4013 -1.5649
   66MOL0     H 8865   5.695   7.110   2.843  0.1042  1.1110  0.8444
   66MOL0     H 8866   5.820   7.180   3.035  2.1974  0.3910 -0.5098
   66MOL0     H 8867   5.864   7.003   3.064 -0.8109 -0.4464 -0.5254
   66MOL0     H 8868   5.678   7.062   3.207  0.9493 -2.9210  0.7824
   66MOL0     H 8869   5.635   6.939   3.085  2.2055 -0.4502  0.1479
   66MOL0     H 8870   5.378   7.102   2.863  0.6696 -1.7420  0.0198
   66MOL0     H 8871   5.170   7.076   2.762 -2.4337 -1.3238 -2.0185
   66MOL0     H 8872   5.113   6.920   2.788 -2.3030  0.5984 -1.4714
   66MOL0     H 8873   5.028   7.055   2.880  0.0562  0.8501  0.3022
   66MOL0     H 8874   4.915   6.855   3.488  1.2801  0.6400 -0.2657
   66MOL0     H 8875   4.686   6.828   3.586  2.5192  2.5027  0.8475
   66MOL0     H 8876   4.357   6.753   3.322  1.5334  0.0158  0.2499
   66MOL0     H 8877   4.397   6.675   3.470  0.1510 -0.1894 -2.3723
   66MOL0     H 8878   4.269   6.844   3.609  1.5372  1.5042 -0.7730
   66MOL0     H 8879   4.194   6.908   3.457 -1.4536 -1.2946 -1.7865
   66MOL0     H 8880   4.165   6.615   3.513  0.8105  0.2688 -0.5631
   66MOL0     H 8881   4.084   6.709   3.397 -2.3553 -0.1669  0.9125
   66MOL0     H 8882   4.027   6.776   3.687 -0.2631 -2.9445  0.3315
   66MOL0     H 8883   3.953   6.827   3.532  2.0681  1.2482  0.6242
   66MOL0     H 8884   3.955   6.538   3.627 -1.2226 -1.7817 -1.2820
   66MOL0     H 8885   3.883   6.599   3.490  0.4764 -0.9296 -0.2159
   66MOL0     H 8886   3.797   6.676   3.766 -3.1327  1.6395  0.9429
   66MOL0     H 8887   3.748   6.764   3.617 -0.8135 -0.7916  1.0297
   66MOL0     H 8888   3.732   6.455   3.624  3.1903  1.8661 -0.1511
   66MOL0     H 8889   3.664   6.559   3.503 -2.2733  1.0164 -0.1553
   66MOL0     H 8890   3.492   6.474   3.620  1.4823  1.5745 -3.7665
   66MOL0     H 8891   3.506   6.651   3.675  1.5760  1.7602  0.7517
   66MOL0     H 8892   4.534   6.872   3.182  0.8349  2.0481 -0.4618
   66MOL0     H 8893   4.732   6.857   3.093  2.0865 -1.1825 -0.0489
   66MOL0     H 8894   5.210   6.880   3.276 -2.7315 -1.2556 -2.7222
   66MOL0     H 8895   5.453   6.996   3.271  0.3446 -0.9819 -1.3726
   66MOL0     H 8896   7.167   7.265   2.659 -0.1948 -0.0659 -0.0636
   66MOL0     H 8897   7.411   7.332   2.649  3.2206 -0.8544  1.3415
   66MOL0     H 8898   7.722   7.216   2.440  0.9008  2.4036 -0.0290
   66MOL0     H 8899   7.927   7.249   2.301  1.1715  3.2947  1.1614
   66MOL0     H 8900   8.292   7.061   2.462  0.4526  0.6813 -0.4276
   66MOL0     H 8901   8.241   6.978   2.317 -0.3399  0.4017  0.1375
   66MOL0     H 8902   8.402   7.239   2.293  1.3017  0.2499 -2.2409
   66MOL0     H 8903   8.343   7.125   2.170 -2.9933 -0.4174 -0.1072
   66MOL0     H 8904   8.574   7.101   2.202 -1.1139 -0.7573 -2.1344
   66MOL0     H 8905   8.505   6.954   2.244  0.7655 -1.4461  3.3330
   66MOL0     H 8906   8.509   7.070   2.494 -2.6565  2.9067 -2.4548
   66MOL0     H 8907   8.646   7.150   2.431 -1.6577  1.0821  6.4300
   66MOL0     H 8908   8.745   6.731   2.462 -0.8522 -0.1381  1.8922
   66MOL0     H 8909   8.171   7.086   2.604 -1.0317 -1.3153 -0.7644
   66MOL0     H 8910   7.969   7.112   2.763  0.0570  0.6492 -0.0268
   67MOL0     O 8911   0.468   3.999   4.284 -0.4368  0.7413  1.3119
   67MOL0     C 8912   0.416   3.943   4.379 -0.0692 -1.2380 -0.2066
   67MOL0     O 8913   0.485   3.869   4.470 -0.3480 -0.4094  0.1360
   67MOL0     C 8914   0.628   3.866   4.449  1.0105  0.1061 -0.7163
   67MOL0     C 8915   0.685   3.761   4.391 -0.3791  0.0031  0.1152
   67MOL0     C 8916   0.821   3.748   4.378 -0.2622 -1.2507 -0.5524
   67MOL0     C 8917   0.903   3.839   4.440  0.1472 -0.3771  0.5060
   67MOL0     O 8918   1.037   3.816   4.456 -0.1533 -0.0345 -0.3979
   67MOL0     C 8919   1.103   3.772   4.337 -0.1623  0.3718  0.8250
   67MOL0     C 8920   1.244   3.807   4.350  0.0520 -0.1713  0.7370
   67MOL0     C 8921   1.346   3.778   4.237  0.2227 -0.0222 -0.2130
   67MOL0     C 8922   1.463   3.881   4.255 -0.2139 -0.3550  0.3897
   67MOL0     C 8923   1.563   3.885   4.137  0.1163  0.3902 -0.2054
   67MOL0     C 8924   1.688   3.795   4.149  0.1466 -0.1210  0.1090
   67MOL0     C 8925   1.772   3.776   4.025  0.5266  0.0467  0.3238
   67MOL0     C 8926   1.918   3.730   4.059  0.3827  0.1356 -0.1782
   67MOL0     N 8927   1.997   3.856   4.071 -0.0861 -0.0732 -1.0674
   67MOL0     C 8928   2.065   3.923   3.975  1.3058  0.2304 -0.4230
   67MOL0     C 8929   2.118   4.030   4.039  0.3226 -0.3361  0.5761
   67MOL0     C 8930   2.197   4.135   3.957  0.8475 -0.3938  0.1963
   67MOL0     C 8931   2.097   4.196   3.868  0.3788 -0.1592  0.8594
   67MOL0     C 8932   2.125   4.326   3.798 -0.4946  0.6567  0.2582
   67MOL0     C 8933   2.037   4.338   3.677 -0.6837 -0.7532  0.1253
   67MOL0     O 8934   1.900   4.319   3.720 -0.0810 -1.0635  0.3496
   67MOL0     C 8935   1.802   4.332   3.627  0.7623 -0.1939 -0.2025
   67MOL0     C 8936   1.667   4.330   3.679  0.1519 -0.3063  0.2990
   67MOL0     C 8937   1.558   4.349   3.596 -0.6245 -0.0270 -0.2271
   67MOL0     C 8938   1.417   4.310   3.641  0.0690 -0.0409 -0.5278
   67MOL0     C 8939   1.589   4.402   3.467 -1.2235 -0.5557 -1.2525
   67MOL0     C 8940   1.476   4.425   3.381  0.7247  1.1426 -0.0831
   67MOL0     O 8941   1.497   4.360   3.253  0.3599 -0.1959 -0.3341
   67MOL0     C 8942   1.401   4.373   3.152 -0.6481  0.2631 -0.2459
   67MOL0     C 8943   1.257   4.349   3.173 -0.9118  0.6419  0.2990
   67MOL0     C 8944   1.169   4.364   3.066  0.6665 -0.1719  0.2877
   67MOL0     C 8945   1.213   4.394   2.934  0.6018 -0.7059  0.2927
   67MOL0     O 8946   1.134   4.417   2.823 -0.4285  0.5976  1.1028
   67MOL0     C 8947   1.010   4.351   2.836 -0.5967  0.0151 -0.6222
   67MOL0     C 8948   0.923   4.369   2.711  0.2042  0.3347 -0.6726
   67MOL0     C 8949   0.837   4.491   2.702 -0.6637 -0.0714  0.1877
   67MOL0     C 8950   0.897   4.623   2.735  0.1730 -0.1731 -0.1799
   67MOL0     C 8951   0.820   4.744   2.699 -0.0831  0.0289 -0.0023
   67MOL0     C 8952   0.775   4.761   2.545 -0.3531 -0.2719 -0.2699
   67MOL0     C 8953   0.727   4.909   2.515 -0.1470  0.2056 -0.8738
   67MOL0     C 8954   0.681   4.931   2.374 -1.4756 -0.3592  0.2270
   67MOL0    Cl 8955   0.554   4.811   2.327 -0.2026  0.1295  0.6168
   67MOL0     C 8956   1.352   4.422   2.913 -0.8351 -0.3081  0.3114
   67MOL0     C 8957   1.445   4.410   3.021 -0.1050  1.2820 -0.4812
   67MOL0     O 8958   1.384   4.510   3.402 -0.1127  0.3332  0.9434
   67MOL0     C 8959   1.720   4.400   3.410 -0.0309 -0.5913 -0.3048
   67MOL0     C 8960   1.829   4.368   3.492  0.2419  0.7311 -0.0776
   67MOL0     N 8961   2.078   4.021   4.169  0.0092 -0.3738 -0.2842
   67MOL0     N 8962   2.009   3.922   4.190 -0.2076  0.5319 -1.0090
   67MOL0     C 8963   0.849   3.949   4.496  0.1352 -0.9432 -0.3883
   67MOL0     C 8964   0.710   3.967   4.501 -0.0853 -0.2789 -0.5331
   67MOL0     C 8965   0.270   3.947   4.403 -0.2095 -0.1575  0.4053
   67MOL0     C 8966   0.183   4.043   4.350  0.0601  0.0842 -0.7457
   67MOL0     C 8967   0.044   4.031   4.356 -0.6230  0.1952  1.6821
   67MOL0     C 8968  -0.014   3.928   4.435  0.7127 -0.1228 -1.1229
   67MOL0     O 8969  -0.145   3.901   4.456  0.7617  0.4153  0.1712
   67MOL0     C 8970  -0.245   3.988   4.406  0.2554 -0.4050 -0.1005
   67MOL0     C 8971  -0.323   4.050   4.524 -0.0836 -0.6030 -0.4123
   67MOL0     C 8972  -0.434   4.153   4.486  0.6625  0.8846 -0.3091
   67MOL0     C 8973  -0.370   4.282   4.435 -0.2292 -0.2825 -0.3935
   67MOL0     C 8974  -0.469   4.382   4.407 -0.1687  0.5971  0.2131
   67MOL0     C 8975  -0.545   4.470   4.371  0.2827 -0.3234 -0.3582
   67MOL0     C 8976   0.072   3.833   4.483  0.9780 -0.6011 -0.7287
   67MOL0     C 8977   0.208   3.839   4.471 -0.0216 -0.0142 -0.2543
   67MOL0     H 8978   0.626   3.682   4.348  0.9820 -1.4003  0.7149
   67MOL0     H 8979   0.858   3.655   4.336 -1.6976 -1.1161 -2.2031
   67MOL0     H 8980   1.098   3.663   4.338 -0.1714  0.3787  1.6724
   67MOL0     H 8981   1.050   3.819   4.253  1.4368  0.9384  0.0994
   67MOL0     H 8982   1.249   3.914   4.369 -3.4983  0.3852 -0.7197
   67MOL0     H 8983   1.271   3.760   4.445 -0.0539  0.3532  1.0244
   67MOL0     H 8984   1.388   3.677   4.241  0.7476 -0.0188 -3.5017
   67MOL0     H 8985   1.298   3.803   4.142  1.2706 -1.1951 -1.0829
   67MOL0     H 8986   1.416   3.979   4.246 -3.9558 -2.0362 -0.5985
   67MOL0     H 8987   1.520   3.883   4.347  3.0279 -0.9906 -1.4573
   67MOL0     H 8988   1.508   3.863   4.045  3.1379 -1.4784 -1.6962
   67MOL0     H 8989   1.608   3.983   4.118  0.3252 -0.0615 -2.3914
   67MOL0     H 8990   1.748   3.850   4.222  0.8008  1.2087 -1.3769
   67MOL0     H 8991   1.654   3.698   4.188 -2.6570 -0.2732 -2.3483
   67MOL0     H 8992   1.723   3.699   3.964  0.4462 -0.9719  1.6290
   67MOL0     H 8993   1.778   3.870   3.970  0.0985  0.9517  1.7758
   67MOL0     H 8994   1.966   3.670   3.981  1.0634  1.5549 -0.8931
   67MOL0     H 8995   1.899   3.672   4.149 -2.0732 -0.1682 -0.8209
   67MOL0     H 8996   2.071   3.897   3.870  1.4461 -1.4027 -0.0498
   67MOL0     H 8997   2.254   4.204   4.020  3.3190 -0.3516 -1.8957
   67MOL0     H 8998   2.266   4.093   3.882  1.7361  1.5901 -0.1645
   67MOL0     H 8999   1.999   4.210   3.914  0.3426  0.9604  0.4493
   67MOL0     H 9000   2.080   4.119   3.792  2.3778 -0.9554  1.1514
   67MOL0     H 9001   2.230   4.343   3.772 -0.7301  3.4547  0.7624
   67MOL0     H 9002   2.103   4.406   3.870 -3.3170  0.5104 -0.3225
   67MOL0     H 9003   2.054   4.263   3.600 -0.2765  1.0437 -1.6299
   67MOL0     H 9004   2.061   4.437   3.637  1.5636 -1.5656 -0.7477
   67MOL0     H 9005   1.656   4.298   3.782  0.3463  1.9744  1.0793
   67MOL0     H 9006   1.426   4.253   3.734  0.7585  1.5535  0.4085
   67MOL0     H 9007   1.365   4.402   3.668 -0.5056  0.4634 -3.1062
   67MOL0     H 9008   1.360   4.249   3.570 -1.2403  1.0397 -0.4455
   67MOL0     H 9009   1.235   4.310   3.271  1.5168 -0.7723  0.3722
   67MOL0     H 9010   1.061   4.357   3.079  0.2033  3.7605 -0.1590
   67MOL0     H 9011   1.021   4.244   2.856 -3.5327  0.1968  3.1824
   67MOL0     H 9012   0.954   4.391   2.921 -2.4916 -0.2923 -1.6713
   67MOL0     H 9013   0.995   4.369   2.629  2.4844 -3.0397  1.0971
   67MOL0     H 9014   0.860   4.280   2.709 -0.2084  0.5544  1.1269
   67MOL0     H 9015   0.754   4.487   2.774 -0.4898  1.6881  0.5062
   67MOL0     H 9016   0.791   4.499   2.603 -2.4355  0.6860  1.0297
   67MOL0     H 9017   0.927   4.608   2.839 -0.3296 -1.7791 -0.2355
   67MOL0     H 9018   0.996   4.639   2.692 -0.4461  0.4383 -1.4432
   67MOL0     H 9019   0.885   4.828   2.726 -1.3249  0.4960  1.6813
   67MOL0     H 9020   0.727   4.748   2.756 -2.1363 -0.2826 -3.0776
   67MOL0     H 9021   0.849   4.731   2.471  1.4081  3.0722 -0.0552
   67MOL0     H 9022   0.691   4.691   2.550 -0.3417 -0.5651 -2.8394
   67MOL0     H 9023   0.806   4.982   2.531 -1.4480  1.3217  0.7935
   67MOL0     H 9024   0.655   4.921   2.597  1.2055 -1.6479  0.7148
   67MOL0     H 9025   0.772   4.928   2.313  0.0673 -2.6425  2.4079
   67MOL0     H 9026   0.647   5.035   2.372  0.5009  0.3312 -1.9255
   67MOL0     H 9027   1.392   4.451   2.816  0.1923 -0.2429  0.7399
   67MOL0     H 9028   1.549   4.422   2.990 -0.3357 -1.6690 -2.9957
   67MOL0     H 9029   1.737   4.428   3.307 -1.7056  1.0619 -0.1869
   67MOL0     H 9030   1.927   4.374   3.445  0.8306  0.6272  1.1005
   67MOL0     H 9031   0.906   4.032   4.535  2.4532 -2.6841  0.1184
   67MOL0     H 9032   0.666   4.054   4.549  0.5257 -0.8039  1.0488
   67MOL0     H 9033   0.235   4.120   4.294  2.5955 -0.5819  0.5538
   67MOL0     H 9034  -0.011   4.102   4.295 -0.1468 -2.0928 -1.6769
   67MOL0     H 9035  -0.209   4.069   4.343 -1.2122 -0.1750 -0.6998
   67MOL0     H 9036  -0.319   3.936   4.344  0.2179  2.0767 -2.2997
   67MOL0     H 9037  -0.245   4.095   4.585  0.7354 -1.6285 -0.6722
   67MOL0     H 9038  -0.368   3.962   4.570 -0.3221 -0.1992  0.1332
   67MOL0     H 9039  -0.497   4.183   4.570  3.9240  3.8894  1.3777
   67MOL0     H 9040  -0.501   4.098   4.420  0.9825  0.2387 -0.1036
   67MOL0     H 9041  -0.299   4.260   4.354 -0.3557 -0.9311 -0.3375
   67MOL0     H 9042  -0.308   4.317   4.517 -1.6129  2.2295 -0.3385
   67MOL0     H 9043  -0.599   4.558   4.342  0.3759  1.5355  4.2981
   67MOL0     H 9044   0.034   3.756   4.550 -1.0837  1.9301  1.2180
   67MOL0     H 9045   0.273   3.763   4.512  1.3857  1.8296  1.1250
   68MOL0     O 9046   3.423  10.291  11.046  0.3545 -0.2816 -0.1646
   68MOL0     C 9047   3.347  10.314  10.953 -0.4416 -1.2998 -0.0075
   68MOL0     O 9048   3.396  10.319  10.820  0.6447  0.3828 -0.1343
   68MOL0     C 9049   3.522  10.280  10.801 -0.1321  0.9620 -1.2471
   68MOL0     C 9050   3.615  10.366  10.746  0.3941  0.3006  0.3550
   68MOL0     C 9051   3.747  10.329  10.730 -1.0014  0.3892 -1.0418
   68MOL0     C 9052   3.797  10.210  10.775  1.0228  0.2670  0.5132
   68MOL0     O 9053   3.925  10.182  10.763 -0.2051 -0.5036  0.1362
   68MOL0     C 9054   3.968  10.039  10.758 -0.1765 -0.7105 -0.1424
   68MOL0     C 9055   4.105  10.033  10.707 -0.9576 -0.7482 -0.2724
   68MOL0     C 9056   4.134   9.890  10.660  0.5210 -0.0820 -0.5946
   68MOL0     C 9057   4.280   9.858  10.647 -0.5366  0.1332  0.6647
   68MOL0     C 9058   4.298   9.726  10.581 -1.2296  0.2093 -0.2282
   68MOL0     C 9059   4.452   9.696  10.551  0.7815  0.3268  0.4748
   68MOL0     C 9060   4.478   9.584  10.455  0.1604  0.6166  0.5960
   68MOL0     C 9061   4.430   9.455  10.531 -0.8543 -0.7214  0.3626
   68MOL0     N 9062   4.507   9.416  10.643 -0.2669 -1.0982  0.1451
   68MOL0     C 9063   4.460   9.438  10.769  0.1220 -0.0524  1.1203
   68MOL0     C 9064   4.549   9.383  10.846 -0.4878  0.3117 -0.1554
   68MOL0     C 9065   4.546   9.396  11.000  0.6909  0.2789  0.9537
   68MOL0     C 9066   4.607   9.526  11.051  0.0098  0.7399 -0.5433
   68MOL0     C 9067   4.591   9.643  10.968 -0.3965 -0.1839 -0.1290
   68MOL0     C 9068   4.451   9.699  10.999 -0.4207 -0.1064  0.3436
   68MOL0     O 9069   4.334   9.623  10.972 -0.3527 -0.1819  0.1696
   68MOL0     C 9070   4.223   9.686  11.018 -0.4636 -0.1725 -0.4589
   68MOL0     C 9071   4.116   9.603  11.048 -0.7786  0.1126 -0.1363
   68MOL0     C 9072   3.991   9.655  11.087  0.1403 -0.1081  0.5464
   68MOL0     C 9073   3.890   9.554  11.141 -0.7125 -0.1159  0.3566
   68MOL0     C 9074   3.970   9.797  11.089  1.3760  0.0576 -0.4692
   68MOL0     C 9075   3.847   9.853  11.152  0.7177 -0.9361 -0.8649
   68MOL0     O 9076   3.868   9.973  11.229  0.3023 -0.4562  0.3656
   68MOL0     C 9077   3.762  10.021  11.293  0.2168  0.6235  0.8529
   68MOL0     C 9078   3.670  10.118  11.239  0.1393  0.2099  0.0237
   68MOL0     C 9079   3.560  10.164  11.324 -0.0969 -0.0572  0.3422
   68MOL0     C 9080   3.535  10.103  11.446  0.0377  1.1299 -0.4197
   68MOL0     O 9081   3.437  10.129  11.535 -0.8967 -0.3870 -0.1941
   68MOL0     C 9082   3.362  10.250  11.499 -0.7997  0.1154  0.0708
   68MOL0     C 9083   3.259  10.277  11.601 -0.6735 -0.6331 -0.3774
   68MOL0     C 9084   3.168  10.404  11.574 -0.3308 -0.8729  0.7241
   68MOL0     C 9085   3.097  10.442  11.703  0.7309 -0.0427  0.9955
   68MOL0     C 9086   3.004  10.334  11.765 -0.5970  0.1673 -0.6845
   68MOL0     C 9087   2.893  10.384  11.870 -0.0412  0.8234 -0.0127
   68MOL0     C 9088   2.806  10.258  11.913 -0.1465  0.0097 -0.5691
   68MOL0     C 9089   2.656  10.292  11.917 -1.0427 -0.8818  0.2723
   68MOL0    Cl 9090   2.555  10.158  11.968 -0.3702 -0.1112  0.0134
   68MOL0     C 9091   3.611   9.993  11.494 -0.1560 -1.1042  0.9693
   68MOL0     C 9092   3.730   9.957  11.420  0.0704 -0.7702  0.1066
   68MOL0     O 9093   3.745   9.794  11.133  0.4946 -0.2835 -0.5375
   68MOL0     C 9094   4.082   9.879  11.073 -0.0612 -0.3621 -0.7351
   68MOL0     C 9095   4.206   9.825  11.035  0.6233 -0.9376  0.3601
   68MOL0     N 9096   4.643   9.324  10.769 -0.1968  0.2508 -0.1985
   68MOL0     N 9097   4.628   9.357  10.645  0.1774  0.5482 -0.3729
   68MOL0     C 9098   3.707  10.117  10.832  0.2502 -0.2385  0.1900
   68MOL0     C 9099   3.568  10.149  10.834 -0.1219 -0.3347  0.8170
   68MOL0     C 9100   3.209  10.331  10.980 -0.2742 -1.1293  0.2265
   68MOL0     C 9101   3.120  10.331  10.875 -0.0018  0.8297 -0.1542
   68MOL0     C 9102   2.980  10.362  10.902  0.2971 -0.0997  0.0479
   68MOL0     C 9103   2.935  10.405  11.026  0.2658  0.3260  0.4220
   68MOL0     O 9104   2.808  10.444  11.062 -0.5574 -0.3467 -0.2880
   68MOL0     C 9105   2.704  10.429  10.973 -0.2528 -0.5769  0.0905
   68MOL0     C 9106   2.589  10.518  11.004 -0.0331 -0.5857 -0.0334
   68MOL0     C 9107   2.619  10.662  10.968  0.1368  0.5291 -0.1904
   68MOL0     C 9108   2.613  10.689  10.821  0.3975 -0.5240 -0.2460
   68MOL0     C 9109   2.487  10.664  10.766  0.5497  0.1441  0.1271
   68MOL0     C 9110   2.379  10.628  10.713  0.4602  0.2664 -1.0895
   68MOL0     C 9111   3.027  10.390  11.122  0.1867 -0.2848  0.1929
   68MOL0     C 9112   3.154  10.347  11.105 -0.1507 -0.5295 -0.1928
   68MOL0     H 9113   3.591  10.464  10.707 -0.9725 -0.8063 -1.7793
   68MOL0     H 9114   3.812  10.409  10.696 -1.0570 -0.8900 -4.6434
   68MOL0     H 9115   3.975   9.983  10.852  3.4149  2.4753  1.7431
   68MOL0     H 9116   3.894   9.984  10.698 -4.1731  1.6481  2.2389
   68MOL0     H 9117   4.127  10.097  10.621  0.7156 -0.9052  0.0096
   68MOL0     H 9118   4.176  10.057  10.787  1.9557 -2.3456 -2.2180
   68MOL0     H 9119   4.093   9.807  10.718  1.7760 -0.8808 -0.7935
   68MOL0     H 9120   4.088   9.878  10.562 -1.8884  3.9677 -0.1609
   68MOL0     H 9121   4.340   9.940  10.605  0.8418 -0.1598  1.9605
   68MOL0     H 9122   4.329   9.844  10.743 -0.1916 -1.2807  0.3058
   68MOL0     H 9123   4.253   9.647  10.641  0.3072  1.3894  2.6443
   68MOL0     H 9124   4.252   9.726  10.481 -1.3165  1.0500 -0.1922
   68MOL0     H 9125   4.500   9.783  10.506  0.0282  0.7088  0.3824
   68MOL0     H 9126   4.503   9.686  10.647  0.1018  2.4228  1.1074
   68MOL0     H 9127   4.430   9.597  10.358  2.7215  2.0474 -0.5934
   68MOL0     H 9128   4.587   9.579  10.444  0.1867  0.6411  0.8395
   68MOL0     H 9129   4.446   9.370  10.464  2.3136 -0.5894  0.7811
   68MOL0     H 9130   4.323   9.460  10.554 -1.1557 -0.4292 -1.0262
   68MOL0     H 9131   4.372   9.497  10.792  0.0147  1.2185 -2.0022
   68MOL0     H 9132   4.440   9.381  11.024  0.1130  0.1236 -1.4061
   68MOL0     H 9133   4.597   9.311  11.046 -0.4366 -0.2246  1.2983
   68MOL0     H 9134   4.713   9.511  11.074 -1.0729 -1.0655  4.6204
   68MOL0     H 9135   4.567   9.544  11.152 -0.5990 -2.0389 -0.2027
   68MOL0     H 9136   4.610   9.622  10.862  1.1006  0.8083 -0.0909
   68MOL0     H 9137   4.658   9.726  10.990  2.0022 -1.5875 -1.7263
   68MOL0     H 9138   4.430   9.779  10.927 -3.0504 -0.2673  0.8300
   68MOL0     H 9139   4.452   9.753  11.094  1.8723  1.3574 -0.4280
   68MOL0     H 9140   4.138   9.497  11.033 -0.3137 -0.1442  2.0762
   68MOL0     H 9141   3.811   9.540  11.067 -1.5834 -0.6356  1.3525
   68MOL0     H 9142   3.926   9.452  11.163 -0.4698  0.0650  0.8036
   68MOL0     H 9143   3.852   9.589  11.238 -2.1474 -1.4952  0.3307
   68MOL0     H 9144   3.687  10.153  11.138 -1.0533 -0.9895 -0.6351
   68MOL0     H 9145   3.498  10.240  11.277  0.2076  0.9383  1.4782
   68MOL0     H 9146   3.420  10.339  11.473  0.7660 -0.6638  0.7340
   68MOL0     H 9147   3.316  10.243  11.400  2.4851  3.3501 -1.9900
   68MOL0     H 9148   3.193  10.191  11.615 -0.8074 -0.5696 -0.6223
   68MOL0     H 9149   3.308  10.296  11.697 -3.0004  1.6013  0.4947
   68MOL0     H 9150   3.098  10.371  11.497 -0.1264 -1.2948  0.7154
   68MOL0     H 9151   3.228  10.486  11.533  0.7848 -3.2898 -2.9733
   68MOL0     H 9152   3.172  10.470  11.777 -1.2021  2.4613  2.1767
   68MOL0     H 9153   3.039  10.534  11.691  0.5627 -0.3822 -1.3576
   68MOL0     H 9154   3.065  10.253  11.806 -1.3823  0.1442  0.4952
   68MOL0     H 9155   2.944  10.281  11.691 -1.5775 -0.8080  0.7468
   68MOL0     H 9156   2.952  10.434  11.948  2.6614  3.0718 -3.2523
   68MOL0     H 9157   2.825  10.458  11.828  0.2012  0.5344 -0.9428
   68MOL0     H 9158   2.832  10.238  12.017  0.2450  2.4913 -0.1463
   68MOL0     H 9159   2.813  10.172  11.845  0.4522 -0.5415  0.1806
   68MOL0     H 9160   2.623  10.315  11.815  4.1307 -0.0204 -1.4958
   68MOL0     H 9161   2.643  10.376  11.986  2.7211 -0.1560  0.3164
   68MOL0     H 9162   3.600   9.954  11.594 -2.4699 -0.5415  0.9881
   68MOL0     H 9163   3.796   9.878  11.454 -0.9633 -1.3657  0.7587
   68MOL0     H 9164   4.082   9.985  11.094 -0.6255 -0.0983 -1.9901
   68MOL0     H 9165   4.294   9.886  11.025 -0.6119  1.1460  1.5262
   68MOL0     H 9166   3.727  10.015  10.863  0.0230 -0.7088 -1.1614
   68MOL0     H 9167   3.490  10.080  10.866 -1.1363  1.8629  3.4214
   68MOL0     H 9168   3.156  10.301  10.777 -0.4642 -1.0152  0.1891
   68MOL0     H 9169   2.906  10.361  10.822 -1.8642 -0.0677  1.9564
   68MOL0     H 9170   2.728  10.443  10.867  1.3909  1.4083  0.6573
   68MOL0     H 9171   2.658  10.330  10.969  1.4796 -1.4579  0.8332
   68MOL0     H 9172   2.573  10.515  11.112  0.9248  1.5382  0.2171
   68MOL0     H 9173   2.503  10.484  10.945 -0.3605  1.1838 -0.6344
   68MOL0     H 9174   2.716  10.689  11.012  0.4013 -0.8572  0.1156
   68MOL0     H 9175   2.547  10.728  11.018  0.7127 -0.7898  2.5818
   68MOL0     H 9176   2.690  10.640  10.760 -1.7802 -3.0578 -1.1853
   68MOL0     H 9177   2.645  10.793  10.815  1.4906 -0.6371  2.4374
   68MOL0     H 9178   2.290  10.584  10.672  1.0897 -0.3801 -1.8038
   68MOL0     H 9179   2.984  10.410  11.220 -3.1554 -3.6982 -0.3571
   68MOL0     H 9180   3.206  10.322  11.197 -0.4618 -5.7027 -1.1370
   69MOL0     O 9181   8.210   3.196   4.041 -0.2189 -0.5837  0.4052
   69MOL0     C 9182   8.225   3.074   4.047 -0.1686 -0.4319 -0.1354
   69MOL0     O 9183   8.144   2.980   4.109 -0.8162 -0.2346  0.5531
   69MOL0     C 9184   8.036   3.026   4.171 -0.0346  0.1871 -0.6405
   69MOL0     C 9185   8.025   3.013   4.311 -0.4448 -0.0272  0.5019
   69MOL0     C 9186   7.899   3.013   4.374 -0.6591 -0.1678 -1.0606
   69MOL0     C 9187   7.787   3.037   4.308 -0.3975  0.1083  0.3545
   69MOL0     O 9188   7.675   3.047   4.383 -0.3034 -0.7965 -0.0198
   69MOL0     C 9189   7.549   3.086   4.318  0.2905 -0.1506 -0.3135
   69MOL0     C 9190   7.432   3.058   4.409  0.7483 -0.1382 -0.4204
   69MOL0     C 9191   7.304   3.108   4.341 -0.2490  0.2231  0.7296
   69MOL0     C 9192   7.180   3.098   4.431  1.2587  0.7807 -1.4901
   69MOL0     C 9193   7.159   3.199   4.554  0.4417  0.3406  0.1414
   69MOL0     C 9194   7.126   3.343   4.510  0.7161  0.4642 -0.3569
   69MOL0     C 9195   7.135   3.443   4.625  0.3271  0.4219  0.4731
   69MOL0     C 9196   7.001   3.444   4.707 -0.4946 -0.5188  0.8227
   69MOL0     N 9197   6.994   3.327   4.802  0.5240  0.3194 -0.8504
   69MOL0     C 9198   6.873   3.250   4.818  0.8209  0.7457 -0.7334
   69MOL0     C 9199   6.897   3.169   4.923 -0.2796  0.0864 -0.5673
   69MOL0     C 9200   6.797   3.077   4.982  0.4001  0.7171 -0.3443
   69MOL0     C 9201   6.826   2.939   4.932 -0.1544 -0.0663  0.2791
   69MOL0     C 9202   6.709   2.844   4.975  0.7811  0.2294  0.0029
   69MOL0     C 9203   6.730   2.780   5.117 -0.2796 -0.7232 -0.2293
   69MOL0     O 9204   6.640   2.663   5.122 -0.3514  0.4175  0.3103
   69MOL0     C 9205   6.515   2.681   5.168 -0.2229  0.2828 -0.3955
   69MOL0     C 9206   6.423   2.570   5.160 -1.0113 -0.4445  0.7166
   69MOL0     C 9207   6.298   2.569   5.217  0.8159  0.3524  0.4228
   69MOL0     C 9208   6.212   2.450   5.186 -0.0902 -0.1559  0.3210
   69MOL0     C 9209   6.249   2.678   5.302 -0.5981  0.6048 -1.2303
   69MOL0     C 9210   6.102   2.696   5.366 -0.4302 -1.2407  0.1762
   69MOL0     O 9211   6.035   2.583   5.384  0.1391  0.7396  0.7095
   69MOL0     C 9212   5.904   2.588   5.405 -0.7277 -0.5893 -0.3978
   69MOL0     C 9213   5.846   2.640   5.527 -0.3281  0.4513  0.5140
   69MOL0     C 9214   5.706   2.639   5.532  0.2047  0.4479 -0.4850
   69MOL0     C 9215   5.621   2.592   5.428  0.1334 -0.4583 -0.5775
   69MOL0     O 9216   5.487   2.598   5.456 -0.2320  0.2903  0.7124
   69MOL0     C 9217   5.402   2.590   5.341  0.3897 -0.4380 -0.0571
   69MOL0     C 9218   5.268   2.617   5.407  0.0194 -0.2484 -0.2092
   69MOL0     C 9219   5.159   2.566   5.314 -0.4363 -0.8382 -0.6272
   69MOL0     C 9220   5.022   2.544   5.388 -0.3471  0.6605 -0.0968
   69MOL0     C 9221   4.967   2.673   5.466 -0.2686  0.0337 -0.3063
   69MOL0     C 9222   4.821   2.653   5.501  1.1129  0.5418 -0.5245
   69MOL0     C 9223   4.750   2.775   5.560 -0.4941 -0.3950 -1.0264
   69MOL0     C 9224   4.609   2.773   5.561  0.2680  0.5178  0.5147
   69MOL0    Cl 9225   4.559   2.634   5.665 -0.0625 -0.2851  0.2578
   69MOL0     C 9226   5.678   2.524   5.327 -0.1187  0.2755 -0.5689
   69MOL0     C 9227   5.816   2.526   5.312  0.1732 -0.1088  0.4504
   69MOL0     O 9228   6.065   2.805   5.405 -0.0479 -0.0808 -1.0032
   69MOL0     C 9229   6.331   2.785   5.303  0.2440  0.0794  0.6823
   69MOL0     C 9230   6.451   2.788   5.227 -0.1682  0.4525 -0.0795
   69MOL0     N 9231   7.026   3.183   4.964 -0.3771  0.7588 -0.1782
   69MOL0     N 9232   7.086   3.276   4.889 -0.3290  1.3842 -0.6829
   69MOL0     C 9233   7.791   3.057   4.169  0.2786 -0.0660  0.1803
   69MOL0     C 9234   7.916   3.052   4.099  0.1287  0.2854 -0.2706
   69MOL0     C 9235   8.355   3.024   4.007  0.2301  0.3045  0.3190
   69MOL0     C 9236   8.451   3.109   3.950  0.0907 -0.4499  0.0395
   69MOL0     C 9237   8.565   3.050   3.893 -1.0853 -0.5324  0.2938
   69MOL0     C 9238   8.595   2.915   3.918  0.0030  0.2362 -0.2402
   69MOL0     O 9239   8.710   2.841   3.898  0.0745 -0.0878  0.0181
   69MOL0     C 9240   8.828   2.905   3.863  0.4319  0.8204  0.4911
   69MOL0     C 9241   8.958   2.809   3.859 -0.1432  0.3768 -0.8521
   69MOL0     C 9242   8.969   2.750   3.719  0.3635 -0.6838 -0.2623
   69MOL0     C 9243   8.861   2.646   3.674 -0.1418  0.2181  0.5765
   69MOL0     C 9244   8.870   2.637   3.525  0.4777 -0.4594  0.0786
   69MOL0     C 9245   8.867   2.635   3.407  0.1324  1.2332 -0.1104
   69MOL0     C 9246   8.495   2.836   3.967 -0.2983  0.3755  0.3142
   69MOL0     C 9247   8.371   2.886   4.005  0.1782  0.5566 -0.6686
   69MOL0     H 9248   8.119   3.005   4.364  0.6661  1.0630 -1.2462
   69MOL0     H 9249   7.888   3.014   4.482  2.3363  0.9525 -0.6679
   69MOL0     H 9250   7.558   3.192   4.295 -0.2138 -0.1054 -0.2987
   69MOL0     H 9251   7.530   3.025   4.229 -0.1326 -1.9564  0.9614
   69MOL0     H 9252   7.431   2.948   4.412  0.1175 -0.1356 -0.5021
   69MOL0     H 9253   7.438   3.101   4.509  1.6235  0.6384 -0.7934
   69MOL0     H 9254   7.302   3.212   4.307 -2.3620 -0.2848 -0.8653
   69MOL0     H 9255   7.292   3.047   4.251  1.4051 -2.9206  2.4811
   69MOL0     H 9256   7.086   3.101   4.376  0.3306  1.6036  0.0706
   69MOL0     H 9257   7.188   2.997   4.472  3.1676  1.1076 -0.9276
   69MOL0     H 9258   7.081   3.168   4.624 -0.0276  4.2368  1.6144
   69MOL0     H 9259   7.254   3.197   4.608  0.6839 -2.7492 -0.2054
   69MOL0     H 9260   7.198   3.376   4.434  2.2306 -0.2276  0.7259
   69MOL0     H 9261   7.035   3.356   4.450  0.6518  2.2132  0.0829
   69MOL0     H 9262   7.223   3.416   4.684  0.7710  0.0600 -0.3367
   69MOL0     H 9263   7.149   3.542   4.581 -4.8203  1.3049  0.1211
   69MOL0     H 9264   6.917   3.441   4.637 -0.1966 -2.7567  0.4905
   69MOL0     H 9265   6.986   3.537   4.763 -1.4548  0.5851 -1.1769
   69MOL0     H 9266   6.781   3.262   4.761 -1.2922 -2.6500  1.6385
   69MOL0     H 9267   6.800   3.076   5.091 -2.1445 -2.6148 -0.1439
   69MOL0     H 9268   6.698   3.113   4.954  0.5953 -1.2489 -4.2122
   69MOL0     H 9269   6.924   2.902   4.962  0.0241 -1.2132 -1.5481
   69MOL0     H 9270   6.839   2.954   4.824  2.2576 -2.4518  0.1435
   69MOL0     H 9271   6.690   2.760   4.907 -2.0811  0.1046  0.8389
   69MOL0     H 9272   6.610   2.891   4.977  1.5693  1.9419  1.8711
   69MOL0     H 9273   6.703   2.857   5.190  0.0326 -0.5138 -0.3360
   69MOL0     H 9274   6.832   2.743   5.131 -0.0222  0.6755  2.0253
   69MOL0     H 9275   6.468   2.481   5.118 -1.3127 -0.9552  1.4457
   69MOL0     H 9276   6.278   2.368   5.156  3.8850  3.1947 -0.8872
   69MOL0     H 9277   6.166   2.423   5.282  1.9950  0.7815  1.6492
   69MOL0     H 9278   6.132   2.460   5.111 -0.2482  1.8443  0.7090
   69MOL0     H 9279   5.920   2.681   5.595  0.5043  0.9258 -0.6395
   69MOL0     H 9280   5.657   2.692   5.614  0.7582  1.0454 -0.5310
   69MOL0     H 9281   5.425   2.671   5.272 -2.0836  1.1467  0.8667
   69MOL0     H 9282   5.404   2.494   5.289  0.0587  0.9331 -2.7235
   69MOL0     H 9283   5.251   2.558   5.497 -1.6429  2.9580  1.7786
   69MOL0     H 9284   5.249   2.723   5.425 -0.6091 -0.7176  2.2164
   69MOL0     H 9285   5.191   2.470   5.272  0.9101  0.1641 -1.9738
   69MOL0     H 9286   5.139   2.626   5.225 -1.2577 -5.0036 -3.5781
   69MOL0     H 9287   4.947   2.506   5.318  1.0746 -0.7798 -0.9064
   69MOL0     H 9288   5.025   2.466   5.465 -4.9379 -0.3263 -0.5947
   69MOL0     H 9289   4.974   2.759   5.399 -1.3733 -1.3785 -2.3322
   69MOL0     H 9290   5.027   2.695   5.556 -4.1594  0.0094  2.5641
   69MOL0     H 9291   4.774   2.633   5.404  0.3212  1.0200 -0.2576
   69MOL0     H 9292   4.805   2.561   5.558  0.7121 -0.5912 -2.3752
   69MOL0     H 9293   4.782   2.859   5.497  0.1717 -0.7102 -1.1114
   69MOL0     H 9294   4.778   2.785   5.665 -0.4130  0.3254 -1.1078
   69MOL0     H 9295   4.566   2.757   5.462  0.4012  1.1177  0.3571
   69MOL0     H 9296   4.571   2.864   5.608  1.2684  1.5432 -0.5971
   69MOL0     H 9297   5.619   2.471   5.253  1.3877 -1.3952 -0.6369
   69MOL0     H 9298   5.854   2.470   5.227 -1.1991 -1.2466  0.5376
   69MOL0     H 9299   6.312   2.881   5.350 -5.4457  0.1353 -1.0730
   69MOL0     H 9300   6.497   2.885   5.244 -1.6075  1.4215 -1.4572
   69MOL0     H 9301   7.704   3.087   4.112  0.5769 -1.6255 -1.1562
   69MOL0     H 9302   7.916   3.058   3.991  3.6654  1.0436 -0.3422
   69MOL0     H 9303   8.442   3.217   3.953  2.1092 -0.1680 -1.2315
   69MOL0     H 9304   8.641   3.114   3.849 -1.7194 -1.0546 -1.6777
   69MOL0     H 9305   8.806   2.945   3.763 -0.4234 -2.3849 -0.7155
   69MOL0     H 9306   8.829   2.998   3.921 -2.0232  2.4244 -1.7744
   69MOL0     H 9307   8.944   2.729   3.933 -1.3396  3.8728  3.1491
   69MOL0     H 9308   9.045   2.873   3.874  1.7543 -2.6643  2.9753
   69MOL0     H 9309   9.066   2.702   3.738  0.7917  0.4499  0.5382
   69MOL0     H 9310   8.981   2.835   3.652 -0.6756  0.5475  1.0404
   69MOL0     H 9311   8.757   2.670   3.694  0.6548  3.3291  1.4867
   69MOL0     H 9312   8.893   2.552   3.720  0.9229  0.7473  0.9602
   69MOL0     H 9313   8.854   2.624   3.301 -1.3605  1.1126  0.0650
   69MOL0     H 9314   8.516   2.730   3.982 -0.9011  0.1975 -0.0509
   69MOL0     H 9315   8.292   2.828   4.052  0.7770  0.7387  0.6058
   70MOL0     O 9316  10.219   3.339   1.368 -0.6924 -0.6453  0.3761
   70MOL0     C 9317  10.126   3.416   1.335 -0.9965  0.1602  0.4085
   70MOL0     O 9318  10.139   3.547   1.335 -0.0935 -0.2501  0.8295
   70MOL0     C 9319  10.264   3.620   1.335  0.4674 -0.0475  0.2566
   70MOL0     C 9320  10.306   3.683   1.450 -0.5694 -0.4422  0.2367
   70MOL0     C 9321  10.446   3.731   1.453 -0.1516  0.3148 -0.4285
   70MOL0     C 9322  10.535   3.704   1.345  0.3201 -0.3450  0.1539
   70MOL0     O 9323  10.670   3.750   1.335  0.4269  0.5024  0.2939
   70MOL0     C 9324  10.713   3.855   1.425 -0.0180 -0.7278  1.4230
   70MOL0     C 9325  10.653   3.983   1.374 -0.0683 -0.1421 -0.2651
   70MOL0     C 9326  10.682   4.102   1.466 -0.7485 -0.0262 -0.5229
   70MOL0     C 9327  10.609   4.224   1.407  0.3654 -0.1750 -0.6902
   70MOL0     C 9328  10.694   4.296   1.301  0.0947  0.7016  0.4581
   70MOL0     C 9329  10.613   4.388   1.203 -0.1247 -0.0818  1.0949
   70MOL0     C 9330  10.481   4.457   1.264 -0.2853 -0.0018  0.6253
   70MOL0     C 9331  10.376   4.461   1.148 -1.1076  1.1572 -1.6038
   70MOL0     N 9332  10.298   4.336   1.147 -0.5088  0.2093 -1.1162
   70MOL0     C 9333  10.195   4.318   1.238  0.3977  0.5987 -0.5312
   70MOL0     C 9334  10.157   4.188   1.215  0.4085 -0.0141 -1.5279
   70MOL0     C 9335  10.030   4.125   1.269 -0.3527 -0.1255  0.5907
   70MOL0     C 9336  10.052   4.008   1.365 -0.6458 -1.6256  0.8559
   70MOL0     C 9337   9.930   3.912   1.370  0.7579  0.7729 -0.6142
   70MOL0     C 9338   9.945   3.804   1.477 -0.0771  1.2576 -0.8405
   70MOL0     O 9339   9.817   3.742   1.491 -0.0321 -0.4161 -0.3440
   70MOL0     C 9340   9.821   3.628   1.570 -1.0936 -0.1278 -0.0682
   70MOL0     C 9341   9.942   3.546   1.598 -0.0773  0.3513  0.1941
   70MOL0     C 9342   9.930   3.434   1.679 -0.0834  0.3741  0.2540
   70MOL0     C 9343  10.061   3.361   1.711 -0.0024  0.1789  0.8138
   70MOL0     C 9344   9.804   3.392   1.729 -0.2664 -0.1702  0.5431
   70MOL0     C 9345   9.776   3.289   1.831 -0.2642  1.0425  0.7631
   70MOL0     O 9346   9.639   3.265   1.849 -0.3007 -0.7209  0.0348
   70MOL0     C 9347   9.600   3.207   1.961 -1.2034 -0.5765 -0.0299
   70MOL0     C 9348   9.475   3.130   1.950  0.4312 -0.1668 -0.7385
   70MOL0     C 9349   9.431   3.058   2.061 -0.1926  0.6344 -0.1593
   70MOL0     C 9350   9.489   3.080   2.185 -0.2530 -0.3507 -0.1525
   70MOL0     O 9351   9.452   3.013   2.297 -0.0150  0.3824 -0.0970
   70MOL0     C 9352   9.428   2.864   2.288  0.3804 -0.4793  0.2088
   70MOL0     C 9353   9.512   2.788   2.390  0.7099 -0.0284 -0.0829
   70MOL0     C 9354   9.658   2.768   2.350  0.2238  0.8368  0.1877
   70MOL0     C 9355   9.740   2.734   2.472  0.6208  0.6404  0.4671
   70MOL0     C 9356   9.877   2.688   2.434 -0.3247  0.2982  0.2093
   70MOL0     C 9357   9.962   2.786   2.360 -0.3308 -0.0110 -1.2560
   70MOL0     C 9358  10.030   2.884   2.458 -0.5286 -0.0613 -0.2364
   70MOL0     C 9359  10.082   3.011   2.378 -0.0456  0.8648 -0.5155
   70MOL0    Cl 9360  10.206   3.097   2.486 -0.6038  0.1921  0.6435
   70MOL0     C 9361   9.602   3.160   2.200  0.7765  0.8164  0.4191
   70MOL0     C 9362   9.650   3.223   2.091  0.0589  0.2836 -0.4178
   70MOL0     O 9363   9.869   3.231   1.882 -0.1447 -0.4800  0.6148
   70MOL0     C 9364   9.692   3.467   1.692  0.6834 -0.1394 -0.8031
   70MOL0     C 9365   9.701   3.578   1.616 -0.3400  0.2559 -0.3385
   70MOL0     N 9366  10.233   4.128   1.120 -0.6392  0.7271  1.3297
   70MOL0     N 9367  10.326   4.220   1.080 -0.4365  0.0387  0.0858
   70MOL0     C 9368  10.486   3.624   1.240  0.1185  0.0804 -0.3963
   70MOL0     C 9369  10.356   3.584   1.236  0.7431 -0.0635  0.9457
   70MOL0     C 9370   9.989   3.372   1.313 -0.2540 -0.4277 -0.9280
   70MOL0     C 9371   9.881   3.466   1.279  0.3148 -0.7004  0.1613
   70MOL0     C 9372   9.753   3.420   1.247 -0.1988 -1.8664 -1.1329
   70MOL0     C 9373   9.721   3.288   1.254 -0.2679 -0.3216 -0.3458
   70MOL0     O 9374   9.595   3.257   1.240  0.1882 -0.1806  0.6781
   70MOL0     C 9375   9.504   3.310   1.338 -0.3503 -0.0812 -0.5386
   70MOL0     C 9376   9.523   3.227   1.468  1.0811 -0.3747  0.7593
   70MOL0     C 9377   9.496   3.080   1.437 -0.0828  0.0873  0.5381
   70MOL0     C 9378   9.539   3.001   1.563  0.6706  0.0687  0.5978
   70MOL0     C 9379   9.682   3.017   1.595  0.0385 -0.1483 -0.2669
   70MOL0     C 9380   9.799   3.012   1.611 -0.4026 -0.0666  0.0461
   70MOL0     C 9381   9.820   3.198   1.291 -1.0516  0.0387 -0.3461
   70MOL0     C 9382   9.953   3.240   1.328  0.2974  0.4908  0.6418
   70MOL0     H 9383  10.237   3.673   1.534  0.5921 -2.3871  1.0192
   70MOL0     H 9384  10.468   3.785   1.544 -0.9610  1.2411 -0.7631
   70MOL0     H 9385  10.686   3.834   1.528 -1.7880 -1.7950  0.7871
   70MOL0     H 9386  10.819   3.879   1.420  0.0630 -1.2524 -1.7033
   70MOL0     H 9387  10.692   4.007   1.275  2.6822 -0.4839  0.6301
   70MOL0     H 9388  10.546   3.966   1.362 -0.6886  0.9291  2.8065
   70MOL0     H 9389  10.641   4.068   1.562  1.7892 -0.4748  0.4887
   70MOL0     H 9390  10.787   4.129   1.479  0.3855 -2.9417 -2.4592
   70MOL0     H 9391  10.518   4.189   1.356 -1.6799 -0.3978  2.8035
   70MOL0     H 9392  10.583   4.305   1.476 -0.1994 -0.9833  0.0628
   70MOL0     H 9393  10.770   4.355   1.354  0.9200  1.6629 -1.6644
   70MOL0     H 9394  10.755   4.224   1.246  1.6920  3.8377 -2.2575
   70MOL0     H 9395  10.678   4.469   1.171  0.1712 -0.2676  1.2209
   70MOL0     H 9396  10.585   4.336   1.111  0.5555 -0.0453  0.8608
   70MOL0     H 9397  10.437   4.420   1.357 -3.3998 -1.1730 -1.1761
   70MOL0     H 9398  10.510   4.559   1.290 -4.9798  1.7700 -0.1497
   70MOL0     H 9399  10.429   4.486   1.055  2.0940  4.3032  0.8231
   70MOL0     H 9400  10.302   4.541   1.151  0.1080  2.3188 -1.3754
   70MOL0     H 9401  10.161   4.383   1.318  1.4917 -2.2920  2.4916
   70MOL0     H 9402   9.960   4.199   1.309 -0.3048  1.3286 -1.8202
   70MOL0     H 9403   9.982   4.089   1.177 -2.0295  1.4800  0.7709
   70MOL0     H 9404  10.078   4.042   1.466 -1.6110 -0.8829  0.8693
   70MOL0     H 9405  10.137   3.951   1.325  0.0724 -0.3265  0.4596
   70MOL0     H 9406   9.899   3.878   1.271 -3.3880 -1.3793  1.1908
   70MOL0     H 9407   9.850   3.979   1.405  0.3690  0.7385 -1.4273
   70MOL0     H 9408   9.982   3.848   1.570  1.7451  0.8051 -1.3120
   70MOL0     H 9409  10.024   3.733   1.450  0.3067  1.0084  0.8505
   70MOL0     H 9410  10.045   3.571   1.575  0.0568  2.5810  2.6900
   70MOL0     H 9411  10.055   3.252   1.701  0.6299  0.1610  0.5583
   70MOL0     H 9412  10.128   3.397   1.631  1.8803 -1.4198  1.5811
   70MOL0     H 9413  10.099   3.390   1.809 -2.6538  1.4689  1.5556
   70MOL0     H 9414   9.428   3.128   1.852  1.0312  1.2536 -1.0746
   70MOL0     H 9415   9.348   2.989   2.058  0.3543 -0.0736  0.4265
   70MOL0     H 9416   9.322   2.841   2.303 -0.0443  0.7693 -0.6839
   70MOL0     H 9417   9.458   2.827   2.190  2.3575 -0.7117  0.8478
   70MOL0     H 9418   9.515   2.836   2.488  3.3803 -2.0382  0.9565
   70MOL0     H 9419   9.469   2.688   2.402  1.9687 -0.2868  3.4283
   70MOL0     H 9420   9.695   2.850   2.287 -0.0182  2.5255  2.1577
   70MOL0     H 9421   9.660   2.680   2.285 -2.7659  0.9142 -0.1782
   70MOL0     H 9422   9.742   2.826   2.531  2.8956  2.1360 -1.7596
   70MOL0     H 9423   9.691   2.659   2.535 -4.8593  1.7249 -1.8712
   70MOL0     H 9424   9.857   2.599   2.374 -0.1060 -0.6524  1.4925
   70MOL0     H 9425   9.931   2.653   2.523  1.9119 -2.2892 -1.9753
   70MOL0     H 9426  10.046   2.734   2.314  0.3368  0.5854 -0.7253
   70MOL0     H 9427   9.902   2.837   2.284 -2.1267 -1.3578 -0.8135
   70MOL0     H 9428  10.102   2.825   2.515 -0.0579  1.2381  0.5582
   70MOL0     H 9429   9.961   2.915   2.537  1.1537  0.9884  0.8792
   70MOL0     H 9430   9.994   3.074   2.361 -4.3121 -3.6416  2.1070
   70MOL0     H 9431  10.134   2.985   2.285 -0.3586  0.4544 -0.5781
   70MOL0     H 9432   9.656   3.165   2.294  1.6638 -1.5808  0.0945
   70MOL0     H 9433   9.738   3.287   2.096  0.1195  0.5118 -2.9869
   70MOL0     H 9434   9.595   3.436   1.732  0.5365 -0.2505 -1.2416
   70MOL0     H 9435   9.612   3.638   1.601 -0.7483 -0.5551 -1.3401
   70MOL0     H 9436  10.562   3.585   1.172  0.7678 -1.6879  1.2310
   70MOL0     H 9437  10.333   3.518   1.152 -0.5750  0.7220  0.6560
   70MOL0     H 9438   9.905   3.571   1.265 -2.3385  0.1848  1.3973
   70MOL0     H 9439   9.673   3.489   1.221  0.2337 -0.9018  0.0196
   70MOL0     H 9440   9.520   3.416   1.358  2.4996 -0.4002 -0.7722
   70MOL0     H 9441   9.400   3.301   1.304 -0.8031 -1.6417  1.1336
   70MOL0     H 9442   9.443   3.254   1.539  0.4195  2.8450 -1.0325
   70MOL0     H 9443   9.624   3.239   1.508  1.9464 -2.8389 -0.4670
   70MOL0     H 9444   9.559   3.052   1.352 -0.7824  0.1921 -0.0281
   70MOL0     H 9445   9.391   3.068   1.411  0.4716  0.7932 -2.4976
   70MOL0     H 9446   9.518   2.895   1.549  0.6055  0.3509 -1.9261
   70MOL0     H 9447   9.484   3.040   1.649 -0.3253 -1.0477  0.4889
   70MOL0     H 9448   9.904   2.989   1.608  0.3996  3.2095 -1.9290
   70MOL0     H 9449   9.808   3.091   1.305  0.1864 -0.1442 -0.6004
   70MOL0     H 9450  10.021   3.165   1.367 -1.9881 -0.9203  2.1898
   71MOL0     O 9451   0.964   0.928   6.656  0.1579  0.6042 -0.0698
   71MOL0     C 9452   0.955   0.854   6.757  0.6906 -0.1914 -0.5063
   71MOL0     O 9453   0.833   0.807   6.811 -0.0516  0.0118  0.3163
   71MOL0     C 9454   0.710   0.812   6.744 -0.9864 -0.3442 -1.1143
   71MOL0     C 9455   0.602   0.771   6.820  0.1525  0.1859 -0.6839
   71MOL0     C 9456   0.474   0.749   6.771 -0.1128 -1.3487  0.1138
   71MOL0     C 9457   0.440   0.797   6.644 -0.0173  0.0223 -0.6107
   71MOL0     O 9458   0.307   0.804   6.597  0.3863 -0.4813  0.1030
   71MOL0     C 9459   0.198   0.839   6.687 -0.6352 -0.3112 -0.2204
   71MOL0     C 9460   0.092   0.920   6.617  0.0918  0.4510  0.0716
   71MOL0     C 9461  -0.030   0.834   6.569 -0.2044  0.3306  0.0999
   71MOL0     C 9462  -0.129   0.917   6.504 -0.3795  0.1721 -0.1085
   71MOL0     C 9463  -0.094   0.959   6.353 -0.8165  0.6191 -0.7208
   71MOL0     C 9464  -0.191   1.064   6.293  0.4893  0.4082  0.4226
   71MOL0     C 9465  -0.139   1.102   6.147 -0.5308 -0.2871 -0.2418
   71MOL0     C 9466  -0.230   1.195   6.064  0.1071 -0.6906 -0.0377
   71MOL0     N 9467  -0.355   1.132   6.034 -0.8667 -0.5569  0.4065
   71MOL0     C 9468  -0.373   1.038   5.930  0.0521 -0.0450  0.5973
   71MOL0     C 9469  -0.502   1.000   5.938  0.3213  0.5165  1.2354
   71MOL0     C 9470  -0.564   0.905   5.834  0.4139 -0.2649  0.2676
   71MOL0     C 9471  -0.621   0.965   5.704  0.3758 -0.1090 -0.6067
   71MOL0     C 9472  -0.746   1.054   5.736 -0.0034 -0.9981  0.6443
   71MOL0     C 9473  -0.856   0.982   5.810  0.4791  0.5496 -0.4970
   71MOL0     O 9474  -0.961   1.075   5.832 -0.4989 -0.5582 -0.0657
   71MOL0     C 9475  -1.083   1.031   5.867  0.8639  0.5474 -0.6228
   71MOL0     C 9476  -1.160   1.088   5.972 -0.5649 -1.0565  0.3371
   71MOL0     C 9477  -1.298   1.069   6.002 -0.2295 -1.0724  0.9590
   71MOL0     C 9478  -1.357   1.142   6.117 -0.0278  0.4704  0.2496
   71MOL0     C 9479  -1.370   0.983   5.912 -0.0058 -0.2087  1.4963
   71MOL0     C 9480  -1.524   0.976   5.907  0.8220  0.2665  0.2859
   71MOL0     O 9481  -1.581   0.883   5.826  0.0016  0.0578 -0.2106
   71MOL0     C 9482  -1.720   0.884   5.816 -0.5289 -0.0440  0.8677
   71MOL0     C 9483  -1.791   0.782   5.873  0.5868  0.8862  0.7526
   71MOL0     C 9484  -1.929   0.775   5.857  0.8023  0.5935  1.0266
   71MOL0     C 9485  -2.001   0.876   5.783  0.2599  0.8654 -0.4064
   71MOL0     O 9486  -2.135   0.855   5.773 -0.2737  0.4018  0.5883
   71MOL0     C 9487  -2.205   0.969   5.735  0.6578 -0.6609  0.5390
   71MOL0     C 9488  -2.350   0.968   5.768  0.9730 -0.3830 -0.6761
   71MOL0     C 9489  -2.420   0.850   5.707  0.1497  0.5775 -0.6639
   71MOL0     C 9490  -2.422   0.734   5.802  0.5187  0.8288  0.6474
   71MOL0     C 9491  -2.515   0.622   5.765  0.9040 -0.2959 -0.6760
   71MOL0     C 9492  -2.476   0.562   5.633  0.0666  0.0724  0.1072
   71MOL0     C 9493  -2.503   0.410   5.628 -0.7192 -0.3266  0.6678
   71MOL0     C 9494  -2.376   0.336   5.684  0.5947  0.2053 -0.1962
   71MOL0    Cl 9495  -2.241   0.313   5.554  0.1715  0.3416  0.2341
   71MOL0     C 9496  -1.930   0.981   5.724 -0.8670  0.0381 -0.1589
   71MOL0     C 9497  -1.789   0.982   5.744 -0.0280 -0.1947  1.6540
   71MOL0     O 9498  -1.587   1.040   5.992  0.2582  0.2596  0.4267
   71MOL0     C 9499  -1.288   0.920   5.811  1.0125 -0.2272  0.4865
   71MOL0     C 9500  -1.154   0.938   5.786  0.0162 -0.3307 -0.5672
   71MOL0     N 9501  -0.564   1.073   6.034  0.6492 -0.3685 -0.0296
   71MOL0     N 9502  -0.478   1.157   6.086  0.2668 -0.0158 -0.3144
   71MOL0     C 9503   0.547   0.839   6.563  0.1748 -0.9297 -0.3994
   71MOL0     C 9504   0.679   0.860   6.615  0.3057 -0.3569  0.3815
   71MOL0     C 9505   1.067   0.833   6.848 -0.8302  0.1818  0.4973
   71MOL0     C 9506   1.198   0.843   6.804 -0.1509 -0.1214  1.2066
   71MOL0     C 9507   1.312   0.831   6.892  0.2757 -0.5013  0.5693
   71MOL0     C 9508   1.289   0.829   7.025  0.3704 -0.3184 -0.7049
   71MOL0     O 9509   1.375   0.875   7.131 -0.1244 -0.0709  0.3365
   71MOL0     C 9510   1.514   0.834   7.115 -0.2016  0.4678  0.3427
   71MOL0     C 9511   1.614   0.951   7.079 -0.2443 -0.0978 -0.5918
   71MOL0     C 9512   1.640   1.050   7.191 -0.0082  0.4628  0.7029
   71MOL0     C 9513   1.774   1.033   7.271  0.2588  1.3431 -0.6246
   71MOL0     C 9514   1.756   0.914   7.367  0.7434 -0.0928  0.0617
   71MOL0     C 9515   1.732   0.831   7.450 -0.1292  0.1358 -0.5700
   71MOL0     C 9516   1.159   0.815   7.074 -0.3033 -0.1461 -0.6385
   71MOL0     C 9517   1.049   0.809   6.988  0.3917 -0.9045  0.3750
   71MOL0     H 9518   0.621   0.727   6.917  0.7251  1.0985 -0.3670
   71MOL0     H 9519   0.398   0.698   6.829 -0.5948 -2.0167 -1.0674
   71MOL0     H 9520   0.148   0.749   6.722 -2.0762  1.5926  3.0834
   71MOL0     H 9521   0.251   0.894   6.765 -0.2310  0.1105 -0.7870
   71MOL0     H 9522   0.068   0.986   6.701  3.7677 -0.2254  1.8459
   71MOL0     H 9523   0.127   0.997   6.548 -0.9670  2.5000  1.7322
   71MOL0     H 9524   0.001   0.756   6.499  1.4772  2.4172 -1.6546
   71MOL0     H 9525  -0.080   0.796   6.658  0.1609  0.0825  0.2001
   71MOL0     H 9526  -0.220   0.855   6.499 -0.5887  0.5274 -0.7907
   71MOL0     H 9527  -0.149   1.002   6.569  0.7050 -0.5743  1.2479
   71MOL0     H 9528   0.004   1.008   6.353 -0.4154 -0.0903 -2.6127
   71MOL0     H 9529  -0.082   0.869   6.291 -3.3918 -1.9719  2.2178
   71MOL0     H 9530  -0.293   1.025   6.290  0.0625  1.5248 -0.5701
   71MOL0     H 9531  -0.194   1.150   6.361 -4.2322 -1.4988  3.0697
   71MOL0     H 9532  -0.050   1.160   6.173 -1.6393  0.4405  2.2264
   71MOL0     H 9533  -0.108   1.018   6.085 -1.7337  0.2706 -1.6835
   71MOL0     H 9534  -0.190   1.225   5.967 -1.5201  1.1039 -0.2091
   71MOL0     H 9535  -0.260   1.280   6.126 -1.2708 -1.1157 -0.0768
   71MOL0     H 9536  -0.301   1.010   5.853 -1.6965 -0.1924 -1.0677
   71MOL0     H 9537  -0.475   0.849   5.804  2.4268  1.7334  2.1495
   71MOL0     H 9538  -0.627   0.825   5.873  2.5210 -3.3975 -2.2535
   71MOL0     H 9539  -0.639   0.882   5.635 -2.3504 -2.0625  2.1411
   71MOL0     H 9540  -0.551   1.026   5.646 -1.1213  0.7340 -1.6225
   71MOL0     H 9541  -0.779   1.105   5.645  0.6035 -0.7006  0.5849
   71MOL0     H 9542  -0.717   1.127   5.812 -1.2052  3.1001 -2.4522
   71MOL0     H 9543  -0.813   0.936   5.898  4.1769  0.6066 -2.1062
   71MOL0     H 9544  -0.884   0.900   5.744  4.4401 -1.3745 -0.0355
   71MOL0     H 9545  -1.116   1.162   6.038 -2.3843  0.6960 -0.3221
   71MOL0     H 9546  -1.415   1.224   6.072  2.8977  0.5492 -3.9027
   71MOL0     H 9547  -1.432   1.079   6.165 -1.5116  0.8317 -1.4693
   71MOL0     H 9548  -1.282   1.182   6.185 -0.6206  1.4257  0.3638
   71MOL0     H 9549  -1.749   0.696   5.925 -0.4625  1.2767  2.3518
   71MOL0     H 9550  -1.974   0.684   5.897  2.4445  0.4905  2.7389
   71MOL0     H 9551  -2.152   1.053   5.781  0.7463 -1.6049  2.2181
   71MOL0     H 9552  -2.201   0.984   5.627  0.7318  1.6178  0.8143
   71MOL0     H 9553  -2.372   0.981   5.875  1.9654  1.1759 -0.6252
   71MOL0     H 9554  -2.379   1.060   5.717 -1.7105 -1.4948 -1.3341
   71MOL0     H 9555  -2.371   0.805   5.620 -0.1047 -1.2615  0.1089
   71MOL0     H 9556  -2.522   0.881   5.681  1.2555  5.6239 -0.1704
   71MOL0     H 9557  -2.319   0.699   5.795  0.1226 -1.7347  4.3980
   71MOL0     H 9558  -2.447   0.768   5.903 -1.0997  2.6611 -0.3221
   71MOL0     H 9559  -2.623   0.644   5.766  1.0604  0.5260 -1.0215
   71MOL0     H 9560  -2.486   0.560   5.850  1.1508  1.6666  0.7452
   71MOL0     H 9561  -2.544   0.604   5.558 -0.6763 -1.0978  0.0933
   71MOL0     H 9562  -2.372   0.590   5.613  0.0218  1.7812  2.0084
   71MOL0     H 9563  -2.529   0.377   5.527 -1.0178  0.5738  0.4417
   71MOL0     H 9564  -2.592   0.393   5.688 -1.0779  3.3399  1.3845
   71MOL0     H 9565  -2.408   0.239   5.725 -2.2960  2.7000  4.2506
   71MOL0     H 9566  -2.353   0.389   5.777 -1.8310 -3.2791  2.7273
   71MOL0     H 9567  -1.965   1.065   5.666  0.4142  1.3831  0.9254
   71MOL0     H 9568  -1.731   1.059   5.693  0.6444 -0.5403  1.8765
   71MOL0     H 9569  -1.318   0.855   5.730  1.9307  1.3200 -1.1597
   71MOL0     H 9570  -1.111   0.872   5.710 -0.2994 -0.8845 -0.2689
   71MOL0     H 9571   0.520   0.872   6.463 -0.3077 -0.7021 -0.1952
   71MOL0     H 9572   0.762   0.887   6.550  1.1301 -0.8989  1.1841
   71MOL0     H 9573   1.224   0.847   6.699  0.5664 -4.6299  1.0269
   71MOL0     H 9574   1.417   0.845   6.867  0.4760  2.4945  2.5501
   71MOL0     H 9575   1.541   0.797   7.215 -0.1333 -0.4491 -0.0117
   71MOL0     H 9576   1.529   0.748   7.050 -3.6518 -0.7575  0.9093
   71MOL0     H 9577   1.574   1.012   6.997 -1.0424  0.8994  0.5054
   71MOL0     H 9578   1.701   0.909   7.029 -0.9511 -1.1368 -0.9792
   71MOL0     H 9579   1.565   1.052   7.271 -2.5883  1.9477 -1.5511
   71MOL0     H 9580   1.645   1.148   7.144 -3.2614  0.2656 -0.3594
   71MOL0     H 9581   1.776   1.116   7.341  1.7663 -1.9598  3.6779
   71MOL0     H 9582   1.854   1.023   7.197  0.9480  4.7757 -0.5049
   71MOL0     H 9583   1.707   0.750   7.516  2.3844 -2.8427 -2.9882
   71MOL0     H 9584   1.134   0.813   7.180  0.6437  1.8763 -0.3189
   71MOL0     H 9585   0.950   0.791   7.030  1.4749 -1.7017  2.7463
   72MOL0     O 9586   5.656   7.408   4.118 -0.2643  0.1548 -0.7671
   72MOL0     C 9587   5.728   7.311   4.139  0.9626  0.1456 -0.0476
   72MOL0     O 9588   5.749   7.216   4.049  0.4483 -0.4466 -0.1441
   72MOL0     C 9589   5.682   7.212   3.932  0.3224  0.0223 -0.7061
   72MOL0     C 9590   5.540   7.214   3.941  0.5501 -0.7520 -0.4248
   72MOL0     C 9591   5.468   7.201   3.819  0.1258  0.6374 -0.0393
   72MOL0     C 9592   5.525   7.191   3.691 -0.6025 -0.2547  0.2568
   72MOL0     O 9593   5.462   7.195   3.568  0.0337  0.0701 -0.1815
   72MOL0     C 9594   5.324   7.232   3.565 -0.2332  0.5475 -0.1740
   72MOL0     C 9595   5.280   7.228   3.425  0.8415  0.4619 -0.1182
   72MOL0     C 9596   5.132   7.267   3.418  0.9761 -0.4769 -0.0473
   72MOL0     C 9597   5.067   7.271   3.280  0.5978  0.1758  0.1648
   72MOL0     C 9598   4.918   7.295   3.303  0.3615  0.2494  0.8525
   72MOL0     C 9599   4.832   7.260   3.176 -0.1300 -0.1558 -0.6674
   72MOL0     C 9600   4.684   7.291   3.192  0.4647  0.1717  0.1875
   72MOL0     C 9601   4.612   7.260   3.060 -0.1722 -0.4376 -0.2747
   72MOL0     N 9602   4.471   7.222   3.077  0.9450 -0.2073  0.2520
   72MOL0     C 9603   4.415   7.095   3.072  0.5174 -0.5249 -0.5491
   72MOL0     C 9604   4.280   7.119   3.120 -0.7852 -0.0838  0.4843
   72MOL0     C 9605   4.179   7.013   3.151  0.1911  0.0574  0.2846
   72MOL0     C 9606   4.134   6.950   3.015  0.3944  1.2092 -0.9048
   72MOL0     C 9607   4.103   6.798   3.043 -0.0216  0.2532  0.1724
   72MOL0     C 9608   4.015   6.738   2.934  0.2799 -0.3515  0.0472
   72MOL0     O 9609   3.873   6.753   2.948 -0.2700  0.8511 -0.3025
   72MOL0     C 9610   3.794   6.733   2.838 -0.1335 -0.4873  1.4887
   72MOL0     C 9611   3.672   6.803   2.824  0.2105 -0.2698  0.4504
   72MOL0     C 9612   3.598   6.803   2.703 -0.8718  0.2054  0.1543
   72MOL0     C 9613   3.469   6.886   2.706 -0.3018  1.1523  0.5653
   72MOL0     C 9614   3.639   6.726   2.593 -0.0516  0.7742 -1.0160
   72MOL0     C 9615   3.572   6.724   2.467  0.4888  0.8261  0.1904
   72MOL0     O 9616   3.556   6.594   2.418 -0.0634 -0.8625  0.2493
   72MOL0     C 9617   3.436   6.571   2.355  0.0777 -0.6591  0.2906
   72MOL0     C 9618   3.450   6.486   2.246 -0.8894  0.1268  0.4592
   72MOL0     C 9619   3.341   6.452   2.170 -0.6548 -0.7922  0.1024
   72MOL0     C 9620   3.209   6.495   2.192  0.3753 -0.5047 -0.6712
   72MOL0     O 9621   3.103   6.472   2.103 -0.6740  0.1331 -0.0274
   72MOL0     C 9622   2.970   6.524   2.121  0.1000  0.7265  0.3735
   72MOL0     C 9623   2.889   6.442   2.023 -0.5608  0.7743  0.3130
   72MOL0     C 9624   2.917   6.477   1.880 -0.1780 -0.1531 -0.6338
   72MOL0     C 9625   2.833   6.378   1.799  0.3647  0.9459  1.4281
   72MOL0     C 9626   2.892   6.357   1.653  0.1038 -0.1561 -0.5706
   72MOL0     C 9627   2.793   6.285   1.560  0.1929  0.1864  0.3090
   72MOL0     C 9628   2.663   6.367   1.541 -0.1851 -0.8314 -0.2710
   72MOL0     C 9629   2.615   6.363   1.393  0.2330  0.8763  0.1779
   72MOL0    Cl 9630   2.540   6.216   1.340 -0.0269 -0.0879 -0.1414
   72MOL0     C 9631   3.191   6.571   2.306  0.3452  0.7056 -0.2390
   72MOL0     C 9632   3.301   6.604   2.389 -0.0051  0.1937  0.2406
   72MOL0     O 9633   3.523   6.822   2.408  0.1663  0.0453  0.2547
   72MOL0     C 9634   3.767   6.660   2.602  0.0108  0.2262  0.1809
   72MOL0     C 9635   3.844   6.656   2.720  0.0182 -0.1642  0.3656
   72MOL0     N 9636   4.264   7.257   3.144 -0.1725  0.2069  0.0213
   72MOL0     N 9637   4.376   7.311   3.115 -0.0873 -0.3029 -0.1149
   72MOL0     C 9638   5.669   7.180   3.685 -0.3543  0.5068  0.1181
   72MOL0     C 9639   5.752   7.194   3.805  0.5553  0.1897  0.0287
   72MOL0     C 9640   5.791   7.293   4.272 -1.1003 -0.4193 -0.5981
   72MOL0     C 9641   5.826   7.396   4.359  0.1235  0.6315  0.5148
   72MOL0     C 9642   5.891   7.380   4.481 -0.4554  0.4495  0.5959
   72MOL0     C 9643   5.935   7.248   4.520 -0.5328  0.2283  0.5588
   72MOL0     O 9644   5.977   7.224   4.645  0.1677 -0.3022 -0.7195
   72MOL0     C 9645   6.012   7.332   4.728 -0.6108  0.2046 -0.7060
   72MOL0     C 9646   6.081   7.272   4.844  0.2332  0.7052  0.0966
   72MOL0     C 9647   6.118   7.373   4.961 -0.5819  0.2375  0.1819
   72MOL0     C 9648   6.270   7.365   4.995  0.4945 -0.5444  0.2861
   72MOL0     C 9649   6.299   7.439   5.113 -0.1361  0.5658  0.6869
   72MOL0     C 9650   6.318   7.515   5.208 -1.0485  0.2353 -0.4966
   72MOL0     C 9651   5.915   7.143   4.427  0.4945  0.1373  0.0860
   72MOL0     C 9652   5.841   7.167   4.310 -0.9623  0.4399  0.8571
   72MOL0     H 9653   5.482   7.223   4.033 -6.4063 -1.6529 -4.0885
   72MOL0     H 9654   5.360   7.205   3.820  0.0966  4.0603  2.9096
   72MOL0     H 9655   5.268   7.157   3.623 -1.9517  1.7525 -0.1854
   72MOL0     H 9656   5.301   7.332   3.601  0.4988  1.4372 -2.0672
   72MOL0     H 9657   5.345   7.296   3.369  0.3026  2.8206  1.8953
   72MOL0     H 9658   5.289   7.127   3.386  0.0515  0.1731  0.4157
   72MOL0     H 9659   5.077   7.197   3.481  0.9732 -3.9293 -3.4532
   72MOL0     H 9660   5.126   7.368   3.459  0.3796 -0.6368  0.2684
   72MOL0     H 9661   5.113   7.353   3.223  2.1726 -0.0628  1.0413
   72MOL0     H 9662   5.079   7.172   3.234 -0.3688 -1.1206  2.5568
   72MOL0     H 9663   4.887   7.227   3.383 -2.1170 -2.2041 -1.9461
   72MOL0     H 9664   4.897   7.398   3.335 -4.0979 -0.2676  0.2036
   72MOL0     H 9665   4.868   7.323   3.094  3.5009  0.2980  1.0706
   72MOL0     H 9666   4.849   7.155   3.150  1.6682  0.0681 -0.5325
   72MOL0     H 9667   4.638   7.235   3.273 -2.8202  2.8760  0.4047
   72MOL0     H 9668   4.666   7.398   3.208  2.5106  0.5496  0.2129
   72MOL0     H 9669   4.674   7.181   3.017  2.0907 -1.5482  4.4455
   72MOL0     H 9670   4.620   7.352   3.000 -1.1679  0.4995  0.9738
   72MOL0     H 9671   4.476   7.008   3.048  2.4975 -0.2223  2.8256
   72MOL0     H 9672   4.227   6.939   3.216  2.9861  0.6849 -0.9010
   72MOL0     H 9673   4.096   7.061   3.203  0.5991  0.0151  0.9789
   72MOL0     H 9674   4.220   6.945   2.947  1.0955  1.6761 -0.0729
   72MOL0     H 9675   4.049   7.006   2.977  0.8148  3.9743  1.8149
   72MOL0     H 9676   4.042   6.781   3.132  1.1845 -1.2865  0.7339
   72MOL0     H 9677   4.196   6.741   3.048 -0.9454 -1.1979  2.5936
   72MOL0     H 9678   4.040   6.632   2.926 -0.9359 -0.6583  0.1539
   72MOL0     H 9679   4.033   6.783   2.836 -0.3106 -3.2677 -1.5364
   72MOL0     H 9680   3.646   6.864   2.909  2.9533 -0.6455  1.6520
   72MOL0     H 9681   3.486   6.971   2.638 -0.9273  1.6966  1.0657
   72MOL0     H 9682   3.378   6.838   2.670 -0.3736  2.9821 -2.0460
   72MOL0     H 9683   3.456   6.922   2.809 -0.3960  0.0184  0.9589
   72MOL0     H 9684   3.548   6.456   2.209 -0.7989  2.1346 -1.1390
   72MOL0     H 9685   3.352   6.394   2.079 -3.2496 -0.6396 -0.3796
   72MOL0     H 9686   2.917   6.511   2.216 -1.0469  2.0630 -0.0524
   72MOL0     H 9687   2.965   6.627   2.086 -2.2732  0.0849 -1.4012
   72MOL0     H 9688   2.915   6.338   2.045 -0.1212  0.7072 -0.5139
   72MOL0     H 9689   2.784   6.450   2.053 -0.4702  1.4985  0.4371
   72MOL0     H 9690   3.020   6.485   1.847 -0.3837 -1.1469 -1.5741
   72MOL0     H 9691   2.879   6.577   1.856  1.1774 -0.1319 -2.9864
   72MOL0     H 9692   2.829   6.277   1.841  1.1738 -0.4717 -1.5902
   72MOL0     H 9693   2.730   6.411   1.791  0.5159  1.5537  1.9538
   72MOL0     H 9694   2.988   6.306   1.665 -1.3895 -2.5998  2.4638
   72MOL0     H 9695   2.914   6.458   1.618  3.2732  0.5262  2.8830
   72MOL0     H 9696   2.849   6.266   1.468  0.6574  0.1710  0.5935
   72MOL0     H 9697   2.756   6.189   1.596 -0.6297  0.1845 -0.5103
   72MOL0     H 9698   2.687   6.471   1.563 -0.1014 -0.4781 -1.9086
   72MOL0     H 9699   2.579   6.331   1.602 -0.4999 -1.5681 -1.1107
   72MOL0     H 9700   2.702   6.385   1.330  0.4453  2.1696  0.8874
   72MOL0     H 9701   2.539   6.438   1.367 -0.3740  0.2648  0.1538
   72MOL0     H 9702   3.092   6.604   2.335 -0.1386 -0.8677  0.0285
   72MOL0     H 9703   3.292   6.656   2.484  0.6048 -1.9950  1.5722
   72MOL0     H 9704   3.793   6.591   2.522  0.6444  0.2360  0.3707
   72MOL0     H 9705   3.929   6.588   2.731 -1.5491 -2.7258 -1.9750
   72MOL0     H 9706   5.719   7.172   3.589  2.0440  0.3926  1.2978
   72MOL0     H 9707   5.860   7.195   3.801  0.7833 -0.8556  3.4239
   72MOL0     H 9708   5.780   7.492   4.336  0.1779  0.5381  0.0032
   72MOL0     H 9709   5.880   7.468   4.543 -0.0971  2.2883 -1.8248
   72MOL0     H 9710   6.075   7.408   4.683 -2.4462  2.5585  0.4837
   72MOL0     H 9711   5.915   7.368   4.764  0.3157 -0.8557  3.3050
   72MOL0     H 9712   6.172   7.224   4.807 -0.6908 -0.0903 -1.2386
   72MOL0     H 9713   6.031   7.189   4.894 -0.3656  0.9869 -0.0258
   72MOL0     H 9714   6.057   7.332   5.042 -2.3731 -5.4313 -3.4679
   72MOL0     H 9715   6.098   7.473   4.919 -0.7499 -1.3343 -3.9323
   72MOL0     H 9716   6.338   7.385   4.911  1.2094 -3.1232  0.1608
   72MOL0     H 9717   6.299   7.264   5.024  2.0441  0.4378  2.4741
   72MOL0     H 9718   6.347   7.577   5.291  1.3384  2.0210 -2.5295
   72MOL0     H 9719   5.951   7.045   4.455 -1.8648  0.4500  5.2373
   72MOL0     H 9720   5.824   7.075   4.254  3.0161  0.8495 -1.3735
   73MOL0     O 9721   1.875   5.007   2.458  0.1948  0.0426  0.3388
   73MOL0     C 9722   1.879   5.073   2.355 -0.0692 -0.9043  0.2864
   73MOL0     O 9723   1.824   5.042   2.235 -0.7256 -0.1450 -0.4802
   73MOL0     C 9724   1.735   4.942   2.212  0.1168  0.5740  0.7209
   73MOL0     C 9725   1.632   4.899   2.294  0.3396  0.6174  0.2564
   73MOL0     C 9726   1.564   4.776   2.257 -1.0292 -0.6879  0.1641
   73MOL0     C 9727   1.598   4.707   2.139 -1.2051  0.6125  0.0601
   73MOL0     O 9728   1.540   4.586   2.101 -0.2659 -0.1029 -0.2892
   73MOL0     C 9729   1.441   4.524   2.183 -0.1671  0.6929 -0.0374
   73MOL0     C 9730   1.365   4.410   2.113 -0.5835 -0.1737 -0.2928
   73MOL0     C 9731   1.299   4.300   2.204  0.1695 -1.2381  0.5062
   73MOL0     C 9732   1.333   4.160   2.144 -0.5765  0.1969  1.6560
   73MOL0     C 9733   1.246   4.047   2.202 -0.4377  0.0642  0.5435
   73MOL0     C 9734   1.097   4.042   2.154 -0.7957 -0.2263 -0.1480
   73MOL0     C 9735   1.097   3.989   2.010 -0.7300 -0.4342  0.2489
   73MOL0     C 9736   0.956   3.943   1.983 -0.2143  0.3866  0.6357
   73MOL0     N 9737   0.861   4.049   1.995 -0.3141  0.5500 -0.3557
   73MOL0     C 9738   0.857   4.163   1.921  0.6428  0.8274  0.4168
   73MOL0     C 9739   0.731   4.212   1.948  0.4025 -0.5329  0.3747
   73MOL0     C 9740   0.680   4.349   1.902  0.0327 -0.1534 -0.5533
   73MOL0     C 9741   0.586   4.416   2.007 -0.4766  0.9083  0.7427
   73MOL0     C 9742   0.675   4.444   2.136  0.2498 -0.2443 -0.5799
   73MOL0     C 9743   0.585   4.472   2.257 -0.1103  0.3317 -0.0785
   73MOL0     O 9744   0.570   4.353   2.341  0.2082  0.0786  0.1884
   73MOL0     C 9745   0.445   4.306   2.332  0.8251  0.0734 -0.2747
   73MOL0     C 9746   0.397   4.208   2.244  0.3618 -0.1354 -0.6005
   73MOL0     C 9747   0.266   4.165   2.239  0.3896  0.4942  0.5628
   73MOL0     C 9748   0.239   4.047   2.142  0.2720 -0.7164 -0.3985
   73MOL0     C 9749   0.177   4.234   2.332 -0.1870 -0.1422 -0.5366
   73MOL0     C 9750   0.028   4.200   2.336  0.7021  0.2428 -0.6308
   73MOL0     O 9751  -0.021   4.116   2.239 -0.4322 -0.3327  0.9175
   73MOL0     C 9752  -0.140   4.068   2.253  0.5311 -0.1693 -0.6188
   73MOL0     C 9753  -0.258   4.128   2.208  0.5793  0.1422  0.2828
   73MOL0     C 9754  -0.379   4.058   2.232 -0.8243  0.5554  0.6530
   73MOL0     C 9755  -0.383   3.939   2.307 -0.5996 -0.5090 -0.1605
   73MOL0     O 9756  -0.509   3.893   2.325 -0.8636  0.2894  0.2337
   73MOL0     C 9757  -0.550   3.765   2.283  0.2917 -1.0183  0.1619
   73MOL0     C 9758  -0.689   3.755   2.226  0.5930  0.4598 -0.4572
   73MOL0     C 9759  -0.750   3.604   2.230 -0.2944 -0.0395  0.1770
   73MOL0     C 9760  -0.903   3.622   2.240 -0.8950 -0.4977 -0.0801
   73MOL0     C 9761  -0.985   3.499   2.194 -0.8638  0.3362 -0.0460
   73MOL0     C 9762  -1.133   3.527   2.215  0.3580 -1.4962 -0.0103
   73MOL0     C 9763  -1.207   3.387   2.201 -0.3719  0.9356 -0.8917
   73MOL0     C 9764  -1.349   3.405   2.241  0.0298 -0.4996 -0.2366
   73MOL0    Cl 9765  -1.453   3.266   2.203 -0.3104 -0.0776  0.1847
   73MOL0     C 9766  -0.257   3.871   2.334  0.5802  0.0112 -0.4757
   73MOL0     C 9767  -0.140   3.936   2.305  0.1213  0.1042 -0.0097
   73MOL0     O 9768  -0.041   4.245   2.431 -0.4496 -0.3483 -0.3515
   73MOL0     C 9769   0.222   4.338   2.420 -0.0191  1.0201 -0.5542
   73MOL0     C 9770   0.362   4.365   2.426  0.2070  0.1269  0.7156
   73MOL0     N 9771   0.658   4.119   2.020 -0.0200  0.2584 -0.2513
   73MOL0     N 9772   0.743   4.018   2.044  0.0049  0.1052  0.4164
   73MOL0     C 9773   1.700   4.756   2.055  0.5138  0.7853  0.1321
   73MOL0     C 9774   1.758   4.879   2.090 -0.5090 -0.1048  0.0415
   73MOL0     C 9775   1.974   5.185   2.350 -0.7216 -0.1698 -0.1316
   73MOL0     C 9776   1.970   5.264   2.236 -0.1892 -0.3867  0.1638
   73MOL0     C 9777   2.068   5.367   2.210 -0.9283  0.1192 -0.1568
   73MOL0     C 9778   2.149   5.409   2.320 -0.3898  0.5671 -0.4649
   73MOL0     O 9779   2.223   5.529   2.309  0.2833  0.5474  0.1804
   73MOL0     C 9780   2.326   5.559   2.402  0.7658  0.4658  0.0407
   73MOL0     C 9781   2.276   5.626   2.526  0.9195 -0.1747 -0.3471
   73MOL0     C 9782   2.225   5.780   2.505  1.2592  0.0470  0.3429
   73MOL0     C 9783   2.185   5.843   2.633  0.2053  0.4694 -0.6542
   73MOL0     C 9784   2.072   5.762   2.694 -0.6413 -0.1975  0.2330
   73MOL0     C 9785   1.995   5.681   2.740  1.0025  0.3205  0.2454
   73MOL0     C 9786   2.145   5.341   2.442  0.4048 -0.4535  0.0687
   73MOL0     C 9787   2.061   5.230   2.450 -0.2687 -0.0889 -0.6798
   73MOL0     H 9788   1.612   4.954   2.386  0.0458 -0.2498  0.7253
   73MOL0     H 9789   1.495   4.748   2.337 -1.8269 -1.1251 -0.6595
   73MOL0     H 9790   1.502   4.488   2.266 -1.0384 -0.3413  0.1680
   73MOL0     H 9791   1.364   4.591   2.223  0.3892  0.3387  1.7041
   73MOL0     H 9792   1.311   4.443   2.024  0.1544  2.3831  0.1341
   73MOL0     H 9793   1.448   4.357   2.065  1.1436  1.4349  0.7500
   73MOL0     H 9794   1.346   4.307   2.302  2.1385  0.1421 -0.4602
   73MOL0     H 9795   1.191   4.314   2.211  0.2568 -0.3969  0.2393
   73MOL0     H 9796   1.313   4.161   2.036 -1.1550 -0.6719  1.7409
   73MOL0     H 9797   1.436   4.128   2.163  0.1014  0.7336 -0.7286
   73MOL0     H 9798   1.278   3.944   2.183  3.1578  1.3126 -1.0042
   73MOL0     H 9799   1.257   4.045   2.311  1.2010 -1.4014  0.3989
   73MOL0     H 9800   1.044   3.976   2.223 -2.2680  2.0636  1.0333
   73MOL0     H 9801   1.055   4.142   2.165  1.0197  0.4967  0.6346
   73MOL0     H 9802   1.140   4.060   1.938  1.9405 -2.1212  0.0239
   73MOL0     H 9803   1.166   3.904   2.011 -0.4213 -0.1890  1.4749
   73MOL0     H 9804   0.934   3.864   2.055  2.3332 -1.4811 -0.4958
   73MOL0     H 9805   0.945   3.901   1.882  1.5551 -4.3343  2.1359
   73MOL0     H 9806   0.934   4.205   1.858  0.3928  0.0535 -0.4140
   73MOL0     H 9807   0.761   4.422   1.902  0.8411 -0.8867  2.5634
   73MOL0     H 9808   0.635   4.335   1.803 -1.5806  3.1380 -0.4361
   73MOL0     H 9809   0.520   4.330   2.022  0.4589 -0.1907 -1.0546
   73MOL0     H 9810   0.535   4.505   1.970  0.7164  2.7623  3.3192
   73MOL0     H 9811   0.743   4.529   2.124  3.4117 -2.2135  1.7583
   73MOL0     H 9812   0.740   4.358   2.155  0.4972 -1.0146 -4.1673
   73MOL0     H 9813   0.485   4.510   2.232 -0.8024  0.2908  2.3825
   73MOL0     H 9814   0.621   4.559   2.313  0.7424 -0.4356  0.5810
   73MOL0     H 9815   0.480   4.157   2.197  1.5562 -0.6077  1.8630
   73MOL0     H 9816   0.180   3.971   2.195 -0.7561 -1.2163 -2.1674
   73MOL0     H 9817   0.190   4.081   2.050  0.9012 -0.8117 -0.7736
   73MOL0     H 9818   0.329   4.001   2.099  1.5847  1.3965 -0.0501
   73MOL0     H 9819  -0.251   4.220   2.151 -3.6758 -1.0823 -2.7078
   73MOL0     H 9820  -0.470   4.102   2.192  0.4273  3.5183  0.8640
   73MOL0     H 9821  -0.474   3.719   2.220 -1.1835  0.1832 -2.6479
   73MOL0     H 9822  -0.554   3.701   2.372 -4.3077 -4.1881 -1.9008
   73MOL0     H 9823  -0.756   3.824   2.276  0.0227 -2.6692  3.6705
   73MOL0     H 9824  -0.683   3.784   2.121  0.0837 -4.0416 -1.9562
   73MOL0     H 9825  -0.707   3.543   2.311  0.2584 -0.0749 -0.1399
   73MOL0     H 9826  -0.737   3.552   2.135 -1.6266  0.6292 -0.3976
   73MOL0     H 9827  -0.913   3.659   2.343  0.1524  1.3218 -0.5798
   73MOL0     H 9828  -0.929   3.701   2.168  0.9891  1.7336  1.5430
   73MOL0     H 9829  -0.961   3.409   2.252  1.7007  2.4866  2.5598
   73MOL0     H 9830  -0.973   3.482   2.086 -0.4199 -1.7917  0.3035
   73MOL0     H 9831  -1.143   3.559   2.319  1.5921 -2.4032  0.4191
   73MOL0     H 9832  -1.174   3.603   2.148 -0.5431  0.9720  3.0723
   73MOL0     H 9833  -1.161   3.311   2.265 -2.2901  0.2662 -0.2137
   73MOL0     H 9834  -1.196   3.356   2.096  1.2357 -2.2447  0.0862
   73MOL0     H 9835  -1.395   3.496   2.203 -1.9655 -0.4909  1.9624
   73MOL0     H 9836  -1.353   3.413   2.350  0.2369 -0.0311 -0.2599
   73MOL0     H 9837  -0.257   3.769   2.371  1.1242  0.2047  0.0704
   73MOL0     H 9838  -0.048   3.887   2.336 -0.4528 -1.6511 -0.9488
   73MOL0     H 9839   0.148   4.388   2.482  1.5914  0.6435  1.8150
   73MOL0     H 9840   0.397   4.439   2.498 -0.2589 -0.1557  1.2419
   73MOL0     H 9841   1.728   4.704   1.964  0.9635  1.4394 -0.1111
   73MOL0     H 9842   1.819   4.928   2.015  1.0061 -1.7378  0.1530
   73MOL0     H 9843   1.913   5.244   2.146  1.6984 -0.7089 -1.0333
   73MOL0     H 9844   2.067   5.434   2.125 -0.0219  2.4828  1.5694
   73MOL0     H 9845   2.367   5.462   2.433  1.2662  0.6497 -0.0443
   73MOL0     H 9846   2.390   5.627   2.345 -0.5167  0.0900 -1.9398
   73MOL0     H 9847   2.357   5.627   2.599  0.7326  1.9891 -0.1163
   73MOL0     H 9848   2.201   5.572   2.584  1.0985 -1.1515 -0.9918
   73MOL0     H 9849   2.133   5.773   2.445  2.5489 -2.7043 -1.4955
   73MOL0     H 9850   2.298   5.850   2.464  2.2735 -0.4628  1.2265
   73MOL0     H 9851   2.146   5.944   2.617 -0.2475  0.1287 -1.8309
   73MOL0     H 9852   2.271   5.842   2.701 -0.0462  0.0596 -0.3426
   73MOL0     H 9853   1.914   5.615   2.764 -0.0460  0.4022 -2.6325
   73MOL0     H 9854   2.212   5.373   2.522  0.6835  4.7970 -1.8794
   73MOL0     H 9855   2.045   5.167   2.537 -0.0389  1.1181  0.2620
   74MOL0     O 9856   4.963   1.443   1.553  0.4327 -0.0337  0.1034
   74MOL0     C 9857   4.946   1.474   1.437  0.0452  0.8694 -0.1700
   74MOL0     O 9858   5.044   1.506   1.353 -0.4001 -0.0775  0.4401
   74MOL0     C 9859   5.174   1.531   1.401 -0.2192  0.1075  0.3053
   74MOL0     C 9860   5.251   1.628   1.338  0.4342  0.0828  1.2203
   74MOL0     C 9861   5.386   1.658   1.368 -0.5176 -0.2895  0.2069
   74MOL0     C 9862   5.443   1.600   1.471 -0.1069  0.4839 -0.5682
   74MOL0     O 9863   5.579   1.606   1.499 -0.2484 -0.5383  0.0661
   74MOL0     C 9864   5.664   1.711   1.448  0.5315  0.2916 -0.6950
   74MOL0     C 9865   5.769   1.660   1.339  0.0420  0.0813  0.1695
   74MOL0     C 9866   5.714   1.661   1.195  0.1506 -0.8169 -0.2796
   74MOL0     C 9867   5.809   1.579   1.099  0.7137 -1.2544 -0.8136
   74MOL0     C 9868   5.951   1.640   1.083  0.1580  0.3149 -0.0350
   74MOL0     C 9869   6.011   1.616   0.939  0.7179 -0.3820 -0.4348
   74MOL0     C 9870   6.122   1.513   0.939 -0.8847 -0.2523  0.6161
   74MOL0     C 9871   6.249   1.543   1.014  0.7295  0.2245  0.2580
   74MOL0     N 9872   6.325   1.649   0.954  0.8914  0.2259  0.1904
   74MOL0     C 9873   6.323   1.781   1.001 -0.7350  0.6621 -0.3853
   74MOL0     C 9874   6.408   1.843   0.912 -0.6124  0.0186 -0.5951
   74MOL0     C 9875   6.424   1.993   0.874  0.2495 -0.1428 -0.7744
   74MOL0     C 9876   6.391   2.025   0.733  0.4186 -0.1728 -0.1212
   74MOL0     C 9877   6.371   2.170   0.706  0.0530 -0.0101  0.2708
   74MOL0     C 9878   6.258   2.257   0.762 -0.1431 -0.9890 -0.5113
   74MOL0     O 9879   6.297   2.398   0.766  0.3795  0.5034 -0.2309
   74MOL0     C 9880   6.201   2.496   0.783 -0.5567 -0.4378 -0.8134
   74MOL0     C 9881   6.081   2.466   0.857  0.0249 -0.5517  0.5041
   74MOL0     C 9882   5.976   2.553   0.854 -0.2496 -0.5926 -0.5219
   74MOL0     C 9883   5.853   2.518   0.927  0.3720 -0.4432  0.9563
   74MOL0     C 9884   5.992   2.680   0.788  0.2541  0.7022 -0.2403
   74MOL0     C 9885   5.878   2.776   0.773 -0.3650 -0.5660  0.5577
   74MOL0     O 9886   5.878   2.897   0.831 -0.0520  0.4225  0.4653
   74MOL0     C 9887   5.960   2.928   0.941  0.1113  0.7708 -0.9075
   74MOL0     C 9888   6.075   3.009   0.939  0.3037 -0.7881  0.7423
   74MOL0     C 9889   6.136   3.056   1.058  0.1852 -0.0760 -0.5787
   74MOL0     C 9890   6.094   3.001   1.188 -0.5096  0.1605  0.2974
   74MOL0     O 9891   6.151   3.032   1.308 -0.0708 -0.5537 -0.0972
   74MOL0     C 9892   6.129   3.162   1.358  0.4991  0.1635  0.6850
   74MOL0     C 9893   6.240   3.215   1.444  0.0024 -0.4499 -0.1030
   74MOL0     C 9894   6.377   3.231   1.369  0.7445  0.3834 -0.0320
   74MOL0     C 9895   6.462   3.107   1.412  0.0911 -0.0542  1.3922
   74MOL0     C 9896   6.575   3.072   1.301  0.3664  0.9704 -0.2652
   74MOL0     C 9897   6.682   3.189   1.291 -0.3202 -0.2264  0.7136
   74MOL0     C 9898   6.805   3.178   1.194 -0.1281  0.0682  0.2471
   74MOL0     C 9899   6.913   3.275   1.218 -0.2141 -0.3862 -1.0357
   74MOL0    Cl 9900   7.064   3.215   1.139  0.3272 -0.4826  0.1167
   74MOL0     C 9901   5.987   2.918   1.183 -0.7423 -0.2957  0.1496
   74MOL0     C 9902   5.924   2.874   1.062 -0.5179 -0.6425 -0.4884
   74MOL0     O 9903   5.785   2.737   0.703 -0.5908 -0.8368  0.0351
   74MOL0     C 9904   6.118   2.709   0.723 -0.3035 -0.9115  0.1373
   74MOL0     C 9905   6.221   2.611   0.724  0.3214 -0.1530 -0.3953
   74MOL0     N 9906   6.473   1.740   0.839 -0.6823 -0.6865  0.0295
   74MOL0     N 9907   6.428   1.630   0.870  0.2480  0.5608 -0.8422
   74MOL0     C 9908   5.372   1.504   1.537 -0.1049 -0.4306 -0.4787
   74MOL0     C 9909   5.239   1.462   1.506  1.2990  0.1708 -0.1379
   74MOL0     C 9910   4.807   1.492   1.383 -0.1074 -0.5530  0.3815
   74MOL0     C 9911   4.710   1.548   1.463 -0.2701  0.5073  1.0810
   74MOL0     C 9912   4.582   1.560   1.414  0.1579 -0.5402  0.2806
   74MOL0     C 9913   4.549   1.526   1.279 -0.6919  0.3024 -0.0584
   74MOL0     O 9914   4.417   1.516   1.227  0.1494  0.0584 -0.1582
   74MOL0     C 9915   4.309   1.546   1.316  0.2548 -0.1718 -0.3715
   74MOL0     C 9916   4.274   1.430   1.403  0.0358  0.2698 -0.1703
   74MOL0     C 9917   4.153   1.472   1.490  0.1660 -0.0439  0.0331
   74MOL0     C 9918   4.094   1.362   1.570  0.2520 -1.2998  0.5598
   74MOL0     C 9919   3.997   1.289   1.493  0.5989  0.6819  0.6589
   74MOL0     C 9920   3.907   1.221   1.438  0.3219 -0.4168 -0.3240
   74MOL0     C 9921   4.661   1.489   1.200 -0.3403 -0.5180  0.5562
   74MOL0     C 9922   4.787   1.489   1.245 -0.0052  0.2094  0.7034
   74MOL0     H 9923   5.209   1.671   1.247 -0.7758 -1.2098  1.1337
   74MOL0     H 9924   5.433   1.721   1.293 -0.7679 -1.1511 -0.6857
   74MOL0     H 9925   5.605   1.797   1.414 -0.6977 -0.4005 -0.3869
   74MOL0     H 9926   5.730   1.737   1.532 -0.2433  1.0277 -0.2916
   74MOL0     H 9927   5.843   1.740   1.341  0.6746 -0.3471 -2.4529
   74MOL0     H 9928   5.812   1.561   1.355  1.4766  0.4254 -1.3304
   74MOL0     H 9929   5.613   1.621   1.182  0.2108 -1.1473  0.2525
   74MOL0     H 9930   5.709   1.761   1.151  1.0032 -0.2570  0.8359
   74MOL0     H 9931   5.813   1.473   1.125 -0.8034 -1.0553  0.3333
   74MOL0     H 9932   5.751   1.581   1.006  1.9986 -4.5563 -1.8527
   74MOL0     H 9933   5.953   1.747   1.107  1.5679 -0.2933  3.0758
   74MOL0     H 9934   6.014   1.590   1.157  0.3442 -0.3131 -0.6106
   74MOL0     H 9935   5.932   1.578   0.875  0.8879 -0.1222 -0.8051
   74MOL0     H 9936   6.032   1.713   0.894 -1.0319  0.6699  0.9019
   74MOL0     H 9937   6.085   1.421   0.986  1.8679 -0.4066  2.7082
   74MOL0     H 9938   6.153   1.493   0.836  0.8247  1.2383  0.7861
   74MOL0     H 9939   6.308   1.451   1.018 -1.1791 -1.0713 -0.0064
   74MOL0     H 9940   6.220   1.578   1.114 -2.0224  0.2866 -0.4656
   74MOL0     H 9941   6.254   1.830   1.069 -1.3565 -0.6159 -0.0468
   74MOL0     H 9942   6.358   2.045   0.944  0.5788 -1.9118  0.9443
   74MOL0     H 9943   6.522   2.033   0.904 -0.5410  1.7085 -0.5182
   74MOL0     H 9944   6.298   1.975   0.704 -1.4096  3.7832 -1.7709
   74MOL0     H 9945   6.474   1.979   0.679 -0.8435 -1.5558 -0.9916
   74MOL0     H 9946   6.369   2.187   0.598 -0.8738  2.2684  0.5945
   74MOL0     H 9947   6.462   2.217   0.745 -1.5407  1.0926  2.9708
   74MOL0     H 9948   6.222   2.217   0.857 -1.2799 -2.1357 -1.3832
   74MOL0     H 9949   6.168   2.245   0.702 -0.1207  3.2396 -1.7182
   74MOL0     H 9950   6.069   2.370   0.905 -2.5046 -1.0362 -0.9108
   74MOL0     H 9951   5.851   2.425   0.984  1.9926 -1.7185 -0.9444
   74MOL0     H 9952   5.843   2.602   0.997  1.6824  1.3266 -0.8584
   74MOL0     H 9953   5.780   2.527   0.846  3.2081  1.6143 -1.5945
   74MOL0     H 9954   6.107   3.046   0.842 -1.7320  1.6160  0.8758
   74MOL0     H 9955   6.217   3.127   1.068 -1.0105  1.3341 -0.4592
   74MOL0     H 9956   6.109   3.232   1.276  1.3411  1.5220  1.5938
   74MOL0     H 9957   6.035   3.158   1.413 -0.5084  1.9306 -0.7734
   74MOL0     H 9958   6.199   3.314   1.467  0.6935 -0.4108  1.0407
   74MOL0     H 9959   6.236   3.162   1.540 -1.6191 -6.0635 -2.8653
   74MOL0     H 9960   6.419   3.330   1.385 -2.6899  1.8436  0.7470
   74MOL0     H 9961   6.344   3.226   1.265  0.2636  1.8898  0.0368
   74MOL0     H 9962   6.523   3.122   1.502  0.9916  0.6372  0.6851
   74MOL0     H 9963   6.403   3.015   1.410  2.6825 -1.8176 -0.5856
   74MOL0     H 9964   6.535   3.039   1.205  0.3572 -0.9138  0.3543
   74MOL0     H 9965   6.636   2.988   1.336  1.0458  1.1074 -1.0934
   74MOL0     H 9966   6.627   3.278   1.259  0.1084  0.4810  1.8804
   74MOL0     H 9967   6.720   3.220   1.389 -1.3677 -0.3699  1.1818
   74MOL0     H 9968   6.778   3.208   1.092  0.7099  0.9864  0.2832
   74MOL0     H 9969   6.835   3.073   1.183  0.5041  0.2666  0.0329
   74MOL0     H 9970   6.936   3.295   1.323  0.4678 -1.2644 -1.0071
   74MOL0     H 9971   6.888   3.375   1.181 -0.0603 -0.8121 -2.3557
   74MOL0     H 9972   5.952   2.881   1.279  0.0625  0.1424  0.6207
   74MOL0     H 9973   5.829   2.824   1.051 -0.7986  0.1095 -1.7493
   74MOL0     H 9974   6.148   2.806   0.684 -1.5328  0.1885  1.7782
   74MOL0     H 9975   6.322   2.624   0.689  0.0339 -3.0842 -2.6408
   74MOL0     H 9976   5.421   1.451   1.619  2.8784 -0.9518 -2.4536
   74MOL0     H 9977   5.183   1.392   1.567  3.6574  0.0348  2.0186
   74MOL0     H 9978   4.739   1.567   1.566 -2.5849  0.0342  1.8637
   74MOL0     H 9979   4.503   1.590   1.482  3.6585  1.8441  3.7206
   74MOL0     H 9980   4.318   1.641   1.370  0.6231 -1.3345  1.7034
   74MOL0     H 9981   4.225   1.569   1.250  0.4850  0.9498 -0.2969
   74MOL0     H 9982   4.368   1.408   1.454  0.0254  0.6082 -0.0042
   74MOL0     H 9983   4.251   1.338   1.348  2.0635 -0.9590  0.9351
   74MOL0     H 9984   4.078   1.516   1.425 -1.3441  1.2191  2.4819
   74MOL0     H 9985   4.186   1.547   1.562  0.9159  0.4854 -0.8440
   74MOL0     H 9986   4.048   1.414   1.655 -0.9295 -1.4398  0.0163
   74MOL0     H 9987   4.174   1.298   1.610  1.6008  0.0656  0.1267
   74MOL0     H 9988   3.837   1.172   1.373  0.9647 -1.6066 -0.1430
   74MOL0     H 9989   4.635   1.477   1.095 -0.7685  2.8267  0.1830
   74MOL0     H 9990   4.856   1.470   1.164 -2.3499  0.0631 -1.3617
   75MOL0     O 9991   7.600   2.807  11.005 -0.1283 -0.6666  0.1279
   75MOL0     C 9992   7.546   2.708  10.945  0.1779 -0.0818 -0.6702
   75MOL0     O 9993   7.420   2.664  10.965 -0.0441 -0.1607  0.1339
   75MOL0     C 9994   7.358   2.710  11.075  0.6335 -0.3149 -0.5337
   75MOL0     C 9995   7.291   2.836  11.066 -0.3823  0.2239 -0.0715
   75MOL0     C 9996   7.243   2.891  11.183 -0.5439 -0.1639 -0.2654
   75MOL0     C 9997   7.238   2.833  11.312 -0.0609 -0.3509  0.2870
   75MOL0     O 9998   7.180   2.882  11.428 -0.4811 -0.0485  0.0590
   75MOL0     C 9999   7.118   3.004  11.430 -0.4733  0.0134 -0.1673
   75MOL0     C10000   7.049   3.024  11.565  0.5106  0.3205 -0.0658
   75MOL0     C10001   6.953   2.908  11.606 -0.5462  1.8256  0.2404
   75MOL0     C10002   6.823   2.950  11.547  0.1072 -0.2033  0.0456
   75MOL0     C10003   6.716   2.846  11.607  0.4351 -0.7828  0.0048
   75MOL0     C10004   6.573   2.899  11.592  0.1135 -0.5911 -0.1352
   75MOL0     C10005   6.509   2.897  11.455 -0.0253  0.3355 -0.6596
   75MOL0     C10006   6.372   2.971  11.465 -0.5549  0.1406  0.9709
   75MOL0     N10007   6.383   3.120  11.459 -0.5201 -0.3162  0.1202
   75MOL0     C10008   6.408   3.189  11.346  0.7919 -0.3515 -0.5420
   75MOL0     C10009   6.422   3.318  11.389 -0.0121 -1.1589 -0.5011
   75MOL0     C10010   6.449   3.441  11.310 -0.1158  0.2072  0.5890
   75MOL0     C10011   6.319   3.497  11.252 -0.6147 -0.0271  0.8172
   75MOL0     C10012   6.348   3.612  11.154 -0.1301  0.3542  0.1275
   75MOL0     C10013   6.233   3.632  11.062  0.2832  0.6520  0.5144
   75MOL0     O10014   6.119   3.685  11.136 -0.3638  0.3992 -0.7675
   75MOL0     C10015   6.008   3.719  11.072  0.0670 -0.5948 -0.5404
   75MOL0     C10016   5.977   3.707  10.933  0.1055  0.0798  0.0408
   75MOL0     C10017   5.858   3.767  10.876 -0.3762 -0.2342  0.8420
   75MOL0     C10018   5.852   3.781  10.725  0.1588  0.7622 -0.3996
   75MOL0     C10019   5.764   3.819  10.963 -0.5649  1.2231 -0.0383
   75MOL0     C10020   5.628   3.863  10.921  0.6827  0.4850 -0.2562
   75MOL0     O10021   5.558   3.946  11.009  0.7591 -0.3223  0.0583
   75MOL0     C10022   5.435   3.992  10.959  0.1256 -0.4339 -0.1834
   75MOL0     C10023   5.435   4.089  10.856 -0.7474  0.1220 -0.3524
   75MOL0     C10024   5.319   4.150  10.806  0.8978  0.3433  0.3358
   75MOL0     C10025   5.192   4.111  10.861 -0.2569 -0.6767 -0.3677
   75MOL0     O10026   5.074   4.169  10.827  0.5592  0.1507 -0.4831
   75MOL0     C10027   5.074   4.278  10.731  0.5642  0.3921  0.3874
   75MOL0     C10028   4.944   4.350  10.740  0.1605 -0.3199 -0.0803
   75MOL0     C10029   4.832   4.243  10.736  0.0956  0.0299  0.2297
   75MOL0     C10030   4.692   4.281  10.711 -0.2539 -1.1028 -0.9735
   75MOL0     C10031   4.624   4.363  10.824  0.1580 -0.9475 -0.1063
   75MOL0     C10032   4.473   4.405  10.811 -0.6685 -0.0667  0.3862
   75MOL0     C10033   4.384   4.279  10.802  0.2286 -0.3773 -1.1420
   75MOL0     C10034   4.235   4.326  10.818  0.0835 -0.4637 -0.4611
   75MOL0    Cl10035   4.201   4.397  10.990  0.1254 -0.5037  0.0943
   75MOL0     C10036   5.195   4.010  10.958 -0.6664  0.2301  0.1460
   75MOL0     C10037   5.314   3.954  11.016 -0.3133  0.9599  0.4043
   75MOL0     O10038   5.585   3.820  10.812  1.0483 -0.2953 -0.1892
   75MOL0     C10039   5.793   3.826  11.102  0.4303 -1.1461 -0.7150
   75MOL0     C10040   5.909   3.773  11.155  0.8705 -0.6906 -0.3492
   75MOL0     N10041   6.393   3.323  11.531  0.5171  0.6229 -0.5252
   75MOL0     N10042   6.372   3.201  11.569 -0.4012 -0.2153 -0.6392
   75MOL0     C10043   7.294   2.701  11.317 -0.0307 -0.3558  0.0496
   75MOL0     C10044   7.351   2.639  11.199  0.2103  0.1023  0.2196
   75MOL0     C10045   7.614   2.638  10.832  0.5531 -0.0421  0.2081
   75MOL0     C10046   7.718   2.693  10.760 -0.5043 -0.3177 -0.7516
   75MOL0     C10047   7.775   2.632  10.657  0.5963 -0.2674  1.1898
   75MOL0     C10048   7.743   2.502  10.620 -0.2691 -1.4984 -0.0397
   75MOL0     O10049   7.804   2.443  10.507  0.3650 -0.0500  0.0714
   75MOL0     C10050   7.906   2.503  10.426  0.5504 -0.0564  0.0454
   75MOL0     C10051   7.899   2.410  10.299 -0.1656 -0.0635  0.7018
   75MOL0     C10052   8.023   2.445  10.213 -0.1991  0.2881 -0.5910
   75MOL0     C10053   8.037   2.370  10.084 -0.8734 -0.1938 -0.9826
   75MOL0     C10054   7.935   2.393   9.989  1.0295  0.0651  1.0221
   75MOL0     C10055   7.846   2.413   9.907  0.2014  0.3606 -1.2274
   75MOL0     C10056   7.633   2.443  10.688  0.0591  0.2070 -0.1832
   75MOL0     C10057   7.567   2.512  10.793 -0.5693  0.2752 -0.3859
   75MOL0     H10058   7.282   2.883  10.969 -1.0973  0.1528 -0.0524
   75MOL0     H10059   7.190   2.985  11.179 -2.4523 -1.2172 -1.9809
   75MOL0     H10060   7.190   3.086  11.425 -1.4914  1.0710  1.6403
   75MOL0     H10061   7.042   3.013  11.352 -0.4649  1.1866 -0.0497
   75MOL0     H10062   7.127   3.027  11.641 -1.0899  0.6939  1.6384
   75MOL0     H10063   6.999   3.120  11.577 -1.2788 -0.7788  2.1952
   75MOL0     H10064   6.990   2.812  11.570 -1.3917  2.2122 -1.8131
   75MOL0     H10065   6.957   2.909  11.716  2.8039 -0.2804  0.2768
   75MOL0     H10066   6.798   3.053  11.571 -2.0274 -0.6982  0.1518
   75MOL0     H10067   6.833   2.948  11.438  0.2478  1.8933 -0.0170
   75MOL0     H10068   6.732   2.749  11.559  2.6331  0.5081 -2.1351
   75MOL0     H10069   6.723   2.839  11.716 -0.4833  2.3426  0.3760
   75MOL0     H10070   6.511   2.831  11.652 -2.0334  0.5696 -0.9553
   75MOL0     H10071   6.568   3.000  11.632  1.9927 -1.4020  2.3685
   75MOL0     H10072   6.568   2.939  11.373 -1.5370 -1.1724 -2.6663
   75MOL0     H10073   6.482   2.793  11.432  1.2214  0.6782 -4.3920
   75MOL0     H10074   6.318   2.927  11.549 -0.7036 -0.9398  0.3397
   75MOL0     H10075   6.323   2.950  11.369  0.6242 -0.1548  0.4143
   75MOL0     H10076   6.422   3.149  11.246  0.4742  1.5562 -1.3738
   75MOL0     H10077   6.490   3.510  11.384 -0.4906 -2.0102  3.0137
   75MOL0     H10078   6.522   3.417  11.233  1.2862 -2.3065  2.5331
   75MOL0     H10079   6.258   3.537  11.333 -4.8973  0.5211 -2.3298
   75MOL0     H10080   6.261   3.418  11.204 -0.7468  1.6951 -2.0532
   75MOL0     H10081   6.434   3.613  11.087 -1.2246  1.1054 -1.3208
   75MOL0     H10082   6.362   3.698  11.221  1.2057 -0.4531  0.9097
   75MOL0     H10083   6.200   3.535  11.023 -0.7843  0.4253  1.9167
   75MOL0     H10084   6.269   3.700  10.984 -1.3520 -0.0672 -0.9426
   75MOL0     H10085   6.047   3.666  10.861 -1.0399  2.2581 -2.4803
   75MOL0     H10086   5.776   3.719  10.679  1.7474  0.0479 -2.1700
   75MOL0     H10087   5.826   3.887  10.713  0.5622  0.9915  0.6043
   75MOL0     H10088   5.950   3.761  10.680 -0.1285  1.1760 -1.2317
   75MOL0     H10089   5.528   4.130  10.818 -0.2104 -3.3052 -3.1905
   75MOL0     H10090   5.340   4.242  10.751  0.6946  1.5583  2.2231
   75MOL0     H10091   5.165   4.339  10.736  0.7002  0.1563  4.7725
   75MOL0     H10092   5.077   4.240  10.628  0.4424  0.2112  0.4504
   75MOL0     H10093   4.940   4.408  10.833  1.4592 -1.7268  0.8880
   75MOL0     H10094   4.934   4.418  10.654 -2.7671  1.5836  1.5847
   75MOL0     H10095   4.835   4.204  10.838  1.6443  1.7803  0.9027
   75MOL0     H10096   4.860   4.158  10.674  0.6736 -0.3443  0.9848
   75MOL0     H10097   4.693   4.344  10.622  0.5662  0.4243  0.0783
   75MOL0     H10098   4.637   4.189  10.688  0.5218 -1.6446 -0.7140
   75MOL0     H10099   4.686   4.454  10.831 -0.8599 -0.3210  1.1935
   75MOL0     H10100   4.636   4.305  10.916  0.4808 -2.3017 -0.9802
   75MOL0     H10101   4.456   4.465  10.901  1.3797 -0.9803  1.4458
   75MOL0     H10102   4.442   4.470  10.728  1.5154 -0.8946 -1.1642
   75MOL0     H10103   4.413   4.209  10.881  1.0593 -2.0838 -2.8674
   75MOL0     H10104   4.383   4.223  10.708 -1.3366 -1.7462 -0.3620
   75MOL0     H10105   4.163   4.245  10.806  0.4362 -1.1919  1.8611
   75MOL0     H10106   4.216   4.404  10.744 -2.1936  0.3609  0.8978
   75MOL0     H10107   5.104   3.960  10.991  0.2403 -0.6147  1.4787
   75MOL0     H10108   5.319   3.875  11.090 -0.3262  0.3346 -0.2506
   75MOL0     H10109   5.718   3.867  11.169  0.9731 -2.0859  0.5003
   75MOL0     H10110   5.920   3.783  11.263 -3.4293  1.1073  0.1120
   75MOL0     H10111   7.301   2.656  11.415 -2.2534 -1.6585 -0.3171
   75MOL0     H10112   7.397   2.542  11.207  0.7273  0.3030 -0.2274
   75MOL0     H10113   7.752   2.793  10.787 -1.7389  0.1508 -0.8434
   75MOL0     H10114   7.852   2.692  10.610  2.4563 -1.0354  3.1127
   75MOL0     H10115   7.871   2.603  10.400 -1.7741 -0.1579  2.3871
   75MOL0     H10116   8.005   2.506  10.473 -0.4987 -1.4743  2.5482
   75MOL0     H10117   7.810   2.423  10.237  0.1787 -0.2800  0.1533
   75MOL0     H10118   7.913   2.304  10.322  2.7965 -0.4363 -2.0452
   75MOL0     H10119   8.115   2.429  10.270 -0.1962  3.2876  0.3828
   75MOL0     H10120   8.028   2.552  10.190  3.5089 -0.4124 -4.3657
   75MOL0     H10121   8.060   2.265  10.102 -0.5060  0.1701  0.9186
   75MOL0     H10122   8.130   2.417  10.050 -0.6061  0.3047  0.3810
   75MOL0     H10123   7.766   2.426   9.837 -1.4940  2.3123  0.9106
   75MOL0     H10124   7.599   2.346  10.654 -1.3578  0.5842  0.0867
   75MOL0     H10125   7.482   2.461  10.838 -0.2585  0.9729  1.0685
   76MOL0     O10126   2.326   8.945   4.673  0.2032 -0.6302 -0.3504
   76MOL0     C10127   2.369   8.907   4.781 -0.9866 -0.5230  0.5430
   76MOL0     O10128   2.314   8.950   4.901 -0.5375 -0.1526  0.0157
   76MOL0     C10129   2.206   9.041   4.887 -0.5292 -0.7647  0.8638
   76MOL0     C10130   2.081   8.995   4.845  0.9571 -0.1407 -0.0721
   76MOL0     C10131   1.979   9.097   4.847 -0.2866 -0.0801 -0.6119
   76MOL0     C10132   1.992   9.234   4.874 -0.0487 -0.2570  0.1974
   76MOL0     O10133   1.881   9.306   4.870 -0.4096 -0.0995  0.3885
   76MOL0     C10134   1.882   9.447   4.828  0.3011  0.9850  0.2097
   76MOL0     C10135   1.860   9.455   4.673 -0.4823 -0.2395 -0.2189
   76MOL0     C10136   1.721   9.413   4.623 -0.0987  0.2325 -0.1979
   76MOL0     C10137   1.709   9.439   4.473 -1.1509  0.2326 -1.0196
   76MOL0     C10138   1.567   9.413   4.420 -1.5428  0.3190 -0.0844
   76MOL0     C10139   1.541   9.407   4.264  0.2035 -0.1821 -0.0177
   76MOL0     C10140   1.400   9.354   4.241  0.0096 -0.2290 -0.0469
   76MOL0     C10141   1.333   9.391   4.105 -0.0733 -0.0729 -0.2611
   76MOL0     N10142   1.210   9.317   4.078 -0.1940 -0.4792  0.1201
   76MOL0     C10143   1.071   9.357   4.085 -1.6902  0.4144  0.1217
   76MOL0     C10144   1.010   9.253   4.022 -0.5492 -0.8636 -0.1087
   76MOL0     C10145   0.858   9.236   3.998 -0.8127 -1.0969  0.1354
   76MOL0     C10146   0.807   9.349   3.919  0.2228 -0.7078 -0.0146
   76MOL0     C10147   0.644   9.357   3.930 -0.7833 -0.1779  0.6117
   76MOL0     C10148   0.574   9.215   3.915 -0.1991 -0.2207 -0.5103
   76MOL0     O10149   0.428   9.243   3.917 -0.0850  0.5466 -0.3474
   76MOL0     C10150   0.370   9.247   3.792 -0.5260  0.4694 -0.2247
   76MOL0     C10151   0.232   9.232   3.791  0.3600  0.5777 -0.3135
   76MOL0     C10152   0.154   9.231   3.676 -0.2701  0.3472 -0.1387
   76MOL0     C10153  -0.002   9.226   3.681  0.0662 -0.3044 -0.1006
   76MOL0     C10154   0.225   9.240   3.556  0.4959  0.3574  0.1839
   76MOL0     C10155   0.168   9.239   3.423 -0.1498 -0.7502 -0.3894
   76MOL0     O10156   0.239   9.200   3.317  0.1421  0.4196  1.5202
   76MOL0     C10157   0.175   9.180   3.192  0.1696  0.1976 -0.3177
   76MOL0     C10158   0.037   9.141   3.169 -0.4666  0.2546 -0.0414
   76MOL0     C10159  -0.004   9.115   3.043  0.0802  0.0211  1.1191
   76MOL0     C10160   0.078   9.142   2.931 -0.0550 -0.3430 -0.3136
   76MOL0     O10161   0.019   9.120   2.810 -0.1158 -0.5114 -0.3179
   76MOL0     C10162   0.090   9.150   2.687  0.6502  0.1503 -0.6532
   76MOL0     C10163   0.013   9.109   2.568 -0.1444  0.1815  0.8218
   76MOL0     C10164  -0.030   8.956   2.562 -0.2455  0.2922  0.0989
   76MOL0     C10165  -0.054   8.904   2.416  0.6283 -0.1648 -0.3206
   76MOL0     C10166  -0.092   8.755   2.393 -0.0736  0.5793 -0.6213
   76MOL0     C10167  -0.240   8.727   2.446 -0.4772 -0.6093 -0.8408
   76MOL0     C10168  -0.302   8.594   2.419 -0.0033  0.9122 -0.6618
   76MOL0     C10169  -0.447   8.567   2.468  0.0349  0.4655 -0.3438
   76MOL0    Cl10170  -0.460   8.519   2.639  0.1288  0.5847  0.0987
   76MOL0     C10171   0.203   9.201   2.953 -0.0236 -0.3134 -0.0875
   76MOL0     C10172   0.253   9.209   3.084  0.4467  0.2411  0.2254
   76MOL0     O10173   0.055   9.292   3.413 -0.2815  0.5209  0.2353
   76MOL0     C10174   0.368   9.253   3.548 -0.2939 -0.6490 -0.1280
   76MOL0     C10175   0.443   9.268   3.666  0.1181  0.3476 -0.3900
   76MOL0     N10176   1.099   9.164   3.979 -0.0078  0.9958 -0.1859
   76MOL0     N10177   1.223   9.192   4.012 -0.4743 -0.2541  0.0277
   76MOL0     C10178   2.128   9.280   4.887  0.2933  0.5225 -0.1061
   76MOL0     C10179   2.227   9.186   4.906  0.8588 -0.1254  0.4430
   76MOL0     C10180   2.501   8.846   4.787 -0.8636  1.0691 -0.0468
   76MOL0     C10181   2.567   8.790   4.906 -0.1077 -0.3023  0.7240
   76MOL0     C10182   2.691   8.726   4.887  0.4086  0.7791 -0.5975
   76MOL0     C10183   2.750   8.720   4.759  0.1357 -0.0571 -0.3794
   76MOL0     O10184   2.869   8.653   4.754  0.5562 -1.1399  0.1510
   76MOL0     C10185   2.971   8.685   4.655 -0.2242 -0.5339  0.0232
   76MOL0     C10186   2.966   8.567   4.546 -0.2092 -0.4431  0.3277
   76MOL0     C10187   3.102   8.548   4.467  0.4394 -0.0589  0.4932
   76MOL0     C10188   3.078   8.493   4.326  0.7053  0.2197 -1.0431
   76MOL0     C10189   3.186   8.424   4.258 -0.3150 -0.3379  0.4331
   76MOL0     C10190   3.288   8.384   4.196  0.1823  0.5825 -0.1747
   76MOL0     C10191   2.690   8.775   4.648 -0.0093 -0.3666 -0.3262
   76MOL0     C10192   2.569   8.840   4.659  0.8288  0.1755  0.1690
   76MOL0     H10193   2.056   8.891   4.823 -0.1114 -0.3975  2.1054
   76MOL0     H10194   1.877   9.059   4.843 -1.1535  2.0811 -4.5633
   76MOL0     H10195   1.797   9.492   4.880  0.7905 -0.5177  2.4505
   76MOL0     H10196   1.971   9.498   4.865  0.4110 -0.0101  1.3719
   76MOL0     H10197   1.873   9.557   4.634  3.4542 -0.9238 -1.0555
   76MOL0     H10198   1.926   9.391   4.615  0.6227  0.0648  0.6621
   76MOL0     H10199   1.705   9.306   4.640 -0.3314  0.2382 -0.3761
   76MOL0     H10200   1.642   9.466   4.677 -1.2044  0.9843 -2.4413
   76MOL0     H10201   1.740   9.544   4.459  2.6199 -0.4158  0.9297
   76MOL0     H10202   1.781   9.373   4.425 -0.2799 -2.1424  3.0503
   76MOL0     H10203   1.541   9.315   4.462  0.1243 -0.4643 -0.7961
   76MOL0     H10204   1.497   9.490   4.454 -2.2574  0.5449 -1.9746
   76MOL0     H10205   1.558   9.510   4.232  4.3977 -0.3769  1.0521
   76MOL0     H10206   1.619   9.340   4.228  1.6889  0.4219  1.9408
   76MOL0     H10207   1.401   9.245   4.257 -0.8139  0.0597  2.2729
   76MOL0     H10208   1.338   9.389   4.323 -1.7654 -2.4422 -0.3229
   76MOL0     H10209   1.408   9.379   4.026  1.8480  0.5351  1.4059
   76MOL0     H10210   1.307   9.497   4.113  0.3154  0.0494 -0.5649
   76MOL0     H10211   1.029   9.452   4.115  1.4088  2.2516 -0.8631
   76MOL0     H10212   0.839   9.143   3.945 -1.2620 -1.0984  0.2936
   76MOL0     H10213   0.810   9.220   4.096  2.1257  1.0809  2.1088
   76MOL0     H10214   0.842   9.353   3.816  0.6781  1.9791  0.1784
   76MOL0     H10215   0.848   9.440   3.963  0.9879 -2.2151  2.6339
   76MOL0     H10216   0.587   9.416   3.857 -0.6500  0.1751  0.7934
   76MOL0     H10217   0.608   9.396   4.026 -4.9090  2.2934 -1.6400
   76MOL0     H10218   0.597   9.147   3.998 -2.2277 -0.9412 -0.4769
   76MOL0     H10219   0.614   9.167   3.825 -0.1286  1.5268 -1.4496
   76MOL0     H10220   0.192   9.251   3.891  1.6635  0.0845  0.3190
   76MOL0     H10221  -0.038   9.177   3.590  0.9968  0.4404 -0.8968
   76MOL0     H10222  -0.037   9.180   3.773 -1.3983  3.6420  1.5283
   76MOL0     H10223  -0.052   9.323   3.679  1.2438  0.4307  2.0604
   76MOL0     H10224  -0.044   9.129   3.240 -0.1042 -2.4698  0.0126
   76MOL0     H10225  -0.102   9.072   3.024  0.4346 -0.6411  0.7683
   76MOL0     H10226   0.107   9.258   2.682  2.7782 -0.0696  0.6863
   76MOL0     H10227   0.186   9.099   2.680  0.5977 -0.0529 -0.0052
   76MOL0     H10228  -0.079   9.166   2.574 -1.9676 -2.5374  0.4987
   76MOL0     H10229   0.080   9.130   2.484  1.6798 -1.7654  1.6736
   76MOL0     H10230  -0.124   8.947   2.618 -0.1511  0.2011  0.2441
   76MOL0     H10231   0.044   8.888   2.605 -0.6570 -1.2579 -1.5218
   76MOL0     H10232  -0.130   8.963   2.364 -1.5696 -1.1211  1.6288
   76MOL0     H10233   0.041   8.926   2.367  2.1326  2.1798  3.1930
   76MOL0     H10234  -0.029   8.683   2.446 -0.4112  0.3294 -0.5518
   76MOL0     H10235  -0.078   8.736   2.286 -2.6466  1.9228 -1.2857
   76MOL0     H10236  -0.238   8.743   2.554 -1.0620  2.4651 -1.1956
   76MOL0     H10237  -0.312   8.799   2.406 -1.6940 -0.9323  0.6773
   76MOL0     H10238  -0.237   8.511   2.450 -2.8108 -0.8966  0.7261
   76MOL0     H10239  -0.303   8.602   2.310  0.6734  2.6114 -0.5718
   76MOL0     H10240  -0.490   8.480   2.415  1.8446 -0.2019 -0.7871
   76MOL0     H10241  -0.506   8.658   2.452 -2.2859 -0.9459 -0.3701
   76MOL0     H10242   0.263   9.231   2.868 -0.2800  0.3316 -0.0485
   76MOL0     H10243   0.353   9.251   3.097  0.9622 -0.5384 -1.0453
   76MOL0     H10244   0.431   9.262   3.460  0.2002  0.9881  0.3478
   76MOL0     H10245   0.548   9.294   3.668  0.4489 -0.9252  1.1387
   76MOL0     H10246   2.143   9.387   4.889 -3.1262  1.1112  1.5981
   76MOL0     H10247   2.320   9.230   4.940  0.9469  2.3160 -2.5525
   76MOL0     H10248   2.521   8.796   5.005  1.5445  2.4153  1.4263
   76MOL0     H10249   2.745   8.688   4.973  1.2549  1.3381 -0.8662
   76MOL0     H10250   2.963   8.790   4.623  0.1790 -1.0107 -1.7908
   76MOL0     H10251   3.064   8.677   4.711  1.3672 -0.8208 -2.4702
   76MOL0     H10252   2.882   8.588   4.479 -1.9184 -1.6361  1.9854
   76MOL0     H10253   2.931   8.474   4.592 -1.1159 -0.3800 -0.2168
   76MOL0     H10254   3.163   8.482   4.530  3.0367  2.3850  0.7508
   76MOL0     H10255   3.140   8.650   4.463 -0.4842  0.3918  2.2567
   76MOL0     H10256   3.054   8.582   4.267  0.2141  1.1322  0.4512
   76MOL0     H10257   2.990   8.428   4.321 -0.6774  1.8423  0.6435
   76MOL0     H10258   3.382   8.370   4.147  1.5675  1.4496  2.0937
   76MOL0     H10259   2.732   8.772   4.548  1.5128  0.9202  0.2342
   76MOL0     H10260   2.519   8.886   4.574 -2.0909 -1.3834  0.9310
   77MOL0     O10261   8.763  11.411   4.838 -0.6484  0.4298 -0.3932
   77MOL0     C10262   8.698  11.308   4.850 -0.0633  0.2166  0.1931
   77MOL0     O10263   8.725  11.207   4.935 -0.2905  0.0794 -0.7717
   77MOL0     C10264   8.838  11.196   5.012 -1.0576  0.8970  0.1681
   77MOL0     C10265   8.828  11.116   5.128 -0.4152 -0.1953 -1.4660
   77MOL0     C10266   8.937  11.086   5.200  0.7927  0.1827 -0.5478
   77MOL0     C10267   9.059  11.143   5.167 -0.4137 -0.2417 -0.7977
   77MOL0     O10268   9.173  11.118   5.241  0.2607 -0.6015 -0.7396
   77MOL0     C10269   9.194  10.982   5.289  0.2379  0.1606 -0.4893
   77MOL0     C10270   9.312  11.004   5.383  0.0666  0.9156  0.2226
   77MOL0     C10271   9.387  10.869   5.405  0.2258 -0.4173 -0.6544
   77MOL0     C10272   9.539  10.887   5.419 -0.4926 -0.2542  0.2717
   77MOL0     C10273   9.578  10.976   5.539 -0.4463 -0.7944  0.2045
   77MOL0     C10274   9.602  10.900   5.669 -1.1996  0.2693  0.5018
   77MOL0     C10275   9.693  10.976   5.775 -0.3184  0.3606 -0.5133
   77MOL0     C10276   9.709  10.908   5.909  0.6633  0.0553 -0.1103
   77MOL0     N10277   9.833  10.966   5.977  0.4977 -0.4675 -0.1790
   77MOL0     C10278   9.860  11.099   6.000  0.3968  0.3489 -0.1265
   77MOL0     C10279   9.992  11.117   6.018  0.1270 -0.7633 -0.3261
   77MOL0     C10280  10.068  11.252   6.048 -0.1345  0.3935 -0.4421
   77MOL0     C10281  10.217  11.247   6.028  0.6130  0.7677 -1.1024
   77MOL0     C10282  10.256  11.247   5.879 -0.8545 -0.1164 -1.0970
   77MOL0     C10283  10.405  11.248   5.861 -0.2199 -0.0606 -0.5905
   77MOL0     O10284  10.464  11.337   5.960 -0.7598  0.2254  0.5407
   77MOL0     C10285  10.600  11.314   5.968 -0.4744  0.0134 -1.2198
   77MOL0     C10286  10.678  11.413   6.025  0.2761 -0.1091 -0.0771
   77MOL0     C10287  10.818  11.426   6.014 -0.0361  0.6500  0.0540
   77MOL0     C10288  10.878  11.548   6.077  0.1509 -0.4926  0.0948
   77MOL0     C10289  10.885  11.328   5.946  0.0642 -0.7277 -0.7102
   77MOL0     C10290  11.034  11.326   5.934 -0.3944  0.0895  0.8362
   77MOL0     O10291  11.102  11.437   5.973 -0.6026 -0.4189 -0.1977
   77MOL0     C10292  11.239  11.442   5.953 -0.7677 -0.7042  0.1146
   77MOL0     C10293  11.280  11.439   5.825  0.3434  0.5666  0.5902
   77MOL0     C10294  11.422  11.449   5.802  0.0872 -0.8593  0.4580
   77MOL0     C10295  11.512  11.462   5.913  0.7017  0.3330 -0.5693
   77MOL0     O10296  11.644  11.472   5.898  0.2462 -0.2974 -0.7262
   77MOL0     C10297  11.687  11.561   5.796  0.5947  0.5223  0.0801
   77MOL0     C10298  11.822  11.617   5.812  0.2586 -0.1833 -0.5426
   77MOL0     C10299  11.832  11.751   5.905 -0.5600 -0.5582  0.4513
   77MOL0     C10300  11.963  11.772   5.987 -0.5152  0.3926  1.0855
   77MOL0     C10301  11.946  11.847   6.111 -0.3869 -0.6756  0.0648
   77MOL0     C10302  11.930  11.994   6.096  0.2719 -0.6785  0.2128
   77MOL0     C10303  12.061  12.060   6.062 -0.2722 -0.1718  0.3027
   77MOL0     C10304  12.047  12.207   6.029 -0.2484  0.3752  0.0411
   77MOL0    Cl10305  11.984  12.303   6.171 -0.1199 -0.4462 -0.1131
   77MOL0     C10306  11.469  11.463   6.045  0.5569  0.1069 -0.5331
   77MOL0     C10307  11.329  11.463   6.060 -0.8799 -0.4085 -0.0736
   77MOL0     O10308  11.091  11.223   5.889  0.2378 -0.0423 -0.2042
   77MOL0     C10309  10.811  11.228   5.885  0.2207 -0.4595  0.9717
   77MOL0     C10310  10.674  11.223   5.897  0.3421  0.8767  0.1718
   77MOL0     N10311  10.043  10.996   5.992 -0.1584 -0.0637 -0.8158
   77MOL0     N10312   9.954  10.910   5.970  0.8576 -0.2545 -0.2720
   77MOL0     C10313   9.076  11.225   5.056  0.8803  0.2280  0.0756
   77MOL0     C10314   8.966  11.245   4.976  0.2253  0.8741  0.7875
   77MOL0     C10315   8.569  11.297   4.772  0.2713 -0.5835 -0.3011
   77MOL0     C10316   8.483  11.193   4.824 -0.2865  0.1401  1.0158
   77MOL0     C10317   8.355  11.183   4.767 -0.7675 -0.6014  0.7349
   77MOL0     C10318   8.308  11.266   4.663 -0.7735  0.6024 -0.5063
   77MOL0     O10319   8.182  11.227   4.624 -0.2629 -0.1203  0.1366
   77MOL0     C10320   8.093  11.304   4.543 -0.1559  0.0485  0.1114
   77MOL0     C10321   7.982  11.368   4.619  0.7190 -0.6180  0.1958
   77MOL0     C10322   8.050  11.484   4.703  0.9352 -0.8826  0.5577
   77MOL0     C10323   8.002  11.492   4.849 -0.0591  0.7429  0.6269
   77MOL0     C10324   8.043  11.377   4.938 -0.3749 -0.6161  0.3682
   77MOL0     C10325   8.069  11.294   5.020 -0.0705 -1.1070  0.9448
   77MOL0     C10326   8.401  11.352   4.598 -0.0855 -0.2353 -0.2852
   77MOL0     C10327   8.531  11.371   4.666 -0.0622  0.5728 -0.0702
   77MOL0     H10328   8.727  11.093   5.161  0.1039  0.4363  0.7138
   77MOL0     H10329   8.920  11.022   5.286  2.6555 -2.4044 -1.9440
   77MOL0     H10330   9.111  10.943   5.348 -2.8012  3.3523 -2.2888
   77MOL0     H10331   9.217  10.919   5.203  1.9027  2.3773 -1.8028
   77MOL0     H10332   9.379  11.077   5.337 -0.1622  2.5303  2.3598
   77MOL0     H10333   9.272  11.047   5.475 -0.5874 -0.5876  0.6879
   77MOL0     H10334   9.367  10.838   5.508 -0.9272 -1.3097 -1.1234
   77MOL0     H10335   9.341  10.783   5.355 -2.7659 -0.0374  1.1817
   77MOL0     H10336   9.584  10.788   5.419 -1.7310 -0.9230 -2.6523
   77MOL0     H10337   9.566  10.938   5.326 -2.3373  2.9036  1.3216
   77MOL0     H10338   9.674  11.019   5.506 -2.0291  2.5494 -0.4627
   77MOL0     H10339   9.512  11.059   5.563 -0.5508 -1.2056  1.3948
   77MOL0     H10340   9.500  10.881   5.703 -2.0519  1.5718 -1.1820
   77MOL0     H10341   9.655  10.807   5.644 -2.6320 -1.1208  2.2970
   77MOL0     H10342   9.792  10.995   5.732 -1.1448  0.6831 -2.3311
   77MOL0     H10343   9.641  11.071   5.786 -2.5830 -0.8863  0.0474
   77MOL0     H10344   9.701  10.800   5.893 -2.4161 -0.1258  1.8951
   77MOL0     H10345   9.614  10.929   5.960  0.9461  3.3480 -0.6971
   77MOL0     H10346   9.775  11.166   6.013 -1.6657 -2.0192 -0.5629
   77MOL0     H10347  10.030  11.329   5.981 -2.4340 -1.3864 -1.3279
   77MOL0     H10348  10.042  11.279   6.151 -1.1156  2.8662 -1.2756
   77MOL0     H10349  10.259  11.163   6.084 -0.4296  0.8559 -0.1715
   77MOL0     H10350  10.267  11.335   6.068  0.6645  0.1066  0.3235
   77MOL0     H10351  10.217  11.333   5.823  0.6637  0.2823 -1.5823
   77MOL0     H10352  10.210  11.158   5.835 -0.2572 -2.0761  1.9392
   77MOL0     H10353  10.434  11.262   5.756 -3.0310  0.2246 -1.4033
   77MOL0     H10354  10.446  11.150   5.887  0.3938  0.0427 -1.1576
   77MOL0     H10355  10.618  11.489   6.073  0.7382 -1.1713  2.3141
   77MOL0     H10356  10.918  11.624   6.009 -0.0006  1.2911  1.9218
   77MOL0     H10357  10.808  11.602   6.141  0.6931 -0.6672  0.8558
   77MOL0     H10358  10.952  11.522   6.153  1.0931 -2.6938 -1.4702
   77MOL0     H10359  11.205  11.430   5.747  0.9373  0.2992  0.0428
   77MOL0     H10360  11.462  11.449   5.701  0.7734 -1.9603  0.7181
   77MOL0     H10361  11.688  11.502   5.703  0.6663  0.1844  0.2948
   77MOL0     H10362  11.620  11.647   5.795 -0.9312 -0.6085  0.5978
   77MOL0     H10363  11.890  11.537   5.843  1.3397 -0.2264 -2.8034
   77MOL0     H10364  11.852  11.639   5.709 -1.1035 -0.1013 -0.9391
   77MOL0     H10365  11.755  11.749   5.983  0.2200  0.2599  1.2706
   77MOL0     H10366  11.820  11.843   5.847  0.6145 -0.0550  0.9774
   77MOL0     H10367  11.991  11.671   6.017 -3.0945 -0.8517 -0.3460
   77MOL0     H10368  12.043  11.805   5.920 -1.5577 -1.3087 -1.1286
   77MOL0     H10369  12.032  11.844   6.178 -2.3039  4.4285  3.3372
   77MOL0     H10370  11.869  11.802   6.175  0.1981  2.9862  3.7592
   77MOL0     H10371  11.857  12.017   6.018  3.0277 -1.2049 -2.7243
   77MOL0     H10372  11.886  12.042   6.184  0.3701  0.4014 -0.3184
   77MOL0     H10373  12.099  12.020   5.968 -1.6996 -2.4882  0.6170
   77MOL0     H10374  12.142  12.042   6.133 -0.1683 -0.4156  0.1250
   77MOL0     H10375  11.966  12.201   5.955 -0.8325  0.6284  0.6559
   77MOL0     H10376  12.132  12.250   5.976 -2.0936 -1.5229 -5.2151
   77MOL0     H10377  11.539  11.476   6.127  0.3746  1.7840 -0.6048
   77MOL0     H10378  11.270  11.467   6.151 -2.6642 -0.6308 -1.1761
   77MOL0     H10379  10.853  11.168   5.805 -0.4576 -0.1316  0.3559
   77MOL0     H10380  10.630  11.142   5.840  0.9260 -0.3587  1.4197
   77MOL0     H10381   9.177  11.258   5.033  0.5190  1.7422  0.5088
   77MOL0     H10382   8.981  11.294   4.880  0.6943 -0.3296  0.2379
   77MOL0     H10383   8.490  11.128   4.910  0.2843 -1.1131  0.0420
   77MOL0     H10384   8.267  11.125   4.796 -2.7112  0.8940 -1.7279
   77MOL0     H10385   8.137  11.382   4.480  0.5198 -0.5979 -0.2350
   77MOL0     H10386   8.057  11.226   4.476  1.2420 -1.6595  1.2478
   77MOL0     H10387   7.923  11.301   4.683  0.2448  0.0040  0.4203
   77MOL0     H10388   7.910  11.408   4.548 -1.6088  0.2366  2.8586
   77MOL0     H10389   8.017  11.582   4.665 -2.4300 -1.3200  2.0106
   77MOL0     H10390   8.159  11.488   4.697  0.9669  3.8113 -0.2320
   77MOL0     H10391   7.894  11.476   4.852  0.2561 -2.1403  5.3095
   77MOL0     H10392   8.021  11.587   4.901 -1.7366  0.5088  1.7153
   77MOL0     H10393   8.093  11.225   5.098  0.8240 -2.1161 -0.1898
   77MOL0     H10394   8.376  11.424   4.520  1.7001  3.5008  2.2790
   77MOL0     H10395   8.609  11.438   4.631 -0.8260  2.6808  2.0885
   78MOL0     O10396  10.761   6.866   1.924 -0.5825  0.2473  0.3514
   78MOL0     C10397  10.790   6.978   1.965 -0.1442  0.2451  0.0202
   78MOL0     O10398  10.729   7.094   1.930  0.2234 -0.8595  0.0867
   78MOL0     C10399  10.636   7.083   1.839  0.8232 -0.3758 -0.1721
   78MOL0     C10400  10.681   7.069   1.705  0.4067  0.6355 -0.2153
   78MOL0     C10401  10.590   7.052   1.603  0.3003 -0.8377  1.1070
   78MOL0     C10402  10.452   7.075   1.631  0.1734 -0.4256  0.2957
   78MOL0     O10403  10.364   7.057   1.525  0.1221  0.0375 -0.0338
   78MOL0     C10404  10.226   7.105   1.542 -0.2317  0.6304 -0.7287
   78MOL0     C10405  10.157   7.088   1.408  0.4066  0.3977  0.5206
   78MOL0     C10406  10.032   7.170   1.388 -0.2124 -0.2580  0.4345
   78MOL0     C10407   9.909   7.114   1.463  0.3459 -0.9425  0.1498
   78MOL0     C10408   9.784   7.206   1.427  0.7532  0.6257 -0.1220
   78MOL0     C10409   9.736   7.222   1.285  0.1933 -0.6700  0.0936
   78MOL0     C10410   9.754   7.094   1.213  0.1300 -0.0727  0.2975
   78MOL0     C10411   9.655   6.989   1.260 -0.3243  0.6165 -0.7895
   78MOL0     N10412   9.517   7.016   1.207  0.0328 -0.7459 -0.9221
   78MOL0     C10413   9.456   6.938   1.108 -0.2448 -0.0708  0.4269
   78MOL0     C10414   9.332   6.972   1.123  0.2565 -0.2374  0.6799
   78MOL0     C10415   9.226   6.895   1.055 -0.1831 -0.4646  0.8001
   78MOL0     C10416   9.093   6.974   1.065  0.4502 -0.5993 -0.1061
   78MOL0     C10417   9.015   6.960   0.924  0.3450 -0.2159 -0.8832
   78MOL0     C10418   8.871   7.014   0.944  0.0649 -0.3981  0.2674
   78MOL0     O10419   8.788   6.976   0.832 -0.0741  0.3872 -0.1564
   78MOL0     C10420   8.652   6.999   0.827  0.3542 -0.6548 -0.5647
   78MOL0     C10421   8.577   7.073   0.924  0.3366  0.5467 -0.6026
   78MOL0     C10422   8.443   7.123   0.903  0.1252  0.1052  1.2432
   78MOL0     C10423   8.368   7.206   0.999  0.1044  0.9716 -0.2939
   78MOL0     C10424   8.373   7.089   0.778 -0.5054 -0.2798  0.6396
   78MOL0     C10425   8.244   7.142   0.738 -0.0003 -0.1307  0.3312
   78MOL0     O10426   8.209   7.273   0.755 -0.8361 -0.2238  0.6672
   78MOL0     C10427   8.087   7.322   0.713  0.0771 -0.2097 -0.4649
   78MOL0     C10428   8.016   7.300   0.591 -1.1682  0.4974 -0.0002
   78MOL0     C10429   7.886   7.344   0.575 -0.1267  0.3638  0.1255
   78MOL0     C10430   7.815   7.420   0.667 -0.6012 -0.3495  0.3081
   78MOL0     O10431   7.703   7.487   0.644 -0.6552  0.4816  0.4018
   78MOL0     C10432   7.615   7.433   0.543 -0.0146 -0.6585  0.1830
   78MOL0     C10433   7.487   7.503   0.531  0.2591 -0.8777 -0.2959
   78MOL0     C10434   7.406   7.473   0.652 -0.1232 -0.3974 -0.3509
   78MOL0     C10435   7.257   7.506   0.629 -0.1909  1.0347  0.1584
   78MOL0     C10436   7.175   7.510   0.756 -0.7741 -0.1350 -0.4902
   78MOL0     C10437   7.159   7.371   0.829  0.3460 -1.1537 -0.4476
   78MOL0     C10438   7.104   7.262   0.732 -0.2428 -0.4576 -0.4167
   78MOL0     C10439   7.059   7.148   0.816  0.2570  0.7933 -0.7501
   78MOL0    Cl10440   6.907   7.199   0.893 -0.4904 -0.1316  0.1489
   78MOL0     C10441   7.894   7.457   0.774  0.4669  1.0349  0.4779
   78MOL0     C10442   8.022   7.410   0.805  0.0664 -0.2151  0.2541
   78MOL0     O10443   8.167   7.056   0.694 -0.6724 -0.5871  0.2220
   78MOL0     C10444   8.446   7.009   0.692  0.1972  0.4960 -0.2731
   78MOL0     C10445   8.583   6.969   0.707  0.4794 -0.2981  0.0590
   78MOL0     N10446   9.316   7.075   1.212 -0.2325  0.2830 -0.1121
   78MOL0     N10447   9.432   7.110   1.262 -0.5170 -0.0820 -0.1168
   78MOL0     C10448  10.410   7.085   1.766  0.6556 -0.2331  0.8406
   78MOL0     C10449  10.507   7.095   1.868  0.6821 -0.6214  0.0781
   78MOL0     C10450  10.893   6.980   2.074  0.7240  0.1873  0.7620
   78MOL0     C10451  10.928   7.107   2.126  0.2984  1.0109  0.2938
   78MOL0     C10452  11.026   7.107   2.231  0.5142  0.2360 -0.1262
   78MOL0     C10453  11.093   6.990   2.280 -0.6999 -0.7931 -0.4309
   78MOL0     O10454  11.195   6.990   2.377 -0.2137 -0.3433  0.5584
   78MOL0     C10455  11.263   7.113   2.396  0.0144 -0.3427 -0.2283
   78MOL0     C10456  11.384   7.081   2.482  0.2403  0.4804 -0.8764
   78MOL0     C10457  11.358   7.040   2.634  0.0588 -0.1111 -0.0253
   78MOL0     C10458  11.463   7.111   2.715 -0.6138  1.0917  0.3590
   78MOL0     C10459  11.433   7.246   2.737  0.5170 -0.2066  0.5786
   78MOL0     C10460  11.413   7.362   2.767 -1.0933  0.3948 -0.6246
   78MOL0     C10461  11.045   6.869   2.230 -0.0461 -1.0563 -0.1275
   78MOL0     C10462  10.942   6.863   2.138 -0.1684 -0.6855  0.6666
   78MOL0     H10463  10.784   7.046   1.680 -0.2398 -2.5578 -0.4331
   78MOL0     H10464  10.625   7.026   1.503  0.6047  3.0838  0.0138
   78MOL0     H10465  10.166   7.037   1.603 -1.7339  2.2209 -0.3623
   78MOL0     H10466  10.226   7.206   1.585 -1.8641  1.4856 -2.6028
   78MOL0     H10467  10.225   7.132   1.335  2.0899  0.1786  1.9098
   78MOL0     H10468  10.143   6.989   1.362 -1.1036  0.4103  0.8748
   78MOL0     H10469  10.046   7.276   1.412 -2.0898 -0.0963  0.9595
   78MOL0     H10470   9.996   7.159   1.285 -1.2403 -3.3786  1.0286
   78MOL0     H10471   9.884   7.011   1.433  1.3126 -0.2688 -3.4630
   78MOL0     H10472   9.912   7.115   1.572 -0.2213  0.5076  0.1713
   78MOL0     H10473   9.691   7.174   1.475  1.1746 -2.7845 -1.3124
   78MOL0     H10474   9.814   7.308   1.451  1.7028  0.8043 -1.9595
   78MOL0     H10475   9.642   7.276   1.290  0.8167  0.6447 -1.4195
   78MOL0     H10476   9.802   7.294   1.236 -1.9187  0.1255 -1.7192
   78MOL0     H10477   9.729   7.110   1.108 -1.4410  0.6789  0.7711
   78MOL0     H10478   9.849   7.040   1.223  1.6798  1.9520 -2.3223
   78MOL0     H10479   9.654   6.979   1.369  3.0040 -0.1991 -0.7094
   78MOL0     H10480   9.699   6.898   1.219  1.0650  0.6667  0.4852
   78MOL0     H10481   9.491   6.853   1.052 -2.0983 -0.6276  0.0331
   78MOL0     H10482   9.241   6.890   0.946 -0.6259  1.8793  0.5898
   78MOL0     H10483   9.227   6.798   1.105  2.1485 -2.2326 -2.2651
   78MOL0     H10484   9.112   7.081   1.077  1.0029 -0.1782 -3.5609
   78MOL0     H10485   9.026   6.935   1.142  0.9549  0.3043  0.8074
   78MOL0     H10486   9.005   6.853   0.901 -0.3574 -0.0443 -1.3827
   78MOL0     H10487   9.066   7.009   0.841  2.9113 -1.1903  0.0222
   78MOL0     H10488   8.874   7.122   0.960  2.3148 -0.5502  1.3658
   78MOL0     H10489   8.826   6.969   1.033  1.7277 -0.6899  1.0099
   78MOL0     H10490   8.618   7.106   1.018 -0.6037  0.9916 -0.3390
   78MOL0     H10491   8.270   7.160   1.014  1.1809 -1.8126 -1.2426
   78MOL0     H10492   8.421   7.200   1.095  0.7157 -0.6590 -0.7032
   78MOL0     H10493   8.374   7.311   0.969  0.6741  0.8461 -0.6432
   78MOL0     H10494   8.062   7.243   0.512 -2.3431  0.4721 -0.6853
   78MOL0     H10495   7.843   7.322   0.478  0.4804  0.8327 -0.2601
   78MOL0     H10496   7.665   7.457   0.449  0.5142 -2.6296 -0.0989
   78MOL0     H10497   7.598   7.325   0.539 -0.5716 -0.5409 -0.8143
   78MOL0     H10498   7.509   7.610   0.526  0.8868 -0.8286  2.0890
   78MOL0     H10499   7.445   7.462   0.439  2.9469  0.0668 -2.0622
   78MOL0     H10500   7.462   7.529   0.728  4.3108 -0.6299 -3.1246
   78MOL0     H10501   7.421   7.368   0.677 -2.0187 -1.0388 -1.6758
   78MOL0     H10502   7.255   7.609   0.593  5.1985  1.7469  1.1003
   78MOL0     H10503   7.211   7.442   0.553 -0.5877 -1.3222  2.2279
   78MOL0     H10504   7.076   7.540   0.721 -0.4661 -1.0495 -2.2715
   78MOL0     H10505   7.226   7.566   0.834  0.9833 -2.7890  0.3779
   78MOL0     H10506   7.254   7.332   0.867  1.0300 -0.7483 -1.6889
   78MOL0     H10507   7.101   7.382   0.920  1.4058 -0.0898  0.1252
   78MOL0     H10508   7.188   7.229   0.670 -0.8903  3.2714 -3.6928
   78MOL0     H10509   7.025   7.295   0.663  0.0601 -1.7468 -1.4280
   78MOL0     H10510   7.132   7.114   0.890 -0.9705 -0.2916 -0.0113
   78MOL0     H10511   7.030   7.065   0.751 -0.1954  0.2460  0.1422
   78MOL0     H10512   7.840   7.516   0.847 -0.4570  0.9347 -0.1079
   78MOL0     H10513   8.071   7.447   0.894 -0.3568 -0.8740  0.7665
   78MOL0     H10514   8.405   7.020   0.592  1.5395  2.0346 -0.6914
   78MOL0     H10515   8.627   6.931   0.615 -0.4682 -1.1199 -0.0759
   78MOL0     H10516  10.304   7.095   1.785 -0.0373  0.6422 -2.8472
   78MOL0     H10517  10.472   7.103   1.970  2.1882 -2.0076  0.7419
   78MOL0     H10518  10.892   7.193   2.069  0.1126  0.4282 -0.4922
   78MOL0     H10519  11.055   7.202   2.276  4.6368 -0.5657 -0.7658
   78MOL0     H10520  11.298   7.164   2.305 -0.5668  0.9842  0.2559
   78MOL0     H10521  11.190   7.181   2.442 -0.3790 -0.0851 -1.2224
   78MOL0     H10522  11.446   7.171   2.473 -1.3333  1.5379 -1.5529
   78MOL0     H10523  11.453   7.006   2.442 -1.5821 -1.5144 -0.4052
   78MOL0     H10524  11.378   6.932   2.628  0.6884 -0.0327  0.5235
   78MOL0     H10525  11.257   7.047   2.676  0.5614  0.9112  1.0636
   78MOL0     H10526  11.562   7.099   2.671 -0.6470  1.8722  0.0568
   78MOL0     H10527  11.467   7.063   2.813 -3.1976 -2.8774 -1.1992
   78MOL0     H10528  11.416   7.463   2.802  1.3202  0.0439  0.3459
   78MOL0     H10529  11.086   6.784   2.283  2.6127  0.0857 -0.1610
   78MOL0     H10530  10.915   6.762   2.112 -0.3374  0.1567 -2.9304
   79MOL0     O10531   6.698   3.125   9.980  0.2107  0.3952  0.0947
   79MOL0     C10532   6.619   3.212   9.950 -0.5309 -0.2859 -0.2149
   79MOL0     O10533   6.648   3.339   9.907  0.2657  0.1047  1.1739
   79MOL0     C10534   6.781   3.368   9.901 -0.7408 -0.0653  0.4879
   79MOL0     C10535   6.834   3.457   9.993  0.9549  0.3047 -0.3003
   79MOL0     C10536   6.976   3.488  10.008 -0.0244 -0.1230  0.5539
   79MOL0     C10537   7.072   3.433   9.922  0.1079 -0.7469 -0.0470
   79MOL0     O10538   7.203   3.485   9.925 -0.1477  0.2972  0.3744
   79MOL0     C10539   7.280   3.449   9.808  0.1761 -0.9035  0.2761
   79MOL0     C10540   7.361   3.574   9.781  0.0248  0.7420  0.1827
   79MOL0     C10541   7.460   3.549   9.672 -0.8206 -0.0018  0.4205
   79MOL0     C10542   7.516   3.688   9.637  0.4563  1.0391  0.1669
   79MOL0     C10543   7.614   3.701   9.520  0.3386  0.7160 -0.4258
   79MOL0     C10544   7.745   3.629   9.545 -0.5091 -0.4175  0.2577
   79MOL0     C10545   7.859   3.656   9.439  0.8960 -0.2130 -0.4638
   79MOL0     C10546   7.995   3.592   9.479  0.1857 -0.6184  0.5385
   79MOL0     N10547   7.972   3.460   9.525 -0.0209  0.4553 -0.1169
   79MOL0     C10548   7.933   3.353   9.448  0.2326 -0.1066  0.7516
   79MOL0     C10549   7.904   3.256   9.535  0.4595  0.2452 -0.8451
   79MOL0     C10550   7.849   3.117   9.506  0.2152  0.7435  0.7232
   79MOL0     C10551   7.697   3.102   9.555  0.9417 -0.6576  0.1393
   79MOL0     C10552   7.610   3.202   9.486 -0.0071 -0.1054  0.5744
   79MOL0     C10553   7.470   3.139   9.496  0.3344  0.7127  0.2894
   79MOL0     O10554   7.385   3.239   9.446  0.2334 -0.1511 -0.2277
   79MOL0     C10555   7.248   3.232   9.447  0.1734 -0.7263  0.6672
   79MOL0     C10556   7.179   3.127   9.499  0.2724 -0.3357  0.2222
   79MOL0     C10557   7.035   3.131   9.514 -0.3710  0.3795 -0.9603
   79MOL0     C10558   6.979   3.012   9.584 -0.2558  0.3305 -0.3074
   79MOL0     C10559   6.960   3.249   9.484  0.5162 -0.0194  1.0182
   79MOL0     C10560   6.814   3.269   9.479 -0.2293 -0.1989  0.2979
   79MOL0     O10561   6.764   3.397   9.444 -1.1407 -0.7932 -0.2435
   79MOL0     C10562   6.634   3.417   9.450  0.2804 -0.1299 -0.5632
   79MOL0     C10563   6.563   3.436   9.569  0.7473  0.0792 -0.8473
   79MOL0     C10564   6.424   3.444   9.567  0.1054 -0.7056 -0.3697
   79MOL0     C10565   6.358   3.436   9.451  0.4753  0.1916 -0.1938
   79MOL0     O10566   6.221   3.446   9.450 -0.2758 -0.2917 -0.6390
   79MOL0     C10567   6.148   3.323   9.471  0.5581  0.0976 -0.1549
   79MOL0     C10568   6.016   3.379   9.520 -0.5638 -0.0656 -0.7860
   79MOL0     C10569   5.932   3.257   9.555 -0.6682 -0.7709  0.4524
   79MOL0     C10570   5.793   3.314   9.581  0.2977 -0.5653  0.9005
   79MOL0     C10571   5.688   3.199   9.588  0.1988 -0.6195 -0.5588
   79MOL0     C10572   5.670   3.112   9.460  0.1444 -0.0811  0.1663
   79MOL0     C10573   5.549   3.019   9.482  0.7367  0.5008 -0.3662
   79MOL0     C10574   5.509   2.928   9.363  0.2809 -0.1267 -0.1137
   79MOL0    Cl10575   5.384   2.805   9.415  0.3844  0.0902 -0.0126
   79MOL0     C10576   6.428   3.433   9.332  0.3384 -0.5449  0.2132
   79MOL0     C10577   6.566   3.412   9.331  0.2179  0.5035 -0.1200
   79MOL0     O10578   6.741   3.175   9.487 -0.8664 -0.1517 -0.2007
   79MOL0     C10579   7.037   3.352   9.436 -0.5461 -0.6258 -0.7566
   79MOL0     C10580   7.177   3.350   9.419  0.1846 -0.1926 -0.4045
   79MOL0     N10581   7.925   3.312   9.659 -0.6299  0.4966  0.1034
   79MOL0     N10582   7.967   3.432   9.655  0.2814  0.0269  0.1100
   79MOL0     C10583   7.019   3.338   9.834  0.0148 -0.6298 -0.0676
   79MOL0     C10584   6.884   3.297   9.830 -0.6761 -0.2848  0.3257
   79MOL0     C10585   6.477   3.174   9.962 -0.1718 -0.0646 -0.0345
   79MOL0     C10586   6.379   3.266   9.911  1.8808 -0.5631 -0.7249
   79MOL0     C10587   6.242   3.241   9.928  0.0606 -0.5422 -1.1813
   79MOL0     C10588   6.199   3.123   9.992  0.2778 -0.1550 -0.8586
   79MOL0     O10589   6.065   3.091  10.011  0.4982  0.0565  0.3657
   79MOL0     C10590   5.965   3.197  10.049  0.0910  0.2025 -0.2405
   79MOL0     C10591   5.844   3.125  10.106 -0.0419 -0.3381 -0.6385
   79MOL0     C10592   5.792   3.018  10.013  0.1180 -0.6514  0.4956
   79MOL0     C10593   5.642   2.991  10.016 -0.2362  1.2036  0.6580
   79MOL0     C10594   5.572   3.112   9.975 -0.3211 -0.5461  0.6163
   79MOL0     C10595   5.514   3.215   9.945  2.0794  0.7306 -0.2865
   79MOL0     C10596   6.302   3.029  10.026  0.2884 -1.0179  0.5101
   79MOL0     C10597   6.432   3.059  10.018 -0.1525 -0.0681 -0.2660
   79MOL0     H10598   6.768   3.515  10.057  0.4365 -0.4898 -0.0933
   79MOL0     H10599   7.012   3.569  10.070  0.1631  1.4126 -1.4395
   79MOL0     H10600   7.345   3.362   9.817 -0.7466 -1.7927 -1.2682
   79MOL0     H10601   7.209   3.433   9.726 -2.1401 -3.9780  2.6651
   79MOL0     H10602   7.290   3.656   9.765  0.4191  1.7427  2.9924
   79MOL0     H10603   7.404   3.593   9.880 -3.8050  2.6150  1.6892
   79MOL0     H10604   7.527   3.482   9.727 -1.4546  1.2967  2.9483
   79MOL0     H10605   7.423   3.498   9.583  4.0045 -2.4934 -0.5359
   79MOL0     H10606   7.420   3.735   9.612 -0.4692 -0.2167  1.1688
   79MOL0     H10607   7.564   3.724   9.728  1.7161 -3.0725  1.3275
   79MOL0     H10608   7.572   3.652   9.432 -1.4288  0.0489  0.7356
   79MOL0     H10609   7.637   3.807   9.504  0.8101  0.5070 -1.1642
   79MOL0     H10610   7.799   3.667   9.632  0.0525 -1.8258  0.5543
   79MOL0     H10611   7.728   3.522   9.562 -4.7863 -0.1737 -1.3099
   79MOL0     H10612   7.825   3.617   9.342  1.5731  0.0685 -0.8183
   79MOL0     H10613   7.877   3.763   9.423  1.2393 -0.0652  0.8069
   79MOL0     H10614   8.028   3.651   9.565 -2.7175 -1.7399  2.5745
   79MOL0     H10615   8.070   3.599   9.400 -1.0469 -0.7020 -0.6826
   79MOL0     H10616   7.930   3.354   9.339 -0.2691  0.7144  0.7653
   79MOL0     H10617   7.828   3.103   9.400 -5.7570  0.1525  1.6209
   79MOL0     H10618   7.909   3.034   9.546 -2.9897 -1.6243  1.0391
   79MOL0     H10619   7.687   3.106   9.663 -1.5900 -2.9795  0.0914
   79MOL0     H10620   7.656   3.005   9.527 -1.4102 -0.0779  1.3628
   79MOL0     H10621   7.630   3.210   9.379  3.4659  2.8864  1.2589
   79MOL0     H10622   7.624   3.305   9.520 -1.1773  0.8708 -1.6759
   79MOL0     H10623   7.435   3.106   9.595 -3.4037  0.0572 -1.0869
   79MOL0     H10624   7.465   3.048   9.436 -0.9239 -0.8816  2.6501
   79MOL0     H10625   7.222   3.030   9.522 -4.4390 -2.5945  0.9250
   79MOL0     H10626   6.958   2.938   9.506  0.2970  1.3726 -1.4660
   79MOL0     H10627   7.051   2.971   9.656 -1.5260  0.8589  1.3217
   79MOL0     H10628   6.890   3.045   9.638  0.2347  4.5005 -1.7057
   79MOL0     H10629   6.622   3.452   9.659  0.4210 -2.2463 -0.1680
   79MOL0     H10630   6.370   3.470   9.657 -0.2692 -1.4242 -0.3743
   79MOL0     H10631   6.134   3.266   9.379 -2.3540 -1.8076  1.2959
   79MOL0     H10632   6.197   3.262   9.548  0.1999  0.0483  0.0372
   79MOL0     H10633   6.032   3.440   9.609 -1.6931  0.8174 -1.1525
   79MOL0     H10634   5.981   3.443   9.438  4.3510  0.5877 -2.6957
   79MOL0     H10635   5.975   3.209   9.643  2.8659  0.4558 -0.4181
   79MOL0     H10636   5.937   3.183   9.474 -0.7094 -2.0910  1.6261
   79MOL0     H10637   5.786   3.373   9.673 -3.3996  3.4942 -1.6337
   79MOL0     H10638   5.765   3.375   9.495 -0.6598 -1.3015  0.6751
   79MOL0     H10639   5.594   3.240   9.629 -0.3183 -2.9986  0.8339
   79MOL0     H10640   5.720   3.131   9.668 -0.6571 -0.8011 -0.3590
   79MOL0     H10641   5.638   3.178   9.378 -0.8444 -2.8427 -1.7984
   79MOL0     H10642   5.767   3.065   9.441  0.8405  0.2979  2.4530
   79MOL0     H10643   5.468   3.084   9.516  1.4557  1.0946  0.2290
   79MOL0     H10644   5.575   2.956   9.567 -0.1594  0.0605 -0.4090
   79MOL0     H10645   5.602   2.879   9.333  1.0678  2.2885 -1.9722
   79MOL0     H10646   5.472   2.982   9.275 -3.2592 -0.9390  0.7127
   79MOL0     H10647   6.368   3.427   9.242  0.8587 -1.7507 -0.0808
   79MOL0     H10648   6.623   3.414   9.239  0.9014 -0.7569  0.2678
   79MOL0     H10649   6.995   3.451   9.422  2.2999  0.7567 -0.3102
   79MOL0     H10650   7.229   3.442   9.394  2.8738 -1.5128  0.0009
   79MOL0     H10651   7.087   3.283   9.770  2.2781 -0.2236  1.8341
   79MOL0     H10652   6.855   3.216   9.763  1.3860 -1.3907  0.6860
   79MOL0     H10653   6.410   3.357   9.861  4.5360 -0.2548  1.2349
   79MOL0     H10654   6.174   3.317   9.892 -0.0847 -1.1044 -2.1125
   79MOL0     H10655   6.000   3.270  10.122 -0.0664  0.2665 -0.2297
   79MOL0     H10656   5.932   3.267   9.972 -2.6774  3.1866  3.3065
   79MOL0     H10657   5.764   3.198  10.124  0.1383 -0.1117 -0.7498
   79MOL0     H10658   5.874   3.078  10.200  1.1606  0.2245 -0.7180
   79MOL0     H10659   5.841   2.921  10.021 -1.9171 -1.7670 -0.0903
   79MOL0     H10660   5.812   3.050   9.911  2.1275 -0.0513  1.0287
   79MOL0     H10661   5.600   2.954  10.110 -1.4867  1.5280  0.2404
   79MOL0     H10662   5.617   2.913   9.944 -0.7711  1.5779  0.4282
   79MOL0     H10663   5.452   3.302   9.936 -0.6947 -1.1406 -0.5620
   79MOL0     H10664   6.272   2.933  10.067  1.5005 -0.9632  1.5825
   79MOL0     H10665   6.509   2.990  10.054 -0.5231 -0.3413  0.0106
   80MOL0     O10666   3.041   4.344   6.264  0.1598 -0.4961 -0.3622
   80MOL0     C10667   2.998   4.442   6.204 -0.0610 -0.3361  0.4019
   80MOL0     O10668   3.050   4.499   6.084  0.0567 -0.0460  0.0125
   80MOL0     C10669   3.138   4.437   6.001  0.5322 -0.2547 -0.0007
   80MOL0     C10670   3.247   4.512   5.962  0.4365  0.2467 -0.7387
   80MOL0     C10671   3.346   4.455   5.874  0.2244  0.4482  0.0321
   80MOL0     C10672   3.333   4.325   5.818  1.0792  1.0237 -0.6226
   80MOL0     O10673   3.436   4.274   5.748 -0.7391 -0.2665  0.5653
   80MOL0     C10674   3.424   4.158   5.666  0.3115  0.0707  0.2690
   80MOL0     C10675   3.565   4.108   5.629  0.0107  0.1907  0.6487
   80MOL0     C10676   3.667   4.094   5.745 -0.5691  0.0800 -1.1346
   80MOL0     C10677   3.810   4.120   5.687  0.9407  0.5364 -0.0394
   80MOL0     C10678   3.917   4.096   5.781  0.2041  0.1033 -0.6934
   80MOL0     C10679   3.942   3.948   5.804  0.1227 -0.1855  0.5573
   80MOL0     C10680   4.050   3.915   5.911 -0.2346  0.7009  0.9072
   80MOL0     C10681   4.045   3.765   5.949 -0.0570  0.9372 -0.0353
   80MOL0     N10682   3.936   3.738   6.051 -0.0304  0.2042 -0.4722
   80MOL0     C10683   3.926   3.792   6.182 -1.0020 -0.2837 -0.6601
   80MOL0     C10684   3.808   3.743   6.230  0.3391  0.6516 -0.3428
   80MOL0     C10685   3.745   3.771   6.363 -0.2743  0.0264  0.4832
   80MOL0     C10686   3.787   3.696   6.485  0.2732 -0.0315 -0.3795
   80MOL0     C10687   3.933   3.714   6.526 -1.1119  0.1469  0.2263
   80MOL0     C10688   3.969   3.641   6.654  0.7876  0.4549  1.2817
   80MOL0     O10689   3.879   3.669   6.759  0.1178  0.0424  0.7484
   80MOL0     C10690   3.868   3.586   6.862  0.2671  0.1797 -0.2081
   80MOL0     C10691   3.765   3.614   6.956  0.0013 -1.0656 -0.0690
   80MOL0     C10692   3.747   3.532   7.078 -0.6494  0.1289  0.2382
   80MOL0     C10693   3.657   3.574   7.192 -0.4790  0.0480 -0.4205
   80MOL0     C10694   3.833   3.414   7.087  0.2970 -0.4251 -0.0029
   80MOL0     C10695   3.805   3.323   7.201  0.3248  0.8890 -0.5171
   80MOL0     O10696   3.908   3.264   7.257  0.8169 -0.9015 -0.1474
   80MOL0     C10697   3.912   3.154   7.333  0.5586  0.2856 -0.7596
   80MOL0     C10698   3.805   3.080   7.386  0.0635 -0.7438  0.6419
   80MOL0     C10699   3.828   2.961   7.460 -0.8500  0.7778 -0.6957
   80MOL0     C10700   3.962   2.912   7.476  0.4908  0.6042 -0.7259
   80MOL0     O10701   4.001   2.793   7.535 -0.4171  0.4007 -0.1163
   80MOL0     C10702   3.901   2.706   7.588 -0.5555 -0.8801 -0.3288
   80MOL0     C10703   3.961   2.592   7.671 -0.9524 -0.1271  0.1455
   80MOL0     C10704   3.860   2.482   7.676  0.2750  0.2537 -0.0918
   80MOL0     C10705   3.741   2.524   7.769 -0.3636 -0.6686  0.3374
   80MOL0     C10706   3.637   2.407   7.765 -1.0030 -0.6878  0.1922
   80MOL0     C10707   3.497   2.430   7.825  0.2032  0.6459 -0.2071
   80MOL0     C10708   3.495   2.448   7.977  0.3852 -1.3916 -0.1066
   80MOL0     C10709   3.367   2.526   8.023 -0.3498 -0.1409 -0.4067
   80MOL0    Cl10710   3.211   2.437   8.007 -0.1871 -0.0889 -0.2987
   80MOL0     C10711   4.065   2.983   7.427  0.7832 -0.0503  0.2154
   80MOL0     C10712   4.039   3.107   7.356  0.0120  0.9356 -0.5235
   80MOL0     O10713   3.686   3.289   7.217  0.2799 -0.0653  0.3566
   80MOL0     C10714   3.938   3.393   6.993  0.2198 -0.5585  0.3670
   80MOL0     C10715   3.957   3.480   6.885 -0.4727 -0.3479  0.2745
   80MOL0     N10716   3.743   3.677   6.127  0.5994  0.5003  0.1403
   80MOL0     N10717   3.817   3.675   6.029  0.8321 -0.2728  0.3361
   80MOL0     C10718   3.215   4.258   5.864  1.1294  0.4606  0.1313
   80MOL0     C10719   3.120   4.308   5.950  0.8537 -0.4833 -0.3010
   80MOL0     C10720   2.879   4.512   6.272  0.1832  0.8399 -0.8008
   80MOL0     C10721   2.813   4.618   6.211 -0.2242  0.1148  0.1311
   80MOL0     C10722   2.710   4.687   6.275  0.4495  0.6970  0.7036
   80MOL0     C10723   2.667   4.643   6.397 -0.6897 -0.4401 -0.3272
   80MOL0     O10724   2.563   4.710   6.451  0.2958  0.6720  0.8062
   80MOL0     C10725   2.524   4.700   6.590 -0.5117 -0.4538 -0.2084
   80MOL0     C10726   2.426   4.808   6.638 -0.0170 -0.0817  0.0452
   80MOL0     C10727   2.392   4.794   6.786 -0.0858 -1.1761  0.4049
   80MOL0     C10728   2.300   4.895   6.849  0.9688  0.3589 -0.6097
   80MOL0     C10729   2.341   4.923   6.989  0.4072  1.2994  0.0234
   80MOL0     C10730   2.367   4.948   7.108 -0.4818  0.4621 -0.1512
   80MOL0     C10731   2.734   4.536   6.464  0.3702 -0.6480  0.1314
   80MOL0     C10732   2.842   4.473   6.408  0.5025  0.2880 -0.0886
   80MOL0     H10733   3.259   4.605   6.017  1.0510 -0.1846 -0.1344
   80MOL0     H10734   3.434   4.513   5.851 -0.7463  1.5882 -0.9826
   80MOL0     H10735   3.383   4.080   5.731  0.3390  0.1072  0.3298
   80MOL0     H10736   3.358   4.178   5.581 -0.9794  1.1744  1.4657
   80MOL0     H10737   3.560   4.006   5.588  1.2868  0.6662 -0.7801
   80MOL0     H10738   3.601   4.179   5.554 -2.7610 -0.0316 -1.0326
   80MOL0     H10739   3.642   4.162   5.827  0.1123  0.0489 -0.8960
   80MOL0     H10740   3.658   3.989   5.772 -2.0221 -0.3236 -2.9685
   80MOL0     H10741   3.798   4.070   5.590 -4.2530 -0.0674  0.6256
   80MOL0     H10742   3.824   4.226   5.664 -0.1863  0.3053 -2.0166
   80MOL0     H10743   4.008   4.140   5.740  0.5878 -1.4516 -1.5969
   80MOL0     H10744   3.893   4.140   5.878  1.1289 -1.5851  0.3505
   80MOL0     H10745   3.855   3.892   5.839  0.1566 -0.2467  0.5443
   80MOL0     H10746   3.955   3.904   5.705 -2.6783  3.3299 -1.6373
   80MOL0     H10747   4.149   3.933   5.868 -1.6279 -1.4471 -3.8305
   80MOL0     H10748   4.035   3.990   5.989  2.1891  2.0863  0.1431
   80MOL0     H10749   4.140   3.739   5.996 -0.3629  0.6127  0.4083
   80MOL0     H10750   4.031   3.694   5.866 -1.8315 -1.5173  2.1836
   80MOL0     H10751   3.994   3.850   6.244 -3.2079 -0.0453  1.6988
   80MOL0     H10752   3.778   3.873   6.382  1.5847 -0.2834 -0.8061
   80MOL0     H10753   3.637   3.780   6.346 -0.0305 -0.2942 -1.5707
   80MOL0     H10754   3.767   3.590   6.464 -1.7477  0.3245 -0.5274
   80MOL0     H10755   3.720   3.711   6.571  0.6831  0.6760 -0.1780
   80MOL0     H10756   3.953   3.820   6.542  2.5007 -0.8713  4.2124
   80MOL0     H10757   4.003   3.682   6.448  0.8426  3.8125  0.2799
   80MOL0     H10758   4.074   3.668   6.672  2.3933 -2.2200 -2.8273
   80MOL0     H10759   3.960   3.535   6.632 -0.6348  0.4085  1.9161
   80MOL0     H10760   3.702   3.699   6.936 -0.5300 -1.7986 -1.6896
   80MOL0     H10761   3.710   3.596   7.286 -0.6138  4.1938 -1.1292
   80MOL0     H10762   3.621   3.675   7.171  1.3614  0.6626 -0.8629
   80MOL0     H10763   3.574   3.504   7.195  1.0895 -1.9044 -0.7272
   80MOL0     H10764   3.702   3.101   7.360  0.8344  2.4217 -0.3387
   80MOL0     H10765   3.748   2.895   7.490  0.6238 -0.6872  0.1795
   80MOL0     H10766   3.823   2.755   7.647  1.0631  0.8020  0.5030
   80MOL0     H10767   3.859   2.662   7.497 -0.5001  0.5822 -1.0799
   80MOL0     H10768   4.053   2.548   7.631  0.6983  2.1003  1.2624
   80MOL0     H10769   3.984   2.629   7.772 -1.4559  0.7571 -0.0569
   80MOL0     H10770   3.905   2.395   7.726  0.1386 -0.7305 -1.6219
   80MOL0     H10771   3.825   2.458   7.575  0.9555 -3.8052  0.4827
   80MOL0     H10772   3.766   2.543   7.874  4.0519 -2.6824 -0.1076
   80MOL0     H10773   3.681   2.610   7.738 -1.1563 -1.2662  0.1703
   80MOL0     H10774   3.676   2.316   7.812  0.6228 -0.0477  0.1232
   80MOL0     H10775   3.625   2.374   7.661 -2.2131 -1.5690  0.5850
   80MOL0     H10776   3.460   2.525   7.786  1.7073  0.4034 -2.4071
   80MOL0     H10777   3.431   2.348   7.795  2.6417 -1.2369 -0.7457
   80MOL0     H10778   3.581   2.503   8.017 -0.5813 -0.6948  1.0562
   80MOL0     H10779   3.495   2.353   8.032 -0.4921 -0.9498  0.6766
   80MOL0     H10780   3.349   2.608   7.952  0.1334 -0.9403 -1.4705
   80MOL0     H10781   3.376   2.562   8.126  0.8364  0.4646 -0.7038
   80MOL0     H10782   4.165   2.945   7.444  1.1478  0.8862  0.2189
   80MOL0     H10783   4.124   3.164   7.321  2.7443 -2.3662  0.2322
   80MOL0     H10784   4.001   3.306   6.990  3.7117  1.7994 -2.1580
   80MOL0     H10785   4.037   3.458   6.815  0.7880  1.1832  1.1546
   80MOL0     H10786   3.192   4.154   5.844 -1.3833  1.2613 -1.6415
   80MOL0     H10787   3.033   4.249   5.977 -0.8279  1.5317 -1.0058
   80MOL0     H10788   2.831   4.654   6.111 -0.4834 -1.1387 -0.3917
   80MOL0     H10789   2.650   4.765   6.230 -2.1386 -0.7364  1.4759
   80MOL0     H10790   2.483   4.601   6.608 -3.5276  0.1011 -2.9620
   80MOL0     H10791   2.619   4.724   6.637 -0.6917  1.8291 -0.8496
   80MOL0     H10792   2.337   4.789   6.576  0.6660 -0.5490 -0.8124
   80MOL0     H10793   2.461   4.908   6.610 -2.4220  0.1250 -2.8230
   80MOL0     H10794   2.489   4.808   6.834 -0.0282  2.9617 -0.4689
   80MOL0     H10795   2.350   4.695   6.804 -1.6077 -0.6968 -0.3419
   80MOL0     H10796   2.196   4.863   6.844  1.8051 -2.5869 -0.9434
   80MOL0     H10797   2.312   4.979   6.780 -1.4038 -0.2348 -1.8438
   80MOL0     H10798   2.385   4.978   7.209 -2.4769 -0.0766  0.4044
   80MOL0     H10799   2.689   4.501   6.557 -1.1308  2.3234  0.6342
   80MOL0     H10800   2.881   4.393   6.470 -0.1611 -0.7976 -1.0259
   81MOL0     O10801   9.655   7.296   6.037 -0.8547  1.2218  0.5959
   81MOL0     C10802   9.576   7.284   5.941 -0.2107 -0.3838  0.0304
   81MOL0     O10803   9.441   7.255   5.948 -0.4936  0.1116  0.3631
   81MOL0     C10804   9.377   7.234   6.059 -1.3167  0.1054 -0.4866
   81MOL0     C10805   9.304   7.119   6.063 -0.6340 -0.4917  0.1309
   81MOL0     C10806   9.209   7.099   6.156 -0.0419  0.0035 -0.1432
   81MOL0     C10807   9.199   7.186   6.269  0.2925 -0.3080 -0.8318
   81MOL0     O10808   9.112   7.156   6.376  0.1067 -0.0375 -1.1278
   81MOL0     C10809   8.983   7.190   6.343  0.9637  0.0542 -0.4597
   81MOL0     C10810   8.899   7.194   6.470 -0.4602  0.7790  0.8911
   81MOL0     C10811   8.946   7.307   6.563  0.0843 -0.1510 -0.9510
   81MOL0     C10812   8.876   7.442   6.529 -0.5626  0.3906  0.0342
   81MOL0     C10813   8.883   7.544   6.650 -0.2091 -0.0552 -0.0414
   81MOL0     C10814   8.829   7.696   6.624  0.0903  1.0939 -0.3240
   81MOL0     C10815   8.692   7.712   6.573 -0.2201 -0.3102 -0.2547
   81MOL0     C10816   8.585   7.671   6.670  0.7980 -1.0180  0.0966
   81MOL0     N10817   8.612   7.729   6.804 -0.0868 -0.6026 -0.1118
   81MOL0     C10818   8.548   7.851   6.832  0.3152  0.1253  0.1426
   81MOL0     C10819   8.573   7.872   6.958  0.2973  0.4740 -0.8436
   81MOL0     C10820   8.540   7.996   7.040  0.4440  1.0351  0.1128
   81MOL0     C10821   8.390   7.992   7.075  0.1843  0.0861 -0.1784
   81MOL0     C10822   8.348   8.128   7.133  0.2026 -0.3479  0.5624
   81MOL0     C10823   8.203   8.102   7.176  0.6337 -0.8437  0.2687
   81MOL0     O10824   8.189   8.012   7.287 -0.6854  0.0067  0.4787
   81MOL0     C10825   8.063   7.958   7.301 -1.0403 -0.4507  0.4066
   81MOL0     C10826   7.962   8.034   7.352 -0.0863  0.0670 -0.0165
   81MOL0     C10827   7.836   7.980   7.389 -0.0625  0.0465 -0.7117
   81MOL0     C10828   7.737   8.071   7.459 -0.1672 -0.4609  0.4019
   81MOL0     C10829   7.816   7.840   7.354 -0.6758 -0.8608 -0.1313
   81MOL0     C10830   7.692   7.758   7.390  0.0397  0.4257  0.2922
   81MOL0     O10831   7.589   7.817   7.448  0.2058 -1.4611 -0.3198
   81MOL0     C10832   7.474   7.754   7.478 -0.2404  0.1783 -0.5659
   81MOL0     C10833   7.366   7.805   7.413  0.0957  0.4124 -0.4366
   81MOL0     C10834   7.232   7.749   7.421 -0.3208  0.1517  0.2553
   81MOL0     C10835   7.213   7.641   7.509 -0.8912  0.8721 -0.8079
   81MOL0     O10836   7.092   7.577   7.525 -0.1605  0.3955 -0.0857
   81MOL0     C10837   7.015   7.614   7.641 -0.0525 -0.0309  0.0386
   81MOL0     C10838   6.971   7.495   7.713  0.0227  0.8462 -0.3226
   81MOL0     C10839   6.854   7.416   7.640 -0.6764  0.3736  0.0720
   81MOL0     C10840   6.765   7.338   7.739  0.3947 -0.1362 -0.5868
   81MOL0     C10841   6.683   7.243   7.669 -0.2650  0.7458  1.1406
   81MOL0     C10842   6.622   7.145   7.768 -0.4365 -0.4819 -0.1911
   81MOL0     C10843   6.534   7.039   7.708 -0.7368  0.2501  0.4434
   81MOL0     C10844   6.621   6.915   7.689  0.5366  0.3608 -0.1581
   81MOL0    Cl10845   6.739   6.938   7.558 -0.3665  0.2221 -0.1303
   81MOL0     C10846   7.329   7.594   7.579 -0.4003  1.1179  0.2741
   81MOL0     C10847   7.461   7.652   7.568 -0.3432  0.1558  0.2034
   81MOL0     O10848   7.700   7.638   7.370  0.1393 -0.0379  0.6905
   81MOL0     C10849   7.928   7.775   7.286  0.4922 -0.2349 -0.0601
   81MOL0     C10850   8.046   7.829   7.259 -0.1948 -0.1334 -0.1521
   81MOL0     N10851   8.640   7.760   7.013  0.0694  0.6793  0.3847
   81MOL0     N10852   8.658   7.676   6.919  0.3407  0.2372 -0.3968
   81MOL0     C10853   9.279   7.296   6.271 -0.2056 -0.2633  0.4593
   81MOL0     C10854   9.377   7.322   6.166  0.5852  0.3325 -0.5727
   81MOL0     C10855   9.642   7.258   5.812  0.5201  0.8921  0.5466
   81MOL0     C10856   9.568   7.269   5.696  0.0029  0.4692 -0.1405
   81MOL0     C10857   9.627   7.233   5.583 -0.2857 -0.2558  0.2433
   81MOL0     C10858   9.758   7.189   5.572 -0.2658  0.7232 -0.0987
   81MOL0     O10859   9.795   7.154   5.443  0.6005 -0.1784  0.2738
   81MOL0     C10860   9.926   7.086   5.429  0.4584 -0.3898 -0.6666
   81MOL0     C10861   9.954   7.077   5.279  0.2288  0.0655 -0.6386
   81MOL0     C10862  10.101   7.107   5.240 -0.0426  0.1871  0.2174
   81MOL0     C10863  10.202   6.986   5.241 -0.4732  0.4706  1.4304
   81MOL0     C10864  10.308   7.019   5.145  0.0080 -0.7204 -0.0586
   81MOL0     C10865  10.393   7.024   5.062  0.3915 -0.3387  0.7205
   81MOL0     C10866   9.834   7.170   5.688  0.5556 -0.1797 -0.5589
   81MOL0     C10867   9.772   7.210   5.809  0.5159  0.0814  0.2113
   81MOL0     H10868   9.312   7.045   5.983  0.0287  2.5989 -2.8707
   81MOL0     H10869   9.148   7.010   6.163 -0.1675  0.0889 -0.1296
   81MOL0     H10870   8.977   7.290   6.301  3.7070  1.4596  2.1877
   81MOL0     H10871   8.936   7.127   6.267  0.4265  3.5164 -3.2173
   81MOL0     H10872   8.794   7.205   6.440 -0.3175  1.1875  0.5234
   81MOL0     H10873   8.921   7.103   6.527  3.9311  2.0840  1.6104
   81MOL0     H10874   8.921   7.279   6.666  1.2145  2.5542  0.1628
   81MOL0     H10875   9.054   7.325   6.553  0.6007 -1.0131  2.0222
   81MOL0     H10876   8.925   7.487   6.442 -1.2015  0.5219 -0.2643
   81MOL0     H10877   8.773   7.422   6.498 -0.4401  1.7189 -1.3858
   81MOL0     H10878   8.838   7.513   6.745  0.6394  2.8501  1.4264
   81MOL0     H10879   8.986   7.561   6.683 -0.2868  0.2469  0.0395
   81MOL0     H10880   8.831   7.752   6.718  1.4629 -2.3855  1.9220
   81MOL0     H10881   8.901   7.741   6.555  1.5338  1.6713  1.4851
   81MOL0     H10882   8.684   7.819   6.550 -1.0782 -0.1410  0.7634
   81MOL0     H10883   8.684   7.652   6.482  0.9982 -0.2348 -0.4327
   81MOL0     H10884   8.585   7.563   6.681 -1.8163 -1.1307 -0.4495
   81MOL0     H10885   8.488   7.702   6.630  0.6499  2.1107  2.4666
   81MOL0     H10886   8.491   7.911   6.761  0.0483  1.4407  1.4220
   81MOL0     H10887   8.610   8.013   7.122  0.8747  2.8006 -0.5702
   81MOL0     H10888   8.558   8.077   6.968  1.7589 -1.6844 -2.9130
   81MOL0     H10889   8.364   7.913   7.147  1.1721  0.1614  0.2799
   81MOL0     H10890   8.322   7.982   6.991  0.7214  0.6102 -0.6835
   81MOL0     H10891   8.346   8.201   7.052  1.8002 -0.9837 -0.0945
   81MOL0     H10892   8.406   8.156   7.222  2.3774  1.8178 -1.4259
   81MOL0     H10893   8.145   8.070   7.089  3.3226 -2.4075 -1.0605
   81MOL0     H10894   8.160   8.199   7.201 -0.5016 -1.6995  1.8812
   81MOL0     H10895   7.995   8.136   7.371  3.6416 -0.3952 -2.9035
   81MOL0     H10896   7.734   8.047   7.565  0.0864  0.3669  0.6045
   81MOL0     H10897   7.751   8.179   7.459 -2.2019 -0.1435  0.4868
   81MOL0     H10898   7.634   8.069   7.421 -0.4452  1.7093  0.8911
   81MOL0     H10899   7.381   7.887   7.343  0.3266  0.7993  0.0580
   81MOL0     H10900   7.145   7.790   7.371 -1.4777 -0.2796  1.8354
   81MOL0     H10901   7.061   7.687   7.708 -2.3876  1.2403  0.3814
   81MOL0     H10902   6.922   7.660   7.605  0.6823 -0.9528 -3.3762
   81MOL0     H10903   7.046   7.416   7.713 -1.2522 -0.7235  4.5945
   81MOL0     H10904   6.955   7.532   7.814  1.2939  2.5138 -0.7062
   81MOL0     H10905   6.900   7.347   7.568  0.7140  3.2791 -2.0401
   81MOL0     H10906   6.803   7.489   7.577 -3.3648  0.7342  2.4908
   81MOL0     H10907   6.828   7.286   7.812  0.2658  0.6346  0.0880
   81MOL0     H10908   6.702   7.407   7.796 -1.1591  0.3832 -2.7957
   81MOL0     H10909   6.743   7.187   7.597 -1.9149 -0.5378  0.6877
   81MOL0     H10910   6.595   7.295   7.631 -0.1036 -0.8690 -1.7215
   81MOL0     H10911   6.707   7.098   7.818 -0.8077 -2.4729 -1.2967
   81MOL0     H10912   6.560   7.203   7.837 -1.7765 -1.8475 -0.1849
   81MOL0     H10913   6.476   7.062   7.618 -0.7716 -2.5685 -0.3481
   81MOL0     H10914   6.458   7.009   7.781 -1.2961  0.4743 -0.0404
   81MOL0     H10915   6.552   6.832   7.668 -0.0965 -0.3850  3.9684
   81MOL0     H10916   6.664   6.881   7.784  0.4738 -0.0433 -0.2727
   81MOL0     H10917   7.312   7.499   7.629  0.6327  0.9676  0.3696
   81MOL0     H10918   7.550   7.611   7.614 -0.3927  0.0934  0.2434
   81MOL0     H10919   7.917   7.669   7.266  3.6529 -0.1797 -3.1610
   81MOL0     H10920   8.121   7.762   7.217  0.7932  1.5971 -1.2717
   81MOL0     H10921   9.275   7.366   6.354  1.7968  0.3887  0.0549
   81MOL0     H10922   9.416   7.423   6.162 -2.2605  1.4955 -0.8986
   81MOL0     H10923   9.470   7.316   5.698 -0.6974 -0.9521  1.5589
   81MOL0     H10924   9.584   7.257   5.486  0.6390  0.4811  0.0048
   81MOL0     H10925  10.009   7.129   5.486  1.0792 -1.0278 -1.0706
   81MOL0     H10926   9.921   6.982   5.461 -1.2835 -0.1928 -0.2190
   81MOL0     H10927   9.886   7.152   5.236  0.9929  1.5844  0.6917
   81MOL0     H10928   9.921   6.977   5.252  3.2548 -1.5107  0.9698
   81MOL0     H10929  10.142   7.196   5.289  1.7893 -0.5040  0.0184
   81MOL0     H10930  10.086   7.139   5.137 -4.3772  1.3902  1.0454
   81MOL0     H10931  10.151   6.894   5.211  2.0824 -1.3717  2.3869
   81MOL0     H10932  10.253   6.958   5.333  0.2773 -0.0540  0.8658
   81MOL0     H10933  10.480   7.021   5.000  0.1990  1.9295  0.2540
   81MOL0     H10934   9.926   7.113   5.685  1.5262  1.2151  1.3028
   81MOL0     H10935   9.827   7.202   5.902 -0.4824 -2.2058  0.6969
   82MOL0     O10936   4.963   1.839   8.152 -0.1947  0.6188  0.0331
   82MOL0     C10937   4.885   1.864   8.242 -0.1959  0.2354 -0.3431
   82MOL0     O10938   4.749   1.887   8.234  0.0450  0.1066 -0.0250
   82MOL0     C10939   4.666   1.871   8.121  0.0043 -0.0163 -0.4276
   82MOL0     C10940   4.531   1.848   8.162 -0.3128  0.1238  0.1600
   82MOL0     C10941   4.437   1.799   8.064 -0.4222  0.0380  0.2936
   82MOL0     C10942   4.476   1.789   7.926  0.0510  0.1704  0.4948
   82MOL0     O10943   4.388   1.736   7.831 -0.1691 -0.0942 -0.1552
   82MOL0     C10944   4.258   1.811   7.821  0.7849  0.2062  0.1433
   82MOL0     C10945   4.146   1.711   7.786  0.4650  0.2436 -0.4743
   82MOL0     C10946   4.168   1.618   7.667  0.2388 -0.6781 -0.2637
   82MOL0     C10947   4.051   1.541   7.623 -0.2438  0.6231  1.0602
   82MOL0     C10948   3.989   1.460   7.734 -0.4138  1.1919 -1.0703
   82MOL0     C10949   3.879   1.376   7.679 -0.0126  0.2206 -0.9601
   82MOL0     C10950   3.827   1.292   7.801  0.1487 -0.2220 -0.4280
   82MOL0     C10951   3.740   1.175   7.750 -0.3165  0.2632  0.6231
   82MOL0     N10952   3.643   1.230   7.656  0.3514  0.2385 -0.0945
   82MOL0     C10953   3.547   1.334   7.663 -1.7898  0.0127  0.1231
   82MOL0     C10954   3.466   1.308   7.559 -0.3082 -0.8222 -0.1650
   82MOL0     C10955   3.331   1.375   7.540 -0.1357  0.3380 -0.3533
   82MOL0     C10956   3.221   1.272   7.530 -0.3022 -0.0042  0.5731
   82MOL0     C10957   3.104   1.316   7.624  0.4210 -0.3275  0.3365
   82MOL0     C10958   3.105   1.259   7.761  0.3203 -0.0395 -0.0200
   82MOL0     O10959   3.030   1.338   7.851  0.0831 -0.0213  0.4225
   82MOL0     C10960   3.086   1.376   7.974 -0.3869 -0.4778  0.9875
   82MOL0     C10961   3.003   1.379   8.082  0.5786  0.1621  0.0581
   82MOL0     C10962   3.044   1.431   8.209  0.2264 -0.1910 -1.2510
   82MOL0     C10963   2.952   1.446   8.320 -0.1842  1.0918  0.1842
   82MOL0     C10964   3.176   1.470   8.225 -0.6556 -0.2080  0.2857
   82MOL0     C10965   3.228   1.539   8.336 -0.0615  0.4326 -0.2326
   82MOL0     O10966   3.358   1.518   8.372 -0.3303  0.1159  0.6851
   82MOL0     C10967   3.422   1.596   8.468  0.3744  0.7430 -0.1598
   82MOL0     C10968   3.509   1.694   8.431  1.3492  0.4685  0.4523
   82MOL0     C10969   3.576   1.779   8.524  0.6379  0.4268  0.0882
   82MOL0     C10970   3.557   1.755   8.665 -0.2060  0.4644  0.0159
   82MOL0     O10971   3.616   1.846   8.751  0.5622 -0.9928 -0.2770
   82MOL0     C10972   3.543   1.900   8.857  0.6727  0.3790 -0.5092
   82MOL0     C10973   3.632   1.987   8.951  0.5982 -0.7687 -0.6202
   82MOL0     C10974   3.683   2.134   8.901 -0.5782 -0.4002 -1.0597
   82MOL0     C10975   3.595   2.241   8.942  0.2064 -0.7516  0.7063
   82MOL0     C10976   3.619   2.384   8.877  0.0128  0.0504 -0.2495
   82MOL0     C10977   3.760   2.443   8.911  0.9131 -0.5533  0.0507
   82MOL0     C10978   3.774   2.589   8.865 -0.2860  0.2805 -0.4202
   82MOL0     C10979   3.915   2.631   8.902 -0.8141 -0.4364 -0.8850
   82MOL0    Cl10980   4.055   2.532   8.844 -0.5351 -0.1538 -0.0154
   82MOL0     C10981   3.465   1.652   8.702  0.1518 -0.3003 -0.0214
   82MOL0     C10982   3.403   1.572   8.610  0.8349  0.1745  0.7093
   82MOL0     O10983   3.152   1.618   8.400 -0.0505 -0.3239 -1.3532
   82MOL0     C10984   3.266   1.458   8.116  0.2583 -1.0160 -0.4815
   82MOL0     C10985   3.212   1.432   7.989  0.3575  0.4140  0.0807
   82MOL0     N10986   3.517   1.201   7.484 -0.5748 -1.1412  0.4636
   82MOL0     N10987   3.625   1.165   7.538 -0.2293 -0.2778  0.2633
   82MOL0     C10988   4.615   1.811   7.892  0.2661 -0.4985 -0.2932
   82MOL0     C10989   4.702   1.862   7.986 -0.2910 -0.0082 -0.4489
   82MOL0     C10990   4.935   1.873   8.380 -0.3883  1.0223  0.5093
   82MOL0     C10991   5.069   1.876   8.404 -0.8237 -0.3389  0.1688
   82MOL0     C10992   5.117   1.911   8.533  0.9459  0.4379 -0.7513
   82MOL0     C10993   5.025   1.930   8.638 -0.3623 -0.3331  0.8850
   82MOL0     O10994   5.064   1.960   8.765 -0.2049 -0.1494 -0.2144
   82MOL0     C10995   5.200   2.006   8.796  0.3107  0.5106 -0.2823
   82MOL0     C10996   5.299   1.895   8.815  0.4920 -0.7181  0.6022
   82MOL0     C10997   5.232   1.797   8.908 -0.3996  0.1925 -0.2278
   82MOL0     C10998   5.340   1.713   8.981  0.1047  0.7498  0.3808
   82MOL0     C10999   5.277   1.618   9.074  0.0669  0.6778  0.0534
   82MOL0     C11000   5.215   1.544   9.148  0.3189  0.5435  0.8202
   82MOL0     C11001   4.889   1.921   8.613 -0.2192  1.0984  0.3596
   82MOL0     C11002   4.843   1.884   8.486  0.6494  0.3526 -0.6195
   82MOL0     H11003   4.506   1.861   8.266 -0.2004 -0.8311  0.3207
   82MOL0     H11004   4.337   1.768   8.093 -0.1990 -0.8955  0.1068
   82MOL0     H11005   4.227   1.864   7.911  0.2445  0.2746 -0.0781
   82MOL0     H11006   4.267   1.884   7.741  0.8425  0.4908  0.4083
   82MOL0     H11007   4.125   1.650   7.875 -3.0318 -0.3665 -1.5720
   82MOL0     H11008   4.057   1.769   7.763 -0.0045 -0.1297  0.3638
   82MOL0     H11009   4.189   1.669   7.572 -2.0934 -0.2081 -0.5791
   82MOL0     H11010   4.245   1.546   7.695 -0.3977 -1.1530  0.2937
   82MOL0     H11011   3.975   1.608   7.584 -1.1239  1.3930  3.8856
   82MOL0     H11012   4.092   1.475   7.545  1.6039  2.5832  0.2640
   82MOL0     H11013   4.067   1.390   7.764 -1.1766  0.2609 -1.2171
   82MOL0     H11014   3.962   1.512   7.827 -0.9616 -1.0113  0.0678
   82MOL0     H11015   3.802   1.433   7.626  0.1091  0.0869 -1.2835
   82MOL0     H11016   3.924   1.308   7.607 -1.4866 -1.5022 -0.3329
   82MOL0     H11017   3.915   1.252   7.853 -0.0926  0.5298  0.5856
   82MOL0     H11018   3.765   1.356   7.865 -0.7339 -1.4804  0.0166
   82MOL0     H11019   3.702   1.118   7.835  0.0495 -0.5122  0.2810
   82MOL0     H11020   3.806   1.107   7.695 -0.2446 -1.0086  2.2090
   82MOL0     H11021   3.555   1.402   7.747  3.2991  1.1793 -0.9509
   82MOL0     H11022   3.322   1.443   7.625  1.0202  2.2383 -1.6595
   82MOL0     H11023   3.331   1.433   7.447  1.9914 -2.8164 -2.5379
   82MOL0     H11024   3.242   1.168   7.555  3.5190 -0.0524 -2.0193
   82MOL0     H11025   3.183   1.272   7.427  1.1402 -2.3884 -0.0278
   82MOL0     H11026   3.018   1.265   7.580  2.0086 -1.3560 -1.7256
   82MOL0     H11027   3.086   1.424   7.622 -1.3413 -0.5949 -1.3437
   82MOL0     H11028   3.209   1.244   7.792  0.3948 -0.2312 -0.3616
   82MOL0     H11029   3.055   1.162   7.751 -2.2124  1.2987 -1.0009
   82MOL0     H11030   2.898   1.353   8.072 -0.4036  2.0800  3.5579
   82MOL0     H11031   3.001   1.442   8.417  1.7709  0.0387 -0.7800
   82MOL0     H11032   2.905   1.544   8.312 -2.8464 -0.2054 -1.8932
   82MOL0     H11033   2.868   1.375   8.314  0.9307 -0.2124 -0.4554
   82MOL0     H11034   3.537   1.702   8.327  0.4595 -1.2854  0.0369
   82MOL0     H11035   3.648   1.856   8.498  0.3939  1.0661  1.2481
   82MOL0     H11036   3.459   1.963   8.827 -0.1899 -0.2844  0.4762
   82MOL0     H11037   3.497   1.818   8.913  2.3847 -0.5078 -0.3313
   82MOL0     H11038   3.575   2.004   9.043 -1.2848 -2.4823 -1.3858
   82MOL0     H11039   3.723   1.931   8.976  0.6732  0.3727  1.9652
   82MOL0     H11040   3.682   2.141   8.792 -4.9109 -1.0871 -1.2643
   82MOL0     H11041   3.785   2.148   8.937 -1.3017  1.2874  0.5013
   82MOL0     H11042   3.496   2.211   8.908  0.4333 -0.2069 -0.4574
   82MOL0     H11043   3.586   2.248   9.051  0.3031  2.6753  0.6023
   82MOL0     H11044   3.541   2.452   8.912  0.8824  1.7462 -1.4527
   82MOL0     H11045   3.618   2.374   8.768  1.1963  0.1275 -0.2774
   82MOL0     H11046   3.767   2.443   9.020 -0.1205 -1.6338  0.1351
   82MOL0     H11047   3.831   2.381   8.856  0.1969  0.1191 -1.7182
   82MOL0     H11048   3.704   2.661   8.908  2.6573  1.8051  2.3134
   82MOL0     H11049   3.752   2.589   8.758  0.1328 -1.8429 -0.5398
   82MOL0     H11050   3.928   2.621   9.010  4.1038  0.0906 -1.1930
   82MOL0     H11051   3.927   2.734   8.869  1.6833 -0.6448 -0.8610
   82MOL0     H11052   3.432   1.627   8.802 -0.8254  0.5756 -0.1067
   82MOL0     H11053   3.327   1.500   8.636 -2.3187  3.0379  0.1073
   82MOL0     H11054   3.364   1.503   8.128  0.4489 -1.9590  2.0418
   82MOL0     H11055   3.273   1.448   7.900  0.7776 -1.1335  0.0608
   82MOL0     H11056   4.649   1.811   7.789  0.1958 -0.6793 -0.3160
   82MOL0     H11057   4.807   1.880   7.967 -0.0520 -1.6383 -0.8043
   82MOL0     H11058   5.127   1.859   8.314 -2.6567 -1.2460 -0.8986
   82MOL0     H11059   5.221   1.934   8.551  0.2752  2.7235  0.6240
   82MOL0     H11060   5.242   2.064   8.713 -0.2548 -0.9992 -1.6575
   82MOL0     H11061   5.197   2.063   8.890 -0.3237 -2.0197  1.3312
   82MOL0     H11062   5.394   1.937   8.849  0.6817  0.0878 -0.8417
   82MOL0     H11063   5.324   1.852   8.717  5.1511 -0.4182  1.4348
   82MOL0     H11064   5.169   1.732   8.847  1.6534 -0.7524 -1.4464
   82MOL0     H11065   5.156   1.832   8.979 -0.2692  0.7791 -0.3793
   82MOL0     H11066   5.408   1.776   9.039  1.7322  0.9500 -1.6076
   82MOL0     H11067   5.407   1.664   8.910 -1.2850 -1.6248  0.6080
   82MOL0     H11068   5.165   1.479   9.217 -0.9700  1.5994  0.9048
   82MOL0     H11069   4.820   1.926   8.697  1.9056 -1.0682  2.3945
   82MOL0     H11070   4.738   1.900   8.468  0.5166  3.8160  2.0183
   83MOL0     O11071  10.546   4.967   9.769  0.0948  0.9837 -0.6355
   83MOL0     C11072  10.642   4.983   9.845 -0.9378 -0.0389  0.7167
   83MOL0     O11073  10.637   5.029   9.979  0.0751  0.6119  0.5238
   83MOL0     C11074  10.507   5.059  10.021 -0.2605  0.7601 -0.2983
   83MOL0     C11075  10.440   5.173   9.967 -0.2226  0.3194  0.1939
   83MOL0     C11076  10.311   5.197  10.001 -0.3108 -0.3106  1.0582
   83MOL0     C11077  10.240   5.114  10.091 -0.2287  0.0725 -0.5734
   83MOL0     O11078  10.111   5.126  10.129  0.7393  0.6947  0.3300
   83MOL0     C11079  10.039   5.242  10.080  0.8126  0.0622  0.8518
   83MOL0     C11080   9.901   5.219  10.135 -0.7276  0.5048  0.2001
   83MOL0     C11081   9.814   5.121  10.054 -0.3968  0.0585 -0.2241
   83MOL0     C11082   9.682   5.115  10.136 -0.2577 -0.0709  0.0668
   83MOL0     C11083   9.581   5.006  10.096 -0.4635 -0.2474 -0.2385
   83MOL0     C11084   9.461   5.007  10.188 -0.1375  0.0997  0.1739
   83MOL0     C11085   9.338   4.921  10.143  0.0187 -0.0405  0.1112
   83MOL0     C11086   9.209   4.951  10.221 -0.0009  0.0105  0.4362
   83MOL0     N11087   9.097   4.907  10.138 -0.5617  0.6521 -0.1813
   83MOL0     C11088   9.025   4.783  10.163 -0.0725  1.0961 -0.6639
   83MOL0     C11089   8.929   4.782  10.066 -0.0111  0.1245 -0.1409
   83MOL0     C11090   8.833   4.668  10.016  0.9997 -0.1110 -1.0757
   83MOL0     C11091   8.896   4.527  10.037  0.1332 -0.0977  0.4239
   83MOL0     C11092   9.038   4.529   9.955  0.3994 -0.1330  0.2464
   83MOL0     C11093   9.093   4.381   9.935 -0.1872  0.3010 -0.3166
   83MOL0     O11094   9.081   4.311  10.063  0.1941  0.2758 -0.6165
   83MOL0     C11095   9.163   4.202  10.095  0.5626  0.1565  0.2987
   83MOL0     C11096   9.241   4.128  10.002  0.1422 -0.4093  0.4458
   83MOL0     C11097   9.308   4.012  10.047  0.3601  0.1357 -0.1481
   83MOL0     C11098   9.389   3.931   9.946 -0.3293  1.0008  0.2699
   83MOL0     C11099   9.297   3.961  10.181  0.2182  0.1434 -0.2662
   83MOL0     C11100   9.374   3.844  10.226  0.2312  0.0112  0.1053
   83MOL0     O11101   9.511   3.867  10.223 -0.7017  0.0035 -0.5417
   83MOL0     C11102   9.585   3.767  10.267 -0.6276  0.5206 -1.4332
   83MOL0     C11103   9.574   3.718  10.396  0.9671 -0.0420 -0.9839
   83MOL0     C11104   9.664   3.623  10.449  0.6281  0.7245  0.5668
   83MOL0     C11105   9.762   3.564  10.353  0.4294  0.1523  0.2547
   83MOL0     O11106   9.855   3.472  10.384  0.1177 -0.2866 -0.2938
   83MOL0     C11107   9.914   3.474  10.515 -0.1037  0.1151 -0.0099
   83MOL0     C11108   9.990   3.347  10.533 -0.0904 -0.0992  1.4268
   83MOL0     C11109  10.062   3.354  10.662 -1.0416  0.1983  0.5807
   83MOL0     C11110  10.167   3.237  10.670 -0.3300 -0.0889  0.0780
   83MOL0     C11111  10.215   3.213  10.811  0.2656  0.1809 -0.1945
   83MOL0     C11112  10.261   3.068  10.829  0.4783 -0.2103  0.1735
   83MOL0     C11113  10.353   3.008  10.725 -0.8254 -0.0072 -0.7474
   83MOL0     C11114  10.478   3.082  10.702 -0.5649 -0.5764 -0.2973
   83MOL0    Cl11115  10.562   3.103  10.862 -0.1815  0.3397 -0.1035
   83MOL0     C11116   9.758   3.599  10.219 -0.1727  0.2183 -0.2456
   83MOL0     C11117   9.671   3.699  10.187 -1.0519 -0.5939  0.4280
   83MOL0     O11118   9.315   3.742  10.271 -0.0939 -0.3742  0.1786
   83MOL0     C11119   9.215   4.033  10.268  0.8403  0.2843 -0.7840
   83MOL0     C11120   9.154   4.160  10.234 -0.5783 -0.1072  0.2048
   83MOL0     N11121   8.926   4.909  10.012 -0.7084 -0.5200  0.9437
   83MOL0     N11122   9.035   4.979  10.040 -0.1883 -0.4049 -0.5145
   83MOL0     C11123  10.302   5.009  10.147  0.2011  0.4373  0.4684
   83MOL0     C11124  10.434   4.976  10.103 -1.1967  0.7750  0.6758
   83MOL0     C11125  10.775   4.933   9.781 -0.2124 -0.1090 -0.7540
   83MOL0     C11126  10.892   4.922   9.863 -0.3633  0.5275 -0.2253
   83MOL0     C11127  11.013   4.888   9.798  0.3563  0.3455  0.7411
   83MOL0     C11128  11.016   4.855   9.665  0.4664 -0.4310  1.3959
   83MOL0     O11129  11.130   4.814   9.598 -0.1952  0.7822 -0.4502
   83MOL0     C11130  11.243   4.785   9.678  0.2655 -0.6541  0.7954
   83MOL0     C11131  11.348   4.704   9.600 -0.2894 -0.1334 -0.6443
   83MOL0     C11132  11.380   4.751   9.461  0.2882  0.0201 -0.0217
   83MOL0     C11133  11.512   4.683   9.417  0.1704 -0.2258  0.7857
   83MOL0     C11134  11.553   4.726   9.283 -0.4420 -0.7334 -0.5567
   83MOL0     C11135  11.578   4.754   9.164 -0.0163  0.5744 -0.1900
   83MOL0     C11136  10.892   4.856   9.591 -0.2904  0.1389 -0.1137
   83MOL0     C11137  10.776   4.897   9.647 -0.5850 -0.1322  0.4175
   83MOL0     H11138  10.497   5.243   9.907  0.3270 -0.9182 -0.7881
   83MOL0     H11139  10.268   5.287   9.959 -0.6755 -1.1830 -0.4934
   83MOL0     H11140  10.069   5.338  10.122 -0.2748  0.6616  0.2945
   83MOL0     H11141  10.025   5.238   9.972 -1.8355 -2.1821  1.1586
   83MOL0     H11142   9.901   5.183  10.238  2.5900 -2.8537 -0.7682
   83MOL0     H11143   9.857   5.319  10.135  2.1890  1.9130  1.9983
   83MOL0     H11144   9.804   5.141   9.946  0.0988  1.0671 -0.0953
   83MOL0     H11145   9.869   5.026  10.057 -0.2431  0.1515 -0.0938
   83MOL0     H11146   9.698   5.105  10.244 -4.9691  0.9349  1.0655
   83MOL0     H11147   9.636   5.209  10.106 -0.5072 -0.0541  0.4950
   83MOL0     H11148   9.550   5.023   9.993 -2.2065 -0.9851  0.1275
   83MOL0     H11149   9.624   4.906  10.098 -0.2232 -0.1428 -0.1617
   83MOL0     H11150   9.480   4.959  10.285 -4.4084  1.1706  1.7609
   83MOL0     H11151   9.436   5.114  10.191  1.3602  0.5657 -1.8189
   83MOL0     H11152   9.319   4.937  10.037  0.2664  1.6067  0.2863
   83MOL0     H11153   9.359   4.815  10.161 -0.0954 -0.0326  0.3029
   83MOL0     H11154   9.197   5.057  10.245 -2.6422 -0.5405  2.0202
   83MOL0     H11155   9.196   4.906  10.320  0.3169 -1.0416  0.0222
   83MOL0     H11156   9.049   4.711  10.240 -1.8297  3.9815  2.8823
   83MOL0     H11157   8.737   4.662  10.070  1.1694  0.1085 -0.7456
   83MOL0     H11158   8.801   4.679   9.912 -2.1496  1.9460 -0.0578
   83MOL0     H11159   8.840   4.445   9.992  3.3940 -1.2784 -1.9014
   83MOL0     H11160   8.898   4.516  10.146  0.6339  2.2095  0.7111
   83MOL0     H11161   9.116   4.587  10.006  0.1237  1.2396 -0.8514
   83MOL0     H11162   9.023   4.575   9.857 -0.0588 -0.2095  0.2793
   83MOL0     H11163   9.199   4.402   9.915  0.1309  2.1986  2.7056
   83MOL0     H11164   9.038   4.329   9.856  0.2069  1.8388 -1.6666
   83MOL0     H11165   9.244   4.152   9.896  0.9497  1.3436  0.8480
   83MOL0     H11166   9.333   3.908   9.854 -0.8100 -2.7854  1.3378
   83MOL0     H11167   9.478   3.991   9.926  0.0005 -0.6882 -4.3962
   83MOL0     H11168   9.429   3.836   9.980  1.0726  2.0397  1.6704
   83MOL0     H11169   9.503   3.764  10.464 -1.5597 -1.0952 -2.7504
   83MOL0     H11170   9.647   3.594  10.552  1.6575 -1.0371  0.2893
   83MOL0     H11171   9.979   3.562  10.515  0.1245 -0.0204 -1.7242
   83MOL0     H11172   9.838   3.489  10.592  2.1287  1.7877  2.0357
   83MOL0     H11173   9.920   3.263  10.545 -2.8705  1.8427 -0.0221
   83MOL0     H11174  10.051   3.321  10.446  0.8227 -0.3731  2.1360
   83MOL0     H11175   9.989   3.336  10.741 -2.9229 -0.9067 -1.2894
   83MOL0     H11176  10.117   3.448  10.671  0.8989 -0.9751  1.5394
   83MOL0     H11177  10.126   3.143  10.632  0.3011 -0.8379  1.1563
   83MOL0     H11178  10.256   3.260  10.610 -2.3837  1.5476 -2.5745
   83MOL0     H11179  10.128   3.235  10.874  0.3440 -1.3901  0.5084
   83MOL0     H11180  10.302   3.273  10.839  2.8662 -1.8431 -3.2007
   83MOL0     H11181  10.297   3.056  10.931 -1.3855 -0.3221  0.8436
   83MOL0     H11182  10.174   3.002  10.827 -1.3990  2.1576 -0.4150
   83MOL0     H11183  10.309   3.009  10.625 -0.7754  3.2663 -0.8463
   83MOL0     H11184  10.369   2.906  10.760 -2.9047  0.0328  0.5051
   83MOL0     H11185  10.471   3.182  10.659 -1.6214 -0.0901  0.9400
   83MOL0     H11186  10.531   3.030  10.622 -0.1412 -1.7499  0.7148
   83MOL0     H11187   9.823   3.569  10.138  0.2079  1.1206 -0.2868
   83MOL0     H11188   9.671   3.738  10.086  0.9311  0.9493  0.9571
   83MOL0     H11189   9.210   4.003  10.372 -0.7489  1.1758 -0.5662
   83MOL0     H11190   9.085   4.206  10.303  0.6596  1.4343  0.4864
   83MOL0     H11191  10.260   4.947  10.225 -1.0925  1.9445  1.0177
   83MOL0     H11192  10.483   4.891  10.149 -2.7335 -1.0741 -0.9243
   83MOL0     H11193  10.890   4.943   9.969  3.2387  1.1563 -0.1617
   83MOL0     H11194  11.097   4.887   9.867  2.0435  2.8205 -1.0636
   83MOL0     H11195  11.283   4.880   9.715  1.6469 -0.9368  0.0703
   83MOL0     H11196  11.208   4.727   9.763 -0.2103  1.2667  1.9744
   83MOL0     H11197  11.315   4.601   9.617 -1.8573  0.6430  1.5264
   83MOL0     H11198  11.438   4.725   9.659 -1.0127  1.0995  0.0573
   83MOL0     H11199  11.390   4.860   9.461  0.6817 -0.0151  0.0445
   83MOL0     H11200  11.296   4.726   9.395  0.5541 -1.0603  0.0268
   83MOL0     H11201  11.495   4.575   9.424 -4.3618  0.3293  1.5241
   83MOL0     H11202  11.589   4.719   9.487 -0.3158  3.5903 -0.4334
   83MOL0     H11203  11.604   4.779   9.064 -2.8181  0.6353 -0.9861
   83MOL0     H11204  10.903   4.851   9.483  2.2149  1.0190  0.0433
   83MOL0     H11205  10.690   4.907   9.582 -0.7997 -1.0111  0.5542
   84MOL0     O11206   3.420   2.653  10.837 -0.6954  0.2702  0.1265
   84MOL0     C11207   3.451   2.536  10.869 -0.1360  0.7370  0.2915
   84MOL0     O11208   3.389   2.428  10.817  0.3242  0.2733 -0.0184
   84MOL0     C11209   3.297   2.445  10.725 -0.9157 -0.1457  0.8225
   84MOL0     C11210   3.170   2.403  10.759 -0.5917  0.8056  0.2851
   84MOL0     C11211   3.072   2.399  10.664 -0.1814 -0.0461 -0.1571
   84MOL0     C11212   3.099   2.442  10.533  0.8954  0.2495 -0.0245
   84MOL0     O11213   3.004   2.439  10.426 -0.0800  0.2288 -0.7041
   84MOL0     C11214   2.880   2.385  10.460  0.3356  0.4440 -0.2601
   84MOL0     C11215   2.779   2.397  10.351  0.6333 -0.0593  0.8792
   84MOL0     C11216   2.746   2.538  10.310 -0.3803 -0.8351  0.0000
   84MOL0     C11217   2.673   2.624  10.423  0.2366  0.3877  0.1541
   84MOL0     C11218   2.649   2.770  10.370  1.0398 -0.1974 -0.8072
   84MOL0     C11219   2.578   2.854  10.475 -0.4070  0.7372  0.7795
   84MOL0     C11220   2.428   2.844  10.466  0.4098  0.5645  0.2393
   84MOL0     C11221   2.353   2.943  10.549 -0.8669  0.1393 -0.0872
   84MOL0     N11222   2.205   2.932  10.538  0.0274 -0.4414  0.1319
   84MOL0     C11223   2.131   2.815  10.521  0.4607 -0.5764 -0.7023
   84MOL0     C11224   2.004   2.857  10.533 -0.1428 -0.4125 -0.1962
   84MOL0     C11225   1.887   2.765  10.521  0.7869 -0.0339  0.6958
   84MOL0     C11226   1.837   2.728  10.660  0.2535  0.1549  0.2504
   84MOL0     C11227   1.734   2.620  10.649 -1.0070  0.7962 -0.6059
   84MOL0     C11228   1.738   2.502  10.747  1.0212 -0.1426  0.5226
   84MOL0     O11229   1.822   2.395  10.708  0.3290  0.2360  1.4782
   84MOL0     C11230   1.960   2.406  10.711  0.6619 -0.3374 -0.2998
   84MOL0     C11231   2.039   2.422  10.595 -0.1948  0.3086  0.5162
   84MOL0     C11232   2.179   2.436  10.586 -0.6985 -1.0166  0.1802
   84MOL0     C11233   2.248   2.451  10.447  0.1824 -0.3280 -0.0045
   84MOL0     C11234   2.252   2.434  10.711  0.1547 -0.2936  0.8779
   84MOL0     C11235   2.397   2.454  10.724 -0.3099  0.7405  0.3682
   84MOL0     O11236   2.445   2.442  10.857 -0.5880  0.1940 -0.5523
   84MOL0     C11237   2.582   2.441  10.894  0.1775 -0.5792 -0.6187
   84MOL0     C11238   2.605   2.373  11.021 -0.1667 -0.3258 -0.1054
   84MOL0     C11239   2.737   2.369  11.070  0.3353 -0.3944 -0.0354
   84MOL0     C11240   2.835   2.455  11.020  0.1426  0.2451 -0.0595
   84MOL0     O11241   2.968   2.448  11.065  0.2282  0.6158  0.0128
   84MOL0     C11242   3.025   2.571  11.111  0.0827 -0.2508 -0.5487
   84MOL0     C11243   3.168   2.551  11.179 -0.7946 -0.2443  0.0190
   84MOL0     C11244   3.240   2.685  11.186 -0.1298 -0.4179  0.6008
   84MOL0     C11245   3.163   2.797  11.253 -0.3870 -1.2625  0.1693
   84MOL0     C11246   3.265   2.910  11.297  0.9739  0.6808 -0.1396
   84MOL0     C11247   3.319   2.987  11.175 -0.0592 -0.0342 -0.6026
   84MOL0     C11248   3.425   3.084  11.218  0.9504  0.6166  0.2977
   84MOL0     C11249   3.565   3.037  11.233 -0.2358  0.7432 -0.3559
   84MOL0    Cl11250   3.675   3.166  11.258 -0.2528 -0.0986  0.0236
   84MOL0     C11251   2.802   2.524  10.902  0.3948  0.0512 -0.0956
   84MOL0     C11252   2.679   2.517  10.838 -0.0558 -0.3059  0.1267
   84MOL0     O11253   2.470   2.479  10.624 -0.1157  0.8157 -0.4517
   84MOL0     C11254   2.169   2.417  10.827 -0.5348  0.0051 -0.2389
   84MOL0     C11255   2.034   2.404  10.827  0.7590  0.0618  0.2149
   84MOL0     N11256   1.995   2.994  10.549 -0.6265  0.2795  1.3738
   84MOL0     N11257   2.119   3.037  10.556  0.3022 -0.5583  0.1185
   84MOL0     C11258   3.230   2.496  10.502 -0.3775 -0.6957  1.2278
   84MOL0     C11259   3.331   2.496  10.599  0.0691  0.3319  0.2643
   84MOL0     C11260   3.562   2.516  10.971 -0.6676  0.3060 -0.6968
   84MOL0     C11261   3.610   2.394  11.019  0.5821  0.9406  0.0632
   84MOL0     C11262   3.699   2.375  11.119 -1.0808  0.2077  0.3157
   84MOL0     C11263   3.755   2.494  11.182  0.0656 -0.2443 -0.8895
   84MOL0     O11264   3.842   2.486  11.291 -0.1342  0.5403 -0.2428
   84MOL0     C11265   3.823   2.392  11.395 -0.1589 -0.3183 -0.1711
   84MOL0     C11266   3.960   2.365  11.448  0.1298 -0.2363 -0.2877
   84MOL0     C11267   4.048   2.484  11.487 -0.3238 -0.6518 -1.0593
   84MOL0     C11268   4.196   2.457  11.518  0.3257  0.4044  0.6527
   84MOL0     C11269   4.211   2.362  11.629  0.1943 -0.7984 -0.5689
   84MOL0     C11270   4.223   2.279  11.719 -0.6880  0.5256 -0.0144
   84MOL0     C11271   3.723   2.618  11.127 -0.7987  0.3402  0.6442
   84MOL0     C11272   3.625   2.625  11.027  0.2870 -0.4993  1.2760
   84MOL0     H11273   3.164   2.351  10.854 -2.8198 -0.8105 -0.6423
   84MOL0     H11274   2.977   2.358  10.696 -0.0150  0.1820  0.6309
   84MOL0     H11275   2.892   2.280  10.489 -0.6541 -0.6091 -3.2881
   84MOL0     H11276   2.845   2.440  10.548 -0.0901 -0.7104  0.3206
   84MOL0     H11277   2.812   2.343  10.262 -1.3738  1.0434 -0.6207
   84MOL0     H11278   2.693   2.339  10.388  1.5796 -2.4088 -0.3917
   84MOL0     H11279   2.835   2.589  10.272  2.2410 -4.1816  1.1111
   84MOL0     H11280   2.677   2.541  10.225  1.3672  3.2762 -1.5461
   84MOL0     H11281   2.580   2.572  10.446  0.3823  1.0138  2.5355
   84MOL0     H11282   2.731   2.628  10.516 -1.4326 -0.6874  1.2885
   84MOL0     H11283   2.742   2.818  10.337  1.3200  0.3821  0.7467
   84MOL0     H11284   2.576   2.763  10.289 -0.2519 -2.6551  0.4796
   84MOL0     H11285   2.623   2.839  10.573  0.7051 -1.0270  0.0439
   84MOL0     H11286   2.605   2.958  10.453 -1.1492  0.3532 -2.4687
   84MOL0     H11287   2.397   2.863  10.363 -1.3391  0.5945  0.7383
   84MOL0     H11288   2.404   2.740  10.492  1.5009 -0.6080 -2.9853
   84MOL0     H11289   2.377   3.046  10.521 -0.4890  0.0242 -0.1813
   84MOL0     H11290   2.382   2.933  10.654  0.0686  4.2996  0.2481
   84MOL0     H11291   2.160   2.712  10.508  1.1033 -0.6124  0.8062
   84MOL0     H11292   1.814   2.827  10.467  2.0406 -0.8894 -2.1342
   84MOL0     H11293   1.922   2.683  10.458  0.2033  0.6137 -0.4846
   84MOL0     H11294   1.787   2.816  10.701 -2.4787 -1.0600 -0.2450
   84MOL0     H11295   1.928   2.701  10.715  0.4333 -0.9981 -0.5922
   84MOL0     H11296   1.713   2.573  10.553  0.1549 -3.1449  0.8568
   84MOL0     H11297   1.636   2.667  10.661 -0.2511  1.9553  1.7192
   84MOL0     H11298   1.634   2.470  10.758  1.2369 -0.2400  2.8153
   84MOL0     H11299   1.748   2.537  10.850 -1.8236  2.5658  0.0590
   84MOL0     H11300   1.990   2.434  10.499  3.1669  1.3190 -1.2094
   84MOL0     H11301   2.293   2.354  10.421  1.0481  0.1449 -0.3322
   84MOL0     H11302   2.171   2.488  10.378  1.6654  4.3850  0.4690
   84MOL0     H11303   2.311   2.540  10.438 -1.6907  0.8408 -4.5791
   84MOL0     H11304   2.531   2.309  11.067 -0.7179 -0.4174 -1.0813
   84MOL0     H11305   2.744   2.297  11.151  0.4485 -0.9577 -0.5474
   84MOL0     H11306   3.046   2.631  11.021  3.4201  0.0551  0.3070
   84MOL0     H11307   2.945   2.619  11.168  1.6854  0.7687  0.9051
   84MOL0     H11308   3.151   2.508  11.279 -0.4305  1.5175  0.8771
   84MOL0     H11309   3.225   2.477  11.123  1.0147  2.5933 -2.1821
   84MOL0     H11310   3.265   2.716  11.084 -0.0653 -0.1015  0.7122
   84MOL0     H11311   3.343   2.674  11.222  0.4788  1.9730 -0.2360
   84MOL0     H11312   3.101   2.846  11.177  0.7285  1.4929  0.8922
   84MOL0     H11313   3.088   2.768  11.327 -1.9912  2.7173  0.3497
   84MOL0     H11314   3.343   2.864  11.358 -2.7238 -3.5742  1.9518
   84MOL0     H11315   3.222   2.988  11.360  2.5332  2.6710 -1.4182
   84MOL0     H11316   3.360   2.913  11.107  1.5556  1.0168 -0.8082
   84MOL0     H11317   3.239   3.043  11.125 -1.1203  1.3500  2.4004
   84MOL0     H11318   3.401   3.143  11.306  0.9174  1.1614 -0.0719
   84MOL0     H11319   3.436   3.162  11.142 -0.2743  0.3975 -0.1269
   84MOL0     H11320   3.596   2.979  11.145  1.0924  0.7389  0.0873
   84MOL0     H11321   3.574   2.969  11.318  1.6535  2.9055  1.3070
   84MOL0     H11322   2.882   2.583  10.858 -1.5031  1.5720 -1.6980
   84MOL0     H11323   2.673   2.574  10.746 -0.6329 -1.4275 -0.5608
   84MOL0     H11324   2.201   2.413  10.930 -1.4838 -2.7977  0.0239
   84MOL0     H11325   1.977   2.393  10.919 -0.9996  0.5354 -0.7833
   84MOL0     H11326   3.264   2.511  10.400  0.5661  3.2883  1.9325
   84MOL0     H11327   3.428   2.534  10.568 -1.3151  2.1870 -2.1818
   84MOL0     H11328   3.556   2.314  10.970 -0.6952  1.1883  1.0054
   84MOL0     H11329   3.724   2.281  11.168 -2.3010 -1.1046 -1.4848
   84MOL0     H11330   3.764   2.429  11.479 -0.4940 -1.2106  0.0025
   84MOL0     H11331   3.771   2.303  11.357 -2.3060  1.6252 -2.1050
   84MOL0     H11332   4.019   2.308  11.376  1.4049  0.6864 -0.0273
   84MOL0     H11333   3.938   2.303  11.535 -1.1591  1.3022  0.5495
   84MOL0     H11334   3.996   2.527  11.574  1.7301 -0.1406 -0.0173
   84MOL0     H11335   4.055   2.561  11.410  3.1124 -2.5527 -2.8659
   84MOL0     H11336   4.241   2.548  11.558 -0.0270  1.2877 -0.8825
   84MOL0     H11337   4.246   2.405  11.436  0.0185  0.6945  0.2748
   84MOL0     H11338   4.231   2.217  11.806  1.0108  0.5004 -0.1570
   84MOL0     H11339   3.777   2.706  11.159  0.7391 -0.5609  0.6089
   84MOL0     H11340   3.593   2.724  10.996 -2.5591 -1.5354  0.6301
   85MOL0     O11341   3.098   4.547   1.203 -0.0116  0.4012  0.4077
   85MOL0     C11342   3.137   4.494   1.098  0.1980 -0.6380  0.7332
   85MOL0     O11343   3.058   4.415   1.023 -0.3415  0.4902  0.3595
   85MOL0     C11344   2.950   4.339   1.066  0.7360 -0.4212 -0.2414
   85MOL0     C11345   2.862   4.294   0.968 -0.7663  0.0601 -0.5298
   85MOL0     C11346   2.752   4.212   1.000 -0.3774 -0.2776 -0.2824
   85MOL0     C11347   2.714   4.189   1.132  0.4495  0.3229 -0.2761
   85MOL0     O11348   2.603   4.113   1.161 -0.2678  0.0624 -0.3026
   85MOL0     C11349   2.636   3.991   1.216  0.1082 -0.2831 -0.3364
   85MOL0     C11350   2.556   3.872   1.162 -0.6257  1.2198 -0.9740
   85MOL0     C11351   2.567   3.740   1.249  0.2601  0.4544  0.8647
   85MOL0     C11352   2.479   3.628   1.188 -0.5165  0.0592  0.7102
   85MOL0     C11353   2.493   3.489   1.257 -0.0244  0.8599  0.5086
   85MOL0     C11354   2.615   3.407   1.200 -0.4447  0.2282  0.0258
   85MOL0     C11355   2.598   3.353   1.059 -0.0933  0.9931 -0.0503
   85MOL0     C11356   2.671   3.224   1.021  0.4048  0.3819 -0.4447
   85MOL0     N11357   2.818   3.244   1.021  0.7849  0.3863 -0.3512
   85MOL0     C11358   2.880   3.351   0.957  0.2972  0.1531 -0.7639
   85MOL0     C11359   3.017   3.326   0.968 -0.2820  0.1953  0.7359
   85MOL0     C11360   3.116   3.420   0.900  0.5294  0.7649 -0.0484
   85MOL0     C11361   3.177   3.508   1.010  0.4942  0.2357 -0.2706
   85MOL0     C11362   3.315   3.573   0.978 -0.1720 -0.5436 -0.0957
   85MOL0     C11363   3.322   3.718   0.931 -1.1345 -0.1259  0.2512
   85MOL0     O11364   3.234   3.732   0.817  0.0021  0.5464  0.0786
   85MOL0     C11365   3.276   3.729   0.691  0.0241 -0.2262 -0.2880
   85MOL0     C11366   3.413   3.698   0.661  0.9570 -0.5513  0.0607
   85MOL0     C11367   3.455   3.706   0.524 -0.6969 -0.7833 -0.0941
   85MOL0     C11368   3.605   3.683   0.499 -0.2055  0.0764 -0.8969
   85MOL0     C11369   3.369   3.742   0.418  0.1062  0.0268 -0.1158
   85MOL0     C11370   3.395   3.754   0.281 -0.9213  0.4429  0.1656
   85MOL0     O11371   3.347   3.865   0.229  0.0816 -0.2891  0.4775
   85MOL0     C11372   3.314   3.874   0.096 -0.0921  0.7966 -0.6219
   85MOL0     C11373   3.260   3.768   0.028 -1.2693 -1.1965 -0.0606
   85MOL0     C11374   3.231   3.792  -0.108 -0.7567 -0.4894 -0.2166
   85MOL0     C11375   3.235   3.923  -0.161 -0.2839 -0.0449  0.4372
   85MOL0     O11376   3.186   3.940  -0.291 -0.2945 -0.8833  0.4280
   85MOL0     C11377   3.130   4.067  -0.317  0.3238 -0.5040 -0.2943
   85MOL0     C11378   3.054   4.056  -0.456 -0.0621  0.1817  0.9081
   85MOL0     C11379   2.921   3.972  -0.452 -0.4100  0.3199 -0.1731
   85MOL0     C11380   2.863   3.975  -0.595  0.2674  0.0951 -0.0436
   85MOL0     C11381   2.723   3.914  -0.619 -0.0253 -0.2368 -0.0265
   85MOL0     C11382   2.650   3.952  -0.745  0.3189  0.2776 -0.0964
   85MOL0     C11383   2.505   3.917  -0.721  0.4353  0.1177 -0.5450
   85MOL0     C11384   2.429   4.022  -0.635 -0.3953 -0.8873 -0.2246
   85MOL0    Cl11385   2.255   3.968  -0.626 -0.9609 -0.1958  0.3175
   85MOL0     C11386   3.277   4.032  -0.079  0.5313  0.8240 -0.5958
   85MOL0     C11387   3.327   3.999   0.046  0.2748 -0.3782 -0.1380
   85MOL0     O11388   3.465   3.671   0.230 -0.8345 -0.1737 -0.2455
   85MOL0     C11389   3.235   3.773   0.457  0.3409  0.7609  0.1887
   85MOL0     C11390   3.190   3.769   0.591  0.4903  0.6218  0.6443
   85MOL0     N11391   3.027   3.216   1.050  0.3111 -0.3257 -0.5022
   85MOL0     N11392   2.907   3.171   1.085 -0.7595  0.2040  0.6709
   85MOL0     C11393   2.797   4.238   1.234  0.7537  0.2843  0.7277
   85MOL0     C11394   2.908   4.316   1.200 -0.8667 -0.0506  0.1563
   85MOL0     C11395   3.263   4.544   1.031  0.0418  1.2269  0.1791
   85MOL0     C11396   3.340   4.647   1.077  0.1820  0.1931 -0.3570
   85MOL0     C11397   3.454   4.687   1.021 -0.6161  0.6304  0.5958
   85MOL0     C11398   3.501   4.614   0.909  0.8265 -0.6745  0.5128
   85MOL0     O11399   3.612   4.651   0.836  0.9474 -1.0285  0.5481
   85MOL0     C11400   3.648   4.789   0.854  0.7796 -0.3884 -0.1106
   85MOL0     C11401   3.744   4.813   0.744 -0.3854 -0.1195 -0.7709
   85MOL0     C11402   3.876   4.731   0.772  0.1756 -0.2208  0.6457
   85MOL0     C11403   3.992   4.755   0.677 -0.2878  0.6615  0.0927
   85MOL0     C11404   4.102   4.661   0.705  0.4356 -0.1734  0.0732
   85MOL0     C11405   4.206   4.599   0.714  1.1267 -0.2249  0.8561
   85MOL0     C11406   3.426   4.507   0.857  0.1441 -0.5217 -0.1763
   85MOL0     C11407   3.309   4.468   0.918 -0.6219  0.2933 -0.4395
   85MOL0     H11408   2.895   4.313   0.867  1.4459  1.6114  0.4137
   85MOL0     H11409   2.685   4.174   0.923 -0.4034  1.5988 -1.2517
   85MOL0     H11410   2.741   3.962   1.208  0.0535 -0.9970  1.2351
   85MOL0     H11411   2.601   3.992   1.319 -3.1560  0.1423 -1.3438
   85MOL0     H11412   2.454   3.906   1.180 -0.5606  0.9226  0.0322
   85MOL0     H11413   2.573   3.856   1.055  0.5497 -0.8558 -0.5305
   85MOL0     H11414   2.673   3.710   1.252 -0.0726 -0.7629  1.0580
   85MOL0     H11415   2.545   3.763   1.354 -0.1332  0.0550  0.8737
   85MOL0     H11416   2.376   3.661   1.205 -0.5377  0.8917 -0.8690
   85MOL0     H11417   2.493   3.621   1.080 -1.8525 -0.8091  0.5566
   85MOL0     H11418   2.500   3.502   1.365  0.6621  2.1277  0.3424
   85MOL0     H11419   2.403   3.430   1.239 -0.8099  2.6515 -2.2592
   85MOL0     H11420   2.710   3.456   1.219 -0.8383  1.2951 -0.6387
   85MOL0     H11421   2.619   3.312   1.254 -0.1158 -2.3962 -4.1126
   85MOL0     H11422   2.496   3.316   1.041  1.0879 -2.3232 -0.6248
   85MOL0     H11423   2.624   3.430   0.986  3.6735  0.9163  1.0346
   85MOL0     H11424   2.640   3.172   0.930  1.7935 -0.4461 -0.4710
   85MOL0     H11425   2.644   3.148   1.096  0.5874 -0.2773 -1.0311
   85MOL0     H11426   2.841   3.438   0.905 -0.0381 -0.8597 -2.2570
   85MOL0     H11427   3.188   3.357   0.845 -1.6248 -1.6381 -0.2761
   85MOL0     H11428   3.069   3.481   0.823 -1.2705 -0.3506  0.1212
   85MOL0     H11429   3.193   3.448   1.100  1.0909 -0.2949 -0.7174
   85MOL0     H11430   3.103   3.585   1.032  0.7401  0.9671 -1.8274
   85MOL0     H11431   3.358   3.515   0.896 -2.6912 -0.6361 -1.4362
   85MOL0     H11432   3.379   3.553   1.065  2.2954  0.7588 -1.4879
   85MOL0     H11433   3.422   3.758   0.910 -1.6593  0.9352 -0.3190
   85MOL0     H11434   3.288   3.785   1.011 -0.2436 -0.1754  0.6812
   85MOL0     H11435   3.486   3.668   0.736  2.1177  0.0366 -0.7906
   85MOL0     H11436   3.656   3.769   0.454 -0.8916  1.3781  0.7183
   85MOL0     H11437   3.665   3.666   0.588 -0.7957  3.8221  0.4285
   85MOL0     H11438   3.613   3.595   0.435  0.2133  0.3615 -1.2453
   85MOL0     H11439   3.267   3.668   0.069 -0.2216 -0.8034  0.7491
   85MOL0     H11440   3.195   3.716  -0.176 -1.7726  1.4627 -1.9929
   85MOL0     H11441   3.049   4.091  -0.248  1.1273 -2.5068  1.4736
   85MOL0     H11442   3.201   4.150  -0.324 -2.4501  1.8686 -3.8429
   85MOL0     H11443   3.022   4.154  -0.493  1.6888  0.3222 -0.3528
   85MOL0     H11444   3.119   4.010  -0.531 -0.7465 -0.8850  0.9496
   85MOL0     H11445   2.863   4.013  -0.369  0.5882 -2.3689  2.0610
   85MOL0     H11446   2.933   3.874  -0.404 -2.4360  0.0883 -0.0626
   85MOL0     H11447   2.862   4.081  -0.621 -4.5831  0.0596 -0.8117
   85MOL0     H11448   2.927   3.923  -0.667  0.2039  0.4930 -0.3858
   85MOL0     H11449   2.669   3.950  -0.532 -0.2392 -0.2086 -0.1714
   85MOL0     H11450   2.735   3.806  -0.607 -0.3014 -0.3562 -0.7486
   85MOL0     H11451   2.666   4.056  -0.778 -2.1831  0.6737 -0.2555
   85MOL0     H11452   2.699   3.879  -0.809  1.3666 -0.8064  1.8503
   85MOL0     H11453   2.490   3.824  -0.665 -1.4371  0.9753  0.4570
   85MOL0     H11454   2.450   3.899  -0.813 -3.2348 -1.1512  1.6857
   85MOL0     H11455   2.435   4.127  -0.664 -0.7779 -0.7073  0.3192
   85MOL0     H11456   2.452   4.022  -0.528 -0.9361  0.3092 -0.0901
   85MOL0     H11457   3.280   4.137  -0.104  1.4060  0.7050 -1.0178
   85MOL0     H11458   3.390   4.064   0.106 -0.5612  1.3509 -1.0747
   85MOL0     H11459   3.164   3.808   0.383  0.8644 -1.4190 -1.4468
   85MOL0     H11460   3.089   3.802   0.612  1.0709  3.3880 -0.4278
   85MOL0     H11461   2.786   4.223   1.341  0.9237  0.7541  0.8143
   85MOL0     H11462   2.983   4.342   1.275  0.9393  1.1513 -1.9593
   85MOL0     H11463   3.310   4.708   1.162 -1.0398 -1.4356  0.4266
   85MOL0     H11464   3.510   4.767   1.068  0.4520 -0.9776  2.2368
   85MOL0     H11465   3.562   4.857   0.853 -0.2679 -1.6399  0.9666
   85MOL0     H11466   3.694   4.808   0.951  0.3698  1.1550 -0.1952
   85MOL0     H11467   3.768   4.920   0.734 -0.0625 -0.0967  0.1427
   85MOL0     H11468   3.707   4.788   0.644 -0.1370  2.6445 -1.6498
   85MOL0     H11469   3.850   4.625   0.773  1.5176 -0.5735 -0.1910
   85MOL0     H11470   3.903   4.767   0.872 -0.1187  1.6642  0.0912
   85MOL0     H11471   4.022   4.860   0.681  0.9729  0.2917  2.1080
   85MOL0     H11472   3.974   4.729   0.573  0.4277 -3.2332  0.7904
   85MOL0     H11473   4.288   4.531   0.700 -0.9437 -2.7019 -0.0844
   85MOL0     H11474   3.460   4.460   0.765 -1.7622 -0.1445 -1.1456
   85MOL0     H11475   3.263   4.385   0.867 -0.1307 -1.1139  1.3156
   86MOL0     O11476   7.027  10.679   8.823 -0.0411 -1.1609 -0.7708
   86MOL0     C11477   6.931  10.759   8.859  0.9202  0.4636 -0.1217
   86MOL0     O11478   6.795  10.741   8.822 -0.3298 -0.0176  0.0817
   86MOL0     C11479   6.743  10.639   8.751 -0.0586 -0.8053  0.4249
   86MOL0     C11480   6.820  10.576   8.648 -0.1455  0.4255  0.0443
   86MOL0     C11481   6.758  10.475   8.565 -0.2789 -0.8004  0.9018
   86MOL0     C11482   6.623  10.435   8.591 -0.2536  0.1634 -0.3623
   86MOL0     O11483   6.571  10.341   8.507  0.1712  0.0250  0.5979
   86MOL0     C11484   6.451  10.268   8.538  1.2043  0.4461 -0.3241
   86MOL0     C11485   6.468  10.122   8.509 -0.0724 -0.4367  0.6244
   86MOL0     C11486   6.595  10.057   8.566  0.5934 -0.6261 -0.7583
   86MOL0     C11487   6.604   9.902   8.571 -0.2483  0.2511  0.2305
   86MOL0     C11488   6.728   9.852   8.644  0.3083  0.1255 -0.3044
   86MOL0     C11489   6.837   9.808   8.535  1.1232 -0.2706 -0.4219
   86MOL0     C11490   6.975   9.777   8.590 -0.3665 -0.0614  0.1851
   86MOL0     C11491   6.993   9.702   8.718 -0.4862 -0.2319 -0.0214
   86MOL0     N11492   6.970   9.552   8.698 -0.0221 -0.4344  0.0487
   86MOL0     C11493   6.863   9.503   8.629 -0.5731  0.2602 -0.4111
   86MOL0     C11494   6.899   9.372   8.599  0.2815  0.5124 -0.5773
   86MOL0     C11495   6.822   9.262   8.545  0.4362 -0.0478 -0.4093
   86MOL0     C11496   6.726   9.198   8.645 -0.8593  0.0461 -0.7289
   86MOL0     C11497   6.663   9.063   8.595  0.3660  0.5882  0.1613
   86MOL0     C11498   6.525   9.038   8.668 -0.7392 -0.1006 -0.0354
   86MOL0     O11499   6.439   9.145   8.627  0.5082  0.3255 -0.1161
   86MOL0     C11500   6.307   9.137   8.681 -0.0768 -0.8373  0.1454
   86MOL0     C11501   6.234   9.024   8.721  0.7942  0.1063  0.6919
   86MOL0     C11502   6.113   9.022   8.782  0.2592  1.2769 -0.5086
   86MOL0     C11503   6.057   8.883   8.817 -0.6490  0.2869  0.1281
   86MOL0     C11504   6.047   9.139   8.795  0.8424 -1.3135  0.0801
   86MOL0     C11505   5.896   9.155   8.831 -0.5659  0.2971  1.0363
   86MOL0     O11506   5.820   9.044   8.865  0.1091  0.5175  0.2175
   86MOL0     C11507   5.684   9.050   8.850  0.5023 -0.1423 -0.1192
   86MOL0     C11508   5.629   8.921   8.837  0.1379  0.3312  0.0269
   86MOL0     C11509   5.498   8.899   8.816  0.3169  0.1592  0.5675
   86MOL0     C11510   5.412   9.008   8.805  0.2476 -0.0171 -0.7876
   86MOL0     O11511   5.273   9.010   8.777 -0.7742  0.5546  0.0716
   86MOL0     C11512   5.195   8.898   8.819  0.1474  0.5090  0.4885
   86MOL0     C11513   5.053   8.914   8.776  0.3236  0.1265  0.0152
   86MOL0     C11514   4.978   9.044   8.823  0.3206 -0.5755  0.2456
   86MOL0     C11515   4.846   9.055   8.744  1.3189  0.3473  0.2944
   86MOL0     C11516   4.755   8.934   8.772 -0.3634 -0.5588  0.1109
   86MOL0     C11517   4.612   8.967   8.723  0.3263  0.0588 -0.2671
   86MOL0     C11518   4.535   9.074   8.795  0.0865  0.4858 -0.2059
   86MOL0     C11519   4.402   9.085   8.729 -0.0343  0.2763  0.0339
   86MOL0    Cl11520   4.287   9.153   8.847  0.1328  0.3151 -0.0075
   86MOL0     C11521   5.463   9.140   8.809  0.2508  0.2003 -0.1507
   86MOL0     C11522   5.591   9.159   8.837 -0.4814  0.5919  0.3617
   86MOL0     O11523   5.857   9.269   8.836  0.7258 -0.0234 -0.0144
   86MOL0     C11524   6.120   9.257   8.759 -0.2006 -0.3122  0.3060
   86MOL0     C11525   6.245   9.259   8.690 -0.5149  0.3734 -0.3113
   86MOL0     N11526   7.028   9.344   8.662  0.0058 -0.2936  0.3383
   86MOL0     N11527   7.065   9.456   8.715  1.3352 -0.4505  0.9194
   86MOL0     C11528   6.559  10.486   8.707 -0.0939  0.4767  0.8369
   86MOL0     C11529   6.613  10.596   8.773 -0.2536 -0.1731 -0.4439
   86MOL0     C11530   6.967  10.893   8.921  0.3124  0.6538 -0.9013
   86MOL0     C11531   7.094  10.947   8.934  0.4019  0.5602 -0.2877
   86MOL0     C11532   7.116  11.078   8.977  0.6381  0.2364 -0.7223
   86MOL0     C11533   7.003  11.154   9.025 -0.4459 -0.1000  0.0766
   86MOL0     O11534   7.012  11.279   9.074 -0.0366 -0.4958  0.2023
   86MOL0     C11535   7.093  11.269   9.192 -0.0381 -0.4388 -0.2327
   86MOL0     C11536   7.028  11.362   9.304 -0.4899 -0.0751 -0.0236
   86MOL0     C11537   6.893  11.328   9.348 -0.8534 -0.3489 -0.1291
   86MOL0     C11538   6.866  11.405   9.480  0.3891 -0.6932 -0.0104
   86MOL0     C11539   6.718  11.396   9.517 -0.8868 -1.1859 -1.4710
   86MOL0     C11540   6.601  11.393   9.535 -0.0956 -0.8987 -0.2960
   86MOL0     C11541   6.879  11.088   9.026 -1.0765 -0.6218  0.3662
   86MOL0     C11542   6.861  10.962   8.984 -0.5223 -0.0828 -0.2118
   86MOL0     H11543   6.925  10.596   8.630  1.2773 -2.3853  3.7472
   86MOL0     H11544   6.811  10.436   8.479  2.5989  1.2854  1.5925
   86MOL0     H11545   6.437  10.269   8.647  0.2636  1.2235 -0.4459
   86MOL0     H11546   6.367  10.310   8.482  0.6567  2.5426  1.9129
   86MOL0     H11547   6.375  10.069   8.534 -1.4082  1.2674 -0.5313
   86MOL0     H11548   6.467  10.117   8.400 -0.4506 -1.1271  0.6487
   86MOL0     H11549   6.680  10.097   8.511 -0.0582 -0.6517 -1.8075
   86MOL0     H11550   6.616  10.100   8.664  0.2388  0.8063 -1.2807
   86MOL0     H11551   6.521   9.872   8.636 -1.5988  2.0973 -0.5403
   86MOL0     H11552   6.583   9.859   8.472  0.7701 -0.5254  0.3339
   86MOL0     H11553   6.767   9.937   8.701  0.7360  0.6293 -1.3130
   86MOL0     H11554   6.702   9.766   8.705 -0.2807  0.2381 -0.3965
   86MOL0     H11555   6.794   9.719   8.489  1.3180 -1.8060  2.1613
   86MOL0     H11556   6.852   9.893   8.467 -0.9314 -0.7159 -1.5116
   86MOL0     H11557   7.027   9.731   8.506 -2.7699  1.6955 -2.4884
   86MOL0     H11558   7.030   9.865   8.624  2.4769 -1.3534 -0.7682
   86MOL0     H11559   6.948   9.743   8.808 -0.1741 -0.7241  0.3645
   86MOL0     H11560   7.102   9.701   8.732 -0.5570  3.4779  2.0822
   86MOL0     H11561   6.764   9.544   8.612  0.4279  2.2076 -2.0099
   86MOL0     H11562   6.761   9.303   8.464  2.2982  1.0592 -1.3136
   86MOL0     H11563   6.891   9.182   8.515  1.8834  1.7118 -2.0183
   86MOL0     H11564   6.649   9.275   8.655 -0.1839  0.7107 -0.5661
   86MOL0     H11565   6.780   9.203   8.740 -1.0693  1.2506 -0.6605
   86MOL0     H11566   6.722   8.973   8.616 -2.1192 -1.0834  0.5104
   86MOL0     H11567   6.638   9.070   8.488 -1.2162  1.4900  0.5652
   86MOL0     H11568   6.538   9.035   8.777  0.3127  1.1669 -0.1014
   86MOL0     H11569   6.492   8.938   8.638  2.5423 -0.8970 -1.5061
   86MOL0     H11570   6.279   8.927   8.708 -1.5353 -1.0323  0.4687
   86MOL0     H11571   6.133   8.804   8.809 -0.5803  0.4680 -1.2280
   86MOL0     H11572   6.035   8.882   8.924 -0.8036  0.5933  0.1005
   86MOL0     H11573   5.969   8.876   8.753 -1.2724  3.3648  0.5033
   86MOL0     H11574   5.692   8.834   8.853 -0.2920  0.1879  1.0215
   86MOL0     H11575   5.469   8.795   8.809  1.8159 -0.1899 -1.0774
   86MOL0     H11576   5.225   8.803   8.774 -2.0283  0.0629 -0.1500
   86MOL0     H11577   5.197   8.886   8.927 -2.3450 -1.9307  0.3685
   86MOL0     H11578   5.045   8.902   8.668 -3.1158 -1.2264  0.2796
   86MOL0     H11579   4.996   8.835   8.827 -2.4715  2.9099  1.5974
   86MOL0     H11580   5.030   9.138   8.804 -1.8531  0.3129 -1.8051
   86MOL0     H11581   4.956   9.022   8.928  1.2124 -1.1372  0.3225
   86MOL0     H11582   4.799   9.150   8.769 -2.0563 -0.7447 -1.2286
   86MOL0     H11583   4.866   9.058   8.636 -1.3461 -0.3096 -0.2983
   86MOL0     H11584   4.767   8.894   8.873 -0.4233 -1.5302 -0.2562
   86MOL0     H11585   4.786   8.850   8.709  1.5964 -0.9196  1.4540
   86MOL0     H11586   4.619   9.002   8.620 -1.2780 -0.2251 -0.4965
   86MOL0     H11587   4.552   8.875   8.729 -2.5586  1.8138 -0.4261
   86MOL0     H11588   4.585   9.171   8.802  1.2708 -0.1975  1.5538
   86MOL0     H11589   4.519   9.038   8.897  2.6497 -0.0174  0.0848
   86MOL0     H11590   4.368   8.987   8.695 -0.2292 -1.2800  4.1287
   86MOL0     H11591   4.402   9.138   8.633 -3.1774 -1.9658 -1.4007
   86MOL0     H11592   5.392   9.222   8.796  0.9180  0.3963 -3.1831
   86MOL0     H11593   5.618   9.262   8.856  1.0533  0.3663 -0.4948
   86MOL0     H11594   6.082   9.358   8.769  1.2051  0.0939  1.8163
   86MOL0     H11595   6.295   9.349   8.658  1.0949 -0.8051 -1.2196
   86MOL0     H11596   6.469  10.437   8.741  0.4104  1.1251  3.2635
   86MOL0     H11597   6.566  10.624   8.867 -1.9482 -4.0901  0.0443
   86MOL0     H11598   7.183  10.898   8.897  0.2511  0.8402 -1.0435
   86MOL0     H11599   7.217  11.114   8.997  0.9322 -0.8595 -0.1685
   86MOL0     H11600   7.093  11.166   9.228 -1.2494 -0.0099  1.0964
   86MOL0     H11601   7.196  11.303   9.183  1.1389 -2.4815  3.3601
   86MOL0     H11602   7.037  11.464   9.267 -2.1375  1.1319  2.6251
   86MOL0     H11603   7.100  11.359   9.386 -0.8941  2.0923  0.4756
   86MOL0     H11604   6.886  11.219   9.357  0.2574 -0.5590 -1.3732
   86MOL0     H11605   6.834  11.347   9.258 -0.8089 -0.4066 -0.1704
   86MOL0     H11606   6.898  11.509   9.470 -0.4006 -0.5977 -1.9329
   86MOL0     H11607   6.929  11.364   9.560  0.2906 -0.6642  0.0821
   86MOL0     H11608   6.495  11.379   9.527  0.0323 -1.7180 -0.6979
   86MOL0     H11609   6.789  11.139   9.061 -1.1245 -0.7860  0.4844
   86MOL0     H11610   6.765  10.911   8.987  0.9278 -3.0103  1.7724
   87MOL0     O11611   5.316  10.581   5.584  0.1275  0.2775 -0.2453
   87MOL0     C11612   5.298  10.504   5.678  0.5515 -0.7362  0.3990
   87MOL0     O11613   5.186  10.422   5.692 -0.8216 -0.2079 -0.5338
   87MOL0     C11614   5.080  10.438   5.607 -0.7612  0.4958 -1.1288
   87MOL0     C11615   5.048  10.330   5.513  0.4072  0.2012  0.8711
   87MOL0     C11616   4.949  10.353   5.416 -0.1615  0.6050 -0.5286
   87MOL0     C11617   4.879  10.470   5.417 -0.1134 -0.6824  0.6674
   87MOL0     O11618   4.797  10.512   5.318 -0.2791  0.0876 -1.0344
   87MOL0     C11619   4.800  10.454   5.187 -0.3168 -0.0886  0.6005
   87MOL0     C11620   4.671  10.483   5.114  0.9829  0.0119  0.2229
   87MOL0     C11621   4.644  10.629   5.070  0.0635 -0.9210 -0.0357
   87MOL0     C11622   4.605  10.719   5.195  0.2987  0.2398 -0.5030
   87MOL0     C11623   4.562  10.861   5.166  0.0903 -0.1820 -0.0795
   87MOL0     C11624   4.527  10.949   5.289  0.4556 -0.6294  0.5556
   87MOL0     C11625   4.640  10.969   5.388  0.1513 -0.7144  0.3422
   87MOL0     C11626   4.772  11.007   5.322 -0.1986 -0.3805 -0.4639
   87MOL0     N11627   4.769  11.125   5.235 -0.2972 -0.2589  0.3969
   87MOL0     C11628   4.790  11.140   5.095 -0.0833  0.7497  0.2131
   87MOL0     C11629   4.779  11.272   5.078 -0.0280  0.2275  0.0643
   87MOL0     C11630   4.761  11.342   4.940 -0.7108  0.3518  0.5716
   87MOL0     C11631   4.896  11.411   4.900 -0.2447 -1.0040 -0.2447
   87MOL0     C11632   4.988  11.319   4.822 -0.2793 -0.2515 -0.8412
   87MOL0     C11633   4.959  11.308   4.678  0.5728  0.6118  0.9508
   87MOL0     O11634   4.961  11.434   4.618 -0.9856  0.0011  0.4956
   87MOL0     C11635   5.085  11.479   4.578  0.0058 -0.7102 -0.3431
   87MOL0     C11636   5.125  11.617   4.615  0.5157  0.6512 -0.1787
   87MOL0     C11637   5.246  11.666   4.580 -0.0149  1.1184  1.1359
   87MOL0     C11638   5.270  11.808   4.619 -0.1715  0.8649  0.0505
   87MOL0     C11639   5.330  11.595   4.496 -0.9607 -0.9900  0.3423
   87MOL0     C11640   5.472  11.634   4.463 -0.2169 -0.1351 -0.3498
   87MOL0     O11641   5.558  11.532   4.410 -0.2753 -0.5228  0.0735
   87MOL0     C11642   5.689  11.557   4.381  0.4852 -0.6540  0.4528
   87MOL0     C11643   5.716  11.619   4.260  0.4603 -0.3251 -0.5445
   87MOL0     C11644   5.852  11.631   4.224  0.2618  0.1951 -0.1138
   87MOL0     C11645   5.957  11.578   4.290 -0.4880  0.2450 -0.0929
   87MOL0     O11646   6.081  11.628   4.254 -0.6421  0.4674 -0.4757
   87MOL0     C11647   6.176  11.629   4.360 -0.1339 -0.3595 -0.0830
   87MOL0     C11648   6.284  11.734   4.338 -0.2060  0.2417 -1.1341
   87MOL0     C11649   6.242  11.871   4.385  0.2557 -0.9565 -0.0762
   87MOL0     C11650   6.345  11.981   4.365  0.8562 -0.1506  0.0266
   87MOL0     C11651   6.478  11.952   4.418  0.4268  0.5937 -0.0380
   87MOL0     C11652   6.582  12.054   4.380  0.2965  0.2065  0.1963
   87MOL0     C11653   6.703  12.025   4.470 -0.0049  0.1955  0.5139
   87MOL0     C11654   6.831  12.064   4.392  0.8959  0.0515  0.3989
   87MOL0    Cl11655   6.976  12.036   4.491 -0.4015  0.4045  0.4617
   87MOL0     C11656   5.922  11.505   4.409 -0.5304  0.1785 -0.1128
   87MOL0     C11657   5.787  11.502   4.458 -0.1430  0.7349 -0.2752
   87MOL0     O11658   5.511  11.746   4.495 -1.0211  0.2297  0.2306
   87MOL0     C11659   5.290  11.468   4.457 -0.3324  0.7502 -0.5870
   87MOL0     C11660   5.172  11.406   4.505  0.5303 -0.5822 -0.2241
   87MOL0     N11661   4.744  11.330   5.199 -0.0799 -0.4326  0.6553
   87MOL0     N11662   4.741  11.244   5.284  0.3771  0.2835  0.0924
   87MOL0     C11663   4.908  10.575   5.511  0.1539 -0.1256  0.5097
   87MOL0     C11664   5.017  10.560   5.601 -0.1022  0.2643  0.2165
   87MOL0     C11665   5.405  10.498   5.780  0.3597  0.0682  0.8506
   87MOL0     C11666   5.530  10.562   5.760  0.0063  0.5112 -0.6678
   87MOL0     C11667   5.627  10.553   5.863 -0.9410 -0.6077  0.1275
   87MOL0     C11668   5.601  10.496   5.992  0.0464 -0.3854  0.1564
   87MOL0     O11669   5.696  10.506   6.090  0.2092  0.4809 -0.6048
   87MOL0     C11670   5.673  10.497   6.232  0.7700  0.3909 -0.7655
   87MOL0     C11671   5.675  10.353   6.271  0.4286  0.6183  0.0106
   87MOL0     C11672   5.817  10.301   6.233 -0.3915 -0.5702  0.4574
   87MOL0     C11673   5.840  10.160   6.285  0.3546 -0.9718 -0.6583
   87MOL0     C11674   5.748  10.059   6.243 -0.6884 -0.0448  0.5395
   87MOL0     C11675   5.691   9.967   6.197 -0.5405  1.4233  0.4107
   87MOL0     C11676   5.473  10.441   6.010 -0.2001 -0.8432 -0.2848
   87MOL0     C11677   5.376  10.443   5.907  0.1101  0.6502 -0.7307
   87MOL0     H11678   5.104  10.237   5.516 -2.3539 -1.7182 -1.3375
   87MOL0     H11679   4.938  10.282   5.335 -0.4580  1.1519 -0.9693
   87MOL0     H11680   4.893  10.478   5.134  0.0767 -1.3025  0.7044
   87MOL0     H11681   4.794  10.346   5.203  0.7366 -0.4457 -1.1467
   87MOL0     H11682   4.671  10.419   5.026 -2.8724 -0.1840  0.2139
   87MOL0     H11683   4.590  10.447   5.177 -0.0857  1.3223 -0.3586
   87MOL0     H11684   4.732  10.671   5.020 -0.3671 -0.8669 -0.7621
   87MOL0     H11685   4.563  10.631   4.996  0.7306  0.5536 -0.7810
   87MOL0     H11686   4.517  10.668   5.235 -0.2087  1.0143 -0.5941
   87MOL0     H11687   4.683  10.712   5.271 -2.8231 -3.6360  2.8007
   87MOL0     H11688   4.640  10.916   5.114  0.0791 -0.5268 -0.4632
   87MOL0     H11689   4.480  10.868   5.094  0.4277  0.3644 -0.4214
   87MOL0     H11690   4.506  11.043   5.238  2.5719 -0.3420  0.1161
   87MOL0     H11691   4.436  10.912   5.337  0.8986 -2.4964  0.0172
   87MOL0     H11692   4.615  11.051   5.456  1.3438  1.3153 -1.5324
   87MOL0     H11693   4.656  10.877   5.444  3.0077  0.6009  1.8418
   87MOL0     H11694   4.821  10.925   5.269  0.3832 -1.0546  1.0576
   87MOL0     H11695   4.842  11.041   5.399 -2.3871  1.1074  0.9744
   87MOL0     H11696   4.815  11.056   5.032  0.1822 -1.1280  2.6451
   87MOL0     H11697   4.737  11.263   4.868 -0.3574  0.6547  0.1173
   87MOL0     H11698   4.678  11.413   4.943  1.0813  2.6405 -0.7860
   87MOL0     H11699   4.948  11.454   4.986 -1.2815  0.6955 -0.4205
   87MOL0     H11700   4.881  11.498   4.837  0.0190 -2.2081 -2.0330
   87MOL0     H11701   4.984  11.219   4.867  0.2508 -0.3089 -0.9114
   87MOL0     H11702   5.093  11.347   4.837 -0.3017 -0.5125 -0.1708
   87MOL0     H11703   4.864  11.256   4.663  0.6620  1.0424 -1.5251
   87MOL0     H11704   5.043  11.245   4.646  0.7897 -0.2467  3.0673
   87MOL0     H11705   5.054  11.676   4.671  1.4084  3.0359 -1.4044
   87MOL0     H11706   5.282  11.866   4.527  0.1306 -0.6501 -0.8844
   87MOL0     H11707   5.192  11.852   4.682 -1.5595  0.1873 -1.1585
   87MOL0     H11708   5.365  11.817   4.673  1.2937 -0.1761 -2.1802
   87MOL0     H11709   5.637  11.655   4.195 -0.2550  0.8757  0.9069
   87MOL0     H11710   5.865  11.689   4.133  0.1450  2.0404  1.0008
   87MOL0     H11711   6.125  11.653   4.454  1.0702  0.3165  0.4265
   87MOL0     H11712   6.224  11.531   4.364 -1.6750 -1.1099  0.8629
   87MOL0     H11713   6.364  11.695   4.403 -1.0638 -2.6978 -1.7078
   87MOL0     H11714   6.304  11.732   4.231  4.0912 -0.9208 -0.5230
   87MOL0     H11715   6.219  11.871   4.492 -1.0931 -1.0195 -0.3550
   87MOL0     H11716   6.145  11.905   4.348 -0.0167 -0.3614  1.1298
   87MOL0     H11717   6.346  12.013   4.261 -2.4119  2.8181  0.7126
   87MOL0     H11718   6.303  12.066   4.421 -0.2771  0.1674 -1.2713
   87MOL0     H11719   6.504  11.853   4.380  0.3112  1.5265 -2.7215
   87MOL0     H11720   6.464  11.957   4.527  0.3145  0.1764 -0.0331
   87MOL0     H11721   6.605  12.037   4.274  0.5070 -0.5865  0.3599
   87MOL0     H11722   6.540  12.155   4.383 -1.9872 -0.7056  1.4511
   87MOL0     H11723   6.697  11.921   4.502  1.0299 -0.4765 -1.3707
   87MOL0     H11724   6.692  12.084   4.562 -0.4255  1.4776 -0.3335
   87MOL0     H11725   6.838  12.173   4.384  1.1164  0.5544  4.7351
   87MOL0     H11726   6.832  12.028   4.289  1.9646  1.0986  0.0106
   87MOL0     H11727   5.989  11.435   4.458  0.6512  0.0646 -1.7932
   87MOL0     H11728   5.765  11.440   4.544 -4.3944 -0.0045 -1.6666
   87MOL0     H11729   5.346  11.400   4.394  0.0081  1.5622 -1.1726
   87MOL0     H11730   5.146  11.305   4.478  2.1668 -0.8878 -0.7356
   87MOL0     H11731   4.869  10.675   5.501  1.8296  0.3841 -2.0010
   87MOL0     H11732   5.040  10.640   5.672 -0.3446  2.3643 -1.9333
   87MOL0     H11733   5.539  10.635   5.680  1.2773  0.9897 -0.1069
   87MOL0     H11734   5.722  10.601   5.846 -1.0878  0.8912  2.9621
   87MOL0     H11735   5.750  10.559   6.280 -1.8712  1.8542  1.8919
   87MOL0     H11736   5.576  10.538   6.263 -0.7358 -3.3436 -0.0780
   87MOL0     H11737   5.597  10.296   6.218 -2.7485  3.3822  1.3566
   87MOL0     H11738   5.652  10.354   6.378 -1.0847  2.3077 -0.2833
   87MOL0     H11739   5.895  10.363   6.278  0.0223 -1.1214  0.5135
   87MOL0     H11740   5.840  10.300   6.126  0.4512 -1.9077  0.6167
   87MOL0     H11741   5.839  10.167   6.395 -1.9493  3.6066 -0.7376
   87MOL0     H11742   5.937  10.143   6.238  0.9663 -2.9269  1.1404
   87MOL0     H11743   5.640   9.885   6.151 -0.1694  2.9095 -3.0002
   87MOL0     H11744   5.438  10.401   6.105  1.3190  2.2799  1.7189
   87MOL0     H11745   5.278  10.401   5.927  0.5264  0.3934  0.8599
   88MOL0     O11746   0.743   1.698   5.533  0.1427  0.0420 -0.1566
   88MOL0     C11747   0.737   1.823   5.534 -0.0408  0.4971  0.8128
   88MOL0     O11748   0.635   1.897   5.581  0.0017 -0.4794  0.0629
   88MOL0     C11749   0.514   1.842   5.600 -0.2939  0.2016 -0.7041
   88MOL0     C11750   0.411   1.843   5.509 -0.3274  0.4427 -0.0285
   88MOL0     C11751   0.298   1.776   5.534  0.1890  0.2587 -0.3011
   88MOL0     C11752   0.272   1.699   5.657 -0.3411 -0.4514  0.2228
   88MOL0     O11753   0.169   1.621   5.671  0.2775 -0.7944  0.6113
   88MOL0     C11754   0.184   1.486   5.724  0.5060 -0.5841 -0.1607
   88MOL0     C11755   0.073   1.390   5.677 -0.1729 -0.7805  0.0679
   88MOL0     C11756  -0.057   1.467   5.654 -0.3578  0.0344  0.1014
   88MOL0     C11757  -0.170   1.376   5.603  0.4753  0.2283 -0.2255
   88MOL0     C11758  -0.298   1.455   5.588 -0.8001  0.1268 -0.4192
   88MOL0     C11759  -0.410   1.354   5.538 -0.4754  0.8301 -0.5575
   88MOL0     C11760  -0.549   1.420   5.554 -0.3487 -0.9609  0.5625
   88MOL0     C11761  -0.669   1.339   5.495  0.0506 -0.3264 -0.3933
   88MOL0     N11762  -0.642   1.315   5.346 -0.7220 -0.4824  0.4653
   88MOL0     C11763  -0.696   1.410   5.258 -0.9563 -0.2802 -0.1440
   88MOL0     C11764  -0.654   1.374   5.136 -0.8128  0.6499 -0.4551
   88MOL0     C11765  -0.676   1.461   5.017 -0.3885 -0.1912  0.1714
   88MOL0     C11766  -0.815   1.453   4.975  1.1872  1.0443  0.3810
   88MOL0     C11767  -0.854   1.321   4.890 -0.7622 -0.1974 -0.8576
   88MOL0     C11768  -0.997   1.277   4.913 -0.3294 -0.7444 -0.1005
   88MOL0     O11769  -1.082   1.328   4.812  0.7628  0.7815  0.8770
   88MOL0     C11770  -1.215   1.299   4.821 -0.8416  0.5436  0.2181
   88MOL0     C11771  -1.270   1.189   4.901  0.9168  0.2684 -0.5303
   88MOL0     C11772  -1.402   1.156   4.897  0.1153 -0.1196 -0.5643
   88MOL0     C11773  -1.449   1.044   4.989 -0.5303  0.1594  0.0856
   88MOL0     C11774  -1.491   1.222   4.803 -0.2276 -0.3130  0.1959
   88MOL0     C11775  -1.636   1.206   4.781 -0.1535  0.0705 -0.3839
   88MOL0     O11776  -1.687   1.268   4.672  0.9339  0.0568  0.4317
   88MOL0     C11777  -1.815   1.310   4.689 -0.9810  0.3760 -0.0424
   88MOL0     C11778  -1.924   1.224   4.708  0.4076  1.0664  0.8147
   88MOL0     C11779  -2.047   1.287   4.725 -0.5502 -0.1448  0.4095
   88MOL0     C11780  -2.063   1.428   4.704  0.7939  0.1707  0.6868
   88MOL0     O11781  -2.176   1.502   4.703  0.1480  0.4594 -0.0574
   88MOL0     C11782  -2.271   1.436   4.800 -0.5978 -0.3342  0.8961
   88MOL0     C11783  -2.402   1.521   4.807 -1.0128  0.1774  0.1040
   88MOL0     C11784  -2.386   1.650   4.876  0.4763  0.0230  0.3016
   88MOL0     C11785  -2.481   1.760   4.832 -0.8821 -0.4659 -0.7930
   88MOL0     C11786  -2.479   1.875   4.936  0.5064 -0.3888  0.2846
   88MOL0     C11787  -2.560   1.995   4.890 -0.4110 -0.6855 -0.5321
   88MOL0     C11788  -2.548   2.120   4.980 -0.5673 -0.2324  0.7192
   88MOL0     C11789  -2.583   2.250   4.903 -0.4496 -0.6650 -0.6396
   88MOL0    Cl11790  -2.767   2.262   4.887 -0.3444  0.4018  0.2577
   88MOL0     C11791  -1.951   1.504   4.677  0.3404  0.5099  0.3711
   88MOL0     C11792  -1.827   1.450   4.678 -0.9499  0.5604  0.7336
   88MOL0     O11793  -1.703   1.148   4.876 -1.0127  0.3370  0.1672
   88MOL0     C11794  -1.434   1.333   4.728 -0.7095 -0.7149  0.4843
   88MOL0     C11795  -1.297   1.369   4.731 -0.0170 -0.0911 -0.3684
   88MOL0     N11796  -0.576   1.263   5.145 -0.0374  0.0499 -0.1323
   88MOL0     N11797  -0.580   1.226   5.273 -0.8951  0.3621  0.2643
   88MOL0     C11798   0.371   1.706   5.756  0.1568  0.4789 -0.0428
   88MOL0     C11799   0.495   1.773   5.722  0.5371 -0.3931 -0.2263
   88MOL0     C11800   0.859   1.901   5.491 -0.7685 -0.1812 -0.2969
   88MOL0     C11801   0.869   2.042   5.467 -0.8734  0.7897 -0.2114
   88MOL0     C11802   0.993   2.095   5.433 -0.6050  0.3272 -0.6698
   88MOL0     C11803   1.107   2.023   5.416  0.8097  0.2959 -0.3144
   88MOL0     O11804   1.214   2.096   5.383  0.5914 -0.5781 -0.7444
   88MOL0     C11805   1.335   2.039   5.317 -0.4390 -0.0693  0.7465
   88MOL0     C11806   1.321   2.008   5.172 -0.2245  0.6504  0.4118
   88MOL0     C11807   1.322   2.128   5.076 -0.1429  0.6771  1.6179
   88MOL0     C11808   1.315   2.072   4.931  0.1505  0.6311  0.1903
   88MOL0     C11809   1.342   2.170   4.829  0.8465 -0.9597 -0.0988
   88MOL0     C11810   1.388   2.259   4.746  0.1408 -0.1924 -1.4354
   88MOL0     C11811   1.104   1.886   5.435  1.0402  0.0365 -0.2044
   88MOL0     C11812   0.977   1.826   5.480  0.3602 -0.8118 -0.0106
   88MOL0     H11813   0.426   1.899   5.417 -2.1252 -0.5181 -0.9735
   88MOL0     H11814   0.222   1.778   5.457  0.5223 -2.1194 -0.7673
   88MOL0     H11815   0.281   1.445   5.694  0.0273 -2.1194  0.3009
   88MOL0     H11816   0.181   1.509   5.831 -3.5931  3.0170 -0.7280
   88MOL0     H11817   0.101   1.351   5.579 -1.6762  3.1587 -2.1978
   88MOL0     H11818   0.057   1.303   5.741 -0.0992  0.9387  2.5415
   88MOL0     H11819  -0.081   1.527   5.742  1.6333 -0.3348  0.9290
   88MOL0     H11820  -0.036   1.531   5.567  0.2338 -0.4725 -0.1332
   88MOL0     H11821  -0.151   1.342   5.501 -0.1443 -0.4999 -0.1078
   88MOL0     H11822  -0.181   1.292   5.673  1.3945 -0.4851 -0.9042
   88MOL0     H11823  -0.325   1.507   5.680 -1.6979  0.6052 -0.9388
   88MOL0     H11824  -0.265   1.530   5.516  4.4616 -1.1113  0.3446
   88MOL0     H11825  -0.386   1.318   5.437  1.5742 -3.9776  1.3047
   88MOL0     H11826  -0.411   1.262   5.598 -3.2223  0.4435 -1.0376
   88MOL0     H11827  -0.553   1.431   5.663  1.4895  1.4131  0.4567
   88MOL0     H11828  -0.548   1.524   5.521  0.8580 -0.4987  1.9839
   88MOL0     H11829  -0.766   1.390   5.493 -0.7656 -1.8187 -2.8637
   88MOL0     H11830  -0.653   1.251   5.558  3.3963  0.5218  0.1304
   88MOL0     H11831  -0.758   1.498   5.273 -1.1612  0.4752 -4.1685
   88MOL0     H11832  -0.650   1.567   5.023  1.4362 -0.2431 -3.5432
   88MOL0     H11833  -0.616   1.431   4.931  1.7612  0.3026  1.4367
   88MOL0     H11834  -0.843   1.544   4.921  1.9925  0.8389 -0.4061
   88MOL0     H11835  -0.888   1.457   5.057  1.6204 -0.5395  0.8920
   88MOL0     H11836  -0.793   1.237   4.923 -0.6860 -0.2332 -1.0943
   88MOL0     H11837  -0.845   1.339   4.783  0.2189 -1.3332 -0.9766
   88MOL0     H11838  -1.033   1.303   5.013 -1.0479 -4.5714  0.7882
   88MOL0     H11839  -0.998   1.168   4.915 -2.4309 -0.7651  1.1418
   88MOL0     H11840  -1.212   1.140   4.979 -0.1303  0.8156  0.6369
   88MOL0     H11841  -1.375   0.964   4.993 -0.1457  0.5256  0.4255
   88MOL0     H11842  -1.470   1.097   5.083  0.4234  1.2649 -0.3056
   88MOL0     H11843  -1.544   1.007   4.949 -1.4857  0.1196  2.2127
   88MOL0     H11844  -1.910   1.117   4.717 -1.2033  0.4223 -2.6873
   88MOL0     H11845  -2.128   1.215   4.731 -0.4596 -0.2963 -0.1409
   88MOL0     H11846  -2.301   1.338   4.763  3.1247 -0.0016 -4.0268
   88MOL0     H11847  -2.223   1.435   4.898 -0.5013  0.3904  0.8655
   88MOL0     H11848  -2.433   1.552   4.707 -1.2063 -1.7366 -0.4795
   88MOL0     H11849  -2.472   1.459   4.863  1.5067 -2.2752  0.8025
   88MOL0     H11850  -2.284   1.687   4.862 -0.2188  1.3071 -1.8367
   88MOL0     H11851  -2.400   1.643   4.984 -1.4397  0.2032  0.0903
   88MOL0     H11852  -2.442   1.808   4.742  2.5036  0.5357  1.0014
   88MOL0     H11853  -2.576   1.713   4.808  1.4062 -3.8003 -4.5930
   88MOL0     H11854  -2.378   1.907   4.962  0.0176  0.9897  0.6145
   88MOL0     H11855  -2.523   1.836   5.029  0.0485  0.7055  0.5502
   88MOL0     H11856  -2.514   2.016   4.793  0.9295 -0.0693  0.2211
   88MOL0     H11857  -2.669   1.983   4.883 -0.4607 -0.7710  0.3409
   88MOL0     H11858  -2.443   2.144   5.001 -0.5600 -0.3818  0.8617
   88MOL0     H11859  -2.607   2.115   5.072  0.7421 -1.3226  1.5361
   88MOL0     H11860  -2.542   2.266   4.803  0.9618 -0.4024 -0.0381
   88MOL0     H11861  -2.546   2.334   4.962 -0.5264 -1.3739  0.4345
   88MOL0     H11862  -1.980   1.608   4.665 -3.4704 -0.1130  2.5626
   88MOL0     H11863  -1.741   1.515   4.670  0.7427 -1.5918  0.4852
   88MOL0     H11864  -1.503   1.388   4.665 -2.1565 -1.6281  1.2243
   88MOL0     H11865  -1.248   1.443   4.668 -0.1658  0.8129  0.5586
   88MOL0     H11866   0.357   1.652   5.849  1.6829 -1.3813 -0.8247
   88MOL0     H11867   0.565   1.788   5.804  3.0502 -0.7556 -2.1668
   88MOL0     H11868   0.773   2.093   5.473 -0.0607  2.3059  0.3778
   88MOL0     H11869   1.000   2.201   5.414  0.5291 -0.0928 -3.0127
   88MOL0     H11870   1.412   2.114   5.336  1.4585 -1.7686  0.0325
   88MOL0     H11871   1.359   1.942   5.361  2.9968  1.1626  1.9096
   88MOL0     H11872   1.231   1.946   5.164  0.8951 -0.9277 -0.6657
   88MOL0     H11873   1.399   1.936   5.144  0.0493 -0.2748  3.2331
   88MOL0     H11874   1.410   2.188   5.104 -0.3951  0.7301  2.3301
   88MOL0     H11875   1.245   2.200   5.105 -2.3682 -0.1070 -1.8227
   88MOL0     H11876   1.215   2.029   4.919  0.6757 -0.0261 -2.2229
   88MOL0     H11877   1.382   1.987   4.917 -1.4438 -0.7537  0.5943
   88MOL0     H11878   1.441   2.326   4.681  1.1675 -2.3815 -2.9711
   88MOL0     H11879   1.195   1.828   5.444  2.5580  2.2745 -0.2962
   88MOL0     H11880   0.976   1.721   5.508  0.5967 -0.9508 -0.4996
   89MOL0     O11881   2.954   3.873   3.314  1.0447 -0.2588 -0.0556
   89MOL0     C11882   3.074   3.899   3.319  1.1286 -0.0330  0.2767
   89MOL0     O11883   3.165   3.828   3.387  0.2485  0.2298  0.1038
   89MOL0     C11884   3.142   3.727   3.479  0.1341 -0.2527  0.6623
   89MOL0     C11885   3.213   3.731   3.592  0.6150 -0.4129 -0.3275
   89MOL0     C11886   3.201   3.631   3.686 -0.2657 -0.3526  0.2852
   89MOL0     C11887   3.111   3.524   3.673 -0.4619 -0.8940  0.5753
   89MOL0     O11888   3.103   3.429   3.776 -0.8252  0.0446 -0.2521
   89MOL0     C11889   3.028   3.313   3.748  0.1260  0.1170  0.5493
   89MOL0     C11890   3.068   3.204   3.854  0.1007  0.0675  0.3626
   89MOL0     C11891   2.970   3.085   3.874  0.0590  0.1626 -0.0153
   89MOL0     C11892   2.924   3.028   3.745 -0.3603 -0.0579 -0.5102
   89MOL0     C11893   2.816   2.922   3.773 -0.3504  0.5058  0.3118
   89MOL0     C11894   2.669   2.976   3.777  0.0867  0.3059  0.1021
   89MOL0     C11895   2.563   2.862   3.785  0.2848  0.3773 -0.0776
   89MOL0     C11896   2.586   2.780   3.922  0.4684  0.8393  1.4045
   89MOL0     N11897   2.579   2.868   4.034  0.5093 -0.1595 -0.7117
   89MOL0     C11898   2.689   2.911   4.101 -0.0771  0.5854 -0.2162
   89MOL0     C11899   2.642   2.948   4.223 -0.5302  1.1237 -0.1211
   89MOL0     C11900   2.716   3.006   4.344  0.2365  0.1908  0.8928
   89MOL0     C11901   2.786   3.145   4.312 -0.9013  0.0293  0.5369
   89MOL0     C11902   2.825   3.228   4.432  0.0378  0.3617  0.1596
   89MOL0     C11903   2.899   3.160   4.554  1.4896 -0.4093 -0.8575
   89MOL0     O11904   2.796   3.078   4.616 -0.8225 -0.0666 -0.1850
   89MOL0     C11905   2.724   3.122   4.723 -0.6848  0.3697  0.7431
   89MOL0     C11906   2.641   3.025   4.778 -0.9119  0.3762 -1.0240
   89MOL0     C11907   2.555   3.057   4.882 -0.0116  0.5344 -0.3097
   89MOL0     C11908   2.467   2.941   4.938  0.0067 -0.4205  1.2173
   89MOL0     C11909   2.552   3.186   4.936 -0.0471  0.0714 -0.2269
   89MOL0     C11910   2.453   3.229   5.037  0.6263  0.1880  0.1277
   89MOL0     O11911   2.443   3.368   5.058  0.7027 -0.4683 -0.9203
   89MOL0     C11912   2.330   3.410   5.133 -0.5851  0.6355 -0.4123
   89MOL0     C11913   2.204   3.418   5.079  0.1541 -0.1756  0.0476
   89MOL0     C11914   2.097   3.462   5.152 -0.4566 -0.7383  0.2518
   89MOL0     C11915   2.114   3.476   5.287 -0.5846  0.3376 -0.3544
   89MOL0     O11916   2.000   3.513   5.350  0.5178  0.5216 -0.2633
   89MOL0     C11917   1.981   3.464   5.482  0.5575 -0.1413 -0.2109
   89MOL0     C11918   1.889   3.559   5.556 -0.3064 -0.3499 -0.0182
   89MOL0     C11919   1.865   3.505   5.696  0.3308  0.6842 -0.1082
   89MOL0     C11920   1.753   3.571   5.764  0.1847  0.1212 -0.7939
   89MOL0     C11921   1.742   3.497   5.893  0.7699  0.1168 -0.0729
   89MOL0     C11922   1.614   3.547   5.962 -0.0164 -0.9891 -0.1818
   89MOL0     C11923   1.622   3.508   6.108 -0.5517  0.3498  0.3881
   89MOL0     C11924   1.508   3.551   6.199  0.0086 -0.3561 -0.7034
   89MOL0    Cl11925   1.367   3.455   6.154 -0.4761  0.2940  0.7167
   89MOL0     C11926   2.237   3.453   5.343 -1.2251 -0.2889 -0.4620
   89MOL0     C11927   2.351   3.431   5.267  0.0046  0.5360 -1.0127
   89MOL0     O11928   2.393   3.150   5.097  0.0398  0.1486 -0.3328
   89MOL0     C11929   2.642   3.278   4.891  0.1298 -0.0498  0.1361
   89MOL0     C11930   2.727   3.249   4.781  0.3190 -0.2221 -0.1658
   89MOL0     N11931   2.502   2.947   4.220  0.3173  0.2105 -0.5099
   89MOL0     N11932   2.467   2.889   4.112  0.0684 -0.3017  0.5428
   89MOL0     C11933   3.034   3.525   3.556  0.5877 -0.5580 -0.6616
   89MOL0     C11934   3.047   3.628   3.458 -0.2883  0.1257 -0.3133
   89MOL0     C11935   3.129   4.014   3.239 -0.7377 -0.7642 -0.0341
   89MOL0     C11936   3.051   4.082   3.141  0.5735 -0.3247  0.1718
   89MOL0     C11937   3.096   4.196   3.074 -0.4422  0.1457 -0.6613
   89MOL0     C11938   3.233   4.242   3.096 -0.6484 -0.4934  0.1836
   89MOL0     O11939   3.287   4.347   3.024  0.0214 -0.1724  0.0632
   89MOL0     C11940   3.424   4.389   3.037 -0.1362  0.0756  0.1113
   89MOL0     C11941   3.520   4.290   2.969 -0.0303 -0.5729  0.2665
   89MOL0     C11942   3.668   4.327   3.003 -0.4056  0.3250 -0.0262
   89MOL0     C11943   3.775   4.247   2.924  0.4792 -0.2206 -0.4620
   89MOL0     C11944   3.788   4.103   2.959  0.3586  0.1771  0.2558
   89MOL0     C11945   3.801   3.988   2.985  0.0880 -0.2267  0.4086
   89MOL0     C11946   3.305   4.180   3.196 -0.1158  0.2847 -0.4882
   89MOL0     C11947   3.256   4.067   3.266 -0.5973  0.0595  0.6145
   89MOL0     H11948   3.283   3.806   3.627 -0.0104 -1.0945  2.6628
   89MOL0     H11949   3.266   3.638   3.773 -1.4784  1.1885  1.1252
   89MOL0     H11950   2.919   3.329   3.750  0.4643  3.4511 -1.1893
   89MOL0     H11951   3.054   3.269   3.652 -4.7467  1.4610 -1.6958
   89MOL0     H11952   3.163   3.156   3.829 -0.7947 -0.5930 -2.0501
   89MOL0     H11953   3.084   3.257   3.949 -1.9222  0.6964  0.4005
   89MOL0     H11954   3.012   3.007   3.938 -0.0149  0.9992  1.0979
   89MOL0     H11955   2.883   3.119   3.930 -0.5242 -0.4496 -0.5400
   89MOL0     H11956   2.870   3.107   3.692  0.5069 -0.2409 -1.7249
   89MOL0     H11957   2.990   2.982   3.670 -2.9113 -4.3639 -0.4977
   89MOL0     H11958   2.804   2.850   3.691 -0.0309  0.3503  0.4002
   89MOL0     H11959   2.850   2.864   3.860 -1.8398  0.5696  0.9721
   89MOL0     H11960   2.656   3.053   3.854  3.2998  2.5324 -1.3754
   89MOL0     H11961   2.656   3.025   3.680  3.2434 -2.6178 -2.0380
   89MOL0     H11962   2.460   2.899   3.791 -0.3154 -1.3910  2.1178
   89MOL0     H11963   2.576   2.799   3.696 -2.5525  1.8705 -1.6710
   89MOL0     H11964   2.680   2.725   3.911  0.4838  1.3663 -2.7456
   89MOL0     H11965   2.507   2.705   3.930  1.9308 -0.7558  1.3995
   89MOL0     H11966   2.792   2.899   4.071 -0.4416 -0.2027 -1.2107
   89MOL0     H11967   2.642   3.018   4.424 -0.0503 -1.8439  0.9849
   89MOL0     H11968   2.797   2.937   4.372 -2.0192 -3.8761 -1.5301
   89MOL0     H11969   2.724   3.206   4.246  0.7467 -0.3904 -1.5362
   89MOL0     H11970   2.876   3.117   4.256 -1.2035 -0.9074  0.4973
   89MOL0     H11971   2.741   3.281   4.477 -0.5665 -1.0143  0.7244
   89MOL0     H11972   2.902   3.289   4.385  2.7147 -1.5316  1.8138
   89MOL0     H11973   2.948   3.235   4.616  1.8807  0.7786 -2.5317
   89MOL0     H11974   2.975   3.089   4.519  2.0322 -1.2814  1.9020
   89MOL0     H11975   2.644   2.925   4.737  1.4357  0.1709 -0.5268
   89MOL0     H11976   2.487   2.852   4.877 -0.4895  0.1707  0.1692
   89MOL0     H11977   2.480   2.915   5.043  0.9807 -1.0326  0.9596
   89MOL0     H11978   2.361   2.965   4.925 -0.6927 -2.4347  2.7376
   89MOL0     H11979   2.194   3.402   4.972 -1.2598 -2.8986  0.5073
   89MOL0     H11980   2.009   3.494   5.096  0.4115 -2.4754 -2.3114
   89MOL0     H11981   1.948   3.360   5.476 -1.6436  0.4802  0.0924
   89MOL0     H11982   2.075   3.456   5.538 -0.6996 -2.7612  1.7529
   89MOL0     H11983   1.931   3.660   5.567 -1.6402  0.3787 -1.2761
   89MOL0     H11984   1.793   3.568   5.506  0.0258  1.6872 -0.3732
   89MOL0     H11985   1.961   3.512   5.747 -0.3834  1.0378  1.2441
   89MOL0     H11986   1.834   3.400   5.687 -3.5051  1.7380 -1.2614
   89MOL0     H11987   1.781   3.673   5.791 -1.7795 -0.2169  3.3039
   89MOL0     H11988   1.667   3.553   5.698  1.4679 -3.7111 -1.7027
   89MOL0     H11989   1.828   3.524   5.954 -0.0213 -0.1849  1.2222
   89MOL0     H11990   1.742   3.388   5.894 -0.2389  0.0836  1.8656
   89MOL0     H11991   1.598   3.655   5.959  0.7233 -0.8952 -1.3108
   89MOL0     H11992   1.530   3.500   5.909 -1.3921  0.5165  0.5637
   89MOL0     H11993   1.715   3.551   6.145  0.5153  1.2625 -2.9668
   89MOL0     H11994   1.633   3.399   6.120  1.5738 -0.1961 -4.2780
   89MOL0     H11995   1.480   3.655   6.178 -1.2485 -1.0513 -2.7979
   89MOL0     H11996   1.529   3.525   6.303 -3.1204 -2.3488 -0.4024
   89MOL0     H11997   2.261   3.473   5.447 -3.3509  0.8086 -0.1368
   89MOL0     H11998   2.446   3.408   5.313 -1.9035 -0.9787  2.5954
   89MOL0     H11999   2.655   3.381   4.924  2.2952 -0.7912  1.8201
   89MOL0     H12000   2.796   3.327   4.751  2.9977 -1.7473  1.5550
   89MOL0     H12001   2.960   3.452   3.525  2.0682 -0.8411 -3.9847
   89MOL0     H12002   3.007   3.630   3.357  1.5686  0.3431 -1.1026
   89MOL0     H12003   2.950   4.046   3.120  0.9374 -0.3784 -1.6118
   89MOL0     H12004   3.035   4.237   2.994 -1.4845 -0.8868 -0.4056
   89MOL0     H12005   3.429   4.487   2.990  0.3408  0.0718  0.1449
   89MOL0     H12006   3.453   4.397   3.143  0.8388 -3.2649  0.2274
   89MOL0     H12007   3.500   4.313   2.863 -1.4256  1.5671  0.9169
   89MOL0     H12008   3.502   4.184   2.987  0.5731 -0.8923 -0.9156
   89MOL0     H12009   3.698   4.326   3.108  0.0172  0.6321 -0.1409
   89MOL0     H12010   3.681   4.429   2.966  0.3776 -0.2346 -1.4062
   89MOL0     H12011   3.866   4.306   2.935  0.7653 -0.6444 -0.5597
   89MOL0     H12012   3.741   4.261   2.821  0.3074  0.9767 -0.2623
   89MOL0     H12013   3.803   3.883   3.007 -0.7811 -0.5323 -0.8713
   89MOL0     H12014   3.403   4.210   3.232  0.6376 -1.8016 -0.6727
   89MOL0     H12015   3.325   4.020   3.335  0.4512 -2.1122 -1.7422
   90MOL0     O12016   2.015   8.443   0.090 -0.4528 -0.3312  0.0266
   90MOL0     C12017   2.013   8.343   0.018  0.1020 -0.8670 -1.1188
   90MOL0     O12018   1.911   8.309  -0.067 -0.4292 -0.1369 -0.4768
   90MOL0     C12019   1.779   8.307  -0.023 -0.4200 -0.3262 -0.5913
   90MOL0     C12020   1.684   8.332  -0.118 -0.8079  0.5813 -0.2533
   90MOL0     C12021   1.548   8.321  -0.091 -1.2711 -0.1530  0.5554
   90MOL0     C12022   1.506   8.307   0.045 -0.2105  0.4531  1.1521
   90MOL0     O12023   1.383   8.323   0.088  1.0250 -0.4661 -0.3616
   90MOL0     C12024   1.291   8.383  -0.003  0.6319  0.3230  0.5935
   90MOL0     C12025   1.153   8.402   0.071 -0.4500 -0.4667  0.0309
   90MOL0     C12026   1.043   8.431  -0.024 -0.6565 -0.2306 -0.1011
   90MOL0     C12027   0.917   8.458   0.053  0.5367 -0.6312  0.5280
   90MOL0     C12028   0.816   8.524  -0.043  0.8605  0.0254 -0.2414
   90MOL0     C12029   0.666   8.514  -0.001  0.5669 -0.8773  0.0402
   90MOL0     C12030   0.572   8.560  -0.107  0.8434 -0.7381  1.0476
   90MOL0     C12031   0.573   8.470  -0.233  0.2026 -0.7884  0.1046
   90MOL0     N12032   0.472   8.486  -0.331 -0.2696  0.2554 -0.3918
   90MOL0     C12033   0.478   8.553  -0.451  0.6462 -0.5628  0.1692
   90MOL0     C12034   0.360   8.527  -0.520 -0.1004 -0.4452 -0.7651
   90MOL0     C12035   0.326   8.590  -0.654  0.0340 -0.0258  0.3722
   90MOL0     C12036   0.170   8.587  -0.691  0.0219 -0.5766  0.7636
   90MOL0     C12037   0.149   8.610  -0.844 -0.2556 -0.2622  0.3571
   90MOL0     C12038   0.005   8.618  -0.877 -0.8314  0.1236 -0.3451
   90MOL0     O12039  -0.064   8.714  -0.791  0.0598 -0.2319 -0.4004
   90MOL0     C12040  -0.192   8.752  -0.827  1.1277 -1.2964 -0.1308
   90MOL0     C12041  -0.279   8.693  -0.928 -0.2252 -0.8886  0.1990
   90MOL0     C12042  -0.412   8.741  -0.936  0.1696  0.9174 -0.2127
   90MOL0     C12043  -0.497   8.667  -1.035 -1.0122 -0.0513  0.1862
   90MOL0     C12044  -0.454   8.844  -0.851  0.1767 -0.0757 -0.0814
   90MOL0     C12045  -0.592   8.893  -0.859 -0.3678  0.3284 -1.0804
   90MOL0     O12046  -0.691   8.812  -0.818  0.1365 -0.5235 -0.3273
   90MOL0     C12047  -0.817   8.866  -0.838 -0.3217 -0.6784  0.0170
   90MOL0     C12048  -0.870   8.946  -0.738  0.6223 -0.0586 -0.6300
   90MOL0     C12049  -0.988   9.019  -0.760 -0.6733  0.8413  0.1393
   90MOL0     C12050  -1.063   8.993  -0.870 -0.4696  0.4416 -0.0321
   90MOL0     O12051  -1.173   9.071  -0.876 -0.0363 -0.3613  0.2951
   90MOL0     C12052  -1.254   9.062  -0.998 -0.5704 -0.5233  0.3304
   90MOL0     C12053  -1.348   9.178  -0.990  0.0371  0.7212 -0.1207
   90MOL0     C12054  -1.440   9.192  -1.119  1.0948 -1.0532  0.3655
   90MOL0     C12055  -1.541   9.303  -1.115  0.3280  0.3912 -0.4860
   90MOL0     C12056  -1.488   9.440  -1.146 -0.3498  0.1766  0.1084
   90MOL0     C12057  -1.598   9.543  -1.116  0.5686  0.3161  0.1638
   90MOL0     C12058  -1.598   9.577  -0.968  0.1277  0.5954 -0.4472
   90MOL0     C12059  -1.705   9.681  -0.938  0.5896  0.7202  0.9280
   90MOL0    Cl12060  -1.873   9.643  -0.995 -0.1380 -0.3757  0.5451
   90MOL0     C12061  -1.020   8.902  -0.967 -0.7098 -0.4907 -0.0522
   90MOL0     C12062  -0.896   8.841  -0.954  0.6259 -0.7046 -0.2538
   90MOL0     O12063  -0.607   9.012  -0.887 -0.5569  1.2726  0.3413
   90MOL0     C12064  -0.367   8.909  -0.760 -0.3129 -0.2593  0.3035
   90MOL0     C12065  -0.241   8.862  -0.755  0.2097 -0.0927 -1.0005
   90MOL0     N12066   0.284   8.450  -0.437  0.2054  0.8412 -0.2022
   90MOL0     N12067   0.352   8.416  -0.329 -0.1714 -0.5432  0.6649
   90MOL0     C12068   1.604   8.276   0.135 -0.0620  0.9243 -0.4389
   90MOL0     C12069   1.743   8.272   0.108  0.1904  0.4982 -0.2841
   90MOL0     C12070   2.134   8.266  -0.014 -0.8914 -0.2482 -0.3587
   90MOL0     C12071   2.259   8.300   0.049  0.8072  0.2009 -0.0853
   90MOL0     C12072   2.372   8.229  -0.005  0.3534 -0.0625 -1.2037
   90MOL0     C12073   2.360   8.126  -0.099 -0.7199 -0.4185  1.1606
   90MOL0     O12074   2.461   8.054  -0.147 -0.3162 -0.4493  0.3857
   90MOL0     C12075   2.581   8.122  -0.183 -0.1682  0.6708  0.9345
   90MOL0     C12076   2.569   8.200  -0.310  0.1491  0.2067  0.3910
   90MOL0     C12077   2.633   8.334  -0.299 -0.3130  0.4978 -0.2677
   90MOL0     C12078   2.679   8.381  -0.432 -1.1541  0.6421  1.1915
   90MOL0     C12079   2.795   8.296  -0.490  0.3904  0.3843 -0.2580
   90MOL0     C12080   2.888   8.222  -0.521  0.4037  0.7066  0.4439
   90MOL0     C12081   2.240   8.078  -0.141 -0.3871  0.3016 -0.4284
   90MOL0     C12082   2.128   8.150  -0.099  0.2352  1.2485  0.2444
   90MOL0     H12083   1.731   8.356  -0.213  1.0835  2.4919  1.0620
   90MOL0     H12084   1.484   8.354  -0.172 -0.0501  0.0547 -0.3534
   90MOL0     H12085   1.323   8.482  -0.036  2.0689  0.3006  1.8576
   90MOL0     H12086   1.286   8.307  -0.081  0.6640 -0.0027  0.9090
   90MOL0     H12087   1.126   8.305   0.113 -2.3092 -1.1769 -2.5554
   90MOL0     H12088   1.155   8.474   0.153 -2.8829 -0.0165 -0.2341
   90MOL0     H12089   1.067   8.517  -0.086 -0.9894  0.4213  0.6594
   90MOL0     H12090   1.018   8.353  -0.096  0.0185  1.3168 -2.0796
   90MOL0     H12091   0.883   8.362   0.093 -1.9587 -0.9366 -1.9572
   90MOL0     H12092   0.926   8.538   0.127 -1.3243  2.3361 -2.1589
   90MOL0     H12093   0.850   8.628  -0.046  2.7781 -0.4672  1.8605
   90MOL0     H12094   0.821   8.484  -0.145 -0.0267 -0.2565 -0.1812
   90MOL0     H12095   0.633   8.413   0.026  0.4104 -0.7632  0.2808
   90MOL0     H12096   0.646   8.575   0.088  2.5127 -2.1411  1.4246
   90MOL0     H12097   0.470   8.555  -0.068  0.4613 -1.3547  0.0400
   90MOL0     H12098   0.591   8.666  -0.125  1.7834 -0.8316  1.4395
   90MOL0     H12099   0.560   8.369  -0.194  2.3733 -0.4836  1.8403
   90MOL0     H12100   0.667   8.482  -0.288  0.3067  1.7367  0.6993
   90MOL0     H12101   0.559   8.610  -0.496  1.1107 -0.9858  0.4579
   90MOL0     H12102   0.368   8.691  -0.658  0.2623 -0.1519 -0.5039
   90MOL0     H12103   0.397   8.548  -0.726 -2.0925  1.1142 -2.6042
   90MOL0     H12104   0.118   8.659  -0.629  0.2308 -0.6708  1.0509
   90MOL0     H12105   0.134   8.487  -0.665  2.6198 -1.5382  0.9974
   90MOL0     H12106   0.193   8.533  -0.907  0.4373 -0.3256  0.9089
   90MOL0     H12107   0.202   8.701  -0.875 -1.1620 -0.8400 -3.3045
   90MOL0     H12108  -0.041   8.522  -0.853 -1.6853  0.5964 -0.0377
   90MOL0     H12109   0.002   8.644  -0.983  1.1825  2.5140  0.0740
   90MOL0     H12110  -0.250   8.616  -0.999 -2.5324 -2.3689  0.7421
   90MOL0     H12111  -0.603   8.656  -1.009 -0.7718 -0.6830  0.9047
   90MOL0     H12112  -0.486   8.717  -1.132 -2.1792 -0.0592  0.0308
   90MOL0     H12113  -0.452   8.569  -1.051  1.7233  1.4773 -2.4816
   90MOL0     H12114  -0.804   8.970  -0.655  2.4407  0.0981 -2.0626
   90MOL0     H12115  -1.042   9.080  -0.688  0.7579  0.9906  1.1163
   90MOL0     H12116  -1.204   9.077  -1.094  0.7920 -2.1578  0.7314
   90MOL0     H12117  -1.304   8.964  -0.996 -4.8412  1.4696  0.9268
   90MOL0     H12118  -1.408   9.149  -0.903  0.9239 -0.7306  0.0273
   90MOL0     H12119  -1.293   9.267  -0.959  0.1595  0.3719  0.7060
   90MOL0     H12120  -1.495   9.098  -1.128  0.7086 -0.7258 -0.9133
   90MOL0     H12121  -1.384   9.204  -1.211  1.2765  2.0015  0.7679
   90MOL0     H12122  -1.610   9.274  -1.195  2.1745 -1.8609 -1.4034
   90MOL0     H12123  -1.587   9.301  -1.016  2.5458 -2.1222  0.6251
   90MOL0     H12124  -1.469   9.458  -1.252  2.4819  1.0483  0.6799
   90MOL0     H12125  -1.394   9.458  -1.093 -0.6153 -1.2956  1.1439
   90MOL0     H12126  -1.580   9.636  -1.171 -3.3474  1.2812  0.2087
   90MOL0     H12127  -1.695   9.498  -1.136  1.4723 -1.7655  0.2320
   90MOL0     H12128  -1.499   9.618  -0.949  0.3528 -0.7305  1.6564
   90MOL0     H12129  -1.620   9.485  -0.912 -0.9531 -0.6233 -2.6945
   90MOL0     H12130  -1.681   9.776  -0.986  0.6737  0.8444  1.2095
   90MOL0     H12131  -1.704   9.703  -0.830  0.0935  4.1293  0.3544
   90MOL0     H12132  -1.078   8.868  -1.052  1.1719 -2.5800 -0.6162
   90MOL0     H12133  -0.851   8.779  -1.031  2.6941 -0.2692  0.5287
   90MOL0     H12134  -0.386   9.001  -0.705  1.8080 -0.4767  1.5182
   90MOL0     H12135  -0.170   8.906  -0.686  0.6431 -0.7731 -1.0038
   90MOL0     H12136   1.573   8.271   0.239 -1.9400 -1.9031 -1.0380
   90MOL0     H12137   1.806   8.231   0.186  0.5229  0.1502 -0.7315
   90MOL0     H12138   2.267   8.380   0.122 -0.6625  1.2529 -1.0375
   90MOL0     H12139   2.469   8.241   0.042 -0.7701 -1.3162  1.6094
   90MOL0     H12140   2.610   8.188  -0.100 -2.3947 -0.3456  2.6174
   90MOL0     H12141   2.663   8.051  -0.199  0.1738  0.9636  1.3490
   90MOL0     H12142   2.461   8.213  -0.322  0.1402 -0.0726  0.1382
   90MOL0     H12143   2.593   8.150  -0.405  0.9479 -0.8041  1.0961
   90MOL0     H12144   2.717   8.320  -0.230  0.3601 -3.3276 -1.5733
   90MOL0     H12145   2.559   8.405  -0.262 -0.1668 -0.3468  1.7776
   90MOL0     H12146   2.707   8.486  -0.424  2.9328 -0.0058 -1.6230
   90MOL0     H12147   2.592   8.370  -0.497 -0.4635 -0.7012  0.4435
   90MOL0     H12148   2.967   8.156  -0.550  1.4954  2.3740 -0.4819
   90MOL0     H12149   2.243   7.997  -0.213  1.2659  0.3987 -0.5094
   90MOL0     H12150   2.032   8.121  -0.141 -0.0440  0.0310  1.6419
   91MOL0     O12151   5.632   5.414   2.182 -0.3713  0.4361 -0.2691
   91MOL0     C12152   5.549   5.424   2.093  0.5276 -0.4932 -0.1802
   91MOL0     O12153   5.576   5.460   1.958 -0.1799 -0.0422 -0.0873
   91MOL0     C12154   5.698   5.518   1.936 -0.4387  0.1600 -0.1868
   91MOL0     C12155   5.713   5.626   1.851 -0.1620 -0.2239  0.3796
   91MOL0     C12156   5.836   5.681   1.814  0.0861  0.9778  0.3164
   91MOL0     C12157   5.959   5.627   1.860  0.6064  1.2701  1.3440
   91MOL0     O12158   6.076   5.684   1.843 -0.9648 -0.3473  0.1474
   91MOL0     C12159   6.089   5.759   1.721 -0.2184  0.0575 -0.1593
   91MOL0     C12160   6.239   5.773   1.685 -0.1429  0.5981 -0.0682
   91MOL0     C12161   6.274   5.668   1.569 -0.1702 -0.4366 -1.3050
   91MOL0     C12162   6.421   5.692   1.532 -0.6993 -0.2042  0.6069
   91MOL0     C12163   6.453   5.577   1.425 -0.1282 -0.3108 -0.3346
   91MOL0     C12164   6.601   5.581   1.398 -0.5000  0.6866 -0.7762
   91MOL0     C12165   6.639   5.708   1.328 -0.7381 -0.1468 -0.7065
   91MOL0     C12166   6.791   5.727   1.317  0.1814 -0.8015  0.0416
   91MOL0     N12167   6.828   5.845   1.239 -0.4476  0.1847 -0.6947
   91MOL0     C12168   6.808   5.862   1.100  1.1532  1.0273 -0.3880
   91MOL0     C12169   6.898   5.954   1.067  0.0647 -0.1628  0.1860
   91MOL0     C12170   6.913   6.019   0.937  0.8836 -0.4719  1.4453
   91MOL0     C12171   6.893   6.171   0.922 -0.2236 -0.4016  0.1710
   91MOL0     C12172   6.899   6.229   0.783  0.5028  0.1147  0.0583
   91MOL0     C12173   7.014   6.178   0.693 -0.2257 -0.6878 -0.2983
   91MOL0     O12174   7.001   6.042   0.650  0.2007 -0.2118  0.0344
   91MOL0     C12175   7.106   5.983   0.576 -0.5412  0.0607  0.2553
   91MOL0     C12176   7.087   5.850   0.537  0.2870 -0.6300  0.7757
   91MOL0     C12177   7.186   5.787   0.454 -0.4796  0.0263 -0.1962
   91MOL0     C12178   7.141   5.658   0.398  0.8253  0.4931 -0.9734
   91MOL0     C12179   7.309   5.844   0.424 -0.3018  0.4480 -0.9075
   91MOL0     C12180   7.420   5.784   0.355  0.5165 -0.4698 -0.2961
   91MOL0     O12181   7.513   5.872   0.306 -0.5658  0.1364 -0.0911
   91MOL0     C12182   7.607   5.838   0.215  0.0440  0.2772 -0.0650
   91MOL0     C12183   7.600   5.729   0.120  0.4173 -0.4496 -0.7421
   91MOL0     C12184   7.711   5.710   0.033  0.4362 -0.8866  0.0193
   91MOL0     C12185   7.814   5.809   0.018 -0.6824  0.3525  0.2513
   91MOL0     O12186   7.930   5.789  -0.057  0.5188  0.2179 -0.5617
   91MOL0     C12187   7.945   5.680  -0.149  0.3249 -0.2238  0.2474
   91MOL0     C12188   8.062   5.712  -0.250  0.8965  0.8532  0.6073
   91MOL0     C12189   8.197   5.732  -0.174  0.0883 -0.3586  0.4020
   91MOL0     C12190   8.317   5.782  -0.270  0.0824  0.5344  0.3988
   91MOL0     C12191   8.448   5.781  -0.205 -0.5024  0.4735 -1.0495
   91MOL0     C12192   8.448   5.866  -0.070 -0.3224 -0.4199 -0.4421
   91MOL0     C12193   8.579   5.863   0.013 -0.0856 -0.3778 -0.2598
   91MOL0     C12194   8.691   5.922  -0.060 -0.0317 -0.1095  0.0049
   91MOL0    Cl12195   8.827   5.933   0.049 -0.3291  0.3696  0.1217
   91MOL0     C12196   7.824   5.908   0.110 -0.7396  0.4000 -1.2469
   91MOL0     C12197   7.720   5.932   0.209  0.2001 -0.0732  0.1694
   91MOL0     O12198   7.425   5.659   0.339  0.2532 -0.0336 -0.3094
   91MOL0     C12199   7.320   5.977   0.466  0.2280  0.2987 -0.2946
   91MOL0     C12200   7.223   6.047   0.536  0.3002  0.1948 -0.1861
   91MOL0     N12201   6.971   5.986   1.179  0.7963 -0.1282  0.0989
   91MOL0     N12202   6.935   5.914   1.281 -0.2008 -0.4576 -0.4673
   91MOL0     C12203   5.946   5.527   1.951  0.7255  0.9627 -0.1398
   91MOL0     C12204   5.819   5.470   1.986 -0.5228  0.8810 -0.3604
   91MOL0     C12205   5.406   5.399   2.118  0.1461  0.8733 -0.1662
   91MOL0     C12206   5.362   5.358   2.243 -0.6423 -0.2760 -0.6681
   91MOL0     C12207   5.234   5.317   2.264 -0.3175  0.2293 -0.3845
   91MOL0     C12208   5.141   5.305   2.155 -0.8189  0.5759  0.6950
   91MOL0     O12209   5.021   5.252   2.165  0.7430  0.2498  0.3728
   91MOL0     C12210   4.950   5.244   2.284 -0.3362  0.3858 -0.3291
   91MOL0     C12211   4.799   5.224   2.275  1.2612  0.5622  0.4329
   91MOL0     C12212   4.754   5.125   2.167  0.6484 -0.3847 -0.0534
   91MOL0     C12213   4.609   5.072   2.192 -0.5228 -0.2256  1.0871
   91MOL0     C12214   4.508   5.174   2.220 -0.4659  1.0241 -0.2775
   91MOL0     C12215   4.440   5.262   2.277  0.3737  0.4715  0.6575
   91MOL0     C12216   5.191   5.334   2.030 -0.3116 -0.1414 -0.7455
   91MOL0     C12217   5.320   5.386   2.016 -0.0338  0.4871  0.9735
   91MOL0     H12218   5.623   5.672   1.813  0.8996  0.1783 -1.8488
   91MOL0     H12219   5.840   5.761   1.740  3.3939  0.8509  0.2028
   91MOL0     H12220   6.024   5.735   1.636 -1.8770  0.7617  0.8484
   91MOL0     H12221   6.054   5.858   1.753 -1.8002 -0.0937 -1.2816
   91MOL0     H12222   6.269   5.874   1.652 -1.0432  0.7285 -0.4992
   91MOL0     H12223   6.289   5.735   1.774 -1.4866 -2.1547 -0.4023
   91MOL0     H12224   6.256   5.570   1.615 -2.2685 -0.0792 -1.2574
   91MOL0     H12225   6.207   5.686   1.485 -1.8437  0.1618  0.0969
   91MOL0     H12226   6.434   5.794   1.493 -2.6074 -0.2957 -0.3613
   91MOL0     H12227   6.488   5.671   1.616 -2.5267 -2.8081  1.5208
   91MOL0     H12228   6.432   5.478   1.466  1.1575 -0.6552 -0.4654
   91MOL0     H12229   6.392   5.601   1.338 -2.7044 -1.6889  0.9848
   91MOL0     H12230   6.661   5.575   1.489  0.7548 -3.0078 -1.6815
   91MOL0     H12231   6.626   5.495   1.336  0.3548  0.2293  0.1740
   91MOL0     H12232   6.589   5.693   1.232  1.1043 -0.5449 -1.6515
   91MOL0     H12233   6.605   5.804   1.369  2.2156  0.8189 -0.2696
   91MOL0     H12234   6.837   5.641   1.267 -1.4373 -0.9213 -1.3339
   91MOL0     H12235   6.825   5.725   1.421  1.5807 -0.8868 -0.3984
   91MOL0     H12236   6.728   5.816   1.042  1.2289  0.0203  0.2804
   91MOL0     H12237   7.006   5.984   0.890 -0.6020 -1.5706 -0.8850
   91MOL0     H12238   6.836   5.975   0.873  1.5546  1.0097 -0.4725
   91MOL0     H12239   6.966   6.229   0.980 -1.9009 -0.0553  2.0322
   91MOL0     H12240   6.801   6.193   0.977 -1.1334 -3.6780  0.1798
   91MOL0     H12241   6.918   6.335   0.805 -0.5279  0.5127 -0.8532
   91MOL0     H12242   6.796   6.216   0.747  0.0034 -1.3958  1.8653
   91MOL0     H12243   7.108   6.200   0.744  0.6370  0.2576 -2.1973
   91MOL0     H12244   7.026   6.240   0.604  1.4867 -1.7953 -0.8732
   91MOL0     H12245   7.003   5.795   0.578  0.1722 -0.1719  1.1710
   91MOL0     H12246   7.181   5.636   0.298 -0.1996 -0.6468 -1.1520
   91MOL0     H12247   7.170   5.578   0.466  1.4133  1.8993  0.4921
   91MOL0     H12248   7.032   5.651   0.393  0.7136  2.1461 -1.3572
   91MOL0     H12249   7.523   5.653   0.115  0.1264 -0.0976 -1.9972
   91MOL0     H12250   7.721   5.614  -0.017  0.7406 -1.7832  1.7528
   91MOL0     H12251   7.964   5.579  -0.109  2.2606  0.0279  0.0578
   91MOL0     H12252   7.853   5.684  -0.208  0.4826  0.9602  0.0723
   91MOL0     H12253   8.063   5.646  -0.338 -0.2537  0.3579  0.9437
   91MOL0     H12254   8.034   5.804  -0.301 -1.6329 -0.9409 -1.5245
   91MOL0     H12255   8.222   5.636  -0.127  2.1294 -0.6492 -1.1730
   91MOL0     H12256   8.185   5.810  -0.097  2.2161  1.3816 -0.9224
   91MOL0     H12257   8.318   5.718  -0.359 -0.4034 -0.2448  0.9353
   91MOL0     H12258   8.283   5.882  -0.299 -2.4861  0.4087  2.5384
   91MOL0     H12259   8.537   5.806  -0.263  1.6338 -2.9717  0.3793
   91MOL0     H12260   8.464   5.673  -0.192 -0.8993  0.3361 -1.6643
   91MOL0     H12261   8.416   5.968  -0.092 -0.4550 -0.4335 -0.3196
   91MOL0     H12262   8.372   5.827  -0.001 -0.8763  3.1344  1.2164
   91MOL0     H12263   8.604   5.761   0.042  0.0909 -0.6126 -1.2170
   91MOL0     H12264   8.572   5.933   0.097  0.2344 -0.7156  0.0526
   91MOL0     H12265   8.658   6.019  -0.101  0.5046 -0.3142 -0.9400
   91MOL0     H12266   8.727   5.856  -0.140  1.7841  1.7225 -0.7912
   91MOL0     H12267   7.915   5.967   0.106  1.3684 -2.5881 -1.0088
   91MOL0     H12268   7.744   5.999   0.291 -0.0550 -1.5865  1.5442
   91MOL0     H12269   7.414   6.030   0.457  0.8576 -1.0426 -2.1636
   91MOL0     H12270   7.234   6.151   0.568  0.8075 -0.5542  2.3069
   91MOL0     H12271   6.036   5.503   2.008  0.7133  1.3458  0.0505
   91MOL0     H12272   5.813   5.382   2.049 -2.5921  2.2632  1.5727
   91MOL0     H12273   5.432   5.352   2.326 -1.1219  0.7954 -0.1671
   91MOL0     H12274   5.213   5.285   2.365  1.8810 -2.2418 -0.6078
   91MOL0     H12275   4.993   5.160   2.338  1.5324  0.8012 -1.0715
   91MOL0     H12276   4.986   5.333   2.337  0.8015  0.0269 -0.4628
   91MOL0     H12277   4.747   5.319   2.256  0.1952  0.0820  0.8712
   91MOL0     H12278   4.772   5.190   2.376 -2.2638  0.7312 -0.3232
   91MOL0     H12279   4.823   5.040   2.175  0.1825 -0.9566 -1.7140
   91MOL0     H12280   4.767   5.170   2.068  2.0336 -0.0472  0.2599
   91MOL0     H12281   4.603   5.001   2.275 -0.8998 -1.3287  0.1453
   91MOL0     H12282   4.578   5.021   2.100 -0.2097  0.5909  0.5208
   91MOL0     H12283   4.373   5.326   2.330 -0.9102 -1.1661  1.1076
   91MOL0     H12284   5.119   5.326   1.949 -1.0712  0.5757 -0.1594
   91MOL0     H12285   5.348   5.397   1.911  1.3323 -3.9051  0.6908
   92MOL0     O12286   5.588   4.868   9.769 -0.3705 -0.4988  0.5765
   92MOL0     C12287   5.629   4.753   9.777  0.2361 -0.9206 -0.2167
   92MOL0     O12288   5.549   4.646   9.820  0.0897 -0.1038  0.1729
   92MOL0     C12289   5.412   4.651   9.835  0.4766 -0.2626  0.3968
   92MOL0     C12290   5.349   4.751   9.906  0.3421  0.2567 -0.3254
   92MOL0     C12291   5.209   4.748   9.924 -0.2485  0.5752  0.0434
   92MOL0     C12292   5.135   4.644   9.868  0.0494  0.6756  0.3302
   92MOL0     O12293   4.996   4.637   9.857 -1.1833  0.6261  0.0977
   92MOL0     C12294   4.912   4.724   9.917 -0.0466 -0.3331 -0.2034
   92MOL0     C12295   4.763   4.706   9.896 -0.2742  0.1875 -0.3253
   92MOL0     C12296   4.726   4.555   9.909 -0.4853 -0.9267  0.0069
   92MOL0     C12297   4.572   4.518   9.880 -0.3470  0.7336 -0.2308
   92MOL0     C12298   4.542   4.372   9.923  0.3764 -0.1193  0.0223
   92MOL0     C12299   4.402   4.330   9.878 -0.2422 -0.7609  0.2598
   92MOL0     C12300   4.327   4.214   9.947  0.0037 -0.6565  0.1091
   92MOL0     C12301   4.300   4.222  10.105  0.8339  0.5969  0.0955
   92MOL0     N12302   4.263   4.091  10.157  0.1272  0.0399  0.0013
   92MOL0     C12303   4.311   3.969  10.129 -0.2473  1.4096 -0.6709
   92MOL0     C12304   4.251   3.883  10.223 -0.8673 -0.3777 -0.3774
   92MOL0     C12305   4.259   3.727  10.231  0.5856 -0.1804  0.7804
   92MOL0     C12306   4.406   3.681  10.240 -0.0546  0.4180 -0.3692
   92MOL0     C12307   4.414   3.541  10.303  0.5982  0.2593  0.8252
   92MOL0     C12308   4.557   3.501  10.319 -0.1387 -0.9418  0.0700
   92MOL0     O12309   4.601   3.494  10.459 -0.9443 -0.0857  0.3182
   92MOL0     C12310   4.725   3.439  10.461  0.1926 -0.2611  0.4281
   92MOL0     C12311   4.758   3.370  10.578 -0.3282 -0.2127  0.5092
   92MOL0     C12312   4.879   3.294  10.592  0.3746 -0.0105 -0.2305
   92MOL0     C12313   4.910   3.234  10.733  0.1467 -0.7754  0.4685
   92MOL0     C12314   4.965   3.284  10.483 -0.5070 -0.8162  0.3590
   92MOL0     C12315   5.103   3.220  10.493 -0.1102 -1.1770  0.0738
   92MOL0     O12316   5.216   3.289  10.445  0.6982  0.1837 -0.2741
   92MOL0     C12317   5.340   3.241  10.482 -0.1797  0.6210 -0.6375
   92MOL0     C12318   5.452   3.275  10.400  0.5851  0.3040 -0.0242
   92MOL0     C12319   5.578   3.234  10.428  0.1133  0.1085  0.2148
   92MOL0     C12320   5.608   3.179  10.551  0.2955  0.5717  0.9382
   92MOL0     O12321   5.731   3.137  10.586  0.0002  0.2419  0.1953
   92MOL0     C12322   5.822   3.257  10.604 -0.3825  0.6862 -0.4771
   92MOL0     C12323   5.951   3.243  10.515  0.0501 -1.0974 -0.3400
   92MOL0     C12324   6.023   3.110  10.525 -0.2798 -0.9939  0.1148
   92MOL0     C12325   6.172   3.117  10.537  0.3812  0.7456  0.3338
   92MOL0     C12326   6.247   3.176  10.414  0.9192 -0.4585  0.9688
   92MOL0     C12327   6.396   3.173  10.449 -0.2033 -0.3014 -0.0655
   92MOL0     C12328   6.463   3.228  10.322  0.7487  0.6273 -0.3000
   92MOL0     C12329   6.456   3.377  10.311 -0.3761  0.0227  0.1649
   92MOL0    Cl12330   6.599   3.459  10.391  0.1867  0.3007  0.0700
   92MOL0     C12331   5.507   3.161  10.644  0.5849  0.4550 -0.3048
   92MOL0     C12332   5.369   3.175  10.609 -0.4734 -0.2063 -0.4399
   92MOL0     O12333   5.103   3.108  10.537  0.6938 -0.2121  0.0867
   92MOL0     C12334   4.936   3.361  10.367 -1.1800  1.7001 -0.9150
   92MOL0     C12335   4.816   3.431  10.352  1.1204  0.1585 -0.2301
   92MOL0     N12336   4.169   3.972  10.300  0.1318  0.4975 -0.1248
   92MOL0     N12337   4.172   4.089  10.258  0.6064  0.3703 -0.8914
   92MOL0     C12338   5.198   4.542   9.800  0.4582 -0.2737  0.1065
   92MOL0     C12339   5.334   4.550   9.776  0.1627  0.1442  0.0787
   92MOL0     C12340   5.768   4.729   9.745 -0.5975  0.0579 -0.3031
   92MOL0     C12341   5.847   4.845   9.726  0.2503  0.6095 -0.4025
   92MOL0     C12342   5.973   4.835   9.672 -0.8789 -0.1272  0.8547
   92MOL0     C12343   6.039   4.712   9.646  0.0396  0.1733  0.3026
   92MOL0     O12344   6.170   4.719   9.608 -0.3431 -0.3183 -0.2402
   92MOL0     C12345   6.256   4.607   9.608 -0.6337  0.7996 -0.1054
   92MOL0     C12346   6.392   4.632   9.555 -0.8178 -0.7826  0.7612
   92MOL0     C12347   6.392   4.645   9.400 -0.1079 -0.5782  0.4794
   92MOL0     C12348   6.499   4.756   9.365 -0.8259 -0.2920  0.0546
   92MOL0     C12349   6.632   4.710   9.404 -0.0869  0.0369  0.2391
   92MOL0     C12350   6.736   4.695   9.459 -0.2413 -0.1574  0.1866
   92MOL0     C12351   5.958   4.596   9.663  1.0115  0.3844 -0.5305
   92MOL0     C12352   5.822   4.599   9.715  0.2306  0.0912  0.5102
   92MOL0     H12353   5.400   4.839   9.942  0.8014  0.0721 -0.5191
   92MOL0     H12354   5.165   4.834   9.973 -1.2936  0.0579  0.0431
   92MOL0     H12355   4.933   4.720  10.024  0.1348  0.8757 -0.1717
   92MOL0     H12356   4.936   4.819   9.867  0.3295  0.2899  1.1014
   92MOL0     H12357   4.697   4.769   9.956  0.7049  0.0127  0.9696
   92MOL0     H12358   4.755   4.729   9.789  2.4569  1.0537 -0.4215
   92MOL0     H12359   4.792   4.505   9.837  3.8309  1.1585  2.1838
   92MOL0     H12360   4.747   4.529  10.013  1.0326  0.0845 -0.0286
   92MOL0     H12361   4.503   4.591   9.923 -2.3852 -0.7799 -0.7553
   92MOL0     H12362   4.557   4.520   9.772  1.4417 -1.1692 -0.5755
   92MOL0     H12363   4.612   4.304   9.873  2.3235  1.1582  0.8855
   92MOL0     H12364   4.566   4.360  10.029  2.7317  0.3419 -0.4032
   92MOL0     H12365   4.327   4.407   9.894  0.0188 -0.3443 -0.4388
   92MOL0     H12366   4.402   4.313   9.770 -0.7902  3.5950 -0.6176
   92MOL0     H12367   4.239   4.195   9.885  0.5385 -0.0646 -0.8448
   92MOL0     H12368   4.392   4.128   9.929  2.1145  0.7398  0.7216
   92MOL0     H12369   4.225   4.301  10.116 -2.6933 -2.4178 -0.0904
   92MOL0     H12370   4.393   4.252  10.153  1.6458 -0.2153 -0.9304
   92MOL0     H12371   4.386   3.938  10.058  0.3031 -0.3768  0.6318
   92MOL0     H12372   4.193   3.687  10.309  2.8642 -1.7220  2.0055
   92MOL0     H12373   4.221   3.692  10.135  1.9160 -1.2783  0.6394
   92MOL0     H12374   4.477   3.746  10.292 -0.1590  0.0186  0.2891
   92MOL0     H12375   4.442   3.671  10.138 -1.5809 -0.0461 -0.8887
   92MOL0     H12376   4.364   3.469  10.238 -0.3044 -0.8915  2.6991
   92MOL0     H12377   4.366   3.529  10.401 -1.6835  0.8055 -0.1613
   92MOL0     H12378   4.623   3.568  10.264 -2.5140  1.7826  0.2452
   92MOL0     H12379   4.565   3.405  10.269  3.3578 -0.7678  0.0973
   92MOL0     H12380   4.678   3.350  10.649 -2.7359 -3.0054 -2.6593
   92MOL0     H12381   4.861   3.137  10.746 -2.4555  0.3818  0.0185
   92MOL0     H12382   5.017   3.222  10.750  0.5783 -2.7702 -2.7299
   92MOL0     H12383   4.865   3.304  10.803  2.4655  2.2826 -0.8628
   92MOL0     H12384   5.427   3.320  10.305 -2.5742  0.1067  0.5829
   92MOL0     H12385   5.656   3.249  10.353  1.2333  1.9172  1.6567
   92MOL0     H12386   5.772   3.353  10.589 -2.0405  0.3004  2.0277
   92MOL0     H12387   5.855   3.255  10.708 -0.8269 -0.8165 -0.3481
   92MOL0     H12388   5.914   3.268  10.416  1.5392  1.6258 -0.3060
   92MOL0     H12389   6.014   3.330  10.537  0.3297  0.1674 -5.1128
   92MOL0     H12390   6.003   3.074  10.424 -1.9036  1.8344 -0.6744
   92MOL0     H12391   5.985   3.046  10.606 -0.8078  0.2292  0.8694
   92MOL0     H12392   6.198   3.173  10.628  1.8619 -0.1089  0.4737
   92MOL0     H12393   6.202   3.012  10.548 -0.6384  0.3593 -0.4369
   92MOL0     H12394   6.215   3.276  10.384  2.2371 -0.0789  0.7821
   92MOL0     H12395   6.225   3.114  10.327  0.5162  0.3523  0.4845
   92MOL0     H12396   6.425   3.223  10.542 -3.1455 -0.3930  1.0067
   92MOL0     H12397   6.427   3.068  10.451  0.9763 -0.0797 -2.4950
   92MOL0     H12398   6.423   3.176  10.235  2.2367 -2.0715  0.5125
   92MOL0     H12399   6.569   3.202  10.323  0.6677  0.2883 -0.0635
   92MOL0     H12400   6.376   3.429  10.365 -0.6729  1.8102 -1.8591
   92MOL0     H12401   6.459   3.404  10.205 -0.3806  1.1374  0.4307
   92MOL0     H12402   5.547   3.118  10.735  2.0486 -0.9652 -1.5485
   92MOL0     H12403   5.286   3.177  10.679 -0.8612  3.4264 -0.8282
   92MOL0     H12404   5.006   3.362  10.284 -2.7746 -2.6000 -2.6106
   92MOL0     H12405   4.817   3.485  10.258  1.3266  0.2017 -0.2045
   92MOL0     H12406   5.136   4.471   9.748 -1.4289  1.1782  0.2481
   92MOL0     H12407   5.391   4.475   9.722 -2.2045 -1.3273 -0.4730
   92MOL0     H12408   5.804   4.939   9.757  1.3921  0.3776  2.1627
   92MOL0     H12409   6.038   4.919   9.652 -0.6490  0.1717  2.6898
   92MOL0     H12410   6.260   4.563   9.708 -2.8140 -1.8867 -1.0717
   92MOL0     H12411   6.202   4.539   9.541 -0.3675  1.8503 -1.4468
   92MOL0     H12412   6.463   4.550   9.570  1.0843  0.4847 -0.8022
   92MOL0     H12413   6.437   4.720   9.603  0.5791 -1.2097  0.2788
   92MOL0     H12414   6.299   4.690   9.365 -0.4047 -0.4182  1.4512
   92MOL0     H12415   6.410   4.551   9.347  2.4827  0.5386 -0.7954
   92MOL0     H12416   6.480   4.856   9.405 -0.1926  0.4853 -1.4845
   92MOL0     H12417   6.506   4.763   9.256 -2.9631 -0.3082 -0.1267
   92MOL0     H12418   6.834   4.684   9.500  0.6112  2.6314 -0.8859
   92MOL0     H12419   5.994   4.497   9.636 -0.7288 -0.5205  0.3008
   92MOL0     H12420   5.773   4.502   9.719 -1.2987  0.8016 -0.1479
   93MOL0     O12421  11.180   9.448   0.779 -0.0462  0.5857 -0.5455
   93MOL0     C12422  11.161   9.437   0.898 -0.2578 -0.4064 -1.1202
   93MOL0     O12423  11.047   9.466   0.959  0.9285  0.0201 -0.7500
   93MOL0     C12424  10.942   9.505   0.879  0.8309 -0.3969  0.5445
   93MOL0     C12425  10.823   9.423   0.878 -1.3247  0.5876 -0.4185
   93MOL0     C12426  10.726   9.450   0.782  0.1093 -0.1795  0.0837
   93MOL0     C12427  10.722   9.572   0.722 -0.7502 -0.1685 -0.0731
   93MOL0     O12428  10.624   9.617   0.644 -0.4207 -0.6656  0.3662
   93MOL0     C12429  10.496   9.559   0.669 -0.7618  0.2883  0.0170
   93MOL0     C12430  10.385   9.651   0.610 -0.8054 -0.7539  0.9667
   93MOL0     C12431  10.282   9.557   0.553  0.2844  0.8925  0.4823
   93MOL0     C12432  10.157   9.645   0.507 -0.6902  0.6319  0.7031
   93MOL0     C12433  10.100   9.553   0.397  0.0066  0.5026 -0.9143
   93MOL0     C12434   9.972   9.631   0.344  0.1419 -0.9823 -0.4644
   93MOL0     C12435   9.917   9.573   0.226  0.3216  0.2611 -0.1819
   93MOL0     C12436   9.797   9.487   0.260  0.2441  0.3920  0.1233
   93MOL0     N12437   9.732   9.440   0.136 -0.1048  0.5556  0.0207
   93MOL0     C12438   9.697   9.519   0.031 -0.3265  0.1320 -0.4916
   93MOL0     C12439   9.618   9.444  -0.047  0.1818 -0.3572 -0.2198
   93MOL0     C12440   9.574   9.479  -0.195 -0.9753 -0.3684 -0.5023
   93MOL0     C12441   9.430   9.486  -0.218  0.2188 -0.4753  0.5690
   93MOL0     C12442   9.340   9.575  -0.133 -0.9506 -0.3852  0.2797
   93MOL0     C12443   9.191   9.574  -0.196 -0.7974  0.6294  0.3271
   93MOL0     O12444   9.136   9.448  -0.183 -0.1539 -0.3394  0.4095
   93MOL0     C12445   9.011   9.431  -0.146  0.6723  0.3559 -0.0572
   93MOL0     C12446   8.975   9.294  -0.139 -0.2927  0.3939  0.4982
   93MOL0     C12447   8.837   9.259  -0.117  1.3736  0.6193 -0.4638
   93MOL0     C12448   8.797   9.114  -0.121 -0.1597  0.5412 -0.7912
   93MOL0     C12449   8.730   9.360  -0.105 -0.4418 -0.3483  0.1799
   93MOL0     C12450   8.587   9.335  -0.093 -0.0569 -0.1920  0.5025
   93MOL0     O12451   8.504   9.427  -0.145  0.7075  0.1953 -0.0155
   93MOL0     C12452   8.367   9.423  -0.123  0.1581 -0.2602 -0.1706
   93MOL0     C12453   8.282   9.411  -0.234  0.1446 -0.0389  0.1444
   93MOL0     C12454   8.143   9.398  -0.201 -0.0015  0.4585  1.1781
   93MOL0     C12455   8.089   9.394  -0.071 -0.3834  0.0093  0.1695
   93MOL0     O12456   7.960   9.370  -0.044  0.3490  0.4588  0.5479
   93MOL0     C12457   7.881   9.291  -0.129  1.5647  0.4123  0.1177
   93MOL0     C12458   7.758   9.251  -0.044  1.2267 -0.0918 -0.6014
   93MOL0     C12459   7.679   9.382  -0.017  0.1562  0.6145 -0.4146
   93MOL0     C12460   7.581   9.351   0.110  0.7819 -0.3417  0.4802
   93MOL0     C12461   7.486   9.465   0.141 -0.6044  0.6085 -0.6247
   93MOL0     C12462   7.407   9.524   0.025  0.3024  0.1141 -0.4297
   93MOL0     C12463   7.330   9.418  -0.059  0.6058  0.5858  0.8418
   93MOL0     C12464   7.222   9.501  -0.131  0.5583 -0.9483  0.7025
   93MOL0    Cl12465   7.106   9.372  -0.195 -0.4275 -0.2134  0.6166
   93MOL0     C12466   8.182   9.417   0.033  0.5835 -0.2630  0.6726
   93MOL0     C12467   8.318   9.433   0.009  0.4188 -0.3635  0.2786
   93MOL0     O12468   8.555   9.239  -0.022  0.0275  0.5175 -0.6019
   93MOL0     C12469   8.777   9.492  -0.117 -0.1777 -0.0578  0.5178
   93MOL0     C12470   8.907   9.528  -0.148 -0.2398 -0.4532  0.0818
   93MOL0     N12471   9.618   9.318   0.012 -0.6066 -0.5733 -0.4551
   93MOL0     N12472   9.692   9.303   0.110 -0.2347 -0.0057 -0.3438
   93MOL0     C12473  10.836   9.654   0.728 -0.7834  0.2817 -0.2233
   93MOL0     C12474  10.946   9.619   0.801 -0.2138 -0.3249 -0.8426
   93MOL0     C12475  11.282   9.403   0.980 -0.3765  0.2597 -0.2543
   93MOL0     C12476  11.291   9.423   1.115 -0.9571 -0.1264  0.3232
   93MOL0     C12477  11.417   9.377   1.172  0.0402  0.6027 -0.3247
   93MOL0     C12478  11.513   9.304   1.099  0.4216 -0.2308  0.2508
   93MOL0     O12479  11.618   9.257   1.170 -0.1635  0.7088 -0.1705
   93MOL0     C12480  11.732   9.203   1.103  0.3715  0.7049  0.2802
   93MOL0     C12481  11.850   9.172   1.199 -0.4402 -0.0855 -0.2794
   93MOL0     C12482  11.847   9.054   1.295  0.1382  0.5487 -0.2643
   93MOL0     C12483  11.982   9.033   1.362 -0.2521 -0.0742  1.0598
   93MOL0     C12484  11.973   8.928   1.461  0.1453  0.3053  0.2468
   93MOL0     C12485  11.950   8.861   1.555 -0.3402  0.2518  0.3487
   93MOL0     C12486  11.486   9.267   0.966  0.0447 -0.2479 -0.2900
   93MOL0     C12487  11.376   9.320   0.914 -0.1205 -0.5767 -0.4817
   93MOL0     H12488  10.815   9.332   0.937 -0.1212  1.3344  0.9781
   93MOL0     H12489  10.647   9.376   0.794  2.1276 -2.6532 -1.0178
   93MOL0     H12490  10.506   9.459   0.627  1.7048 -1.1096  3.4522
   93MOL0     H12491  10.488   9.545   0.777  0.1376 -0.7990 -0.0473
   93MOL0     H12492  10.335   9.719   0.680 -1.2258  1.6778 -1.5239
   93MOL0     H12493  10.422   9.717   0.531 -1.3344  0.2244  1.5192
   93MOL0     H12494  10.318   9.483   0.481 -0.3519 -0.4946  1.5552
   93MOL0     H12495  10.249   9.500   0.640  0.0079  1.7236  0.9391
   93MOL0     H12496  10.099   9.668   0.597  1.6034  0.9540  2.1822
   93MOL0     H12497  10.185   9.742   0.464  3.4944 -1.0786 -0.9396
   93MOL0     H12498  10.166   9.539   0.311 -1.3059 -0.9029 -1.7731
   93MOL0     H12499  10.079   9.449   0.426  1.2988 -0.1538 -2.2009
   93MOL0     H12500   9.897   9.667   0.414  0.9566  1.0030 -0.5476
   93MOL0     H12501  10.021   9.721   0.306 -1.0231  0.2223  0.8138
   93MOL0     H12502   9.892   9.655   0.157 -0.0474  0.8090  0.5971
   93MOL0     H12503   9.992   9.516   0.169 -1.1896 -1.8022 -0.1819
   93MOL0     H12504   9.725   9.548   0.316 -1.0476 -0.2695 -0.7641
   93MOL0     H12505   9.827   9.401   0.320 -1.6200 -0.2074  0.2659
   93MOL0     H12506   9.727   9.620   0.004  0.7997 -0.5353 -1.8594
   93MOL0     H12507   9.623   9.576  -0.212 -2.4955  0.5079 -0.0322
   93MOL0     H12508   9.616   9.406  -0.265 -0.7045 -1.1199  0.4124
   93MOL0     H12509   9.386   9.386  -0.225  0.8535 -0.6563 -2.0223
   93MOL0     H12510   9.426   9.531  -0.318  1.6839  0.6736  0.9935
   93MOL0     H12511   9.383   9.674  -0.152  0.7543 -1.4122 -1.5892
   93MOL0     H12512   9.337   9.547  -0.027 -1.6179  1.8724  0.9362
   93MOL0     H12513   9.199   9.587  -0.304 -2.1775 -3.7243 -0.4748
   93MOL0     H12514   9.150   9.653  -0.133  5.0135  2.1983  2.8622
   93MOL0     H12515   9.050   9.221  -0.165 -1.3139  0.5247 -3.3923
   93MOL0     H12516   8.881   9.054  -0.156 -0.2797 -1.1945  1.5969
   93MOL0     H12517   8.756   9.077  -0.026  0.0223  0.7261 -0.6373
   93MOL0     H12518   8.713   9.105  -0.190 -0.8560 -0.0617  0.1172
   93MOL0     H12519   8.318   9.389  -0.335  0.2435 -0.2412  0.2228
   93MOL0     H12520   8.073   9.386  -0.282  1.0910  0.1944  0.2438
   93MOL0     H12521   7.844   9.355  -0.210 -2.9845 -0.1737  1.4868
   93MOL0     H12522   7.941   9.212  -0.175  0.7783  1.5758 -3.1314
   93MOL0     H12523   7.689   9.183  -0.094 -0.1881  1.5761 -0.9934
   93MOL0     H12524   7.794   9.208   0.050 -0.7387 -2.0626 -0.6880
   93MOL0     H12525   7.627   9.416  -0.107  0.1810 -0.7574 -0.9734
   93MOL0     H12526   7.747   9.467  -0.002  2.7086 -1.8060  3.4099
   93MOL0     H12527   7.528   9.258   0.088 -0.3377  0.5023 -0.6144
   93MOL0     H12528   7.646   9.338   0.196  3.5938  1.9207 -1.1189
   93MOL0     H12529   7.541   9.549   0.182  0.8150 -0.0228 -1.1768
   93MOL0     H12530   7.406   9.437   0.211  1.4645  1.9573  2.4535
   93MOL0     H12531   7.337   9.598   0.065  0.6135 -1.2863  3.0676
   93MOL0     H12532   7.472   9.571  -0.048 -0.9807 -0.4097 -1.9635
   93MOL0     H12533   7.275   9.346   0.002  1.6815 -0.8192  0.2074
   93MOL0     H12534   7.391   9.362  -0.131 -0.7246  0.3113 -0.1044
   93MOL0     H12535   7.265   9.549  -0.219  1.0611  0.7372  1.8334
   93MOL0     H12536   7.175   9.583  -0.076  0.1305  1.1890 -2.5387
   93MOL0     H12537   8.146   9.419   0.135  0.3559  0.2668  0.5823
   93MOL0     H12538   8.383   9.460   0.091 -0.7430  0.7314  0.8709
   93MOL0     H12539   8.702   9.571  -0.106 -0.3500 -0.1722  0.1857
   93MOL0     H12540   8.926   9.634  -0.164 -0.3684 -0.1350  1.8268
   93MOL0     H12541  10.835   9.731   0.652  2.8128 -0.3279 -1.0473
   93MOL0     H12542  11.042   9.670   0.796 -0.0421  0.1851  3.6034
   93MOL0     H12543  11.216   9.476   1.174 -1.1808  1.4332 -1.2864
   93MOL0     H12544  11.444   9.396   1.275  1.7703 -0.2165 -0.5974
   93MOL0     H12545  11.703   9.107   1.060  3.9311 -0.2770 -0.2225
   93MOL0     H12546  11.773   9.263   1.022 -1.0157  1.7773  0.3359
   93MOL0     H12547  11.856   9.261   1.261  1.3657 -0.7786  0.6278
   93MOL0     H12548  11.941   9.165   1.138 -0.9278  2.4209 -1.3989
   93MOL0     H12549  11.825   8.960   1.245 -2.7377  0.5548  0.8092
   93MOL0     H12550  11.761   9.068   1.360  0.6601  1.1825  0.3071
   93MOL0     H12551  12.011   9.120   1.421 -1.3098  2.5016 -1.9330
   93MOL0     H12552  12.056   9.030   1.281 -2.8319  1.4761 -1.5366
   93MOL0     H12553  11.918   8.800   1.637 -1.4129  0.8104  0.3607
   93MOL0     H12554  11.560   9.213   0.907  1.3709  0.6753  0.4582
   93MOL0     H12555  11.368   9.300   0.807  0.3276 -0.1141 -0.6095
   94MOL0     O12556   9.085   5.181   3.831  0.0945 -0.1157 -0.2104
   94MOL0     C12557   9.000   5.257   3.796  0.2612 -0.1477  0.2359
   94MOL0     O12558   8.873   5.278   3.858  0.1611 -0.6303 -0.4422
   94MOL0     C12559   8.859   5.219   3.977  0.1347  0.9854 -1.1172
   94MOL0     C12560   8.881   5.292   4.091  0.1619  0.0936  0.1204
   94MOL0     C12561   8.857   5.237   4.216 -0.6759  0.0172  0.4638
   94MOL0     C12562   8.811   5.112   4.237  0.3909 -0.0428  0.3962
   94MOL0     O12563   8.776   5.054   4.348 -0.3087 -0.1171  0.3054
   94MOL0     C12564   8.835   5.110   4.472 -0.0612 -0.4037  0.4719
   94MOL0     C12565   8.722   5.195   4.534  0.1211 -0.6494  0.2846
   94MOL0     C12566   8.631   5.125   4.638  0.3054 -1.1362  0.0926
   94MOL0     C12567   8.703   5.099   4.771 -0.0231  0.6260 -1.2191
   94MOL0     C12568   8.591   5.049   4.882 -0.8119 -0.0645  0.4246
   94MOL0     C12569   8.543   4.909   4.861 -1.0358 -0.2831  0.1337
   94MOL0     C12570   8.460   4.858   4.975  0.0203 -0.5882  0.2310
   94MOL0     C12571   8.528   4.840   5.113  0.5628  0.5650 -0.1907
   94MOL0     N12572   8.439   4.803   5.221  0.0871  0.5926 -0.4245
   94MOL0     C12573   8.408   4.673   5.239  0.1936 -0.0959  0.6557
   94MOL0     C12574   8.288   4.675   5.308 -0.2555 -0.4694  0.4771
   94MOL0     C12575   8.221   4.557   5.358 -0.5392  1.0585 -0.2518
   94MOL0     C12576   8.074   4.557   5.308  0.3524 -0.0675 -0.5757
   94MOL0     C12577   8.061   4.544   5.162 -0.2217  0.0142 -1.1611
   94MOL0     C12578   7.914   4.574   5.121  0.8905  0.4040  0.0498
   94MOL0     O12579   7.854   4.452   5.158 -0.2339  0.5173  0.4692
   94MOL0     C12580   7.720   4.451   5.154  0.1301  0.0989 -0.5631
   94MOL0     C12581   7.659   4.413   5.268 -0.2001 -0.2988 -0.9664
   94MOL0     C12582   7.514   4.398   5.290  0.6850  0.0043 -0.0436
   94MOL0     C12583   7.472   4.360   5.427  0.2370  0.2080 -0.6488
   94MOL0     C12584   7.430   4.423   5.179  0.0830 -0.0988 -0.1446
   94MOL0     C12585   7.285   4.426   5.180 -0.4099  0.7992 -0.0764
   94MOL0     O12586   7.221   4.471   5.068  0.3800 -0.5563  0.0536
   94MOL0     C12587   7.083   4.477   5.072  0.5533 -0.1976 -0.0713
   94MOL0     C12588   7.005   4.578   5.134 -0.5915 -0.5451 -0.1585
   94MOL0     C12589   6.866   4.580   5.121  0.3009  0.3722 -0.3889
   94MOL0     C12590   6.799   4.473   5.053  0.3087  0.1877 -0.3520
   94MOL0     O12591   6.658   4.479   5.048 -0.6240  0.2925  0.2485
   94MOL0     C12592   6.592   4.350   5.067 -0.0559  0.2249  0.5633
   94MOL0     C12593   6.450   4.381   5.110  0.4018 -0.7794 -0.1805
   94MOL0     C12594   6.363   4.260   5.063  0.1488  0.2172  0.1032
   94MOL0     C12595   6.232   4.246   5.149 -0.3076 -0.6385 -0.4785
   94MOL0     C12596   6.145   4.130   5.116 -0.4795  0.2448  0.9879
   94MOL0     C12597   5.998   4.168   5.148 -0.6267  1.0358  0.5958
   94MOL0     C12598   5.911   4.040   5.153 -0.5622 -0.6544  0.2203
   94MOL0     C12599   5.821   4.037   5.290 -0.8937  0.2368  0.2561
   94MOL0    Cl12600   5.677   4.138   5.268 -0.5257  0.0340  0.0572
   94MOL0     C12601   6.879   4.368   5.001 -0.9443 -0.5961 -0.6182
   94MOL0     C12602   7.015   4.364   5.013  0.2691 -0.0231  0.1176
   94MOL0     O12603   7.224   4.403   5.284  0.2866  0.7125 -0.2153
   94MOL0     C12604   7.496   4.469   5.061 -0.2781  0.2751  0.0870
   94MOL0     C12605   7.637   4.476   5.044 -0.0146  0.5951 -0.2615
   94MOL0     N12606   8.260   4.808   5.339  0.8227  0.3808  0.1530
   94MOL0     N12607   8.353   4.879   5.287  0.2477 -0.1297  0.4440
   94MOL0     C12608   8.792   5.036   4.122  0.3223  0.5379  0.0150
   94MOL0     C12609   8.815   5.082   3.987 -0.0631 -1.4470  0.0166
   94MOL0     C12610   9.019   5.326   3.662 -1.0423  0.7869  1.0873
   94MOL0     C12611   8.928   5.428   3.618 -0.2520 -0.1315 -0.6674
   94MOL0     C12612   8.952   5.497   3.501 -0.1160  0.1083 -0.5525
   94MOL0     C12613   9.058   5.460   3.419  1.0489 -0.0490  0.5387
   94MOL0     O12614   9.079   5.520   3.294 -0.6021 -0.1551  0.2170
   94MOL0     C12615   9.133   5.653   3.311 -0.0100  0.7777 -0.1654
   94MOL0     C12616   9.197   5.698   3.177 -0.3874  0.5711 -0.2613
   94MOL0     C12617   9.096   5.728   3.061  0.2679 -0.1319 -0.6280
   94MOL0     C12618   9.153   5.823   2.962 -0.4714  0.3429  0.7220
   94MOL0     C12619   9.080   5.814   2.837 -0.2180  0.4568 -0.2058
   94MOL0     C12620   9.000   5.797   2.743  0.2781 -0.4681 -0.7595
   94MOL0     C12621   9.135   5.354   3.449 -0.7801 -0.1917 -0.1042
   94MOL0     C12622   9.126   5.288   3.574 -0.0507 -0.1230 -0.2480
   94MOL0     H12623   8.922   5.392   4.086  2.6461 -0.7565  1.8220
   94MOL0     H12624   8.874   5.303   4.301  2.9325  1.9787 -1.5478
   94MOL0     H12625   8.874   5.026   4.530 -1.1922 -1.4275 -0.2137
   94MOL0     H12626   8.926   5.166   4.449  0.4643 -2.6100 -3.8523
   94MOL0     H12627   8.767   5.280   4.585  2.0290 -2.5111  1.9001
   94MOL0     H12628   8.671   5.255   4.458  2.0673  2.2388  1.1195
   94MOL0     H12629   8.535   5.175   4.657  2.1296  4.4462 -2.9599
   94MOL0     H12630   8.615   5.025   4.598  1.4860 -1.0902 -0.5127
   94MOL0     H12631   8.779   5.023   4.751  0.0871  0.9035 -1.8656
   94MOL0     H12632   8.752   5.192   4.801  0.3259  0.0290  0.1584
   94MOL0     H12633   8.633   5.054   4.983 -0.8579 -0.7036  0.4742
   94MOL0     H12634   8.507   5.117   4.901 -1.0883 -0.3962  0.3855
   94MOL0     H12635   8.490   4.913   4.765  2.4593  2.5980 -1.9471
   94MOL0     H12636   8.634   4.851   4.843  0.0100  1.0851  0.8889
   94MOL0     H12637   8.379   4.928   4.998  0.5230  0.4140 -0.9217
   94MOL0     H12638   8.415   4.764   4.943 -1.2600  0.0390  0.1523
   94MOL0     H12639   8.568   4.939   5.137 -0.7495  1.3853 -1.2346
   94MOL0     H12640   8.616   4.776   5.108  0.9728  0.9107  1.7859
   94MOL0     H12641   8.465   4.583   5.219 -2.5697 -2.6110  3.1236
   94MOL0     H12642   8.278   4.468   5.329 -1.0279  0.3348  0.9319
   94MOL0     H12643   8.210   4.569   5.466 -0.9742  3.9267 -0.5361
   94MOL0     H12644   8.026   4.649   5.343  0.8664 -0.0906  0.2303
   94MOL0     H12645   8.018   4.471   5.344  3.2303 -2.2536 -0.9487
   94MOL0     H12646   8.111   4.448   5.142  0.7090 -0.1281  1.4562
   94MOL0     H12647   8.118   4.624   5.114 -2.9520  1.8875 -1.4789
   94MOL0     H12648   7.896   4.591   5.014 -0.8442  2.1777  0.5533
   94MOL0     H12649   7.867   4.657   5.174 -1.6233 -0.4650 -0.6806
   94MOL0     H12650   7.713   4.394   5.360  1.9323  0.5000 -1.9998
   94MOL0     H12651   7.558   4.347   5.493 -0.3685  0.7529  0.2767
   94MOL0     H12652   7.409   4.440   5.468  0.3508  0.8426 -1.6617
   94MOL0     H12653   7.430   4.259   5.437  0.8153  0.0765  0.6909
   94MOL0     H12654   7.054   4.663   5.181  0.8330 -2.4141  1.9848
   94MOL0     H12655   6.802   4.660   5.156 -0.0517  0.0257 -0.2318
   94MOL0     H12656   6.580   4.282   4.983 -3.0991 -0.4496  1.4300
   94MOL0     H12657   6.651   4.293   5.140 -0.8170  0.8068  1.6576
   94MOL0     H12658   6.436   4.408   5.215 -2.5512  2.0638 -1.1534
   94MOL0     H12659   6.418   4.470   5.055  1.6876  1.0188  1.8704
   94MOL0     H12660   6.418   4.165   5.061 -0.7096 -0.2883 -1.0238
   94MOL0     H12661   6.321   4.279   4.963  0.6103  0.2053 -0.0923
   94MOL0     H12662   6.268   4.224   5.251  0.5917  0.9492 -0.4118
   94MOL0     H12663   6.183   4.343   5.142  1.2766  0.4127  1.5419
   94MOL0     H12664   6.166   4.035   5.166 -1.2054  0.1997  1.2326
   94MOL0     H12665   6.149   4.108   5.009 -0.6034  0.6558  0.8979
   94MOL0     H12666   5.989   4.218   5.244  0.4893  1.8163  0.3080
   94MOL0     H12667   5.956   4.236   5.073  0.5141 -0.9306 -1.9994
   94MOL0     H12668   5.966   3.947   5.137 -0.4055 -0.8358  1.6900
   94MOL0     H12669   5.844   4.046   5.066  0.3004 -0.1083 -0.4167
   94MOL0     H12670   5.885   4.069   5.372 -2.4182  1.2265  1.1093
   94MOL0     H12671   5.784   3.941   5.328 -2.5887  0.4199 -0.8196
   94MOL0     H12672   6.847   4.277   4.951 -1.0393 -1.8517  1.5911
   94MOL0     H12673   7.069   4.276   4.979  1.1837  1.1165 -1.5250
   94MOL0     H12674   7.437   4.509   4.979 -0.2535 -3.8939 -2.2207
   94MOL0     H12675   7.681   4.518   4.953  0.6855 -1.5483 -0.9896
   94MOL0     H12676   8.765   4.932   4.138  3.7134 -0.2886  1.0401
   94MOL0     H12677   8.795   5.019   3.901 -0.7967  1.1629 -1.8540
   94MOL0     H12678   8.846   5.445   3.687  1.1718 -2.2169  1.7104
   94MOL0     H12679   8.889   5.585   3.485 -0.7720 -0.1498  0.5492
   94MOL0     H12680   9.062   5.726   3.351  0.1044  0.9455 -0.2648
   94MOL0     H12681   9.219   5.645   3.378 -1.1240 -3.5880  1.1001
   94MOL0     H12682   9.266   5.623   3.138 -0.5629  0.2242  0.0774
   94MOL0     H12683   9.244   5.792   3.206  1.1952 -0.2618 -0.0388
   94MOL0     H12684   9.008   5.769   3.110 -0.2316  2.1254 -3.1710
   94MOL0     H12685   9.056   5.639   3.011  0.8382 -1.3748  1.0353
   94MOL0     H12686   9.257   5.794   2.949  0.2893  2.2713  1.9667
   94MOL0     H12687   9.145   5.920   3.013 -0.6840 -0.9079  3.2311
   94MOL0     H12688   8.928   5.791   2.664 -2.7648  2.9462  1.4101
   94MOL0     H12689   9.202   5.325   3.369 -0.2270 -1.1408  0.6656
   94MOL0     H12690   9.184   5.201   3.603 -2.2324 -1.7669 -0.5616
   95MOL0     O12691   8.723   1.184   2.070 -0.0390 -0.1731 -0.3581
   95MOL0     C12692   8.791   1.105   2.000  0.3243 -0.2982 -0.4143
   95MOL0     O12693   8.925   1.089   2.009 -0.2272  0.9933  0.0315
   95MOL0     C12694   8.996   1.182   2.074 -0.5115 -1.0043  0.0276
   95MOL0     C12695   9.014   1.178   2.209  0.0266 -0.3280 -0.1708
   95MOL0     C12696   9.103   1.264   2.277 -0.5306  0.1634  0.7811
   95MOL0     C12697   9.165   1.371   2.211 -0.7462 -0.2117 -0.2707
   95MOL0     O12698   9.244   1.464   2.281 -0.8056  0.0223 -0.8632
   95MOL0     C12699   9.267   1.601   2.235 -0.5469 -0.0026  0.3704
   95MOL0     C12700   9.140   1.694   2.278  0.5650  1.1612 -0.5950
   95MOL0     C12701   9.169   1.843   2.260 -0.4234  0.2141  0.6377
   95MOL0     C12702   9.053   1.929   2.327  0.2930 -0.3351 -0.5405
   95MOL0     C12703   9.056   2.079   2.306 -0.1773 -0.6849  0.6592
   95MOL0     C12704   9.191   2.160   2.348  0.4311  0.3577  0.6613
   95MOL0     C12705   9.202   2.168   2.496 -1.1157 -0.5809 -0.1200
   95MOL0     C12706   9.355   2.175   2.545  0.3909 -0.4721 -0.4993
   95MOL0     N12707   9.419   2.047   2.543 -0.4869 -0.3129  0.0829
   95MOL0     C12708   9.408   1.958   2.640  0.4610  0.1317  0.6143
   95MOL0     C12709   9.460   1.846   2.584 -0.4405 -0.4074 -0.1959
   95MOL0     C12710   9.489   1.714   2.655  0.2472 -0.8848  0.4317
   95MOL0     C12711   9.394   1.593   2.627  0.2063 -0.6158 -0.7472
   95MOL0     C12712   9.247   1.612   2.670 -0.2064  0.7281 -0.0847
   95MOL0     C12713   9.211   1.610   2.821 -0.6945  0.1389  0.5099
   95MOL0     O12714   9.242   1.733   2.889 -1.0787  0.2524 -1.1102
   95MOL0     C12715   9.166   1.848   2.869  0.3599  0.4290  0.8060
   95MOL0     C12716   9.209   1.954   2.947  0.4546  0.1034 -0.1038
   95MOL0     C12717   9.146   2.074   2.951  0.3328 -0.3919  0.3013
   95MOL0     C12718   9.216   2.188   3.023 -0.4603  0.7550  0.3849
   95MOL0     C12719   9.039   2.098   2.861 -0.0658  0.8033  0.1509
   95MOL0     C12720   8.967   2.220   2.853 -0.0049  0.0739  1.0042
   95MOL0     O12721   8.993   2.314   2.951 -0.0906 -0.3640 -0.2505
   95MOL0     C12722   8.910   2.427   2.967 -0.3198  0.0150  0.4729
   95MOL0     C12723   8.957   2.558   2.984  0.0194  0.7114  0.4800
   95MOL0     C12724   8.865   2.662   3.009 -0.5114 -0.4410  0.1705
   95MOL0     C12725   8.725   2.649   3.004  0.2002  0.1585 -0.1167
   95MOL0     O12726   8.643   2.763   3.018  0.0429 -0.3943  0.4383
   95MOL0     C12727   8.501   2.759   2.981  0.3237 -0.1550  0.2284
   95MOL0     C12728   8.450   2.894   2.985  0.3947 -0.3936 -0.0581
   95MOL0     C12729   8.303   2.894   2.950  0.3918  0.5621 -0.0528
   95MOL0     C12730   8.243   3.038   2.950 -0.4392 -0.2538  0.7576
   95MOL0     C12731   8.091   3.055   2.974 -0.4713  0.0015  0.5549
   95MOL0     C12732   8.058   3.202   2.984  0.7821  0.2421 -0.3736
   95MOL0     C12733   7.913   3.224   3.036  0.0671  0.0366  0.1186
   95MOL0     C12734   7.797   3.222   2.939  0.7726  0.2349  0.2544
   95MOL0    Cl12735   7.640   3.246   3.027 -0.4059  0.1302 -0.4034
   95MOL0     C12736   8.679   2.517   2.988  0.8169 -0.1688 -0.2733
   95MOL0     C12737   8.765   2.409   2.971 -0.4901 -1.0512  0.6740
   95MOL0     O12738   8.892   2.240   2.757 -0.3708 -0.0368  0.3596
   95MOL0     C12739   9.001   1.987   2.777  0.7998 -0.1234  0.3802
   95MOL0     C12740   9.061   1.858   2.779  1.3654  0.1323 -0.5184
   95MOL0     N12741   9.516   1.866   2.458  0.9715  0.2280 -0.8680
   95MOL0     N12742   9.481   1.989   2.432  0.3917 -0.8563 -0.0983
   95MOL0     C12743   9.142   1.390   2.077  0.1722 -0.2435 -0.9772
   95MOL0     C12744   9.056   1.293   2.012  0.2795  0.3545  0.4524
   95MOL0     C12745   8.729   1.027   1.893 -0.3987 -0.4655 -0.4826
   95MOL0     C12746   8.588   1.033   1.873 -0.5963 -0.2944  0.2123
   95MOL0     C12747   8.531   0.980   1.760 -0.5017 -0.3791 -0.7903
   95MOL0     C12748   8.599   0.914   1.664 -1.0057 -0.5309  0.1862
   95MOL0     O12749   8.518   0.868   1.570  0.5171  0.4106 -0.2472
   95MOL0     C12750   8.564   0.874   1.436 -0.4286 -0.1912  0.2093
   95MOL0     C12751   8.617   0.738   1.380 -0.5480 -0.3898 -0.4532
   95MOL0     C12752   8.609   0.724   1.232  0.1006  0.9873  1.3059
   95MOL0     C12753   8.696   0.633   1.149  0.2155  0.0309  0.2919
   95MOL0     C12754   8.731   0.504   1.203  1.1549  1.2100 -0.2814
   95MOL0     C12755   8.786   0.393   1.225 -0.1197 -0.5654 -0.2213
   95MOL0     C12756   8.737   0.904   1.678  0.6078 -0.0748  0.8576
   95MOL0     C12757   8.803   0.958   1.796 -0.0277  0.7528  0.1701
   95MOL0     H12758   8.965   1.103   2.272  2.2512 -0.0511  2.0493
   95MOL0     H12759   9.113   1.252   2.384  0.5596 -1.7423  0.5187
   95MOL0     H12760   9.348   1.638   2.297 -0.5505 -2.9325  2.3521
   95MOL0     H12761   9.289   1.605   2.128 -1.7874 -0.1807  0.0876
   95MOL0     H12762   9.050   1.678   2.219  0.6279 -1.2007 -0.1583
   95MOL0     H12763   9.114   1.677   2.383 -2.2494 -2.2270 -1.6404
   95MOL0     H12764   9.265   1.874   2.302  0.8323 -0.3368 -1.6624
   95MOL0     H12765   9.162   1.872   2.154 -1.0147  2.7946  1.3185
   95MOL0     H12766   8.957   1.896   2.285 -0.2495  1.4388 -0.7632
   95MOL0     H12767   9.038   1.904   2.432  3.2978  1.7854  0.5233
   95MOL0     H12768   9.035   2.101   2.201  2.2356  2.8242  0.7163
   95MOL0     H12769   8.973   2.116   2.367  0.2626  0.4589  0.5900
   95MOL0     H12770   9.265   2.103   2.290 -0.3374 -0.0803  0.0873
   95MOL0     H12771   9.198   2.258   2.299 -1.2689  1.0923  1.7907
   95MOL0     H12772   9.148   2.262   2.517  0.2834  0.5263 -1.2896
   95MOL0     H12773   9.148   2.090   2.550  2.1068 -2.1757  1.0090
   95MOL0     H12774   9.354   2.216   2.646  0.2945  1.0424 -1.0844
   95MOL0     H12775   9.410   2.250   2.487 -0.1783  1.4505  1.3045
   95MOL0     H12776   9.361   1.985   2.734  0.3540 -1.0430  0.9151
   95MOL0     H12777   9.597   1.703   2.639  0.1209 -0.2003 -1.0347
   95MOL0     H12778   9.465   1.735   2.760  1.3282  1.6281  0.2432
   95MOL0     H12779   9.428   1.509   2.687 -2.8120 -1.1187  0.4458
   95MOL0     H12780   9.409   1.572   2.520  3.3016  0.4573 -0.6383
   95MOL0     H12781   9.198   1.526   2.625 -0.1177  0.5229  0.2053
   95MOL0     H12782   9.218   1.708   2.625 -0.5953  0.4941 -0.3353
   95MOL0     H12783   9.269   1.531   2.869  0.7689  0.7262 -0.2395
   95MOL0     H12784   9.105   1.584   2.829 -0.6938  0.5189  2.1687
   95MOL0     H12785   9.290   1.940   3.018 -0.2138  1.5623  0.9872
   95MOL0     H12786   9.306   2.149   3.072 -0.6639  0.7291  0.7432
   95MOL0     H12787   9.252   2.268   2.957  0.7978  0.2035  0.3686
   95MOL0     H12788   9.155   2.226   3.106  0.1792  1.0321  0.7344
   95MOL0     H12789   9.061   2.581   3.002  0.4409 -2.6722  3.3425
   95MOL0     H12790   8.911   2.761   3.001 -1.6058 -0.0880 -2.4205
   95MOL0     H12791   8.485   2.713   2.883  1.4669  1.1896 -0.6145
   95MOL0     H12792   8.444   2.692   3.047  0.8850  1.1351  2.0987
   95MOL0     H12793   8.471   2.944   3.079 -0.8011 -0.2405  0.1529
   95MOL0     H12794   8.500   2.947   2.903  0.7552 -2.8603 -1.5341
   95MOL0     H12795   8.250   2.833   3.024 -0.6356  0.9332 -0.4561
   95MOL0     H12796   8.291   2.856   2.848  0.4210  0.5584 -0.0546
   95MOL0     H12797   8.302   3.100   3.019 -0.0325  3.0230 -2.2843
   95MOL0     H12798   8.260   3.072   2.848 -3.8594 -0.8563 -0.1331
   95MOL0     H12799   8.079   3.012   3.074  0.1874  0.2636  0.7496
   95MOL0     H12800   8.041   3.001   2.893 -0.0975 -1.2312  1.1186
   95MOL0     H12801   8.125   3.247   3.058 -1.0089 -0.0982  1.5263
   95MOL0     H12802   8.062   3.254   2.887 -1.5960  1.9578  0.3350
   95MOL0     H12803   7.904   3.326   3.074 -1.0012 -0.8670  2.4609
   95MOL0     H12804   7.889   3.156   3.118 -0.1523 -1.5378 -1.1869
   95MOL0     H12805   7.784   3.128   2.884 -0.2413 -0.3114  1.4016
   95MOL0     H12806   7.804   3.302   2.865 -4.1239 -0.0689 -0.8591
   95MOL0     H12807   8.571   2.503   2.994  0.5507  1.9797  1.2630
   95MOL0     H12808   8.711   2.315   2.962 -0.7960 -0.8069 -0.1548
   95MOL0     H12809   8.923   1.999   2.703  1.7890 -1.0782 -0.8732
   95MOL0     H12810   9.031   1.780   2.710 -1.8530  0.3346  0.4921
   95MOL0     H12811   9.179   1.472   2.017  0.8541 -0.3629 -0.7315
   95MOL0     H12812   9.042   1.324   1.909  3.4917 -0.9033 -0.4794
   95MOL0     H12813   8.521   1.083   1.942 -0.1421 -0.4728  0.7887
   95MOL0     H12814   8.423   0.987   1.756 -0.6156 -1.1473  0.4371
   95MOL0     H12815   8.472   0.898   1.383 -2.8965 -3.7472  2.4423
   95MOL0     H12816   8.644   0.947   1.422 -0.3154 -0.8166 -3.6886
   95MOL0     H12817   8.567   0.660   1.438 -0.3766  2.2568  3.6430
   95MOL0     H12818   8.725   0.724   1.392 -0.6782 -3.5416 -1.9607
   95MOL0     H12819   8.609   0.822   1.183 -1.3087  0.0114 -0.7947
   95MOL0     H12820   8.508   0.692   1.208 -1.0026  4.6558  0.4541
   95MOL0     H12821   8.784   0.687   1.114 -0.3067  0.5535 -0.2460
   95MOL0     H12822   8.636   0.612   1.060  0.6758 -1.3544  0.2944
   95MOL0     H12823   8.823   0.294   1.243 -2.2333 -1.1121  1.5809
   95MOL0     H12824   8.817   0.869   1.614 -2.1015 -0.4789 -2.5762
   95MOL0     H12825   8.911   0.960   1.784  0.0855 -2.4620 -0.2991
   96MOL0     O12826   1.778   9.658   0.053  0.5126  0.5240 -0.8038
   96MOL0     C12827   1.808   9.762   0.108 -1.4293  0.4133  0.1257
   96MOL0     O12828   1.930   9.788   0.161 -0.5326  0.5471  0.1565
   96MOL0     C12829   2.017   9.678   0.150 -0.4952 -0.7324 -0.6360
   96MOL0     C12830   2.061   9.637   0.022  0.0509 -0.3836 -1.1685
   96MOL0     C12831   2.151   9.529   0.019 -0.6468 -0.3380 -0.1137
   96MOL0     C12832   2.213   9.475   0.125 -0.5198 -0.1499 -0.8780
   96MOL0     O12833   2.301   9.373   0.099 -0.3388  0.4542 -0.0721
   96MOL0     C12834   2.421   9.355   0.194 -0.6638 -0.0774  0.8304
   96MOL0     C12835   2.499   9.226   0.141 -0.1112  0.3597  0.3465
   96MOL0     C12836   2.424   9.099   0.119  0.2335  0.2289 -0.8301
   96MOL0     C12837   2.314   9.061   0.224  0.0108  0.1928  0.3482
   96MOL0     C12838   2.387   9.032   0.357 -0.5446  0.1004 -0.1232
   96MOL0     C12839   2.317   8.944   0.453 -0.2062 -1.2744 -0.8708
   96MOL0     C12840   2.310   8.800   0.412 -0.3251 -0.7381  0.0514
   96MOL0     C12841   2.220   8.725   0.510  0.8102 -0.4710 -1.5429
   96MOL0     N12842   2.076   8.729   0.481 -0.0248 -0.0525 -0.6218
   96MOL0     C12843   2.012   8.676   0.372 -1.0514 -0.0077  0.6800
   96MOL0     C12844   1.877   8.679   0.386  0.1098  0.3174  0.5204
   96MOL0     C12845   1.784   8.635   0.269 -0.0369 -0.1953  0.5671
   96MOL0     C12846   1.651   8.699   0.285  0.2084 -0.7837 -0.4215
   96MOL0     C12847   1.555   8.652   0.180 -0.6277 -0.1579 -0.3376
   96MOL0     C12848   1.415   8.721   0.179  0.1202  0.0835  1.3265
   96MOL0     O12849   1.354   8.702   0.307 -0.7124 -0.1642 -0.0108
   96MOL0     C12850   1.230   8.758   0.321 -1.2789 -0.5170  1.0205
   96MOL0     C12851   1.175   8.766   0.452 -0.5078  0.4554  1.3648
   96MOL0     C12852   1.037   8.808   0.465 -0.2138 -0.5461 -0.7646
   96MOL0     C12853   0.978   8.799   0.606  0.5863 -0.2083  0.1877
   96MOL0     C12854   0.970   8.847   0.349  0.3307 -0.1353 -0.4546
   96MOL0     C12855   0.831   8.892   0.359 -0.6643 -0.9845  0.8550
   96MOL0     O12856   0.790   8.976   0.249 -0.0537 -0.5956 -0.4483
   96MOL0     C12857   0.661   8.977   0.210 -0.1208  0.0290 -0.0889
   96MOL0     C12858   0.616   9.098   0.157 -0.0871  0.7539 -0.2845
   96MOL0     C12859   0.484   9.103   0.110 -0.2109  0.5034  0.0691
   96MOL0     C12860   0.400   8.986   0.097 -0.3448  0.0084 -0.0169
   96MOL0     O12861   0.270   9.007   0.046 -1.0536  0.5985  0.2686
   96MOL0     C12862   0.223   8.887  -0.023 -0.4459  0.3147 -0.0606
   96MOL0     C12863   0.105   8.903  -0.124 -0.4180 -0.6983 -0.6726
   96MOL0     C12864  -0.027   8.924  -0.061  0.7102  0.4354  0.1672
   96MOL0     C12865  -0.139   8.929  -0.171 -1.3147  0.3011 -0.7035
   96MOL0     C12866  -0.268   8.971  -0.104 -0.1065 -0.2768 -0.3340
   96MOL0     C12867  -0.384   9.002  -0.202  0.3280  0.4310  0.4351
   96MOL0     C12868  -0.427   8.883  -0.283  0.3980 -0.8259  0.2765
   96MOL0     C12869  -0.566   8.904  -0.348  0.4944  0.4736 -0.2237
   96MOL0    Cl12870  -0.577   8.754  -0.439  0.2680  0.3930  0.2252
   96MOL0     C12871   0.450   8.869   0.156 -0.7948  0.1338 -0.4921
   96MOL0     C12872   0.575   8.871   0.214  0.2204  0.3584 -0.0941
   96MOL0     O12873   0.757   8.841   0.437  0.3152 -0.2577 -0.2613
   96MOL0     C12874   1.024   8.839   0.221 -0.4435 -0.8567  0.2157
   96MOL0     C12875   1.153   8.799   0.209 -0.8953  0.6531 -0.3819
   96MOL0     N12876   1.854   8.737   0.514 -0.4995  0.4790 -1.3289
   96MOL0     N12877   1.979   8.762   0.568  0.1868 -0.4396  0.4636
   96MOL0     C12878   2.176   9.528   0.244 -0.0557 -0.4075 -0.0769
   96MOL0     C12879   2.079   9.627   0.262 -0.6175 -0.2771 -0.7641
   96MOL0     C12880   1.710   9.864   0.120  0.1923 -0.3613 -0.4829
   96MOL0     C12881   1.571   9.836   0.099  0.1758  1.3825  0.7176
   96MOL0     C12882   1.478   9.940   0.104 -1.4622  0.9989 -0.4992
   96MOL0     C12883   1.517  10.065   0.141  0.1164 -0.6618 -0.2097
   96MOL0     O12884   1.416  10.164   0.138 -0.2485  0.0769 -0.0160
   96MOL0     C12885   1.416  10.250   0.024  0.6534  0.0706  0.0557
   96MOL0     C12886   1.350  10.388   0.056 -0.0633 -0.9981 -0.3882
   96MOL0     C12887   1.450  10.499   0.045  0.4872 -0.1574 -0.6683
   96MOL0     C12888   1.538  10.518   0.175 -0.5131 -0.6386 -0.0441
   96MOL0     C12889   1.607  10.647   0.173  0.5634 -0.1964 -0.0643
   96MOL0     C12890   1.672  10.747   0.187 -1.1531 -0.2629  0.3447
   96MOL0     C12891   1.654  10.091   0.177 -0.0433 -0.6359  0.8248
   96MOL0     C12892   1.749   9.993   0.163 -0.0111 -0.8700  0.3007
   96MOL0     H12893   2.029   9.685  -0.070  2.3189 -0.1639 -1.9077
   96MOL0     H12894   2.194   9.505  -0.077  1.2236  2.6037 -0.1383
   96MOL0     H12895   2.491   9.439   0.191 -0.1435 -0.5056  0.7511
   96MOL0     H12896   2.382   9.331   0.293 -0.8435 -3.7480  0.0227
   96MOL0     H12897   2.532   9.248   0.039 -2.1582  0.1219 -0.4024
   96MOL0     H12898   2.592   9.212   0.197  0.5393 -0.2955 -0.8733
   96MOL0     H12899   2.369   9.105   0.025  0.3636 -1.3133 -1.0235
   96MOL0     H12900   2.501   9.022   0.104 -0.3900 -0.7797  0.9506
   96MOL0     H12901   2.247   9.148   0.227 -0.1214  0.1340 -0.5850
   96MOL0     H12902   2.248   8.979   0.196 -4.7612  3.2594  1.3280
   96MOL0     H12903   2.494   9.011   0.349 -0.1579  0.5097  2.9221
   96MOL0     H12904   2.381   9.122   0.419 -1.4698  1.3947 -2.0054
   96MOL0     H12905   2.364   8.957   0.551 -0.7259  1.7997 -0.9260
   96MOL0     H12906   2.214   8.981   0.460 -0.2272 -1.1453 -1.7673
   96MOL0     H12907   2.275   8.779   0.311 -1.2906 -3.7741  0.9099
   96MOL0     H12908   2.412   8.762   0.426  0.7927  1.9296 -0.2757
   96MOL0     H12909   2.235   8.753   0.614  1.6785 -1.6168 -1.3379
   96MOL0     H12910   2.252   8.620   0.506 -2.0668 -1.5111 -0.0377
   96MOL0     H12911   2.062   8.630   0.287 -2.1998 -0.2045  0.0877
   96MOL0     H12912   1.822   8.654   0.168 -2.5047 -1.4489 -0.6868
   96MOL0     H12913   1.766   8.528   0.281 -0.8191  0.1466  2.9157
   96MOL0     H12914   1.653   8.808   0.274 -1.2539 -0.5972  0.7689
   96MOL0     H12915   1.614   8.684   0.387  1.1522 -3.2255 -0.3854
   96MOL0     H12916   1.533   8.546   0.197 -0.4269  0.0162  1.1072
   96MOL0     H12917   1.605   8.664   0.083  2.2864  2.5513  1.3004
   96MOL0     H12918   1.356   8.669   0.103 -0.2466  2.7721 -0.3671
   96MOL0     H12919   1.413   8.829   0.163 -2.3704  0.0890  1.2406
   96MOL0     H12920   1.241   8.718   0.523 -0.2235 -2.1119 -0.4908
   96MOL0     H12921   0.934   8.896   0.631  1.7666  1.0484 -2.2286
   96MOL0     H12922   0.903   8.721   0.618 -1.4729  1.2305 -2.1615
   96MOL0     H12923   1.057   8.793   0.681  2.6404  0.4206 -1.7983
   96MOL0     H12924   0.676   9.187   0.172  0.0014  0.5489  0.6163
   96MOL0     H12925   0.442   9.198   0.078  1.2528  1.3476  0.5335
   96MOL0     H12926   0.306   8.854  -0.086 -0.4515 -2.4076  1.2338
   96MOL0     H12927   0.201   8.802   0.042  1.9244 -0.8707 -0.7106
   96MOL0     H12928   0.135   8.988  -0.187  1.5459 -1.2952 -0.6119
   96MOL0     H12929   0.112   8.815  -0.189  1.5195  0.1197 -1.6524
   96MOL0     H12930  -0.033   9.006   0.011  2.1540  1.0771 -0.4108
   96MOL0     H12931  -0.051   8.839   0.004 -3.0779  0.4172 -0.9857
   96MOL0     H12932  -0.110   9.001  -0.248 -0.3719  1.0017  0.2708
   96MOL0     H12933  -0.142   8.828  -0.212  0.8180 -1.2525  2.5642
   96MOL0     H12934  -0.254   9.066  -0.050  0.2529 -0.6508  0.2422
   96MOL0     H12935  -0.298   8.897  -0.030  1.6477  0.5718  1.3269
   96MOL0     H12936  -0.466   9.049  -0.147  0.0065  3.5853 -2.3837
   96MOL0     H12937  -0.341   9.079  -0.267 -0.4960 -0.1945 -0.8905
   96MOL0     H12938  -0.434   8.800  -0.211 -2.1816 -0.2544  0.7945
   96MOL0     H12939  -0.349   8.867  -0.358 -0.6034  2.0124 -1.5178
   96MOL0     H12940  -0.575   8.994  -0.409 -0.8898  1.0637  0.7984
   96MOL0     H12941  -0.633   8.914  -0.262  1.8781  0.4753  0.8922
   96MOL0     H12942   0.388   8.780   0.152  0.0892 -0.4671 -1.1866
   96MOL0     H12943   0.604   8.775   0.256 -2.2586 -0.4742 -0.1258
   96MOL0     H12944   0.970   8.865   0.131  0.3668  2.2057  0.4921
   96MOL0     H12945   1.193   8.792   0.109  0.8544 -2.1821  0.3878
   96MOL0     H12946   2.224   9.491   0.334  1.8007  0.9006 -0.4600
   96MOL0     H12947   2.036   9.658   0.356 -1.7076  0.3660 -1.4558
   96MOL0     H12948   1.550   9.732   0.075 -2.9304  2.2067 -0.6239
   96MOL0     H12949   1.378   9.926   0.066 -0.6509 -1.6501 -1.9321
   96MOL0     H12950   1.504  10.260  -0.040  0.6521  0.0280  0.0449
   96MOL0     H12951   1.344  10.221  -0.054  0.0960  2.9805 -0.6310
   96MOL0     H12952   1.303  10.397   0.154  1.1072 -3.2288  0.4527
   96MOL0     H12953   1.271  10.412  -0.015 -1.0307  0.8680  1.2285
   96MOL0     H12954   1.387  10.588   0.046 -1.2948 -1.3680 -0.1660
   96MOL0     H12955   1.510  10.503  -0.046  0.5201  1.4451 -0.6134
   96MOL0     H12956   1.606  10.434   0.193  1.3305  0.8843  0.4717
   96MOL0     H12957   1.488  10.525   0.272 -0.2510 -0.4566  0.0809
   96MOL0     H12958   1.745  10.825   0.184  0.7150 -1.9754 -0.5820
   96MOL0     H12959   1.696  10.187   0.207  0.6994 -0.6819 -0.0109
   96MOL0     H12960   1.852  10.021   0.185  0.1936  0.1397 -1.7333
   97MOL0     O12961   0.377   1.562   3.345  0.4474 -0.3381 -0.0779
   97MOL0     C12962   0.410   1.538   3.460  0.0369  0.2197  0.3090
   97MOL0     O12963   0.337   1.457   3.553  0.1169 -0.3506 -0.0312
   97MOL0     C12964   0.241   1.373   3.509 -0.1559 -0.2975 -0.5531
   97MOL0     C12965   0.110   1.386   3.559  0.1743 -0.3618 -0.6935
   97MOL0     C12966   0.005   1.310   3.504 -0.7191  0.3636 -0.1224
   97MOL0     C12967   0.026   1.220   3.402 -0.8299 -0.2534 -0.1028
   97MOL0     O12968  -0.080   1.174   3.340 -0.2994  1.1108 -0.7204
   97MOL0     C12969  -0.066   1.031   3.329 -0.2397 -1.0122 -0.6060
   97MOL0     C12970  -0.207   0.980   3.283  0.0088 -0.5134  0.5313
   97MOL0     C12971  -0.206   0.839   3.222 -0.8137 -0.3608  0.3200
   97MOL0     C12972  -0.310   0.804   3.116 -0.3031  0.6624  0.1299
   97MOL0     C12973  -0.316   0.653   3.084  0.0516 -0.0799 -0.6618
   97MOL0     C12974  -0.425   0.624   2.978 -0.6404 -0.3427  0.1197
   97MOL0     C12975  -0.387   0.534   2.859  0.3501 -0.7182  0.2058
   97MOL0     C12976  -0.307   0.402   2.887  0.3694 -0.0461  0.6637
   97MOL0     N12977  -0.397   0.298   2.936 -0.2812  0.6458 -0.0475
   97MOL0     C12978  -0.521   0.274   2.884 -0.6377  1.0538  0.2900
   97MOL0     C12979  -0.585   0.208   2.988 -0.4325 -0.0177  1.2370
   97MOL0     C12980  -0.732   0.192   2.985  0.2541  0.8343  0.0258
   97MOL0     C12981  -0.769   0.044   2.990 -0.4072  0.6817 -0.1026
   97MOL0     C12982  -0.730  -0.034   3.125  0.5081  0.2675  0.6653
   97MOL0     C12983  -0.798   0.022   3.246 -0.2183  0.1633 -0.4782
   97MOL0     O12984  -0.918   0.097   3.232 -0.0498 -0.1376  0.3898
   97MOL0     C12985  -1.032   0.032   3.201 -0.1022  0.5876 -0.8913
   97MOL0     C12986  -1.150   0.101   3.176  0.4917 -0.4428 -0.2177
   97MOL0     C12987  -1.275   0.050   3.144  0.0030  0.2160 -0.4605
   97MOL0     C12988  -1.393   0.151   3.163 -0.6830 -0.1480  0.7091
   97MOL0     C12989  -1.295  -0.086   3.144 -0.0492  0.1808 -0.0268
   97MOL0     C12990  -1.428  -0.158   3.137 -0.0563 -0.6642  0.6165
   97MOL0     O12991  -1.529  -0.096   3.081 -0.1312  0.6789  0.2695
   97MOL0     C12992  -1.656  -0.137   3.103  0.1747 -0.3478  0.3854
   97MOL0     C12993  -1.727  -0.061   3.190  0.0963 -0.3673 -0.3190
   97MOL0     C12994  -1.856  -0.091   3.221  0.8477 -0.5028  0.9689
   97MOL0     C12995  -1.913  -0.205   3.153 -0.0891  0.6065  0.4085
   97MOL0     O12996  -2.042  -0.249   3.179  0.1045  0.6527  0.1075
   97MOL0     C12997  -2.091  -0.275   3.314  0.8287  0.7916 -0.4327
   97MOL0     C12998  -2.184  -0.165   3.354  0.2056 -0.1195  0.7098
   97MOL0     C12999  -2.336  -0.190   3.306 -1.2678  0.5736 -0.0430
   97MOL0     C13000  -2.417  -0.059   3.324 -0.4745  0.8403  0.7573
   97MOL0     C13001  -2.563  -0.077   3.299 -0.4852  1.0977  0.1574
   97MOL0     C13002  -2.639   0.043   3.253  0.9531  0.0628 -0.1311
   97MOL0     C13003  -2.783  -0.002   3.269  0.3381 -0.2025 -0.1733
   97MOL0     C13004  -2.890   0.076   3.188 -0.2502  0.0615  1.0712
   97MOL0    Cl13005  -2.868   0.248   3.217 -0.3785  0.0747 -0.5425
   97MOL0     C13006  -1.839  -0.297   3.074  0.6234 -0.2791  0.1509
   97MOL0     C13007  -1.713  -0.259   3.053 -0.4025  0.3908  0.5585
   97MOL0     O13008  -1.429  -0.273   3.166  0.0539  0.6468 -0.9336
   97MOL0     C13009  -1.181  -0.162   3.172  0.0777 -0.9585  0.0757
   97MOL0     C13010  -1.057  -0.107   3.198  0.1989  0.0539  0.2969
   97MOL0     N13011  -0.500   0.191   3.097 -0.5755 -0.3618  0.5399
   97MOL0     N13012  -0.388   0.248   3.066 -0.3221 -0.7117  0.5211
   97MOL0     C13013   0.155   1.210   3.350 -0.9807  0.4222 -0.0138
   97MOL0     C13014   0.261   1.285   3.406  0.9725 -0.2557 -0.1575
   97MOL0     C13015   0.537   1.591   3.516  0.1450 -0.0459 -0.0842
   97MOL0     C13016   0.591   1.718   3.478  0.2604  0.8429 -0.6680
   97MOL0     C13017   0.716   1.762   3.534  0.9477  0.3578 -0.1600
   97MOL0     C13018   0.787   1.684   3.626  0.1388 -0.4562 -0.1518
   97MOL0     O13019   0.908   1.716   3.679  0.0709 -0.2342 -0.4807
   97MOL0     C13020   0.984   1.840   3.655  0.4611 -0.3090  0.0336
   97MOL0     C13021   1.035   1.911   3.789 -0.0305  0.1150  1.3516
   97MOL0     C13022   1.162   1.838   3.838 -0.6048  0.4663 -0.0195
   97MOL0     C13023   1.176   1.859   3.988  0.8652 -0.2588  0.0471
   97MOL0     C13024   1.304   1.796   4.050  0.6459  0.4098 -0.4524
   97MOL0     C13025   1.411   1.767   4.097 -0.9491  0.3399 -0.6065
   97MOL0     C13026   0.721   1.568   3.677  0.3854 -0.8042  0.2362
   97MOL0     C13027   0.597   1.522   3.619  0.1630  0.4704 -0.0563
   97MOL0     H13028   0.090   1.461   3.635 -1.1149 -1.0003 -0.3788
   97MOL0     H13029  -0.099   1.331   3.527 -0.9361  0.4817 -1.1628
   97MOL0     H13030   0.004   1.017   3.246 -0.4011  3.0771 -1.6507
   97MOL0     H13031  -0.044   0.975   3.420 -0.6886 -1.0851 -0.5447
   97MOL0     H13032  -0.274   0.982   3.369  0.2851 -1.0211  0.7599
   97MOL0     H13033  -0.248   1.049   3.208  0.2803 -2.6579 -1.7076
   97MOL0     H13034  -0.110   0.816   3.174 -1.3814 -0.3245 -0.8824
   97MOL0     H13035  -0.216   0.767   3.304  2.9087 -0.1149  1.1949
   97MOL0     H13036  -0.410   0.828   3.154 -2.4036 -1.6437 -3.4169
   97MOL0     H13037  -0.299   0.857   3.021 -0.8340  0.7314  0.1017
   97MOL0     H13038  -0.216   0.617   3.056 -0.2771 -1.8728  0.3000
   97MOL0     H13039  -0.346   0.601   3.175  1.6326 -1.7093 -1.0184
   97MOL0     H13040  -0.506   0.569   3.027 -1.8972  0.7159 -0.7087
   97MOL0     H13041  -0.457   0.726   2.955 -2.5943 -0.6096  1.3913
   97MOL0     H13042  -0.474   0.504   2.799  2.0180 -1.4783 -1.9329
   97MOL0     H13043  -0.312   0.576   2.792  0.1102 -0.6621 -0.0292
   97MOL0     H13044  -0.228   0.416   2.961  0.5007  2.3527  0.1591
   97MOL0     H13045  -0.258   0.359   2.799  0.0486  1.7664 -0.4425
   97MOL0     H13046  -0.560   0.305   2.788 -0.5047 -2.0669 -0.8903
   97MOL0     H13047  -0.770   0.250   3.069 -1.4521  1.5159 -1.1637
   97MOL0     H13048  -0.780   0.233   2.896 -0.0902 -2.4176 -1.4277
   97MOL0     H13049  -0.714  -0.006   2.909  2.2046  0.6905  1.5595
   97MOL0     H13050  -0.877   0.037   2.970  0.1596 -2.1004 -2.8816
   97MOL0     H13051  -0.623  -0.051   3.141  0.3682  1.5268  3.4884
   97MOL0     H13052  -0.768  -0.136   3.115  1.8091 -0.0668 -1.6663
   97MOL0     H13053  -0.735   0.102   3.284 -1.8958  4.3736 -5.3729
   97MOL0     H13054  -0.825  -0.052   3.321  0.9655  0.5297  0.3210
   97MOL0     H13055  -1.154   0.208   3.194 -0.7818 -0.9850  3.6174
   97MOL0     H13056  -1.456   0.121   3.248  3.0491 -3.6804  2.5516
   97MOL0     H13057  -1.363   0.252   3.191 -0.7040 -0.3060  1.3186
   97MOL0     H13058  -1.446   0.160   3.068  1.7023 -1.0898 -0.7751
   97MOL0     H13059  -1.674   0.024   3.233  1.6443 -2.0637  1.2676
   97MOL0     H13060  -1.911  -0.022   3.285 -1.3316 -3.3758  2.3983
   97MOL0     H13061  -2.139  -0.373   3.315  1.2487  0.5832 -0.3580
   97MOL0     H13062  -2.010  -0.268   3.387 -0.0159  1.9754  0.4363
   97MOL0     H13063  -2.182  -0.149   3.462 -0.9315  2.5408  0.4017
   97MOL0     H13064  -2.153  -0.070   3.309 -2.5017 -0.8202 -3.1320
   97MOL0     H13065  -2.372  -0.258   3.384 -0.0280  0.3778  0.3724
   97MOL0     H13066  -2.340  -0.232   3.205 -1.3870  2.2765 -0.7763
   97MOL0     H13067  -2.415  -0.017   3.425  0.4210  1.5347  0.4684
   97MOL0     H13068  -2.379   0.012   3.250  0.1813 -1.2824 -1.0471
   97MOL0     H13069  -2.608  -0.106   3.395 -0.2896  1.4465  0.3545
   97MOL0     H13070  -2.577  -0.148   3.217 -1.8496  0.4005  0.9526
   97MOL0     H13071  -2.612   0.132   3.311  0.9359  2.7979 -3.9351
   97MOL0     H13072  -2.620   0.057   3.147  2.2661 -3.4463 -0.4819
   97MOL0     H13073  -2.803   0.002   3.377  0.6001 -0.4014 -0.1149
   97MOL0     H13074  -2.792  -0.103   3.230 -0.5190  0.0106 -0.5398
   97MOL0     H13075  -2.990   0.035   3.208  1.0607 -3.7622  0.5478
   97MOL0     H13076  -2.876   0.060   3.081  2.0353  2.0752  0.9853
   97MOL0     H13077  -1.889  -0.389   3.046 -0.8951 -0.7071  3.6678
   97MOL0     H13078  -1.656  -0.320   2.983  1.0080  1.2766  0.9003
   97MOL0     H13079  -1.172  -0.270   3.182  0.5786 -0.9645 -0.3545
   97MOL0     H13080  -0.967  -0.168   3.201  0.9911  0.9276 -2.4362
   97MOL0     H13081   0.179   1.150   3.263  1.1032 -1.5481  1.8084
   97MOL0     H13082   0.358   1.294   3.358  1.0189  0.6902  0.0966
   97MOL0     H13083   0.542   1.782   3.406 -2.5888 -2.6813 -2.2167
   97MOL0     H13084   0.753   1.859   3.502  0.0371  0.3048 -1.4957
   97MOL0     H13085   1.059   1.818   3.578 -1.0259 -3.0332 -0.7497
   97MOL0     H13086   0.919   1.914   3.607 -1.4885 -0.2525  2.5630
   97MOL0     H13087   0.948   1.913   3.856 -0.7019  0.2753  0.4991
   97MOL0     H13088   1.057   2.012   3.754  1.5189 -1.3877 -2.5880
   97MOL0     H13089   1.252   1.876   3.789  0.5134 -1.1517  0.6686
   97MOL0     H13090   1.156   1.732   3.811  1.7244 -0.0296  1.1673
   97MOL0     H13091   1.092   1.809   4.038  0.5769 -0.4730 -0.6414
   97MOL0     H13092   1.181   1.965   4.012  2.1434 -0.2527 -0.1979
   97MOL0     H13093   1.503   1.735   4.142 -2.5240 -1.7670  1.3046
   97MOL0     H13094   0.771   1.511   3.755 -0.8629 -1.1884  0.7816
   97MOL0     H13095   0.548   1.430   3.651  0.1319  0.0175 -1.3445
   98MOL0     O13096   6.730   2.046   6.503 -0.1971 -0.2451  0.1752
   98MOL0     C13097   6.683   2.054   6.388  0.2304 -0.6125 -0.4236
   98MOL0     O13098   6.753   2.102   6.285 -0.4903  0.5501  0.2902
   98MOL0     C13099   6.887   2.139   6.299  0.0305 -0.2858  0.2037
   98MOL0     C13100   6.980   2.060   6.361 -0.5239 -0.1740 -0.2869
   98MOL0     C13101   7.119   2.100   6.356  0.4045 -0.0052 -0.4633
   98MOL0     C13102   7.154   2.228   6.307 -0.3878  0.0349 -0.0530
   98MOL0     O13103   7.275   2.269   6.329 -0.4266  0.2159 -0.3821
   98MOL0     C13104   7.329   2.364   6.234  0.4083 -1.1366  0.4785
   98MOL0     C13105   7.467   2.398   6.286 -0.0620 -0.0177 -0.3921
   98MOL0     C13106   7.562   2.282   6.313 -0.1718  0.5117  0.0230
   98MOL0     C13107   7.696   2.335   6.358  0.2720 -0.3546  0.5580
   98MOL0     C13108   7.793   2.224   6.364 -0.5324 -1.2629 -0.1893
   98MOL0     C13109   7.838   2.155   6.234  0.8629  0.3353 -0.5562
   98MOL0     C13110   7.959   2.076   6.266  0.8271  0.7726  0.3012
   98MOL0     C13111   8.089   2.153   6.288 -0.2508 -1.0187 -0.8729
   98MOL0     N13112   8.122   2.258   6.192 -0.0861  0.2284 -0.4628
   98MOL0     C13113   8.167   2.227   6.067 -0.3291 -0.6224  0.7549
   98MOL0     C13114   8.155   2.355   6.004  0.4834  0.1962 -0.2903
   98MOL0     C13115   8.217   2.390   5.870 -0.0607  0.9750 -0.6962
   98MOL0     C13116   8.311   2.514   5.880  0.0758 -0.0162 -0.2715
   98MOL0     C13117   8.349   2.533   5.732 -0.7627  0.1513  0.2794
   98MOL0     C13118   8.407   2.670   5.704  0.5363  0.0661  0.1968
   98MOL0     O13119   8.549   2.680   5.738  0.4789  0.2429  0.3390
   98MOL0     C13120   8.621   2.770   5.662  0.6188  0.6697 -0.5583
   98MOL0     C13121   8.682   2.722   5.549 -1.2339  0.7748 -1.2621
   98MOL0     C13122   8.751   2.798   5.448 -1.0281 -0.2261 -0.0533
   98MOL0     C13123   8.796   2.734   5.319 -0.8753 -1.0045 -0.4158
   98MOL0     C13124   8.759   2.937   5.480 -0.0707 -0.3795 -0.4932
   98MOL0     C13125   8.838   3.033   5.404  0.2493 -0.4658 -0.4802
   98MOL0     O13126   8.837   3.159   5.466  0.7821  0.1798  0.0367
   98MOL0     C13127   8.913   3.252   5.408 -0.6404 -0.5328 -0.7011
   98MOL0     C13128   8.876   3.388   5.411  0.6302  0.5291  1.2164
   98MOL0     C13129   8.947   3.486   5.347  0.1661  0.0610 -0.3895
   98MOL0     C13130   9.066   3.458   5.276  0.2945 -0.3903 -0.7406
   98MOL0     O13131   9.138   3.564   5.223 -0.5306 -0.2843 -0.0137
   98MOL0     C13132   9.243   3.540   5.130 -0.9632  0.3992  0.3723
   98MOL0     C13133   9.279   3.680   5.059  0.5614 -0.2882  0.4704
   98MOL0     C13134   9.159   3.774   5.008 -0.8400  0.7260  1.1189
   98MOL0     C13135   9.101   3.714   4.887 -0.0829  0.2286  0.6645
   98MOL0     C13136   9.026   3.816   4.798  0.0499 -0.2570  0.2977
   98MOL0     C13137   8.942   3.767   4.678  1.2272  1.1185  0.2225
   98MOL0     C13138   8.886   3.883   4.603 -0.2166 -0.5690  0.1944
   98MOL0     C13139   8.824   3.832   4.473  0.2994  0.4167  0.0821
   98MOL0    Cl13140   8.758   3.982   4.390 -0.2242 -0.2446 -0.3578
   98MOL0     C13141   9.116   3.329   5.288  0.7271 -0.6143  0.0307
   98MOL0     C13142   9.043   3.230   5.356  0.4376 -0.0494  0.2661
   98MOL0     O13143   8.855   3.019   5.281 -0.5091  0.8420 -0.2048
   98MOL0     C13144   8.690   2.983   5.593 -0.3580  1.5389 -0.0676
   98MOL0     C13145   8.624   2.903   5.678  0.2703 -0.6957  0.2471
   98MOL0     N13146   8.089   2.437   6.084 -0.0683  0.2458 -0.2780
   98MOL0     N13147   8.069   2.381   6.196  0.6581 -0.5088 -1.1651
   98MOL0     C13148   7.055   2.307   6.256  0.7144  0.1548 -0.0972
   98MOL0     C13149   6.928   2.262   6.239 -0.2582 -0.0797 -0.2341
   98MOL0     C13150   6.546   2.013   6.364 -0.1862 -0.0793  0.2205
   98MOL0     C13151   6.486   2.016   6.238 -0.8180  0.2183  0.1224
   98MOL0     C13152   6.351   2.003   6.213  0.1855  0.1789 -0.5953
   98MOL0     C13153   6.262   1.994   6.330  0.6489 -0.7613 -0.1937
   98MOL0     O13154   6.121   2.000   6.325 -0.0861  0.1056 -0.2859
   98MOL0     C13155   6.061   2.009   6.194  0.0630  0.3486 -0.9303
   98MOL0     C13156   5.919   2.049   6.200 -1.1424 -0.2984 -0.0517
   98MOL0     C13157   5.882   2.095   6.056  0.4685  0.1155 -0.3940
   98MOL0     C13158   5.730   2.112   6.037  0.1640 -0.8509 -0.9565
   98MOL0     C13159   5.665   1.983   6.055 -1.2388 -0.3106  0.2515
   98MOL0     C13160   5.631   1.869   6.069  0.1300 -0.4117 -0.9451
   98MOL0     C13161   6.319   1.984   6.456 -0.2242 -0.2887 -0.6170
   98MOL0     C13162   6.459   1.989   6.470 -0.3994 -0.2256 -0.1220
   98MOL0     H13163   6.943   1.964   6.396 -3.2246 -0.2795 -2.9874
   98MOL0     H13164   7.202   2.045   6.399  2.2054  3.8205  1.4389
   98MOL0     H13165   7.344   2.332   6.131  2.2995  0.7386  0.1174
   98MOL0     H13166   7.267   2.453   6.226 -1.9849 -2.8313 -1.1959
   98MOL0     H13167   7.513   2.464   6.212  0.1719 -0.4679 -0.6499
   98MOL0     H13168   7.465   2.459   6.377 -0.5257  0.0125 -0.4192
   98MOL0     H13169   7.529   2.220   6.396  2.0403 -1.1811 -0.2505
   98MOL0     H13170   7.574   2.218   6.225  0.7957  2.1360 -1.0904
   98MOL0     H13171   7.732   2.415   6.293  1.8050  1.8770  3.8854
   98MOL0     H13172   7.692   2.381   6.456  1.2965  1.0754 -0.0458
   98MOL0     H13173   7.879   2.271   6.413 -0.4791 -1.2101 -0.3335
   98MOL0     H13174   7.754   2.151   6.436 -2.3017 -2.4286 -2.2217
   98MOL0     H13175   7.750   2.094   6.215  0.3581  0.2687  1.7331
   98MOL0     H13176   7.850   2.220   6.147 -0.6372 -0.4944 -1.4208
   98MOL0     H13177   7.941   2.017   6.356  1.1225 -0.0874 -0.1899
   98MOL0     H13178   7.960   2.007   6.181 -2.1674 -0.8463  1.4293
   98MOL0     H13179   8.167   2.076   6.288 -2.0821 -3.0154  1.0440
   98MOL0     H13180   8.084   2.195   6.389 -0.1204  2.1307 -2.0622
   98MOL0     H13181   8.206   2.133   6.029  0.2851  1.3841 -4.2658
   98MOL0     H13182   8.277   2.305   5.836  0.9713  1.7413 -0.8577
   98MOL0     H13183   8.137   2.410   5.798 -0.5673  1.1955 -0.0773
   98MOL0     H13184   8.395   2.493   5.946 -1.5146 -0.5175  1.6688
   98MOL0     H13185   8.256   2.604   5.910 -2.5543 -1.6181  0.0257
   98MOL0     H13186   8.264   2.526   5.663 -1.2537  1.4555  0.7208
   98MOL0     H13187   8.410   2.453   5.688  1.6508  0.2907  3.0863
   98MOL0     H13188   8.341   2.732   5.766  0.3029 -0.7822  0.8287
   98MOL0     H13189   8.377   2.693   5.602 -1.3268  0.8264  0.8694
   98MOL0     H13190   8.666   2.615   5.542 -1.9531  0.6647  1.0796
   98MOL0     H13191   8.753   2.633   5.318  0.9618 -1.8473  0.4042
   98MOL0     H13192   8.743   2.787   5.239  0.8637  1.3214 -0.1115
   98MOL0     H13193   8.905   2.722   5.308 -1.0805 -2.7866 -0.9469
   98MOL0     H13194   8.777   3.409   5.450 -0.2471  0.8026 -1.0170
   98MOL0     H13195   8.912   3.588   5.342  2.7473  1.3398  3.1842
   98MOL0     H13196   9.326   3.501   5.190 -0.2307 -1.4276 -1.6942
   98MOL0     H13197   9.211   3.468   5.054  0.6448  1.8869 -1.8477
   98MOL0     H13198   9.338   3.743   5.127 -2.9450 -0.0580  3.5997
   98MOL0     H13199   9.349   3.664   4.977 -0.7034  1.0127 -0.9262
   98MOL0     H13200   9.211   3.866   4.978 -2.9805  1.4311 -0.6478
   98MOL0     H13201   9.100   3.802   5.096  2.8431 -0.8355  4.4167
   98MOL0     H13202   9.179   3.659   4.833  0.1325 -0.4350  1.6262
   98MOL0     H13203   9.045   3.633   4.936  3.7000 -2.9065  0.3300
   98MOL0     H13204   9.090   3.897   4.761 -1.4874  1.4167  1.1073
   98MOL0     H13205   8.958   3.861   4.871  0.7694 -1.7798  1.9851
   98MOL0     H13206   9.010   3.713   4.612 -0.4855  1.9980 -2.4446
   98MOL0     H13207   8.854   3.707   4.707 -0.0864  1.4908 -2.6558
   98MOL0     H13208   8.975   3.944   4.587 -0.3938 -0.4019 -0.1480
   98MOL0     H13209   8.816   3.934   4.670 -1.7487 -1.4513 -0.6921
   98MOL0     H13210   8.745   3.757   4.483  1.3029 -0.5170  1.3305
   98MOL0     H13211   8.905   3.790   4.414  0.7268  1.3370 -0.0125
   98MOL0     H13212   9.209   3.308   5.235  1.1560  0.9369  0.1133
   98MOL0     H13213   9.083   3.129   5.367 -0.8139 -0.4854  1.0269
   98MOL0     H13214   8.685   3.087   5.625  1.1514  1.9751 -1.1349
   98MOL0     H13215   8.571   2.963   5.751  1.4945 -0.0332  0.6096
   98MOL0     H13216   7.071   2.402   6.206 -1.4405  2.2519  2.8407
   98MOL0     H13217   6.862   2.334   6.192  0.6659  2.6707  2.3504
   98MOL0     H13218   6.550   2.025   6.151  2.9016 -2.5112  2.2910
   98MOL0     H13219   6.315   1.994   6.111 -0.1408  2.4445 -0.7288
   98MOL0     H13220   6.121   2.071   6.127 -0.2979  0.7559 -0.8772
   98MOL0     H13221   6.062   1.909   6.148 -3.3596  0.4765 -1.5939
   98MOL0     H13222   5.913   2.135   6.266 -1.0494 -0.2626 -0.0914
   98MOL0     H13223   5.857   1.968   6.240 -2.4769  2.1001  3.1850
   98MOL0     H13224   5.924   2.024   5.984  1.0339 -2.0227  1.8996
   98MOL0     H13225   5.931   2.190   6.031  0.6356  0.0758 -0.2194
   98MOL0     H13226   5.698   2.164   5.946 -0.2973  0.4892 -0.0625
   98MOL0     H13227   5.692   2.190   6.104 -0.1254 -0.4600 -1.5705
   98MOL0     H13228   5.594   1.769   6.072 -1.8854  0.3257  0.5557
   98MOL0     H13229   6.252   1.960   6.538 -0.9612  0.2987 -1.0384
   98MOL0     H13230   6.503   1.997   6.569 -0.5833  0.5076 -0.0894
   99MOL0     O13231   7.950   8.310  11.179 -0.3415  0.6964 -0.4371
   99MOL0     C13232   7.974   8.423  11.163  0.4402 -0.1933  0.8445
   99MOL0     O13233   8.085   8.477  11.114  0.1264  0.6036 -0.0505
   99MOL0     C13234   8.207   8.412  11.084 -0.2042  0.0249  0.1641
   99MOL0     C13235   8.236   8.280  11.124 -1.1700 -0.1724  0.5484
   99MOL0     C13236   8.355   8.210  11.074 -0.1754 -0.6513  0.4141
   99MOL0     C13237   8.454   8.269  10.992  0.8160 -0.1900 -0.8980
   99MOL0     O13238   8.578   8.227  10.942  0.8275  0.3461 -0.3097
   99MOL0     C13239   8.596   8.082  10.970 -0.4112 -0.5106  0.5268
   99MOL0     C13240   8.755   8.055  10.979  0.1606 -0.0563  0.0437
   99MOL0     C13241   8.804   8.057  10.836 -0.2692 -0.5646  1.1549
   99MOL0     C13242   8.847   8.187  10.770  0.4764 -1.2918 -0.4313
   99MOL0     C13243   8.932   8.143  10.653 -0.7762  0.1222  0.1540
   99MOL0     C13244   9.085   8.141  10.687  0.2757 -0.6713  0.1445
   99MOL0     C13245   9.157   8.069  10.568 -0.3219 -0.6089 -0.4214
   99MOL0     C13246   9.201   7.925  10.603  0.1859 -0.0976 -0.1028
   99MOL0     N13247   9.334   7.887  10.546 -0.4691 -0.8574 -0.8240
   99MOL0     C13248   9.360   7.873  10.418  0.4426 -0.4036 -0.1841
   99MOL0     C13249   9.486   7.898  10.399 -0.3485  0.4838  0.6045
   99MOL0     C13250   9.571   7.900  10.265  0.0298  0.4710  1.6517
   99MOL0     C13251   9.524   8.016  10.189  0.0942  0.2605 -0.0829
   99MOL0     C13252   9.575   8.149  10.241  0.6663 -0.0256 -0.4512
   99MOL0     C13253   9.497   8.267  10.193 -0.0905  0.0866  0.0542
   99MOL0     O13254   9.362   8.246  10.244  0.3839  0.5577  0.2564
   99MOL0     C13255   9.271   8.334  10.204 -0.0630  0.0774  0.7373
   99MOL0     C13256   9.150   8.305  10.253  0.1297  0.3290 -0.9596
   99MOL0     C13257   9.038   8.384  10.230 -0.1784 -0.2637 -0.0679
   99MOL0     C13258   8.910   8.353  10.294 -0.5719 -0.2804 -0.6551
   99MOL0     C13259   9.052   8.501  10.148 -0.5264  0.1598 -0.5532
   99MOL0     C13260   8.945   8.597  10.121  0.5051  0.2919  0.0411
   99MOL0     O13261   8.951   8.667   9.992 -0.5967 -0.7391  0.2209
   99MOL0     C13262   8.832   8.728   9.946 -0.6639 -0.4570  0.3335
   99MOL0     C13263   8.714   8.661   9.936 -0.1947  0.4720 -0.0920
   99MOL0     C13264   8.600   8.724   9.892  0.4951  1.0522  0.3410
   99MOL0     C13265   8.598   8.859   9.851  0.2280 -0.6599  1.6025
   99MOL0     O13266   8.494   8.944   9.814 -0.0286  0.3113  0.2056
   99MOL0     C13267   8.367   8.890   9.805 -0.8804  0.2676  0.9347
   99MOL0     C13268   8.259   8.991   9.833  0.1122 -0.0774  0.1134
   99MOL0     C13269   8.294   9.119   9.754 -0.1451 -0.3966 -0.1607
   99MOL0     C13270   8.190   9.242   9.741 -0.4292  0.4833  0.4177
   99MOL0     C13271   8.273   9.365   9.696 -0.0596 -0.3328  0.2534
   99MOL0     C13272   8.186   9.471   9.634  0.8474 -0.7260  0.4757
   99MOL0     C13273   8.124   9.568   9.735 -0.2352 -0.0654 -0.1650
   99MOL0     C13274   7.969   9.587   9.721  0.1328  0.1842 -0.3659
   99MOL0    Cl13275   7.898   9.448   9.795 -0.3986  0.1845  0.1722
   99MOL0     C13276   8.715   8.921   9.843  0.0094 -0.0782  0.3295
   99MOL0     C13277   8.830   8.859   9.892 -0.1397  0.3137 -0.0050
   99MOL0     O13278   8.845   8.613  10.196 -0.0231 -0.1489  0.7580
   99MOL0     C13279   9.184   8.529  10.088 -0.5725 -0.6070 -0.3891
   99MOL0     C13280   9.292   8.449  10.121 -0.2143  0.0227  0.1016
   99MOL0     N13281   9.539   7.934  10.517 -0.1835 -0.0893  0.1915
   99MOL0     N13282   9.446   7.917  10.611 -0.2721  0.0496 -0.6402
   99MOL0     C13283   8.429   8.405  10.970 -0.0058 -1.0605  0.7795
   99MOL0     C13284   8.299   8.460  11.007 -0.3967 -0.8400  0.0527
   99MOL0     C13285   7.868   8.520  11.194 -0.6304  0.6381 -0.0721
   99MOL0     C13286   7.731   8.476  11.183  0.7509 -0.6140 -0.2955
   99MOL0     C13287   7.631   8.569  11.182  0.2789 -0.5322  0.7540
   99MOL0     C13288   7.656   8.705  11.195 -0.8763  0.1898  0.2646
   99MOL0     O13289   7.551   8.778  11.175  0.0634 -0.1967  0.7184
   99MOL0     C13290   7.581   8.921  11.165 -0.6600  0.3282 -0.1545
   99MOL0     C13291   7.447   8.999  11.149 -0.1611  0.0990  0.3713
   99MOL0     C13292   7.352   8.943  11.034 -0.3234 -0.2398  0.3742
   99MOL0     C13293   7.224   9.036  11.017 -1.2548 -0.5286 -0.0063
   99MOL0     C13294   7.124   9.024  11.126 -1.0664  0.5360  0.6277
   99MOL0     C13295   7.044   9.001  11.215 -0.6867  0.1029  0.3323
   99MOL0     C13296   7.785   8.750  11.224  0.0396  0.1338  0.1235
   99MOL0     C13297   7.887   8.658  11.229  0.4106  1.4444  0.0758
   99MOL0     H13298   8.178   8.221  11.193 -0.8850  0.4641  1.3440
   99MOL0     H13299   8.356   8.107  11.108 -1.5273 -2.1556 -3.4739
   99MOL0     H13300   8.552   8.045  11.063  2.0179 -0.5855  1.7288
   99MOL0     H13301   8.550   8.023  10.890  2.0371 -0.4062 -1.0835
   99MOL0     H13302   8.803   8.134  11.039 -5.0271  1.5273  2.7826
   99MOL0     H13303   8.765   7.952  11.015 -2.9959  0.1593  1.9004
   99MOL0     H13304   8.884   7.982  10.832 -0.9633 -1.3077 -1.9975
   99MOL0     H13305   8.726   8.019  10.768  1.1137 -1.7059  0.1408
   99MOL0     H13306   8.763   8.246  10.731 -1.4583 -3.3437  0.3553
   99MOL0     H13307   8.906   8.247  10.839  0.3691  1.3962 -2.5199
   99MOL0     H13308   8.896   8.055  10.598  0.1006  0.0456 -0.3124
   99MOL0     H13309   8.918   8.226  10.582  0.9912 -0.1078 -0.5315
   99MOL0     H13310   9.120   8.244  10.698 -0.7027 -0.3657  0.5884
   99MOL0     H13311   9.099   8.097  10.786 -0.7580 -0.6140  0.3350
   99MOL0     H13312   9.107   8.078  10.471  1.8830  0.9000 -1.5104
   99MOL0     H13313   9.251   8.123  10.558 -0.6603  0.0078 -0.3086
   99MOL0     H13314   9.121   7.852  10.585 -2.6727  2.7386  0.0314
   99MOL0     H13315   9.221   7.914  10.710 -1.6762 -1.5542  0.1400
   99MOL0     H13316   9.278   7.859  10.348  0.5048 -3.6320  0.2387
   99MOL0     H13317   9.676   7.925  10.279  0.3241  0.4717 -0.3040
   99MOL0     H13318   9.555   7.812  10.202 -1.3610  0.5004  1.9222
   99MOL0     H13319   9.414   8.011  10.185  0.0503  1.2617 -0.4958
   99MOL0     H13320   9.563   8.014  10.087  1.7622  1.1041  0.5191
   99MOL0     H13321   9.679   8.176  10.220  0.8881 -1.0551 -0.7275
   99MOL0     H13322   9.568   8.153  10.350 -0.8208  1.0800 -0.5624
   99MOL0     H13323   9.507   8.273  10.085  0.2280 -0.8553  0.0237
   99MOL0     H13324   9.530   8.359  10.243 -2.0075  0.0883  1.4737
   99MOL0     H13325   9.144   8.231  10.333  1.3650  1.1389 -0.0771
   99MOL0     H13326   8.907   8.371  10.402 -0.0068  0.0264 -0.6839
   99MOL0     H13327   8.826   8.400  10.243 -0.4059  1.2390  0.4067
   99MOL0     H13328   8.895   8.246  10.276 -0.7276 -0.2021 -1.0024
   99MOL0     H13329   8.710   8.558   9.972  4.0154  0.2034  0.1292
   99MOL0     H13330   8.513   8.659   9.905  1.1049  0.0413 -0.4358
   99MOL0     H13331   8.363   8.845   9.705  3.5406 -0.0481  0.7127
   99MOL0     H13332   8.359   8.798   9.863  1.5792 -0.1294  0.7317
   99MOL0     H13333   8.175   8.936   9.789 -0.3616  1.7753 -1.4294
   99MOL0     H13334   8.258   9.015   9.939  1.4050 -3.6302  1.0644
   99MOL0     H13335   8.317   9.094   9.650 -2.4038  2.5752 -1.5526
   99MOL0     H13336   8.378   9.169   9.802 -0.3598  1.0345 -1.2156
   99MOL0     H13337   8.122   9.204   9.665  0.6778  0.1348 -0.4283
   99MOL0     H13338   8.147   9.262   9.839  0.9367 -1.9476  1.6190
   99MOL0     H13339   8.338   9.330   9.615 -1.4633  0.5894 -1.3440
   99MOL0     H13340   8.335   9.398   9.780 -2.1394 -1.8291  2.5154
   99MOL0     H13341   8.248   9.536   9.572 -0.2369 -0.8108 -0.7575
   99MOL0     H13342   8.113   9.425   9.567 -0.1592 -0.9528  1.6813
   99MOL0     H13343   8.175   9.663   9.713  1.5908 -0.7953  0.7278
   99MOL0     H13344   8.150   9.543   9.839  0.7170 -3.1530 -1.0604
   99MOL0     H13345   7.937   9.601   9.617 -2.2747 -2.2176 -0.0502
   99MOL0     H13346   7.943   9.675   9.781 -0.9937 -0.4968  0.1921
   99MOL0     H13347   8.723   9.019   9.797  3.4640 -0.9169 -1.2214
   99MOL0     H13348   8.927   8.905   9.877  0.5525 -1.7768 -2.9025
   99MOL0     H13349   9.197   8.615  10.022  1.7478 -0.5657  0.0204
   99MOL0     H13350   9.386   8.472  10.070  0.2562 -1.0932  0.4332
   99MOL0     H13351   8.502   8.464  10.915 -0.4789  0.5321  1.8094
   99MOL0     H13352   8.282   8.561  10.972  1.3136 -0.2148  0.8722
   99MOL0     H13353   7.714   8.371  11.164  0.6833 -0.9714  1.5617
   99MOL0     H13354   7.533   8.530  11.155  1.4573 -2.6078 -0.8390
   99MOL0     H13355   7.637   8.963  11.249  1.5826 -1.2443 -0.7727
   99MOL0     H13356   7.643   8.933  11.077  0.8137  2.7330  1.1161
   99MOL0     H13357   7.474   9.103  11.127  2.0166 -0.0410  2.0651
   99MOL0     H13358   7.396   9.012  11.245  0.7151  0.1671  0.8387
   99MOL0     H13359   7.329   8.839  11.060 -2.6982 -0.2242 -1.3644
   99MOL0     H13360   7.417   8.953  10.947 -0.6602  3.8603  0.3865
   99MOL0     H13361   7.164   9.013  10.928  0.5792 -1.7251 -0.9938
   99MOL0     H13362   7.261   9.139  11.008  1.6831 -1.6588 -4.0154
   99MOL0     H13363   6.976   8.964  11.289  0.7615 -1.0696  1.1379
   99MOL0     H13364   7.810   8.855  11.238  0.2741  0.1531 -0.4439
   99MOL0     H13365   7.991   8.678  11.252  1.4729 -3.5155  0.7820
  100MOL0     O13366   8.358   4.694   0.948 -0.8822  0.6778 -0.1491
  100MOL0     C13367   8.315   4.805   0.920 -1.0001  0.3444  0.2840
  100MOL0     O13368   8.184   4.838   0.915 -0.6530 -0.1754  0.0140
  100MOL0     C13369   8.079   4.746   0.921 -0.4852 -0.0784 -0.2057
  100MOL0     C13370   7.953   4.804   0.942  0.5055 -0.3213 -0.6741
  100MOL0     C13371   7.836   4.731   0.932  0.2489  1.0702 -0.0044
  100MOL0     C13372   7.840   4.594   0.915  0.5970  0.4099 -0.6748
  100MOL0     O13373   7.730   4.506   0.894 -0.1032 -0.3198 -0.0532
  100MOL0     C13374   7.615   4.517   0.976  0.2779  0.9340  0.4814
  100MOL0     C13375   7.511   4.568   0.890  0.1196 -0.1834 -0.6863
  100MOL0     C13376   7.378   4.573   0.969  0.1876  1.5746 -0.0538
  100MOL0     C13377   7.272   4.650   0.888 -0.1686  1.1207  0.2969
  100MOL0     C13378   7.121   4.619   0.941  0.3774  0.0269 -0.6952
  100MOL0     C13379   7.106   4.689   1.080  0.3104 -0.8370 -0.5439
  100MOL0     C13380   6.966   4.680   1.139 -1.0189 -0.2719  0.4903
  100MOL0     C13381   6.861   4.764   1.059 -0.1529  0.1576 -0.2675
  100MOL0     N13382   6.725   4.762   1.110  0.0576 -0.0099  0.0297
  100MOL0     C13383   6.669   4.871   1.177  0.0672  0.4976 -0.6537
  100MOL0     C13384   6.565   4.820   1.249  0.4334  0.2814  0.7877
  100MOL0     C13385   6.465   4.893   1.347  0.4314 -0.6367 -0.0317
  100MOL0     C13386   6.350   4.964   1.272 -0.3307  0.0563 -0.2557
  100MOL0     C13387   6.401   5.079   1.185 -0.2848 -0.7774 -0.8893
  100MOL0     C13388   6.290   5.140   1.102 -0.3366 -0.2597 -0.0240
  100MOL0     O13389   6.179   5.199   1.177  0.4771  0.4644  0.6961
  100MOL0     C13390   6.078   5.256   1.108  0.2768 -1.0842 -0.1084
  100MOL0     C13391   5.959   5.257   1.174 -0.8360  0.4758 -1.0133
  100MOL0     C13392   5.841   5.301   1.126  0.4216 -0.4445  0.1249
  100MOL0     C13393   5.714   5.300   1.211  0.3037 -0.0833 -0.0177
  100MOL0     C13394   5.845   5.363   0.992 -0.0557 -0.1658 -0.5217
  100MOL0     C13395   5.735   5.427   0.926  0.4343  0.0713 -1.0408
  100MOL0     O13396   5.618   5.348   0.919 -0.7386 -0.1079 -0.5527
  100MOL0     C13397   5.513   5.368   0.840  0.2605 -0.8146  0.8064
  100MOL0     C13398   5.405   5.278   0.847 -0.0880 -0.0373 -0.3467
  100MOL0     C13399   5.289   5.303   0.778 -0.4915  0.5736 -0.6317
  100MOL0     C13400   5.277   5.416   0.690 -1.0510  0.5874 -0.5401
  100MOL0     O13401   5.164   5.434   0.607 -0.0527  0.0802 -0.2218
  100MOL0     C13402   5.120   5.334   0.523  0.4813  0.7930 -0.2155
  100MOL0     C13403   5.025   5.396   0.410  0.5642 -0.5201  0.7215
  100MOL0     C13404   4.892   5.454   0.453 -0.2630  0.2667  0.1583
  100MOL0     C13405   4.814   5.474   0.327 -0.3978 -0.1612  0.0936
  100MOL0     C13406   4.695   5.576   0.338  0.9251  0.2382 -0.2448
  100MOL0     C13407   4.586   5.518   0.416 -0.2615 -0.6180  0.3389
  100MOL0     C13408   4.457   5.598   0.380 -1.0891 -0.7380  0.6900
  100MOL0     C13409   4.459   5.738   0.442  0.9669 -0.3992 -1.4427
  100MOL0    Cl13410   4.472   5.730   0.624 -0.2398 -0.0012  0.1562
  100MOL0     C13411   5.389   5.500   0.673  0.6254 -0.3988  0.1453
  100MOL0     C13412   5.508   5.477   0.743  0.2723  0.2582  0.8376
  100MOL0     O13413   5.745   5.542   0.886 -0.0980  0.2154 -0.3316
  100MOL0     C13414   5.961   5.355   0.925 -0.0863  0.6141 -1.0540
  100MOL0     C13415   6.077   5.295   0.973  0.4328  0.3248 -0.5371
  100MOL0     N13416   6.561   4.686   1.212  0.5120  0.8980 -0.2531
  100MOL0     N13417   6.654   4.658   1.126 -1.2704 -0.3141  0.2873
  100MOL0     C13418   7.963   4.538   0.904  0.1725  0.5806  0.5043
  100MOL0     C13419   8.081   4.612   0.901 -0.1065  0.1150  0.4690
  100MOL0     C13420   8.421   4.908   0.918 -0.1260  0.2787 -0.6721
  100MOL0     C13421   8.392   5.046   0.933  0.0951  0.7011 -0.3380
  100MOL0     C13422   8.498   5.136   0.942  0.4241  0.4470  1.7283
  100MOL0     C13423   8.633   5.096   0.930 -0.5076 -1.2611 -0.7779
  100MOL0     O13424   8.734   5.189   0.959  0.1473  0.0965 -0.0638
  100MOL0     C13425   8.868   5.145   0.960  0.3896 -0.6902  0.4056
  100MOL0     C13426   8.961   5.250   1.023  0.9932  0.2972 -0.0030
  100MOL0     C13427   8.981   5.372   0.937  0.0143  0.1445 -0.7699
  100MOL0     C13428   8.867   5.482   0.937 -0.1329  0.5848  0.4127
  100MOL0     C13429   8.904   5.570   0.829 -0.9808 -0.1721  0.3736
  100MOL0     C13430   8.945   5.653   0.743  0.5048  0.5019 -0.0574
  100MOL0     C13431   8.653   4.965   0.891 -0.5257 -0.0273 -0.4164
  100MOL0     C13432   8.555   4.869   0.898  0.4966 -0.1542 -0.8191
  100MOL0     H13433   7.977   4.909   0.956  0.8288 -0.6243  1.3514
  100MOL0     H13434   7.734   4.766   0.946 -0.6396 -1.3066 -0.0841
  100MOL0     H13435   7.588   4.420   1.018 -1.7572 -0.0305 -2.7165
  100MOL0     H13436   7.643   4.584   1.058  0.5833 -0.1483  1.2819
  100MOL0     H13437   7.536   4.674   0.876  3.4993 -0.3987  2.2828
  100MOL0     H13438   7.511   4.515   0.794 -1.3957 -4.1800  1.3141
  100MOL0     H13439   7.347   4.470   0.990  2.4938  0.5106 -1.5421
  100MOL0     H13440   7.399   4.620   1.066  1.2584 -0.0948  0.5777
  100MOL0     H13441   7.279   4.759   0.895 -3.5605  1.3569  1.7625
  100MOL0     H13442   7.271   4.617   0.784 -0.4043  0.0139  0.6393
  100MOL0     H13443   7.043   4.650   0.871 -0.2140  1.1208  0.4082
  100MOL0     H13444   7.103   4.513   0.959 -0.6799  0.5049  1.3198
  100MOL0     H13445   7.179   4.634   1.140  0.9800 -1.4640 -1.8750
  100MOL0     H13446   7.136   4.794   1.074 -1.9671 -0.1084 -0.2866
  100MOL0     H13447   6.926   4.578   1.150 -4.4659  0.8830 -0.0866
  100MOL0     H13448   6.985   4.724   1.237  1.4603  1.4059 -0.6463
  100MOL0     H13449   6.862   4.730   0.955 -1.0482  3.3781 -1.4483
  100MOL0     H13450   6.892   4.869   1.049  0.1214 -0.0960 -2.5707
  100MOL0     H13451   6.721   4.964   1.200  0.6913 -0.1385  0.5472
  100MOL0     H13452   6.420   4.815   1.408 -1.8902  0.6247 -0.0029
  100MOL0     H13453   6.528   4.956   1.410  1.6424 -0.9626 -0.8801
  100MOL0     H13454   6.275   5.003   1.341 -1.0201  2.3879 -2.1748
  100MOL0     H13455   6.299   4.893   1.207 -1.7552  1.7552 -1.0799
  100MOL0     H13456   6.480   5.030   1.127 -1.4328 -1.0187 -2.3169
  100MOL0     H13457   6.435   5.156   1.254  0.5851 -1.2566 -0.7628
  100MOL0     H13458   6.258   5.057   1.038  0.7509  1.1145 -2.4753
  100MOL0     H13459   6.325   5.220   1.035 -0.3672  0.0003  0.2686
  100MOL0     H13460   5.953   5.218   1.275 -2.3665 -0.4567 -1.4323
  100MOL0     H13461   5.623   5.294   1.151 -0.3504  2.0262  0.6973
  100MOL0     H13462   5.715   5.216   1.282 -0.6622  0.0639  0.1816
  100MOL0     H13463   5.708   5.394   1.265 -0.5824  0.1965 -0.5835
  100MOL0     H13464   5.422   5.194   0.912  1.5565  1.1009  0.7751
  100MOL0     H13465   5.214   5.224   0.779  0.6122 -0.5866 -2.6310
  100MOL0     H13466   5.199   5.264   0.493  0.0108 -0.0577  0.4574
  100MOL0     H13467   5.056   5.267   0.582  3.4124 -2.2282 -0.1990
  100MOL0     H13468   5.082   5.458   0.340 -3.2744  1.2446 -1.1393
  100MOL0     H13469   4.998   5.314   0.342 -1.0179  1.1432 -0.7563
  100MOL0     H13470   4.904   5.551   0.502  1.4376 -0.2441  0.8280
  100MOL0     H13471   4.831   5.384   0.512 -0.9916  0.2829 -0.5539
  100MOL0     H13472   4.872   5.520   0.246 -0.9476  0.5488  0.0925
  100MOL0     H13473   4.772   5.381   0.287 -0.3889  0.4506 -1.3888
  100MOL0     H13474   4.672   5.610   0.236  2.6328 -0.1793 -0.7944
  100MOL0     H13475   4.722   5.669   0.389 -1.1263  0.7922 -0.0756
  100MOL0     H13476   4.579   5.410   0.397  1.5949 -0.9061  1.0484
  100MOL0     H13477   4.607   5.518   0.523  0.6083  1.0583  0.2070
  100MOL0     H13478   4.370   5.544   0.416 -0.6416 -2.2450 -0.3858
  100MOL0     H13479   4.435   5.611   0.273 -1.6028  0.4800  0.9262
  100MOL0     H13480   4.362   5.780   0.414 -1.7587 -2.9175  3.0357
  100MOL0     H13481   4.539   5.802   0.404  1.3645  0.9674  1.3476
  100MOL0     H13482   5.383   5.584   0.605 -0.6434  3.1344  4.1808
  100MOL0     H13483   5.591   5.543   0.723  2.0348 -2.3043 -0.9331
  100MOL0     H13484   5.961   5.400   0.826 -5.3259  1.5187 -0.9245
  100MOL0     H13485   6.162   5.275   0.909 -0.0351  1.5675 -1.5826
  100MOL0     H13486   7.972   4.430   0.896  0.8392  0.5969  1.0078
  100MOL0     H13487   8.174   4.563   0.875 -0.4203 -0.4364  0.3719
  100MOL0     H13488   8.290   5.082   0.946 -0.7749 -2.2994  2.3036
  100MOL0     H13489   8.474   5.242   0.940  0.3436  0.4290 -0.1545
  100MOL0     H13490   8.875   5.052   1.017 -2.1104  0.8893  3.6658
  100MOL0     H13491   8.898   5.130   0.856 -0.8949 -3.7742  0.3562
  100MOL0     H13492   9.056   5.202   1.046  0.3246 -0.3528  1.4905
  100MOL0     H13493   8.911   5.280   1.115  1.2418 -0.3534  0.3473
  100MOL0     H13494   8.997   5.338   0.834 -0.6232 -2.0339 -0.2071
  100MOL0     H13495   9.071   5.411   0.987 -1.0607  0.8812  0.6458
  100MOL0     H13496   8.850   5.529   1.034  0.2887 -2.0066  1.8607
  100MOL0     H13497   8.772   5.440   0.902 -2.1896  2.5616  3.1602
  100MOL0     H13498   8.956   5.719   0.660 -1.8126 -1.4736 -2.1078
  100MOL0     H13499   8.755   4.932   0.874 -0.7755 -0.0588 -2.0644
  100MOL0     H13500   8.590   4.767   0.882  0.5388 -0.3731  0.5493
  101MOL0     O13501   4.982   4.558   0.904  0.6084 -0.8093  0.3124
  101MOL0     C13502   4.962   4.497   1.005  0.0205 -0.0966 -0.1970
  101MOL0     O13503   5.060   4.454   1.089 -0.3604  0.2794  0.6607
  101MOL0     C13504   5.196   4.453   1.066  0.0242  0.8933 -0.4907
  101MOL0     C13505   5.280   4.446   1.180 -0.8759 -0.8590  0.7494
  101MOL0     C13506   5.420   4.434   1.166 -0.1132  0.5771 -0.2402
  101MOL0     C13507   5.483   4.440   1.041  1.0412 -0.2755 -0.2454
  101MOL0     O13508   5.619   4.451   1.036  0.6282  0.4286  0.0290
  101MOL0     C13509   5.682   4.496   0.918  0.2923 -1.2669 -1.2607
  101MOL0     C13510   5.839   4.523   0.937 -0.0576  0.0369  0.0629
  101MOL0     C13511   5.926   4.396   0.966 -0.1653 -0.3906  0.2869
  101MOL0     C13512   6.072   4.433   0.986 -0.0048  0.1521 -0.4271
  101MOL0     C13513   6.146   4.296   0.997  0.4050 -0.2713  0.0243
  101MOL0     C13514   6.124   4.236   1.136 -0.6411  0.0577 -0.5494
  101MOL0     C13515   6.208   4.107   1.147  0.0714 -0.2703 -0.1883
  101MOL0     C13516   6.339   4.136   1.217 -0.4216 -0.2476 -0.8796
  101MOL0     N13517   6.443   4.049   1.156 -0.3739 -0.0051 -0.7011
  101MOL0     C13518   6.498   4.059   1.027  0.6865 -0.3881 -0.6763
  101MOL0     C13519   6.601   3.977   1.018 -0.4702  0.4939 -0.0369
  101MOL0     C13520   6.693   3.961   0.900 -0.4374  0.4908  0.5047
  101MOL0     C13521   6.632   3.895   0.780 -0.3098 -0.6603  1.6070
  101MOL0     C13522   6.548   3.986   0.688 -0.2577 -0.1640  0.5863
  101MOL0     C13523   6.483   3.909   0.573 -0.3203 -0.1125 -0.2071
  101MOL0     O13524   6.393   3.808   0.628  0.3435 -0.4026 -0.0324
  101MOL0     C13525   6.277   3.858   0.676 -0.1306 -0.6848 -0.0126
  101MOL0     C13526   6.223   3.819   0.808  0.5341 -0.4945  0.6929
  101MOL0     C13527   6.098   3.864   0.853  0.5184 -0.0428 -0.4805
  101MOL0     C13528   6.050   3.821   0.987 -0.9989  1.5022  0.7007
  101MOL0     C13529   6.013   3.932   0.766  0.1329 -0.9029  1.4614
  101MOL0     C13530   5.879   3.967   0.797  0.0522 -0.4266 -0.1153
  101MOL0     O13531   5.827   4.096   0.768  0.4300  0.6848  0.7254
  101MOL0     C13532   5.691   4.091   0.738  0.7767 -0.5870 -0.3067
  101MOL0     C13533   5.656   4.041   0.618 -1.0335 -0.6097  0.1733
  101MOL0     C13534   5.529   4.025   0.582  0.7988 -0.3135  0.0153
  101MOL0     C13535   5.426   4.059   0.666 -0.0245  0.6671 -0.3159
  101MOL0     O13536   5.298   4.050   0.616  0.3646 -0.1498 -0.1431
  101MOL0     C13537   5.196   4.125   0.681  0.0199 -0.4622 -0.6714
  101MOL0     C13538   5.062   4.105   0.605 -0.3220  0.3670 -0.2106
  101MOL0     C13539   4.956   4.189   0.665 -0.6147  0.3085 -1.0328
  101MOL0     C13540   4.838   4.168   0.583  0.8785 -0.3774  0.3448
  101MOL0     C13541   4.724   4.258   0.627  0.2535  0.6349 -0.7788
  101MOL0     C13542   4.753   4.414   0.605  0.1083  0.3827  0.8310
  101MOL0     C13543   4.624   4.495   0.615 -0.3822  0.1696 -0.6670
  101MOL0     C13544   4.661   4.651   0.613 -0.7995  0.5499 -1.0589
  101MOL0    Cl13545   4.537   4.743   0.715  1.1519 -0.2738 -0.1833
  101MOL0     C13546   5.455   4.103   0.796 -0.4966 -0.4707 -0.0945
  101MOL0     C13547   5.592   4.137   0.827  0.7682 -0.4731 -1.1053
  101MOL0     O13548   5.811   3.861   0.827  0.7428 -0.1528 -0.0671
  101MOL0     C13549   6.063   3.968   0.640  0.0944 -0.4945  0.4236
  101MOL0     C13550   6.191   3.935   0.600  0.5036 -0.5597 -0.1436
  101MOL0     N13551   6.607   3.917   1.142 -0.6181 -0.4243 -0.0843
  101MOL0     N13552   6.520   3.956   1.226  0.0100 -0.2999 -0.1256
  101MOL0     C13553   5.398   4.455   0.927 -0.1823 -0.4195 -0.5381
  101MOL0     C13554   5.257   4.460   0.938  0.4764  0.6663  0.4237
  101MOL0     C13555   4.820   4.467   1.036 -0.5156  0.1302 -0.5027
  101MOL0     C13556   4.710   4.531   0.972  0.2604 -0.6622 -0.1908
  101MOL0     C13557   4.581   4.493   1.008  0.3432 -0.0505  0.3557
  101MOL0     C13558   4.550   4.403   1.110 -0.2790  0.5873 -0.3470
  101MOL0     O13559   4.416   4.360   1.118  0.0193  0.5497 -0.7946
  101MOL0     C13560   4.344   4.412   1.233 -1.1343 -0.5309  0.0272
  101MOL0     C13561   4.189   4.387   1.212 -0.1428 -0.3842 -0.1295
  101MOL0     C13562   4.118   4.470   1.107  1.0761 -0.3002  0.1791
  101MOL0     C13563   3.967   4.423   1.082 -0.2765  1.1609  0.1981
  101MOL0     C13564   3.866   4.485   1.168  0.5522  0.5052 -0.5682
  101MOL0     C13565   3.773   4.534   1.229 -0.2317 -0.6069  0.0914
  101MOL0     C13566   4.657   4.356   1.191  0.8450  0.1941  0.2632
  101MOL0     C13567   4.788   4.383   1.143 -0.2247  0.5219  0.5597
  101MOL0     H13568   5.228   4.444   1.276 -2.8971  1.1556 -0.2144
  101MOL0     H13569   5.490   4.426   1.248  1.5260  1.2198 -1.5129
  101MOL0     H13570   5.671   4.402   0.862 -2.4042 -1.1369 -1.0760
  101MOL0     H13571   5.634   4.586   0.879 -2.5370 -0.4792  3.3272
  101MOL0     H13572   5.863   4.564   0.839  0.6234 -0.8641 -0.1582
  101MOL0     H13573   5.866   4.601   1.009  0.7289 -0.5623  0.4345
  101MOL0     H13574   5.892   4.343   1.055  3.1744 -3.5636 -0.1181
  101MOL0     H13575   5.918   4.323   0.885 -0.9392  1.2922 -1.2398
  101MOL0     H13576   6.102   4.498   0.903 -1.3213  2.9382  1.1263
  101MOL0     H13577   6.081   4.503   1.069 -0.7152  2.1014 -1.9106
  101MOL0     H13578   6.114   4.220   0.925  0.5083 -0.8875  0.6177
  101MOL0     H13579   6.255   4.305   0.992  0.4494  1.5158  2.3450
  101MOL0     H13580   6.146   4.308   1.214 -0.4062 -1.4466  0.8319
  101MOL0     H13581   6.022   4.198   1.147  0.4672 -3.4485 -1.0389
  101MOL0     H13582   6.157   4.026   1.200  0.3752 -2.4740 -2.9967
  101MOL0     H13583   6.228   4.077   1.043  0.3400 -0.0135 -0.2121
  101MOL0     H13584   6.323   4.111   1.322  1.9763 -2.3680 -0.9314
  101MOL0     H13585   6.375   4.238   1.201  3.1961 -1.4713 -1.5633
  101MOL0     H13586   6.466   4.130   0.951 -0.7919  0.3317  0.5744
  101MOL0     H13587   6.745   4.055   0.878 -2.8623  1.5879 -0.9244
  101MOL0     H13588   6.774   3.893   0.930  0.1777  0.1062 -1.8062
  101MOL0     H13589   6.577   3.808   0.816 -1.5391  0.2523  2.0339
  101MOL0     H13590   6.709   3.856   0.714  1.3801  3.2670  0.9379
  101MOL0     H13591   6.615   4.056   0.638 -0.5256  0.2453  0.7961
  101MOL0     H13592   6.476   4.045   0.745  0.0656  0.2460  0.5731
  101MOL0     H13593   6.563   3.859   0.518 -2.7373 -2.3047 -1.9953
  101MOL0     H13594   6.439   3.989   0.513 -3.3142 -0.6420  1.0933
  101MOL0     H13595   6.299   3.769   0.867  0.8957 -0.0235  0.6290
  101MOL0     H13596   6.140   3.798   1.045  0.1023 -0.3403 -1.5726
  101MOL0     H13597   5.982   3.891   1.037  0.1608  1.7704  1.9363
  101MOL0     H13598   5.989   3.732   0.971  3.2933 -1.7210  0.3801
  101MOL0     H13599   5.719   4.014   0.534 -1.0296 -2.1105  0.6319
  101MOL0     H13600   5.508   3.991   0.481 -0.0777  1.3724 -0.3978
  101MOL0     H13601   5.179   4.089   0.783 -1.4602  0.3058 -0.6200
  101MOL0     H13602   5.226   4.231   0.680 -0.0437 -0.4117  0.7743
  101MOL0     H13603   5.073   4.135   0.501  0.0453  1.4378  0.1249
  101MOL0     H13604   5.029   4.001   0.601  2.6240 -0.7813  1.3019
  101MOL0     H13605   4.993   4.290   0.646  1.9564 -0.5935 -1.2796
  101MOL0     H13606   4.924   4.162   0.766 -0.9722  0.0668 -1.2104
  101MOL0     H13607   4.845   4.158   0.475 -0.1235 -0.5327  0.2757
  101MOL0     H13608   4.792   4.073   0.614  1.7353 -0.0435  2.8930
  101MOL0     H13609   4.701   4.232   0.731 -1.4058  1.3754 -0.9232
  101MOL0     H13610   4.634   4.233   0.569 -0.3255  1.7186 -0.3876
  101MOL0     H13611   4.821   4.448   0.684 -1.3502 -0.2223  2.4240
  101MOL0     H13612   4.809   4.435   0.514  0.6987  0.6961  1.2634
  101MOL0     H13613   4.577   4.468   0.711  2.1892 -0.9686  0.3552
  101MOL0     H13614   4.555   4.478   0.531  0.0784  1.9788 -1.4514
  101MOL0     H13615   4.652   4.680   0.508 -0.4278 -0.4071 -1.3576
  101MOL0     H13616   4.761   4.672   0.651 -0.4825 -0.1309 -1.5071
  101MOL0     H13617   5.387   4.121   0.878  0.8841 -0.0022  0.9804
  101MOL0     H13618   5.630   4.166   0.924 -2.1161 -4.0440  1.3666
  101MOL0     H13619   6.002   4.025   0.570 -0.1167 -1.3202 -0.0790
  101MOL0     H13620   6.219   3.958   0.498  1.0795  0.1834  0.1753
  101MOL0     H13621   5.455   4.463   0.835  1.8815 -1.3583  0.5873
  101MOL0     H13622   5.209   4.478   0.843  3.1194  1.0647 -0.9440
  101MOL0     H13623   4.729   4.613   0.904 -2.8520 -0.1811 -0.5899
  101MOL0     H13624   4.502   4.533   0.945 -1.3592 -0.4141  2.1437
  101MOL0     H13625   4.383   4.369   1.325  0.8805  0.6405 -0.2301
  101MOL0     H13626   4.358   4.519   1.251 -0.4731 -0.8535  1.5254
  101MOL0     H13627   4.139   4.389   1.309  2.4534 -0.3669  1.3238
  101MOL0     H13628   4.191   4.281   1.182 -0.1462  0.3103 -2.8759
  101MOL0     H13629   4.175   4.463   1.014  1.7426 -1.4330  0.6563
  101MOL0     H13630   4.129   4.572   1.145  0.7933  0.3714 -1.4719
  101MOL0     H13631   3.963   4.314   1.081 -1.0641  1.1465  1.8239
  101MOL0     H13632   3.953   4.444   0.975  0.3180 -3.3689 -0.9979
  101MOL0     H13633   3.689   4.584   1.273  1.3255 -0.2469  2.9525
  101MOL0     H13634   4.653   4.295   1.280  0.5795 -0.5734 -0.2701
  101MOL0     H13635   4.877   4.353   1.197 -0.6073 -1.7995 -0.0049
  102MOL0     O13636   2.267   6.212   7.039  0.0202 -0.0810 -0.3811
  102MOL0     C13637   2.275   6.330   7.006 -0.0953 -0.1400  1.4109
  102MOL0     O13638   2.384   6.407   7.032 -0.8612 -0.1237 -0.5557
  102MOL0     C13639   2.454   6.375   7.146  0.0026 -0.0786 -0.4133
  102MOL0     C13640   2.572   6.299   7.155  0.7766  0.1527 -0.1535
  102MOL0     C13641   2.644   6.286   7.278  0.5826 -0.2177  0.6521
  102MOL0     C13642   2.599   6.359   7.390  0.1259  0.4575 -0.4118
  102MOL0     O13643   2.681   6.339   7.500 -0.2843 -0.0766 -0.0914
  102MOL0     C13644   2.686   6.436   7.614  0.8973  0.3561  0.8191
  102MOL0     C13645   2.828   6.496   7.604 -0.5079  0.3818 -0.7770
  102MOL0     C13646   2.877   6.532   7.460 -0.5578 -0.4924 -0.1785
  102MOL0     C13647   2.992   6.633   7.453 -0.5966  0.2433 -0.0179
  102MOL0     C13648   3.079   6.625   7.323 -0.1457  1.1865 -0.8685
  102MOL0     C13649   3.182   6.735   7.298 -0.4218  0.4071 -0.2958
  102MOL0     C13650   3.119   6.875   7.248  0.5851  0.4907 -0.3715
  102MOL0     C13651   3.089   6.883   7.101  0.4154  0.7684  0.0155
  102MOL0     N13652   2.980   6.791   7.063  0.2683 -0.1602  0.4641
  102MOL0     C13653   2.858   6.790   7.127 -0.2686 -0.0796  0.1525
  102MOL0     C13654   2.776   6.725   7.031  0.1384  1.0710  0.0225
  102MOL0     C13655   2.640   6.678   7.082  0.1285  0.3305 -0.8459
  102MOL0     C13656   2.533   6.789   7.088  0.4854  0.0287  0.0503
  102MOL0     C13657   2.468   6.833   6.954  0.0472  1.2113 -0.6839
  102MOL0     C13658   2.390   6.966   6.964  0.9329  0.1797 -0.2567
  102MOL0     O13659   2.308   6.986   6.855 -0.0616  0.5641 -0.3345
  102MOL0     C13660   2.212   7.087   6.854  0.1771 -0.6900 -0.7730
  102MOL0     C13661   2.181   7.166   6.971  0.0581 -0.0825 -0.2184
  102MOL0     C13662   2.096   7.282   6.967  0.2520 -0.2743  0.3725
  102MOL0     C13663   2.076   7.364   7.095 -0.7962 -0.6406  0.1083
  102MOL0     C13664   2.065   7.332   6.836 -0.3103  0.8497  0.1288
  102MOL0     C13665   1.990   7.456   6.814 -0.5888 -0.4995 -0.5138
  102MOL0     O13666   1.879   7.434   6.739 -0.8335  0.8290  0.3966
  102MOL0     C13667   1.824   7.552   6.689 -0.4185  0.3861  0.2879
  102MOL0     C13668   1.734   7.623   6.763  0.3865  0.6930  0.3696
  102MOL0     C13669   1.691   7.753   6.736 -0.3905 -0.1509  0.6210
  102MOL0     C13670   1.741   7.827   6.626  0.8711  0.3905  1.3191
  102MOL0     O13671   1.688   7.948   6.592 -0.0508 -0.4539 -1.0447
  102MOL0     C13672   1.579   7.934   6.494  0.6061  0.9064 -0.7294
  102MOL0     C13673   1.522   8.061   6.430 -0.5635 -1.0459 -0.2182
  102MOL0     C13674   1.638   8.142   6.366  0.4294  0.7787 -0.5246
  102MOL0     C13675   1.582   8.266   6.301 -0.3669 -0.5544 -0.3834
  102MOL0     C13676   1.683   8.340   6.211  0.5668  0.3804 -0.5320
  102MOL0     C13677   1.818   8.376   6.275  0.3677  0.5558 -0.2964
  102MOL0     C13678   1.927   8.425   6.174  0.2950  0.6369 -0.3686
  102MOL0     C13679   1.921   8.579   6.145  0.3452  0.0256 -0.3835
  102MOL0    Cl13680   2.022   8.637   6.008  0.4893  0.1449  0.0199
  102MOL0     C13681   1.832   7.753   6.539 -0.0698 -0.4983  0.2445
  102MOL0     C13682   1.869   7.618   6.570  0.2920  0.0942 -0.1912
  102MOL0     O13683   2.006   7.557   6.875 -0.0112 -0.1226  0.0022
  102MOL0     C13684   2.092   7.251   6.722 -0.1412  0.8797 -0.3471
  102MOL0     C13685   2.159   7.127   6.731 -0.2568  0.0370  0.3934
  102MOL0     N13686   2.849   6.696   6.919 -0.5483  0.8927 -0.4747
  102MOL0     N13687   2.970   6.736   6.935 -0.2479 -0.1165  1.1764
  102MOL0     C13688   2.480   6.434   7.376 -0.2873 -0.2557 -0.5802
  102MOL0     C13689   2.405   6.436   7.260  0.1153 -0.9183  0.3550
  102MOL0     C13690   2.164   6.401   6.938 -0.4915  0.1414  0.8631
  102MOL0     C13691   2.051   6.326   6.895  0.1627  0.1006  0.3602
  102MOL0     C13692   1.947   6.393   6.827 -0.9458  1.4839  0.0370
  102MOL0     C13693   1.941   6.536   6.827  0.0054  0.9541  1.2769
  102MOL0     O13694   1.822   6.590   6.770 -0.0400 -0.1923 -0.8303
  102MOL0     C13695   1.803   6.728   6.754  0.7893 -0.2501 -0.4858
  102MOL0     C13696   1.839   6.774   6.612  0.9935 -0.8771  0.8664
  102MOL0     C13697   1.753   6.897   6.572  0.5188 -0.4769  0.3022
  102MOL0     C13698   1.780   7.024   6.655  0.0921 -0.7288 -0.4316
  102MOL0     C13699   1.734   7.149   6.585  0.1974  0.4655  0.3013
  102MOL0     C13700   1.701   7.261   6.536  1.0622 -0.5911 -0.8612
  102MOL0     C13701   2.042   6.611   6.882 -0.5033  0.8172 -0.2029
  102MOL0     C13702   2.151   6.538   6.940 -0.8264 -0.3848 -0.0114
  102MOL0     H13703   2.624   6.250   7.074  1.5431 -1.7272  1.3769
  102MOL0     H13704   2.738   6.232   7.277  1.6955  1.6580 -0.0105
  102MOL0     H13705   2.602   6.506   7.618 -1.3817 -2.0386 -1.3288
  102MOL0     H13706   2.680   6.374   7.704 -0.0420 -0.4895  0.1943
  102MOL0     H13707   2.841   6.590   7.659  0.0586 -0.0136 -0.2267
  102MOL0     H13708   2.896   6.418   7.638 -1.4827 -0.9763 -1.7880
  102MOL0     H13709   2.918   6.444   7.410  0.5419 -0.2278  0.2232
  102MOL0     H13710   2.786   6.567   7.412 -1.5488  0.9508  2.5370
  102MOL0     H13711   2.958   6.737   7.458  0.8164  0.6600  2.1063
  102MOL0     H13712   3.063   6.627   7.536  1.8616 -3.6157 -2.0985
  102MOL0     H13713   3.133   6.529   7.325 -0.9845  0.6869  1.5475
  102MOL0     H13714   3.009   6.609   7.240 -1.3702  0.9284  0.1822
  102MOL0     H13715   3.220   6.749   7.399 -1.2631  0.5665  0.0072
  102MOL0     H13716   3.261   6.705   7.228 -0.0974  1.0196 -0.1957
  102MOL0     H13717   3.031   6.901   7.307  0.0522 -1.0662 -0.4412
  102MOL0     H13718   3.194   6.950   7.277  1.9032 -1.7104  2.5238
  102MOL0     H13719   3.171   6.851   7.036 -2.2419 -0.3429 -3.0080
  102MOL0     H13720   3.042   6.982   7.101 -2.0783 -0.3015  1.8474
  102MOL0     H13721   2.836   6.836   7.223  1.8752  0.9714  0.1943
  102MOL0     H13722   2.606   6.594   7.020 -2.6002  0.0085  0.9486
  102MOL0     H13723   2.643   6.645   7.186  1.0913 -1.1689 -1.3191
  102MOL0     H13724   2.584   6.876   7.129  3.6243 -2.3510  1.6394
  102MOL0     H13725   2.451   6.746   7.147  2.4610 -0.5719  2.5602
  102MOL0     H13726   2.406   6.747   6.930 -0.2647  0.2300  3.0599
  102MOL0     H13727   2.551   6.843   6.883  1.6107 -0.4398  0.8317
  102MOL0     H13728   2.460   7.051   6.964 -1.5681  2.3598  0.3386
  102MOL0     H13729   2.340   6.978   7.061 -0.4378  0.7333 -1.0036
  102MOL0     H13730   2.226   7.145   7.068 -3.5189 -1.3460  1.3261
  102MOL0     H13731   2.099   7.471   7.092 -2.0703 -0.3303  0.7335
  102MOL0     H13732   1.969   7.355   7.115 -1.2076  1.2387 -0.9924
  102MOL0     H13733   2.130   7.311   7.174 -3.3911 -2.5220  0.7314
  102MOL0     H13734   1.689   7.572   6.848 -2.0318 -0.2773 -1.3753
  102MOL0     H13735   1.621   7.805   6.800 -1.0649  0.3582 -0.5049
  102MOL0     H13736   1.602   7.866   6.411  0.4725  0.0627 -0.0912
  102MOL0     H13737   1.501   7.887   6.554 -0.1428  2.3929 -0.5164
  102MOL0     H13738   1.440   8.054   6.358  0.4321 -1.1008 -1.4018
  102MOL0     H13739   1.497   8.116   6.521  0.7955 -2.6080  1.1732
  102MOL0     H13740   1.672   8.074   6.287 -0.5701 -1.2067  0.6628
  102MOL0     H13741   1.716   8.161   6.440  2.6703  2.4791 -3.1204
  102MOL0     H13742   1.498   8.240   6.235  0.3848 -1.7801 -0.8860
  102MOL0     H13743   1.543   8.337   6.375  1.8540 -2.0054  2.3632
  102MOL0     H13744   1.623   8.426   6.180  2.9374  1.8772 -1.2084
  102MOL0     H13745   1.693   8.271   6.126  0.1548 -1.2766  0.7131
  102MOL0     H13746   1.803   8.444   6.359 -0.8008  1.9319 -1.5398
  102MOL0     H13747   1.849   8.277   6.309 -3.2108 -2.6544 -4.9499
  102MOL0     H13748   1.903   8.368   6.084  0.1376  2.9464 -1.8622
  102MOL0     H13749   2.027   8.392   6.207  0.0582 -0.1062 -0.3684
  102MOL0     H13750   1.952   8.639   6.232  2.4138 -0.5174 -0.6928
  102MOL0     H13751   1.818   8.615   6.134 -0.4037 -1.6205  0.8475
  102MOL0     H13752   1.855   7.790   6.440 -0.1221 -1.7465 -0.2492
  102MOL0     H13753   1.931   7.562   6.500  2.6598  0.9008  1.1978
  102MOL0     H13754   2.057   7.284   6.625  2.8555  2.1661 -1.1185
  102MOL0     H13755   2.179   7.070   6.641 -3.2049  0.8760 -0.8891
  102MOL0     H13756   2.460   6.477   7.474  1.7596  0.1385 -0.2876
  102MOL0     H13757   2.314   6.495   7.262  0.2991 -0.6525  1.0925
  102MOL0     H13758   2.057   6.219   6.877 -0.9997 -0.0473  0.7174
  102MOL0     H13759   1.866   6.343   6.775 -0.3811  2.8923 -2.3465
  102MOL0     H13760   1.696   6.747   6.767  1.1853  1.5579  0.4344
  102MOL0     H13761   1.848   6.798   6.825  0.3776  1.8536 -2.2205
  102MOL0     H13762   1.820   6.698   6.536  0.9641 -1.6942  1.6811
  102MOL0     H13763   1.943   6.806   6.601  0.3188  1.0679 -0.4436
  102MOL0     H13764   1.650   6.862   6.584  0.6159 -0.0424  3.4062
  102MOL0     H13765   1.766   6.926   6.468 -1.4988  0.1060  0.1760
  102MOL0     H13766   1.889   7.033   6.660  0.2874 -0.1328 -3.5983
  102MOL0     H13767   1.739   7.012   6.756 -0.9026  0.1841 -0.7087
  102MOL0     H13768   1.681   7.355   6.490 -1.7646 -1.2631 -1.2186
  102MOL0     H13769   2.033   6.718   6.901  0.8238  0.8520  0.4051
  102MOL0     H13770   2.231   6.596   6.986 -0.9968  1.1990 -1.6121
  103MOL0     O13771   0.756   8.532   6.423  0.1474 -0.2373  0.2493
  103MOL0     C13772   0.820   8.618   6.483  0.5222  0.0587 -0.1634
  103MOL0     O13773   0.769   8.738   6.532  0.0861  0.1427  0.0511
  103MOL0     C13774   0.639   8.775   6.511 -0.0744  0.5785  0.2417
  103MOL0     C13775   0.613   8.898   6.451 -0.3892  0.1247 -0.7580
  103MOL0     C13776   0.483   8.937   6.432  0.4879  0.3096  0.8012
  103MOL0     C13777   0.376   8.855   6.459 -0.4986 -0.5103 -0.3804
  103MOL0     O13778   0.256   8.912   6.437 -0.3431 -0.0087 -0.4499
  103MOL0     C13779   0.151   8.835   6.379 -0.6037 -0.2869  0.8015
  103MOL0     C13780   0.159   8.829   6.232  0.3891 -0.7360 -0.2990
  103MOL0     C13781   0.286   8.759   6.164 -0.0482 -0.3120  0.6371
  103MOL0     C13782   0.276   8.753   6.006  0.3973  0.1214 -0.1805
  103MOL0     C13783   0.337   8.880   5.939  0.4126  0.5467 -0.5271
  103MOL0     C13784   0.324   8.884   5.788  0.2576 -0.6579  0.3975
  103MOL0     C13785   0.188   8.869   5.719  0.0665  0.0125  0.0212
  103MOL0     C13786   0.179   8.885   5.564 -0.0832  0.3162  0.3194
  103MOL0     N13787   0.040   8.921   5.538 -0.1755  0.3021 -0.7213
  103MOL0     C13788  -0.007   9.051   5.556 -0.7169  1.0481  0.2862
  103MOL0     C13789  -0.136   9.052   5.506  0.8077  0.7309  0.5769
  103MOL0     C13790  -0.238   9.157   5.494  0.7436  0.3358 -0.3085
  103MOL0     C13791  -0.368   9.138   5.569 -0.2134  0.3935 -0.0419
  103MOL0     C13792  -0.447   9.012   5.504 -0.2277 -0.4914  0.0442
  103MOL0     C13793  -0.590   8.994   5.556  0.0355  0.2221 -0.4906
  103MOL0     O13794  -0.592   8.967   5.690 -0.9745 -0.5618 -0.8830
  103MOL0     C13795  -0.704   8.967   5.762  1.0718  0.5962  0.1713
  103MOL0     C13796  -0.713   9.054   5.873 -0.4750  0.4712  0.6042
  103MOL0     C13797  -0.821   9.049   5.965 -0.2014  0.1466  0.0693
  103MOL0     C13798  -0.816   9.133   6.088 -1.0724  0.8846 -0.9336
  103MOL0     C13799  -0.936   8.963   5.927 -1.1003 -0.2546  0.8043
  103MOL0     C13800  -1.047   8.936   6.011  0.5335 -0.0298  0.8241
  103MOL0     O13801  -1.144   8.856   5.960  0.8547  0.0005  0.3096
  103MOL0     C13802  -1.241   8.825   6.049  0.6839  0.3760  0.4355
  103MOL0     C13803  -1.363   8.901   6.033  0.3393  0.3337 -0.9051
  103MOL0     C13804  -1.475   8.877   6.107  0.3516  0.0769 -0.1693
  103MOL0     C13805  -1.475   8.757   6.190  0.3083  0.0307 -0.0554
  103MOL0     O13806  -1.583   8.709   6.266 -0.1278  1.0203 -0.3901
  103MOL0     C13807  -1.687   8.794   6.314  0.0235  0.2963  0.0796
  103MOL0     C13808  -1.813   8.790   6.226 -0.4282  0.6194  0.0005
  103MOL0     C13809  -1.908   8.907   6.254  0.3399 -0.6345  0.1101
  103MOL0     C13810  -2.025   8.864   6.333 -0.1356  0.5085  0.8771
  103MOL0     C13811  -2.135   8.977   6.364  0.2991  0.4454 -0.4615
  103MOL0     C13812  -2.241   8.981   6.255 -0.6407 -0.3334 -0.0837
  103MOL0     C13813  -2.359   9.062   6.309 -0.1280  0.2413  0.5297
  103MOL0     C13814  -2.484   8.982   6.340 -0.2642 -0.0173 -0.6780
  103MOL0    Cl13815  -2.565   8.946   6.185 -0.1810 -0.1902 -0.3255
  103MOL0     C13816  -1.352   8.687   6.215  1.0883 -0.7654  0.3161
  103MOL0     C13817  -1.233   8.721   6.142  0.0571  0.1992  0.4007
  103MOL0     O13818  -1.060   9.007   6.110 -0.1109 -0.4794 -0.1096
  103MOL0     C13819  -0.932   8.883   5.803 -0.1137  0.4770 -0.3591
  103MOL0     C13820  -0.818   8.887   5.732  0.4733 -1.0277  0.0142
  103MOL0     N13821  -0.153   8.926   5.457 -0.4438  0.1061 -0.1741
  103MOL0     N13822  -0.055   8.850   5.474 -0.0113 -0.2119 -0.0004
  103MOL0     C13823   0.405   8.739   6.522  0.9270 -0.2651  0.1186
  103MOL0     C13824   0.533   8.691   6.549 -0.7855  0.1939 -0.0073
  103MOL0     C13825   0.955   8.594   6.522  0.2051  0.0135 -0.0716
  103MOL0     C13826   1.027   8.489   6.451 -0.0786 -0.0812 -0.0122
  103MOL0     C13827   1.161   8.469   6.485  0.9786  0.0316  0.7040
  103MOL0     C13828   1.219   8.540   6.587 -0.1767  0.2120 -0.1354
  103MOL0     O13829   1.357   8.525   6.607 -0.6873  0.1390 -0.3857
  103MOL0     C13830   1.425   8.586   6.718 -0.2898 -0.0150 -0.6785
  103MOL0     C13831   1.553   8.510   6.759  0.6785  0.2777 -1.4416
  103MOL0     C13832   1.521   8.380   6.837  0.3001 -0.2755 -0.8915
  103MOL0     C13833   1.444   8.412   6.976 -0.7237 -0.2135  0.0760
  103MOL0     C13834   1.510   8.525   7.052  0.4565  0.4921  0.4606
  103MOL0     C13835   1.554   8.608   7.132 -0.1086 -0.7166  0.2221
  103MOL0     C13836   1.146   8.634   6.657 -0.3523  0.0618 -0.6252
  103MOL0     C13837   1.006   8.655   6.634 -0.5893 -1.0000 -0.2714
  103MOL0     H13838   0.696   8.967   6.442 -1.1881  1.2046 -0.1396
  103MOL0     H13839   0.464   9.025   6.372  1.4178  2.2448  3.1699
  103MOL0     H13840   0.141   8.732   6.415  2.8682 -0.6604  1.0433
  103MOL0     H13841   0.056   8.884   6.405  0.9574  1.4550  3.7741
  103MOL0     H13842   0.073   8.769   6.200  3.1072 -4.8175 -0.7697
  103MOL0     H13843   0.153   8.932   6.197  1.6403 -0.2598  0.7968
  103MOL0     H13844   0.380   8.809   6.184  0.3513 -0.8311  0.0917
  103MOL0     H13845   0.304   8.657   6.200  0.5939 -0.4763 -0.1378
  103MOL0     H13846   0.333   8.664   5.977 -1.3546 -0.9922 -0.3132
  103MOL0     H13847   0.176   8.736   5.966  0.0128  3.1506 -0.7514
  103MOL0     H13848   0.309   8.975   5.986  1.7433  0.3721  0.6993
  103MOL0     H13849   0.442   8.886   5.969  0.5246  0.1534 -0.8267
  103MOL0     H13850   0.365   8.977   5.747 -1.1822  0.1715  0.8073
  103MOL0     H13851   0.382   8.799   5.751  0.7652  0.0012 -0.3718
  103MOL0     H13852   0.143   8.777   5.758  0.5849  0.9122  3.0038
  103MOL0     H13853   0.134   8.953   5.764  2.1594  1.6236 -0.2923
  103MOL0     H13854   0.211   8.795   5.512  2.2123  0.7945  0.7910
  103MOL0     H13855   0.240   8.971   5.536 -0.1072 -0.3532 -1.9621
  103MOL0     H13856   0.050   9.135   5.594 -0.3611  0.3048  1.4919
  103MOL0     H13857  -0.187   9.245   5.535  0.7228 -0.9523  2.7965
  103MOL0     H13858  -0.254   9.167   5.386 -0.1501  1.6486 -0.0837
  103MOL0     H13859  -0.427   9.230   5.558 -0.8262  0.1839  1.3346
  103MOL0     H13860  -0.343   9.121   5.675 -1.2478  2.4957  0.5996
  103MOL0     H13861  -0.388   8.922   5.525  0.0779 -0.5290 -0.8931
  103MOL0     H13862  -0.445   9.032   5.396 -0.4672  0.2589  0.1697
  103MOL0     H13863  -0.637   8.922   5.488 -2.7502 -0.7770  2.3012
  103MOL0     H13864  -0.646   9.085   5.533  0.7070  1.1195  1.2214
  103MOL0     H13865  -0.624   9.116   5.885  0.3085 -0.7929  1.5279
  103MOL0     H13866  -0.802   9.061   6.169 -0.0680  1.6436 -0.4031
  103MOL0     H13867  -0.729   9.199   6.088  1.2674 -1.9817 -0.1546
  103MOL0     H13868  -0.904   9.196   6.105 -0.7889  1.2135 -0.6676
  103MOL0     H13869  -1.364   8.988   5.968  0.8393  0.9328 -0.1286
  103MOL0     H13870  -1.567   8.928   6.079  0.3324  0.5015  0.6448
  103MOL0     H13871  -1.702   8.749   6.412 -2.3488 -3.9875 -1.9781
  103MOL0     H13872  -1.636   8.891   6.312  0.6177 -0.0164 -0.8030
  103MOL0     H13873  -1.791   8.802   6.120 -0.5557 -1.5268 -0.3079
  103MOL0     H13874  -1.867   8.697   6.245  0.1297  0.1980 -0.4207
  103MOL0     H13875  -1.949   8.944   6.160  0.9561 -3.9204 -1.5951
  103MOL0     H13876  -1.857   8.991   6.303 -0.2562  1.5183 -2.7166
  103MOL0     H13877  -2.078   8.780   6.288  3.4938 -1.7455  0.3755
  103MOL0     H13878  -1.979   8.824   6.423  0.8668  0.5073  0.3839
  103MOL0     H13879  -2.081   9.072   6.365 -0.8734  1.1373  2.1491
  103MOL0     H13880  -2.173   8.968   6.466  1.6887  3.8335  0.5038
  103MOL0     H13881  -2.197   9.017   6.161 -0.1142 -0.8518 -0.0385
  103MOL0     H13882  -2.271   8.878   6.235  3.2469 -1.2370 -2.2305
  103MOL0     H13883  -2.383   9.141   6.237  1.3879 -1.0166 -1.4950
  103MOL0     H13884  -2.321   9.121   6.393 -0.1091 -0.2436  0.8624
  103MOL0     H13885  -2.555   9.026   6.410  0.4965 -1.7103  1.2544
  103MOL0     H13886  -2.447   8.889   6.383 -3.8902 -0.9023  0.8833
  103MOL0     H13887  -1.343   8.599   6.278  1.9677 -1.1520 -0.3461
  103MOL0     H13888  -1.135   8.677   6.161  0.1320  0.6254  1.0543
  103MOL0     H13889  -1.013   8.814   5.783 -0.7587 -0.1352  3.6175
  103MOL0     H13890  -0.809   8.824   5.644  2.3332 -1.2417  0.3009
  103MOL0     H13891   0.319   8.687   6.562  1.6821 -0.9950  0.8274
  103MOL0     H13892   0.546   8.597   6.600  0.1424 -1.3917 -2.8992
  103MOL0     H13893   0.980   8.428   6.374  0.4166 -1.6336  0.8772
  103MOL0     H13894   1.219   8.393   6.434 -1.0028 -0.2426 -1.2492
  103MOL0     H13895   1.450   8.690   6.694  1.6705 -0.5304 -1.0835
  103MOL0     H13896   1.362   8.589   6.807  0.0337  1.1247 -0.4655
  103MOL0     H13897   1.606   8.588   6.814 -2.1781  3.4921 -2.9083
  103MOL0     H13898   1.620   8.490   6.674  2.7020 -1.6227  0.4829
  103MOL0     H13899   1.614   8.326   6.856 -0.3911 -1.1499  0.1174
  103MOL0     H13900   1.449   8.312   6.791 -1.7713 -0.3278  2.1694
  103MOL0     H13901   1.442   8.314   7.027 -0.5811  0.0902  0.6773
  103MOL0     H13902   1.344   8.444   6.947  0.5095  3.3951 -0.6116
  103MOL0     H13903   1.603   8.679   7.196 -4.9596  1.6997  1.7553
  103MOL0     H13904   1.198   8.688   6.735  0.8585 -0.9889 -0.6881
  103MOL0     H13905   0.947   8.708   6.708  1.6706  0.7502  0.4025
  104MOL0     O13906   4.692  11.413  10.105 -0.3022 -0.4795  0.2581
  104MOL0     C13907   4.633  11.459  10.205  0.1175 -0.1235 -0.3976
  104MOL0     O13908   4.690  11.536  10.307 -0.2746  0.1201 -0.6811
  104MOL0     C13909   4.827  11.566  10.300  0.4189 -0.1181  0.5268
  104MOL0     C13910   4.912  11.479  10.362 -0.8847  0.5183  0.1948
  104MOL0     C13911   5.052  11.500  10.360 -0.1067 -0.6815  0.3850
  104MOL0     C13912   5.105  11.608  10.299 -0.8468  0.3955 -1.5792
  104MOL0     O13913   5.233  11.639  10.308 -1.2555  0.3359  0.5679
  104MOL0     C13914   5.333  11.533  10.337 -0.2826 -1.2585 -0.6849
  104MOL0     C13915   5.479  11.589  10.325  0.7566 -0.0115  1.2088
  104MOL0     C13916   5.519  11.599  10.171  0.7982 -0.1742 -0.7521
  104MOL0     C13917   5.660  11.650  10.165  0.0967 -0.3434  0.1074
  104MOL0     C13918   5.698  11.671  10.018  0.1718 -1.1413  0.4803
  104MOL0     C13919   5.846  11.711   9.999  0.7433 -0.0100 -0.4634
  104MOL0     C13920   5.893  11.697   9.853  0.8667 -0.2630  0.5410
  104MOL0     C13921   5.825  11.794   9.752  0.4859  0.4616  0.3835
  104MOL0     N13922   5.838  11.748   9.605  0.2220 -0.8603 -0.5698
  104MOL0     C13923   5.801  11.626   9.558  1.1549  0.5310 -0.1925
  104MOL0     C13924   5.843  11.608   9.428  0.6542 -0.5602 -0.7289
  104MOL0     C13925   5.818  11.487   9.344 -0.1180  0.1631  0.0518
  104MOL0     C13926   5.824  11.349   9.419  0.9297 -0.9261 -0.2807
  104MOL0     C13927   5.791  11.236   9.319  0.4261 -0.4293 -0.2967
  104MOL0     C13928   5.645  11.240   9.270 -0.2101 -0.2232 -0.0252
  104MOL0     O13929   5.553  11.240   9.378  1.0660  0.9490  0.3793
  104MOL0     C13930   5.418  11.276   9.351  0.4627 -0.4562 -0.1715
  104MOL0     C13931   5.328  11.257   9.454  0.3140 -0.6309 -0.0073
  104MOL0     C13932   5.189  11.285   9.437 -0.1104 -0.1292  0.3949
  104MOL0     C13933   5.114  11.250   9.565  0.2387 -0.1502 -0.3838
  104MOL0     C13934   5.142  11.323   9.308 -0.1529 -0.5177  0.3599
  104MOL0     C13935   4.988  11.333   9.285 -0.7123  1.3095  0.2811
  104MOL0     O13936   4.909  11.337   9.396  0.2406  0.0167 -0.2691
  104MOL0     C13937   4.771  11.326   9.366 -0.8677 -0.6352 -1.2664
  104MOL0     C13938   4.708  11.204   9.358 -0.0669  0.0537  0.6414
  104MOL0     C13939   4.567  11.187   9.345 -0.0479  0.8395 -0.5062
  104MOL0     C13940   4.486  11.298   9.335 -0.3999  0.2314 -0.1858
  104MOL0     O13941   4.345  11.276   9.341 -0.0985  0.5980  0.2285
  104MOL0     C13942   4.257  11.379   9.387  0.2394  0.8777 -0.1801
  104MOL0     C13943   4.284  11.408   9.539 -0.7028  0.8388  0.9442
  104MOL0     C13944   4.172  11.339   9.624  0.8158 -0.1332 -0.1496
  104MOL0     C13945   4.221  11.203   9.674 -0.3329  0.5034 -0.3017
  104MOL0     C13946   4.114  11.129   9.749  0.3582  0.3131  0.2166
  104MOL0     C13947   4.163  10.987   9.768 -0.3846  0.8391 -0.6264
  104MOL0     C13948   4.052  10.894   9.841 -0.6357 -0.2627 -0.6385
  104MOL0     C13949   4.131  10.759   9.859  0.0891 -0.0459 -1.0827
  104MOL0    Cl13950   4.021  10.633   9.903  0.0863  0.5688 -0.0604
  104MOL0     C13951   4.545  11.430   9.330 -0.1866 -0.3103 -0.4136
  104MOL0     C13952   4.690  11.442   9.348  0.6770 -1.0823 -0.9925
  104MOL0     O13953   4.954  11.346   9.168  1.1023 -0.7690  0.2528
  104MOL0     C13954   5.231  11.332   9.206  0.1029 -0.9642 -0.3870
  104MOL0     C13955   5.368  11.317   9.228  0.1480  1.0257 -0.1934
  104MOL0     N13956   5.901  11.735   9.392 -0.0010 -0.2533 -0.1618
  104MOL0     N13957   5.905  11.810   9.505 -0.2888  0.4016  0.9813
  104MOL0     C13958   5.019  11.691  10.219  1.5238  0.2731 -0.0816
  104MOL0     C13959   4.876  11.667  10.217 -0.9219 -0.0503 -0.3156
  104MOL0     C13960   4.489  11.425  10.210  0.2540 -0.6991  0.8345
  104MOL0     C13961   4.393  11.491  10.297 -1.6222 -0.7440  0.6655
  104MOL0     C13962   4.262  11.443  10.293  0.3829 -0.7511  0.0167
  104MOL0     C13963   4.215  11.335  10.226  0.0726  0.0255  0.0057
  104MOL0     O13964   4.084  11.303  10.245  0.2002  0.3746 -0.1374
  104MOL0     C13965   4.021  11.188  10.177 -0.4315 -0.2455 -0.1289
  104MOL0     C13966   3.876  11.172  10.215 -0.5717  0.5475 -0.2043
  104MOL0     C13967   3.878  11.123  10.368  0.1608  0.0959 -0.2059
  104MOL0     C13968   3.767  11.036  10.398  1.0774 -0.6685  0.0106
  104MOL0     C13969   3.639  11.112  10.397  0.6902 -0.8526  0.1284
  104MOL0     C13970   3.540  11.180  10.386 -0.1236 -0.4427 -0.4516
  104MOL0     C13971   4.314  11.265  10.152  1.0434  0.3955  0.3482
  104MOL0     C13972   4.440  11.308  10.140  0.0943 -0.4241 -0.0953
  104MOL0     H13973   4.869  11.395  10.415  0.5610 -0.7056 -0.4975
  104MOL0     H13974   5.112  11.437  10.425  0.4902  0.2471  0.7397
  104MOL0     H13975   5.328  11.497  10.440  1.6392  1.2142  0.3618
  104MOL0     H13976   5.325  11.447  10.270  1.0233 -0.8184 -1.4452
  104MOL0     H13977   5.489  11.678  10.388 -4.8747  2.0670 -0.2373
  104MOL0     H13978   5.540  11.507  10.364 -0.1554 -2.6527 -2.3899
  104MOL0     H13979   5.506  11.505  10.117 -2.9411  0.4192 -1.1139
  104MOL0     H13980   5.456  11.674  10.122  0.2706 -0.6322 -0.7748
  104MOL0     H13981   5.664  11.748  10.213 -3.5382 -1.4669  3.2111
  104MOL0     H13982   5.733  11.583  10.210  0.4494  0.0144  0.0733
  104MOL0     H13983   5.674  11.576   9.969 -0.7712 -0.7948  0.2457
  104MOL0     H13984   5.627  11.739   9.971  1.4755 -0.6846 -0.8672
  104MOL0     H13985   5.873  11.805  10.048  1.8796 -0.2406 -0.6018
  104MOL0     H13986   5.905  11.635  10.052  1.7360 -0.5656 -2.2826
  104MOL0     H13987   5.998  11.728   9.852  0.8738 -0.2914  0.3768
  104MOL0     H13988   5.896  11.594   9.815 -0.3301  0.7940 -2.7509
  104MOL0     H13989   5.890  11.882   9.763  0.8164  0.1413  1.0990
  104MOL0     H13990   5.724  11.824   9.780  1.6990  4.0614  1.4789
  104MOL0     H13991   5.764  11.550   9.626  2.8806 -0.3444 -0.1737
  104MOL0     H13992   5.722  11.511   9.297  0.1993  0.1039 -0.6222
  104MOL0     H13993   5.891  11.485   9.263 -2.4859 -2.2365 -2.1867
  104MOL0     H13994   5.750  11.350   9.499  0.1588  3.3516 -0.8034
  104MOL0     H13995   5.926  11.336   9.457  1.2172  0.3098 -0.5794
  104MOL0     H13996   5.829  11.143   9.362  2.1617  1.1528  1.8303
  104MOL0     H13997   5.855  11.252   9.232  0.0972  0.2045 -0.4295
  104MOL0     H13998   5.630  11.151   9.209  0.4641 -1.9618  2.2192
  104MOL0     H13999   5.642  11.335   9.215  0.1694 -1.6318 -2.6481
  104MOL0     H14000   5.365  11.242   9.554  0.8830  1.6737  0.1857
  104MOL0     H14001   5.173  11.193   9.638 -0.8313 -1.6291 -0.6116
  104MOL0     H14002   5.083  11.343   9.612 -0.4436 -0.6422  0.1578
  104MOL0     H14003   5.025  11.190   9.543  0.9594 -0.2278 -3.6336
  104MOL0     H14004   4.771  11.115   9.365  0.1572 -0.0481 -1.7213
  104MOL0     H14005   4.512  11.094   9.349 -1.6581  1.6664 -1.9181
  104MOL0     H14006   4.283  11.474   9.338 -1.6494  2.7432  2.1664
  104MOL0     H14007   4.156  11.350   9.360  0.5970  0.2464 -0.8729
  104MOL0     H14008   4.386  11.389   9.573 -0.1194  2.4371  0.1890
  104MOL0     H14009   4.286  11.517   9.552 -0.1104  0.8672  0.6415
  104MOL0     H14010   4.086  11.320   9.559  1.5608 -0.4140 -1.0743
  104MOL0     H14011   4.148  11.406   9.707  1.0502 -1.0875  0.7055
  104MOL0     H14012   4.252  11.142   9.589  0.6918  1.6895 -0.8093
  104MOL0     H14013   4.304  11.220   9.742  1.6397 -0.1030 -2.4453
  104MOL0     H14014   4.028  11.133   9.681 -0.0914  1.7861  0.8254
  104MOL0     H14015   4.098  11.187   9.840  2.1011 -1.5828  1.8405
  104MOL0     H14016   4.188  10.943   9.672 -2.6415 -0.2817 -0.7811
  104MOL0     H14017   4.250  10.988   9.834 -1.0824 -0.8903  0.3917
  104MOL0     H14018   3.962  10.873   9.782 -0.2152  0.0083 -1.3977
  104MOL0     H14019   4.024  10.932   9.939  0.1779 -0.5787 -0.2746
  104MOL0     H14020   4.221  10.767   9.921 -0.3447  3.8827 -0.7473
  104MOL0     H14021   4.178  10.730   9.765 -0.6622 -1.6771 -0.9994
  104MOL0     H14022   4.488  11.518   9.302 -0.5519 -0.9284 -1.6634
  104MOL0     H14023   4.735  11.541   9.343 -1.1978 -0.1706 -0.7645
  104MOL0     H14024   5.199  11.335   9.102  1.3197 -4.4650 -1.0224
  104MOL0     H14025   5.434  11.324   9.142  3.3181  2.2465  2.1654
  104MOL0     H14026   5.072  11.772  10.170  2.3666  1.1058  2.0739
  104MOL0     H14027   4.819  11.747  10.172 -3.1056  0.0414  2.3842
  104MOL0     H14028   4.419  11.592  10.330 -0.3412  0.3464 -3.1142
  104MOL0     H14029   4.188  11.501  10.348  0.5757 -1.5134  1.1217
  104MOL0     H14030   4.020  11.209  10.069  0.1128  2.3521  0.2995
  104MOL0     H14031   4.073  11.094  10.195 -1.0342 -0.8659 -1.5115
  104MOL0     H14032   3.825  11.102  10.147 -2.1545  0.4344  1.0372
  104MOL0     H14033   3.815  11.262  10.212 -2.7698 -0.7482  1.6992
  104MOL0     H14034   3.869  11.216  10.425 -0.7843 -0.5643  0.7507
  104MOL0     H14035   3.974  11.075  10.393  1.2808  0.4013 -3.3931
  104MOL0     H14036   3.790  10.990  10.495 -1.1496  3.0918  2.6007
  104MOL0     H14037   3.758  10.959  10.322  2.1425  0.1128 -0.9389
  104MOL0     H14038   3.453  11.243  10.387  0.4362  0.4770 -2.6940
  104MOL0     H14039   4.281  11.178  10.096  0.5944 -0.5745  2.0256
  104MOL0     H14040   4.504  11.257  10.067  0.7289  0.0781  0.1047
  105MOL0     O14041   0.856   3.445  10.725  0.4587  0.1258 -0.2796
  105MOL0     C14042   0.806   3.341  10.769 -0.4212  0.6504 -0.2393
  105MOL0     O14043   0.853   3.213  10.755  0.0157  0.2917  0.0216
  105MOL0     C14044   0.937   3.190  10.659 -0.3642 -0.6727  0.9324
  105MOL0     C14045   0.944   3.263  10.538 -0.5799 -0.4444 -0.6589
  105MOL0     C14046   1.035   3.238  10.437 -0.5128 -0.2955 -0.8543
  105MOL0     C14047   1.126   3.132  10.457 -0.0822 -0.3768  0.6758
  105MOL0     O14048   1.232   3.092  10.382  0.5990 -0.6913  0.4633
  105MOL0     C14049   1.223   3.077  10.237 -0.2351 -0.5953 -1.0276
  105MOL0     C14050   1.280   2.939  10.196  0.4239 -0.0919  0.5586
  105MOL0     C14051   1.427   2.917  10.236 -0.7002  0.0748  0.2445
  105MOL0     C14052   1.482   2.804  10.153 -0.0110 -0.1667  0.2470
  105MOL0     C14053   1.626   2.777  10.203  0.3293 -0.6300 -0.0476
  105MOL0     C14054   1.688   2.673  10.105 -0.2202  0.9800 -0.0322
  105MOL0     C14055   1.754   2.578  10.206 -1.4971 -0.8920 -0.2586
  105MOL0     C14056   1.870   2.501  10.143  0.3764  0.2674 -0.4470
  105MOL0     N14057   2.003   2.560  10.095 -0.2594  0.1088 -0.3521
  105MOL0     C14058   2.075   2.529   9.991 -0.1558 -0.0098  0.2169
  105MOL0     C14059   2.184   2.617  10.000 -0.0691  0.2417 -0.6878
  105MOL0     C14060   2.271   2.645   9.885 -0.0694 -0.1392  0.1310
  105MOL0     C14061   2.394   2.548   9.871  0.0398  0.0773  0.2051
  105MOL0     C14062   2.471   2.585   9.741 -0.5080  0.1100 -0.8679
  105MOL0     C14063   2.593   2.498   9.738  0.7118  0.2736  0.0424
  105MOL0     O14064   2.682   2.540   9.845  0.4876 -0.5380 -0.1811
  105MOL0     C14065   2.800   2.482   9.853  0.6769 -0.2067  0.2753
  105MOL0     C14066   2.877   2.519   9.969  0.2051  0.3523  0.3654
  105MOL0     C14067   3.008   2.488   9.984 -0.3280 -0.1375  0.0695
  105MOL0     C14068   3.085   2.548  10.099  0.5343  0.4224 -0.7202
  105MOL0     C14069   3.069   2.391   9.892 -1.3630 -0.5512 -0.2739
  105MOL0     C14070   3.212   2.335   9.909  0.1487  0.6425  1.3405
  105MOL0     O14071   3.251   2.254   9.798 -0.7298 -0.3118  0.2370
  105MOL0     C14072   3.352   2.167   9.827  0.2237  0.1964  1.0134
  105MOL0     C14073   3.331   2.050   9.899 -0.0674 -1.2424 -0.0147
  105MOL0     C14074   3.435   1.960   9.916  0.1696  0.0927  1.0372
  105MOL0     C14075   3.559   1.979   9.854 -0.0801  0.8728 -0.5954
  105MOL0     O14076   3.678   1.909   9.872 -0.6142  0.2235 -0.2183
  105MOL0     C14077   3.680   1.815   9.982 -0.0095  0.0807 -0.1964
  105MOL0     C14078   3.813   1.728   9.983 -0.3394 -1.2057  0.8333
  105MOL0     C14079   3.811   1.609   9.883 -0.0923  0.1253 -0.0306
  105MOL0     C14080   3.842   1.481   9.968 -0.1398 -0.9943  0.9002
  105MOL0     C14081   3.807   1.349   9.898  0.2618 -0.9155 -1.2441
  105MOL0     C14082   3.869   1.226   9.967 -0.1242 -0.0339 -0.6048
  105MOL0     C14083   3.806   1.176  10.089  0.1703 -0.9505 -0.7073
  105MOL0     C14084   3.660   1.123  10.067  0.4135  1.0988 -1.0128
  105MOL0    Cl14085   3.667   0.975   9.961 -0.1245 -0.5297 -0.2751
  105MOL0     C14086   3.564   2.083   9.757 -0.0218  1.0564 -0.0888
  105MOL0     C14087   3.467   2.182   9.753 -0.4278 -0.2819 -0.5008
  105MOL0     O14088   3.280   2.357  10.005 -0.7301  0.2685 -0.1657
  105MOL0     C14089   2.987   2.344   9.789 -0.3582 -0.5547  0.1592
  105MOL0     C14090   2.856   2.385   9.765  0.9278  0.8995 -0.5825
  105MOL0     N14091   2.186   2.686  10.121  0.3729  0.2651  0.2025
  105MOL0     N14092   2.076   2.647  10.182  0.0301  0.3082 -0.6009
  105MOL0     C14093   1.120   3.054  10.575  0.7887  0.4360  0.6971
  105MOL0     C14094   1.018   3.072  10.664 -0.0156  0.2823 -0.7937
  105MOL0     C14095   0.689   3.351  10.858  0.0736 -0.3283 -0.3372
  105MOL0     C14096   0.651   3.244  10.939  0.6543 -0.3000  0.5063
  105MOL0     C14097   0.549   3.258  11.029 -0.4720  0.3959 -0.2223
  105MOL0     C14098   0.479   3.372  11.041  0.2191 -1.4291  0.4154
  105MOL0     O14099   0.377   3.382  11.137 -0.2572 -1.0098 -0.4939
  105MOL0     C14100   0.425   3.442  11.252 -0.1027 -0.4269 -0.5145
  105MOL0     C14101   0.428   3.361  11.377 -0.0453  0.2921 -0.6496
  105MOL0     C14102   0.460   3.457  11.493  0.3514 -0.2580 -0.1771
  105MOL0     C14103   0.452   3.396  11.636  0.6401  0.0566 -0.1396
  105MOL0     C14104   0.537   3.279  11.658  0.2602 -0.5501  0.9206
  105MOL0     C14105   0.585   3.174  11.689 -0.2929 -0.2303 -0.1507
  105MOL0     C14106   0.508   3.480  10.961  0.4757  0.0069  0.2684
  105MOL0     C14107   0.618   3.476  10.866 -0.3942 -1.1755 -0.5194
  105MOL0     H14108   0.876   3.345  10.514 -0.7111 -0.1263  0.6803
  105MOL0     H14109   1.035   3.295  10.345  0.8706  4.5142  1.8160
  105MOL0     H14110   1.121   3.091  10.203 -0.4661  0.8668  0.1538
  105MOL0     H14111   1.290   3.156  10.201  0.1671 -1.4876 -2.3007
  105MOL0     H14112   1.212   2.859  10.226  3.8571 -2.7647  1.9998
  105MOL0     H14113   1.269   2.931  10.088  2.1020 -1.5910  0.4440
  105MOL0     H14114   1.475   3.012  10.208  0.7918 -1.5910 -3.5984
  105MOL0     H14115   1.439   2.895  10.342  0.7924 -0.7303 -0.0670
  105MOL0     H14116   1.426   2.711  10.164  1.1420 -0.8851  0.2353
  105MOL0     H14117   1.468   2.832  10.048  0.8094  0.0356  0.1863
  105MOL0     H14118   1.693   2.863  10.209  0.6221 -0.8158 -0.6279
  105MOL0     H14119   1.620   2.739  10.305  1.0960 -1.8474 -0.4412
  105MOL0     H14120   1.622   2.608  10.047  2.8778 -2.7231  0.1709
  105MOL0     H14121   1.754   2.725  10.034 -0.7770 -0.3337 -1.5639
  105MOL0     H14122   1.796   2.625  10.295 -2.6257 -4.2942  2.2550
  105MOL0     H14123   1.678   2.512  10.248  1.5413 -3.1584  2.1686
  105MOL0     H14124   1.818   2.462  10.055  0.7720 -0.3200 -0.4261
  105MOL0     H14125   1.888   2.418  10.212  1.2230  0.2788 -0.6407
  105MOL0     H14126   2.050   2.471   9.904 -0.6660  2.0042 -1.0453
  105MOL0     H14127   2.209   2.632   9.796 -2.0667 -1.3821  1.6259
  105MOL0     H14128   2.311   2.747   9.891  3.5392 -1.3438 -0.8441
  105MOL0     H14129   2.358   2.445   9.871 -2.6684  0.9385  1.5118
  105MOL0     H14130   2.457   2.556   9.960  1.0849  0.7471 -0.5698
  105MOL0     H14131   2.494   2.692   9.744 -1.9666  0.4144  0.4025
  105MOL0     H14132   2.419   2.582   9.645  1.0278  1.4728 -1.7905
  105MOL0     H14133   2.640   2.514   9.640  0.5800 -1.2118 -0.2828
  105MOL0     H14134   2.558   2.395   9.736 -1.3473  0.9255  0.3409
  105MOL0     H14135   2.822   2.592  10.028 -2.1849  0.4901 -1.8365
  105MOL0     H14136   3.165   2.607  10.053  1.0060  0.6739  0.3906
  105MOL0     H14137   3.023   2.629  10.141  0.8028  0.4530 -0.3819
  105MOL0     H14138   3.127   2.479  10.172 -0.2330  0.1489 -0.5290
  105MOL0     H14139   3.234   2.050   9.949  0.1240  1.7023  0.5691
  105MOL0     H14140   3.433   1.888   9.997  1.2247 -0.6679  0.4027
  105MOL0     H14141   3.677   1.875  10.074 -1.3733 -1.6576  0.9621
  105MOL0     H14142   3.603   1.738   9.985 -0.1106  0.1098 -1.4801
  105MOL0     H14143   3.901   1.793   9.972 -0.1375 -1.2871  1.8764
  105MOL0     H14144   3.822   1.691  10.086 -0.0117  2.9826  2.5150
  105MOL0     H14145   3.890   1.626   9.809 -0.0473  0.3493  0.0681
  105MOL0     H14146   3.712   1.598   9.837 -1.3095 -1.4238  2.7160
  105MOL0     H14147   3.948   1.477   9.997 -0.5064  1.1380  2.9209
  105MOL0     H14148   3.791   1.478  10.065 -1.3611  1.5493  0.4346
  105MOL0     H14149   3.866   1.360   9.807 -1.7860 -0.7906 -2.6365
  105MOL0     H14150   3.699   1.345   9.881  0.2695 -0.8576 -1.3043
  105MOL0     H14151   3.866   1.146   9.893  0.3907 -1.1754  0.5839
  105MOL0     H14152   3.975   1.246   9.986 -1.1539  2.2378  4.4120
  105MOL0     H14153   3.810   1.255  10.165 -1.5748 -1.4918 -0.0032
  105MOL0     H14154   3.875   1.098  10.123  2.0557  0.9068 -0.0273
  105MOL0     H14155   3.596   1.202  10.025  0.5826  1.1082 -1.2486
  105MOL0     H14156   3.600   1.101  10.156  3.7743 -1.3566  0.8373
  105MOL0     H14157   3.650   2.085   9.691 -0.2729 -2.9017 -0.7731
  105MOL0     H14158   3.478   2.268   9.687  0.8046 -0.6501 -0.8039
  105MOL0     H14159   3.032   2.287   9.709  2.3288  0.6592  0.7177
  105MOL0     H14160   2.803   2.356   9.675 -3.2273 -0.2060  1.9976
  105MOL0     H14161   1.188   2.971  10.591 -1.4042 -1.2683  1.8626
  105MOL0     H14162   1.007   3.004  10.747  0.0396 -0.1529 -1.1366
  105MOL0     H14163   0.703   3.151  10.921 -0.4092 -0.8541  0.1701
  105MOL0     H14164   0.534   3.181  11.104 -0.0484 -0.2745 -0.8095
  105MOL0     H14165   0.521   3.492  11.235 -0.9838  2.4640  2.0474
  105MOL0     H14166   0.360   3.527  11.277  1.7172  0.4568  1.5054
  105MOL0     H14167   0.493   3.274  11.365  1.2042  1.0082  0.6440
  105MOL0     H14168   0.323   3.333  11.391 -0.4698  2.9618  3.2264
  105MOL0     H14169   0.405   3.551  11.494  1.9867  0.9528 -4.0825
  105MOL0     H14170   0.564   3.487  11.475 -0.8811  3.2389 -2.5558
  105MOL0     H14171   0.347   3.375  11.659  0.3509  0.1447 -1.2942
  105MOL0     H14172   0.496   3.467  11.706  2.2101 -0.0015 -1.0264
  105MOL0     H14173   0.640   3.086  11.717  0.9116  0.3993 -0.4384
  105MOL0     H14174   0.436   3.561  10.964  0.4716  0.0022  0.3079
  105MOL0     H14175   0.645   3.559  10.801  0.4781 -2.8293 -2.3750
  106MOL0     O14176   1.492   9.874  10.545 -0.4115 -0.1828  0.8022
  106MOL0     C14177   1.377   9.917  10.544  0.5121 -0.2293 -0.1448
  106MOL0     O14178   1.273   9.859  10.478  0.0593  0.3834 -0.0177
  106MOL0     C14179   1.216   9.741  10.530 -0.2132  0.5560  0.6603
  106MOL0     C14180   1.231   9.699  10.658 -0.0218  0.4255 -0.4283
  106MOL0     C14181   1.170   9.581  10.704  0.4574 -0.1782 -0.3774
  106MOL0     C14182   1.102   9.494  10.624  0.6327  0.3742  1.1750
  106MOL0     O14183   1.026   9.393  10.668  0.6439  0.5784 -0.0318
  106MOL0     C14184   1.036   9.319  10.795 -0.9864 -1.0949  0.7073
  106MOL0     C14185   0.941   9.210  10.828 -0.3941 -1.0238  0.0199
  106MOL0     C14186   0.800   9.251  10.814  0.6757 -0.4499  0.0641
  106MOL0     C14187   0.705   9.145  10.744 -0.4700 -0.1471 -0.6067
  106MOL0     C14188   0.573   9.221  10.724  0.4143 -0.2348  0.1898
  106MOL0     C14189   0.466   9.141  10.650  0.8206 -0.5065  0.0107
  106MOL0     C14190   0.329   9.227  10.643 -0.8434  0.1374 -0.6106
  106MOL0     C14191   0.221   9.152  10.563 -0.7984 -0.5989  0.1036
  106MOL0     N14192   0.207   9.161  10.419  0.6926  0.6216 -0.2153
  106MOL0     C14193   0.144   9.264  10.349 -0.2913  0.2049 -0.0251
  106MOL0     C14194   0.149   9.229  10.216  0.7372 -0.0632  0.8665
  106MOL0     C14195   0.074   9.305  10.099  0.5806  0.5174 -0.4214
  106MOL0     C14196  -0.071   9.345  10.138  0.3545 -0.3447  0.7871
  106MOL0     C14197  -0.142   9.401  10.015 -0.7815  0.0967  0.8422
  106MOL0     C14198  -0.282   9.443  10.027  0.2438 -0.7821 -0.4714
  106MOL0     O14199  -0.307   9.549   9.927 -0.1858 -0.1685  0.5170
  106MOL0     C14200  -0.435   9.563   9.878  0.6000 -0.0554 -0.8200
  106MOL0     C14201  -0.445   9.642   9.768  0.6518  0.0939 -0.9772
  106MOL0     C14202  -0.573   9.665   9.708 -0.5160 -0.1941  0.1133
  106MOL0     C14203  -0.574   9.754   9.584 -0.0696  0.3349 -0.6965
  106MOL0     C14204  -0.689   9.608   9.757 -0.1252 -0.6778 -0.4089
  106MOL0     C14205  -0.833   9.615   9.688  0.2266  0.4484 -0.0739
  106MOL0     O14206  -0.921   9.512   9.727  0.7993  1.1490  0.2260
  106MOL0     C14207  -1.052   9.519   9.670  0.0020  0.1147  0.7341
  106MOL0     C14208  -1.089   9.425   9.573 -0.0213  0.6757  0.1276
  106MOL0     C14209  -1.217   9.427   9.500 -0.4975 -0.1798  0.1492
  106MOL0     C14210  -1.304   9.528   9.540  1.4111  0.4484  1.0696
  106MOL0     O14211  -1.433   9.538   9.492  0.6080 -1.0185 -0.8331
  106MOL0     C14212  -1.483   9.424   9.415  0.0922  0.1581 -0.5343
  106MOL0     C14213  -1.616   9.466   9.349  0.5455  0.3879 -0.2931
  106MOL0     C14214  -1.715   9.510   9.463 -0.3299 -0.3034 -0.5419
  106MOL0     C14215  -1.859   9.525   9.402  0.8151 -0.0827 -0.6141
  106MOL0     C14216  -1.976   9.551   9.508 -0.3015 -0.7112 -0.3927
  106MOL0     C14217  -2.094   9.618   9.435 -0.3595 -0.0221 -0.4034
  106MOL0     C14218  -2.201   9.658   9.545  0.4892 -0.4196 -0.4248
  106MOL0     C14219  -2.276   9.533   9.598  0.0514 -0.3999 -0.3621
  106MOL0    Cl14220  -2.398   9.487   9.463 -0.4119  0.1137 -0.1893
  106MOL0     C14221  -1.275   9.619   9.636  0.4468  0.0668 -0.1846
  106MOL0     C14222  -1.152   9.618   9.708  0.2070  0.4859  0.2388
  106MOL0     O14223  -0.865   9.728   9.634  1.0695 -0.2158  0.0614
  106MOL0     C14224  -0.675   9.521   9.865 -0.0344 -0.4864 -0.4421
  106MOL0     C14225  -0.549   9.506   9.922  0.0359  0.2788 -0.1607
  106MOL0     N14226   0.212   9.101  10.209  0.0891 -0.2536 -0.5275
  106MOL0     N14227   0.236   9.060  10.334 -0.7810  0.1469  0.3829
  106MOL0     C14228   1.079   9.535  10.492 -0.5280  0.0821  0.5070
  106MOL0     C14229   1.127   9.661  10.448 -0.4660  0.3183  0.4320
  106MOL0     C14230   1.358  10.055  10.594 -0.1252  0.3733  0.1234
  106MOL0     C14231   1.455  10.114  10.678 -0.1684  1.2443  0.3859
  106MOL0     C14232   1.446  10.238  10.725  0.7044  0.0348 -0.1162
  106MOL0     C14233   1.339  10.319  10.702 -0.4599  0.1503 -0.5885
  106MOL0     O14234   1.322  10.433  10.779  0.1193  0.4752  0.4100
  106MOL0     C14235   1.201  10.503  10.764 -0.3711  0.1872  0.2485
  106MOL0     C14236   1.209  10.630  10.850  1.1218 -0.5849  0.5390
  106MOL0     C14237   1.199  10.582  10.990  0.2108 -0.0109 -0.3315
  106MOL0     C14238   1.288  10.664  11.074 -0.4810  0.4746 -0.2257
  106MOL0     C14239   1.226  10.787  11.124 -0.0539 -0.0910 -0.0388
  106MOL0     C14240   1.163  10.881  11.167  0.1004  0.4451 -0.0448
  106MOL0     C14241   1.250  10.276  10.607 -0.2858  0.3631  0.3623
  106MOL0     C14242   1.252  10.142  10.548 -0.1510 -0.3420  0.0200
  106MOL0     H14243   1.278   9.767  10.728  0.7769 -0.2163 -0.3341
  106MOL0     H14244   1.178   9.547  10.807  0.7680  1.3113  0.1170
  106MOL0     H14245   1.132   9.268  10.791 -0.4985 -0.1986  0.6874
  106MOL0     H14246   1.022   9.381  10.884  2.9181 -0.5839  1.1445
  106MOL0     H14247   0.974   9.124  10.768  0.3755 -2.2240  2.0801
  106MOL0     H14248   0.965   9.180  10.930  3.0064  1.4749  0.1603
  106MOL0     H14249   0.763   9.266  10.915 -1.2246 -1.3006 -0.4431
  106MOL0     H14250   0.788   9.347  10.763 -1.5226 -0.6262  0.1176
  106MOL0     H14251   0.740   9.112  10.646  0.0189 -1.6956  0.0613
  106MOL0     H14252   0.699   9.054  10.805  0.0928 -1.1815 -2.0501
  106MOL0     H14253   0.543   9.237  10.828 -2.1485 -0.6054 -0.4201
  106MOL0     H14254   0.582   9.325  10.689 -0.0768 -0.6223 -1.1248
  106MOL0     H14255   0.478   9.119  10.544 -1.5741  0.6738 -0.5864
  106MOL0     H14256   0.454   9.050  10.709 -3.0529  1.0456  1.9933
  106MOL0     H14257   0.288   9.228  10.745 -2.4111  0.7413 -1.2224
  106MOL0     H14258   0.355   9.325  10.604  2.7128 -0.6637 -0.5688
  106MOL0     H14259   0.118   9.176  10.589 -0.6064 -1.2178  1.5479
  106MOL0     H14260   0.217   9.047  10.593  0.2607 -0.3297  1.2937
  106MOL0     H14261   0.106   9.361  10.382  1.7369  1.1195 -0.2217
  106MOL0     H14262   0.118   9.401  10.074  2.2186  0.1280  0.8031
  106MOL0     H14263   0.083   9.226  10.023  1.5721 -0.1040  0.3098
  106MOL0     H14264  -0.066   9.421  10.215 -0.6767  0.5118  0.0295
  106MOL0     H14265  -0.127   9.261  10.180 -1.5092  0.7069  0.4777
  106MOL0     H14266  -0.135   9.338   9.926 -1.5091  1.3235 -0.1219
  106MOL0     H14267  -0.087   9.491   9.985  1.0663 -0.4704  2.3356
  106MOL0     H14268  -0.302   9.486  10.126 -0.2801 -3.0696  0.4693
  106MOL0     H14269  -0.347   9.356  10.014  2.9690 -3.1773  0.7297
  106MOL0     H14270  -0.359   9.689   9.721 -0.3359  1.0035 -1.9338
  106MOL0     H14271  -0.478   9.803   9.569  1.2199 -2.0020 -0.5882
  106MOL0     H14272  -0.600   9.691   9.498  1.1021 -2.3660  0.7815
  106MOL0     H14273  -0.650   9.833   9.591  1.2566  1.6548 -0.7821
  106MOL0     H14274  -1.013   9.350   9.555  1.8514  2.6648 -0.5933
  106MOL0     H14275  -1.234   9.351   9.425  0.1154  0.7554 -0.9691
  106MOL0     H14276  -1.413   9.397   9.335 -0.7466  1.6419 -1.8127
  106MOL0     H14277  -1.503   9.336   9.478 -1.8988 -3.0937 -5.0909
  106MOL0     H14278  -1.605   9.548   9.277 -0.2295  1.9281  1.2670
  106MOL0     H14279  -1.654   9.375   9.302  2.1633 -0.0770 -0.7476
  106MOL0     H14280  -1.690   9.610   9.498 -3.5621  0.5057 -0.2448
  106MOL0     H14281  -1.714   9.441   9.548  0.9411  1.2967  0.8172
  106MOL0     H14282  -1.854   9.605   9.329  1.0782 -0.9080 -1.5166
  106MOL0     H14283  -1.894   9.436   9.350 -1.8349  0.3503  0.2825
  106MOL0     H14284  -1.934   9.617   9.585  0.0202 -1.3575 -0.0130
  106MOL0     H14285  -1.999   9.460   9.563  0.3919  1.2902  3.6162
  106MOL0     H14286  -2.053   9.710   9.392  1.7147 -1.0574 -0.7918
  106MOL0     H14287  -2.136   9.545   9.365  0.2885 -0.5682 -0.2381
  106MOL0     H14288  -2.270   9.738   9.513  0.5892 -0.7455 -1.4884
  106MOL0     H14289  -2.143   9.700   9.628 -1.4981  1.8190 -0.0457
  106MOL0     H14290  -2.319   9.546   9.698  1.8218 -1.6974  0.6223
  106MOL0     H14291  -2.206   9.450   9.609 -0.3308 -0.8718 -1.3443
  106MOL0     H14292  -1.346   9.700   9.648  4.0800  3.4789  0.5533
  106MOL0     H14293  -1.121   9.695   9.778  0.2129  0.2665  0.4772
  106MOL0     H14294  -0.765   9.483   9.910  0.8866  1.6525  3.6552
  106MOL0     H14295  -0.548   9.434  10.003 -1.6743  0.4601  0.0541
  106MOL0     H14296   1.006   9.478  10.435 -3.0086  0.6695  2.8662
  106MOL0     H14297   1.098   9.701  10.352 -1.1099 -1.7518 -0.2716
  106MOL0     H14298   1.538  10.048  10.703  1.1540  0.1772 -5.3732
  106MOL0     H14299   1.522  10.259  10.799  1.9450  0.2738 -1.4232
  106MOL0     H14300   1.195  10.543  10.662 -0.6262 -0.0754  0.1598
  106MOL0     H14301   1.113  10.444  10.789  0.3332 -0.8267  0.4092
  106MOL0     H14302   1.125  10.695  10.824  0.7156 -1.0838  0.5846
  106MOL0     H14303   1.299  10.689  10.833 -0.3898  1.9612  0.8416
  106MOL0     H14304   1.217  10.474  10.992 -0.1729 -0.0600  0.5928
  106MOL0     H14305   1.094  10.582  11.021  0.4068 -0.0781  0.3473
  106MOL0     H14306   1.383  10.681  11.022 -1.0496  0.0244 -1.4430
  106MOL0     H14307   1.311  10.600  11.160  0.0376  2.0333  0.8582
  106MOL0     H14308   1.096  10.950  11.214 -0.8761 -2.9631  4.1931
  106MOL0     H14309   1.170  10.336  10.565 -1.8475 -1.2008  0.9596
  106MOL0     H14310   1.172  10.104  10.486  0.8984 -0.5803 -1.2212
  107MOL0     O14311   1.386  10.773  10.600 -0.6121 -0.3435  0.4740
  107MOL0     C14312   1.488  10.841  10.590 -1.1486  0.4612 -0.2418
  107MOL0     O14313   1.613  10.801  10.534  1.3060 -0.3292 -0.6761
  107MOL0     C14314   1.618  10.683  10.478  0.1756 -0.4001  0.9228
  107MOL0     C14315   1.671  10.668  10.349  0.4951  0.3837  0.5048
  107MOL0     C14316   1.673  10.547  10.287  0.2030  0.0711 -0.3925
  107MOL0     C14317   1.622  10.433  10.355  0.6241  0.0257  0.1861
  107MOL0     O14318   1.627  10.315  10.287 -0.8740 -0.0798  0.0227
  107MOL0     C14319   1.702  10.204  10.354 -0.3881 -0.3639  0.1481
  107MOL0     C14320   1.682  10.069  10.285 -0.7275 -1.2428 -0.4580
  107MOL0     C14321   1.709  10.083  10.134 -0.8016 -0.3161 -0.4861
  107MOL0     C14322   1.666   9.960  10.056 -0.3394  0.0408 -0.3846
  107MOL0     C14323   1.694   9.974   9.907 -0.3681  1.0911 -0.6859
  107MOL0     C14324   1.667   9.841   9.841  0.2507 -0.5638  0.5273
  107MOL0     C14325   1.771   9.731   9.847 -0.1847  0.3046  0.6520
  107MOL0     C14326   1.729   9.591   9.800 -0.1940 -0.1530  0.0976
  107MOL0     N14327   1.858   9.511   9.792  0.8790  0.0315  0.1919
  107MOL0     C14328   1.940   9.509   9.681  0.7878 -0.2729 -0.5385
  107MOL0     C14329   2.046   9.438   9.714 -0.2361 -0.5187 -0.8840
  107MOL0     C14330   2.167   9.408   9.625  0.3117 -0.7437 -0.4805
  107MOL0     C14331   2.164   9.267   9.558 -0.4431 -0.0279  0.1401
  107MOL0     C14332   2.260   9.241   9.448  0.0577  0.3399  0.7180
  107MOL0     C14333   2.265   9.096   9.388 -0.5402  0.0283 -0.3154
  107MOL0     O14334   2.150   9.059   9.324  0.5639 -0.3000  0.3300
  107MOL0     C14335   2.135   8.981   9.213 -0.1918  0.0852 -0.4681
  107MOL0     C14336   2.003   8.960   9.176  0.7848 -0.4298 -0.4153
  107MOL0     C14337   1.960   8.880   9.067 -0.0028 -0.3896  0.0202
  107MOL0     C14338   1.820   8.842   9.050  0.3952 -0.4528 -0.0986
  107MOL0     C14339   2.059   8.825   8.992 -0.3002  0.0340  0.5573
  107MOL0     C14340   2.033   8.730   8.881  0.0236 -0.4909  0.7152
  107MOL0     O14341   2.073   8.600   8.912 -0.0955 -0.3326  0.4646
  107MOL0     C14342   2.066   8.515   8.812 -0.3707 -0.1811  0.8605
  107MOL0     C14343   2.186   8.453   8.780  0.6155 -0.0339 -0.3079
  107MOL0     C14344   2.188   8.341   8.695 -1.0703 -0.7024  0.3477
  107MOL0     C14345   2.068   8.290   8.644 -0.3095  1.2771  0.5288
  107MOL0     O14346   2.062   8.172   8.568 -0.4149 -0.5043  0.1130
  107MOL0     C14347   2.175   8.083   8.553 -0.0828 -0.0016  0.7122
  107MOL0     C14348   2.154   8.018   8.418 -0.1652 -0.7534 -0.5973
  107MOL0     C14349   2.046   7.914   8.425 -0.2687  0.9418  0.4834
  107MOL0     C14350   2.005   7.877   8.270  0.4988 -0.0893  0.4928
  107MOL0     C14351   2.094   7.779   8.207  0.6987  0.4713  0.2465
  107MOL0     C14352   2.087   7.788   8.061  0.1075 -0.5289  0.4515
  107MOL0     C14353   1.969   7.713   8.005 -0.4185  0.1412  0.2462
  107MOL0     C14354   1.986   7.559   8.013  0.3450 -1.1543 -0.1571
  107MOL0    Cl14355   2.110   7.511   7.894  0.1503 -0.1411 -0.2510
  107MOL0     C14356   1.946   8.352   8.680  0.2573  0.9744 -0.3451
  107MOL0     C14357   1.941   8.457   8.764  0.1545 -0.7025  0.1079
  107MOL0     O14358   1.978   8.765   8.777  0.2795 -0.6798 -0.2369
  107MOL0     C14359   2.197   8.842   9.021  0.6530 -0.4260 -0.8895
  107MOL0     C14360   2.233   8.924   9.132 -0.2350 -0.3845 -0.3237
  107MOL0     N14361   2.032   9.401   9.839 -0.3627  0.1696  0.6783
  107MOL0     N14362   1.935   9.464   9.892 -0.2157  0.8230 -0.5122
  107MOL0     C14363   1.571  10.447  10.484 -0.8475  0.3660  0.1912
  107MOL0     C14364   1.574  10.568  10.552 -0.9973  0.0618  0.0130
  107MOL0     C14365   1.489  10.980  10.631  0.3745  0.3347 -0.2922
  107MOL0     C14366   1.376  11.058  10.647  0.5303  0.5739  0.5469
  107MOL0     C14367   1.384  11.187  10.702 -0.0586 -0.2301  0.7947
  107MOL0     C14368   1.514  11.238  10.739 -0.1421  0.4017  0.8496
  107MOL0     O14369   1.510  11.371  10.773 -0.4010 -0.8153  0.8860
  107MOL0     C14370   1.638  11.435  10.762 -0.4327  0.3746 -0.8935
  107MOL0     C14371   1.632  11.582  10.796 -0.4383 -0.9448  0.0992
  107MOL0     C14372   1.768  11.625  10.868 -0.0493  0.0838 -0.5239
  107MOL0     C14373   1.755  11.767  10.924 -0.0548 -0.7159  0.4775
  107MOL0     C14374   1.884  11.814  10.986  1.0059  0.2966 -0.8125
  107MOL0     C14375   1.978  11.840  11.059 -0.5593 -0.3232  0.2572
  107MOL0     C14376   1.628  11.160  10.719  0.6299 -0.8562  0.0681
  107MOL0     C14377   1.612  11.038  10.666 -0.8102  0.6567 -0.1936
  107MOL0     H14378   1.713  10.752  10.294 -1.2592  1.4657  0.7635
  107MOL0     H14379   1.705  10.544  10.184 -0.4446 -2.5016 -0.5927
  107MOL0     H14380   1.806  10.237  10.346 -1.0138  1.8610  0.3833
  107MOL0     H14381   1.673  10.201  10.459 -1.6084  0.6236 -0.1321
  107MOL0     H14382   1.752   9.995  10.326 -1.0825 -0.6836  1.2179
  107MOL0     H14383   1.578  10.039  10.297 -0.4069 -2.5558 -0.8244
  107MOL0     H14384   1.643  10.159  10.092 -0.6948 -0.1158 -0.2961
  107MOL0     H14385   1.812  10.119  10.121 -1.6320  2.2202 -0.5063
  107MOL0     H14386   1.727   9.877  10.092  0.2958  1.6801  2.6014
  107MOL0     H14387   1.562   9.931  10.071  0.2526 -1.9469  0.0896
  107MOL0     H14388   1.627  10.054   9.875  2.0550  3.1707 -0.8571
  107MOL0     H14389   1.796  10.008   9.886  1.6202 -3.7415 -0.1919
  107MOL0     H14390   1.573   9.808   9.887  0.4707  1.4812  2.6163
  107MOL0     H14391   1.651   9.857   9.734 -2.0000 -0.7565  0.7764
  107MOL0     H14392   1.850   9.760   9.778 -1.4019 -0.2646 -1.0664
  107MOL0     H14393   1.809   9.724   9.950 -0.0224  0.0307  0.5743
  107MOL0     H14394   1.682   9.599   9.702  1.4024  1.4068 -0.5959
  107MOL0     H14395   1.661   9.538   9.867  2.6787 -3.2502  0.8689
  107MOL0     H14396   1.915   9.541   9.581 -2.4303 -3.5590 -1.0111
  107MOL0     H14397   2.188   9.481   9.545  2.0347 -0.2041  0.4055
  107MOL0     H14398   2.260   9.416   9.683  0.7488 -2.8885 -0.8037
  107MOL0     H14399   2.063   9.247   9.520  0.0410 -1.4706 -0.4458
  107MOL0     H14400   2.185   9.193   9.636  0.3544 -1.7660 -1.6498
  107MOL0     H14401   2.364   9.252   9.481  0.7252  0.0089 -1.1568
  107MOL0     H14402   2.235   9.305   9.363  0.5894 -1.4028 -0.8205
  107MOL0     H14403   2.297   9.013   9.451  0.9972  0.9501  0.1629
  107MOL0     H14404   2.341   9.106   9.309 -0.4775 -1.4814 -0.4713
  107MOL0     H14405   1.928   8.983   9.250 -0.0257  0.3868 -1.4569
  107MOL0     H14406   1.751   8.886   9.122 -0.5996 -1.5904 -0.3251
  107MOL0     H14407   1.782   8.865   8.950 -2.8062  0.5602  1.2373
  107MOL0     H14408   1.817   8.735   9.073  2.5837 -0.5033  0.1699
  107MOL0     H14409   2.274   8.498   8.825  0.5819 -0.3814  0.1178
  107MOL0     H14410   2.285   8.307   8.661 -1.2450 -2.8336  1.7601
  107MOL0     H14411   2.279   8.114   8.549  0.5030 -1.8461  0.4609
  107MOL0     H14412   2.164   8.016   8.640 -0.5395  0.3935  0.9675
  107MOL0     H14413   2.125   8.094   8.345  2.4805 -1.6249 -2.7200
  107MOL0     H14414   2.252   7.978   8.393  0.4691 -0.0916  0.7023
  107MOL0     H14415   1.956   7.943   8.480 -0.1940 -0.7104  1.5376
  107MOL0     H14416   2.078   7.820   8.471  1.4933  1.6915  0.8859
  107MOL0     H14417   1.902   7.840   8.262  0.8642 -1.3775  1.3904
  107MOL0     H14418   1.999   7.975   8.221  2.3355  0.3062  0.9794
  107MOL0     H14419   2.068   7.677   8.234  0.0054  1.0143  1.7311
  107MOL0     H14420   2.195   7.801   8.242 -0.4557  2.4406  2.6875
  107MOL0     H14421   2.098   7.889   8.020  1.8772 -0.7308  0.3385
  107MOL0     H14422   2.177   7.739   8.022  0.2745  0.6054 -0.6820
  107MOL0     H14423   1.951   7.747   7.903  3.1717  1.5539 -0.0679
  107MOL0     H14424   1.872   7.732   8.051 -1.8141  3.2010 -3.3897
  107MOL0     H14425   1.891   7.527   7.968 -0.2675 -1.0052  0.9644
  107MOL0     H14426   2.004   7.508   8.109  3.1529 -1.1815 -0.6208
  107MOL0     H14427   1.844   8.332   8.650 -0.4912  3.6189  0.1267
  107MOL0     H14428   1.844   8.492   8.798 -0.4497 -2.7338  0.5826
  107MOL0     H14429   2.273   8.789   8.964  0.6227 -1.3718 -0.0876
  107MOL0     H14430   2.337   8.952   9.150 -0.6115  0.6325  0.3424
  107MOL0     H14431   1.534  10.357  10.533  0.8270 -1.0145 -0.9481
  107MOL0     H14432   1.542  10.570  10.656  0.6892 -1.5795  0.6073
  107MOL0     H14433   1.286  11.007  10.614  3.0380 -2.8568 -1.7241
  107MOL0     H14434   1.298  11.253  10.703 -0.5646 -0.8954  1.1312
  107MOL0     H14435   1.700  11.385  10.837 -3.1090 -0.0043  1.2169
  107MOL0     H14436   1.692  11.433  10.667 -0.1659 -0.5093 -0.7339
  107MOL0     H14437   1.540  11.594  10.853  0.5774 -0.6491  1.7494
  107MOL0     H14438   1.625  11.642  10.705 -1.1644  1.0054  1.3826
  107MOL0     H14439   1.852  11.616  10.798 -0.1418  1.0634 -0.7760
  107MOL0     H14440   1.782  11.567  10.959 -3.7898 -0.0860  0.0666
  107MOL0     H14441   1.679  11.774  11.002  0.1079  1.7478  0.5190
  107MOL0     H14442   1.737  11.833  10.838  3.5992  0.8516  0.7240
  107MOL0     H14443   2.068  11.876  11.105 -1.2241  3.9221 -1.2808
  107MOL0     H14444   1.724  11.196  10.755 -0.3439  2.4983 -0.3631
  107MOL0     H14445   1.705  10.982  10.672 -0.5494  1.0578 -0.4420
  108MOL0     O14446   3.043   8.338   9.893  0.5627  0.4783  0.4817
  108MOL0     C14447   2.990   8.417   9.809  0.8539  0.1357 -0.7621
  108MOL0     O14448   2.987   8.404   9.672  0.2311 -0.4230 -0.3086
  108MOL0     C14449   3.010   8.285   9.609  0.2597  0.4880  0.0758
  108MOL0     C14450   3.020   8.298   9.462 -0.2931 -0.4264 -0.7897
  108MOL0     C14451   3.027   8.184   9.380 -0.2871  0.5180  0.4060
  108MOL0     C14452   3.044   8.056   9.438  0.5512 -0.2677 -0.5071
  108MOL0     O14453   3.064   7.964   9.343 -0.5810  0.2103  0.3676
  108MOL0     C14454   3.116   7.835   9.374 -0.2160  0.4440  0.1970
  108MOL0     C14455   3.114   7.750   9.249 -0.2720 -0.3523 -0.6639
  108MOL0     C14456   3.159   7.606   9.271  0.2305  0.2654  0.8101
  108MOL0     C14457   3.133   7.524   9.142  0.4972 -0.6573  0.5361
  108MOL0     C14458   3.202   7.393   9.137 -0.7294  0.2339  0.6752
  108MOL0     C14459   3.332   7.408   9.049 -0.3305  0.1210 -0.3855
  108MOL0     C14460   3.394   7.263   9.042 -0.6782 -0.3353 -0.0961
  108MOL0     C14461   3.547   7.268   9.036 -0.6518 -0.4262  0.4427
  108MOL0     N14462   3.604   7.141   9.047  0.1052 -0.2306 -0.3288
  108MOL0     C14463   3.556   7.029   8.985 -0.0082 -1.6037 -0.5707
  108MOL0     C14464   3.650   6.938   8.998 -0.0077 -0.9931 -0.0321
  108MOL0     C14465   3.647   6.797   8.942  0.2266 -0.1587 -0.0197
  108MOL0     C14466   3.704   6.803   8.789  0.7127  0.5031  0.1561
  108MOL0     C14467   3.697   6.654   8.734  0.1973 -0.5122  0.6478
  108MOL0     C14468   3.723   6.644   8.588 -0.1394 -0.1250 -0.5368
  108MOL0     O14469   3.604   6.668   8.495 -0.3115  0.1006  0.2883
  108MOL0     C14470   3.553   6.572   8.417  0.0187  0.0759 -0.8440
  108MOL0     C14471   3.462   6.602   8.317  0.0093  0.7156  0.2663
  108MOL0     C14472   3.392   6.505   8.243  0.2447  0.1987 -0.5627
  108MOL0     C14473   3.298   6.570   8.132  0.3671  0.9623 -0.1878
  108MOL0     C14474   3.427   6.371   8.259 -0.9470  0.4923 -0.5227
  108MOL0     C14475   3.354   6.253   8.202  0.1228  0.5120  0.1402
  108MOL0     O14476   3.270   6.284   8.098  0.9725  0.0221 -0.5237
  108MOL0     C14477   3.220   6.194   8.007 -0.4977  0.4062 -0.3719
  108MOL0     C14478   3.300   6.102   7.938  0.2902  0.3171  0.3960
  108MOL0     C14479   3.243   6.009   7.850 -0.2443 -1.1752 -0.0820
  108MOL0     C14480   3.112   6.016   7.814  0.5722 -1.0284  0.8996
  108MOL0     O14481   3.074   5.921   7.712  0.0445 -0.5851  0.3531
  108MOL0     C14482   2.951   5.948   7.652 -0.2163  1.1295 -0.2918
  108MOL0     C14483   2.928   5.875   7.521 -0.9877 -0.5903  0.5149
  108MOL0     C14484   2.794   5.934   7.469 -0.0870 -0.1377 -0.1077
  108MOL0     C14485   2.745   5.850   7.342  1.3462 -0.3914  0.1130
  108MOL0     C14486   2.631   5.913   7.250  0.2200  0.2076 -0.7987
  108MOL0     C14487   2.596   5.822   7.133 -0.0586 -0.2996 -1.0576
  108MOL0     C14488   2.495   5.888   7.043  0.0465 -0.0304 -0.6074
  108MOL0     C14489   2.433   5.792   6.939 -0.5865 -0.4918  0.1959
  108MOL0    Cl14490   2.559   5.749   6.813  0.5267  0.6529 -0.1666
  108MOL0     C14491   3.037   6.126   7.868 -0.0370 -0.5017  0.3995
  108MOL0     C14492   3.089   6.211   7.960 -0.5071 -0.6355  0.0138
  108MOL0     O14493   3.382   6.137   8.238  0.7761  0.1252 -0.2513
  108MOL0     C14494   3.536   6.343   8.345  0.0633 -0.4904  0.1019
  108MOL0     C14495   3.595   6.443   8.427  0.1601  0.1897 -0.2142
  108MOL0     N14496   3.751   6.996   9.065 -0.2276  0.0927 -0.4580
  108MOL0     N14497   3.723   7.113   9.099 -0.5011  0.3182  0.0294
  108MOL0     C14498   3.044   8.034   9.573  0.4002 -0.2500  0.0265
  108MOL0     C14499   3.032   8.153   9.657 -0.5463  0.0406 -0.3951
  108MOL0     C14500   2.925   8.528   9.869 -0.4791  0.2166 -0.7316
  108MOL0     C14501   2.879   8.625   9.783 -0.7555  0.1297 -1.5298
  108MOL0     C14502   2.796   8.729   9.836 -0.3045  0.3631  0.6492
  108MOL0     C14503   2.767   8.744   9.973  0.5089  0.8074  0.0930
  108MOL0     O14504   2.684   8.849  10.008 -0.2932  0.0379 -0.7002
  108MOL0     C14505   2.635   8.865  10.140 -0.1072  0.5815 -0.7473
  108MOL0     C14506   2.727   8.951  10.222  0.0161  0.5519 -0.7405
  108MOL0     C14507   2.728   9.090  10.164  0.8535  0.5128  0.6172
  108MOL0     C14508   2.822   9.184  10.242  0.5260  0.7158  0.4122
  108MOL0     C14509   2.878   9.302  10.171 -0.4748  0.0203 -0.8288
  108MOL0     C14510   2.934   9.399  10.120  1.2741  0.2229 -0.0548
  108MOL0     C14511   2.818   8.650  10.060  0.0129  0.2496  0.1260
  108MOL0     C14512   2.899   8.538  10.009 -0.4704  0.1361 -0.1264
  108MOL0     H14513   3.023   8.398   9.420 -0.9474  0.6371  1.5288
  108MOL0     H14514   3.049   8.188   9.274  4.3850  1.9895  1.1970
  108MOL0     H14515   3.217   7.863   9.407 -0.6717  2.3434  0.0867
  108MOL0     H14516   3.066   7.776   9.452  0.8645  1.2050  1.5176
  108MOL0     H14517   3.015   7.741   9.203 -0.8283  1.7500 -0.0125
  108MOL0     H14518   3.171   7.808   9.175 -2.4887  2.8449 -0.0925
  108MOL0     H14519   3.268   7.609   9.285  0.6199 -1.6131 -1.2917
  108MOL0     H14520   3.102   7.567   9.356  2.5789 -2.1067  1.4423
  108MOL0     H14521   3.026   7.505   9.152  0.2277  0.2814 -0.4419
  108MOL0     H14522   3.159   7.590   9.059  2.0600 -1.5639  0.2545
  108MOL0     H14523   3.230   7.342   9.230  0.2024  0.1694  0.3724
  108MOL0     H14524   3.132   7.329   9.083 -0.5666  1.5818 -1.2466
  108MOL0     H14525   3.312   7.430   8.944 -2.3142 -0.5458 -0.1909
  108MOL0     H14526   3.397   7.487   9.087 -0.0675 -0.1294 -0.3059
  108MOL0     H14527   3.365   7.215   9.136  1.1478 -0.7997  0.2661
  108MOL0     H14528   3.347   7.228   8.950 -0.6226  4.5415 -2.3244
  108MOL0     H14529   3.595   7.321   9.119  3.9403 -4.9601  1.2331
  108MOL0     H14530   3.570   7.317   8.941  2.4256 -2.2562  0.1153
  108MOL0     H14531   3.458   7.032   8.939  0.1438  1.0459 -0.8911
  108MOL0     H14532   3.710   6.729   9.001  3.2041  1.3513 -1.2670
  108MOL0     H14533   3.544   6.758   8.943  0.6450 -2.1685 -4.8402
  108MOL0     H14534   3.798   6.858   8.796  0.3551  1.0403  0.8260
  108MOL0     H14535   3.639   6.871   8.733 -0.6852 -2.3438 -1.9885
  108MOL0     H14536   3.610   6.599   8.771  1.2827 -2.4586  0.4367
  108MOL0     H14537   3.774   6.590   8.780 -1.7045 -2.1466  1.7028
  108MOL0     H14538   3.782   6.552   8.574  0.9237  0.5232 -0.4009
  108MOL0     H14539   3.787   6.725   8.551 -2.3845  2.1243  0.2237
  108MOL0     H14540   3.439   6.707   8.301 -1.1529  0.5373  0.6602
  108MOL0     H14541   3.241   6.654   8.173 -3.6991 -0.8120 -1.6279
  108MOL0     H14542   3.365   6.594   8.049  5.6215 -2.8910  2.4040
  108MOL0     H14543   3.211   6.512   8.101 -0.8054  2.0195  0.9639
  108MOL0     H14544   3.406   6.098   7.961  0.1276  1.7254  1.5513
  108MOL0     H14545   3.302   5.925   7.816 -0.9898 -0.7351 -2.6658
  108MOL0     H14546   2.868   5.925   7.719 -1.0958  0.9324 -1.4009
  108MOL0     H14547   2.939   6.053   7.627  0.3849  1.7638  1.8725
  108MOL0     H14548   3.016   5.896   7.460  0.7702 -3.3538  1.9186
  108MOL0     H14549   2.931   5.768   7.541  2.9606 -1.7821 -4.3516
  108MOL0     H14550   2.799   6.038   7.438 -0.3665 -0.5819 -1.7398
  108MOL0     H14551   2.719   5.925   7.547  1.2800  2.6868  1.6843
  108MOL0     H14552   2.835   5.851   7.279  2.4405  0.0815  1.6362
  108MOL0     H14553   2.715   5.748   7.367  0.9810 -0.5195 -0.7997
  108MOL0     H14554   2.658   6.010   7.208 -1.2394  1.2422  0.5402
  108MOL0     H14555   2.542   5.929   7.311  0.6828 -0.1858 -0.0108
  108MOL0     H14556   2.684   5.813   7.068 -1.5852  0.4227 -3.3400
  108MOL0     H14557   2.573   5.718   7.161  3.1123 -1.0817 -0.9337
  108MOL0     H14558   2.547   5.974   7.002 -0.9563  0.4941 -0.8253
  108MOL0     H14559   2.420   5.928   7.112 -0.8022 -3.4595  0.6419
  108MOL0     H14560   2.359   5.846   6.880  1.2763 -0.5388 -2.4037
  108MOL0     H14561   2.384   5.703   6.979 -0.9688 -0.1000  0.6113
  108MOL0     H14562   2.930   6.126   7.851  0.3213 -1.0959 -2.3120
  108MOL0     H14563   3.039   6.295   8.006 -0.7250  0.0347 -1.3887
  108MOL0     H14564   3.576   6.242   8.344  1.0691 -0.4207  5.1854
  108MOL0     H14565   3.669   6.419   8.503 -1.6606 -2.3393  0.9068
  108MOL0     H14566   3.074   7.937   9.613  0.3565 -0.5321 -0.6110
  108MOL0     H14567   3.029   8.136   9.764 -1.2662  3.5196  0.2563
  108MOL0     H14568   2.897   8.620   9.676 -0.2381  0.3245 -1.4515
  108MOL0     H14569   2.747   8.798   9.768  0.4457 -1.1287 -1.5341
  108MOL0     H14570   2.533   8.902  10.151 -1.2188 -2.7793  2.1881
  108MOL0     H14571   2.628   8.766  10.186 -1.0119  1.3181  0.8117
  108MOL0     H14572   2.829   8.912  10.219  0.2010  0.8791  0.4975
  108MOL0     H14573   2.695   8.943  10.327 -2.8983 -0.3478 -1.6127
  108MOL0     H14574   2.634   9.143  10.184  1.3804  1.3119  0.9838
  108MOL0     H14575   2.753   9.092  10.057 -0.9462  0.3173  0.1462
  108MOL0     H14576   2.908   9.119  10.261 -0.7618 -1.6512 -1.2030
  108MOL0     H14577   2.769   9.206  10.335 -0.8210  1.9845 -0.6107
  108MOL0     H14578   2.963   9.495  10.084 -1.2198  0.7359 -0.9468
  108MOL0     H14579   2.811   8.644  10.169  1.3699 -0.3822  0.2021
  108MOL0     H14580   2.926   8.468  10.087  0.2435  2.4613  1.8345
  109MOL0     O14581  11.257  10.965   0.013  0.0531 -0.3135  0.3865
  109MOL0     C14582  11.268  10.909   0.121  0.6664  0.6124 -0.0486
  109MOL0     O14583  11.161  10.878   0.198  0.4276 -0.0409  0.3940
  109MOL0     C14584  11.033  10.911   0.155  0.6361  0.8594 -0.5735
  109MOL0     C14585  10.976  10.889   0.030 -0.2906  0.2914  0.7624
  109MOL0     C14586  10.837  10.899   0.012  0.4381 -0.6094 -0.7396
  109MOL0     C14587  10.766  10.962   0.113 -0.2285  0.5377 -0.1113
  109MOL0     O14588  10.622  10.982   0.111 -0.3201  1.0453 -0.5644
  109MOL0     C14589  10.549  10.945  -0.012  0.7804  0.5769  0.6553
  109MOL0     C14590  10.397  10.971  -0.018  0.0252 -0.7481  0.1510
  109MOL0     C14591  10.313  10.888   0.089 -1.0331  0.5321  0.1811
  109MOL0     C14592  10.286  10.738   0.040  0.1161 -0.3084 -0.1153
  109MOL0     C14593  10.259  10.648   0.165 -0.8491 -0.2640 -0.1221
  109MOL0     C14594  10.153  10.701   0.262  0.2194  0.4660  0.2476
  109MOL0     C14595  10.008  10.703   0.205  0.3425 -0.0175  0.0826
  109MOL0     C14596   9.912  10.738   0.318  0.1286 -0.1842 -0.2333
  109MOL0     N14597   9.775  10.757   0.278  0.0798  0.3293  0.0510
  109MOL0     C14598   9.663  10.694   0.338 -0.4724  0.7760 -0.5384
  109MOL0     C14599   9.556  10.737   0.267 -0.0927 -0.6521  0.6097
  109MOL0     C14600   9.408  10.710   0.291  0.6284  0.0557  0.7832
  109MOL0     C14601   9.322  10.694   0.165  0.2858  0.0778  0.5899
  109MOL0     C14602   9.286  10.827   0.096 -0.5587  0.1357 -0.0437
  109MOL0     C14603   9.139  10.864   0.071  0.0075  0.2771 -0.0633
  109MOL0     O14604   9.074  10.753   0.006 -0.0294 -1.0312  0.2204
  109MOL0     C14605   8.949  10.767  -0.038  0.3259  0.3763  1.1452
  109MOL0     C14606   8.856  10.865  -0.017 -0.4292 -0.6043 -0.4714
  109MOL0     C14607   8.726  10.868  -0.074 -0.9529 -1.3474  0.2908
  109MOL0     C14608   8.632  10.993  -0.025  0.2616 -1.1062  0.0154
  109MOL0     C14609   8.688  10.771  -0.172  0.0574 -0.1365 -0.0157
  109MOL0     C14610   8.553  10.768  -0.233 -0.1456  0.1965 -0.4084
  109MOL0     O14611   8.537  10.678  -0.323 -0.3341  0.1782  0.2995
  109MOL0     C14612   8.440  10.676  -0.412  0.7625  0.5548 -0.2165
  109MOL0     C14613   8.309  10.631  -0.404  0.1107 -0.5166 -0.2879
  109MOL0     C14614   8.228  10.642  -0.514 -0.2162  1.0829  0.0813
  109MOL0     C14615   8.279  10.703  -0.635 -0.0277  0.0746 -0.5102
  109MOL0     O14616   8.196  10.724  -0.745 -0.5092  0.2035  0.3087
  109MOL0     C14617   8.083  10.642  -0.752  1.0034  0.9085 -0.2672
  109MOL0     C14618   7.954  10.699  -0.695  0.0711 -1.0347  0.2779
  109MOL0     C14619   7.824  10.633  -0.737 -0.0802  0.5597  0.3134
  109MOL0     C14620   7.712  10.647  -0.635 -0.6588  0.2022  0.2226
  109MOL0     C14621   7.596  10.555  -0.695 -0.2538 -0.5361  0.1106
  109MOL0     C14622   7.485  10.527  -0.585 -0.1910 -0.0736 -0.0631
  109MOL0     C14623   7.389  10.409  -0.621 -1.3163 -1.1565 -0.3762
  109MOL0     C14624   7.323  10.342  -0.496 -0.0920  0.1449 -0.4929
  109MOL0    Cl14625   7.262  10.462  -0.388 -0.6067  0.0652 -0.3475
  109MOL0     C14626   8.411  10.741  -0.645  0.2885 -1.0752  0.9509
  109MOL0     C14627   8.491  10.727  -0.533  0.0023 -0.6258 -0.7985
  109MOL0     O14628   8.467  10.845  -0.194 -0.1042 -0.1990 -0.5152
  109MOL0     C14629   8.783  10.670  -0.205 -0.4339 -0.7274 -0.4095
  109MOL0     C14630   8.905  10.669  -0.135  0.5565 -0.3405 -0.7402
  109MOL0     N14631   9.604  10.832   0.180 -0.2378 -0.4735  0.0361
  109MOL0     N14632   9.730  10.849   0.191 -0.2889  0.2866  0.6563
  109MOL0     C14633  10.820  10.979   0.238  0.6076  0.2592  0.0694
  109MOL0     C14634  10.957  10.944   0.257  0.2905 -0.5732 -0.0020
  109MOL0     C14635  11.402  10.897   0.181  0.6030 -0.2893  0.5739
  109MOL0     C14636  11.410  10.853   0.309 -0.2865  0.2102 -0.2395
  109MOL0     C14637  11.543  10.840   0.361 -0.8330  1.2504 -0.2076
  109MOL0     C14638  11.656  10.871   0.286  0.3380 -0.4864  0.3099
  109MOL0     O14639  11.780  10.878   0.324 -0.1050  0.6119 -0.1983
  109MOL0     C14640  11.823  10.924   0.451  1.0065  0.1533 -0.1187
  109MOL0     C14641  11.777  11.066   0.471  0.6336  0.4461  0.0566
  109MOL0     C14642  11.810  11.170   0.365 -0.4365  0.8180 -0.2179
  109MOL0     C14643  11.795  11.315   0.418 -0.0034  0.2740  0.2409
  109MOL0     C14644  11.927  11.374   0.450  0.0699 -0.6314 -0.8845
  109MOL0     C14645  12.035  11.407   0.497  0.6938 -0.0742  0.1234
  109MOL0     C14646  11.640  10.913   0.156 -0.2635  0.4266  1.2903
  109MOL0     C14647  11.515  10.937   0.099  0.7046 -0.0946 -0.1681
  109MOL0     H14648  11.029  10.864  -0.060 -2.8007 -0.1488 -0.6911
  109MOL0     H14649  10.803  10.866  -0.086 -2.2565 -0.0435 -0.0750
  109MOL0     H14650  10.600  10.963  -0.107  2.1118 -0.5644  1.1027
  109MOL0     H14651  10.542  10.836  -0.016  1.7331  0.5321 -2.2899
  109MOL0     H14652  10.374  11.076   0.001 -3.5153 -0.7895 -2.7823
  109MOL0     H14653  10.357  10.944  -0.115  0.5238  0.4958 -0.4237
  109MOL0     H14654  10.370  10.872   0.180 -1.5786 -2.4556  0.1241
  109MOL0     H14655  10.225  10.949   0.110 -2.4203  0.9779 -5.3242
  109MOL0     H14656  10.199  10.731  -0.025  0.3846  0.6616 -0.6002
  109MOL0     H14657  10.364  10.695  -0.024 -0.8306 -0.2092 -1.3665
  109MOL0     H14658  10.258  10.542   0.137  1.7210 -0.6751  0.9848
  109MOL0     H14659  10.353  10.660   0.220 -0.1771  0.8929 -1.4560
  109MOL0     H14660  10.158  10.645   0.355  0.8171  0.8027  0.4222
  109MOL0     H14661  10.179  10.805   0.286 -2.9843  1.2044  0.9442
  109MOL0     H14662  10.008  10.779   0.126  1.8677  0.3209  0.3789
  109MOL0     H14663   9.987  10.604   0.165  1.8158  0.4964 -2.1631
  109MOL0     H14664   9.934  10.836   0.361  0.1194  0.8859 -2.5573
  109MOL0     H14665   9.922  10.657   0.391 -0.8754 -1.5408 -1.5325
  109MOL0     H14666   9.671  10.630   0.425  0.0669 -0.4042 -1.4207
  109MOL0     H14667   9.396  10.618   0.349  0.3210  0.6877  1.7345
  109MOL0     H14668   9.363  10.785   0.356 -2.3595 -0.3697 -0.6036
  109MOL0     H14669   9.235  10.639   0.202  0.7305 -1.0581  0.0143
  109MOL0     H14670   9.384  10.626   0.104  1.5324  1.3281  0.4139
  109MOL0     H14671   9.323  10.810  -0.005 -0.3214 -0.0760  0.0769
  109MOL0     H14672   9.340  10.910   0.142 -0.5440 -0.4324  1.0023
  109MOL0     H14673   9.123  10.959   0.019 -1.5938 -1.4820 -3.0298
  109MOL0     H14674   9.100  10.873   0.173  0.6807 -1.7182  0.4123
  109MOL0     H14675   8.884  10.952   0.042  1.5553 -1.3472 -0.2464
  109MOL0     H14676   8.598  11.055  -0.108 -1.4411 -1.8627  0.0985
  109MOL0     H14677   8.544  10.965   0.033 -0.2237  0.3883  0.0379
  109MOL0     H14678   8.687  11.066   0.035 -2.2204 -0.7145  1.9500
  109MOL0     H14679   8.280  10.589  -0.309 -4.3557  0.2558 -1.0835
  109MOL0     H14680   8.128  10.606  -0.495 -0.1926  0.1908 -1.2954
  109MOL0     H14681   8.056  10.648  -0.857 -2.1789 -2.1750  0.1742
  109MOL0     H14682   8.097  10.538  -0.721  1.2726  1.5686  2.0218
  109MOL0     H14683   7.962  10.693  -0.586 -1.4146 -2.6102  0.3359
  109MOL0     H14684   7.949  10.802  -0.731 -1.4023 -0.6242  1.5752
  109MOL0     H14685   7.843  10.526  -0.748 -2.4045  0.2204 -0.8901
  109MOL0     H14686   7.797  10.675  -0.834  1.6837 -1.7112 -1.2613
  109MOL0     H14687   7.747  10.632  -0.532  0.4922  2.0842  0.1655
  109MOL0     H14688   7.677  10.751  -0.631  0.3024  0.5276  0.6461
  109MOL0     H14689   7.637  10.461  -0.735  0.9227  0.0519 -0.1072
  109MOL0     H14690   7.558  10.605  -0.784  0.1008  1.0828  0.8373
  109MOL0     H14691   7.529  10.506  -0.487  0.3048  1.6534  0.1276
  109MOL0     H14692   7.425  10.616  -0.563  0.6954  0.6434 -0.4963
  109MOL0     H14693   7.441  10.324  -0.665  2.6451  0.7108  0.2620
  109MOL0     H14694   7.317  10.429  -0.701  1.3667 -1.2013 -3.0036
  109MOL0     H14695   7.409  10.300  -0.442 -1.8752 -2.8678  0.2131
  109MOL0     H14696   7.269  10.250  -0.516 -1.4923  0.7617  0.3353
  109MOL0     H14697   8.441  10.770  -0.745  2.0799  2.1902  2.2968
  109MOL0     H14698   8.596  10.753  -0.534 -0.0302 -0.3877 -3.1056
  109MOL0     H14699   8.773  10.591  -0.278  2.3762 -2.4871  0.9475
  109MOL0     H14700   8.979  10.594  -0.163  1.5164  1.6030 -3.9752
  109MOL0     H14701  10.750  11.025   0.307 -0.4764 -1.7936  0.4003
  109MOL0     H14702  11.013  10.957   0.349  1.0211 -0.7339 -0.4165
  109MOL0     H14703  11.328  10.831   0.377  2.1666 -0.8699  2.5817
  109MOL0     H14704  11.561  10.813   0.465 -0.6843 -0.2483 -0.6012
  109MOL0     H14705  11.788  10.860   0.532  1.4278  1.0844  0.8126
  109MOL0     H14706  11.932  10.920   0.448  1.0167 -2.9215  0.9533
  109MOL0     H14707  11.827  11.097   0.564 -1.2853  3.3401  0.2605
  109MOL0     H14708  11.669  11.055   0.486  0.8253 -1.4886  0.2833
  109MOL0     H14709  11.727  11.167   0.293 -0.8665  1.2162  0.2564
  109MOL0     H14710  11.912  11.162   0.328  1.1147  4.3774  2.6884
  109MOL0     H14711  11.735  11.325   0.509  0.7789 -1.0227  0.9216
  109MOL0     H14712  11.764  11.383   0.338  1.5124  1.4801  0.6302
  109MOL0     H14713  12.136  11.435   0.519  0.3937 -0.1382  1.6942
  109MOL0     H14714  11.733  10.932   0.105  0.5346  1.0095  2.9042
  109MOL0     H14715  11.500  10.967  -0.005 -2.2003 -0.5235  0.0319
  110MOL0     O14716   3.584   7.711   9.427 -0.2421 -0.4445  0.2984
  110MOL0     C14717   3.674   7.798   9.421 -0.3977  0.5683 -0.2645
  110MOL0     O14718   3.806   7.779   9.451 -0.3865 -0.2528  0.3087
  110MOL0     C14719   3.866   7.652   9.461  0.4736 -0.1821 -0.3124
  110MOL0     C14720   3.980   7.638   9.540  0.1486  0.0277 -0.4761
  110MOL0     C14721   4.039   7.515   9.567  0.0694  0.0839 -0.4302
  110MOL0     C14722   3.996   7.404   9.495 -0.3428  0.7891  0.0271
  110MOL0     O14723   4.067   7.286   9.510  0.0484  0.1912  0.0396
  110MOL0     C14724   4.081   7.197   9.400  1.0654  0.2801  0.3335
  110MOL0     C14725   4.150   7.074   9.449 -0.1934  0.0844 -0.5926
  110MOL0     C14726   4.289   7.117   9.517 -0.1651  0.6540 -0.0888
  110MOL0     C14727   4.383   7.003   9.526 -0.3648 -0.6568  0.3232
  110MOL0     C14728   4.531   7.055   9.512 -0.7999 -0.4866 -0.4308
  110MOL0     C14729   4.583   7.074   9.376 -0.3045  0.1584 -0.0144
  110MOL0     C14730   4.717   7.144   9.366 -0.7639  0.0294 -0.4659
  110MOL0     C14731   4.790   7.106   9.236 -0.4293 -0.0128  0.5089
  110MOL0     N14732   4.752   7.196   9.122 -0.0413  0.5768 -0.5432
  110MOL0     C14733   4.640   7.180   9.052  0.2314 -0.8836 -0.6318
  110MOL0     C14734   4.647   7.287   8.964  0.8499 -0.6692  0.8384
  110MOL0     C14735   4.561   7.314   8.850  0.2019 -0.6800  1.2110
  110MOL0     C14736   4.472   7.436   8.865  0.1134  0.4424  0.2682
  110MOL0     C14737   4.423   7.485   8.730 -0.5717 -0.7777  0.0845
  110MOL0     C14738   4.304   7.577   8.761 -0.9929  0.6356 -0.1023
  110MOL0     O14739   4.357   7.674   8.845  0.3459 -0.3574  0.7790
  110MOL0     C14740   4.298   7.793   8.851  0.1217 -0.3711  0.3632
  110MOL0     C14741   4.173   7.829   8.802  0.4559  0.2698  0.7888
  110MOL0     C14742   4.115   7.954   8.832 -0.2540  0.7361  0.6960
  110MOL0     C14743   3.975   7.973   8.770 -0.1646 -0.4746 -0.3142
  110MOL0     C14744   4.177   8.042   8.919 -1.3068 -0.4390 -0.2069
  110MOL0     C14745   4.119   8.175   8.952 -0.1017 -0.7041 -0.5468
  110MOL0     O14746   3.986   8.184   8.937 -0.0529 -0.0332  0.9265
  110MOL0     C14747   3.920   8.304   8.929  1.0439 -0.9856 -1.1426
  110MOL0     C14748   3.812   8.320   8.843 -0.2312  0.0434 -0.4074
  110MOL0     C14749   3.720   8.425   8.870  0.4632 -0.4460  0.1643
  110MOL0     C14750   3.735   8.522   8.969  0.5995 -0.3258 -0.4302
  110MOL0     O14751   3.651   8.633   8.990  0.5328  0.5387  0.5674
  110MOL0     C14752   3.651   8.710   9.115 -0.3109  1.2840 -0.7304
  110MOL0     C14753   3.563   8.832   9.077 -0.4947  0.0544 -0.7044
  110MOL0     C14754   3.542   8.932   9.192 -0.2989 -0.6059 -0.3582
  110MOL0     C14755   3.458   9.058   9.151 -0.6919  0.5994  0.1100
  110MOL0     C14756   3.453   9.165   9.262 -0.0154  0.2949  1.2987
  110MOL0     C14757   3.392   9.292   9.194  0.4693  0.1370 -0.3785
  110MOL0     C14758   3.276   9.353   9.271  1.0094 -0.1734  0.0742
  110MOL0     C14759   3.307   9.423   9.402  0.2141  0.7486  0.0606
  110MOL0    Cl14760   3.419   9.564   9.384  0.7175 -0.7453 -0.1749
  110MOL0     C14761   3.855   8.510   9.047  0.0533 -0.8856  0.5050
  110MOL0     C14762   3.942   8.400   9.025 -0.1478  0.1448 -0.5433
  110MOL0     O14763   4.191   8.265   8.986  0.5516  0.5701  0.5647
  110MOL0     C14764   4.305   8.010   8.961 -0.1762  0.3012  0.2061
  110MOL0     C14765   4.366   7.884   8.938  0.6201  0.4197 -0.0888
  110MOL0     N14766   4.751   7.368   8.995 -0.1815  0.6059  0.1123
  110MOL0     N14767   4.818   7.307   9.072 -0.7033  0.2735 -0.0508
  110MOL0     C14768   3.879   7.410   9.410 -0.8814  0.0227 -0.0925
  110MOL0     C14769   3.808   7.540   9.393 -0.6210  0.0972  0.6041
  110MOL0     C14770   3.625   7.936   9.405 -0.0276 -0.2342  0.3958
  110MOL0     C14771   3.717   8.050   9.408  0.2398  0.0218 -0.5199
  110MOL0     C14772   3.656   8.180   9.401 -0.9952 -0.2927  0.3666
  110MOL0     C14773   3.524   8.211   9.407  0.2613  0.1057  0.7523
  110MOL0     O14774   3.483   8.341   9.397  0.0465 -0.0009  0.5508
  110MOL0     C14775   3.360   8.367   9.469  0.0820  0.1144  0.1401
  110MOL0     C14776   3.319   8.512   9.452  0.2606  0.7031  0.2278
  110MOL0     C14777   3.412   8.624   9.528  0.4808  0.3109  0.6005
  110MOL0     C14778   3.355   8.761   9.526  0.7142  0.5062 -0.8046
  110MOL0     C14779   3.227   8.769   9.605 -0.1101 -0.3767  0.8665
  110MOL0     C14780   3.118   8.795   9.651  0.0435 -0.2433  0.1649
  110MOL0     C14781   3.441   8.094   9.401 -0.9939  0.4447 -0.5490
  110MOL0     C14782   3.492   7.963   9.391 -0.1207  0.3697 -0.1535
  110MOL0     H14783   4.007   7.731   9.588  2.0059  0.3032 -1.9236
  110MOL0     H14784   4.128   7.506   9.628  0.4994  1.9634 -0.6988
  110MOL0     H14785   3.985   7.167   9.358 -0.3695 -1.1540  4.2111
  110MOL0     H14786   4.135   7.250   9.320 -1.3204  1.6918 -0.4567
  110MOL0     H14787   4.083   7.018   9.515 -0.2091 -1.2905 -1.7391
  110MOL0     H14788   4.170   7.012   9.362  1.7916  0.0001 -0.1366
  110MOL0     H14789   4.339   7.190   9.453  3.7547 -0.6245  1.1936
  110MOL0     H14790   4.274   7.163   9.615 -0.8055 -0.6746  0.4631
  110MOL0     H14791   4.372   6.953   9.622  0.7851 -1.4572  0.0669
  110MOL0     H14792   4.371   6.929   9.446 -0.1088 -0.4487  0.0873
  110MOL0     H14793   4.529   7.157   9.552  1.0942 -1.1781  1.6566
  110MOL0     H14794   4.598   6.997   9.576 -1.5913 -1.3789 -0.3988
  110MOL0     H14795   4.605   6.970   9.349  0.3591  0.3479 -0.2386
  110MOL0     H14796   4.508   7.115   9.308 -0.4120 -1.2195 -0.7834
  110MOL0     H14797   4.707   7.251   9.390  1.2179  0.4838 -1.4259
  110MOL0     H14798   4.771   7.102   9.451  0.2529  2.2031  0.0301
  110MOL0     H14799   4.775   7.001   9.210  1.5855  0.3232 -2.4410
  110MOL0     H14800   4.896   7.115   9.261  0.0291 -2.6810 -0.1986
  110MOL0     H14801   4.569   7.098   9.053 -1.0505  0.1570  2.0807
  110MOL0     H14802   4.626   7.342   8.767  0.3779 -1.2976  1.1364
  110MOL0     H14803   4.492   7.231   8.833 -0.4884 -0.2804  1.9951
  110MOL0     H14804   4.524   7.521   8.911  1.2128 -0.2381  0.3116
  110MOL0     H14805   4.391   7.410   8.934  1.8841  0.1999  2.3590
  110MOL0     H14806   4.371   7.410   8.670 -0.3206  0.5129 -1.8580
  110MOL0     H14807   4.496   7.522   8.658 -0.5367  0.5063  0.7531
  110MOL0     H14808   4.235   7.505   8.806 -0.9472  1.1044  0.7287
  110MOL0     H14809   4.266   7.624   8.670 -0.3349  1.1867 -0.0999
  110MOL0     H14810   4.110   7.758   8.750  0.7777 -0.8275  1.8372
  110MOL0     H14811   3.899   7.963   8.848  2.7918 -2.1972  2.6518
  110MOL0     H14812   3.968   8.062   8.708  0.7674 -1.7961 -2.4411
  110MOL0     H14813   3.941   7.891   8.707  0.1297 -2.7661  2.2607
  110MOL0     H14814   3.788   8.241   8.773 -4.7369 -1.6546  2.6029
  110MOL0     H14815   3.645   8.448   8.795  1.6562 -1.7276 -1.4965
  110MOL0     H14816   3.610   8.653   9.199  0.2011 -1.2933 -2.1009
  110MOL0     H14817   3.748   8.755   9.141 -0.1491  1.2610 -1.2894
  110MOL0     H14818   3.620   8.888   9.002  2.7362 -2.3676 -0.2647
  110MOL0     H14819   3.467   8.798   9.036  1.1370 -3.3179 -2.1135
  110MOL0     H14820   3.645   8.968   9.201 -0.3644 -0.4426 -0.2559
  110MOL0     H14821   3.515   8.895   9.291 -0.6295 -1.1282 -0.6373
  110MOL0     H14822   3.514   9.093   9.064  2.7524 -1.8462  1.1604
  110MOL0     H14823   3.356   9.032   9.120  0.3583  1.7722 -5.4600
  110MOL0     H14824   3.552   9.175   9.308  1.1228 -0.6868 -0.8284
  110MOL0     H14825   3.397   9.140   9.353  1.3838 -1.2335  1.7772
  110MOL0     H14826   3.470   9.367   9.182  1.1391 -0.7640 -1.9585
  110MOL0     H14827   3.353   9.258   9.097  2.2650 -1.2407 -0.6693
  110MOL0     H14828   3.212   9.268   9.298 -0.1383  0.5891 -0.1685
  110MOL0     H14829   3.221   9.421   9.205 -2.0020 -1.1425  1.4031
  110MOL0     H14830   3.357   9.349   9.466  1.2621  2.0256  0.7563
  110MOL0     H14831   3.212   9.461   9.440 -0.5640  0.8298 -1.8291
  110MOL0     H14832   3.890   8.594   9.106 -0.7052  0.3959 -0.8089
  110MOL0     H14833   4.032   8.390   9.084  0.1399 -2.7661 -1.3159
  110MOL0     H14834   4.361   8.075   9.026  0.2925  0.2642 -0.1531
  110MOL0     H14835   4.465   7.855   8.973  0.7554 -0.2933 -1.0152
  110MOL0     H14836   3.849   7.327   9.347  0.3435  0.5069 -1.3651
  110MOL0     H14837   3.740   7.539   9.309 -2.0146 -2.9513  1.6163
  110MOL0     H14838   3.825   8.054   9.414  0.2607  0.0601 -0.8638
  110MOL0     H14839   3.732   8.258   9.402 -1.1122 -0.1823  0.7673
  110MOL0     H14840   3.280   8.308   9.423  0.7345 -1.5325  1.0478
  110MOL0     H14841   3.371   8.339   9.574  1.2916 -0.1346 -0.0450
  110MOL0     H14842   3.220   8.523   9.498 -0.1687 -0.4398 -0.3898
  110MOL0     H14843   3.305   8.533   9.346 -1.3199 -0.4403  0.1838
  110MOL0     H14844   3.512   8.613   9.483  0.3568 -0.7055  0.5482
  110MOL0     H14845   3.409   8.600   9.634 -3.0416  3.1347  1.3158
  110MOL0     H14846   3.340   8.778   9.419 -0.9588 -2.3077 -1.1212
  110MOL0     H14847   3.420   8.841   9.564 -3.8364  3.2078  2.4061
  110MOL0     H14848   3.025   8.826   9.696 -1.8085 -1.8374 -2.3274
  110MOL0     H14849   3.334   8.114   9.406 -0.7390  1.6280  1.5492
  110MOL0     H14850   3.423   7.880   9.377 -0.7439  1.2445 -2.9874
  111MOL0     O14851   6.715   1.995   0.073  0.2747 -0.3868 -0.2409
  111MOL0     C14852   6.797   1.950  -0.005  0.1726  0.0696  0.1706
  111MOL0     O14853   6.773   1.895  -0.136 -0.2304  0.4957 -0.6229
  111MOL0     C14854   6.644   1.902  -0.170  0.1842 -0.6957  0.7252
  111MOL0     C14855   6.616   1.986  -0.286 -0.5803 -0.1880  0.1732
  111MOL0     C14856   6.479   2.002  -0.330 -0.9189 -0.5652 -0.3091
  111MOL0     C14857   6.378   1.950  -0.252 -0.4648 -0.2698 -0.2228
  111MOL0     O14858   6.258   1.982  -0.292 -0.5761  0.5747  0.2190
  111MOL0     C14859   6.146   1.967  -0.209  0.6655  0.4733 -0.0319
  111MOL0     C14860   6.051   1.866  -0.264 -0.5490 -0.2798  0.3357
  111MOL0     C14861   5.927   1.863  -0.172 -1.0162  0.5259 -0.0974
  111MOL0     C14862   5.816   1.769  -0.220 -0.1928 -0.0198  0.0954
  111MOL0     C14863   5.682   1.830  -0.190  0.0440  0.2138 -0.3289
  111MOL0     C14864   5.562   1.763  -0.256 -0.4221  0.6307 -0.3926
  111MOL0     C14865   5.437   1.829  -0.201 -0.4715 -0.5429 -0.1315
  111MOL0     C14866   5.317   1.784  -0.288  0.5333  0.4964  0.1190
  111MOL0     N14867   5.323   1.847  -0.422 -0.1116  0.4929  0.3611
  111MOL0     C14868   5.271   1.787  -0.535  0.6805  0.7474  0.6835
  111MOL0     C14869   5.268   1.884  -0.626  0.2205 -0.7322 -0.8734
  111MOL0     C14870   5.213   1.878  -0.762  0.8719 -0.0832 -0.1132
  111MOL0     C14871   5.227   1.736  -0.831 -0.0436 -0.1244  0.4094
  111MOL0     C14872   5.177   1.750  -0.968  0.2371 -0.6006  0.9236
  111MOL0     C14873   5.221   1.626  -1.048  1.1130 -0.3870  1.3235
  111MOL0     O14874   5.133   1.516  -1.030  0.5368  0.6466 -0.2657
  111MOL0     C14875   4.998   1.520  -1.073 -0.8175 -0.2031 -0.3224
  111MOL0     C14876   4.944   1.620  -1.162  0.2602  0.1748 -0.3054
  111MOL0     C14877   4.809   1.613  -1.196 -0.2706  0.8657  1.0725
  111MOL0     C14878   4.746   1.730  -1.269 -0.7352 -0.9767 -0.5404
  111MOL0     C14879   4.726   1.505  -1.146  0.8266 -0.2219  0.3709
  111MOL0     C14880   4.579   1.488  -1.178  0.0438 -0.7545  0.8809
  111MOL0     O14881   4.505   1.440  -1.075 -0.4123 -0.4683  0.0311
  111MOL0     C14882   4.374   1.419  -1.068  1.0847  0.1641 -0.2906
  111MOL0     C14883   4.282   1.366  -1.169  0.3199 -0.7701  0.7194
  111MOL0     C14884   4.139   1.349  -1.133  0.4499  1.0487 -0.3170
  111MOL0     C14885   4.101   1.372  -0.995 -0.0622  0.0969  0.0106
  111MOL0     O14886   3.979   1.340  -0.949 -0.1473  0.7048  0.0572
  111MOL0     C14887   3.939   1.200  -0.957  0.1396 -0.2062  0.2934
  111MOL0     C14888   3.821   1.174  -0.864  0.4342 -0.0142  0.8445
  111MOL0     C14889   3.696   1.230  -0.919 -0.4098  0.2338 -0.1863
  111MOL0     C14890   3.580   1.217  -0.823 -0.3350  0.5002  0.2522
  111MOL0     C14891   3.459   1.305  -0.857  0.6801  0.2804  0.4859
  111MOL0     C14892   3.378   1.260  -0.975  0.1566  0.3261  0.0586
  111MOL0     C14893   3.304   1.143  -0.938 -0.5608  1.2134 -1.1748
  111MOL0     C14894   3.220   1.094  -1.056  0.5651 -0.6401 -0.5397
  111MOL0    Cl14895   3.314   1.069  -1.212 -0.3851  0.4687 -0.2165
  111MOL0     C14896   4.195   1.403  -0.903  0.4621  0.1129 -0.7925
  111MOL0     C14897   4.331   1.406  -0.935 -0.8463  0.1147  0.8876
  111MOL0     O14898   4.537   1.520  -1.291 -0.0794  0.7141 -0.5221
  111MOL0     C14899   4.783   1.408  -1.063 -0.4119  0.5683 -0.1887
  111MOL0     C14900   4.917   1.419  -1.024  0.0248 -0.2787  0.1027
  111MOL0     N14901   5.336   1.996  -0.583 -0.3522 -0.0036  0.4734
  111MOL0     N14902   5.365   1.972  -0.458 -0.6249 -0.5978  0.3278
  111MOL0     C14903   6.412   1.849  -0.152 -0.2706  0.7252 -0.2351
  111MOL0     C14904   6.547   1.828  -0.113  0.2558 -0.0434  0.1570
  111MOL0     C14905   6.942   1.945   0.036  0.1415 -0.3214  0.2673
  111MOL0     C14906   6.997   2.021   0.145  0.1679 -0.4786 -1.2432
  111MOL0     C14907   7.130   2.012   0.189  0.3005  0.3352 -0.1512
  111MOL0     C14908   7.222   1.928   0.109 -0.0673  0.8181 -0.1937
  111MOL0     O14909   7.349   1.912   0.158  0.7371 -0.4956 -0.0515
  111MOL0     C14910   7.442   1.847   0.068 -0.0428  0.4320  0.7400
  111MOL0     C14911   7.482   1.932  -0.051  0.5820 -1.4300 -0.2591
  111MOL0     C14912   7.529   2.071  -0.006 -0.6506 -0.2686 -0.2868
  111MOL0     C14913   7.429   2.181   0.012  0.0318  0.2342  0.6379
  111MOL0     C14914   7.506   2.310   0.006  0.9813 -0.3015  0.8663
  111MOL0     C14915   7.557   2.417  -0.009 -0.5126 -0.0718  0.1592
  111MOL0     C14916   7.167   1.851  -0.001  0.3285 -0.0938  0.3084
  111MOL0     C14917   7.032   1.864  -0.039 -0.8516  0.2799 -0.1551
  111MOL0     H14918   6.698   2.029  -0.342  0.1915 -2.8422 -0.9078
  111MOL0     H14919   6.458   2.064  -0.417 -3.0587 -1.1132 -0.2523
  111MOL0     H14920   6.170   1.943  -0.105  1.1059  1.4837  0.1038
  111MOL0     H14921   6.095   2.063  -0.204  0.7742  0.5294 -0.0060
  111MOL0     H14922   6.017   1.891  -0.365 -0.7813 -1.3556  0.1331
  111MOL0     H14923   6.106   1.771  -0.266 -0.4434 -0.2154 -0.7946
  111MOL0     H14924   5.962   1.844  -0.070 -0.2904 -1.3975 -0.6639
  111MOL0     H14925   5.890   1.966  -0.165  0.9726  1.2902 -0.3185
  111MOL0     H14926   5.823   1.746  -0.327  2.0089  1.3842 -0.1208
  111MOL0     H14927   5.824   1.673  -0.169 -1.0954 -0.6617 -0.9020
  111MOL0     H14928   5.669   1.828  -0.082  0.6753  0.0205 -0.2513
  111MOL0     H14929   5.674   1.933  -0.224  0.3636  0.4756  0.3728
  111MOL0     H14930   5.570   1.776  -0.365  1.0065  1.2863 -0.2428
  111MOL0     H14931   5.557   1.658  -0.227 -0.8939  0.7787  0.0732
  111MOL0     H14932   5.420   1.796  -0.098 -4.3328  2.4731  0.4246
  111MOL0     H14933   5.438   1.938  -0.204  0.1148 -0.5713 -1.4029
  111MOL0     H14934   5.231   1.826  -0.235  0.6390 -0.9952  1.5586
  111MOL0     H14935   5.303   1.676  -0.294 -0.1136  0.6001 -0.3923
  111MOL0     H14936   5.242   1.682  -0.532  2.2522  0.2935  2.0432
  111MOL0     H14937   5.105   1.893  -0.757  0.5171 -2.5132  2.6168
  111MOL0     H14938   5.257   1.946  -0.836  0.2048  2.1580  1.4542
  111MOL0     H14939   5.182   1.651  -0.779 -2.8750  2.4783  2.5592
  111MOL0     H14940   5.335   1.717  -0.835  0.0952  0.8261 -1.4267
  111MOL0     H14941   5.227   1.832  -1.020 -1.0948  0.2713  0.9785
  111MOL0     H14942   5.073   1.782  -0.974  1.3803  3.3073 -2.4280
  111MOL0     H14943   5.317   1.588  -1.012  0.3901 -3.0547  0.6700
  111MOL0     H14944   5.226   1.645  -1.156 -0.8779  1.0046  1.4164
  111MOL0     H14945   4.995   1.708  -1.199  1.6344 -0.0445  0.9780
  111MOL0     H14946   4.812   1.818  -1.262 -0.0012 -1.1756 -3.4125
  111MOL0     H14947   4.725   1.705  -1.374 -2.4412  0.1467 -0.5129
  111MOL0     H14948   4.648   1.762  -1.233 -0.3869  2.2426 -2.0163
  111MOL0     H14949   4.319   1.342  -1.268  0.2119 -0.6127  0.6406
  111MOL0     H14950   4.068   1.313  -1.207 -1.3232  2.0676  0.8348
  111MOL0     H14951   3.899   1.173  -1.055 -0.6759 -2.0823  1.0926
  111MOL0     H14952   4.028   1.138  -0.941 -0.7565 -2.0200 -1.3325
  111MOL0     H14953   3.800   1.068  -0.850 -3.5298  0.5718  0.5480
  111MOL0     H14954   3.826   1.210  -0.761  0.6363 -2.9954  1.9755
  111MOL0     H14955   3.666   1.180  -1.012  1.1435 -1.1765  0.0304
  111MOL0     H14956   3.710   1.334  -0.947  2.8362  0.1923  0.8545
  111MOL0     H14957   3.538   1.116  -0.821  0.3805  0.2181  1.5078
  111MOL0     H14958   3.608   1.245  -0.721 -1.1118  0.7255  0.4123
  111MOL0     H14959   3.482   1.409  -0.886 -3.1044  0.9783 -0.5856
  111MOL0     H14960   3.386   1.311  -0.776 -2.4822  1.8887 -2.2145
  111MOL0     H14961   3.311   1.339  -1.011  0.1254  0.0746 -0.4431
  111MOL0     H14962   3.442   1.228  -1.058 -0.5248 -2.6718  0.5692
  111MOL0     H14963   3.246   1.154  -0.845  1.9266  0.7760  0.5075
  111MOL0     H14964   3.376   1.063  -0.918 -0.7711  1.5247  1.1637
  111MOL0     H14965   3.146   1.171  -1.079  2.6100  0.8031 -2.8955
  111MOL0     H14966   3.171   1.003  -1.019  0.4118  0.4398  2.1438
  111MOL0     H14967   4.172   1.421  -0.798  0.5709 -1.5340 -0.4529
  111MOL0     H14968   4.399   1.425  -0.853  1.2042 -0.4391 -0.6066
  111MOL0     H14969   4.742   1.314  -1.027 -0.8524  1.4817  1.8457
  111MOL0     H14970   4.962   1.351  -0.952  0.2296 -0.0684  0.1731
  111MOL0     H14971   6.338   1.784  -0.106  0.4567  0.2783  0.3388
  111MOL0     H14972   6.569   1.755  -0.035 -1.8869 -0.0875  0.8067
  111MOL0     H14973   6.924   2.075   0.205  2.2150 -0.2531  1.1967
  111MOL0     H14974   7.179   2.050   0.279  0.0260  0.2174  0.0512
  111MOL0     H14975   7.534   1.824   0.122 -0.1410 -2.0691 -0.0172
  111MOL0     H14976   7.406   1.748   0.037  1.2799 -0.2210  1.2218
  111MOL0     H14977   7.402   1.951  -0.123  1.3579 -0.0242 -0.7975
  111MOL0     H14978   7.566   1.885  -0.101  1.1822  1.0340 -1.7720
  111MOL0     H14979   7.611   2.104  -0.071 -1.0012 -0.6366 -0.9309
  111MOL0     H14980   7.574   2.055   0.092 -3.1735 -1.2711  0.7858
  111MOL0     H14981   7.377   2.177   0.108  1.3594 -2.0318  1.3584
  111MOL0     H14982   7.354   2.169  -0.067  3.4151  0.8167 -2.9916
  111MOL0     H14983   7.587   2.519  -0.019 -0.1539  0.1624  2.9186
  111MOL0     H14984   7.232   1.782  -0.054 -1.6093 -2.8785  1.3460
  111MOL0     H14985   6.998   1.800  -0.120  4.0375 -1.4678 -1.1912
  112MOL0     O14986   2.700   3.426   3.802 -0.7844 -0.4141  0.0842
  112MOL0     C14987   2.651   3.494   3.715 -0.1387  0.0025 -0.0963
  112MOL0     O14988   2.538   3.461   3.661  0.0283  0.1588  0.4551
  112MOL0     C14989   2.496   3.331   3.673 -0.8471  0.7804 -0.1720
  112MOL0     C14990   2.486   3.245   3.561 -0.2740  0.1065 -0.6676
  112MOL0     C14991   2.398   3.136   3.567 -0.9180  1.0264 -0.0372
  112MOL0     C14992   2.329   3.100   3.679  0.0958  0.2574 -1.1905
  112MOL0     O14993   2.246   2.988   3.675  0.4900 -0.9125  0.2318
  112MOL0     C14994   2.149   2.989   3.791 -0.8694 -0.2516 -0.8140
  112MOL0     C14995   2.046   2.877   3.778 -0.1801  0.3115  0.3628
  112MOL0     C14996   1.978   2.859   3.912  0.1640 -0.0334  0.2019
  112MOL0     C14997   1.896   2.732   3.907  0.9830  0.0843  0.4239
  112MOL0     C14998   1.751   2.744   3.961 -0.3153  0.4388  0.1773
  112MOL0     C14999   1.656   2.786   3.847  0.1773  0.1464  0.4977
  112MOL0     C15000   1.509   2.793   3.904  0.0278 -0.1568 -0.2106
  112MOL0     C15001   1.432   2.658   3.917  0.1204 -0.2508  0.1117
  112MOL0     N15002   1.289   2.692   3.940 -0.3829  0.2796 -0.3256
  112MOL0     C15003   1.233   2.669   4.062 -0.1127 -0.2270 -0.7402
  112MOL0     C15004   1.105   2.717   4.050 -0.4930  0.1053 -0.1449
  112MOL0     C15005   0.997   2.728   4.153 -0.2135 -0.9757 -0.3676
  112MOL0     C15006   1.046   2.820   4.266 -0.8467 -0.8935  0.1133
  112MOL0     C15007   0.937   2.810   4.372  0.5235 -0.1027  0.5223
  112MOL0     C15008   0.947   2.920   4.466  0.9201 -0.1610  0.2923
  112MOL0     O15009   0.943   3.054   4.420  0.2873 -0.3729 -0.1660
  112MOL0     C15010   0.830   3.115   4.366 -0.3585  0.0619  0.1979
  112MOL0     C15011   0.705   3.056   4.378 -0.8232 -1.3721 -1.0729
  112MOL0     C15012   0.591   3.122   4.334 -0.0868 -0.9901  0.4272
  112MOL0     C15013   0.453   3.057   4.356  0.4978  0.1266 -0.3965
  112MOL0     C15014   0.592   3.246   4.266  1.1382  0.0257 -0.5609
  112MOL0     C15015   0.476   3.310   4.209 -0.4095  0.1733 -0.4178
  112MOL0     O15016   0.444   3.420   4.285  0.6830 -0.5469  0.4718
  112MOL0     C15017   0.321   3.433   4.338 -0.0918 -0.0431  0.0561
  112MOL0     C15018   0.210   3.451   4.258  0.4593  0.0760 -0.5203
  112MOL0     C15019   0.081   3.459   4.303 -0.8478 -0.1141 -1.3225
  112MOL0     C15020   0.055   3.460   4.441 -0.5470 -0.5899  0.2670
  112MOL0     O15021  -0.071   3.474   4.501 -0.2065 -0.6170 -0.0002
  112MOL0     C15022  -0.195   3.509   4.433 -0.7082 -0.3474 -0.0924
  112MOL0     C15023  -0.293   3.527   4.551 -0.5395  0.9949  0.0839
  112MOL0     C15024  -0.435   3.549   4.511  0.1396  0.2623  0.1340
  112MOL0     C15025  -0.516   3.587   4.628  0.5061  1.0489 -0.1512
  112MOL0     C15026  -0.649   3.647   4.589  0.3932 -0.0209 -0.4110
  112MOL0     C15027  -0.732   3.676   4.719  0.0005 -0.4445 -0.4103
  112MOL0     C15028  -0.869   3.743   4.681 -0.4081 -0.4517  0.1535
  112MOL0     C15029  -0.928   3.809   4.803  0.6395  0.1617  0.0372
  112MOL0    Cl15030  -0.978   3.695   4.938  0.0847 -0.1669 -0.3617
  112MOL0     C15031   0.173   3.444   4.526  0.5621 -0.1066  0.4159
  112MOL0     C15032   0.306   3.414   4.478 -0.0709 -0.8002  0.2518
  112MOL0     O15033   0.409   3.261   4.115 -0.2648 -0.0282  0.0721
  112MOL0     C15034   0.719   3.295   4.243  0.4369 -0.6293 -0.9925
  112MOL0     C15035   0.838   3.233   4.294  0.2567  0.4212  0.5692
  112MOL0     N15036   1.074   2.748   3.921 -0.6170 -0.2762  0.3486
  112MOL0     N15037   1.185   2.727   3.853 -0.6315 -0.7429  0.2987
  112MOL0     C15038   2.354   3.175   3.806  0.4590  0.1896  0.3388
  112MOL0     C15039   2.437   3.292   3.793 -0.0598  0.3250 -0.3329
  112MOL0     C15040   2.701   3.627   3.688  0.5159  0.0041  0.4211
  112MOL0     C15041   2.796   3.686   3.774  0.1276  1.1272 -0.2651
  112MOL0     C15042   2.843   3.815   3.740  0.1897  0.3540  0.9245
  112MOL0     C15043   2.833   3.871   3.617  0.9116 -0.0904 -0.7796
  112MOL0     O15044   2.897   3.982   3.587 -0.1698 -0.4923  1.0644
  112MOL0     C15045   2.824   4.086   3.527  0.0646 -0.9266  0.3624
  112MOL0     C15046   2.834   4.210   3.611 -0.5776  0.3629  0.9733
  112MOL0     C15047   2.770   4.334   3.550  0.9635 -0.0902 -0.1685
  112MOL0     C15048   2.758   4.439   3.654  0.0515  0.0814  0.0317
  112MOL0     C15049   2.694   4.557   3.591  0.5207 -0.4457 -0.2425
  112MOL0     C15050   2.637   4.650   3.536  0.4358 -0.0073  0.4055
  112MOL0     C15051   2.734   3.810   3.527  1.0319 -0.3114  0.0825
  112MOL0     C15052   2.666   3.691   3.567 -0.0249 -0.4272 -0.1315
  112MOL0     H15053   2.521   3.273   3.462  0.9618 -1.4651 -0.7285
  112MOL0     H15054   2.392   3.073   3.478  3.3371  0.9703 -0.4865
  112MOL0     H15055   2.212   2.964   3.877 -2.1253 -0.8287 -0.0367
  112MOL0     H15056   2.102   3.086   3.811 -1.2928 -0.7466  0.7872
  112MOL0     H15057   1.962   2.898   3.711 -0.4956 -2.3381 -0.1861
  112MOL0     H15058   2.111   2.795   3.745 -1.1547  0.3118 -1.6999
  112MOL0     H15059   2.043   2.850   4.000 -3.5313  1.5923  3.3630
  112MOL0     H15060   1.923   2.950   3.935 -0.3466 -0.6745  1.5895
  112MOL0     H15061   1.882   2.691   3.806 -0.4404  0.2882  0.5143
  112MOL0     H15062   1.945   2.661   3.974 -1.9173  1.9957  5.0424
  112MOL0     H15063   1.726   2.640   3.987  1.2691  0.1693  0.7044
  112MOL0     H15064   1.743   2.812   4.046 -1.5572 -1.4068  1.6196
  112MOL0     H15065   1.681   2.890   3.824 -2.5954  1.0627  1.1981
  112MOL0     H15066   1.667   2.723   3.759 -2.8906 -0.6766  0.5716
  112MOL0     H15067   1.528   2.845   3.999 -2.6914 -2.3996  1.7406
  112MOL0     H15068   1.458   2.868   3.843  1.3211  2.3004  1.4896
  112MOL0     H15069   1.477   2.592   3.992  0.6291  0.1994  0.2118
  112MOL0     H15070   1.441   2.609   3.819 -0.2197  0.9163 -0.5158
  112MOL0     H15071   1.286   2.630   4.148  2.8460 -1.0676 -2.7873
  112MOL0     H15072   0.909   2.766   4.101 -0.8742 -2.3664 -0.3218
  112MOL0     H15073   0.970   2.625   4.180  0.5202 -0.9159  0.6541
  112MOL0     H15074   1.044   2.922   4.226  1.2793 -1.1911 -0.9082
  112MOL0     H15075   1.149   2.799   4.297 -0.0372  0.3385 -1.5715
  112MOL0     H15076   0.947   2.717   4.427  0.9370  0.5518  1.5928
  112MOL0     H15077   0.832   2.812   4.339  0.0995  0.6842  1.8334
  112MOL0     H15078   1.039   2.896   4.520  2.1496  0.4302 -1.4657
  112MOL0     H15079   0.862   2.915   4.535 -1.3642  0.1847 -2.3054
  112MOL0     H15080   0.695   2.960   4.428 -0.9837 -0.8446 -0.0628
  112MOL0     H15081   0.397   3.056   4.262  0.3022 -1.0448 -0.2823
  112MOL0     H15082   0.467   2.955   4.393 -1.8179 -0.0447  0.1439
  112MOL0     H15083   0.406   3.120   4.431 -1.4478  0.3718 -1.7425
  112MOL0     H15084   0.234   3.452   4.152  2.4690 -0.5813 -0.1138
  112MOL0     H15085   0.002   3.475   4.231 -0.2772 -1.0721 -2.1889
  112MOL0     H15086  -0.194   3.599   4.370  0.1773 -0.2296  0.0686
  112MOL0     H15087  -0.235   3.432   4.367 -1.7740  2.0250 -2.4433
  112MOL0     H15088  -0.289   3.440   4.617 -0.7662  2.2873  1.8785
  112MOL0     H15089  -0.256   3.600   4.623 -2.5867 -1.0371  3.4663
  112MOL0     H15090  -0.483   3.459   4.471 -2.0315  1.1496  0.6479
  112MOL0     H15091  -0.437   3.620   4.427  3.1286 -0.9512 -1.1100
  112MOL0     H15092  -0.535   3.500   4.691 -0.3312 -0.5848 -2.5435
  112MOL0     H15093  -0.463   3.660   4.690 -1.5924  2.2072  0.3864
  112MOL0     H15094  -0.694   3.565   4.532  0.9360 -0.8052  0.2600
  112MOL0     H15095  -0.633   3.733   4.524  2.1616 -0.9857 -1.3358
  112MOL0     H15096  -0.764   3.590   4.778 -0.5136  2.2368  3.6580
  112MOL0     H15097  -0.675   3.739   4.787 -1.9986  1.4830 -0.3831
  112MOL0     H15098  -0.940   3.673   4.636 -1.0938  0.1746  0.2434
  112MOL0     H15099  -0.846   3.817   4.603 -0.7721 -0.1905  0.2951
  112MOL0     H15100  -1.020   3.860   4.772  0.5865 -0.6390 -1.1733
  112MOL0     H15101  -0.867   3.891   4.843  1.2770 -0.0018 -0.5891
  112MOL0     H15102   0.162   3.440   4.634 -2.9980  2.0321  0.2954
  112MOL0     H15103   0.384   3.383   4.548  0.1577  0.1694  0.4421
  112MOL0     H15104   0.728   3.393   4.197  2.8127 -1.6997 -3.0378
  112MOL0     H15105   0.934   3.281   4.279  0.5744 -0.1569  0.7163
  112MOL0     H15106   2.306   3.156   3.901 -0.5521 -2.5396 -0.6060
  112MOL0     H15107   2.451   3.354   3.881 -0.9673 -0.3676  0.3184
  112MOL0     H15108   2.842   3.627   3.853 -0.3814 -2.1505 -2.2063
  112MOL0     H15109   2.917   3.853   3.810  0.9040 -0.6885  0.7685
  112MOL0     H15110   2.868   4.107   3.429 -1.6860 -0.8351 -0.4370
  112MOL0     H15111   2.721   4.063   3.499  0.2672  1.1143 -2.6309
  112MOL0     H15112   2.935   4.245   3.632 -1.1820  2.6414  0.4159
  112MOL0     H15113   2.790   4.187   3.708 -1.1593  0.1647  0.6719
  112MOL0     H15114   2.668   4.320   3.516 -0.7959  0.1157  4.3400
  112MOL0     H15115   2.835   4.367   3.468  0.0130 -2.1150 -1.8245
  112MOL0     H15116   2.854   4.469   3.698 -0.5909  1.0311  0.8331
  112MOL0     H15117   2.700   4.403   3.739  0.7613 -1.8386 -0.2461
  112MOL0     H15118   2.583   4.725   3.482  1.6230 -0.4183 -1.4646
  112MOL0     H15119   2.717   3.843   3.425 -4.7476  1.1249  1.1322
  112MOL0     H15120   2.586   3.658   3.501 -1.5110  0.4798  1.1463
  113MOL0     O15121   9.098   1.366   5.365  0.2508 -0.5692  0.0766
  113MOL0     C15122   9.037   1.264   5.392 -0.3505  0.6186  0.0999
  113MOL0     O15123   8.902   1.257   5.411 -0.0793 -0.1994  0.2526
  113MOL0     C15124   8.830   1.359   5.358 -0.5720  0.1729  0.6362
  113MOL0     C15125   8.720   1.400   5.431  0.1474 -0.0284  0.0646
  113MOL0     C15126   8.629   1.490   5.380 -0.6454  0.7389 -0.6589
  113MOL0     C15127   8.644   1.556   5.252 -0.2551 -1.0486  0.1240
  113MOL0     O15128   8.564   1.647   5.202  0.0660  0.2818  0.5858
  113MOL0     C15129   8.419   1.655   5.226  0.1702  0.2499 -0.2969
  113MOL0     C15130   8.357   1.776   5.170  0.1752  0.0155 -0.0518
  113MOL0     C15131   8.372   1.792   5.017 -0.3133 -0.4392 -0.2966
  113MOL0     C15132   8.324   1.935   4.969  0.5127 -0.2337  0.4190
  113MOL0     C15133   8.334   1.952   4.815 -0.3914 -0.2251 -1.0089
  113MOL0     C15134   8.476   1.955   4.759  0.3097 -1.1038  0.4287
  113MOL0     C15135   8.493   1.879   4.624  0.6545  0.2159  0.4998
  113MOL0     C15136   8.646   1.863   4.598 -0.6702  0.6570  0.3797
  113MOL0     N15137   8.669   1.794   4.471  0.4749  0.4515  0.2861
  113MOL0     C15138   8.612   1.829   4.348 -0.0139  0.4255 -0.5473
  113MOL0     C15139   8.674   1.753   4.266 -1.6064  0.2773 -0.4958
  113MOL0     C15140   8.644   1.749   4.120 -0.1125  0.0765 -0.6822
  113MOL0     C15141   8.561   1.630   4.073 -0.2243  0.5468 -0.0125
  113MOL0     C15142   8.448   1.597   4.167  1.3442  0.5111 -0.1583
  113MOL0     C15143   8.356   1.484   4.111  0.0581 -0.7897  0.5968
  113MOL0     O15144   8.306   1.511   3.976 -1.0968  0.6614  0.4874
  113MOL0     C15145   8.178   1.531   3.932  0.6938  1.0044 -0.2976
  113MOL0     C15146   8.160   1.576   3.803  0.4855 -0.8852  0.8499
  113MOL0     C15147   8.031   1.617   3.762  0.0799  0.2593 -0.0098
  113MOL0     C15148   8.022   1.695   3.632 -0.3079  1.4979 -0.2580
  113MOL0     C15149   7.918   1.596   3.843  0.7404  0.6156  0.3495
  113MOL0     C15150   7.776   1.636   3.809  0.7578  0.2009  0.1177
  113MOL0     O15151   7.687   1.645   3.914  0.2979 -0.4303  0.6649
  113MOL0     C15152   7.551   1.682   3.908 -0.4288 -0.0574 -0.2472
  113MOL0     C15153   7.499   1.722   4.033  0.5128  0.5818  0.3509
  113MOL0     C15154   7.364   1.744   4.043 -0.3915  1.5050 -0.2057
  113MOL0     C15155   7.285   1.756   3.930 -0.5859 -0.6354 -0.0058
  113MOL0     O15156   7.161   1.820   3.928 -0.0496 -0.0244  0.0392
  113MOL0     C15157   7.062   1.782   4.021 -0.7818  0.1468  0.2379
  113MOL0     C15158   6.920   1.774   3.970 -0.3878 -0.5752 -0.1605
  113MOL0     C15159   6.812   1.764   4.077 -0.2522  0.3119  0.1060
  113MOL0     C15160   6.809   1.898   4.155  0.2512  0.5462 -0.3301
  113MOL0     C15161   6.662   1.911   4.210  0.3091  0.4973  0.2527
  113MOL0     C15162   6.652   2.031   4.303 -0.1564  0.6979  1.3724
  113MOL0     C15163   6.507   2.067   4.330  0.2744  0.4499 -0.2557
  113MOL0     C15164   6.503   2.132   4.465 -0.4120  0.1356 -0.5111
  113MOL0    Cl15165   6.611   2.274   4.484 -0.1989 -0.0393 -0.2109
  113MOL0     C15166   7.336   1.719   3.807  0.6324 -1.0516 -0.2381
  113MOL0     C15167   7.468   1.687   3.798  0.6286  1.2642 -0.5647
  113MOL0     O15168   7.740   1.635   3.697 -0.9096 -0.2739  0.0448
  113MOL0     C15169   7.942   1.536   3.970  0.5797  0.8336  0.6668
  113MOL0     C15170   8.068   1.505   4.014 -1.2712  0.6321 -0.1844
  113MOL0     N15171   8.781   1.686   4.331  0.0211 -1.0005 -1.0072
  113MOL0     N15172   8.775   1.709   4.453 -0.0215  0.1770 -0.8394
  113MOL0     C15173   8.766   1.526   5.190 -0.5394  0.1877  0.7201
  113MOL0     C15174   8.844   1.424   5.232 -1.0040  0.3512  0.0992
  113MOL0     C15175   9.107   1.137   5.384  0.4438 -0.5031  0.4528
  113MOL0     C15176   9.027   1.026   5.350  0.5916  0.9284  0.1841
  113MOL0     C15177   9.083   0.898   5.344 -0.0809 -0.2641  0.9329
  113MOL0     C15178   9.222   0.879   5.359 -0.2333  0.0093  0.6858
  113MOL0     O15179   9.278   0.755   5.341  0.0460  0.1836  0.0195
  113MOL0     C15180   9.368   0.708   5.439  0.7930 -0.5417 -0.3258
  113MOL0     C15181   9.345   0.567   5.481 -0.0108 -0.2404 -1.1361
  113MOL0     C15182   9.445   0.470   5.427 -0.2929  0.0485 -0.3274
  113MOL0     C15183   9.546   0.435   5.536  0.0325 -0.4386 -0.6648
  113MOL0     C15184   9.671   0.369   5.485 -0.4907 -0.7929  0.3057
  113MOL0     C15185   9.779   0.325   5.460  0.7112 -0.7414  0.2335
  113MOL0     C15186   9.300   0.989   5.383 -0.7149 -0.4575  0.0871
  113MOL0     C15187   9.244   1.122   5.395  0.2279  0.1315  1.1266
  113MOL0     H15188   8.715   1.360   5.532 -0.2746 -1.2079 -0.4067
  113MOL0     H15189   8.547   1.533   5.437 -3.0452 -0.9389 -2.6755
  113MOL0     H15190   8.368   1.570   5.178  2.5008 -0.0265 -2.5230
  113MOL0     H15191   8.403   1.659   5.334 -0.6467 -0.5652 -0.3719
  113MOL0     H15192   8.250   1.784   5.192  0.9562  0.9884  4.3706
  113MOL0     H15193   8.409   1.860   5.217  0.4262  0.2454 -0.7296
  113MOL0     H15194   8.479   1.776   5.000 -0.2648  0.7482 -1.2102
  113MOL0     H15195   8.330   1.704   4.967  4.8729 -1.2807 -3.9383
  113MOL0     H15196   8.218   1.951   4.991 -0.9005 -2.0931 -3.8761
  113MOL0     H15197   8.384   2.022   4.997 -0.8963  2.6027 -4.2547
  113MOL0     H15198   8.288   1.864   4.770  2.3099 -1.7156 -1.0558
  113MOL0     H15199   8.275   2.044   4.809  0.2965  0.6294  2.7098
  113MOL0     H15200   8.519   2.055   4.755  1.7045 -1.7300 -1.5266
  113MOL0     H15201   8.546   1.897   4.819 -0.8069 -4.4763 -1.2324
  113MOL0     H15202   8.442   1.782   4.632  0.5464  0.3149  1.0052
  113MOL0     H15203   8.437   1.931   4.545 -1.1843  2.0030  2.8536
  113MOL0     H15204   8.688   1.801   4.677  0.6037 -0.0267 -0.7832
  113MOL0     H15205   8.693   1.962   4.592 -1.5694  1.0700  0.0022
  113MOL0     H15206   8.533   1.901   4.331  0.6422  1.2976 -0.0298
  113MOL0     H15207   8.584   1.837   4.095 -0.9941 -0.3800 -0.2375
  113MOL0     H15208   8.742   1.741   4.072  0.0725 -3.0534  0.0091
  113MOL0     H15209   8.619   1.538   4.062 -1.3927 -0.3502  1.0918
  113MOL0     H15210   8.511   1.659   3.980  0.5280 -0.2367 -0.6734
  113MOL0     H15211   8.386   1.687   4.178 -1.4132 -1.3422  0.3938
  113MOL0     H15212   8.485   1.579   4.268 -4.5413 -2.8221  1.8660
  113MOL0     H15213   8.269   1.477   4.177 -1.1118  2.9176 -0.3155
  113MOL0     H15214   8.417   1.393   4.118 -1.7334 -1.9039  4.1303
  113MOL0     H15215   8.247   1.600   3.744 -0.1931 -0.6036 -0.0677
  113MOL0     H15216   7.947   1.774   3.642 -1.5231  0.7532 -2.6870
  113MOL0     H15217   8.127   1.715   3.610  0.5437 -2.7618 -0.8174
  113MOL0     H15218   7.995   1.620   3.557  1.5915  0.1482  0.3200
  113MOL0     H15219   7.562   1.735   4.120  0.1234 -3.8891  1.5601
  113MOL0     H15220   7.320   1.786   4.133 -0.5253  2.5569 -0.7492
  113MOL0     H15221   7.091   1.685   4.061  1.3149  0.1425 -1.1543
  113MOL0     H15222   7.064   1.864   4.093  0.5831  0.2591  0.0956
  113MOL0     H15223   6.894   1.861   3.908  3.8324  0.6568 -0.5757
  113MOL0     H15224   6.915   1.680   3.915  1.2646 -1.6084  1.3192
  113MOL0     H15225   6.836   1.683   4.147  3.4053 -0.4056 -1.7705
  113MOL0     H15226   6.718   1.762   4.021 -0.2366  0.5488  0.0707
  113MOL0     H15227   6.881   1.887   4.237 -0.9718  2.5373  1.0864
  113MOL0     H15228   6.836   1.984   4.094  1.2388  1.7688  1.7413
  113MOL0     H15229   6.651   1.816   4.263 -2.7673  0.0713 -0.9199
  113MOL0     H15230   6.585   1.906   4.133 -0.6530  1.4877  1.1238
  113MOL0     H15231   6.697   1.989   4.393  0.5916 -0.3966  0.4973
  113MOL0     H15232   6.714   2.116   4.271 -1.6330  1.3531  0.0853
  113MOL0     H15233   6.438   1.983   4.321 -1.2010  1.7289 -1.5399
  113MOL0     H15234   6.468   2.139   4.257 -0.5674 -1.2331 -1.5403
  113MOL0     H15235   6.526   2.059   4.543 -0.0084  1.0412  0.2409
  113MOL0     H15236   6.399   2.152   4.494 -0.2973 -1.2763  1.0150
  113MOL0     H15237   7.288   1.747   3.713 -0.0660  0.1978  0.4679
  113MOL0     H15238   7.508   1.671   3.698  1.0887  0.2838 -0.2268
  113MOL0     H15239   7.860   1.517   4.038  0.3120  1.7939  0.6345
  113MOL0     H15240   8.088   1.454   4.107 -0.3161 -0.1411 -0.7875
  113MOL0     H15241   8.788   1.581   5.099 -1.4200  1.4501  1.2410
  113MOL0     H15242   8.932   1.408   5.170 -1.4890 -1.0333 -0.2816
  113MOL0     H15243   8.920   1.029   5.335  0.1942 -1.3513  1.9834
  113MOL0     H15244   9.023   0.813   5.314  1.9312 -2.4049  2.5684
  113MOL0     H15245   9.470   0.732   5.409 -0.1449 -1.3199 -4.7432
  113MOL0     H15246   9.344   0.767   5.528 -0.8260 -1.1015 -0.3559
  113MOL0     H15247   9.243   0.540   5.453  0.7519 -2.0533 -2.3715
  113MOL0     H15248   9.336   0.564   5.590 -0.7297  0.8215 -1.1534
  113MOL0     H15249   9.495   0.507   5.337 -0.7969  1.4195 -0.0725
  113MOL0     H15250   9.405   0.375   5.391  1.3333 -0.9326  0.3551
  113MOL0     H15251   9.492   0.352   5.583  0.1230  0.9373  2.0841
  113MOL0     H15252   9.581   0.522   5.593 -0.7752 -1.8322  2.1570
  113MOL0     H15253   9.876   0.292   5.428  0.1756 -2.6085  0.4299
  113MOL0     H15254   9.407   0.976   5.395 -0.6223 -0.4140 -0.6526
  113MOL0     H15255   9.304   1.211   5.407  0.8062  0.2415 -1.7557
  114MOL0     O15256   4.010   9.956   7.514 -0.2256  0.3707 -0.1592
  114MOL0     C15257   3.935   9.889   7.586  0.7301 -0.0368  0.4098
  114MOL0     O15258   3.816   9.922   7.632  0.3106  1.0561 -0.8816
  114MOL0     C15259   3.759  10.038   7.591 -0.5789 -0.2937  0.5638
  114MOL0     C15260   3.719  10.129   7.685 -0.0454 -0.1550  0.8221
  114MOL0     C15261   3.680  10.258   7.648 -0.3231 -0.0007 -0.4839
  114MOL0     C15262   3.658  10.294   7.521 -0.3478  0.4149 -0.0116
  114MOL0     O15263   3.604  10.414   7.499  0.4595 -0.1994 -1.1227
  114MOL0     C15264   3.614  10.475   7.373  0.0166  0.0224 -0.3389
  114MOL0     C15265   3.562  10.622   7.382  0.3214  0.2595  0.4281
  114MOL0     C15266   3.597  10.694   7.247 -0.3993  0.8077 -0.0070
  114MOL0     C15267   3.639  10.837   7.283  0.6719 -0.3151 -0.7678
  114MOL0     C15268   3.657  10.930   7.156  0.6566 -1.0892  0.0481
  114MOL0     C15269   3.527  10.932   7.073  0.2714  0.2019  0.3189
  114MOL0     C15270   3.494  11.076   7.033 -0.7012  0.0487  0.0171
  114MOL0     C15271   3.568  11.109   6.901  0.0724 -0.0937 -0.8926
  114MOL0     N15272   3.549  11.252   6.856  0.3818  0.9340 -0.2108
  114MOL0     C15273   3.479  11.282   6.746 -0.5080  0.7287 -0.5798
  114MOL0     C15274   3.470  11.424   6.744 -0.0432  0.2530  0.2359
  114MOL0     C15275   3.398  11.513   6.647  0.6229  0.2252 -0.4574
  114MOL0     C15276   3.479  11.521   6.517  0.6175  0.3594 -0.2414
  114MOL0     C15277   3.410  11.622   6.421  0.2086  0.9579 -0.5977
  114MOL0     C15278   3.496  11.682   6.324  0.2181  0.0753 -0.2613
  114MOL0     O15279   3.574  11.599   6.233 -1.0492 -0.3420  0.8856
  114MOL0     C15280   3.614  11.641   6.109  0.0072  1.4048  0.0101
  114MOL0     C15281   3.672  11.560   6.017  1.1450 -0.2078 -0.1468
  114MOL0     C15282   3.710  11.601   5.892 -0.1751 -0.2777 -0.1459
  114MOL0     C15283   3.764  11.489   5.801  0.0774  0.2080 -0.3578
  114MOL0     C15284   3.698  11.736   5.850  0.4822 -0.7543  0.1244
  114MOL0     C15285   3.755  11.788   5.717 -0.3358  0.1575 -0.7989
  114MOL0     O15286   3.858  11.727   5.652 -0.0590 -0.8905  0.1015
  114MOL0     C15287   3.899  11.749   5.516 -0.1206  0.7828 -0.1494
  114MOL0     C15288   4.034  11.730   5.495  0.4176  0.4309  0.3138
  114MOL0     C15289   4.092  11.759   5.367  0.3970 -0.1860  0.1792
  114MOL0     C15290   4.008  11.812   5.270  0.6764 -0.4875  0.4951
  114MOL0     O15291   4.062  11.859   5.153  0.2300 -0.4086 -0.0969
  114MOL0     C15292   4.130  11.764   5.077 -0.4030 -0.8453 -0.0448
  114MOL0     C15293   4.040  11.733   4.956  0.0141 -0.3801 -0.9500
  114MOL0     C15294   3.914  11.664   4.993  0.2195 -0.1445  0.1337
  114MOL0     C15295   3.843  11.595   4.873  0.2932 -0.8711 -0.5424
  114MOL0     C15296   3.713  11.519   4.908  0.0214  0.1733 -0.2540
  114MOL0     C15297   3.661  11.457   4.773  0.7856 -0.5341  0.5336
  114MOL0     C15298   3.691  11.304   4.764  0.7218  0.4322 -0.9374
  114MOL0     C15299   3.600  11.221   4.663 -0.0235 -0.8236 -0.8023
  114MOL0    Cl15300   3.623  11.284   4.498 -0.5157  0.0806  0.0769
  114MOL0     C15301   3.872  11.823   5.296 -0.9169  0.7994  1.0065
  114MOL0     C15302   3.821  11.791   5.414  0.2616 -0.8023 -0.0436
  114MOL0     O15303   3.696  11.889   5.678 -0.2478 -0.3828 -0.2934
  114MOL0     C15304   3.639  11.828   5.945  0.7860 -0.2726  0.4090
  114MOL0     C15305   3.599  11.775   6.073 -0.2427  0.2596  0.5118
  114MOL0     N15306   3.545  11.468   6.847 -0.3033  0.7535  0.6787
  114MOL0     N15307   3.591  11.364   6.909  0.6669  0.3918  0.1109
  114MOL0     C15308   3.679  10.201   7.420 -0.0979  0.4549 -0.5166
  114MOL0     C15309   3.734  10.074   7.457 -0.8213 -0.0728 -0.6351
  114MOL0     C15310   3.986   9.748   7.619  0.1657 -0.3670  0.5761
  114MOL0     C15311   3.981   9.703   7.751 -0.3071 -0.7834  0.7656
  114MOL0     C15312   4.022   9.581   7.781 -0.0016 -0.2705 -0.4517
  114MOL0     C15313   4.086   9.499   7.686  0.7031  0.7763 -0.4533
  114MOL0     O15314   4.133   9.382   7.735  0.2747  0.1940  0.3746
  114MOL0     C15315   4.232   9.298   7.676 -0.0766  0.9902 -0.4652
  114MOL0     C15316   4.235   9.165   7.750  0.7531  0.3881 -0.5388
  114MOL0     C15317   4.334   9.061   7.705  0.4576 -0.0630  0.0526
  114MOL0     C15318   4.351   8.942   7.802  0.7054 -0.7573 -0.9018
  114MOL0     C15319   4.241   8.842   7.805 -0.4691  0.1923 -1.2730
  114MOL0     C15320   4.159   8.755   7.828  1.0856  0.2361  0.1014
  114MOL0     C15321   4.104   9.543   7.555 -0.4329  0.6694 -0.5541
  114MOL0     C15322   4.041   9.665   7.520  0.0053  0.3861 -0.2179
  114MOL0     H15323   3.723  10.099   7.790  1.5191 -0.4282  0.7115
  114MOL0     H15324   3.660  10.331   7.726 -0.5175 -1.8446  1.2595
  114MOL0     H15325   3.720  10.490   7.350 -0.7279  3.0475 -2.3889
  114MOL0     H15326   3.569  10.423   7.288  1.5863  0.8371 -1.7383
  114MOL0     H15327   3.455  10.627   7.400  0.2060  0.8466 -0.3517
  114MOL0     H15328   3.607  10.672   7.468  1.8074  1.7688 -1.1349
  114MOL0     H15329   3.679  10.652   7.189 -1.1592  1.1209 -1.3467
  114MOL0     H15330   3.511  10.679   7.182  0.9719 -2.2389 -1.2895
  114MOL0     H15331   3.573  10.892   7.350  0.2189  0.4863 -1.8261
  114MOL0     H15332   3.738  10.830   7.328  0.6214 -1.1323 -0.7739
  114MOL0     H15333   3.695  11.027   7.188  0.0072 -1.6675  2.9262
  114MOL0     H15334   3.730  10.884   7.089  0.5057  1.9938 -2.4775
  114MOL0     H15335   3.539  10.871   6.983 -0.8778  0.4250 -0.0004
  114MOL0     H15336   3.438  10.900   7.129  0.3644  1.0041  0.9345
  114MOL0     H15337   3.387  11.100   7.039 -0.4036  2.2032 -1.7919
  114MOL0     H15338   3.533  11.149   7.104  1.7103 -0.9914 -0.1433
  114MOL0     H15339   3.532  11.045   6.820 -2.5581  1.9688 -1.4747
  114MOL0     H15340   3.677  11.101   6.905  0.0052 -0.5902  0.1597
  114MOL0     H15341   3.429  11.218   6.674 -1.4017  1.6987 -0.8288
  114MOL0     H15342   3.300  11.465   6.645  1.1668 -1.0196  0.8913
  114MOL0     H15343   3.385  11.616   6.682  0.3910  0.3954 -1.0270
  114MOL0     H15344   3.480  11.424   6.467 -1.0396  0.4737 -0.5441
  114MOL0     H15345   3.584  11.549   6.532  1.1210 -1.0775 -0.9607
  114MOL0     H15346   3.377  11.710   6.477 -0.5803  0.6670 -0.5900
  114MOL0     H15347   3.319  11.578   6.379 -0.7567  2.7488 -0.4741
  114MOL0     H15348   3.561  11.759   6.367 -1.9090  2.1676 -0.5897
  114MOL0     H15349   3.426  11.742   6.265  1.7114  2.6340  0.4113
  114MOL0     H15350   3.681  11.454   6.041 -2.9670 -1.3529 -2.6648
  114MOL0     H15351   3.871  11.489   5.780  0.3827 -3.0567  0.6813
  114MOL0     H15352   3.749  11.391   5.846  1.0422 -0.6080 -1.7592
  114MOL0     H15353   3.715  11.491   5.703  1.7378 -1.5625 -1.2816
  114MOL0     H15354   4.092  11.696   5.581  0.0817 -0.5043  0.1746
  114MOL0     H15355   4.198  11.747   5.350  0.1357 -1.5786 -0.6492
  114MOL0     H15356   4.226  11.812   5.056  0.7894 -1.9031  2.5493
  114MOL0     H15357   4.154  11.673   5.134  2.3546  1.6178  3.1347
  114MOL0     H15358   4.010  11.825   4.906 -2.2810 -0.5243  0.0228
  114MOL0     H15359   4.092  11.659   4.894  0.4460 -2.0696  1.2922
  114MOL0     H15360   3.843  11.735   5.037  1.7749  0.2694  2.1251
  114MOL0     H15361   3.940  11.595   5.074 -2.0248 -3.1808 -1.5126
  114MOL0     H15362   3.807  11.664   4.797 -0.1334 -0.3609  0.1139
  114MOL0     H15363   3.914  11.530   4.821 -2.4396 -1.4433 -3.9266
  114MOL0     H15364   3.643  11.591   4.951  0.1649  1.0123 -1.3667
  114MOL0     H15365   3.716  11.436   4.979 -2.3186  1.2458  1.2197
  114MOL0     H15366   3.553  11.470   4.774  0.7490 -0.7842  1.5058
  114MOL0     H15367   3.704  11.513   4.689  1.3047  0.1343  1.2241
  114MOL0     H15368   3.683  11.252   4.860 -1.0515 -0.5762 -1.5839
  114MOL0     H15369   3.792  11.284   4.725  0.6518  1.9198 -1.9475
  114MOL0     H15370   3.492  11.230   4.681  0.0734  2.1486 -1.0945
  114MOL0     H15371   3.626  11.115   4.664  1.8778 -0.4441  2.1429
  114MOL0     H15372   3.812  11.879   5.225 -1.1739  2.1390  2.2365
  114MOL0     H15373   3.714  11.805   5.426  0.4504  1.7546 -0.7416
  114MOL0     H15374   3.630  11.931   5.914 -1.2598 -0.8152 -1.0199
  114MOL0     H15375   3.569  11.845   6.150  1.6727  2.6307 -0.7441
  114MOL0     H15376   3.665  10.238   7.319 -0.0360 -1.0628 -1.1150
  114MOL0     H15377   3.740   9.991   7.388 -0.0601 -3.0403  2.6733
  114MOL0     H15378   3.939   9.780   7.814  1.3736  0.7105  0.1392
  114MOL0     H15379   4.005   9.534   7.878 -2.3798 -2.5083 -1.8203
  114MOL0     H15380   4.230   9.291   7.566 -0.5777 -2.1198 -0.3565
  114MOL0     H15381   4.335   9.331   7.691 -0.1517  0.4236  1.4436
  114MOL0     H15382   4.134   9.124   7.744 -0.6723  3.4600  0.4166
  114MOL0     H15383   4.256   9.176   7.857  2.2588  0.2953 -0.7900
  114MOL0     H15384   4.431   9.111   7.694 -0.0346  1.2309  1.3079
  114MOL0     H15385   4.321   9.037   7.599 -1.6123  2.2217 -0.3262
  114MOL0     H15386   4.381   8.974   7.902 -1.5329  0.8293 -0.6737
  114MOL0     H15387   4.431   8.881   7.758  0.5804 -0.9530 -0.8592
  114MOL0     H15388   4.098   8.670   7.854  2.5229 -0.6961  0.5680
  114MOL0     H15389   4.153   9.472   7.488  1.0865 -1.5536  2.6373
  114MOL0     H15390   4.040   9.701   7.418 -2.2608  0.0881 -0.3526
  115MOL0     O15391   6.022   9.185   5.661 -0.3213 -0.0484  0.1662
  115MOL0     C15392   6.078   9.077   5.631 -0.1484  0.2663  0.5035
  115MOL0     O15393   6.103   9.036   5.508  0.3494 -0.3096  0.1589
  115MOL0     C15394   6.079   9.121   5.406 -0.0515 -0.3366 -0.5812
  115MOL0     C15395   5.941   9.146   5.370 -0.1796  0.1925 -0.0170
  115MOL0     C15396   5.914   9.236   5.279 -0.5644 -0.2627  0.2969
  115MOL0     C15397   6.014   9.304   5.210  0.6930  0.0713  0.0630
  115MOL0     O15398   5.986   9.402   5.125 -0.4034 -0.4344 -0.8139
  115MOL0     C15399   5.930   9.367   4.997  0.0008 -0.9523  0.0743
  115MOL0     C15400   5.818   9.476   4.969 -0.2628 -0.3260 -0.8966
  115MOL0     C15401   5.675   9.431   4.997 -0.3653  0.4786  0.8767
  115MOL0     C15402   5.623   9.325   4.903  1.1447  0.1224 -1.0661
  115MOL0     C15403   5.486   9.267   4.940  0.2363 -0.5030  0.4099
  115MOL0     C15404   5.423   9.193   4.818 -0.3978  0.1108 -0.5120
  115MOL0     C15405   5.297   9.116   4.863 -0.4826  0.8485 -0.0540
  115MOL0     C15406   5.337   8.989   4.935 -0.0035 -0.4269  0.1198
  115MOL0     N15407   5.227   8.935   5.018 -0.9226 -0.0405 -0.1539
  115MOL0     C15408   5.102   8.888   4.978  0.8991  0.9448 -0.7308
  115MOL0     C15409   5.040   8.859   5.093  0.8251 -0.6903 -0.1481
  115MOL0     C15410   4.895   8.818   5.103 -0.0784 -0.5150 -0.5966
  115MOL0     C15411   4.798   8.898   5.183  0.0703  0.2256 -0.8950
  115MOL0     C15412   4.776   9.031   5.121 -0.6271 -0.5137 -0.7555
  115MOL0     C15413   4.884   9.140   5.135  0.3766  0.5624  0.0657
  115MOL0     O15414   4.844   9.269   5.103 -0.2535  0.0358  0.3733
  115MOL0     C15415   4.760   9.340   5.184  0.0803  0.7020  0.6902
  115MOL0     C15416   4.742   9.327   5.318 -0.0697  0.8943 -0.1788
  115MOL0     C15417   4.652   9.402   5.389  0.3805  0.7294  0.5010
  115MOL0     C15418   4.640   9.377   5.536 -0.2838 -0.3668 -0.8171
  115MOL0     C15419   4.583   9.510   5.322 -0.3622  0.3919  0.0606
  115MOL0     C15420   4.490   9.608   5.379  0.6762 -0.2920  1.0200
  115MOL0     O15421   4.528   9.737   5.341  0.2401 -0.0558  0.0530
  115MOL0     C15422   4.435   9.838   5.364 -0.3754  0.9228  0.7289
  115MOL0     C15423   4.351   9.893   5.264  0.1764  0.7263  0.1020
  115MOL0     C15424   4.255   9.990   5.295  0.3364 -0.1818  0.3237
  115MOL0     C15425   4.246  10.031   5.428 -0.0614  0.5262  0.3975
  115MOL0     O15426   4.160  10.125   5.452  0.5309 -0.2982  0.8568
  115MOL0     C15427   4.117  10.125   5.586  0.1256 -0.9171 -0.0653
  115MOL0     C15428   4.011  10.232   5.606 -0.3255  0.1396  0.9441
  115MOL0     C15429   3.936  10.242   5.471 -0.3157 -0.3102  0.6248
  115MOL0     C15430   3.828  10.347   5.465  0.6669  0.2746 -0.0318
  115MOL0     C15431   3.753  10.323   5.332 -0.1935 -0.1893  0.9410
  115MOL0     C15432   3.618  10.396   5.339  0.2111  0.6813 -1.4342
  115MOL0     C15433   3.555  10.384   5.199  0.5074 -0.0951 -0.0048
  115MOL0     C15434   3.538  10.244   5.154 -0.1259 -0.5525  0.4946
  115MOL0    Cl15435   3.469  10.117   5.258 -0.1322 -0.0579  0.0341
  115MOL0     C15436   4.337   9.987   5.525  0.2826 -0.1667 -0.4221
  115MOL0     C15437   4.433   9.891   5.486 -0.3500 -1.1807 -0.7946
  115MOL0     O15438   4.405   9.579   5.462 -0.0544  0.1306  0.4520
  115MOL0     C15439   4.614   9.527   5.189  0.2067  0.1728  0.0374
  115MOL0     C15440   4.705   9.450   5.120  0.5401  0.1619  0.2377
  115MOL0     N15441   5.116   8.904   5.194  0.3391 -0.4455 -0.5819
  115MOL0     N15442   5.226   8.948   5.154 -0.0820 -0.2785  0.0397
  115MOL0     C15443   6.146   9.272   5.228 -0.3547  0.2156 -0.2105
  115MOL0     C15444   6.185   9.183   5.331  0.4208 -0.7617  0.1915
  115MOL0     C15445   6.118   8.983   5.733  0.0120 -0.1719  0.6627
  115MOL0     C15446   6.075   9.003   5.867  0.0423 -0.6024 -0.8163
  115MOL0     C15447   6.109   8.911   5.970  0.5182  1.3607  0.0831
  115MOL0     C15448   6.179   8.790   5.943  0.6909 -0.0125  1.3312
  115MOL0     O15449   6.199   8.710   6.054  0.6408 -0.3569 -0.4915
  115MOL0     C15450   6.270   8.588   6.022  0.9186 -0.4855  0.9516
  115MOL0     C15451   6.292   8.497   6.148  0.8890  0.0195 -0.1262
  115MOL0     C15452   6.373   8.583   6.240 -1.1138  0.0668  0.1773
  115MOL0     C15453   6.412   8.504   6.361 -0.3547  0.0483 -0.8866
  115MOL0     C15454   6.299   8.500   6.450  0.7413  0.4335 -0.2037
  115MOL0     C15455   6.220   8.485   6.540  0.1856  0.1349 -0.2948
  115MOL0     C15456   6.217   8.771   5.806  0.4227  0.3424  0.5203
  115MOL0     C15457   6.196   8.867   5.702 -0.0244  0.5203 -0.4579
  115MOL0     H15458   5.869   9.093   5.431  1.2148 -1.5471  0.2185
  115MOL0     H15459   5.814   9.274   5.261 -0.1009  1.3178  0.9078
  115MOL0     H15460   6.014   9.371   4.927  1.2567 -0.7037  1.5388
  115MOL0     H15461   5.884   9.268   5.001 -2.2999  0.0878  1.8968
  115MOL0     H15462   5.834   9.566   5.028  0.4114 -0.2016 -1.2642
  115MOL0     H15463   5.838   9.515   4.869  2.7368 -1.0708 -0.6577
  115MOL0     H15464   5.658   9.404   5.102 -1.4644  0.3309  0.6631
  115MOL0     H15465   5.604   9.513   4.982 -1.7956 -0.9173 -0.3157
  115MOL0     H15466   5.603   9.373   4.807 -0.2064  2.4001  0.2586
  115MOL0     H15467   5.698   9.247   4.888  2.8254  1.6309 -0.8475
  115MOL0     H15468   5.498   9.198   5.025 -0.2485 -0.7428  0.2838
  115MOL0     H15469   5.419   9.346   4.974  1.2973  0.4472  0.3462
  115MOL0     H15470   5.399   9.265   4.739 -1.0108 -2.7838 -3.1362
  115MOL0     H15471   5.489   9.117   4.774  1.4873  2.5771 -2.2200
  115MOL0     H15472   5.226   9.174   4.922 -1.1515 -0.1299  0.1407
  115MOL0     H15473   5.254   9.083   4.768  0.5262 -0.1463 -0.1872
  115MOL0     H15474   5.428   9.007   4.994  0.9270  2.6400 -1.9511
  115MOL0     H15475   5.359   8.907   4.866 -0.3915 -0.0965 -0.4035
  115MOL0     H15476   5.054   8.873   4.882 -1.1731  2.0858  0.0591
  115MOL0     H15477   4.849   8.798   5.006 -1.7347 -4.2040  0.7753
  115MOL0     H15478   4.888   8.723   5.155 -0.3092  0.4051  1.1260
  115MOL0     H15479   4.815   8.898   5.291  0.2242 -1.6065 -0.8793
  115MOL0     H15480   4.704   8.842   5.182 -0.1724  0.6275 -1.4494
  115MOL0     H15481   4.685   9.079   5.157  0.0627  1.4561 -1.5029
  115MOL0     H15482   4.763   9.031   5.013  3.3129 -1.6533 -1.3988
  115MOL0     H15483   4.958   9.107   5.061 -2.0890 -0.2817 -2.1825
  115MOL0     H15484   4.916   9.131   5.239  0.9752 -1.1251 -0.2325
  115MOL0     H15485   4.806   9.256   5.368 -0.2819  0.4493 -0.5338
  115MOL0     H15486   4.539   9.397   5.573  0.4174  1.9914 -0.0492
  115MOL0     H15487   4.667   9.274   5.563  1.2592 -0.3508 -2.1753
  115MOL0     H15488   4.709   9.442   5.590  0.4673  0.3555 -2.5947
  115MOL0     H15489   4.358   9.862   5.160  0.3467 -1.2352  0.6608
  115MOL0     H15490   4.189  10.038   5.224 -0.8962  1.1275  2.2692
  115MOL0     H15491   4.073  10.029   5.613  1.3719 -1.9038 -1.3580
  115MOL0     H15492   4.205  10.153   5.645  0.8482  0.6885 -1.7689
  115MOL0     H15493   3.951  10.197   5.691 -1.7517 -2.3393 -0.9442
  115MOL0     H15494   4.068  10.323   5.625  0.9963 -0.7012  1.0834
  115MOL0     H15495   3.892  10.146   5.443 -0.0809 -0.5725  1.1537
  115MOL0     H15496   4.006  10.279   5.395 -2.2834  1.8724 -0.2592
  115MOL0     H15497   3.749  10.326   5.538 -0.6595 -0.3047 -1.5732
  115MOL0     H15498   3.874  10.446   5.466  2.8336 -0.4791  4.3883
  115MOL0     H15499   3.737  10.217   5.308 -0.6150  0.2832 -1.0014
  115MOL0     H15500   3.810  10.362   5.248  0.0052 -1.0356  0.6663
  115MOL0     H15501   3.550  10.366   5.419  2.6751  3.2406  1.9070
  115MOL0     H15502   3.648  10.496   5.372  1.6614  0.3840 -1.7941
  115MOL0     H15503   3.622  10.439   5.132  0.8039  0.9192  1.0976
  115MOL0     H15504   3.461  10.440   5.191  1.9224  2.3403 -0.9521
  115MOL0     H15505   3.631  10.199   5.116  0.0508 -0.3703  0.7077
  115MOL0     H15506   3.471  10.249   5.068  2.9228 -0.0399 -2.0500
  115MOL0     H15507   4.342  10.019   5.629 -0.8934  0.7875 -0.6355
  115MOL0     H15508   4.504   9.858   5.562 -0.5132  1.2742  0.5193
  115MOL0     H15509   4.576   9.604   5.123  1.7242  1.1934  0.2994
  115MOL0     H15510   4.731   9.478   5.018  0.9151  2.6858  0.9713
  115MOL0     H15511   6.219   9.331   5.174  0.8168 -1.1268 -0.1605
  115MOL0     H15512   6.290   9.164   5.353  0.4153  1.3856  2.4883
  115MOL0     H15513   6.012   9.090   5.883 -0.6433 -1.0620 -0.9614
  115MOL0     H15514   6.077   8.937   6.070  3.9811 -0.4177  1.8250
  115MOL0     H15515   6.202   8.537   5.953 -2.0821  2.3190  1.5954
  115MOL0     H15516   6.361   8.602   5.963  1.5431 -3.3071  1.0902
  115MOL0     H15517   6.342   8.403   6.125 -0.8940 -1.3346  1.3023
  115MOL0     H15518   6.203   8.472   6.206  0.3346  1.6178 -0.2178
  115MOL0     H15519   6.317   8.672   6.269  0.2094  0.7789  0.6544
  115MOL0     H15520   6.471   8.605   6.196 -1.5155 -2.2787 -2.1654
  115MOL0     H15521   6.498   8.552   6.408 -1.6214  1.4696  0.0351
  115MOL0     H15522   6.431   8.398   6.338 -3.7579 -1.4771  2.2765
  115MOL0     H15523   6.153   8.496   6.623  3.6575  1.1459  2.6075
  115MOL0     H15524   6.266   8.677   5.784 -1.5979 -0.2626 -1.7158
  115MOL0     H15525   6.222   8.856   5.597  0.5844  2.4000 -0.5444
  116MOL0     O15526   6.926   7.896   3.792 -0.1168  0.7521  0.0739
  116MOL0     C15527   6.931   8.005   3.845  0.5577  0.2559  0.4042
  116MOL0     O15528   6.843   8.107   3.822  0.4026 -0.0280  0.0145
  116MOL0     C15529   6.724   8.094   3.749 -0.1069  0.5891  0.2432
  116MOL0     C15530   6.599   8.123   3.805  0.4704 -0.0374 -1.1185
  116MOL0     C15531   6.478   8.116   3.718 -0.3350  0.8379 -0.4321
  116MOL0     C15532   6.481   8.066   3.595  0.1881 -0.4711  0.0813
  116MOL0     O15533   6.367   8.054   3.528 -0.0626 -0.0410 -0.8247
  116MOL0     C15534   6.315   7.915   3.529  0.3518  0.4666 -0.6017
  116MOL0     C15535   6.231   7.890   3.658 -0.6931 -0.4095 -0.2324
  116MOL0     C15536   6.103   7.966   3.645  0.0938 -0.1438  0.2876
  116MOL0     C15537   5.993   7.926   3.754  0.1788  0.1253  0.7835
  116MOL0     C15538   5.872   8.006   3.767  0.6136 -0.1150 -0.7642
  116MOL0     C15539   5.770   7.961   3.663  0.0488 -0.1078 -0.5448
  116MOL0     C15540   5.627   7.997   3.712 -0.1184  0.6611 -0.1864
  116MOL0     C15541   5.524   7.930   3.619  0.3081  0.4259  0.3258
  116MOL0     N15542   5.387   7.990   3.622 -0.2689 -0.4776 -0.1450
  116MOL0     C15543   5.292   7.948   3.712 -0.0810 -0.0956  0.2514
  116MOL0     C15544   5.176   8.005   3.682 -0.3203  0.1966 -0.8519
  116MOL0     C15545   5.044   7.987   3.754 -0.5367 -0.2214 -0.2780
  116MOL0     C15546   4.993   8.122   3.799 -0.7730 -0.8134 -0.5545
  116MOL0     C15547   5.059   8.164   3.931  0.2581  0.5486 -0.0679
  116MOL0     C15548   5.024   8.080   4.049 -0.1887  0.2724 -0.1507
  116MOL0     O15549   4.881   8.058   4.059  0.2768 -0.0032 -0.5225
  116MOL0     C15550   4.826   7.986   4.162 -0.1818 -0.6402  0.6362
  116MOL0     C15551   4.903   7.955   4.277 -0.2286  0.2644 -1.1476
  116MOL0     C15552   4.843   7.885   4.386  1.0905 -0.1521  0.5175
  116MOL0     C15553   4.928   7.839   4.506 -0.4114 -0.1130 -0.6200
  116MOL0     C15554   4.702   7.853   4.372  0.7280  1.1080 -0.1136
  116MOL0     C15555   4.627   7.788   4.482  0.2128  0.4790  0.4050
  116MOL0     O15556   4.677   7.802   4.617 -0.2557 -0.0867  0.3893
  116MOL0     C15557   4.613   7.735   4.718 -0.1133 -0.6012 -0.0451
  116MOL0     C15558   4.513   7.788   4.787 -0.2940 -0.2589 -0.4761
  116MOL0     C15559   4.471   7.730   4.908 -0.0814  0.5180  0.3318
  116MOL0     C15560   4.526   7.606   4.954 -0.0295 -0.2570  0.5058
  116MOL0     O15561   4.492   7.538   5.070 -0.6534 -0.3922  0.1092
  116MOL0     C15562   4.500   7.612   5.193  0.0919  0.0292  0.5014
  116MOL0     C15563   4.397   7.566   5.289  0.4031 -0.0712  1.0531
  116MOL0     C15564   4.421   7.419   5.334  0.5346 -0.4183 -0.0951
  116MOL0     C15565   4.348   7.390   5.463  0.0654 -0.4698 -0.6210
  116MOL0     C15566   4.372   7.245   5.529  0.7145  0.8463 -0.0963
  116MOL0     C15567   4.351   7.126   5.433  0.0090  0.3436 -0.3083
  116MOL0     C15568   4.303   6.999   5.501  0.0192 -0.6354  0.5830
  116MOL0     C15569   4.315   6.872   5.409 -0.4602 -0.6242 -0.0477
  116MOL0    Cl15570   4.479   6.856   5.337  0.4770  0.0072 -0.1804
  116MOL0     C15571   4.621   7.548   4.874  1.2766  0.1332 -0.2126
  116MOL0     C15572   4.666   7.611   4.756  0.5283 -0.6424 -0.0180
  116MOL0     O15573   4.531   7.711   4.453 -0.4731 -0.3528  0.2546
  116MOL0     C15574   4.630   7.890   4.261 -0.0379  0.2880 -0.2312
  116MOL0     C15575   4.695   7.962   4.153  0.8687  0.1869  0.2459
  116MOL0     N15576   5.202   8.081   3.575 -0.1859 -0.4036 -0.5160
  116MOL0     N15577   5.324   8.072   3.536  0.2266 -0.1999  0.9762
  116MOL0     C15578   6.605   8.033   3.535 -0.6773 -1.1185 -0.7558
  116MOL0     C15579   6.722   8.065   3.614 -0.3880 -0.4479  0.3205
  116MOL0     C15580   7.044   8.050   3.933 -0.8623  0.0625 -0.6264
  116MOL0     C15581   7.162   7.975   3.936  0.2331 -1.0879 -0.8009
  116MOL0     C15582   7.278   8.016   4.005 -0.0939 -0.0708  0.0215
  116MOL0     C15583   7.272   8.122   4.096  0.9247  0.1511 -0.7639
  116MOL0     O15584   7.362   8.157   4.189 -0.4655  0.1939 -0.8018
  116MOL0     C15585   7.463   8.056   4.210 -0.5499  0.1529 -0.4478
  116MOL0     C15586   7.553   8.093   4.330 -0.2060  0.3227 -0.1035
  116MOL0     C15587   7.664   7.991   4.363  1.1353  0.0609  0.1652
  116MOL0     C15588   7.794   8.033   4.425 -0.0810 -0.5547 -0.4128
  116MOL0     C15589   7.862   8.147   4.362  0.7599  0.1106  0.4123
  116MOL0     C15590   7.917   8.245   4.307  0.4741  0.1392 -0.0952
  116MOL0     C15591   7.153   8.198   4.100  0.9055 -0.1906  0.5263
  116MOL0     C15592   7.046   8.169   4.009  0.4272  0.3251 -0.6208
  116MOL0     H15593   6.593   8.139   3.912  1.5036  2.0111 -1.3016
  116MOL0     H15594   6.379   8.129   3.761  0.3779  0.2558  1.5371
  116MOL0     H15595   6.248   7.902   3.445 -1.2515 -1.1806  0.8470
  116MOL0     H15596   6.398   7.845   3.515  1.6337  2.2683 -2.5413
  116MOL0     H15597   6.218   7.781   3.661  0.6873 -0.5825  0.7496
  116MOL0     H15598   6.292   7.907   3.747 -0.5384  1.5869 -0.6845
  116MOL0     H15599   6.128   8.071   3.662  2.9464 -0.8253  0.6875
  116MOL0     H15600   6.068   7.938   3.545  0.4891 -2.3811  0.7203
  116MOL0     H15601   5.958   7.822   3.750 -0.7515  0.4266  0.9290
  116MOL0     H15602   6.033   7.952   3.853  1.6331 -0.4385  0.3677
  116MOL0     H15603   5.832   7.979   3.865  0.9128  0.0365 -0.5993
  116MOL0     H15604   5.890   8.114   3.772 -1.3041  0.1803  1.4745
  116MOL0     H15605   5.795   8.008   3.567  2.1672  0.7419  0.3437
  116MOL0     H15606   5.764   7.852   3.663 -4.6173 -0.0874  2.0814
  116MOL0     H15607   5.608   7.957   3.812  2.6927 -0.2731  0.0688
  116MOL0     H15608   5.623   8.106   3.718  0.8453  0.6466  1.1872
  116MOL0     H15609   5.512   7.825   3.645 -3.9929  0.4742 -0.6717
  116MOL0     H15610   5.574   7.928   3.521  0.1241 -0.0527  0.2368
  116MOL0     H15611   5.319   7.876   3.789 -0.9617 -1.6646 -0.8561
  116MOL0     H15612   4.967   7.955   3.683  1.0419 -1.1852 -1.6168
  116MOL0     H15613   5.052   7.914   3.834 -0.4330 -2.7938 -2.5008
  116MOL0     H15614   4.884   8.118   3.807 -0.9023  1.5289 -0.5367
  116MOL0     H15615   5.010   8.203   3.728  2.5506 -1.4234 -0.5930
  116MOL0     H15616   5.020   8.266   3.939 -0.1672  0.6414 -2.5615
  116MOL0     H15617   5.168   8.166   3.921  0.3250 -0.5693  0.2521
  116MOL0     H15618   5.057   8.130   4.140 -3.0513  1.7998  0.1666
  116MOL0     H15619   5.074   7.983   4.040 -0.1130  0.0061  2.5131
  116MOL0     H15620   5.008   7.979   4.291  1.2628 -3.4523 -4.0176
  116MOL0     H15621   4.889   7.748   4.552 -3.8975  1.8458  0.6287
  116MOL0     H15622   5.031   7.820   4.472 -0.1515 -0.6986  0.4508
  116MOL0     H15623   4.926   7.918   4.582  2.4522  0.5685 -1.1252
  116MOL0     H15624   4.464   7.881   4.759 -0.3637 -0.7127 -1.9803
  116MOL0     H15625   4.398   7.791   4.960  0.8838 -1.6039  4.6787
  116MOL0     H15626   4.593   7.600   5.248  1.5217 -2.3468 -2.1499
  116MOL0     H15627   4.486   7.720   5.186 -3.7592 -0.1628  2.5364
  116MOL0     H15628   4.405   7.625   5.381 -2.4429  0.3794  1.1027
  116MOL0     H15629   4.296   7.583   5.251  0.5105 -2.3854 -0.4505
  116MOL0     H15630   4.526   7.403   5.357  0.0597 -0.0708  2.6807
  116MOL0     H15631   4.371   7.349   5.267  0.2759 -0.8626  0.5457
  116MOL0     H15632   4.374   7.466   5.537  1.6220  0.5568 -2.1472
  116MOL0     H15633   4.241   7.398   5.444 -0.2909  1.8296  1.8234
  116MOL0     H15634   4.301   7.235   5.612  0.3568 -2.2560 -0.6734
  116MOL0     H15635   4.475   7.241   5.565  2.1681 -1.0349 -3.9145
  116MOL0     H15636   4.274   7.153   5.360 -0.2973 -0.5494 -0.3309
  116MOL0     H15637   4.451   7.105   5.393  0.1222  1.3291 -0.5604
  116MOL0     H15638   4.201   7.018   5.536  0.6258  3.0809  0.6796
  116MOL0     H15639   4.372   6.984   5.584  4.4296  0.3577 -2.5239
  116MOL0     H15640   4.250   6.886   5.323  1.7368  0.8130 -1.5780
  116MOL0     H15641   4.279   6.784   5.463 -1.3632 -1.0032 -1.2344
  116MOL0     H15642   4.667   7.452   4.897 -2.2943 -1.2128  2.0549
  116MOL0     H15643   4.744   7.569   4.694  1.3404 -0.7401  1.0282
  116MOL0     H15644   4.525   7.867   4.247 -0.4498  2.6165 -1.4442
  116MOL0     H15645   4.643   7.990   4.062  1.8242 -1.3358 -0.8405
  116MOL0     H15646   6.618   7.991   3.436 -2.0107 -1.4692 -0.7991
  116MOL0     H15647   6.814   8.047   3.557 -1.3980 -1.8659 -0.9533
  116MOL0     H15648   7.170   7.881   3.882 -1.1294 -2.7641  1.7096
  116MOL0     H15649   7.361   7.949   3.987 -0.3561 -0.3482 -0.1544
  116MOL0     H15650   7.417   7.961   4.237  0.7840 -0.7368 -1.1590
  116MOL0     H15651   7.528   8.043   4.123  0.4185  0.2512  0.2337
  116MOL0     H15652   7.485   8.118   4.411 -2.6728 -0.4294 -1.8191
  116MOL0     H15653   7.611   8.183   4.310  0.5103  0.4858  2.3950
  116MOL0     H15654   7.688   7.952   4.264 -1.5868 -2.0977  0.2365
  116MOL0     H15655   7.621   7.911   4.424  2.2687 -1.2751 -0.7418
  116MOL0     H15656   7.868   7.954   4.410  1.7443  0.7439  1.2925
  116MOL0     H15657   7.787   8.062   4.530 -0.4679  3.7337 -1.4473
  116MOL0     H15658   7.962   8.338   4.281  0.4111  0.3239  0.4438
  116MOL0     H15659   7.143   8.275   4.176 -2.6001 -1.7356  1.8022
  116MOL0     H15660   6.972   8.249   4.017  2.8497  2.4864  2.0347
  117MOL0     O15661   7.115   8.956   4.114  0.1982  0.2133 -0.4452
  117MOL0     C15662   7.215   9.025   4.143  0.1444  0.6874 -0.2366
  117MOL0     O15663   7.313   8.993   4.239 -0.2631  0.2838  0.4434
  117MOL0     C15664   7.321   8.876   4.295 -0.0309  0.4064 -0.3123
  117MOL0     C15665   7.311   8.759   4.221 -0.0671 -1.0617 -0.5293
  117MOL0     C15666   7.327   8.641   4.281 -1.2058 -0.1526  0.1511
  117MOL0     C15667   7.364   8.627   4.413 -0.1760  0.3049 -0.0234
  117MOL0     O15668   7.385   8.496   4.460 -0.8681 -0.3908 -0.0949
  117MOL0     C15669   7.271   8.411   4.445  0.6994 -0.2424  0.6339
  117MOL0     C15670   7.171   8.426   4.560 -0.2920 -1.0688  0.6775
  117MOL0     C15671   7.236   8.401   4.697  0.8761 -0.7442  0.2331
  117MOL0     C15672   7.134   8.415   4.816 -0.7450  0.7693  0.0491
  117MOL0     C15673   7.194   8.415   4.954 -0.9710 -0.1845  0.4037
  117MOL0     C15674   7.322   8.503   4.975 -0.0798 -0.4112 -0.4285
  117MOL0     C15675   7.337   8.548   5.116  0.6807 -0.1388  0.2151
  117MOL0     C15676   7.463   8.630   5.142 -0.1861  0.7404  0.0464
  117MOL0     N15677   7.491   8.641   5.286  0.3695 -0.9457 -0.0608
  117MOL0     C15678   7.466   8.764   5.366  0.7427  0.1415  0.4763
  117MOL0     C15679   7.510   8.732   5.494  0.5304 -0.2304  0.3388
  117MOL0     C15680   7.522   8.820   5.618 -0.3320  0.5005  0.0261
  117MOL0     C15681   7.402   8.911   5.634 -0.0898  1.0706 -0.6977
  117MOL0     C15682   7.403   9.014   5.746  1.0622 -0.8240 -0.1663
  117MOL0     C15683   7.264   9.067   5.772  0.7243 -0.4540 -0.4582
  117MOL0     O15684   7.211   9.138   5.657  0.1293 -0.2642  0.5198
  117MOL0     C15685   7.103   9.220   5.691 -0.2144  0.6472 -0.1538
  117MOL0     C15686   7.060   9.310   5.594  0.7430 -0.5371  0.3611
  117MOL0     C15687   6.945   9.391   5.616 -0.6669  0.0448  0.1152
  117MOL0     C15688   6.875   9.450   5.491 -0.8572 -0.5628 -0.4155
  117MOL0     C15689   6.875   9.378   5.736  0.3732  0.5453 -0.2254
  117MOL0     C15690   6.744   9.440   5.763  1.0141  0.3650 -0.5583
  117MOL0     O15691   6.732   9.568   5.729 -0.6068 -0.6993  0.4050
  117MOL0     C15692   6.613   9.636   5.752  0.4881  0.4827  0.2005
  117MOL0     C15693   6.590   9.709   5.869  0.3643  0.1337 -0.2071
  117MOL0     C15694   6.467   9.773   5.894  0.0737  0.4150 -0.4374
  117MOL0     C15695   6.364   9.754   5.805 -0.1871  0.3511  0.4529
  117MOL0     O15696   6.238   9.802   5.832 -0.0336 -0.0171  0.1711
  117MOL0     C15697   6.144   9.693   5.883 -0.9386 -0.1261 -0.4499
  117MOL0     C15698   6.196   9.638   6.017 -0.6900  0.8385  0.2990
  117MOL0     C15699   6.096   9.538   6.065  0.6442  0.2412 -0.4440
  117MOL0     C15700   6.108   9.403   5.990  0.2526 -0.6665 -0.8241
  117MOL0     C15701   6.228   9.305   6.023  0.1205  0.1497  0.5381
  117MOL0     C15702   6.252   9.245   6.162 -0.4049 -0.8490  0.1899
  117MOL0     C15703   6.373   9.153   6.138  0.4110  0.5964 -0.7053
  117MOL0     C15704   6.400   9.069   6.267 -0.1834 -0.5395  0.9550
  117MOL0    Cl15705   6.516   8.928   6.233  0.0917  0.4270  0.6059
  117MOL0     C15706   6.397   9.687   5.676 -0.3470  0.1034 -1.0100
  117MOL0     C15707   6.520   9.628   5.653 -0.3189  0.3471 -0.3902
  117MOL0     O15708   6.649   9.369   5.813  0.3368  0.3450 -0.6706
  117MOL0     C15709   6.923   9.294   5.836 -0.0243  0.3933 -1.3287
  117MOL0     C15710   7.037   9.219   5.815  0.1887 -0.3639  0.2451
  117MOL0     N15711   7.540   8.595   5.500 -0.4089 -0.2632 -0.1454
  117MOL0     N15712   7.533   8.548   5.375  0.3843  1.1529  0.5690
  117MOL0     C15713   7.376   8.735   4.495 -0.0124 -0.1471 -0.5729
  117MOL0     C15714   7.354   8.862   4.434 -0.4478  0.2630  0.9599
  117MOL0     C15715   7.239   9.152   4.072  0.1471  0.1979  0.5076
  117MOL0     C15716   7.178   9.179   3.945 -1.1903 -0.5223  0.3691
  117MOL0     C15717   7.197   9.304   3.883 -0.5284  0.0955 -0.7418
  117MOL0     C15718   7.286   9.397   3.946  0.2635  0.3011 -0.6702
  117MOL0     O15719   7.291   9.513   3.875 -0.7255  0.1362 -0.0321
  117MOL0     C15720   7.404   9.605   3.888 -0.2404 -0.2791 -0.3784
  117MOL0     C15721   7.543   9.536   3.860  0.8261  0.5635 -0.2185
  117MOL0     C15722   7.672   9.631   3.870  0.4008 -0.1335  0.1020
  117MOL0     C15723   7.799   9.552   3.861  0.1889  0.2324 -0.1866
  117MOL0     C15724   7.830   9.458   3.980 -0.4705 -0.7334  0.9410
  117MOL0     C15725   7.863   9.399   4.088 -0.0028 -0.8104 -0.0234
  117MOL0     C15726   7.331   9.376   4.074 -0.2454 -0.0196  0.4198
  117MOL0     C15727   7.316   9.250   4.133 -0.2966 -0.4732 -0.1601
  117MOL0     H15728   7.302   8.770   4.114  1.4657 -1.8402 -0.7738
  117MOL0     H15729   7.331   8.548   4.225  1.6847 -0.2151  0.3064
  117MOL0     H15730   7.217   8.420   4.351  2.1331 -1.3335 -0.3490
  117MOL0     H15731   7.310   8.308   4.440  0.3286 -0.3085 -1.6128
  117MOL0     H15732   7.123   8.524   4.572  0.1533 -0.9844  1.9157
  117MOL0     H15733   7.090   8.354   4.546 -0.9005 -0.4831  1.0743
  117MOL0     H15734   7.284   8.303   4.700 -1.1973 -1.7781  1.5771
  117MOL0     H15735   7.317   8.474   4.704 -1.4123  2.0411 -0.2733
  117MOL0     H15736   7.068   8.501   4.807  2.6490  3.6429  0.7415
  117MOL0     H15737   7.067   8.328   4.810 -1.1834  1.1930 -1.8028
  117MOL0     H15738   7.115   8.435   5.027  0.9741  1.8207  2.1066
  117MOL0     H15739   7.227   8.311   4.961 -0.6725 -0.2756 -1.6993
  117MOL0     H15740   7.407   8.455   4.926  1.7148  0.8847  1.2760
  117MOL0     H15741   7.300   8.594   4.919 -1.6812 -0.0890  0.6459
  117MOL0     H15742   7.249   8.609   5.139  0.2487 -0.4546 -0.6017
  117MOL0     H15743   7.334   8.461   5.182  2.7025 -2.0115 -1.9986
  117MOL0     H15744   7.454   8.728   5.094  3.7779 -0.3154 -3.4944
  117MOL0     H15745   7.552   8.587   5.096 -2.4459 -0.7721 -3.2442
  117MOL0     H15746   7.425   8.861   5.340  0.8039  0.8478  2.8225
  117MOL0     H15747   7.552   8.771   5.711 -0.9470  0.8588  0.4198
  117MOL0     H15748   7.606   8.886   5.592  1.6213 -1.8277  0.0104
  117MOL0     H15749   7.322   8.838   5.651  1.0334 -0.1323 -0.4247
  117MOL0     H15750   7.384   8.964   5.540 -0.5094  4.3691  1.0796
  117MOL0     H15751   7.463   9.098   5.709 -1.7980  2.1342  1.4015
  117MOL0     H15752   7.441   8.978   5.842  0.3862  1.5437  1.0794
  117MOL0     H15753   7.277   9.120   5.867 -2.3330  2.1586 -1.3640
  117MOL0     H15754   7.203   8.981   5.802  0.3317 -0.6006 -1.6458
  117MOL0     H15755   7.110   9.313   5.498  2.9808 -0.7145  1.4523
  117MOL0     H15756   6.911   9.405   5.398 -0.7006  1.0478 -1.1534
  117MOL0     H15757   6.771   9.418   5.503 -0.1540 -1.9709  3.7131
  117MOL0     H15758   6.886   9.558   5.476 -0.8535 -0.9700 -4.3765
  117MOL0     H15759   6.680   9.718   5.929 -0.8071 -0.2676  1.6909
  117MOL0     H15760   6.459   9.826   5.988  0.6252  0.4401 -0.4032
  117MOL0     H15761   6.039   9.721   5.892 -1.8352 -2.4553 -2.4081
  117MOL0     H15762   6.148   9.609   5.813  0.9798 -1.2448  0.8849
  117MOL0     H15763   6.297   9.598   6.006 -1.3415 -0.8720  0.0804
  117MOL0     H15764   6.198   9.716   6.093  1.1344  0.4157  0.7422
  117MOL0     H15765   5.997   9.584   6.055 -0.4904  0.9390  7.4496
  117MOL0     H15766   6.108   9.531   6.174 -0.3657 -1.3438 -0.4065
  117MOL0     H15767   6.016   9.345   5.987 -0.2648  0.1058 -0.3648
  117MOL0     H15768   6.116   9.418   5.882  1.4077  2.5874 -0.4091
  117MOL0     H15769   6.315   9.363   5.992  1.2375 -1.7361 -0.0043
  117MOL0     H15770   6.227   9.227   5.947  0.7311 -0.0029  0.6807
  117MOL0     H15771   6.280   9.330   6.225  1.9824  2.7161 -4.9057
  117MOL0     H15772   6.170   9.186   6.204 -1.6764  0.3454 -0.5151
  117MOL0     H15773   6.457   9.213   6.102  3.0022 -0.8629  2.4592
  117MOL0     H15774   6.356   9.095   6.047 -2.6789  0.7691 -0.3575
  117MOL0     H15775   6.313   9.027   6.319  0.9348 -4.4866 -0.0212
  117MOL0     H15776   6.455   9.134   6.336  1.4647  0.5487 -1.2452
  117MOL0     H15777   6.331   9.689   5.590  0.0601 -2.0558 -1.4314
  117MOL0     H15778   6.537   9.590   5.553 -1.3495  2.4948 -1.4422
  117MOL0     H15779   6.864   9.297   5.926 -5.2877 -1.0200 -4.3114
  117MOL0     H15780   7.063   9.144   5.890 -0.8114 -1.1458 -0.1630
  117MOL0     H15781   7.397   8.718   4.600  2.2920 -2.1264 -1.2549
  117MOL0     H15782   7.368   8.951   4.495  3.8843  0.1860  0.3280
  117MOL0     H15783   7.098   9.114   3.911  0.2657 -1.6351 -1.0891
  117MOL0     H15784   7.141   9.334   3.795  2.2995 -0.7323 -2.9850
  117MOL0     H15785   7.386   9.690   3.822 -0.2758 -2.1547 -2.9292
  117MOL0     H15786   7.407   9.621   3.996 -2.0253 -1.5538 -0.0810
  117MOL0     H15787   7.542   9.492   3.760  0.4563 -1.6198  0.6835
  117MOL0     H15788   7.545   9.455   3.933  0.8094 -0.4923 -1.3642
  117MOL0     H15789   7.673   9.678   3.968 -0.0944 -0.1927  0.1375
  117MOL0     H15790   7.674   9.705   3.790  1.5459  1.0880  1.2288
  117MOL0     H15791   7.889   9.611   3.841  0.7959  0.1135  1.9012
  117MOL0     H15792   7.787   9.485   3.776  0.8864  0.6344 -0.6068
  117MOL0     H15793   7.876   9.340   4.177 -0.4914 -0.7558  0.0847
  117MOL0     H15794   7.373   9.452   4.139 -2.4320 -0.3019  2.2832
  117MOL0     H15795   7.339   9.231   4.238  4.1259  1.6731 -0.5365
  118MOL0     O15796   6.526  10.057   6.082  0.5323 -0.8153 -0.0295
  118MOL0     C15797   6.526  10.140   5.987 -0.8935 -0.5169 -0.3031
  118MOL0     O15798   6.640  10.182   5.916  0.2557  0.0556  0.0821
  118MOL0     C15799   6.751  10.136   5.972  0.0856 -0.3074  1.2808
  118MOL0     C15800   6.833  10.212   6.055 -0.4131  0.5849 -0.5351
  118MOL0     C15801   6.966  10.169   6.087 -0.8283 -0.8458  0.0495
  118MOL0     C15802   7.011  10.042   6.055 -0.6934  0.1580  0.4813
  118MOL0     O15803   7.142   9.997   6.083  0.2027  0.3175 -0.2645
  118MOL0     C15804   7.236  10.079   6.153  0.0959  0.4430 -0.3295
  118MOL0     C15805   7.365  10.010   6.196  0.3497 -0.4589  0.3973
  118MOL0     C15806   7.426   9.933   6.074 -0.0575  0.3579 -0.2907
  118MOL0     C15807   7.546   9.846   6.117 -0.3623  0.0773  0.8335
  118MOL0     C15808   7.587   9.744   6.011  0.3559 -0.1138  0.6782
  118MOL0     C15809   7.636   9.804   5.882  0.1540 -0.4139 -0.1032
  118MOL0     C15810   7.711   9.700   5.793  0.8099 -0.0522  0.5064
  118MOL0     C15811   7.843   9.662   5.859 -0.0535 -0.0895  0.5600
  118MOL0     N15812   7.926   9.772   5.919 -0.6302  0.6147 -0.0799
  118MOL0     C15813   7.941   9.791   6.054 -0.9698 -0.6294  0.7079
  118MOL0     C15814   8.043   9.883   6.060 -0.0016 -0.0160 -0.4716
  118MOL0     C15815   8.088   9.947   6.194  0.0056  0.5452  0.7986
  118MOL0     C15816   7.998  10.052   6.258 -0.1070 -0.1430 -0.3984
  118MOL0     C15817   7.850  10.041   6.233  0.3218 -0.4363  0.4005
  118MOL0     C15818   7.763  10.147   6.281 -0.1809  0.2735 -0.0543
  118MOL0     O15819   7.802  10.169   6.414  0.6634 -0.6382 -0.0031
  118MOL0     C15820   7.736  10.153   6.530  0.5628  0.2774  0.6284
  118MOL0     C15821   7.797  10.189   6.651 -0.1791 -0.5529  0.0207
  118MOL0     C15822   7.735  10.189   6.778 -0.2161  0.3312 -0.3295
  118MOL0     C15823   7.805  10.262   6.890 -0.1992 -0.7707 -1.2333
  118MOL0     C15824   7.605  10.124   6.779  0.3753 -0.3292  0.5510
  118MOL0     C15825   7.537  10.090   6.910  0.4336  0.8298  0.1829
  118MOL0     O15826   7.412  10.015   6.898  0.1667  0.3816  0.7510
  118MOL0     C15827   7.310  10.024   6.990  0.3053 -0.2516 -0.9714
  118MOL0     C15828   7.307  10.113   7.103  0.1309 -1.0683 -0.3985
  118MOL0     C15829   7.195  10.122   7.187 -0.1832  0.3157  0.2603
  118MOL0     C15830   7.087  10.035   7.162 -0.6606  0.2785 -0.6930
  118MOL0     O15831   6.976  10.036   7.239 -1.0097  0.3915  0.3464
  118MOL0     C15832   7.003  10.070   7.375  0.1012 -0.1483  0.0055
  118MOL0     C15833   6.876  10.022   7.445  0.0546 -0.1882  0.2193
  118MOL0     C15834   6.884  10.026   7.593 -0.8414  0.1222 -0.7285
  118MOL0     C15835   6.937   9.892   7.652  1.0458  0.1175  0.0973
  118MOL0     C15836   6.820   9.793   7.635  0.1013  0.1181 -0.4442
  118MOL0     C15837   6.852   9.668   7.727 -0.0755  0.3599 -0.9998
  118MOL0     C15838   6.928   9.554   7.654 -0.4438 -0.8249 -0.5867
  118MOL0     C15839   6.988   9.452   7.755 -0.4616  0.1677 -0.1887
  118MOL0    Cl15840   7.036   9.318   7.643 -0.1434  0.4991 -0.1068
  118MOL0     C15841   7.094   9.933   7.069  0.0050  0.0836  0.4884
  118MOL0     C15842   7.207   9.934   6.979 -0.3312  0.0676  0.1749
  118MOL0     O15843   7.587  10.127   7.016 -0.8938 -1.2834  0.0143
  118MOL0     C15844   7.545  10.081   6.658 -0.1416  0.8056  0.2317
  118MOL0     C15845   7.612  10.096   6.534  1.0652  0.2695  0.1088
  118MOL0     N15846   8.093   9.914   5.942 -0.4325  0.6347 -1.2263
  118MOL0     N15847   8.024   9.850   5.854 -0.7373 -0.0921  0.4550
  118MOL0     C15848   6.929   9.958   5.979  0.1739 -0.9242 -0.3556
  118MOL0     C15849   6.801  10.018   5.932  0.8449  0.4663 -0.3034
  118MOL0     C15850   6.400  10.184   5.937 -0.7143  0.0257 -0.7509
  118MOL0     C15851   6.279  10.130   5.984 -0.8518  1.1433  0.0230
  118MOL0     C15852   6.148  10.166   5.937 -0.3740 -0.3692  0.4903
  118MOL0     C15853   6.147  10.270   5.842 -0.1769  0.1851  0.2015
  118MOL0     O15854   6.041  10.333   5.789  0.3293 -0.0117 -0.2480
  118MOL0     C15855   5.902  10.319   5.833  0.0170  0.6638 -1.3712
  118MOL0     C15856   5.831  10.190   5.766  0.9654  0.5811 -0.3169
  118MOL0     C15857   5.674  10.184   5.812 -0.2026 -0.8580  0.0707
  118MOL0     C15858   5.588  10.098   5.716  0.3276  0.8734 -0.2583
  118MOL0     C15859   5.630   9.956   5.722 -1.1672 -0.2471 -0.2022
  118MOL0     C15860   5.649   9.836   5.737  0.0455  0.7508  0.0141
  118MOL0     C15861   6.266  10.328   5.797  0.0413  0.0806 -0.1069
  118MOL0     C15862   6.388  10.280   5.838 -0.6647  0.7999  0.2684
  118MOL0     H15863   6.802  10.313   6.080  1.9956  0.9847  1.1233
  118MOL0     H15864   7.035  10.230   6.144 -0.8462  0.1144 -0.9330
  118MOL0     H15865   7.268  10.161   6.087 -0.0046  0.6367 -0.1395
  118MOL0     H15866   7.184  10.124   6.238 -3.4987 -0.1818 -2.0088
  118MOL0     H15867   7.437  10.084   6.232 -0.9661  2.3109 -2.2132
  118MOL0     H15868   7.340   9.934   6.271 -3.6444 -1.0757 -1.3294
  118MOL0     H15869   7.352   9.882   6.011 -0.1431  0.1684 -0.0410
  118MOL0     H15870   7.466  10.010   6.008 -1.4134  0.6359 -0.8308
  118MOL0     H15871   7.628   9.911   6.151  0.9607 -0.6140 -0.8896
  118MOL0     H15872   7.517   9.787   6.205 -0.1866  0.2978  1.0404
  118MOL0     H15873   7.670   9.687   6.054  1.5161  1.6278  0.8676
  118MOL0     H15874   7.500   9.682   5.986 -1.2652  1.9651  0.8497
  118MOL0     H15875   7.548   9.837   5.826 -0.0780 -2.8105 -1.2870
  118MOL0     H15876   7.694   9.890   5.916 -2.7340  1.0491  1.5352
  118MOL0     H15877   7.653   9.610   5.768  1.3767  0.1424 -1.6923
  118MOL0     H15878   7.735   9.737   5.693  2.3798 -1.9451  0.1285
  118MOL0     H15879   7.899   9.606   5.784  1.3825 -1.0039  2.2507
  118MOL0     H15880   7.830   9.598   5.947 -4.5767  0.1773  0.3338
  118MOL0     H15881   7.873   9.760   6.133 -0.1586  0.8509  2.0199
  118MOL0     H15882   8.107   9.869   6.268  0.0230 -1.6164 -1.3908
  118MOL0     H15883   8.187   9.992   6.188  0.9151 -1.1923  2.0781
  118MOL0     H15884   8.027  10.153   6.228 -0.7265  0.1685  0.0232
  118MOL0     H15885   8.017  10.040   6.365  2.9029  0.7259 -0.7413
  118MOL0     H15886   7.817   9.950   6.284  1.3801  0.0170  1.9696
  118MOL0     H15887   7.840  10.035   6.125  4.0666  0.2087 -0.1270
  118MOL0     H15888   7.658  10.122   6.262  0.2365 -1.3730 -0.3451
  118MOL0     H15889   7.786  10.243   6.233 -0.0545  1.1409  1.6705
  118MOL0     H15890   7.897  10.229   6.637 -0.7649  0.3319 -2.0139
  118MOL0     H15891   7.840  10.185   6.959  0.4328 -1.0112 -1.8104
  118MOL0     H15892   7.890  10.326   6.862  1.5742 -2.4461  0.0493
  118MOL0     H15893   7.734  10.328   6.942 -0.1616 -1.2633 -0.5446
  118MOL0     H15894   7.387  10.183   7.126 -2.0608  1.0912  1.1989
  118MOL0     H15895   7.195  10.197   7.265  2.0216 -0.9540  1.5921
  118MOL0     H15896   7.088  10.015   7.416  0.7373  2.0967  1.8875
  118MOL0     H15897   7.016  10.178   7.385  0.0387 -0.2667  1.7474
  118MOL0     H15898   6.797  10.093   7.417  0.8228  0.7050  0.2538
  118MOL0     H15899   6.850   9.920   7.413  0.3225 -0.8923  2.1413
  118MOL0     H15900   6.804  10.056   7.662  1.1238  0.6713  1.4737
  118MOL0     H15901   6.963  10.094   7.627 -2.8383  0.6318  3.6445
  118MOL0     H15902   7.025   9.850   7.602  0.6259 -0.5286 -0.1089
  118MOL0     H15903   6.962   9.917   7.755 -0.3673  0.8273  0.2842
  118MOL0     H15904   6.823   9.762   7.530 -2.5058 -2.5877  0.1332
  118MOL0     H15905   6.726   9.838   7.669 -0.5262 -0.5379 -1.2842
  118MOL0     H15906   6.903   9.699   7.819 -1.9482  1.0832 -0.1587
  118MOL0     H15907   6.759   9.631   7.771  0.3412 -0.9443 -1.1675
  118MOL0     H15908   7.016   9.581   7.595  2.7806 -3.5945  2.5100
  118MOL0     H15909   6.855   9.498   7.595 -2.8637  0.1704  1.2800
  118MOL0     H15910   6.912   9.407   7.820  1.2595 -2.7386 -0.0230
  118MOL0     H15911   7.070   9.492   7.815 -2.4574  2.3929  1.2616
  118MOL0     H15912   7.015   9.859   7.065 -0.2422  0.3880 -0.8206
  118MOL0     H15913   7.216   9.860   6.901  1.2527 -0.0910  0.4726
  118MOL0     H15914   7.446  10.041   6.639 -0.2202  0.7470  0.7427
  118MOL0     H15915   7.558  10.077   6.442 -0.4498  3.0057  0.3234
  118MOL0     H15916   6.956   9.859   5.942 -0.9153 -1.8699  1.2345
  118MOL0     H15917   6.739   9.951   5.874  1.1995 -0.4851  0.3949
  118MOL0     H15918   6.276  10.055   6.062  0.0435 -0.5856 -1.5342
  118MOL0     H15919   6.048  10.129   5.960 -1.3813  0.9427 -1.5538
  118MOL0     H15920   5.893  10.314   5.942 -2.5301  1.8920 -1.4397
  118MOL0     H15921   5.849  10.411   5.804 -2.8774 -0.2085  0.7890
  118MOL0     H15922   5.880  10.098   5.796 -0.8489 -0.3157  0.0293
  118MOL0     H15923   5.831  10.195   5.657  0.4053 -0.1979 -0.3580
  118MOL0     H15924   5.642  10.287   5.792 -0.9418 -0.9477  0.7902
  118MOL0     H15925   5.662  10.166   5.919  3.2576 -0.8840  0.5799
  118MOL0     H15926   5.595  10.143   5.616 -3.3666  1.7878 -0.2537
  118MOL0     H15927   5.486  10.119   5.748  0.6141  1.1116  0.5203
  118MOL0     H15928   5.672   9.732   5.737  1.1548  0.9825 -0.5364
  118MOL0     H15929   6.265  10.397   5.714  1.2833  0.8812  0.4981
  118MOL0     H15930   6.475  10.327   5.793  1.0621 -2.2525  0.1684
  119MOL0     O15931   3.522   4.212   1.868 -0.1479  0.1846 -0.2557
  119MOL0     C15932   3.399   4.209   1.863 -1.3839 -0.4518 -1.0659
  119MOL0     O15933   3.305   4.293   1.924 -0.0726  0.3190 -0.1169
  119MOL0     C15934   3.342   4.416   1.968  0.3126  0.4756 -0.4759
  119MOL0     C15935   3.444   4.484   1.915 -0.9461  0.4076 -0.4974
  119MOL0     C15936   3.493   4.599   1.980 -1.7356  0.3477 -0.2180
  119MOL0     C15937   3.432   4.647   2.101 -0.5970  0.8466  0.4488
  119MOL0     O15938   3.468   4.760   2.171  0.0171  0.3805  0.0092
  119MOL0     C15939   3.559   4.860   2.119  0.6131 -0.1104  0.2796
  119MOL0     C15940   3.600   4.944   2.239  0.0541 -0.0307  0.2755
  119MOL0     C15941   3.485   5.022   2.303  0.4520 -0.2841 -1.1511
  119MOL0     C15942   3.424   5.119   2.203  0.2393  0.1589  0.2254
  119MOL0     C15943   3.508   5.247   2.174 -0.1082 -0.7471 -0.1778
  119MOL0     C15944   3.521   5.343   2.297  0.3078 -0.1187  0.0415
  119MOL0     C15945   3.569   5.485   2.269 -0.3690 -0.0814  0.2950
  119MOL0     C15946   3.724   5.493   2.240 -0.2515  0.0877  0.2605
  119MOL0     N15947   3.809   5.412   2.332 -0.5764  1.0621  0.0836
  119MOL0     C15948   3.814   5.419   2.465  0.3456  0.1565  0.0238
  119MOL0     C15949   3.906   5.324   2.500 -0.7316 -0.6574 -0.7603
  119MOL0     C15950   3.933   5.276   2.640 -1.3366  0.1872 -0.6557
  119MOL0     C15951   4.073   5.338   2.687  0.0377  0.2785 -0.5113
  119MOL0     C15952   4.084   5.490   2.705 -0.2590  0.8262  0.3864
  119MOL0     C15953   4.231   5.521   2.745 -0.1893 -0.1353  0.8888
  119MOL0     O15954   4.313   5.537   2.628 -0.2748  0.0242  0.2825
  119MOL0     C15955   4.450   5.558   2.645  0.0942 -0.0660  0.1132
  119MOL0     C15956   4.515   5.583   2.770  0.3588 -0.2454 -0.1811
  119MOL0     C15957   4.653   5.619   2.759  0.6390  0.9005 -0.0769
  119MOL0     C15958   4.714   5.639   2.896  0.6416  0.3052  0.4033
  119MOL0     C15959   4.732   5.599   2.645  0.5173  0.3598 -0.1985
  119MOL0     C15960   4.880   5.600   2.643 -0.4900  0.3723 -1.5273
  119MOL0     O15961   4.952   5.534   2.540  0.3749 -0.1555  0.7918
  119MOL0     C15962   5.084   5.564   2.531  0.5774  0.0736 -0.7738
  119MOL0     C15963   5.125   5.690   2.475 -0.9069 -0.0868 -0.8825
  119MOL0     C15964   5.263   5.720   2.475  0.2891 -0.1532  1.1455
  119MOL0     C15965   5.355   5.636   2.545  0.2074 -0.2720 -0.0933
  119MOL0     O15966   5.489   5.660   2.551  0.3167  0.6373 -0.1603
  119MOL0     C15967   5.575   5.575   2.480  0.1972 -0.6175 -1.1249
  119MOL0     C15968   5.715   5.613   2.514  0.4331 -0.6516  0.0397
  119MOL0     C15969   5.812   5.530   2.425 -0.4448  1.1584 -0.6887
  119MOL0     C15970   5.962   5.535   2.483  0.0984  0.4047  0.1963
  119MOL0     C15971   6.057   5.486   2.376  0.2977  0.7288 -0.7781
  119MOL0     C15972   6.179   5.439   2.450  0.3727  0.0648 -0.1096
  119MOL0     C15973   6.292   5.425   2.344 -0.2608 -0.0056  0.6159
  119MOL0     C15974   6.424   5.369   2.413  0.3798 -0.5542 -0.0349
  119MOL0    Cl15975   6.558   5.341   2.306 -0.0189  0.1928 -0.1203
  119MOL0     C15976   5.311   5.516   2.598  0.3359  0.7512  0.1607
  119MOL0     C15977   5.179   5.475   2.592  0.1193 -0.5573  0.1288
  119MOL0     O15978   4.938   5.667   2.739  0.1251  0.5104  0.2406
  119MOL0     C15979   4.662   5.577   2.522  0.2624  0.0575  1.2311
  119MOL0     C15980   4.520   5.538   2.529 -0.5308 -0.3789  0.5713
  119MOL0     N15981   3.952   5.270   2.385  0.1377 -0.1926 -1.1239
  119MOL0     N15982   3.898   5.319   2.287  0.3645 -0.5340  0.1384
  119MOL0     C15983   3.322   4.575   2.142 -0.5542 -0.1221 -0.5585
  119MOL0     C15984   3.277   4.460   2.079 -0.3886  0.5543  0.3651
  119MOL0     C15985   3.342   4.085   1.799  0.3923  0.1110  0.4787
  119MOL0     C15986   3.202   4.061   1.812 -0.6158 -0.5673 -0.1773
  119MOL0     C15987   3.133   3.943   1.766  0.2432 -0.4682  0.4293
  119MOL0     C15988   3.213   3.851   1.707 -0.5167  0.2940  1.0809
  119MOL0     O15989   3.161   3.729   1.660  0.0752  0.2838  1.0944
  119MOL0     C15990   3.028   3.689   1.686  0.2446  0.3153 -1.0295
  119MOL0     C15991   3.014   3.545   1.638  0.2053  0.0788 -0.4536
  119MOL0     C15992   3.041   3.522   1.488 -0.3558 -0.9866 -0.3766
  119MOL0     C15993   3.016   3.374   1.433 -1.0520 -1.0295  0.0291
  119MOL0     C15994   2.878   3.332   1.457 -1.3294 -0.9617 -1.2865
  119MOL0     C15995   2.766   3.308   1.500 -0.5385  0.2911 -0.1041
  119MOL0     C15996   3.344   3.876   1.682 -0.4513 -0.0306 -0.0175
  119MOL0     C15997   3.408   3.987   1.728  0.5413 -0.0254 -0.7177
  119MOL0     H15998   3.506   4.456   1.830  1.6970 -1.1365  1.7656
  119MOL0     H15999   3.582   4.643   1.934 -0.1198 -0.9947  1.4746
  119MOL0     H16000   3.644   4.804   2.082 -0.0379 -0.3244 -0.9389
  119MOL0     H16001   3.518   4.921   2.038 -1.9873  1.1050  2.3520
  119MOL0     H16002   3.639   4.871   2.311  0.0483  1.3398  1.7302
  119MOL0     H16003   3.686   5.005   2.209 -0.5151  0.6213 -0.0557
  119MOL0     H16004   3.403   4.958   2.337  1.1652 -0.1060  1.0042
  119MOL0     H16005   3.517   5.077   2.391 -2.6214  0.8602 -0.6139
  119MOL0     H16006   3.424   5.073   2.103  3.0601 -1.2229  0.7690
  119MOL0     H16007   3.322   5.147   2.232 -0.2704 -0.9267 -0.4357
  119MOL0     H16008   3.611   5.228   2.143  1.0710 -0.0603  2.9389
  119MOL0     H16009   3.455   5.311   2.103  0.2655 -1.4294 -1.0918
  119MOL0     H16010   3.415   5.352   2.324  0.6986 -2.7816  3.0399
  119MOL0     H16011   3.563   5.287   2.381 -2.3551 -1.5533  0.5284
  119MOL0     H16012   3.506   5.529   2.192 -0.4862  1.5883  1.2983
  119MOL0     H16013   3.553   5.551   2.355 -0.9763  2.8240 -1.9006
  119MOL0     H16014   3.740   5.598   2.265 -1.8915  0.1240  1.3171
  119MOL0     H16015   3.758   5.469   2.139  3.3627 -1.6870  1.6902
  119MOL0     H16016   3.752   5.478   2.532  0.5383  3.5643 -2.5301
  119MOL0     H16017   3.856   5.310   2.709 -0.8415  0.8341 -0.4069
  119MOL0     H16018   3.943   5.168   2.655 -0.7394  0.3736  0.3786
  119MOL0     H16019   4.156   5.312   2.620  2.6671  2.5780  1.6272
  119MOL0     H16020   4.099   5.287   2.780  0.1636  1.0024 -0.1437
  119MOL0     H16021   4.015   5.525   2.783 -1.7625  0.3787 -0.6794
  119MOL0     H16022   4.068   5.537   2.607  1.2464 -0.0551 -0.3153
  119MOL0     H16023   4.271   5.439   2.805 -0.2439 -1.4308 -0.7568
  119MOL0     H16024   4.226   5.613   2.803 -5.1739 -1.2357  2.7724
  119MOL0     H16025   4.465   5.602   2.865 -1.5590  2.8272 -1.6654
  119MOL0     H16026   4.798   5.576   2.923 -1.0324 -1.0255  2.8933
  119MOL0     H16027   4.744   5.742   2.918 -1.1429  0.9161  0.1855
  119MOL0     H16028   4.644   5.609   2.975  2.0425 -0.1265  1.5170
  119MOL0     H16029   5.045   5.760   2.453 -1.9709 -1.1384 -0.4499
  119MOL0     H16030   5.295   5.814   2.432  2.9405 -0.1570  2.9193
  119MOL0     H16031   5.567   5.468   2.499  1.3438 -0.4093  0.6928
  119MOL0     H16032   5.561   5.595   2.373  0.9530  0.0002 -1.1106
  119MOL0     H16033   5.742   5.716   2.492  2.4719 -1.3031 -0.6697
  119MOL0     H16034   5.724   5.590   2.621  1.4796 -2.4771 -0.4060
  119MOL0     H16035   5.809   5.577   2.327  2.0220  1.9168 -0.4683
  119MOL0     H16036   5.787   5.424   2.419 -2.2752  1.5426 -0.6644
  119MOL0     H16037   5.999   5.632   2.517  1.1163 -0.0100  0.3358
  119MOL0     H16038   5.962   5.465   2.568  0.0108 -2.2114 -1.8363
  119MOL0     H16039   6.074   5.564   2.301  0.8577  0.8705 -0.5078
  119MOL0     H16040   6.020   5.395   2.327 -1.8789  1.1811 -0.0648
  119MOL0     H16041   6.211   5.521   2.515  1.6798 -1.0891  0.7641
  119MOL0     H16042   6.172   5.356   2.520 -1.5571 -0.2298 -0.5973
  119MOL0     H16043   6.305   5.523   2.296 -1.5855  0.0454  0.3289
  119MOL0     H16044   6.266   5.356   2.263 -0.8049  0.9373 -0.0336
  119MOL0     H16045   6.401   5.284   2.478 -2.4247  0.6694  0.7399
  119MOL0     H16046   6.446   5.457   2.475  0.3793 -0.7256  0.2069
  119MOL0     H16047   5.382   5.451   2.647  1.7862  2.7422  0.8536
  119MOL0     H16048   5.168   5.372   2.627  2.0319 -0.9524 -0.3128
  119MOL0     H16049   4.718   5.571   2.429  0.9657 -4.9317  1.6914
  119MOL0     H16050   4.468   5.507   2.439 -1.4859  1.3349  0.4951
  119MOL0     H16051   3.254   4.605   2.222 -1.7813  1.1384 -2.0179
  119MOL0     H16052   3.193   4.404   2.120 -0.1324 -0.2875 -0.2282
  119MOL0     H16053   3.139   4.141   1.848  0.7545  0.6648 -0.4335
  119MOL0     H16054   3.026   3.934   1.787 -0.2790  4.6036  1.0168
  119MOL0     H16055   2.999   3.695   1.792  0.1189 -1.6170 -0.9149
  119MOL0     H16056   2.962   3.763   1.640 -0.6908  1.8408  2.4215
  119MOL0     H16057   2.916   3.517   1.678  1.9494  1.0521  5.4928
  119MOL0     H16058   3.089   3.486   1.691 -2.4206 -2.1888  0.9646
  119MOL0     H16059   3.144   3.555   1.468 -0.2254 -1.1679 -0.0152
  119MOL0     H16060   2.971   3.585   1.432  0.8129  1.7935  1.0735
  119MOL0     H16061   3.096   3.312   1.475  1.8674  2.0957 -0.4062
  119MOL0     H16062   3.031   3.365   1.325  0.9846 -1.1206  0.2739
  119MOL0     H16063   2.673   3.277   1.543 -0.3644 -0.5250 -0.2986
  119MOL0     H16064   3.403   3.795   1.639 -2.4887 -0.0370 -3.1005
  119MOL0     H16065   3.511   4.016   1.711  1.1627 -2.7287 -2.0841
  120MOL0     O16066   1.119  10.714   7.074 -0.4363  0.1646 -0.3992
  120MOL0     C16067   1.235  10.713   7.025 -0.8112  0.4637 -0.9053
  120MOL0     O16068   1.316  10.818   7.020  0.0687 -0.1511  0.0369
  120MOL0     C16069   1.286  10.935   7.091  0.0257  0.1404 -0.0696
  120MOL0     C16070   1.165  10.987   7.141  0.0263  0.0609 -0.1939
  120MOL0     C16071   1.157  11.106   7.217 -0.2879 -0.3706 -0.8116
  120MOL0     C16072   1.272  11.176   7.247 -0.4883 -0.0244  0.3352
  120MOL0     O16073   1.253  11.286   7.315 -0.1472  0.1961 -0.1799
  120MOL0     C16074   1.336  11.394   7.276  0.2719 -0.1469  0.1655
  120MOL0     C16075   1.293  11.518   7.350  0.6049  0.7616  0.2373
  120MOL0     C16076   1.146  11.561   7.309 -1.2926 -0.8217  0.1922
  120MOL0     C16077   1.103  11.677   7.395  0.6379  0.2512  0.6869
  120MOL0     C16078   0.975  11.741   7.331  0.2759 -0.4584 -0.5230
  120MOL0     C16079   0.855  11.645   7.302  0.6253 -0.2134  0.5402
  120MOL0     C16080   0.793  11.584   7.433 -0.2532  0.1542  0.0970
  120MOL0     C16081   0.660  11.521   7.399  0.1903 -0.8396  0.1100
  120MOL0     N16082   0.551  11.616   7.412  0.3980 -0.7409  0.3060
  120MOL0     C16083   0.441  11.612   7.491  0.3557 -0.2711  1.1854
  120MOL0     C16084   0.364  11.717   7.456  0.5365 -0.3541  0.5151
  120MOL0     C16085   0.236  11.770   7.510  0.5156  0.7698 -0.3104
  120MOL0     C16086   0.136  11.812   7.399 -0.2522  0.2359 -0.7533
  120MOL0     C16087   0.100  11.701   7.294  0.7765 -0.1039  0.9117
  120MOL0     C16088  -0.037  11.728   7.229 -0.6053  0.0467 -0.1671
  120MOL0     O16089  -0.141  11.694   7.318  0.2664 -0.0799  0.1263
  120MOL0     C16090  -0.271  11.710   7.279 -0.5490 -0.2286  0.1522
  120MOL0     C16091  -0.322  11.703   7.148  0.2185 -0.5386 -0.8073
  120MOL0     C16092  -0.462  11.714   7.121  0.4314  1.2937  0.9296
  120MOL0     C16093  -0.491  11.718   6.966  0.2089  0.0708  0.2540
  120MOL0     C16094  -0.556  11.733   7.230 -0.8909  0.1230  0.0294
  120MOL0     C16095  -0.694  11.758   7.209  0.3944 -0.1019  0.2451
  120MOL0     O16096  -0.745  11.690   7.100  0.6621  0.1808  0.7372
  120MOL0     C16097  -0.880  11.717   7.075 -0.3985 -0.2388  0.4886
  120MOL0     C16098  -0.989  11.673   7.151  0.4369  0.5831  1.6032
  120MOL0     C16099  -1.119  11.697   7.105  0.3604 -0.7145 -0.2170
  120MOL0     C16100  -1.149  11.763   6.986 -0.9553 -0.1771 -0.5405
  120MOL0     O16101  -1.279  11.754   6.940 -0.1909  0.0992 -0.7438
  120MOL0     C16102  -1.352  11.872   6.897  0.3585 -0.5425 -0.7470
  120MOL0     C16103  -1.401  11.940   7.024 -0.0757  0.2245 -0.3244
  120MOL0     C16104  -1.535  11.875   7.067 -0.5598 -0.7507 -0.2566
  120MOL0     C16105  -1.561  11.873   7.224 -0.9827  0.5750 -0.1026
  120MOL0     C16106  -1.692  11.800   7.255  0.5378  1.5894  0.1255
  120MOL0     C16107  -1.717  11.766   7.406  0.1493 -0.2728 -0.5886
  120MOL0     C16108  -1.817  11.652   7.419 -0.3415 -0.4091 -0.1818
  120MOL0     C16109  -1.808  11.573   7.559 -0.4240  1.0248  0.5975
  120MOL0    Cl16110  -1.862  11.688   7.694  0.0661 -0.0778  0.0341
  120MOL0     C16111  -1.043  11.836   6.931  0.6748  0.3538  0.4037
  120MOL0     C16112  -0.910  11.816   6.971  0.2032 -0.0370  0.4244
  120MOL0     O16113  -0.758  11.841   7.277  0.1090 -0.6870  0.0736
  120MOL0     C16114  -0.500  11.753   7.356 -0.1502 -0.7072  0.5796
  120MOL0     C16115  -0.362  11.737   7.377  0.6535  0.5790  0.4535
  120MOL0     N16116   0.434  11.797   7.369 -0.4039  0.0145  0.5276
  120MOL0     N16117   0.553  11.735   7.351 -0.1430 -0.2703  0.7224
  120MOL0     C16118   1.392  11.132   7.190  0.0746 -0.2476  0.6352
  120MOL0     C16119   1.396  11.018   7.109 -1.1290  0.3703  0.4732
  120MOL0     C16120   1.284  10.584   6.965 -0.1961 -0.2519 -0.6013
  120MOL0     C16121   1.410  10.580   6.911 -0.6231 -0.0171 -0.5621
  120MOL0     C16122   1.468  10.459   6.869 -0.2134 -0.1309 -0.0992
  120MOL0     C16123   1.392  10.340   6.869  0.2244 -0.8833 -0.0610
  120MOL0     O16124   1.431  10.214   6.828 -0.0754 -0.1718 -0.0894
  120MOL0     C16125   1.568  10.193   6.786  0.8558  0.3324 -1.0791
  120MOL0     C16126   1.600  10.229   6.642 -0.8276  0.0497 -0.3837
  120MOL0     C16127   1.529  10.145   6.538 -0.1550  0.5383  1.3449
  120MOL0     C16128   1.607  10.142   6.404 -0.0419  0.1322 -0.7267
  120MOL0     C16129   1.529  10.075   6.310  0.1737 -0.3748 -0.6113
  120MOL0     C16130   1.450  10.029   6.238 -0.0135  0.2051 -0.5374
  120MOL0     C16131   1.271  10.347   6.941  0.3615 -0.8739 -0.6394
  120MOL0     C16132   1.228  10.466   6.987  0.1873 -0.1508 -0.3821
  120MOL0     H16133   1.068  10.947   7.113  0.5617 -1.7818  0.4835
  120MOL0     H16134   1.058  11.132   7.254  0.0303 -1.3207  0.7610
  120MOL0     H16135   1.437  11.365   7.305  0.8855  1.9846  0.2834
  120MOL0     H16136   1.343  11.421   7.170  2.2053  0.3793  0.3864
  120MOL0     H16137   1.312  11.499   7.456  3.0541 -0.9783 -0.4308
  120MOL0     H16138   1.343  11.613   7.329 -4.7013  3.0821 -5.0371
  120MOL0     H16139   1.148  11.595   7.205 -1.4471  1.3298  0.8532
  120MOL0     H16140   1.072  11.481   7.303 -1.1022 -0.9035 -1.6769
  120MOL0     H16141   1.073  11.624   7.486 -1.3123 -1.3153 -0.7644
  120MOL0     H16142   1.181  11.752   7.411 -0.6975  2.5408 -2.4786
  120MOL0     H16143   0.948  11.813   7.409  0.6861 -1.5252  0.6341
  120MOL0     H16144   1.009  11.807   7.250 -1.8722  1.3298 -0.0611
  120MOL0     H16145   0.777  11.708   7.258 -2.9853 -3.8153  1.2546
  120MOL0     H16146   0.886  11.569   7.230 -2.4851 -2.1066  1.0250
  120MOL0     H16147   0.862  11.509   7.472 -0.3307 -1.1596 -2.0915
  120MOL0     H16148   0.788  11.657   7.515 -4.3897  0.9782 -0.6439
  120MOL0     H16149   0.639  11.432   7.459 -1.7333 -0.0489  0.6803
  120MOL0     H16150   0.659  11.491   7.294 -2.4337 -0.0678 -0.1420
  120MOL0     H16151   0.411  11.538   7.564 -0.8878  0.0476  1.0319
  120MOL0     H16152   0.175  11.689   7.550  1.3427  0.0244 -0.5244
  120MOL0     H16153   0.252  11.846   7.587 -0.4370 -1.4201  2.1877
  120MOL0     H16154   0.166  11.909   7.357  0.9470  1.2197  2.1206
  120MOL0     H16155   0.046  11.839   7.455  1.6887 -0.1031  2.8113
  120MOL0     H16156   0.089  11.611   7.356 -3.7893  0.6120  1.5052
  120MOL0     H16157   0.185  11.693   7.227  0.8835  3.0939  0.5137
  120MOL0     H16158  -0.038  11.670   7.136 -2.1776  2.9845 -2.1397
  120MOL0     H16159  -0.047  11.835   7.206 -2.8453  0.0355  0.4989
  120MOL0     H16160  -0.248  11.710   7.068  0.5360 -0.9024 -0.5439
  120MOL0     H16161  -0.551  11.633   6.931 -0.3964  0.8152 -0.5694
  120MOL0     H16162  -0.549  11.811   6.958  0.7726  0.4228  0.2354
  120MOL0     H16163  -0.401  11.725   6.905 -1.0206  1.7335 -1.4998
  120MOL0     H16164  -0.959  11.622   7.242  3.4397 -0.1687  0.3106
  120MOL0     H16165  -1.207  11.658   7.155 -0.1947  0.8921  0.1204
  120MOL0     H16166  -1.275  11.936   6.852  0.5305 -0.3667 -0.2113
  120MOL0     H16167  -1.433  11.860   6.825 -0.1525 -2.9371  0.1279
  120MOL0     H16168  -1.334  11.922   7.108 -0.5660  0.4168  0.1098
  120MOL0     H16169  -1.439  12.043   7.026 -1.4723 -0.2621  1.7545
  120MOL0     H16170  -1.536  11.772   7.030 -0.4847 -0.5859 -0.7204
  120MOL0     H16171  -1.616  11.931   7.019  1.0145 -0.5501 -2.8520
  120MOL0     H16172  -1.485  11.824   7.285 -1.1906  2.5599  1.8777
  120MOL0     H16173  -1.580  11.973   7.265  3.6048  0.9663  1.6024
  120MOL0     H16174  -1.683  11.715   7.186  3.4177  1.1671  0.9195
  120MOL0     H16175  -1.780  11.856   7.222 -0.1945 -0.6785 -2.1383
  120MOL0     H16176  -1.630  11.724   7.457 -1.7650 -2.3519  1.1773
  120MOL0     H16177  -1.738  11.858   7.461 -0.3015  0.1600 -1.4652
  120MOL0     H16178  -1.802  11.579   7.338 -0.8305 -0.7977  0.0728
  120MOL0     H16179  -1.918  11.685   7.395  0.4020  0.7525 -1.9291
  120MOL0     H16180  -1.710  11.530   7.582  0.3954  0.5654 -3.1184
  120MOL0     H16181  -1.871  11.485   7.545  0.4294  0.7352 -2.0739
  120MOL0     H16182  -1.066  11.894   6.842 -2.7539  1.1121  1.5983
  120MOL0     H16183  -0.823  11.858   6.921  0.1008  1.1371  1.2058
  120MOL0     H16184  -0.565  11.780   7.438 -0.3657  1.1239 -0.1457
  120MOL0     H16185  -0.306  11.744   7.470  3.7408 -3.1613 -0.8622
  120MOL0     H16186   1.486  11.182   7.212  1.0301 -0.6843 -2.0904
  120MOL0     H16187   1.492  10.987   7.069 -2.3703 -1.3687 -1.3129
  120MOL0     H16188   1.458  10.677   6.914  0.8095 -0.6963 -0.6803
  120MOL0     H16189   1.570  10.463   6.833  0.0659  1.2979  0.7779
  120MOL0     H16190   1.631  10.255   6.851  3.1314 -0.6989 -2.1681
  120MOL0     H16191   1.585  10.086   6.799 -0.9308  0.0926 -0.5033
  120MOL0     H16192   1.709  10.221   6.634 -0.7817  1.2121 -1.0978
  120MOL0     H16193   1.577  10.335   6.626  1.0765  0.7093  0.8969
  120MOL0     H16194   1.427  10.182   6.528  0.2423  2.0697  2.5767
  120MOL0     H16195   1.527  10.038   6.559 -0.2259  0.2204 -0.1359
  120MOL0     H16196   1.696  10.084   6.430  0.9494  1.2077 -1.6390
  120MOL0     H16197   1.638  10.238   6.363  0.4435 -0.2311 -1.2225
  120MOL0     H16198   1.385   9.975   6.172 -0.7211 -2.0507  1.8560
  120MOL0     H16199   1.209  10.258   6.941 -1.1434  0.1320 -1.6661
  120MOL0     H16200   1.138  10.455   7.047  0.4205  3.4683  0.8715
  121MOL0     O16201  10.514   1.251   1.439 -0.1025  0.2172  0.1720
  121MOL0     C16202  10.419   1.329   1.450 -0.2034  0.6575 -0.2258
  121MOL0     O16203  10.289   1.293   1.449  0.4238 -0.3245  0.0460
  121MOL0     C16204  10.253   1.164   1.407 -0.6606  0.7938  0.5895
  121MOL0     C16205  10.141   1.114   1.469 -0.5971  0.3814  0.0840
  121MOL0     C16206  10.088   0.991   1.436 -0.0661 -0.2250  0.3106
  121MOL0     C16207  10.141   0.913   1.334 -0.3385  1.1903  1.0193
  121MOL0     O16208  10.079   0.792   1.302  0.5693 -0.4497  0.6855
  121MOL0     C16209  10.171   0.686   1.302 -0.1371  0.8378 -0.0620
  121MOL0     C16210  10.111   0.553   1.343  0.3701  0.0860 -0.1285
  121MOL0     C16211   9.969   0.521   1.285  0.1275 -0.0721  0.1592
  121MOL0     C16212   9.940   0.377   1.289  0.2480  0.4310  0.5979
  121MOL0     C16213   9.817   0.348   1.200  0.6047 -0.5259  0.3163
  121MOL0     C16214   9.759   0.221   1.248  0.4711  0.0235  0.1218
  121MOL0     C16215   9.631   0.175   1.165 -0.4547 -0.0534 -0.0208
  121MOL0     C16216   9.502   0.205   1.232  0.0374  0.2172 -0.1321
  121MOL0     N16217   9.396   0.239   1.138 -0.0264 -0.6062  0.4078
  121MOL0     C16218   9.392   0.360   1.069  0.1815  0.0066  0.6998
  121MOL0     C16219   9.274   0.348   0.998  0.0944 -0.1371 -0.6073
  121MOL0     C16220   9.234   0.432   0.882  0.1348  0.4145  0.1047
  121MOL0     C16221   9.086   0.472   0.886  0.2346 -0.0666  0.7200
  121MOL0     C16222   9.039   0.468   0.736 -0.5994  1.2891  0.3957
  121MOL0     C16223   9.008   0.323   0.692  0.4824 -0.7062 -0.6339
  121MOL0     O16224   9.005   0.326   0.555  0.0860  0.0886  0.1616
  121MOL0     C16225   8.894   0.378   0.501  0.5696 -1.0130  0.9830
  121MOL0     C16226   8.785   0.294   0.492 -1.9416  0.3970 -0.2297
  121MOL0     C16227   8.657   0.326   0.448  0.3927 -0.2595  0.7848
  121MOL0     C16228   8.547   0.223   0.427 -0.6906  0.3797 -0.2121
  121MOL0     C16229   8.649   0.465   0.399  0.5472 -0.5205 -0.3668
  121MOL0     C16230   8.515   0.528   0.355 -0.7900 -0.2033  0.5672
  121MOL0     O16231   8.399   0.492   0.420  0.4026 -0.2851 -0.6877
  121MOL0     C16232   8.276   0.532   0.385  0.6771 -0.3362 -0.5244
  121MOL0     C16233   8.179   0.536   0.486  0.1842 -0.7210 -0.1525
  121MOL0     C16234   8.052   0.554   0.451 -0.2680 -0.1968 -0.3956
  121MOL0     C16235   8.007   0.591   0.323 -0.8144  0.5387  1.0340
  121MOL0     O16236   7.882   0.636   0.320 -0.0519  0.1414  0.2980
  121MOL0     C16237   7.804   0.592   0.205  0.1229  0.4803 -1.0695
  121MOL0     C16238   7.656   0.624   0.229  0.1813  0.1079  0.0647
  121MOL0     C16239   7.565   0.597   0.107  0.0769 -0.3674 -0.9190
  121MOL0     C16240   7.421   0.637   0.126 -0.3833 -0.5406 -0.2558
  121MOL0     C16241   7.357   0.664  -0.015 -0.9737 -0.3081 -0.3331
  121MOL0     C16242   7.207   0.703   0.011 -0.2655 -0.1559 -0.5659
  121MOL0     C16243   7.139   0.730  -0.123  0.0593  0.0703 -0.0015
  121MOL0     C16244   7.100   0.879  -0.127 -0.1294  1.4471 -0.5955
  121MOL0    Cl16245   7.255   0.978  -0.133 -0.0844 -0.3466  0.0261
  121MOL0     C16246   8.105   0.595   0.224  0.2792  0.3600 -0.5925
  121MOL0     C16247   8.231   0.553   0.250 -0.1938 -0.0834 -0.0612
  121MOL0     O16248   8.524   0.611   0.262 -0.5161  0.2773 -0.1792
  121MOL0     C16249   8.757   0.551   0.398  0.4277  0.8607 -0.2384
  121MOL0     C16250   8.881   0.512   0.454  0.2505 -0.7565 -0.3614
  121MOL0     N16251   9.215   0.222   1.030 -0.1162 -0.6141 -0.8452
  121MOL0     N16252   9.288   0.161   1.115 -0.8378 -0.4165  0.1254
  121MOL0     C16253  10.256   0.965   1.273 -0.3010  0.4759  0.2726
  121MOL0     C16254  10.315   1.090   1.302  0.1929  1.6648 -0.0060
  121MOL0     C16255  10.445   1.465   1.488 -0.0546 -0.6369 -0.3153
  121MOL0     C16256  10.340   1.557   1.488  0.1740 -0.3803 -0.1003
  121MOL0     C16257  10.373   1.690   1.512  0.7835  0.2441  0.3708
  121MOL0     C16258  10.504   1.736   1.533 -0.5035  0.3206  0.7332
  121MOL0     O16259  10.516   1.865   1.574 -0.3054 -0.2086 -0.0169
  121MOL0     C16260  10.645   1.930   1.585 -0.3593  0.2916 -0.1637
  121MOL0     C16261  10.621   2.076   1.619 -0.4200  0.1176 -0.1389
  121MOL0     C16262  10.763   2.148   1.634 -0.1465  0.2543  0.0007
  121MOL0     C16263  10.852   2.110   1.759 -0.5401 -0.6765 -0.0889
  121MOL0     C16264  10.987   2.168   1.748  0.1619 -0.0017  0.0745
  121MOL0     C16265  11.097   2.211   1.748  0.3112 -0.2064  0.7549
  121MOL0     C16266  10.608   1.649   1.507 -0.1425 -0.7609 -0.0510
  121MOL0     C16267  10.579   1.514   1.488 -0.5190 -1.2422 -0.4919
  121MOL0     H16268  10.090   1.185   1.534 -0.8328 -0.5371  0.9216
  121MOL0     H16269   9.992   0.956   1.472 -0.3476 -0.8965 -1.0109
  121MOL0     H16270  10.195   0.678   1.195 -1.6844  1.5011 -0.4837
  121MOL0     H16271  10.263   0.711   1.356  0.6893 -2.5657  0.3447
  121MOL0     H16272  10.188   0.487   1.300  0.4323  1.7679 -2.8712
  121MOL0     H16273  10.107   0.551   1.452  1.7081 -1.0994 -0.0687
  121MOL0     H16274   9.891   0.576   1.338 -1.2611  0.5351 -2.3422
  121MOL0     H16275   9.972   0.547   1.179 -0.2935 -0.1431  0.1291
  121MOL0     H16276  10.020   0.324   1.237 -2.0525 -0.4839 -2.2826
  121MOL0     H16277   9.923   0.354   1.394  0.4145 -0.4091  0.4457
  121MOL0     H16278   9.745   0.429   1.217 -1.5842 -2.2676 -0.0442
  121MOL0     H16279   9.849   0.344   1.096 -0.9837 -0.8494 -0.1947
  121MOL0     H16280   9.833   0.142   1.234 -0.8535 -1.8312  2.8018
  121MOL0     H16281   9.746   0.216   1.356 -1.2810 -2.5015 -0.1213
  121MOL0     H16282   9.614   0.223   1.068 -1.9536  1.4585  0.9468
  121MOL0     H16283   9.635   0.065   1.163  2.7682 -0.0568  0.8227
  121MOL0     H16284   9.515   0.279   1.312  2.5550 -0.5098  0.2256
  121MOL0     H16285   9.484   0.114   1.291  2.5747 -0.9037 -0.9617
  121MOL0     H16286   9.470   0.434   1.055 -0.8418  1.1323  0.8547
  121MOL0     H16287   9.300   0.517   0.862  0.8564  0.0431  0.8265
  121MOL0     H16288   9.255   0.370   0.795 -1.3262  1.7289 -1.2367
  121MOL0     H16289   9.090   0.573   0.928 -0.2760  0.6296 -0.8120
  121MOL0     H16290   9.025   0.407   0.948 -0.7091 -1.2620 -1.3356
  121MOL0     H16291   9.111   0.523   0.675  1.4279  0.1295  1.6385
  121MOL0     H16292   8.945   0.522   0.720 -1.0015  0.1293 -1.4434
  121MOL0     H16293   8.909   0.299   0.732  1.4494 -1.6028  1.3801
  121MOL0     H16294   9.082   0.248   0.722  0.9006  0.8067  2.5956
  121MOL0     H16295   8.796   0.197   0.541 -3.1133 -0.0667 -0.8573
  121MOL0     H16296   8.453   0.256   0.472 -0.6774  2.9380 -1.8227
  121MOL0     H16297   8.521   0.221   0.320 -2.7577 -0.2392  0.2519
  121MOL0     H16298   8.565   0.123   0.467  0.6352  1.2219  1.4202
  121MOL0     H16299   8.203   0.519   0.590 -0.4447  2.2266  0.5701
  121MOL0     H16300   7.986   0.537   0.535 -0.4909  1.5838 -0.1554
  121MOL0     H16301   7.830   0.640   0.110 -2.6012  1.2446 -1.5069
  121MOL0     H16302   7.820   0.485   0.191  1.5299  0.5744 -0.3777
  121MOL0     H16303   7.619   0.566   0.314 -0.1433 -1.0719 -0.8552
  121MOL0     H16304   7.654   0.729   0.260 -1.0627  0.6111 -1.6154
  121MOL0     H16305   7.560   0.493   0.072  1.0334 -0.5955 -0.4132
  121MOL0     H16306   7.619   0.657   0.034  1.8970  5.3185  4.2708
  121MOL0     H16307   7.371   0.547   0.163  0.9316 -1.3113 -0.3127
  121MOL0     H16308   7.421   0.720   0.197  2.8160 -1.4724  1.0215
  121MOL0     H16309   7.368   0.577  -0.081 -3.0590 -0.1551 -0.9838
  121MOL0     H16310   7.409   0.744  -0.068 -2.0047  0.7152  0.1577
  121MOL0     H16311   7.152   0.632   0.074  0.2803 -0.1480 -0.0690
  121MOL0     H16312   7.205   0.798   0.067  0.0411 -0.6301  0.2720
  121MOL0     H16313   7.044   0.676  -0.122  0.6822 -1.0341  0.9014
  121MOL0     H16314   7.194   0.690  -0.209 -0.4286 -3.4597  1.1874
  121MOL0     H16315   7.037   0.903  -0.041  2.6379 -0.7464  2.2306
  121MOL0     H16316   7.039   0.889  -0.218  0.6892  1.9000 -1.1123
  121MOL0     H16317   8.084   0.606   0.118 -2.8803 -0.6379 -0.1912
  121MOL0     H16318   8.304   0.525   0.175  1.3471  1.7886  0.6634
  121MOL0     H16319   8.756   0.652   0.358  1.8209  0.7232 -0.6849
  121MOL0     H16320   8.969   0.575   0.454 -0.5664  0.4389  0.7708
  121MOL0     H16321  10.298   0.911   1.189  0.4259 -2.5516  2.3996
  121MOL0     H16322  10.408   1.119   1.255  0.6440  0.1265 -0.1044
  121MOL0     H16323  10.236   1.529   1.484 -0.2129  0.9901 -0.3025
  121MOL0     H16324  10.301   1.767   1.536  0.8240 -0.1517  1.8568
  121MOL0     H16325  10.704   1.887   1.667  1.9157  1.4667 -1.0807
  121MOL0     H16326  10.711   1.933   1.498  3.3508  1.7151  2.4370
  121MOL0     H16327  10.571   2.089   1.715 -1.5561  0.4752 -0.7663
  121MOL0     H16328  10.551   2.119   1.547 -0.6464  0.2145  0.1377
  121MOL0     H16329  10.732   2.252   1.647  0.8434  1.0011 -2.8219
  121MOL0     H16330  10.817   2.134   1.539 -1.0929  0.5818 -0.5990
  121MOL0     H16331  10.870   2.002   1.763  4.1583 -0.1223 -0.5852
  121MOL0     H16332  10.809   2.150   1.851 -1.8145  1.3472 -1.4846
  121MOL0     H16333  11.199   2.244   1.746  0.3500 -0.2691 -2.0053
  121MOL0     H16334  10.713   1.676   1.508 -0.6167  1.7343 -2.7064
  121MOL0     H16335  10.661   1.443   1.490  0.8530  0.3073 -0.1265
  122MOL0     O16336   1.756  10.799   5.205  0.0569 -0.5296  0.0919
  122MOL0     C16337   1.755  10.780   5.082  1.3113  1.0046  0.1166
  122MOL0     O16338   1.861  10.776   5.000 -0.3751 -0.2835 -0.1913
  122MOL0     C16339   1.981  10.793   5.056  0.2999 -0.6301  0.4782
  122MOL0     C16340   2.031  10.916   5.119  0.0384  0.5922 -0.0967
  122MOL0     C16341   2.156  10.907   5.183  0.1104  0.0182  0.4413
  122MOL0     C16342   2.237  10.796   5.156 -0.0194  0.0009  0.4403
  122MOL0     O16343   2.365  10.807   5.210 -0.2199 -0.5278  1.0065
  122MOL0     C16344   2.448  10.694   5.235  0.1539  0.1693 -0.4608
  122MOL0     C16345   2.513  10.722   5.372 -0.6655  0.4533  0.0932
  122MOL0     C16346   2.593  10.603   5.423 -0.0876  0.4922  0.5322
  122MOL0     C16347   2.740  10.604   5.378  0.5584  0.7333 -0.2596
  122MOL0     C16348   2.834  10.702   5.462 -0.1460  0.3867 -0.0495
  122MOL0     C16349   2.861  10.642   5.614 -0.4782 -0.3562 -0.1444
  122MOL0     C16350   2.907  10.743   5.713 -0.1253 -0.0321 -0.6286
  122MOL0     C16351   3.043  10.804   5.684  0.5859 -0.1456  1.2085
  122MOL0     N16352   3.097  10.886   5.784 -0.0333 -0.3488  0.0137
  122MOL0     C16353   3.215  10.853   5.853 -0.0484  0.1386  0.0095
  122MOL0     C16354   3.261  10.976   5.889 -0.2245  0.5104  0.0216
  122MOL0     C16355   3.394  10.996   5.967  0.3812 -0.0817 -0.5107
  122MOL0     C16356   3.365  11.035   6.115  0.0359 -0.0633 -1.0519
  122MOL0     C16357   3.455  11.149   6.165 -0.1719 -0.2497 -0.4480
  122MOL0     C16358   3.427  11.285   6.092 -0.7167  0.9455  0.1406
  122MOL0     O16359   3.294  11.320   6.123  0.3758 -0.0605  0.5746
  122MOL0     C16360   3.248  11.438   6.074  0.0015  0.6951  0.8644
  122MOL0     C16361   3.144  11.489   6.154 -0.2620 -0.2884  0.9718
  122MOL0     C16362   3.080  11.600   6.108 -0.5052  0.0284 -0.4247
  122MOL0     C16363   2.956  11.632   6.191 -0.3795 -0.7987  0.3918
  122MOL0     C16364   3.114  11.667   5.988  0.0256  0.2089 -0.0995
  122MOL0     C16365   3.040  11.795   5.949 -0.5515  0.1143 -0.3536
  122MOL0     O16366   2.984  11.877   6.038  0.4522 -0.0317 -0.5160
  122MOL0     C16367   2.903  11.980   5.989  0.3965 -0.6413 -0.6917
  122MOL0     C16368   2.771  11.997   6.044 -0.1718  0.3579 -0.0900
  122MOL0     C16369   2.681  12.110   6.006  0.0754  0.3417  0.2112
  122MOL0     C16370   2.729  12.203   5.908  0.0083 -0.2007 -0.2226
  122MOL0     O16371   2.656  12.311   5.868 -0.2667 -0.2170 -0.4169
  122MOL0     C16372   2.523  12.327   5.920  0.9060  0.5376  0.4059
  122MOL0     C16373   2.448  12.439   5.846 -0.1686 -0.1825  0.1091
  122MOL0     C16374   2.454  12.556   5.940  0.4481 -0.6907 -0.4725
  122MOL0     C16375   2.378  12.666   5.877  0.0425 -1.1969  0.0688
  122MOL0     C16376   2.367  12.785   5.968 -0.1516  1.2485 -0.4886
  122MOL0     C16377   2.324  12.911   5.889 -0.4678  0.5768 -0.1498
  122MOL0     C16378   2.312  13.031   5.991  0.5683  0.2756  0.3740
  122MOL0     C16379   2.270  13.162   5.931 -0.0971 -0.0019 -0.0689
  122MOL0    Cl16380   2.395  13.218   5.812  0.4091  0.0769 -0.6502
  122MOL0     C16381   2.852  12.181   5.848  0.0201 -0.2846  0.1562
  122MOL0     C16382   2.930  12.075   5.889  0.0145  0.2049  0.2726
  122MOL0     O16383   3.036  11.814   5.829  0.1098  0.3875 -0.7539
  122MOL0     C16384   3.222  11.617   5.915 -0.1890 -0.2374 -0.1167
  122MOL0     C16385   3.286  11.505   5.955 -0.0133  0.3804  0.5711
  122MOL0     N16386   3.184  11.077   5.834 -0.6158 -0.2353  0.2117
  122MOL0     N16387   3.083  11.023   5.782 -0.2226  0.2253 -0.6209
  122MOL0     C16388   2.199  10.683   5.087  0.3408  1.0291 -0.2651
  122MOL0     C16389   2.060  10.678   5.036  0.1853 -0.5926 -0.5685
  122MOL0     C16390   1.621  10.748   5.020  0.3958 -0.0408 -0.1615
  122MOL0     C16391   1.617  10.724   4.884 -0.1371  0.5113  0.1338
  122MOL0     C16392   1.493  10.710   4.827 -0.2704 -0.1186  0.5095
  122MOL0     C16393   1.372  10.725   4.893  0.9177 -1.8994 -0.2438
  122MOL0     O16394   1.254  10.736   4.821 -0.4487 -0.6612  0.5822
  122MOL0     C16395   1.134  10.682   4.883  0.7534 -0.3569 -1.1065
  122MOL0     C16396   1.052  10.592   4.785  0.4226  0.1782  0.5116
  122MOL0     C16397   1.142  10.507   4.685  0.7172  0.7161  0.7290
  122MOL0     C16398   1.230  10.389   4.741 -0.3350  0.0706  0.4176
  122MOL0     C16399   1.310  10.316   4.642 -0.7137 -0.5574  0.3762
  122MOL0     C16400   1.381  10.246   4.573  0.1181 -0.0524 -0.3746
  122MOL0     C16401   1.374  10.754   5.036  0.6238 -0.7744 -0.0805
  122MOL0     C16402   1.499  10.764   5.096 -0.0325 -0.0838 -0.3100
  122MOL0     H16403   1.972  11.007   5.122  1.8325  1.8557 -1.1971
  122MOL0     H16404   2.207  10.992   5.228 -1.6458  1.8567 -0.8899
  122MOL0     H16405   2.382  10.608   5.246  0.0456  0.0309 -1.9780
  122MOL0     H16406   2.524  10.679   5.158  0.9681  0.1296  0.3298
  122MOL0     H16407   2.576  10.811   5.357 -1.1148  0.5533 -1.3297
  122MOL0     H16408   2.440  10.752   5.448 -1.1621  3.2311 -1.3212
  122MOL0     H16409   2.583  10.607   5.532 -1.6267  0.8369  0.4074
  122MOL0     H16410   2.549  10.504   5.407  1.5155 -0.6596  2.7375
  122MOL0     H16411   2.782  10.503   5.385  0.7220  0.7205 -1.2867
  122MOL0     H16412   2.743  10.629   5.271  2.2871  0.4551 -0.3150
  122MOL0     H16413   2.924  10.715   5.402 -1.1497  0.2050 -1.6516
  122MOL0     H16414   2.781  10.798   5.474 -2.7499 -1.2749  3.6503
  122MOL0     H16415   2.766  10.603   5.652 -0.3593 -1.5217 -0.9948
  122MOL0     H16416   2.928  10.557   5.596 -0.3984  0.1180 -2.4283
  122MOL0     H16417   2.836  10.826   5.722 -1.3090 -1.2301  2.5115
  122MOL0     H16418   2.899  10.694   5.811 -1.6762 -0.8340 -1.1301
  122MOL0     H16419   3.044  10.866   5.593  0.4465  0.5188  1.6518
  122MOL0     H16420   3.108  10.718   5.666 -1.0064 -1.3947  1.1974
  122MOL0     H16421   3.254  10.755   5.878 -0.5911  0.1253  0.8274
  122MOL0     H16422   3.461  10.910   5.960 -2.0313 -2.0203 -0.9985
  122MOL0     H16423   3.454  11.073   5.918  1.5153 -0.8995 -0.4362
  122MOL0     H16424   3.374  10.945   6.176  1.4290  0.6058 -0.2173
  122MOL0     H16425   3.263  11.065   6.142  0.9786  0.1728  2.7705
  122MOL0     H16426   3.562  11.126   6.171  0.6152  3.1328  3.1628
  122MOL0     H16427   3.429  11.157   6.271 -3.7132  2.3771 -1.3455
  122MOL0     H16428   3.458  11.289   5.987  2.8422  2.5036  1.0651
  122MOL0     H16429   3.484  11.363   6.144  2.3129  0.2489 -1.8683
  122MOL0     H16430   3.123  11.439   6.249  2.2131 -1.9027  0.7679
  122MOL0     H16431   2.976  11.715   6.259  0.3441 -1.9380  1.6041
  122MOL0     H16432   2.866  11.657   6.133  0.0402  3.3341  1.1660
  122MOL0     H16433   2.940  11.548   6.259  1.1937 -0.1410  1.6271
  122MOL0     H16434   2.734  11.922   6.114  0.2012  0.4351  0.1907
  122MOL0     H16435   2.581  12.122   6.045 -1.4307  1.0128 -3.4576
  122MOL0     H16436   2.468  12.238   5.888  1.1893  0.1827  0.8904
  122MOL0     H16437   2.531  12.335   6.029  0.8369  1.7278  0.3334
  122MOL0     H16438   2.495  12.467   5.751 -2.6573 -0.8741 -1.4137
  122MOL0     H16439   2.347  12.403   5.821  0.0576 -0.5066 -0.3702
  122MOL0     H16440   2.556  12.590   5.963  0.1519  1.1190 -1.6301
  122MOL0     H16441   2.396  12.539   6.031  1.7615 -0.6893  0.3983
  122MOL0     H16442   2.441  12.691   5.790 -1.7106  0.0122 -0.9289
  122MOL0     H16443   2.281  12.628   5.844  0.6782 -1.5837 -1.4820
  122MOL0     H16444   2.462  12.794   6.022  0.7816  0.7258 -1.9589
  122MOL0     H16445   2.296  12.759   6.047  0.7628 -1.4347 -0.4406
  122MOL0     H16446   2.396  12.936   5.811 -0.1268  0.2112  0.0409
  122MOL0     H16447   2.224  12.896   5.846 -1.8160  1.8909  2.3259
  122MOL0     H16448   2.411  13.050   6.033  1.0389  0.4960 -0.8069
  122MOL0     H16449   2.237  12.995   6.063  0.1960 -0.7915 -0.5122
  122MOL0     H16450   2.254  13.243   6.003  3.4763  0.6300  0.1972
  122MOL0     H16451   2.175  13.146   5.879 -0.9964 -0.7934  1.7255
  122MOL0     H16452   2.884  12.254   5.774 -0.4444  1.1692  1.3461
  122MOL0     H16453   3.024  12.068   5.834 -0.6555  0.3841 -0.9314
  122MOL0     H16454   3.246  11.669   5.823  0.2041 -0.7733 -0.3199
  122MOL0     H16455   3.354  11.446   5.894 -2.7790 -2.6625  0.1642
  122MOL0     H16456   2.262  10.605   5.046 -3.5631 -2.6466  0.0162
  122MOL0     H16457   2.024  10.604   4.965 -2.6526  2.5584 -2.7427
  122MOL0     H16458   1.697  10.724   4.811  0.2647  0.1790  0.5741
  122MOL0     H16459   1.494  10.687   4.721  1.7971  0.4803  0.3596
  122MOL0     H16460   1.154  10.612   4.965 -1.5393 -1.2668 -1.2668
  122MOL0     H16461   1.063  10.759   4.914 -0.8167 -1.7382 -1.1213
  122MOL0     H16462   0.993  10.658   4.722 -1.3569 -0.5903  1.3157
  122MOL0     H16463   0.987  10.529   4.846 -1.9003  0.6686 -1.3367
  122MOL0     H16464   1.208  10.578   4.634  2.7271 -2.1512 -0.9826
  122MOL0     H16465   1.065  10.477   4.614  0.4407 -0.9100  1.6605
  122MOL0     H16466   1.155  10.323   4.784 -2.8372 -0.5581 -4.2316
  122MOL0     H16467   1.299  10.428   4.816 -1.2704  0.4219  1.1178
  122MOL0     H16468   1.434  10.177   4.511  2.2200  2.0161 -1.0228
  122MOL0     H16469   1.282  10.769   5.092 -0.6501 -1.1254 -1.9648
  122MOL0     H16470   1.487  10.791   5.200  2.1662 -0.2119  0.0418
  123MOL0     O16471   5.773   2.362   8.876  1.0519 -0.1969  0.1091
  123MOL0     C16472   5.697   2.431   8.948 -0.2982 -0.3686  0.3830
  123MOL0     O16473   5.563   2.457   8.921  0.0127  0.5679 -0.1648
  123MOL0     C16474   5.502   2.418   8.805  0.0992  0.4932 -1.0629
  123MOL0     C16475   5.414   2.509   8.745 -0.3636  0.4019 -0.8173
  123MOL0     C16476   5.328   2.464   8.645  0.1956  0.6283 -0.7234
  123MOL0     C16477   5.323   2.321   8.615  0.5585  0.9491 -0.3015
  123MOL0     O16478   5.222   2.254   8.553  0.0796 -0.6153  0.2262
  123MOL0     C16479   5.124   2.343   8.489 -0.3941 -0.7386 -0.0475
  123MOL0     C16480   5.022   2.254   8.421 -0.2922 -0.2839 -0.1904
  123MOL0     C16481   4.930   2.341   8.334 -0.5698 -0.7300 -0.0108
  123MOL0     C16482   4.846   2.253   8.244 -0.0365  0.2991 -0.4395
  123MOL0     C16483   4.779   2.335   8.136  0.7221 -0.9318 -0.0214
  123MOL0     C16484   4.682   2.443   8.194  0.7985  1.1971 -0.2892
  123MOL0     C16485   4.578   2.507   8.103 -0.0551 -0.9086  0.2159
  123MOL0     C16486   4.635   2.535   7.960 -0.3953 -1.1479 -0.1111
  123MOL0     N16487   4.549   2.601   7.860  0.6463  0.0474  0.4030
  123MOL0     C16488   4.542   2.608   7.724 -0.3856 -0.8860 -0.1767
  123MOL0     C16489   4.433   2.697   7.698 -0.3474  0.4250 -0.5829
  123MOL0     C16490   4.387   2.783   7.579 -0.5574 -0.2270 -0.5493
  123MOL0     C16491   4.491   2.782   7.468 -0.7112  0.4238  0.1784
  123MOL0     C16492   4.615   2.863   7.510 -0.8332  0.4309  0.3362
  123MOL0     C16493   4.722   2.866   7.406  0.9252  0.3410 -0.0596
  123MOL0     O16494   4.666   2.894   7.270  0.3502  0.2840 -0.2097
  123MOL0     C16495   4.759   2.903   7.167 -0.1642 -0.0817  0.3463
  123MOL0     C16496   4.708   2.910   7.029  0.0085  0.1975  0.0665
  123MOL0     C16497   4.792   2.940   6.920 -1.2820 -0.0035  0.5893
  123MOL0     C16498   4.733   2.975   6.791  0.2509  0.5392  0.6408
  123MOL0     C16499   4.933   2.971   6.940 -0.3021 -0.2017  0.2750
  123MOL0     C16500   5.016   3.031   6.838  0.1138  0.0832  0.1708
  123MOL0     O16501   5.099   2.948   6.762 -0.5147  0.2150 -0.4126
  123MOL0     C16502   5.191   3.025   6.701  1.0265  0.8443 -0.7491
  123MOL0     C16503   5.189   3.049   6.567 -1.1390  0.1980 -0.4548
  123MOL0     C16504   5.299   3.131   6.520  0.6762 -1.0254  0.2890
  123MOL0     C16505   5.387   3.198   6.602  0.0111 -0.2071  0.2776
  123MOL0     O16506   5.489   3.270   6.537  0.6473  0.9200  0.5467
  123MOL0     C16507   5.561   3.361   6.619  0.3542 -0.3156  0.5861
  123MOL0     C16508   5.628   3.456   6.521  0.0209 -0.0081 -0.0961
  123MOL0     C16509   5.762   3.510   6.578  0.2282 -0.2290  0.8181
  123MOL0     C16510   5.850   3.549   6.463 -0.5881 -0.3422  0.8769
  123MOL0     C16511   5.987   3.607   6.506 -0.2011 -0.0907  0.1039
  123MOL0     C16512   6.086   3.605   6.393  0.6970  0.0958  0.1324
  123MOL0     C16513   6.054   3.691   6.273 -0.3065  0.0439  0.1673
  123MOL0     C16514   6.176   3.685   6.179  0.5234 -0.8240 -0.3122
  123MOL0    Cl16515   6.176   3.528   6.089  0.1607  0.2491  0.0894
  123MOL0     C16516   5.386   3.167   6.733  0.5635 -0.4639 -0.1278
  123MOL0     C16517   5.288   3.080   6.785 -0.7293 -0.2748 -0.3888
  123MOL0     O16518   5.025   3.156   6.842  0.4454  0.1145  0.1117
  123MOL0     C16519   4.987   2.944   7.073 -0.2311 -0.6089 -0.5591
  123MOL0     C16520   4.902   2.911   7.181  0.6419  1.3763 -0.4213
  123MOL0     N16521   4.352   2.696   7.816 -0.1251  0.9171  0.4124
  123MOL0     N16522   4.430   2.645   7.910  0.1076  0.1009 -0.2405
  123MOL0     C16523   5.427   2.241   8.652 -0.4650  0.2261  0.3340
  123MOL0     C16524   5.514   2.289   8.750 -0.3259  0.1904  0.5250
  123MOL0     C16525   5.739   2.489   9.081  0.0417  0.0344  0.1193
  123MOL0     C16526   5.868   2.479   9.135 -0.0324 -0.2375  0.0827
  123MOL0     C16527   5.912   2.541   9.254  0.1631  0.6509  0.3402
  123MOL0     C16528   5.815   2.594   9.334  1.1461  0.0416 -0.4562
  123MOL0     O16529   5.847   2.638   9.454  0.8296  0.6421  0.0773
  123MOL0     C16530   5.747   2.674   9.551 -0.4601  1.1869 -0.5823
  123MOL0     C16531   5.823   2.698   9.687  0.0605 -0.0807 -0.3448
  123MOL0     C16532   5.916   2.816   9.669 -0.1443 -0.5837  0.2487
  123MOL0     C16533   6.073   2.780   9.662  1.0383  0.0365 -0.1160
  123MOL0     C16534   6.149   2.912   9.693  0.9497  1.1250  0.8575
  123MOL0     C16535   6.209   3.013   9.699 -0.1172 -0.0991 -0.3898
  123MOL0     C16536   5.682   2.611   9.281 -0.4602 -0.7256 -0.0434
  123MOL0     C16537   5.646   2.563   9.155 -0.6849 -0.2271  0.2071
  123MOL0     H16538   5.389   2.604   8.791  0.1134  0.0782  0.1360
  123MOL0     H16539   5.253   2.531   8.604 -2.4901 -0.8834  1.4209
  123MOL0     H16540   5.063   2.409   8.551 -1.8485  1.8126 -3.7945
  123MOL0     H16541   5.161   2.404   8.407 -3.2053 -1.7801 -2.2699
  123MOL0     H16542   5.080   2.184   8.361  1.4421 -0.1385  1.2573
  123MOL0     H16543   4.960   2.197   8.491  1.6144 -1.5905  0.5082
  123MOL0     H16544   4.863   2.399   8.398  0.8017 -0.2999  1.0820
  123MOL0     H16545   4.999   2.406   8.278 -0.2593 -0.7886  0.2991
  123MOL0     H16546   4.913   2.188   8.189 -0.9331 -0.6518 -0.4408
  123MOL0     H16547   4.776   2.195   8.305  2.6551  0.7297  3.3647
  123MOL0     H16548   4.852   2.383   8.071  1.6039  1.0212  2.2643
  123MOL0     H16549   4.718   2.266   8.076  1.1198 -0.3568 -1.1126
  123MOL0     H16550   4.627   2.401   8.279 -0.7716  1.1548 -1.2927
  123MOL0     H16551   4.741   2.525   8.237 -1.4888  2.6894  0.1869
  123MOL0     H16552   4.493   2.439   8.102 -0.3739 -0.5203 -0.7246
  123MOL0     H16553   4.537   2.603   8.137 -4.6606 -1.7146 -2.2307
  123MOL0     H16554   4.653   2.436   7.917 -0.6916 -0.8263 -1.0129
  123MOL0     H16555   4.722   2.600   7.968 -2.1024  1.5764 -1.9780
  123MOL0     H16556   4.618   2.578   7.652  0.0910 -3.0481  1.1339
  123MOL0     H16557   4.294   2.743   7.539 -0.5913  1.2130 -2.0374
  123MOL0     H16558   4.359   2.883   7.615  0.2492 -0.6425  1.3477
  123MOL0     H16559   4.452   2.842   7.385  2.3717  2.4293 -0.0059
  123MOL0     H16560   4.517   2.681   7.436  0.2719  0.1996  1.6158
  123MOL0     H16561   4.653   2.822   7.603  0.7726  0.8344 -0.1086
  123MOL0     H16562   4.583   2.962   7.544  0.2115  0.4583  1.2943
  123MOL0     H16563   4.781   2.774   7.396 -1.9927 -1.6125 -0.6964
  123MOL0     H16564   4.793   2.942   7.439  0.3441  1.3095 -0.9979
  123MOL0     H16565   4.600   2.894   7.022 -0.4362  1.9083  2.0850
  123MOL0     H16566   4.728   3.085   6.786  0.1167  0.5055 -0.2095
  123MOL0     H16567   4.793   2.948   6.703 -3.9155  1.5124 -2.8820
  123MOL0     H16568   4.639   2.924   6.766  0.3685  1.6831 -2.7735
  123MOL0     H16569   5.134   3.004   6.485  1.6692  1.8488 -3.5072
  123MOL0     H16570   5.329   3.137   6.416 -2.0395  2.1324 -0.4462
  123MOL0     H16571   5.494   3.425   6.677  0.6499  2.4650 -1.8892
  123MOL0     H16572   5.625   3.310   6.692 -3.9412 -1.3670  4.0612
  123MOL0     H16573   5.657   3.397   6.433  3.0526  0.6474  0.3517
  123MOL0     H16574   5.576   3.547   6.489 -0.1500 -0.3336 -0.7615
  123MOL0     H16575   5.818   3.441   6.642  0.5301 -2.1734 -1.4253
  123MOL0     H16576   5.735   3.597   6.639  0.9270 -0.8183  2.0056
  123MOL0     H16577   5.865   3.472   6.386  0.1328  1.4720 -0.9041
  123MOL0     H16578   5.801   3.634   6.415 -2.6538 -2.1255 -0.3484
  123MOL0     H16579   6.024   3.541   6.585 -1.3270 -2.7068 -1.4164
  123MOL0     H16580   5.978   3.710   6.541  0.8622  0.2568 -0.5745
  123MOL0     H16581   6.180   3.647   6.431  1.5331 -0.2114 -1.5344
  123MOL0     H16582   6.104   3.500   6.367  0.6393  0.0521  0.2673
  123MOL0     H16583   6.028   3.796   6.293 -0.9620  0.5100 -2.6479
  123MOL0     H16584   5.963   3.646   6.232 -0.7832  0.2438  0.9730
  123MOL0     H16585   6.270   3.698   6.233  0.8426 -1.2658 -0.7497
  123MOL0     H16586   6.178   3.767   6.107 -0.0376 -1.7997 -1.4817
  123MOL0     H16587   5.452   3.205   6.810 -1.2587  0.0328  1.2435
  123MOL0     H16588   5.292   3.061   6.892  0.3750 -1.1005 -0.5636
  123MOL0     H16589   5.089   2.951   7.108 -0.6909  0.9605  0.5882
  123MOL0     H16590   4.953   2.894   7.276  3.3099  3.0001 -1.4700
  123MOL0     H16591   5.427   2.136   8.626 -1.3839  0.3729 -0.3164
  123MOL0     H16592   5.590   2.223   8.792 -0.9992 -0.3731  0.8718
  123MOL0     H16593   5.932   2.416   9.074  0.1202  0.9930 -1.0824
  123MOL0     H16594   6.013   2.535   9.293  1.7438 -0.3116 -3.4242
  123MOL0     H16595   5.686   2.758   9.519 -0.7620  0.3750 -2.2701
  123MOL0     H16596   5.678   2.590   9.562  0.5797 -0.1453 -3.2590
  123MOL0     H16597   5.880   2.610   9.714 -1.0255 -1.1303 -1.3514
  123MOL0     H16598   5.755   2.712   9.771 -2.2763  0.9619 -2.2826
  123MOL0     H16599   5.907   2.864   9.767 -1.8943 -1.5268  0.5902
  123MOL0     H16600   5.897   2.877   9.580  1.5179 -2.3265 -1.3864
  123MOL0     H16601   6.097   2.755   9.559 -0.1172 -0.7490 -0.2138
  123MOL0     H16602   6.099   2.690   9.718 -5.0592 -2.3050 -0.2313
  123MOL0     H16603   6.259   3.108   9.706  0.6767 -0.3848 -1.7689
  123MOL0     H16604   5.596   2.649   9.335  1.1328  0.6337  1.6629
  123MOL0     H16605   5.542   2.578   9.129 -0.4156  0.2924 -0.6176
  124MOL0     O16606   4.008   5.738   8.210  0.0154  0.1889 -0.3981
  124MOL0     C16607   4.087   5.788   8.132 -0.3779 -0.2270 -0.9180
  124MOL0     O16608   4.102   5.917   8.118  0.2292  0.5642 -0.3289
  124MOL0     C16609   4.049   6.001   8.215 -0.7107 -0.0368 -0.1932
  124MOL0     C16610   4.130   6.094   8.288 -0.1781  0.6446 -0.3141
  124MOL0     C16611   4.082   6.187   8.383 -0.9416 -0.0243 -0.1145
  124MOL0     C16612   3.951   6.180   8.400  0.1257 -0.0888 -1.3024
  124MOL0     O16613   3.892   6.263   8.493  0.1089  0.0688  0.1678
  124MOL0     C16614   3.874   6.200   8.623 -0.3705  0.8157  0.7872
  124MOL0     C16615   3.911   6.296   8.735 -0.6296  0.0585  0.3165
  124MOL0     C16616   4.057   6.345   8.736  0.2769 -0.3193  0.2051
  124MOL0     C16617   4.062   6.463   8.833 -0.6487 -0.0898  0.4441
  124MOL0     C16618   4.211   6.519   8.862  0.0919  0.4284 -0.4325
  124MOL0     C16619   4.204   6.645   8.939 -0.1821 -0.0688  0.2747
  124MOL0     C16620   4.144   6.628   9.087  0.2269 -0.3315 -0.3832
  124MOL0     C16621   4.191   6.740   9.188  0.5504 -0.3966 -0.1544
  124MOL0     N16622   4.204   6.874   9.131  0.9428 -0.2862 -0.2748
  124MOL0     C16623   4.100   6.966   9.102 -0.2929  0.1201  0.1505
  124MOL0     C16624   4.163   7.081   9.072 -0.0084  0.7067  0.6630
  124MOL0     C16625   4.087   7.196   9.003  0.2254  0.8294 -0.1779
  124MOL0     C16626   4.124   7.225   8.861 -0.1900 -0.3418  0.1198
  124MOL0     C16627   4.040   7.344   8.805  0.6503 -0.0957  0.0959
  124MOL0     C16628   3.907   7.290   8.753  0.0721  0.4613  0.6898
  124MOL0     O16629   3.806   7.392   8.751  0.3244 -0.0887 -0.4886
  124MOL0     C16630   3.675   7.359   8.715  1.2735  1.4671 -0.7742
  124MOL0     C16631   3.614   7.236   8.689  0.6706 -0.3782 -0.8127
  124MOL0     C16632   3.475   7.229   8.672 -0.1892 -0.9331 -0.0036
  124MOL0     C16633   3.410   7.092   8.636  0.1851 -0.9673  0.0074
  124MOL0     C16634   3.389   7.343   8.688  0.3853 -0.1030 -0.9657
  124MOL0     C16635   3.234   7.336   8.676  0.8816  0.4823 -0.2303
  124MOL0     O16636   3.172   7.451   8.720  0.3237  0.3607  1.1329
  124MOL0     C16637   3.047   7.486   8.681 -0.4985  0.2739  0.0484
  124MOL0     C16638   3.008   7.565   8.568 -0.2060 -0.4926  0.6609
  124MOL0     C16639   2.879   7.593   8.531 -0.4710  0.4923  0.0062
  124MOL0     C16640   2.777   7.538   8.612  1.0329  0.0911  1.1238
  124MOL0     O16641   2.640   7.554   8.583  0.3174  0.1554 -0.1902
  124MOL0     C16642   2.542   7.567   8.686  0.0746  0.0651  0.3017
  124MOL0     C16643   2.470   7.689   8.690  1.0555 -0.6740 -0.3844
  124MOL0     C16644   2.379   7.700   8.560 -0.3050 -1.0731 -0.9525
  124MOL0     C16645   2.271   7.588   8.534 -0.2984 -0.7444  1.4270
  124MOL0     C16646   2.185   7.553   8.662 -0.9256  0.0185  0.3417
  124MOL0     C16647   2.042   7.512   8.616 -0.7840  0.5398  0.1200
  124MOL0     C16648   1.956   7.440   8.721 -0.5584  0.6486 -0.6801
  124MOL0     C16649   1.829   7.382   8.665  0.2143 -0.7628  0.1623
  124MOL0    Cl16650   1.879   7.269   8.526  0.1002  0.1212 -0.5791
  124MOL0     C16651   2.807   7.451   8.714  0.1603 -0.3229  0.4303
  124MOL0     C16652   2.938   7.428   8.746  0.3198  0.5541  0.3074
  124MOL0     O16653   3.179   7.236   8.629  0.6032 -0.2881 -0.7882
  124MOL0     C16654   3.451   7.465   8.718  0.4474 -0.8946  0.4097
  124MOL0     C16655   3.591   7.472   8.724  0.5818 -0.2027  0.8790
  124MOL0     N16656   4.297   7.066   9.101  0.1954 -0.7282  0.4493
  124MOL0     N16657   4.319   6.949   9.143  0.7875  0.4754 -0.0733
  124MOL0     C16658   3.858   6.098   8.332 -0.0590  0.8095  0.6005
  124MOL0     C16659   3.911   6.012   8.234  1.0261 -0.8182  0.2166
  124MOL0     C16660   4.165   5.687   8.061  0.0323  0.0992 -0.0889
  124MOL0     C16661   4.251   5.730   7.955  0.3316 -0.1785  0.7327
  124MOL0     C16662   4.316   5.631   7.886  0.3332  0.3322 -0.1599
  124MOL0     C16663   4.309   5.489   7.920  0.0770  0.8923 -0.5209
  124MOL0     O16664   4.363   5.386   7.844  0.3750 -0.8800  0.0393
  124MOL0     C16665   4.429   5.422   7.719  0.2713 -0.1894  0.1816
  124MOL0     C16666   4.576   5.428   7.735 -0.1861  0.7302 -0.0407
  124MOL0     C16667   4.622   5.278   7.762  0.4339 -0.1625 -0.0907
  124MOL0     C16668   4.756   5.281   7.830  0.9906 -0.5062  1.0641
  124MOL0     C16669   4.818   5.148   7.815  0.4330  0.2646  0.2315
  124MOL0     C16670   4.864   5.041   7.805  0.1154 -0.2995 -0.4978
  124MOL0     C16671   4.228   5.453   8.026 -0.3355  0.0361  0.5966
  124MOL0     C16672   4.154   5.547   8.093  0.2043 -0.5549 -0.5672
  124MOL0     H16673   4.239   6.095   8.282 -0.0965 -1.4094  0.2514
  124MOL0     H16674   4.144   6.260   8.435 -1.0312  0.5504 -0.7959
  124MOL0     H16675   3.770   6.172   8.638 -1.4884  1.8811 -3.4466
  124MOL0     H16676   3.933   6.108   8.629 -1.8702 -0.1469  1.1764
  124MOL0     H16677   3.841   6.379   8.745  1.8442  2.5590 -1.5497
  124MOL0     H16678   3.890   6.229   8.819  0.7218 -2.1239 -0.9943
  124MOL0     H16679   4.130   6.264   8.742  0.3459 -0.2349  0.4845
  124MOL0     H16680   4.070   6.387   8.635 -1.1600 -2.5986 -1.0227
  124MOL0     H16681   4.013   6.548   8.783  0.0395  0.1833  0.2148
  124MOL0     H16682   4.007   6.453   8.927  2.6658  1.0119  2.6400
  124MOL0     H16683   4.262   6.439   8.916  0.3966  1.4544  0.8394
  124MOL0     H16684   4.264   6.547   8.771  0.3144  2.6606  0.3230
  124MOL0     H16685   4.302   6.691   8.950 -0.9003  2.2277 -1.7880
  124MOL0     H16686   4.149   6.724   8.885  1.3550  2.6215  2.4173
  124MOL0     H16687   4.037   6.649   9.087  0.1547 -0.5600  1.1443
  124MOL0     H16688   4.169   6.526   9.119  0.8770  0.1506  0.7190
  124MOL0     H16689   4.288   6.699   9.220 -1.2245 -2.7435  2.7434
  124MOL0     H16690   4.138   6.745   9.284  1.5870 -1.8048  0.5260
  124MOL0     H16691   3.996   6.940   9.086 -0.4160  1.0143 -0.6039
  124MOL0     H16692   3.982   7.168   9.015 -0.5307  1.1838 -4.3116
  124MOL0     H16693   4.106   7.287   9.061 -2.0772  1.3350 -0.1208
  124MOL0     H16694   4.097   7.133   8.808 -0.1088  0.3169 -1.0824
  124MOL0     H16695   4.232   7.238   8.861  0.4811 -4.0734  3.5981
  124MOL0     H16696   4.091   7.385   8.717  0.2892  1.8168  0.7352
  124MOL0     H16697   4.026   7.416   8.886  1.1582  0.1832 -0.0554
  124MOL0     H16698   3.864   7.211   8.815 -2.3698  0.7345 -0.5114
  124MOL0     H16699   3.915   7.249   8.652 -2.0703  1.0382  0.2189
  124MOL0     H16700   3.674   7.147   8.678 -0.3896 -1.2149 -0.0805
  124MOL0     H16701   3.359   7.098   8.540 -1.3127  0.5910  0.8645
  124MOL0     H16702   3.483   7.015   8.606  1.5086 -0.6466  2.1777
  124MOL0     H16703   3.350   7.052   8.718  2.4992  0.2659  2.4374
  124MOL0     H16704   3.088   7.613   8.513 -2.8243  0.3163 -2.7882
  124MOL0     H16705   2.877   7.675   8.460  1.2297 -0.0416 -0.7075
  124MOL0     H16706   2.471   7.487   8.664  0.0794  0.5136 -1.5710
  124MOL0     H16707   2.581   7.557   8.788  1.1331  2.4141  0.1899
  124MOL0     H16708   2.418   7.701   8.786  5.1919 -0.7948  2.0982
  124MOL0     H16709   2.539   7.774   8.699  2.2536 -1.6588 -0.0870
  124MOL0     H16710   2.453   7.711   8.480  3.2092 -1.0615  2.0658
  124MOL0     H16711   2.325   7.795   8.566  1.6918  0.0499  0.9160
  124MOL0     H16712   2.196   7.619   8.460  1.4893  0.1409 -0.1066
  124MOL0     H16713   2.321   7.497   8.499 -0.3667  0.4092 -2.0915
  124MOL0     H16714   2.168   7.644   8.722 -1.6311 -0.2363  0.5362
  124MOL0     H16715   2.246   7.482   8.718  1.1688  1.9240  0.6477
  124MOL0     H16716   1.993   7.596   8.566 -1.3125  0.5860  0.7106
  124MOL0     H16717   2.056   7.444   8.531 -1.0777 -0.7958  1.1099
  124MOL0     H16718   1.935   7.509   8.803 -1.3950 -1.8158  1.3297
  124MOL0     H16719   2.003   7.350   8.761 -0.3391  1.8590  1.9975
  124MOL0     H16720   1.763   7.458   8.622  1.7072 -0.2437 -1.3401
  124MOL0     H16721   1.780   7.325   8.744 -1.2061  0.5497  0.2841
  124MOL0     H16722   2.728   7.396   8.765 -0.6940  2.1308  1.9084
  124MOL0     H16723   2.957   7.362   8.830 -2.8704 -1.1009 -0.1347
  124MOL0     H16724   3.390   7.555   8.723 -0.0401 -1.0029 -2.3614
  124MOL0     H16725   3.635   7.571   8.732 -1.6344  0.9046 -0.0494
  124MOL0     H16726   3.751   6.111   8.345 -0.1436 -0.1332  0.9264
  124MOL0     H16727   3.842   5.948   8.180 -1.6214 -0.9992  3.4593
  124MOL0     H16728   4.255   5.832   7.917  1.7563  0.0883  1.5290
  124MOL0     H16729   4.393   5.675   7.823  1.5915  2.6518  2.7238
  124MOL0     H16730   4.403   5.349   7.642  1.5693  1.1775 -1.6474
  124MOL0     H16731   4.402   5.519   7.677  0.2627 -0.8580 -1.4292
  124MOL0     H16732   4.591   5.497   7.818  0.3249  0.4426  0.1092
  124MOL0     H16733   4.618   5.465   7.641 -0.7379 -0.9266 -0.9693
  124MOL0     H16734   4.635   5.234   7.663  0.1770  0.1130 -0.2501
  124MOL0     H16735   4.548   5.213   7.811 -0.5570 -0.0165 -1.3427
  124MOL0     H16736   4.745   5.306   7.936 -1.8843 -3.8031  1.7287
  124MOL0     H16737   4.815   5.362   7.787 -1.3204 -0.0065 -1.4190
  124MOL0     H16738   4.932   4.959   7.789  0.7663  0.5451 -2.2788
  124MOL0     H16739   4.199   5.349   8.039 -2.2642  0.3623 -0.7152
  124MOL0     H16740   4.087   5.517   8.173  0.6256  1.0537  0.4502
  125MOL0     O16741  11.223   1.812   2.507 -0.0525  1.1729 -0.6962
  125MOL0     C16742  11.215   1.930   2.527 -0.0995 -0.3318  0.0626
  125MOL0     O16743  11.186   1.986   2.650 -0.2084  0.5563 -0.4527
  125MOL0     C16744  11.134   1.905   2.753  0.8377  0.8208 -0.6641
  125MOL0     C16745  11.037   1.803   2.715 -0.1531 -0.0685 -0.1328
  125MOL0     C16746  10.985   1.714   2.810  0.3671  0.2727 -0.0373
  125MOL0     C16747  11.037   1.714   2.939 -0.6708 -0.1909  0.1663
  125MOL0     O16748  11.012   1.618   3.022 -0.7246 -0.1663 -0.3918
  125MOL0     C16749  10.921   1.654   3.139 -1.1143 -0.1122 -0.6167
  125MOL0     C16750  10.805   1.545   3.155  0.0459 -0.1769  0.7688
  125MOL0     C16751  10.840   1.398   3.124 -0.2867  1.0476 -0.1358
  125MOL0     C16752  10.921   1.326   3.227 -0.1401 -0.4290 -1.1130
  125MOL0     C16753  10.839   1.259   3.336 -0.4618 -0.4749  0.1879
  125MOL0     C16754  10.805   1.107   3.295  0.3731  0.0129 -0.1191
  125MOL0     C16755  10.726   1.018   3.400 -0.5522  0.2872  0.6837
  125MOL0     C16756  10.583   1.061   3.433  0.0622  0.1004 -0.5664
  125MOL0     N16757  10.508   0.951   3.502 -0.1632 -0.4309 -0.0483
  125MOL0     C16758  10.440   0.955   3.628 -0.3301 -0.0801 -0.6826
  125MOL0     C16759  10.400   0.822   3.650  0.3759  0.0759 -0.3855
  125MOL0     C16760  10.303   0.791   3.765  0.3329  0.2517 -0.8594
  125MOL0     C16761  10.280   0.639   3.799 -0.2935  0.5615 -0.2771
  125MOL0     C16762  10.214   0.628   3.933 -0.3787  1.0492  0.0825
  125MOL0     C16763  10.147   0.496   3.977  0.5620  0.3098  0.0999
  125MOL0     O16764  10.043   0.452   3.886  0.8775  0.3872  0.4435
  125MOL0     C16765   9.913   0.503   3.908 -0.0443 -0.4000 -0.3947
  125MOL0     C16766   9.808   0.455   3.830 -1.2672 -0.0771  0.2273
  125MOL0     C16767   9.679   0.519   3.825 -0.4757  0.9440  0.4173
  125MOL0     C16768   9.588   0.456   3.715  0.3683 -0.0036 -0.4560
  125MOL0     C16769   9.647   0.624   3.921  0.3418  0.5792 -0.1628
  125MOL0     C16770   9.520   0.704   3.909  0.7036 -0.1462 -0.3560
  125MOL0     O16771   9.466   0.742   4.029  1.4390  0.3824  0.1102
  125MOL0     C16772   9.332   0.791   4.031  0.2188  0.5037  0.2465
  125MOL0     C16773   9.229   0.702   4.006  0.6652  0.7809  0.0655
  125MOL0     C16774   9.102   0.760   3.978 -0.0996  0.3324  0.1230
  125MOL0     C16775   9.083   0.902   3.993 -0.0229  1.0062  0.6773
  125MOL0     O16776   8.956   0.952   3.976 -0.4010 -0.1642  0.0521
  125MOL0     C16777   8.851   0.861   3.948  0.8650 -0.6897 -0.1987
  125MOL0     C16778   8.725   0.947   3.955  0.3393  0.6557 -0.3018
  125MOL0     C16779   8.697   1.038   3.830  0.1063  0.2504  0.0309
  125MOL0     C16780   8.574   1.123   3.837  0.8449 -0.0298  0.2555
  125MOL0     C16781   8.533   1.181   3.706 -0.1270 -0.8083  0.3373
  125MOL0     C16782   8.412   1.272   3.714 -0.5459  0.6596 -0.2497
  125MOL0     C16783   8.376   1.323   3.576  0.2633 -0.7569  0.9133
  125MOL0     C16784   8.268   1.231   3.512 -0.6605  0.0196  0.4429
  125MOL0    Cl16785   8.094   1.258   3.553 -0.3645  0.1413  0.1313
  125MOL0     C16786   9.193   0.978   4.025  0.7819 -0.2342 -0.7569
  125MOL0     C16787   9.317   0.925   4.041 -0.8894 -0.3257 -1.4015
  125MOL0     O16788   9.460   0.709   3.802 -0.2659 -0.0595 -0.2677
  125MOL0     C16789   9.748   0.654   4.014  0.0202  0.4954 -0.0050
  125MOL0     C16790   9.878   0.597   4.011 -0.1243  0.2317  0.6343
  125MOL0     N16791  10.443   0.743   3.546 -0.7615  0.4007 -0.2115
  125MOL0     N16792  10.510   0.821   3.457 -0.0694  0.0729  0.2742
  125MOL0     C16793  11.118   1.817   2.975  0.2877 -0.6192 -0.3024
  125MOL0     C16794  11.161   1.923   2.887 -0.4176  0.0292 -0.7223
  125MOL0     C16795  11.236   2.025   2.417  0.5639  0.0385 -0.1197
  125MOL0     C16796  11.286   1.985   2.292  0.1073 -0.1189 -0.1024
  125MOL0     C16797  11.306   2.075   2.186  0.4257 -0.4112 -0.6668
  125MOL0     C16798  11.287   2.215   2.207 -0.1663  0.0418 -0.5936
  125MOL0     O16799  11.331   2.290   2.105 -0.3324 -0.0496  0.6078
  125MOL0     C16800  11.357   2.427   2.136  1.1460 -0.5542 -0.7070
  125MOL0     C16801  11.393   2.513   2.007  0.8671  1.7869 -0.7210
  125MOL0     C16802  11.506   2.447   1.931  0.2027 -0.2791  0.5306
  125MOL0     C16803  11.645   2.425   2.014  0.4450  0.5546  1.7001
  125MOL0     C16804  11.698   2.555   2.066  0.4840 -0.7866 -0.1690
  125MOL0     C16805  11.744   2.660   2.102 -0.2846 -0.1398 -0.7069
  125MOL0     C16806  11.233   2.250   2.332  0.0375 -0.3210  0.2596
  125MOL0     C16807  11.203   2.158   2.432 -0.0420 -0.4877 -0.1968
  125MOL0     H16808  11.005   1.794   2.611  0.3752  2.7552 -0.6111
  125MOL0     H16809  10.918   1.636   2.774  0.7850  0.1033 -0.4619
  125MOL0     H16810  10.982   1.642   3.229 -0.5164 -0.8466 -1.1098
  125MOL0     H16811  10.903   1.762   3.136  1.4428  0.4087  0.3250
  125MOL0     H16812  10.740   1.554   3.242 -1.9257 -0.9941 -0.5421
  125MOL0     H16813  10.733   1.569   3.075  1.4596  0.0486 -0.4735
  125MOL0     H16814  10.752   1.336   3.102  1.2200 -1.1284 -0.3373
  125MOL0     H16815  10.898   1.395   3.032 -0.3445  1.3130 -0.1831
  125MOL0     H16816  10.986   1.253   3.179 -0.2900 -0.3227 -1.4792
  125MOL0     H16817  10.970   1.411   3.274 -3.4287  0.5588  0.8488
  125MOL0     H16818  10.912   1.250   3.418  1.6878  1.4709 -1.3914
  125MOL0     H16819  10.748   1.313   3.364  1.5613  1.9019  2.7546
  125MOL0     H16820  10.733   1.113   3.212 -1.6773  1.7007  1.6583
  125MOL0     H16821  10.898   1.057   3.265  1.3532  0.1424  2.4983
  125MOL0     H16822  10.741   0.916   3.363 -0.5408  1.1107 -1.8107
  125MOL0     H16823  10.793   1.008   3.485  1.0877  1.4326 -0.4097
  125MOL0     H16824  10.523   1.091   3.347 -0.6700 -1.8081 -0.7632
  125MOL0     H16825  10.577   1.140   3.509  2.3808  0.0075 -0.2292
  125MOL0     H16826  10.408   1.036   3.693 -3.4787 -2.9996  1.7342
  125MOL0     H16827  10.346   0.825   3.860  1.9838  0.4643 -1.6538
  125MOL0     H16828  10.208   0.842   3.746  1.0017  1.7648 -0.3204
  125MOL0     H16829  10.371   0.578   3.808 -0.0139  1.0113 -0.0247
  125MOL0     H16830  10.214   0.589   3.727 -1.3773 -1.3156  1.8821
  125MOL0     H16831  10.138   0.706   3.935 -1.1800  0.3012 -0.2500
  125MOL0     H16832  10.296   0.643   4.004  0.8131 -1.9818 -0.4838
  125MOL0     H16833  10.103   0.494   4.077 -2.8038  2.2316 -1.1753
  125MOL0     H16834  10.225   0.421   3.965  1.3334  1.2023 -0.7499
  125MOL0     H16835   9.833   0.385   3.751 -0.5922 -0.5246  0.8292
  125MOL0     H16836   9.504   0.424   3.778  0.1746 -1.6176 -1.4763
  125MOL0     H16837   9.557   0.538   3.649 -0.5195  2.1384  2.4029
  125MOL0     H16838   9.619   0.372   3.652 -3.2129 -2.3935  0.6519
  125MOL0     H16839   9.246   0.598   3.979 -0.3983  0.5561  0.2120
  125MOL0     H16840   9.026   0.686   3.956 -0.2819  0.3287  0.7473
  125MOL0     H16841   8.865   0.826   3.846  0.4825  0.0377 -0.5064
  125MOL0     H16842   8.853   0.787   4.029  0.7623 -1.6265 -1.0346
  125MOL0     H16843   8.631   0.890   3.963 -2.6396  5.1356  0.1649
  125MOL0     H16844   8.722   1.001   4.050  2.2930  2.5617 -1.2349
  125MOL0     H16845   8.706   0.977   3.740  2.4286 -0.7832  0.8950
  125MOL0     H16846   8.779   1.110   3.829  0.6264 -0.2052  2.6753
  125MOL0     H16847   8.491   1.068   3.882  0.1467  0.1791 -0.7528
  125MOL0     H16848   8.591   1.198   3.915 -0.8336  0.2493  0.3881
  125MOL0     H16849   8.507   1.100   3.638  0.6392  1.1554 -2.4639
  125MOL0     H16850   8.608   1.243   3.657 -2.3667  0.6117 -1.5145
  125MOL0     H16851   8.323   1.230   3.762  1.6847 -1.3935  2.4480
  125MOL0     H16852   8.449   1.358   3.770 -2.6700  0.8051  1.0131
  125MOL0     H16853   8.464   1.331   3.512  0.4811  0.0195  1.2919
  125MOL0     H16854   8.330   1.422   3.586 -0.8501 -1.1454 -0.0136
  125MOL0     H16855   8.286   1.128   3.542 -0.3173 -0.8736 -2.4785
  125MOL0     H16856   8.262   1.246   3.403  0.5672  3.9433  0.7616
  125MOL0     H16857   9.185   1.086   4.021  5.0805  0.2520 -0.4748
  125MOL0     H16858   9.397   0.997   4.057 -0.7686 -0.8730  0.7245
  125MOL0     H16859   9.727   0.732   4.086 -3.1144  0.2068 -0.4952
  125MOL0     H16860   9.960   0.614   4.079  2.0886 -4.8065 -0.3010
  125MOL0     H16861  11.154   1.825   3.077 -3.8645 -0.4660  1.3365
  125MOL0     H16862  11.233   1.997   2.921 -0.1990  1.2558 -3.6192
  125MOL0     H16863  11.301   1.878   2.278  2.0361  0.1077  0.0030
  125MOL0     H16864  11.349   2.029   2.098 -1.1522 -3.5316  0.0327
  125MOL0     H16865  11.260   2.463   2.172  0.3442 -3.1034 -0.1515
  125MOL0     H16866  11.425   2.447   2.219  3.3090  4.2233 -3.2338
  125MOL0     H16867  11.421   2.614   2.040 -1.9441  2.5887 -0.5782
  125MOL0     H16868  11.300   2.520   1.950 -0.3276  2.1185  1.1667
  125MOL0     H16869  11.521   2.513   1.845  0.7336  3.8287  3.4681
  125MOL0     H16870  11.476   2.348   1.897 -2.0640  0.7013 -0.5174
  125MOL0     H16871  11.718   2.389   1.941  2.1559  2.9893  2.0870
  125MOL0     H16872  11.636   2.343   2.086  0.7507 -0.1215  0.9918
  125MOL0     H16873  11.778   2.756   2.135 -0.4434 -0.3043 -0.0431
  125MOL0     H16874  11.201   2.353   2.344 -0.4964 -0.6112  1.5607
  125MOL0     H16875  11.150   2.199   2.518  2.4790 -0.4997  1.4609
  126MOL0     O16876   4.756   4.902   1.291 -0.0220 -0.1178 -1.2163
  126MOL0     C16877   4.812   4.877   1.188 -0.1589  0.3278  0.0143
  126MOL0     O16878   4.927   4.803   1.181 -1.3158  0.6442 -0.5691
  126MOL0     C16879   4.971   4.724   1.292 -0.1470 -0.4760  0.0931
  126MOL0     C16880   4.890   4.633   1.361  0.3673 -0.0141  0.8227
  126MOL0     C16881   4.947   4.558   1.469  0.2264 -0.7331 -0.7650
  126MOL0     C16882   5.083   4.571   1.507  0.1488  0.4343 -0.4885
  126MOL0     O16883   5.129   4.485   1.599 -0.8809 -0.6741  0.1484
  126MOL0     C16884   5.122   4.552   1.729  0.1299 -0.1851 -0.1369
  126MOL0     C16885   5.143   4.428   1.819  0.3941 -0.0367 -0.8915
  126MOL0     C16886   5.149   4.474   1.959 -0.4257  0.5406 -0.5455
  126MOL0     C16887   5.209   4.371   2.051 -0.0584  0.2062 -0.1435
  126MOL0     C16888   5.186   4.423   2.195 -0.5000 -0.3313  0.2377
  126MOL0     C16889   5.282   4.527   2.256  0.0533 -0.0706 -0.7012
  126MOL0     C16890   5.429   4.484   2.286  0.9203 -0.1460  0.2373
  126MOL0     C16891   5.525   4.498   2.176 -0.4266  0.2908  0.1346
  126MOL0     N16892   5.664   4.486   2.228 -0.1026 -1.2726  0.6012
  126MOL0     C16893   5.777   4.494   2.145  0.1034  0.5674 -0.5455
  126MOL0     C16894   5.879   4.483   2.234 -0.1497  0.0251 -0.0264
  126MOL0     C16895   6.021   4.505   2.185  0.6739  0.7353 -1.0768
  126MOL0     C16896   6.049   4.414   2.062  0.4762  0.3026 -0.4600
  126MOL0     C16897   6.063   4.271   2.114 -0.5423 -1.2114 -0.0176
  126MOL0     C16898   6.111   4.168   2.003  0.3419 -0.0358  0.5347
  126MOL0     O16899   6.050   4.038   2.035  0.3709  0.1936 -0.5396
  126MOL0     C16900   6.130   3.953   2.112 -0.2376 -0.8696 -0.4745
  126MOL0     C16901   6.080   3.825   2.129  0.0806  0.0836  0.7426
  126MOL0     C16902   6.155   3.724   2.179  1.0622  0.4364  0.3954
  126MOL0     C16903   6.098   3.585   2.164 -0.6824  0.3818  0.0458
  126MOL0     C16904   6.265   3.757   2.250 -0.8983  0.1314 -0.2703
  126MOL0     C16905   6.357   3.661   2.325  0.3797  0.1919 -0.6917
  126MOL0     O16906   6.445   3.714   2.413 -0.1938  0.1333 -0.1563
  126MOL0     C16907   6.537   3.637   2.483 -0.5094 -0.6436 -0.9279
  126MOL0     C16908   6.662   3.700   2.520  1.0346  0.1984  0.3565
  126MOL0     C16909   6.751   3.627   2.594  0.4967 -0.7508  0.4268
  126MOL0     C16910   6.715   3.500   2.641 -0.3004 -0.5253  0.4632
  126MOL0     O16911   6.800   3.422   2.713 -0.1026  0.6749  0.1021
  126MOL0     C16912   6.926   3.477   2.758 -1.1381 -0.0239  0.4971
  126MOL0     C16913   6.904   3.574   2.883 -0.0807  0.0539 -0.0801
  126MOL0     C16914   6.921   3.498   3.025  0.1320  0.2134  0.4406
  126MOL0     C16915   7.059   3.430   3.052 -0.6520  0.4467  0.5520
  126MOL0     C16916   7.077   3.390   3.194  0.0531 -0.6082 -0.0976
  126MOL0     C16917   7.177   3.282   3.218  0.5694  0.4474  0.1819
  126MOL0     C16918   7.114   3.150   3.181  0.0802 -0.2999  0.3165
  126MOL0     C16919   7.186   3.036   3.239 -0.4964 -0.7607 -0.3466
  126MOL0    Cl16920   7.364   3.022   3.185  0.2423  0.4949 -0.1945
  126MOL0     C16921   6.596   3.442   2.613 -0.4151 -1.5986  0.7007
  126MOL0     C16922   6.502   3.509   2.539  0.2115  0.1137  0.9995
  126MOL0     O16923   6.341   3.538   2.314  0.1916  0.4086 -0.2792
  126MOL0     C16924   6.320   3.889   2.243  0.2845 -0.9357  0.0427
  126MOL0     C16925   6.250   3.983   2.177  1.2186  0.5013 -0.4973
  126MOL0     N16926   5.828   4.475   2.360  0.4384  0.6004  0.2050
  126MOL0     N16927   5.705   4.479   2.353  0.2371  0.0565  0.2235
  126MOL0     C16928   5.161   4.667   1.439 -0.5368 -0.0954 -0.1916
  126MOL0     C16929   5.107   4.736   1.336 -0.1255  0.2000  0.5920
  126MOL0     C16930   4.772   4.943   1.065  0.7624  0.2424 -0.4725
  126MOL0     C16931   4.855   4.918   0.950  0.0952 -0.8255 -0.5139
  126MOL0     C16932   4.824   4.989   0.838  0.5619  0.7956  0.4698
  126MOL0     C16933   4.729   5.092   0.826  0.2324  0.5706  0.4172
  126MOL0     O16934   4.709   5.169   0.710  0.2149 -0.8535 -0.2167
  126MOL0     C16935   4.616   5.102   0.625  0.2979  0.4526  1.2102
  126MOL0     C16936   4.678   5.007   0.527  0.0409 -0.4389  0.1304
  126MOL0     C16937   4.732   5.103   0.419 -0.2562 -0.0812 -1.0902
  126MOL0     C16938   4.785   5.020   0.301 -0.4729  0.7943 -0.3563
  126MOL0     C16939   4.696   4.932   0.221 -1.1727  0.2535 -0.0497
  126MOL0     C16940   4.630   4.851   0.149 -0.2940  0.4743  0.8471
  126MOL0     C16941   4.655   5.120   0.947 -0.6162 -0.1025 -0.0732
  126MOL0     C16942   4.675   5.045   1.064  0.0141  0.5127 -0.1706
  126MOL0     H16943   4.789   4.617   1.324 -0.3542  1.7428  1.9408
  126MOL0     H16944   4.902   4.470   1.511  0.4034 -0.3500  0.2449
  126MOL0     H16945   5.198   4.628   1.748 -0.3687 -0.1371  1.8191
  126MOL0     H16946   5.027   4.602   1.747  0.3568 -0.0521  0.7561
  126MOL0     H16947   5.056   4.361   1.813  0.6279 -1.3406  4.5911
  126MOL0     H16948   5.231   4.369   1.794  1.0320  1.0820 -1.3219
  126MOL0     H16949   5.200   4.570   1.970  1.7514 -0.5499 -0.6156
  126MOL0     H16950   5.047   4.506   1.982  0.3987  2.5476  0.5212
  126MOL0     H16951   5.155   4.277   2.039  0.4050 -0.5343  2.7112
  126MOL0     H16952   5.315   4.366   2.024 -0.4070 -0.6539 -1.4229
  126MOL0     H16953   5.086   4.466   2.206 -0.4559 -0.6322  2.2244
  126MOL0     H16954   5.200   4.334   2.258  2.4126  2.1436  3.5256
  126MOL0     H16955   5.281   4.618   2.197  1.3852  0.9793  0.8078
  126MOL0     H16956   5.237   4.560   2.350  0.2573  1.6322 -1.1835
  126MOL0     H16957   5.468   4.540   2.371  0.2470  2.9469 -1.3328
  126MOL0     H16958   5.432   4.376   2.304 -0.4377 -0.1136  0.7875
  126MOL0     H16959   5.506   4.588   2.117 -1.7708 -0.1576 -0.1602
  126MOL0     H16960   5.516   4.410   2.111 -3.9850 -0.6262  1.6303
  126MOL0     H16961   5.806   4.513   2.042  2.2649  0.3197 -0.0305
  126MOL0     H16962   6.055   4.607   2.162  4.0041  0.0916  0.4488
  126MOL0     H16963   6.071   4.484   2.280 -3.0346  0.2515  0.9583
  126MOL0     H16964   6.148   4.435   2.021  0.5166 -2.8323 -2.3227
  126MOL0     H16965   5.965   4.429   1.994  0.6022  0.7676 -0.5141
  126MOL0     H16966   5.966   4.241   2.154 -1.4307  0.6111 -0.7273
  126MOL0     H16967   6.128   4.264   2.202 -0.8932 -2.7233  0.1526
  126MOL0     H16968   6.219   4.155   1.994  0.2663 -0.7702  0.6496
  126MOL0     H16969   6.078   4.199   1.903 -0.7246 -0.3462  0.7752
  126MOL0     H16970   5.982   3.801   2.087  1.2874  0.2381 -2.4197
  126MOL0     H16971   6.155   3.531   2.088  0.5504 -2.6394  2.8385
  126MOL0     H16972   6.107   3.529   2.258  0.4921 -2.1763 -1.4887
  126MOL0     H16973   5.993   3.590   2.134 -0.3717  2.4434 -0.8298
  126MOL0     H16974   6.690   3.797   2.480  2.5091 -0.6908 -0.8437
  126MOL0     H16975   6.839   3.682   2.624 -0.1199 -0.6157  2.0474
  126MOL0     H16976   6.987   3.391   2.788 -0.9416 -0.6703 -1.5887
  126MOL0     H16977   6.960   3.536   2.673 -1.5059  2.2068  1.8270
  126MOL0     H16978   6.989   3.643   2.883  1.4182 -1.7097  0.6586
  126MOL0     H16979   6.815   3.637   2.870  0.3065  0.9498  1.4207
  126MOL0     H16980   6.844   3.422   3.041  1.0576 -0.2252  3.3324
  126MOL0     H16981   6.906   3.581   3.095 -1.4761  0.1910  0.1627
  126MOL0     H16982   7.062   3.337   2.994 -0.5532  0.4467  0.5577
  126MOL0     H16983   7.150   3.484   3.025 -0.0723 -0.0298  1.5157
  126MOL0     H16984   6.982   3.370   3.243 -0.0057 -1.9199 -0.7065
  126MOL0     H16985   7.123   3.469   3.254  2.0617 -2.6379  1.1976
  126MOL0     H16986   7.266   3.301   3.157  0.1822  0.6364 -0.3299
  126MOL0     H16987   7.212   3.292   3.321  2.3720  1.6714 -0.4820
  126MOL0     H16988   7.124   3.131   3.074 -0.2195  0.5471  0.1276
  126MOL0     H16989   7.007   3.145   3.202 -0.1174 -2.9383 -0.8244
  126MOL0     H16990   7.131   2.945   3.211 -0.0373 -0.6450 -1.7019
  126MOL0     H16991   7.181   3.047   3.347  1.8135 -1.2272 -0.1416
  126MOL0     H16992   6.575   3.337   2.634 -0.6221 -1.2213  2.6062
  126MOL0     H16993   6.409   3.459   2.514  0.7920 -0.5138  0.0127
  126MOL0     H16994   6.415   3.906   2.292  0.8390  2.3135 -1.8808
  126MOL0     H16995   6.281   4.087   2.177 -0.8576  1.1754 -0.7307
  126MOL0     H16996   5.269   4.678   1.444 -0.6192  0.3137  0.7801
  126MOL0     H16997   5.185   4.798   1.292  0.3166  0.0500  1.1441
  126MOL0     H16998   4.941   4.853   0.942  0.1173 -0.6250 -2.5034
  126MOL0     H16999   4.885   4.984   0.748  0.4671 -1.2364  0.4759
  126MOL0     H17000   4.542   5.044   0.681 -0.1453 -1.1221 -0.8684
  126MOL0     H17001   4.564   5.180   0.569  1.1972  0.2699  0.0876
  126MOL0     H17002   4.609   4.934   0.485  0.7523 -2.0221  1.6093
  126MOL0     H17003   4.758   4.951   0.576  1.4277 -1.3627 -2.9310
  126MOL0     H17004   4.818   5.158   0.458  1.1252 -2.5482 -0.4782
  126MOL0     H17005   4.657   5.171   0.377 -0.9320 -0.7422 -0.9821
  126MOL0     H17006   4.854   4.946   0.343 -0.1273  0.7235 -1.0380
  126MOL0     H17007   4.838   5.089   0.235  1.0218  0.6500  0.6411
  126MOL0     H17008   4.588   4.784   0.077 -0.1264  0.7042  0.5281
  126MOL0     H17009   4.584   5.203   0.940  2.1377  2.4745  0.4858
  126MOL0     H17010   4.617   5.065   1.154  1.3823 -0.4441  0.9786
  127MOL0     O17011   5.543   9.285   7.385 -0.4096 -0.1812  0.7912
  127MOL0     C17012   5.526   9.406   7.360  0.2139  0.5877  0.2552
  127MOL0     O17013   5.589   9.475   7.265 -0.2076 -0.5329 -0.0922
  127MOL0     C17014   5.707   9.425   7.211  0.6683 -0.1564  0.6940
  127MOL0     C17015   5.811   9.383   7.299 -0.2680 -0.2553 -0.3399
  127MOL0     C17016   5.936   9.338   7.249  0.5691 -0.5310 -0.4431
  127MOL0     C17017   5.949   9.326   7.110  0.1021 -0.1645 -0.3844
  127MOL0     O17018   6.067   9.275   7.064  0.4719  0.2545 -0.5529
  127MOL0     C17019   6.071   9.133   7.060 -0.3346 -0.4235  0.3245
  127MOL0     C17020   6.162   9.081   7.154 -0.4818  0.2114 -0.4035
  127MOL0     C17021   6.162   8.933   7.152 -0.3341  0.7927 -0.1801
  127MOL0     C17022   6.226   8.867   7.275  0.9967  0.3867  0.3722
  127MOL0     C17023   6.378   8.856   7.250  0.2546  0.5190 -0.3438
  127MOL0     C17024   6.431   8.733   7.327 -0.1030 -0.7849 -0.2780
  127MOL0     C17025   6.585   8.707   7.301  0.0146  0.0807 -0.2664
  127MOL0     C17026   6.629   8.575   7.385  0.3476  0.2353  0.3844
  127MOL0     N17027   6.614   8.600   7.531  0.3757 -0.9264 -0.0512
  127MOL0     C17028   6.616   8.717   7.607 -0.5918  0.4263  0.4481
  127MOL0     C17029   6.583   8.676   7.739 -0.3544 -0.6881  0.6572
  127MOL0     C17030   6.586   8.762   7.866 -0.0179  0.7307 -0.2686
  127MOL0     C17031   6.437   8.798   7.904  0.4367  1.2410 -0.1777
  127MOL0     C17032   6.348   8.865   7.798 -0.2695 -0.3895 -0.0208
  127MOL0     C17033   6.256   8.762   7.728 -0.0112 -0.2414  0.3324
  127MOL0     O17034   6.169   8.834   7.636  0.2176 -0.7016 -0.8825
  127MOL0     C17035   6.052   8.772   7.596  0.1548 -0.8835  1.2139
  127MOL0     C17036   5.985   8.854   7.513  0.3082 -0.0649 -0.3706
  127MOL0     C17037   5.880   8.804   7.446  0.9341 -0.1843 -0.1709
  127MOL0     C17038   5.809   8.912   7.365 -0.2041  0.8325  0.0432
  127MOL0     C17039   5.822   8.681   7.476  0.2074 -0.1577 -0.5038
  127MOL0     C17040   5.698   8.622   7.407  0.2328  0.3075 -0.1045
  127MOL0     O17041   5.661   8.499   7.459 -0.2349 -0.2232  0.4022
  127MOL0     C17042   5.556   8.442   7.389  0.9571  0.1265 -0.6195
  127MOL0     C17043   5.579   8.351   7.289 -0.1661 -0.7964 -0.3111
  127MOL0     C17044   5.475   8.289   7.225  0.4420  0.1924  0.4667
  127MOL0     C17045   5.339   8.322   7.258  0.2629  0.5634  0.9122
  127MOL0     O17046   5.238   8.238   7.208  0.0042 -0.3902  0.6754
  127MOL0     C17047   5.200   8.268   7.066  0.2658  0.4965  0.2517
  127MOL0     C17048   5.236   8.159   6.962 -0.3322  0.1358  0.5844
  127MOL0     C17049   5.220   8.195   6.814 -0.5972 -0.0509  0.5041
  127MOL0     C17050   5.252   8.078   6.716 -0.1111  0.2963 -0.9916
  127MOL0     C17051   5.325   8.126   6.589  0.1105 -0.2895 -0.9110
  127MOL0     C17052   5.346   8.006   6.503 -0.5953 -0.2766  0.4546
  127MOL0     C17053   5.489   7.948   6.526  0.7318 -0.1591 -0.1626
  127MOL0     C17054   5.598   8.016   6.433  0.0067  0.1507 -0.1187
  127MOL0    Cl17055   5.574   7.985   6.259 -0.6330 -0.7783 -0.1256
  127MOL0     C17056   5.310   8.417   7.356 -1.0177 -0.7940 -1.0990
  127MOL0     C17057   5.421   8.485   7.420 -0.3611  0.6738  0.5103
  127MOL0     O17058   5.632   8.689   7.323 -0.4071  0.0537 -0.3315
  127MOL0     C17059   5.892   8.599   7.564 -0.5434 -0.2966  0.5729
  127MOL0     C17060   6.006   8.649   7.623 -0.4169 -0.0115 -0.0718
  127MOL0     N17061   6.563   8.538   7.737  0.1774  0.2468 -0.6241
  127MOL0     N17062   6.588   8.494   7.613  0.8803 -0.5629 -0.8368
  127MOL0     C17063   5.853   9.368   7.026  0.2222 -0.0043 -0.1600
  127MOL0     C17064   5.733   9.419   7.074  0.6189 -0.5014  0.4245
  127MOL0     C17065   5.422   9.467   7.438  0.7643  0.0260 -0.3676
  127MOL0     C17066   5.395   9.601   7.430 -0.0377 -0.3214 -0.5415
  127MOL0     C17067   5.296   9.663   7.499 -0.3087  0.0166 -1.1334
  127MOL0     C17068   5.215   9.586   7.587  0.4816 -0.2657  0.0863
  127MOL0     O17069   5.102   9.633   7.649  0.2948 -0.1471  0.7462
  127MOL0     C17070   5.112   9.770   7.703  0.2362  0.4104  0.4977
  127MOL0     C17071   5.037   9.856   7.603  0.3863  0.1326 -0.4063
  127MOL0     C17072   5.005   9.994   7.654  0.1136  0.8443  0.7462
  127MOL0     C17073   4.876  10.028   7.737 -0.5677  1.1005  0.0453
  127MOL0     C17074   4.911   9.972   7.872  1.4386  0.0725 -0.3753
  127MOL0     C17075   4.923   9.917   7.983 -1.1756  0.4435  0.9444
  127MOL0     C17076   5.235   9.447   7.596 -0.9244  1.0272 -0.4622
  127MOL0     C17077   5.348   9.389   7.532 -0.4619 -0.5749 -0.1177
  127MOL0     H17078   5.793   9.399   7.405 -3.4172  2.3968 -1.1168
  127MOL0     H17079   6.029   9.320   7.302  1.2251 -0.2515 -1.4802
  127MOL0     H17080   5.970   9.091   7.060  0.1726 -1.6895 -0.3973
  127MOL0     H17081   6.117   9.096   6.968  0.3360  0.5535  0.2518
  127MOL0     H17082   6.266   9.112   7.135  0.0349  0.4007  2.2994
  127MOL0     H17083   6.138   9.117   7.255  2.4502 -0.6390  0.7317
  127MOL0     H17084   6.060   8.896   7.161  0.0638 -0.2186  0.4277
  127MOL0     H17085   6.196   8.888   7.058  2.6171 -1.8109  1.9232
  127MOL0     H17086   6.210   8.945   7.350 -0.7626 -0.3916  0.8615
  127MOL0     H17087   6.178   8.769   7.285  1.6107  0.0094 -0.3147
  127MOL0     H17088   6.407   8.849   7.145  0.6380 -1.7849 -0.1283
  127MOL0     H17089   6.411   8.951   7.293 -2.5444  2.2450 -1.6835
  127MOL0     H17090   6.401   8.747   7.431 -4.7643 -0.3143 -1.4813
  127MOL0     H17091   6.378   8.644   7.291 -2.3301  0.8838 -1.3473
  127MOL0     H17092   6.612   8.698   7.195  1.0674 -1.0973  0.0732
  127MOL0     H17093   6.649   8.791   7.331  2.2573 -0.8832 -1.9588
  127MOL0     H17094   6.736   8.553   7.380 -0.1273 -2.1679 -1.1857
  127MOL0     H17095   6.585   8.485   7.340  2.0345  0.5415 -2.0750
  127MOL0     H17096   6.643   8.820   7.585  0.3725 -0.0042 -0.4840
  127MOL0     H17097   6.639   8.709   7.946  0.6762 -0.6056 -1.5604
  127MOL0     H17098   6.639   8.856   7.847 -2.6539  2.0784 -1.4590
  127MOL0     H17099   6.451   8.857   7.996  1.7871  0.0159  0.4359
  127MOL0     H17100   6.386   8.712   7.947  2.2296  1.0129  1.6399
  127MOL0     H17101   6.411   8.913   7.722  0.9937 -0.3081  1.0301
  127MOL0     H17102   6.282   8.929   7.857 -0.5444 -0.2581 -0.4670
  127MOL0     H17103   6.202   8.709   7.807 -1.5391  0.5556 -0.1283
  127MOL0     H17104   6.311   8.689   7.668  3.0048  2.2429 -0.1756
  127MOL0     H17105   6.028   8.950   7.487  1.5985 -0.6816 -0.5914
  127MOL0     H17106   5.810   8.876   7.261 -0.8222 -1.2054  0.6911
  127MOL0     H17107   5.709   8.911   7.410 -0.1930 -4.4763  0.6574
  127MOL0     H17108   5.853   9.011   7.375  0.9708  0.4773 -1.2096
  127MOL0     H17109   5.674   8.339   7.238 -0.4416  4.0637 -2.5387
  127MOL0     H17110   5.498   8.211   7.153 -1.8114 -0.6784  0.6007
  127MOL0     H17111   5.092   8.280   7.050  0.5093 -0.2410 -2.4413
  127MOL0     H17112   5.239   8.368   7.046 -1.5059  0.9238 -1.4364
  127MOL0     H17113   5.341   8.133   6.981 -1.0561 -2.2089  1.8767
  127MOL0     H17114   5.174   8.070   6.978  0.3683 -0.1790  1.7297
  127MOL0     H17115   5.279   8.283   6.786 -3.0784  0.7154 -2.9769
  127MOL0     H17116   5.116   8.218   6.790  0.0719  0.3461 -2.3351
  127MOL0     H17117   5.314   8.003   6.764  1.0581  1.3201 -0.8481
  127MOL0     H17118   5.161   8.019   6.701 -2.5359  3.8172 -1.4026
  127MOL0     H17119   5.417   8.178   6.615  0.0175 -0.3753 -0.4038
  127MOL0     H17120   5.261   8.199   6.539 -0.2285  2.1896  2.7723
  127MOL0     H17121   5.273   7.929   6.531  0.5060 -2.4117 -2.0461
  127MOL0     H17122   5.325   8.021   6.396 -2.9502  0.4389  0.9588
  127MOL0     H17123   5.478   7.846   6.489 -0.4633  0.8512 -2.8990
  127MOL0     H17124   5.521   7.953   6.630 -0.6823 -0.8935  0.3319
  127MOL0     H17125   5.699   7.981   6.456  0.6795  1.8538 -0.2816
  127MOL0     H17126   5.597   8.124   6.450  1.3575  0.3287 -0.9715
  127MOL0     H17127   5.205   8.431   7.381 -0.7086  0.5106 -0.4552
  127MOL0     H17128   5.402   8.551   7.504  1.1406  1.0096  0.6104
  127MOL0     H17129   5.852   8.500   7.584 -3.2099  0.7543  0.8379
  127MOL0     H17130   6.064   8.585   7.690  0.7004 -0.7598 -1.6784
  127MOL0     H17131   5.862   9.366   6.917  1.0784  3.3135 -0.2607
  127MOL0     H17132   5.654   9.455   7.009 -0.7877  1.6429  3.0718
  127MOL0     H17133   5.453   9.650   7.353 -0.0842 -0.1923 -0.4933
  127MOL0     H17134   5.271   9.765   7.473 -1.1561 -0.7816 -3.7236
  127MOL0     H17135   5.069   9.787   7.802 -1.3096  2.8719 -0.5140
  127MOL0     H17136   5.216   9.804   7.697 -0.1907  1.5492 -1.1538
  127MOL0     H17137   4.943   9.809   7.573 -0.1422  1.9978 -1.8991
  127MOL0     H17138   5.096   9.871   7.512 -1.5596  0.8902 -1.6128
  127MOL0     H17139   4.979  10.060   7.570 -1.2939  1.5237  1.6753
  127MOL0     H17140   5.093  10.045   7.695  0.4448  1.4384 -0.6211
  127MOL0     H17141   4.780   9.983   7.710  0.9922 -2.8607  0.4567
  127MOL0     H17142   4.872  10.137   7.751  0.3956  1.2685 -0.9485
  127MOL0     H17143   4.948   9.876   8.080  1.4669  0.3408  0.3034
  127MOL0     H17144   5.164   9.388   7.652  0.4085 -0.7187 -0.5245
  127MOL0     H17145   5.364   9.286   7.563 -4.5911 -1.1086  0.8991
  128MOL0     O17146  10.111   9.504   1.683 -0.7457 -0.2755 -0.5800
  128MOL0     C17147  10.111   9.531   1.565 -0.3987  0.0584  0.5031
  128MOL0     O17148  10.223   9.570   1.493 -0.6247  0.5046 -0.4598
  128MOL0     C17149  10.335   9.611   1.555  0.1806 -0.0157  0.3693
  128MOL0     C17150  10.407   9.520   1.640  0.5217 -0.5290  0.8001
  128MOL0     C17151  10.518   9.575   1.703  1.1889  0.4574 -0.1784
  128MOL0     C17152  10.558   9.703   1.684 -0.5769  0.2536 -0.4406
  128MOL0     O17153  10.656   9.752   1.762 -0.1521 -0.1636 -0.4776
  128MOL0     C17154  10.613   9.805   1.891 -0.3629 -0.6317 -0.8449
  128MOL0     C17155  10.710   9.872   1.986 -0.1068  0.0758  0.5288
  128MOL0     C17156  10.790   9.781   2.082  0.3047 -0.4131  0.6577
  128MOL0     C17157  10.833   9.647   2.031 -0.6063 -0.1669 -1.2268
  128MOL0     C17158  10.885   9.543   2.143 -1.3873  0.1552  1.0625
  128MOL0     C17159  10.943   9.410   2.080  0.4003  0.5608  0.0643
  128MOL0     C17160  10.842   9.352   1.964 -0.3094 -0.8593  0.6732
  128MOL0     C17161  10.693   9.338   2.007 -0.5382 -0.4368 -0.1234
  128MOL0     N17162  10.678   9.238   2.113  0.0501 -0.0964 -0.1910
  128MOL0     C17163  10.719   9.112   2.097  0.2834  0.2999  0.0816
  128MOL0     C17164  10.698   9.058   2.226 -0.1773 -0.6726 -0.8552
  128MOL0     C17165  10.740   8.921   2.270  0.0760 -0.5462  0.9922
  128MOL0     C17166  10.653   8.817   2.202  0.4053  0.7029 -0.1402
  128MOL0     C17167  10.698   8.681   2.246 -0.1051 -0.3229  0.0278
  128MOL0     C17168  10.609   8.578   2.177  0.2122  0.1277 -0.8150
  128MOL0     O17169  10.468   8.597   2.218 -0.1017  0.3710  0.2815
  128MOL0     C17170  10.379   8.545   2.134 -0.1674  0.1687  0.1472
  128MOL0     C17171  10.250   8.598   2.143  0.0197  0.2930  0.3822
  128MOL0     C17172  10.152   8.567   2.054 -0.4555 -0.8681 -0.6986
  128MOL0     C17173  10.013   8.616   2.079 -0.2506 -0.5862 -0.3942
  128MOL0     C17174  10.176   8.474   1.950 -1.9335  0.7628  0.3080
  128MOL0     C17175  10.080   8.420   1.847 -0.6670 -0.0064 -0.6027
  128MOL0     O17176   9.947   8.407   1.881  0.3871  0.0837  0.8652
  128MOL0     C17177   9.861   8.354   1.777  0.7535 -0.4263 -0.2950
  128MOL0     C17178   9.857   8.214   1.738 -0.5540 -0.3075  0.1301
  128MOL0     C17179   9.750   8.167   1.652  0.4722  0.3778  0.9055
  128MOL0     C17180   9.657   8.262   1.609 -0.4989  0.0630  0.1519
  128MOL0     O17181   9.571   8.207   1.518 -0.0920  0.2138  0.0271
  128MOL0     C17182   9.478   8.293   1.456 -0.0320  0.4339 -0.1148
  128MOL0     C17183   9.356   8.223   1.391 -0.7037 -0.4113 -0.3243
  128MOL0     C17184   9.248   8.327   1.354  0.0063  0.2852 -0.0226
  128MOL0     C17185   9.272   8.420   1.242 -0.5028  0.5555  0.1052
  128MOL0     C17186   9.257   8.345   1.107 -0.2886 -0.9624 -0.1193
  128MOL0     C17187   9.261   8.448   0.993 -0.4289 -0.3492  1.6937
  128MOL0     C17188   9.405   8.490   0.964  0.6232 -0.7207 -0.5796
  128MOL0     C17189   9.391   8.630   0.891  0.9429 -0.7686 -0.2505
  128MOL0    Cl17190   9.367   8.748   1.021 -0.6900 -0.4018 -0.3354
  128MOL0     C17191   9.655   8.395   1.653  0.8983  0.0994 -0.3555
  128MOL0     C17192   9.761   8.436   1.733  0.9830 -0.0807  0.4734
  128MOL0     O17193  10.124   8.396   1.736  0.2504  0.1762  0.8438
  128MOL0     C17194  10.311   8.410   1.944  0.7218  0.0588 -1.3417
  128MOL0     C17195  10.408   8.452   2.032  0.9894 -1.2274  0.1857
  128MOL0     N17196  10.653   9.157   2.310 -0.0173  0.5017 -0.2016
  128MOL0     N17197  10.637   9.266   2.238  0.6482  0.0538  0.2483
  128MOL0     C17198  10.482   9.786   1.604 -1.0515  0.0787  0.1801
  128MOL0     C17199  10.371   9.747   1.535  0.3699  0.8787 -0.7017
  128MOL0     C17200   9.988   9.519   1.476 -0.3319  0.1505 -0.6959
  128MOL0     C17201   9.983   9.566   1.348  0.0303  0.3645  0.5406
  128MOL0     C17202   9.866   9.574   1.273 -0.4635 -0.1933  0.9558
  128MOL0     C17203   9.760   9.510   1.337 -0.2865  0.5893 -0.4140
  128MOL0     O17204   9.637   9.513   1.275 -0.3583 -0.3271  0.0536
  128MOL0     C17205   9.634   9.421   1.160  0.5916  0.0417  0.2652
  128MOL0     C17206   9.620   9.499   1.026  0.1224 -0.6117 -0.0160
  128MOL0     C17207   9.627   9.397   0.903 -0.4406  0.1804  0.1777
  128MOL0     C17208   9.579   9.475   0.779  0.6292 -0.3061 -0.5273
  128MOL0     C17209   9.441   9.523   0.778 -0.7339 -0.1697  0.1669
  128MOL0     C17210   9.328   9.557   0.788  0.6148 -0.8403 -0.0608
  128MOL0     C17211   9.764   9.454   1.467  0.2577 -0.2551 -0.0708
  128MOL0     C17212   9.881   9.460   1.531 -0.4948  0.0749 -0.1979
  128MOL0     H17213  10.371   9.419   1.658  1.1503 -0.8139  0.4637
  128MOL0     H17214  10.582   9.516   1.768  2.0513  0.5980 -0.8923
  128MOL0     H17215  10.542   9.887   1.874 -1.6900 -1.8022 -1.1373
  128MOL0     H17216  10.564   9.725   1.947  0.6906 -1.3587 -0.9248
  128MOL0     H17217  10.775   9.927   1.918 -1.5410 -0.0063 -0.9592
  128MOL0     H17218  10.665   9.955   2.043 -0.6771  2.0598 -2.5634
  128MOL0     H17219  10.869   9.844   2.126  1.5684 -1.9526  0.6860
  128MOL0     H17220  10.724   9.746   2.162 -0.0203 -0.1888  0.4848
  128MOL0     H17221  10.750   9.605   1.973 -0.5635  1.4953 -2.5538
  128MOL0     H17222  10.912   9.646   1.955  0.9853  0.6675  0.3246
  128MOL0     H17223  10.964   9.587   2.206 -1.1379 -1.5890  2.0341
  128MOL0     H17224  10.802   9.521   2.210 -1.3601 -2.1788  0.4087
  128MOL0     H17225  11.047   9.422   2.049 -0.1915 -1.4975 -3.2811
  128MOL0     H17226  10.947   9.338   2.162 -1.6156  2.6802  2.1529
  128MOL0     H17227  10.845   9.412   1.872 -2.8799 -1.0279  0.4121
  128MOL0     H17228  10.876   9.257   1.923  2.5420  2.0992 -4.9650
  128MOL0     H17229  10.620   9.330   1.927 -0.5123  5.1304 -1.0443
  128MOL0     H17230  10.655   9.433   2.045 -2.7257 -0.9318 -0.9145
  128MOL0     H17231  10.765   9.068   2.009  0.1554 -0.4709  0.3966
  128MOL0     H17232  10.846   8.916   2.244  0.6465  1.6038  2.6057
  128MOL0     H17233  10.734   8.907   2.379  1.1833  1.0977  1.2984
  128MOL0     H17234  10.667   8.817   2.093 -3.5193 -1.3737 -0.8359
  128MOL0     H17235  10.547   8.831   2.223 -0.1130  1.2292 -2.7831
  128MOL0     H17236  10.681   8.669   2.354  1.4710 -0.0610  0.3330
  128MOL0     H17237  10.801   8.668   2.213 -0.6122  0.9961 -2.2716
  128MOL0     H17238  10.622   8.473   2.206 -2.3698  0.7932  3.6844
  128MOL0     H17239  10.621   8.588   2.069 -2.1059  2.3289 -0.9588
  128MOL0     H17240  10.233   8.662   2.229  1.5180  0.9466  0.2064
  128MOL0     H17241  10.008   8.700   2.148 -0.0172  0.5114 -1.6671
  128MOL0     H17242   9.960   8.651   1.989  1.9424  1.8603 -0.8679
  128MOL0     H17243   9.952   8.530   2.107 -0.2504 -0.4214  0.1198
  128MOL0     H17244   9.941   8.153   1.767  0.8199  2.0777  1.5278
  128MOL0     H17245   9.762   8.066   1.617  4.5121  0.9151  0.2577
  128MOL0     H17246   9.443   8.359   1.537  1.2258  0.7908  0.1633
  128MOL0     H17247   9.532   8.350   1.380  1.7711 -0.6148  0.3427
  128MOL0     H17248   9.389   8.159   1.309 -1.3576  2.5528 -3.1161
  128MOL0     H17249   9.305   8.157   1.462 -5.1773  0.1556 -2.6256
  128MOL0     H17250   9.229   8.393   1.439  1.3392  0.0972  0.4505
  128MOL0     H17251   9.156   8.275   1.325 -1.1976  2.9816 -1.4321
  128MOL0     H17252   9.202   8.504   1.248 -0.7299  0.5543 -1.7839
  128MOL0     H17253   9.368   8.468   1.260 -1.5520  2.3500  1.1671
  128MOL0     H17254   9.153   8.313   1.107 -0.4665 -0.4062 -0.0733
  128MOL0     H17255   9.331   8.266   1.095  1.4058  0.4985  0.1248
  128MOL0     H17256   9.222   8.394   0.906 -2.6301 -1.0874  3.0633
  128MOL0     H17257   9.199   8.534   1.019 -1.8473 -0.6738 -0.3289
  128MOL0     H17258   9.451   8.415   0.899  1.0197  1.1282 -2.5257
  128MOL0     H17259   9.469   8.501   1.052 -0.6126 -0.7804  0.3522
  128MOL0     H17260   9.310   8.627   0.818  0.4477  0.1204  0.2522
  128MOL0     H17261   9.483   8.653   0.835  1.9544  1.5742  2.1375
  128MOL0     H17262   9.591   8.473   1.613  0.9106  0.8303  0.9790
  128MOL0     H17263   9.769   8.534   1.778  0.4342 -0.0894  0.6028
  128MOL0     H17264  10.335   8.342   1.863  0.1716  0.6636 -2.0356
  128MOL0     H17265  10.510   8.423   2.007 -0.1434 -3.3337 -2.5209
  128MOL0     H17266  10.528   9.884   1.596  0.3843 -0.6864 -2.1223
  128MOL0     H17267  10.310   9.822   1.487 -2.8280 -2.2902 -2.0268
  128MOL0     H17268  10.071   9.616   1.308 -1.0602  1.9798  0.0643
  128MOL0     H17269   9.868   9.624   1.177  1.2647 -1.4394  0.2814
  128MOL0     H17270   9.716   9.348   1.163  0.9475  0.3840 -0.6481
  128MOL0     H17271   9.542   9.361   1.153 -0.0774  1.2268 -2.2474
  128MOL0     H17272   9.691   9.581   1.017 -0.5227 -0.0373  0.0521
  128MOL0     H17273   9.526   9.554   1.035 -0.7550 -1.4687 -2.9407
  128MOL0     H17274   9.562   9.311   0.920  2.2651 -2.3378 -1.3406
  128MOL0     H17275   9.726   9.351   0.895 -1.7871 -2.8682 -0.4927
  128MOL0     H17276   9.583   9.407   0.693  2.2196 -0.1660 -0.5871
  128MOL0     H17277   9.648   9.558   0.765  1.9895 -1.4680 -0.8961
  128MOL0     H17278   9.223   9.579   0.788  0.7038 -0.4020  0.3145
  128MOL0     H17279   9.673   9.417   1.512 -0.9766 -0.6471 -2.6904
  128MOL0     H17280   9.872   9.434   1.636 -3.5890  2.0184  0.1436
  129MOL0     O17281   5.407   3.234   0.406 -0.1881 -0.4412  0.7259
  129MOL0     C17282   5.474   3.155   0.335  0.8007  0.9135 -0.6159
  129MOL0     O17283   5.429   3.091   0.231  0.4801 -0.2673  0.2051
  129MOL0     C17284   5.299   3.091   0.188 -0.7494  0.1892 -0.4104
  129MOL0     C17285   5.185   3.149   0.254 -0.9603 -0.3020 -0.2684
  129MOL0     C17286   5.055   3.127   0.210  0.0543  0.2379 -0.4670
  129MOL0     C17287   5.032   3.046   0.099 -0.1424  0.5014  0.1991
  129MOL0     O17288   4.915   3.034   0.042 -0.1987  0.0921  0.1544
  129MOL0     C17289   4.839   3.151   0.026  0.7136 -0.6677  0.8011
  129MOL0     C17290   4.707   3.117  -0.048  0.2168  0.2188 -0.5233
  129MOL0     C17291   4.737   3.076  -0.195  0.3171 -0.3053 -1.0318
  129MOL0     C17292   4.604   3.037  -0.261  0.7911 -0.2841  0.4361
  129MOL0     C17293   4.638   2.943  -0.378 -0.4462  0.2282 -0.1904
  129MOL0     C17294   4.514   2.938  -0.469  0.1341  0.5926  0.1251
  129MOL0     C17295   4.526   2.821  -0.568  0.0051 -0.0901  0.8181
  129MOL0     C17296   4.620   2.859  -0.678  0.7886 -0.0494 -0.1980
  129MOL0     N17297   4.618   2.753  -0.773 -0.5956  0.4658 -0.5634
  129MOL0     C17298   4.545   2.747  -0.882  0.7744 -0.7080 -0.1663
  129MOL0     C17299   4.558   2.622  -0.935  0.0162  0.0443  0.3522
  129MOL0     C17300   4.486   2.553  -1.045  0.4289  0.8508  0.2303
  129MOL0     C17301   4.576   2.476  -1.146  0.1715  0.0596  0.2070
  129MOL0     C17302   4.492   2.408  -1.260 -0.1852  0.2298  0.2254
  129MOL0     C17303   4.431   2.510  -1.360  0.6706 -0.5432  0.5159
  129MOL0     O17304   4.295   2.534  -1.329 -0.5683 -0.2286  0.0439
  129MOL0     C17305   4.220   2.639  -1.384 -0.4395 -0.5398  0.1543
  129MOL0     C17306   4.278   2.739  -1.467  0.2200  0.0202  0.2473
  129MOL0     C17307   4.205   2.832  -1.533  0.6897  0.0176 -0.7938
  129MOL0     C17308   4.264   2.930  -1.632  0.4489  0.2243  0.5709
  129MOL0     C17309   4.064   2.836  -1.503  0.0916 -0.2584 -0.5668
  129MOL0     C17310   3.965   2.929  -1.561  0.1076 -0.4596  0.7006
  129MOL0     O17311   3.836   2.890  -1.567  0.3714  0.3512 -0.3666
  129MOL0     C17312   3.727   2.974  -1.598 -0.1563  0.2933  1.0981
  129MOL0     C17313   3.620   2.904  -1.663 -0.1984 -0.0395 -0.5831
  129MOL0     C17314   3.502   2.967  -1.697  0.4492 -0.0759 -0.2081
  129MOL0     C17315   3.490   3.106  -1.674 -0.1628 -0.3116  0.0660
  129MOL0     O17316   3.381   3.172  -1.723  0.0311 -0.0947 -0.7316
  129MOL0     C17317   3.297   3.115  -1.829 -0.1590  0.1297 -0.2364
  129MOL0     C17318   3.263   3.229  -1.921 -0.2496  0.4738 -0.4029
  129MOL0     C17319   3.386   3.297  -1.990 -0.3761  0.8103  0.1271
  129MOL0     C17320   3.330   3.425  -2.057 -0.2218  0.7072 -0.2518
  129MOL0     C17321   3.440   3.505  -2.130 -0.7706 -0.0523  0.0724
  129MOL0     C17322   3.558   3.557  -2.044  0.4142  0.3238 -0.4780
  129MOL0     C17323   3.496   3.682  -1.966  0.1939 -0.8782  0.1193
  129MOL0     C17324   3.600   3.714  -1.853 -0.9098  0.6059 -0.1772
  129MOL0    Cl17325   3.588   3.579  -1.736 -0.3505 -0.2995 -0.0297
  129MOL0     C17326   3.596   3.176  -1.608  1.0756  0.0361  0.2966
  129MOL0     C17327   3.715   3.108  -1.570 -0.4737 -0.7715  0.3710
  129MOL0     O17328   4.003   3.039  -1.578  0.0429  0.4841 -0.0699
  129MOL0     C17329   4.006   2.731  -1.419 -0.4074 -0.3812 -0.0488
  129MOL0     C17330   4.080   2.639  -1.361  0.4397  0.8707 -0.2054
  129MOL0     N17331   4.646   2.556  -0.849 -0.4672 -0.1499  0.4339
  129MOL0     N17332   4.679   2.635  -0.753 -0.0211 -0.5188  0.0093
  129MOL0     C17333   5.144   2.978   0.044 -0.2374 -0.1248  0.2466
  129MOL0     C17334   5.276   3.004   0.084 -0.2373 -0.1511  0.0344
  129MOL0     C17335   5.607   3.125   0.381 -0.3575 -0.4801 -0.4005
  129MOL0     C17336   5.639   3.149   0.513 -0.5992  0.3883 -0.5239
  129MOL0     C17337   5.774   3.122   0.567  0.3398  0.9607  0.4645
  129MOL0     C17338   5.875   3.063   0.488  0.1917 -0.7118  0.2998
  129MOL0     O17339   6.003   3.038   0.527  0.1813  0.4936 -0.6000
  129MOL0     C17340   6.103   3.004   0.432  0.1329 -0.5599 -0.3345
  129MOL0     C17341   6.236   2.981   0.510 -0.5772  0.0969  0.2313
  129MOL0     C17342   6.352   3.060   0.438  0.3327  0.2840 -0.8956
  129MOL0     C17343   6.487   3.067   0.515 -0.0826 -0.6377 -0.1945
  129MOL0     C17344   6.527   2.931   0.559 -0.6610  0.4633 -0.5154
  129MOL0     C17345   6.542   2.815   0.595  0.2010  0.0873  0.2296
  129MOL0     C17346   5.825   3.017   0.364  0.3741 -0.4314  0.4782
  129MOL0     C17347   5.708   3.063   0.305 -0.2915  0.4300 -0.2777
  129MOL0     H17348   5.189   3.217   0.337 -1.6121  0.3830 -0.7835
  129MOL0     H17349   4.977   3.184   0.259 -1.2077 -1.3760 -0.5148
  129MOL0     H17350   4.810   3.207   0.115  2.1908 -0.4489  1.1709
  129MOL0     H17351   4.891   3.220  -0.042  2.1697  0.1887  2.7047
  129MOL0     H17352   4.656   3.035   0.002  0.2578  0.9814  0.7993
  129MOL0     H17353   4.641   3.204  -0.041 -1.4978 -1.0247 -0.6675
  129MOL0     H17354   4.793   3.148  -0.255  1.7347 -1.4072 -1.0923
  129MOL0     H17355   4.789   2.980  -0.189 -0.9506 -0.9377  1.6569
  129MOL0     H17356   4.534   2.981  -0.198  0.5091  0.2039  0.5616
  129MOL0     H17357   4.559   3.131  -0.295 -1.0818 -1.5674 -0.8614
  129MOL0     H17358   4.722   2.984  -0.435  0.6333 -2.8998 -1.0263
  129MOL0     H17359   4.676   2.847  -0.342 -0.7214 -0.0171 -0.5593
  129MOL0     H17360   4.419   2.940  -0.415  0.4858  1.2666  0.7500
  129MOL0     H17361   4.522   3.031  -0.527 -0.1340  2.4817  2.8952
  129MOL0     H17362   4.561   2.729  -0.519  1.1457 -0.3203 -0.3683
  129MOL0     H17363   4.429   2.797  -0.613 -0.7505  0.7439  1.9506
  129MOL0     H17364   4.725   2.866  -0.646  1.3270 -3.0711 -1.0739
  129MOL0     H17365   4.595   2.958  -0.719 -1.3695 -0.7265 -0.6560
  129MOL0     H17366   4.476   2.825  -0.915  1.9910  1.6035  2.3307
  129MOL0     H17367   4.409   2.482  -1.014  0.6500  0.4202 -0.1786
  129MOL0     H17368   4.429   2.624  -1.106 -2.9229 -1.0164  0.9745
  129MOL0     H17369   4.634   2.400  -1.091  0.0884  1.1109  1.8271
  129MOL0     H17370   4.660   2.537  -1.181  0.8061 -0.2468  1.1416
  129MOL0     H17371   4.414   2.341  -1.224  0.6458 -0.0570  1.5759
  129MOL0     H17372   4.567   2.353  -1.317  1.4171  3.2203 -0.7949
  129MOL0     H17373   4.437   2.477  -1.465  1.3364  1.5284 -0.1468
  129MOL0     H17374   4.493   2.600  -1.355 -0.1495 -0.0215  1.4641
  129MOL0     H17375   4.375   2.736  -1.515 -0.8346 -1.5797 -2.0145
  129MOL0     H17376   4.243   3.032  -1.598 -0.1684  0.8292 -1.4574
  129MOL0     H17377   4.370   2.923  -1.657  0.6101  3.3200  0.0032
  129MOL0     H17378   4.194   2.922  -1.717 -2.0060  3.9456  1.9477
  129MOL0     H17379   3.632   2.805  -1.706 -0.5540 -0.6079  0.6135
  129MOL0     H17380   3.417   2.917  -1.743  0.5361  0.8829 -1.4808
  129MOL0     H17381   3.350   3.042  -1.891 -0.3046 -0.6228  0.5015
  129MOL0     H17382   3.204   3.076  -1.788  0.5184 -0.8042  0.4737
  129MOL0     H17383   3.199   3.198  -2.003  1.9375  0.1537 -2.0677
  129MOL0     H17384   3.211   3.295  -1.851 -2.4841  0.3071 -1.8347
  129MOL0     H17385   3.434   3.224  -2.056  0.6036  3.5900 -2.4401
  129MOL0     H17386   3.461   3.319  -1.914 -0.7424  0.0187  0.7392
  129MOL0     H17387   3.244   3.404  -2.122  2.4248  0.8885 -4.1387
  129MOL0     H17388   3.294   3.480  -1.969  2.4028 -2.1451  2.8493
  129MOL0     H17389   3.394   3.597  -2.168  1.3234  1.4204  0.9025
  129MOL0     H17390   3.491   3.446  -2.207 -0.1570 -1.4040  1.4564
  129MOL0     H17391   3.590   3.479  -1.974 -0.3214 -0.5901 -1.1343
  129MOL0     H17392   3.644   3.590  -2.103 -0.3511  1.9059 -0.7598
  129MOL0     H17393   3.402   3.662  -1.914 -2.6462  4.2860 -2.3210
  129MOL0     H17394   3.483   3.767  -2.034 -0.8089  1.2832  2.8432
  129MOL0     H17395   3.592   3.808  -1.798 -1.5187 -0.2841  1.3320
  129MOL0     H17396   3.701   3.709  -1.896 -0.3107  0.8448  1.1423
  129MOL0     H17397   3.581   3.283  -1.593 -1.5763 -0.0987 -0.8619
  129MOL0     H17398   3.799   3.162  -1.526 -1.4124 -0.5497  1.9796
  129MOL0     H17399   3.902   2.739  -1.391 -2.5424 -3.3260 -5.5365
  129MOL0     H17400   4.036   2.570  -1.290 -1.6113 -0.0669 -2.2695
  129MOL0     H17401   5.134   2.896  -0.026  0.0796 -1.7868  2.0670
  129MOL0     H17402   5.363   2.963   0.035  1.1461  1.0509  1.3765
  129MOL0     H17403   5.572   3.204   0.578 -0.4694  2.2643 -1.8929
  129MOL0     H17404   5.783   3.130   0.675 -0.8331 -2.0612  0.9031
  129MOL0     H17405   6.078   2.917   0.371  1.8265 -0.9997 -0.4476
  129MOL0     H17406   6.116   3.086   0.362 -0.7957  0.6124  0.8200
  129MOL0     H17407   6.265   2.876   0.517  0.7469  0.3684 -0.8332
  129MOL0     H17408   6.236   3.033   0.606 -0.8327 -2.0491  1.4561
  129MOL0     H17409   6.321   3.162   0.414  0.5102  0.0532 -2.1810
  129MOL0     H17410   6.375   3.022   0.337 -2.0133  0.5342 -1.5758
  129MOL0     H17411   6.479   3.124   0.608  1.5315  0.0789 -0.4470
  129MOL0     H17412   6.565   3.115   0.455 -1.3802  1.0258 -0.6271
  129MOL0     H17413   6.591   2.728   0.633 -0.1287  0.5515  1.7924
  129MOL0     H17414   5.883   2.964   0.290  1.9942  0.5652  0.9825
  129MOL0     H17415   5.682   3.033   0.205 -1.8048 -0.5314  0.3810
  130MOL0     O17416   1.483   0.357   8.452  0.6967  0.7582  0.5071
  130MOL0     C17417   1.476   0.422   8.346  0.4253  0.4610 -0.1182
  130MOL0     O17418   1.358   0.451   8.277  0.4225 -0.8330 -0.2325
  130MOL0     C17419   1.242   0.405   8.330 -1.0320  0.3036 -0.1428
  130MOL0     C17420   1.213   0.414   8.463  0.5493  0.5896  0.6129
  130MOL0     C17421   1.093   0.360   8.516  0.0454 -0.2625 -0.5756
  130MOL0     C17422   1.003   0.302   8.420  0.0710  0.5769 -0.9544
  130MOL0     O17423   0.884   0.268   8.482 -0.3041 -1.2201  0.8237
  130MOL0     C17424   0.771   0.275   8.390  0.8591 -0.0115  0.2042
  130MOL0     C17425   0.648   0.212   8.463 -0.4092 -0.7907  0.6864
  130MOL0     C17426   0.529   0.209   8.370  0.0471  0.2314 -0.6360
  130MOL0     C17427   0.426   0.100   8.408  0.4236 -0.0128  0.2947
  130MOL0     C17428   0.301   0.114   8.327 -0.2324  0.3582 -0.1225
  130MOL0     C17429   0.210  -0.017   8.332  0.7492 -0.1996  0.0799
  130MOL0     C17430   0.083  -0.015   8.247 -1.0007  0.1910  0.1626
  130MOL0     C17431   0.006  -0.138   8.276  0.3964 -0.3235 -0.5190
  130MOL0     N17432  -0.115  -0.171   8.194  0.5834 -0.1777 -0.0870
  130MOL0     C17433  -0.233  -0.100   8.200  0.3131  0.3830  0.3227
  130MOL0     C17434  -0.315  -0.150   8.105 -0.4245  0.7758  0.4254
  130MOL0     C17435  -0.457  -0.112   8.083 -0.5124 -0.4037 -0.8924
  130MOL0     C17436  -0.544  -0.232   8.050  1.0813  0.5067 -0.3055
  130MOL0     C17437  -0.691  -0.182   8.037 -0.3274 -0.1503  0.1541
  130MOL0     C17438  -0.789  -0.276   7.961  0.8749 -0.1156  0.0852
  130MOL0     O17439  -0.919  -0.212   7.950  0.0589 -0.9051  0.3733
  130MOL0     C17440  -1.027  -0.272   7.881 -1.0560  0.1499 -0.4214
  130MOL0     C17441  -1.017  -0.403   7.824  0.3589 -0.4263  0.2205
  130MOL0     C17442  -1.127  -0.468   7.764 -0.8570  1.0699 -0.3425
  130MOL0     C17443  -1.099  -0.611   7.733 -0.5023  0.5301  0.5326
  130MOL0     C17444  -1.239  -0.393   7.735  0.9534 -0.4079  0.5814
  130MOL0     C17445  -1.341  -0.427   7.638 -1.6460 -0.5234  0.8036
  130MOL0     O17446  -1.363  -0.555   7.598 -1.1362  0.1256  0.0746
  130MOL0     C17447  -1.449  -0.598   7.498 -0.4772 -0.4183  1.1046
  130MOL0     C17448  -1.475  -0.528   7.381 -0.0559 -0.3881 -0.6792
  130MOL0     C17449  -1.568  -0.570   7.291 -0.3987  0.6709 -0.0701
  130MOL0     C17450  -1.642  -0.684   7.323 -0.0341  0.1707  0.2318
  130MOL0     O17451  -1.740  -0.732   7.240 -0.0374  0.0896 -0.0631
  130MOL0     C17452  -1.862  -0.680   7.275 -0.1178 -0.3180  0.6531
  130MOL0     C17453  -1.952  -0.667   7.157 -0.0151  0.5774  0.6093
  130MOL0     C17454  -1.895  -0.572   7.048 -0.0196  0.7131  0.0912
  130MOL0     C17455  -1.978  -0.585   6.937  0.9200 -0.3966  0.9044
  130MOL0     C17456  -1.941  -0.489   6.820  0.5302 -0.4611  0.5416
  130MOL0     C17457  -2.049  -0.503   6.706  0.4505  0.0611 -0.0399
  130MOL0     C17458  -2.030  -0.402   6.604  0.0029  0.7887 -0.3066
  130MOL0     C17459  -2.100  -0.436   6.477  0.1749  0.8024  0.6118
  130MOL0    Cl17460  -2.267  -0.385   6.508  0.3271  0.4256  0.0550
  130MOL0     C17461  -1.619  -0.760   7.442 -0.4331 -0.0638  0.2170
  130MOL0     C17462  -1.520  -0.711   7.525 -0.4378  0.2338  0.6934
  130MOL0     O17463  -1.393  -0.328   7.585  0.3476 -0.5626  0.3705
  130MOL0     C17464  -1.255  -0.267   7.796 -0.0920 -0.3923  0.2741
  130MOL0     C17465  -1.151  -0.210   7.869  0.6671  0.0732 -0.3205
  130MOL0     N17466  -0.239  -0.245   8.033  0.0880 -0.3396 -0.7033
  130MOL0     N17467  -0.117  -0.247   8.080  1.2204 -0.1527 -0.2817
  130MOL0     C17468   1.035   0.292   8.289 -0.6614  0.4556  0.2411
  130MOL0     C17469   1.162   0.341   8.243  0.3562  0.7138 -1.1376
  130MOL0     C17470   1.596   0.492   8.298 -0.6798  0.4498  0.2881
  130MOL0     C17471   1.590   0.624   8.248  0.0726  0.5198  0.4694
  130MOL0     C17472   1.712   0.679   8.209  0.1254 -0.4010 -0.0426
  130MOL0     C17473   1.837   0.622   8.229 -0.0758  0.4934  0.2580
  130MOL0     O17474   1.958   0.694   8.211 -0.2653  0.7698 -0.5117
  130MOL0     C17475   1.960   0.814   8.138 -0.3745 -0.4319  0.3482
  130MOL0     C17476   2.112   0.831   8.103  0.3887 -0.2805  0.4069
  130MOL0     C17477   2.215   0.862   8.224  0.6977 -0.8999 -0.1317
  130MOL0     C17478   2.219   0.751   8.328 -0.1257 -0.7563 -0.8569
  130MOL0     C17479   2.333   0.757   8.421 -0.0053 -0.1530  0.3105
  130MOL0     C17480   2.437   0.779   8.488  0.4884  0.6177 -0.5381
  130MOL0     C17481   1.835   0.493   8.268  0.0480 -0.4874  0.0572
  130MOL0     C17482   1.718   0.424   8.304  0.2305  0.1696  1.0217
  130MOL0     H17483   1.276   0.460   8.538 -0.1605  2.6307  0.0070
  130MOL0     H17484   1.065   0.353   8.620 -2.6094 -0.2633 -1.2138
  130MOL0     H17485   0.750   0.380   8.366 -2.3262 -0.7454 -0.6118
  130MOL0     H17486   0.796   0.220   8.299  1.2917  0.9597 -0.2808
  130MOL0     H17487   0.675   0.106   8.474 -1.1494 -1.1811 -0.8673
  130MOL0     H17488   0.640   0.257   8.562  1.4911 -1.6918  1.3017
  130MOL0     H17489   0.479   0.304   8.389  1.1564  0.4218  1.7771
  130MOL0     H17490   0.558   0.195   8.266  1.3215 -2.2638 -0.0422
  130MOL0     H17491   0.470   0.003   8.386 -0.0676 -0.0898 -0.3729
  130MOL0     H17492   0.396   0.107   8.513 -1.5512 -0.1158 -0.2223
  130MOL0     H17493   0.249   0.203   8.362  0.3887 -0.1162  2.1374
  130MOL0     H17494   0.337   0.125   8.224  2.1679  2.3087  0.8164
  130MOL0     H17495   0.264  -0.111   8.318  5.5333  1.7230  3.0898
  130MOL0     H17496   0.182  -0.027   8.437 -0.9984 -1.7963 -0.4807
  130MOL0     H17497   0.024   0.077   8.262 -1.8432 -0.7014  2.8662
  130MOL0     H17498   0.122  -0.015   8.145  1.9399 -0.0094  1.1913
  130MOL0     H17499  -0.034  -0.124   8.377 -1.9666 -1.0486 -1.2812
  130MOL0     H17500   0.069  -0.228   8.283 -1.9429 -1.9307  1.3415
  130MOL0     H17501  -0.254  -0.018   8.267 -1.0215  0.8052 -0.5799
  130MOL0     H17502  -0.479  -0.075   8.184  1.8903 -2.1265  0.3802
  130MOL0     H17503  -0.466  -0.036   8.005 -3.2438  0.1389 -0.1521
  130MOL0     H17504  -0.536  -0.305   8.131 -3.9772  1.2642  1.2210
  130MOL0     H17505  -0.515  -0.278   7.955  0.9059 -2.7863  1.1024
  130MOL0     H17506  -0.685  -0.094   7.972  2.2697 -2.2749 -2.8220
  130MOL0     H17507  -0.724  -0.175   8.141  1.5293  0.5993  0.7251
  130MOL0     H17508  -0.813  -0.372   8.007 -0.3902  0.5258  0.8169
  130MOL0     H17509  -0.760  -0.297   7.857  3.5196  2.9512  0.0718
  130MOL0     H17510  -0.920  -0.451   7.824 -0.8820 -3.2168  2.2472
  130MOL0     H17511  -1.197  -0.660   7.725 -0.8771  1.1199  1.3390
  130MOL0     H17512  -1.039  -0.621   7.642  1.1655  1.3747  1.5056
  130MOL0     H17513  -1.031  -0.649   7.810  1.2833  2.8964  0.2339
  130MOL0     H17514  -1.431  -0.431   7.362 -2.3651  1.4166  2.2171
  130MOL0     H17515  -1.586  -0.515   7.200 -2.1827 -0.0659 -0.2025
  130MOL0     H17516  -1.914  -0.751   7.340  2.5950 -0.5783  2.7312
  130MOL0     H17517  -1.857  -0.586   7.330 -0.7496 -0.5203  1.0680
  130MOL0     H17518  -1.979  -0.761   7.107 -0.4200  2.2008 -2.4928
  130MOL0     H17519  -2.048  -0.624   7.184  0.0874  2.2512 -1.4190
  130MOL0     H17520  -1.791  -0.603   7.030 -0.8648 -2.2352 -0.2365
  130MOL0     H17521  -1.887  -0.471   7.090 -0.4372 -0.1240  2.3007
  130MOL0     H17522  -1.966  -0.686   6.899 -0.1325 -0.1951  0.0083
  130MOL0     H17523  -2.078  -0.563   6.977  2.0709 -0.1293  3.9327
  130MOL0     H17524  -1.846  -0.523   6.781 -0.6140 -0.2770 -2.6540
  130MOL0     H17525  -1.941  -0.385   6.855 -0.4273  0.5350 -2.1506
  130MOL0     H17526  -2.033  -0.596   6.650  1.7126  1.0950 -1.4604
  130MOL0     H17527  -2.151  -0.499   6.744 -0.1413 -0.0206 -1.5661
  130MOL0     H17528  -1.926  -0.400   6.573 -0.6310  1.3175 -2.6025
  130MOL0     H17529  -2.055  -0.305   6.648  1.9173  0.5908  1.3400
  130MOL0     H17530  -2.102  -0.543   6.454  0.2219  0.7599  0.8010
  130MOL0     H17531  -2.066  -0.370   6.397 -0.8109  0.9458  0.2922
  130MOL0     H17532  -1.669  -0.849   7.476 -2.8829  1.3792  0.6297
  130MOL0     H17533  -1.491  -0.777   7.606  1.9204  4.4959  3.7551
  130MOL0     H17534  -1.345  -0.212   7.770  0.5392  0.6952  0.3442
  130MOL0     H17535  -1.160  -0.106   7.899 -2.2946 -0.4814  1.0610
  130MOL0     H17536   0.971   0.239   8.218  1.4540 -1.4580 -0.3451
  130MOL0     H17537   1.202   0.334   8.142  1.3753 -1.7791 -0.6301
  130MOL0     H17538   1.501   0.682   8.230  0.2778  1.3925  2.0412
  130MOL0     H17539   1.704   0.779   8.167  1.5494 -1.1609 -2.3235
  130MOL0     H17540   1.886   0.803   8.058  1.9175 -1.0200 -1.8361
  130MOL0     H17541   1.926   0.892   8.206  1.4714  0.3764  0.4042
  130MOL0     H17542   2.121   0.925   8.046  0.9197  0.5810  1.8673
  130MOL0     H17543   2.142   0.740   8.050 -3.5883 -1.1480 -0.6804
  130MOL0     H17544   2.188   0.950   8.283  0.5729 -1.0939  0.1031
  130MOL0     H17545   2.315   0.886   8.187  0.5083  3.3520  1.5390
  130MOL0     H17546   2.214   0.655   8.277  1.1904 -0.4075 -1.7148
  130MOL0     H17547   2.136   0.757   8.398 -0.4257  0.7533 -1.2893
  130MOL0     H17548   2.535   0.793   8.528 -0.3287  1.8663  1.0981
  130MOL0     H17549   1.930   0.443   8.282  1.9057  2.0853 -2.1961
  130MOL0     H17550   1.721   0.321   8.339  0.0409 -0.2021 -0.0213
  131MOL0     O17551  10.729   5.282  10.786 -0.2981  0.7670  0.4262
  131MOL0     C17552  10.824   5.350  10.806 -0.6337 -0.6790 -0.2404
  131MOL0     O17553  10.823   5.473  10.878 -0.1060  0.0541 -0.1783
  131MOL0     C17554  10.706   5.551  10.871 -1.4791 -0.3375 -0.7565
  131MOL0     C17555  10.669   5.602  10.747 -0.8480  0.1264  0.5676
  131MOL0     C17556  10.557   5.683  10.743  0.0728 -0.4090 -0.4441
  131MOL0     C17557  10.480   5.713  10.857 -0.3196 -0.3355  0.1401
  131MOL0     O17558  10.383   5.808  10.838  0.2919 -0.0025 -0.3222
  131MOL0     C17559  10.352   5.903  10.940 -0.0309 -0.3918 -0.3374
  131MOL0     C17560  10.234   5.858  11.026 -0.4160 -0.0580 -0.0788
  131MOL0     C17561  10.113   5.854  10.933  0.2705 -0.9897  0.7363
  131MOL0     C17562   9.996   5.823  11.011  0.1359 -0.4106  0.0043
  131MOL0     C17563   9.874   5.803  10.926 -0.3964 -0.1142  0.2664
  131MOL0     C17564   9.736   5.775  10.996  0.8810  0.3962  0.0121
  131MOL0     C17565   9.630   5.769  10.884  0.0659  0.4106  0.1376
  131MOL0     C17566   9.492   5.721  10.946  0.7952 -0.3603 -0.4954
  131MOL0     N17567   9.398   5.683  10.837 -0.2448 -0.5035 -0.2714
  131MOL0     C17568   9.379   5.750  10.718  0.0855  0.4525 -0.2610
  131MOL0     C17569   9.272   5.694  10.665  0.1343  0.7176 -0.9700
  131MOL0     C17570   9.201   5.725  10.543  0.7069  0.7893 -0.4608
  131MOL0     C17571   9.059   5.659  10.536 -0.8398  0.4355  0.3134
  131MOL0     C17572   8.989   5.694  10.406 -0.8151 -0.6189 -0.4046
  131MOL0     C17573   8.848   5.650  10.412  0.7188  0.0459 -0.0920
  131MOL0     O17574   8.804   5.643  10.280  0.0523  0.0320  0.7687
  131MOL0     C17575   8.681   5.609  10.243  0.1167  0.6564  0.0989
  131MOL0     C17576   8.584   5.567  10.338 -0.1612 -0.1150 -0.4053
  131MOL0     C17577   8.451   5.519  10.302 -1.2410  0.1496 -0.2245
  131MOL0     C17578   8.353   5.484  10.411 -0.3585 -0.3399  0.2890
  131MOL0     C17579   8.427   5.522  10.161 -0.2812  0.2169  0.5187
  131MOL0     C17580   8.289   5.495  10.109  0.1867  0.2691  0.8467
  131MOL0     O17581   8.247   5.362  10.134 -0.5209  0.4462  0.2225
  131MOL0     C17582   8.122   5.329  10.101  0.4770 -0.2907  0.1304
  131MOL0     C17583   8.034   5.308  10.210  0.6737  0.3878  1.0371
  131MOL0     C17584   7.907   5.254  10.181 -0.3109 -0.2377 -0.6918
  131MOL0     C17585   7.857   5.241  10.048 -0.3499  0.2362 -0.3392
  131MOL0     O17586   7.730   5.233   9.998 -0.2376 -0.5394  0.4189
  131MOL0     C17587   7.631   5.184  10.097 -0.1968  0.3969 -0.0474
  131MOL0     C17588   7.484   5.184  10.043 -0.1860  0.0745  0.8146
  131MOL0     C17589   7.466   5.091   9.914  0.4193 -0.3606  0.5976
  131MOL0     C17590   7.330   5.140   9.855 -0.2224 -0.3501  0.0450
  131MOL0     C17591   7.206   5.145   9.953  0.7140  0.1854  0.2642
  131MOL0     C17592   7.078   5.187   9.876  1.0752  0.3511  0.0775
  131MOL0     C17593   6.980   5.242   9.976 -1.0509 -0.3454  0.3259
  131MOL0     C17594   6.837   5.221   9.933  0.4990  0.0860  0.1667
  131MOL0    Cl17595   6.787   5.043   9.918 -0.1544 -0.3475 -0.0965
  131MOL0     C17596   7.951   5.273   9.953  0.7489 -0.5002  0.5573
  131MOL0     C17597   8.082   5.307   9.970  0.0765 -0.7175  0.1618
  131MOL0     O17598   8.227   5.568  10.035  0.0595  0.6819  0.5078
  131MOL0     C17599   8.527   5.568  10.067 -0.0405 -0.2490  0.8201
  131MOL0     C17600   8.652   5.610  10.107 -0.2880 -0.5986 -0.1357
  131MOL0     N17601   9.225   5.592  10.751  0.2602 -0.1905  0.0187
  131MOL0     N17602   9.308   5.584  10.853 -0.0983  0.1237 -0.3517
  131MOL0     C17603  10.513   5.664  10.984  0.1814  1.2923  1.1646
  131MOL0     C17604  10.630   5.586  10.985  0.5999  0.3164 -0.2089
  131MOL0     C17605  10.943   5.319  10.736 -0.2300 -0.2834  0.4476
  131MOL0     C17606  11.048   5.414  10.730 -0.1946 -0.0926 -0.5591
  131MOL0     C17607  11.162   5.391  10.658  0.0285  0.9369 -0.9251
  131MOL0     C17608  11.172   5.274  10.583  0.2587 -0.5169  0.5285
  131MOL0     O17609  11.292   5.269  10.518 -0.4911  0.0082  0.1695
  131MOL0     C17610  11.342   5.138  10.481 -0.3262  0.2992  0.9982
  131MOL0     C17611  11.456   5.089  10.568  0.0131 -0.0071 -0.3087
  131MOL0     C17612  11.447   5.151  10.716  0.4297 -0.7755 -0.3772
  131MOL0     C17613  11.559   5.104  10.819  0.2551 -0.6836  0.5366
  131MOL0     C17614  11.694   5.143  10.769  0.3465  1.0264  0.1268
  131MOL0     C17615  11.808   5.167  10.727 -1.1815 -0.4507  0.6438
  131MOL0     C17616  11.073   5.181  10.574 -0.0270 -0.1407  0.3097
  131MOL0     C17617  10.958   5.207  10.644 -0.0999 -0.2783  0.7614
  131MOL0     H17618  10.722   5.582  10.654  1.7673  0.9054  1.7759
  131MOL0     H17619  10.513   5.712  10.648  1.8506  1.2026 -0.8482
  131MOL0     H17620  10.439   5.901  11.007 -1.4447 -1.5366  1.5513
  131MOL0     H17621  10.339   6.003  10.899 -3.4264  0.4633  2.3754
  131MOL0     H17622  10.249   5.761  11.074 -0.8865  0.3326  0.8877
  131MOL0     H17623  10.222   5.934  11.103  0.4882  4.2217 -3.7066
  131MOL0     H17624  10.104   5.949  10.879 -0.6602 -2.2163 -1.4291
  131MOL0     H17625  10.137   5.767  10.871  0.2589 -1.5353  1.4892
  131MOL0     H17626  10.012   5.729  11.064  0.4691  1.7035  4.0476
  131MOL0     H17627   9.980   5.906  11.081  2.1910 -0.4193  0.5484
  131MOL0     H17628   9.862   5.903  10.882  2.8445 -1.4013 -4.2514
  131MOL0     H17629   9.878   5.731  10.844  1.1374  1.4704 -1.1408
  131MOL0     H17630   9.747   5.676  11.041 -1.1903  0.0586 -0.1177
  131MOL0     H17631   9.717   5.853  11.070 -0.8342 -0.8560  0.9684
  131MOL0     H17632   9.609   5.864  10.835 -1.3287  0.5815  1.0120
  131MOL0     H17633   9.655   5.701  10.802  1.4060 -0.2989  1.0967
  131MOL0     H17634   9.455   5.796  11.016 -0.0266  1.6294 -2.9508
  131MOL0     H17635   9.510   5.638  11.015 -1.8169  1.0654  2.1056
  131MOL0     H17636   9.442   5.830  10.679  0.6272 -1.3668 -3.4255
  131MOL0     H17637   9.182   5.832  10.545 -1.8379  0.4207  2.5187
  131MOL0     H17638   9.267   5.688  10.463  0.3099 -1.7897  0.3118
  131MOL0     H17639   9.003   5.681  10.628  3.1026  0.4066  2.9873
  131MOL0     H17640   9.072   5.550  10.529 -0.3275  0.5625 -0.7703
  131MOL0     H17641   9.032   5.640  10.321 -2.4973 -1.0408 -1.0101
  131MOL0     H17642   8.990   5.803  10.393  0.2921 -0.8606 -3.1741
  131MOL0     H17643   8.784   5.713  10.474  1.3036  0.2376  0.3294
  131MOL0     H17644   8.839   5.553  10.463  1.1015  1.4857  2.9782
  131MOL0     H17645   8.601   5.592  10.442  2.3328  0.1559 -0.8146
  131MOL0     H17646   8.342   5.376  10.412 -1.0686 -0.3342 -2.1116
  131MOL0     H17647   8.394   5.521  10.506  2.4140 -3.0467  0.3073
  131MOL0     H17648   8.256   5.529  10.390 -0.6319 -0.9858  0.1556
  131MOL0     H17649   8.071   5.341  10.306 -0.3710 -0.4243  1.7311
  131MOL0     H17650   7.841   5.249  10.267  0.9054 -0.8727  0.2465
  131MOL0     H17651   7.657   5.083  10.132 -1.9889 -0.5712 -1.3584
  131MOL0     H17652   7.625   5.244  10.188 -0.5507 -1.5533  1.2770
  131MOL0     H17653   7.426   5.135  10.121 -1.3012  2.9974  1.9382
  131MOL0     H17654   7.456   5.288  10.025 -0.1947 -0.4393 -2.9629
  131MOL0     H17655   7.446   4.988   9.945  0.3845 -0.5655 -0.0858
  131MOL0     H17656   7.556   5.101   9.853 -2.0243  1.9503 -3.0151
  131MOL0     H17657   7.342   5.238   9.808  0.8523 -1.1974 -1.5339
  131MOL0     H17658   7.299   5.067   9.780  0.0368 -1.2432  0.7850
  131MOL0     H17659   7.222   5.224  10.026  2.3722  0.2922 -0.1527
  131MOL0     H17660   7.184   5.050  10.002  0.7649 -0.3364 -0.6953
  131MOL0     H17661   7.091   5.257   9.794  0.3914 -2.7650 -2.9313
  131MOL0     H17662   7.046   5.095   9.826 -0.1194  0.5866  0.3772
  131MOL0     H17663   6.996   5.350   9.986  0.6672 -0.1664 -2.9054
  131MOL0     H17664   6.996   5.192  10.072 -1.3556  2.2740  1.8342
  131MOL0     H17665   6.825   5.268   9.835  3.3802 -1.2634 -0.9327
  131MOL0     H17666   6.773   5.267  10.009  1.3918  1.1529  0.3063
  131MOL0     H17667   7.919   5.262   9.850  0.0472 -0.1225  0.7370
  131MOL0     H17668   8.155   5.326   9.893  2.6058  0.5468  2.6848
  131MOL0     H17669   8.507   5.565   9.960  0.2058 -0.4622  0.7781
  131MOL0     H17670   8.729   5.634  10.035  1.2335 -1.4054  1.1469
  131MOL0     H17671  10.467   5.694  11.078  2.3550  3.4427  1.6471
  131MOL0     H17672  10.661   5.547  11.082 -0.0433  2.9822  1.1560
  131MOL0     H17673  11.045   5.495  10.803  1.3855  1.1670 -1.8135
  131MOL0     H17674  11.231   5.474  10.652  0.8656  0.2670 -0.7360
  131MOL0     H17675  11.268   5.057  10.475 -2.2601  1.9933  0.6307
  131MOL0     H17676  11.383   5.143  10.380 -1.4789 -1.4414  0.4011
  131MOL0     H17677  11.548   5.107  10.511 -0.5534 -1.3464 -1.7193
  131MOL0     H17678  11.457   4.980  10.579 -0.0373  0.0751  0.6483
  131MOL0     H17679  11.349   5.125  10.757  1.2720 -0.1139  2.2525
  131MOL0     H17680  11.459   5.259  10.711 -0.1945 -0.3210  4.2242
  131MOL0     H17681  11.550   4.997  10.839  0.6187 -1.2561 -1.9990
  131MOL0     H17682  11.538   5.165  10.907 -1.0934 -2.6547  1.6377
  131MOL0     H17683  11.909   5.172  10.693 -0.9939  2.3666  1.3280
  131MOL0     H17684  11.069   5.104  10.497  0.8516  2.0875 -2.0908
  131MOL0     H17685  10.872   5.147  10.617 -0.9774  0.5081  1.7120
  132MOL0     O17686   3.524   1.638   7.975  0.3735 -0.0305 -0.2545
  132MOL0     C17687   3.577   1.679   7.872  0.0888  0.7388  0.1204
  132MOL0     O17688   3.705   1.722   7.859  0.4126  0.4148 -0.1913
  132MOL0     C17689   3.778   1.752   7.964  0.4812 -0.5416  0.3508
  132MOL0     C17690   3.848   1.869   7.967 -0.1447  0.2389  0.2563
  132MOL0     C17691   3.942   1.896   8.066 -0.2602 -0.2047  0.0341
  132MOL0     C17692   3.972   1.798   8.151 -0.4007  0.7958 -0.4631
  132MOL0     O17693   4.056   1.833   8.249 -0.1475 -0.5609  0.2593
  132MOL0     C17694   4.065   1.773   8.382  0.5319 -0.8908 -0.4658
  132MOL0     C17695   4.147   1.859   8.486  0.1322 -0.0321  0.7499
  132MOL0     C17696   4.093   2.003   8.504  0.5720  0.3833  0.1704
  132MOL0     C17697   4.157   2.069   8.629  0.7016  0.9846 -0.4082
  132MOL0     C17698   4.306   2.111   8.618  0.0500  0.3346 -0.0402
  132MOL0     C17699   4.368   2.176   8.741  0.3458 -1.0232  0.3175
  132MOL0     C17700   4.319   2.321   8.761  0.3608  0.0453  0.0594
  132MOL0     C17701   4.376   2.420   8.659 -0.7043  0.2418 -0.1426
  132MOL0     N17702   4.525   2.428   8.674  0.0598  1.0557 -0.0764
  132MOL0     C17703   4.598   2.451   8.786  0.5857 -0.2025  0.8839
  132MOL0     C17704   4.731   2.429   8.749  0.2121 -0.3169 -1.5454
  132MOL0     C17705   4.850   2.436   8.842  0.1379  0.5025  0.3176
  132MOL0     C17706   4.847   2.345   8.964 -0.5112  0.4698 -0.0238
  132MOL0     C17707   4.876   2.199   8.939 -0.7632  0.2610  0.1078
  132MOL0     C17708   4.854   2.112   9.061  0.0017  0.2136  0.7961
  132MOL0     O17709   4.723   2.132   9.114 -0.4246  0.1865 -0.2136
  132MOL0     C17710   4.624   2.054   9.055 -0.5994 -0.0188 -0.7297
  132MOL0     C17711   4.647   1.963   8.953  0.5219  1.1195 -0.6776
  132MOL0     C17712   4.531   1.882   8.908  0.8566 -0.4279 -0.5249
  132MOL0     C17713   4.567   1.804   8.783  0.7538 -0.0151  0.2000
  132MOL0     C17714   4.404   1.882   8.969 -0.3223  0.1539  0.0948
  132MOL0     C17715   4.284   1.803   8.929  0.1492 -0.0685 -0.0425
  132MOL0     O17716   4.297   1.686   8.861 -0.7772  0.4368 -0.8226
  132MOL0     C17717   4.200   1.635   8.784 -0.4889 -0.1346  0.3809
  132MOL0     C17718   4.244   1.544   8.687  0.2955 -0.3887 -0.2519
  132MOL0     C17719   4.149   1.484   8.602 -0.5926 -0.3395 -0.1794
  132MOL0     C17720   4.013   1.504   8.622  0.2097  0.5864  0.9304
  132MOL0     O17721   3.923   1.448   8.533  0.1339  0.1882  0.4249
  132MOL0     C17722   3.871   1.318   8.574  1.0556  0.4769  0.0304
  132MOL0     C17723   3.715   1.311   8.596 -0.2133 -0.3765  0.0885
  132MOL0     C17724   3.642   1.277   8.461  0.2893 -0.2996 -0.9657
  132MOL0     C17725   3.685   1.144   8.399 -0.4059  0.4444 -0.5815
  132MOL0     C17726   3.573   1.109   8.310  0.7587 -0.6932  0.6011
  132MOL0     C17727   3.603   0.999   8.202 -0.0888  0.5186 -0.5725
  132MOL0     C17728   3.489   0.988   8.099 -0.5335 -0.0556  0.7483
  132MOL0     C17729   3.525   0.890   7.985 -0.4405  0.6824 -0.2175
  132MOL0    Cl17730   3.413   0.937   7.849 -0.2044 -0.1438 -0.1149
  132MOL0     C17731   3.962   1.592   8.715 -0.4126 -0.3127 -0.4182
  132MOL0     C17732   4.058   1.654   8.797  0.5470 -0.1104  0.4145
  132MOL0     O17733   4.175   1.850   8.964  0.5916 -0.3283 -0.3298
  132MOL0     C17734   4.391   1.975   9.082  0.2412  0.9176  0.0394
  132MOL0     C17735   4.496   2.057   9.120  0.2760  0.7229  0.7868
  132MOL0     N17736   4.735   2.391   8.619 -0.1094 -0.1187  0.3722
  132MOL0     N17737   4.615   2.391   8.573  0.0770  0.5518 -0.0483
  132MOL0     C17738   3.920   1.670   8.139  0.7616  0.4205 -0.1248
  132MOL0     C17739   3.820   1.650   8.049 -0.5146 -0.4635 -0.1882
  132MOL0     C17740   3.493   1.689   7.755  0.8013  0.2084  0.2341
  132MOL0     C17741   3.548   1.684   7.624 -1.1032  0.1449 -1.0118
  132MOL0     C17742   3.462   1.684   7.513  0.3089  0.0208 -0.2759
  132MOL0     C17743   3.328   1.719   7.534  0.1082 -0.9666  0.4291
  132MOL0     O17744   3.240   1.731   7.424 -0.1719  0.8053  0.5643
  132MOL0     C17745   3.106   1.785   7.445  0.4963  0.8141  0.2033
  132MOL0     C17746   3.052   1.837   7.312 -0.7558  0.0171  0.7985
  132MOL0     C17747   2.922   1.916   7.339  0.2115  0.1278  0.4249
  132MOL0     C17748   2.887   2.038   7.249 -0.1923 -0.1897  0.3928
  132MOL0     C17749   2.838   2.001   7.116 -1.8713 -0.6732 -0.4888
  132MOL0     C17750   2.811   1.956   7.011  0.4881 -0.7586  0.1640
  132MOL0     C17751   3.277   1.732   7.665 -1.2607 -0.7545  0.1874
  132MOL0     C17752   3.362   1.711   7.769  0.2675  0.2501 -1.5015
  132MOL0     H17753   3.814   1.935   7.888  3.1741 -0.6762 -2.1456
  132MOL0     H17754   3.986   1.995   8.071  0.4761 -0.1158 -4.1690
  132MOL0     H17755   3.966   1.744   8.419  1.2814 -1.3619  1.2654
  132MOL0     H17756   4.126   1.683   8.372 -2.0295 -2.7741 -0.0752
  132MOL0     H17757   4.150   1.799   8.578 -4.9255 -2.6387 -0.3978
  132MOL0     H17758   4.245   1.867   8.440  0.2648 -1.8276  0.6355
  132MOL0     H17759   4.104   2.053   8.407 -0.9585  0.5767  0.0781
  132MOL0     H17760   3.986   1.983   8.503  0.8194 -1.0672  0.4960
  132MOL0     H17761   4.100   2.157   8.659 -0.5696 -0.2524  1.0397
  132MOL0     H17762   4.143   1.991   8.705  1.0473  0.4125 -0.9251
  132MOL0     H17763   4.367   2.021   8.604  1.3870  1.1603  0.2450
  132MOL0     H17764   4.306   2.179   8.532 -2.8089  1.7504  0.9469
  132MOL0     H17765   4.338   2.128   8.835 -1.2473  1.0968  0.9781
  132MOL0     H17766   4.477   2.175   8.734  0.5594  3.9909 -0.3624
  132MOL0     H17767   4.210   2.324   8.764  0.3085  0.9966  4.7813
  132MOL0     H17768   4.353   2.346   8.862  1.6331  2.0719 -0.8025
  132MOL0     H17769   4.321   2.512   8.683  1.1011  0.9797  1.4293
  132MOL0     H17770   4.356   2.401   8.553  1.2862 -1.9674 -0.2122
  132MOL0     H17771   4.566   2.466   8.888  0.9381 -1.0103  1.1145
  132MOL0     H17772   4.928   2.405   8.772  0.0508  1.9308 -0.4581
  132MOL0     H17773   4.864   2.532   8.891  1.4130 -0.6386  2.3149
  132MOL0     H17774   4.752   2.351   9.019  0.8386 -0.5311  2.6438
  132MOL0     H17775   4.930   2.378   9.028  1.1281 -2.0765 -0.6551
  132MOL0     H17776   4.978   2.180   8.907 -0.9318 -2.0122  0.7334
  132MOL0     H17777   4.809   2.176   8.856 -0.1397  4.9525 -2.0248
  132MOL0     H17778   4.910   2.158   9.143 -0.6780  2.7174 -0.0802
  132MOL0     H17779   4.890   2.008   9.055 -0.5660 -0.0217  1.3716
  132MOL0     H17780   4.739   1.947   8.898  0.5950  1.4434 -0.6489
  132MOL0     H17781   4.502   1.719   8.761  3.8835 -2.6297  0.2359
  132MOL0     H17782   4.569   1.870   8.696 -0.0501 -1.3983 -0.9162
  132MOL0     H17783   4.666   1.759   8.794  1.3232  1.1811  0.1053
  132MOL0     H17784   4.350   1.529   8.665 -0.1628 -1.7540 -1.7847
  132MOL0     H17785   4.181   1.425   8.517 -1.9659 -2.4714  0.7111
  132MOL0     H17786   3.904   1.237   8.510  2.3040  0.5015  0.6052
  132MOL0     H17787   3.916   1.295   8.671 -1.2655 -0.3407  0.9976
  132MOL0     H17788   3.679   1.237   8.667 -1.5170  1.5967  1.5882
  132MOL0     H17789   3.673   1.404   8.635 -1.8869 -0.6153 -1.0227
  132MOL0     H17790   3.660   1.347   8.379 -2.3787 -1.2793 -2.5058
  132MOL0     H17791   3.538   1.267   8.493  1.3347 -0.8492  2.7886
  132MOL0     H17792   3.778   1.149   8.341  1.1750  0.9317  1.8640
  132MOL0     H17793   3.701   1.063   8.471  0.1582  1.3077  0.2840
  132MOL0     H17794   3.529   1.192   8.255  0.2753 -3.2408 -3.2918
  132MOL0     H17795   3.495   1.064   8.373  1.9616 -0.7985  2.0691
  132MOL0     H17796   3.696   1.026   8.152 -2.0935  2.0288 -3.7878
  132MOL0     H17797   3.608   0.905   8.259 -2.8500 -0.2179 -1.4168
  132MOL0     H17798   3.482   1.083   8.045  1.9552  0.0824  0.5783
  132MOL0     H17799   3.394   0.960   8.145 -0.9496 -0.0622 -0.0871
  132MOL0     H17800   3.517   0.785   8.017  0.0281  0.4671 -0.7883
  132MOL0     H17801   3.629   0.908   7.957  0.7820 -0.2415  3.1637
  132MOL0     H17802   3.855   1.601   8.727 -0.3694 -0.3354  0.0021
  132MOL0     H17803   4.013   1.727   8.863 -0.2468 -1.7124  1.7218
  132MOL0     H17804   4.310   1.972   9.154  2.4178  0.1021  2.6102
  132MOL0     H17805   4.500   2.125   9.204 -0.7553  0.0671  1.3946
  132MOL0     H17806   3.954   1.588   8.201 -0.7682  0.0474  0.2468
  132MOL0     H17807   3.794   1.546   8.028  2.5777 -0.5927 -5.1199
  132MOL0     H17808   3.655   1.671   7.621 -1.1054 -0.3207  0.3011
  132MOL0     H17809   3.507   1.678   7.414 -1.7853  2.2333 -1.4701
  132MOL0     H17810   3.035   1.709   7.478  0.4957  1.3522  1.5160
  132MOL0     H17811   3.112   1.871   7.513 -0.4882  1.1917 -0.1647
  132MOL0     H17812   3.034   1.756   7.242  0.9022 -0.1856  0.5839
  132MOL0     H17813   3.132   1.897   7.269 -0.7998  1.2935  2.3654
  132MOL0     H17814   2.939   1.969   7.434  1.9515  2.3753 -1.0262
  132MOL0     H17815   2.840   1.844   7.347 -0.2276  0.7255  1.5888
  132MOL0     H17816   2.982   2.093   7.250 -0.3836  0.1337  1.0059
  132MOL0     H17817   2.801   2.088   7.293 -0.1248 -0.3726  0.7319
  132MOL0     H17818   2.772   1.916   6.919 -0.3189 -3.2961  1.5081
  132MOL0     H17819   3.171   1.747   7.682 -0.6592  4.4351  1.2774
  132MOL0     H17820   3.331   1.714   7.873  0.9386 -3.1343 -1.0963
  133MOL0     O17821   8.355  10.155   8.299 -0.8927  0.0840  0.0524
  133MOL0     C17822   8.299  10.261   8.306  0.1672  0.1043  0.6427
  133MOL0     O17823   8.348  10.376   8.340  0.1963 -0.5940 -0.2108
  133MOL0     C17824   8.465  10.370   8.411 -1.0913  0.1937  0.7721
  133MOL0     C17825   8.572  10.448   8.369 -0.6091 -0.6743  0.3540
  133MOL0     C17826   8.696  10.435   8.428 -0.2137  0.5951  0.4544
  133MOL0     C17827   8.711  10.364   8.548 -1.2028 -1.6433 -0.3413
  133MOL0     O17828   8.834  10.346   8.615  0.4603 -0.3828 -0.6489
  133MOL0     C17829   8.933  10.452   8.601  0.0592 -0.2210 -0.0133
  133MOL0     C17830   9.059  10.413   8.682  0.7838 -0.1617 -0.8479
  133MOL0     C17831   9.173  10.516   8.660  0.8213 -0.2090  0.2132
  133MOL0     C17832   9.301  10.447   8.716 -0.8909  0.0419 -1.5620
  133MOL0     C17833   9.305  10.469   8.869 -0.1371  0.1101  0.4078
  133MOL0     C17834   9.371  10.609   8.913 -0.3627  0.0684  0.2724
  133MOL0     C17835   9.415  10.607   9.057 -0.0233  0.1189 -0.3553
  133MOL0     C17836   9.497  10.722   9.118  0.4727 -0.7412  0.2116
  133MOL0     N17837   9.625  10.765   9.049  0.1544  0.2216 -0.5202
  133MOL0     C17838   9.655  10.900   9.009  0.6106  0.3899  0.3905
  133MOL0     C17839   9.772  10.894   8.943  0.5515 -0.0245 -0.4065
  133MOL0     C17840   9.847  11.011   8.885  1.4213 -0.3947  0.2669
  133MOL0     C17841   9.794  11.040   8.742 -0.0256 -0.6860 -0.3917
  133MOL0     C17842   9.656  11.103   8.732  0.4481 -0.4448 -0.7561
  133MOL0     C17843   9.603  11.102   8.588  0.1800 -0.3058  0.4983
  133MOL0     O17844   9.476  11.167   8.579  0.0321  0.0710 -0.1002
  133MOL0     C17845   9.407  11.142   8.466  0.1132 -0.7306 -0.4605
  133MOL0     C17846   9.459  11.100   8.340  0.5131 -0.2961 -0.6547
  133MOL0     C17847   9.379  11.057   8.231  0.0529 -0.7339 -0.2512
  133MOL0     C17848   9.454  11.007   8.113 -0.0501  0.4995 -0.1258
  133MOL0     C17849   9.245  11.088   8.239  0.4538 -0.3735 -0.0753
  133MOL0     C17850   9.153  11.068   8.120  0.2217 -0.6266  0.3592
  133MOL0     O17851   9.016  11.066   8.150  0.0506  0.5390 -0.1439
  133MOL0     C17852   8.928  11.101   8.047  0.5431  0.7122  1.3163
  133MOL0     C17853   8.825  11.011   8.024 -0.9966  0.1922  0.5295
  133MOL0     C17854   8.719  11.052   7.941 -1.1737 -0.6504 -0.3458
  133MOL0     C17855   8.717  11.177   7.873 -0.1987 -0.7346  0.5243
  133MOL0     O17856   8.603  11.218   7.803  0.2891 -0.2948 -0.2185
  133MOL0     C17857   8.551  11.116   7.715  0.0461  0.0046 -0.9267
  133MOL0     C17858   8.444  11.176   7.632 -0.4618 -0.0903 -0.5688
  133MOL0     C17859   8.345  11.061   7.590 -0.3793  1.1762  0.4107
  133MOL0     C17860   8.379  10.991   7.457 -0.2216 -0.8593  0.1286
  133MOL0     C17861   8.336  11.063   7.333 -0.6538 -0.3990  1.0358
  133MOL0     C17862   8.182  11.066   7.322  0.4969  0.2553  0.1021
  133MOL0     C17863   8.130  11.086   7.183 -0.2590  0.5574  0.5589
  133MOL0     C17864   7.988  11.070   7.142 -0.8617  0.5537 -0.6016
  133MOL0    Cl17865   7.887  11.194   7.246  0.0028  0.7049  0.3179
  133MOL0     C17866   8.833  11.263   7.898  0.1580  0.2216 -0.4150
  133MOL0     C17867   8.932  11.224   7.978 -0.0007 -0.3498 -1.3753
  133MOL0     O17868   9.197  11.102   8.010 -0.2071 -0.9647 -0.1456
  133MOL0     C17869   9.194  11.150   8.352 -0.0207  0.8632  0.1755
  133MOL0     C17870   9.276  11.175   8.464 -0.1184 -0.1389 -0.0911
  133MOL0     N17871   9.813  10.762   8.949 -0.6138  0.2342 -0.1916
  133MOL0     N17872   9.725  10.688   9.021  0.3650  0.2497  0.4276
  133MOL0     C17873   8.596  10.303   8.605  0.1059  0.0581 -1.2885
  133MOL0     C17874   8.475  10.309   8.536 -0.4321  0.7093  0.0609
  133MOL0     C17875   8.164  10.267   8.249  0.1008 -0.4486  0.1582
  133MOL0     C17876   8.130  10.212   8.122  1.0219  0.3871 -0.1106
  133MOL0     C17877   7.993  10.220   8.078  0.5650  0.0037  0.2504
  133MOL0     C17878   7.896  10.289   8.147  0.9755  0.7039 -0.5080
  133MOL0     O17879   7.772  10.294   8.077  0.3348 -0.0942 -0.3463
  133MOL0     C17880   7.676  10.383   8.132 -0.1437  0.6693 -0.5868
  133MOL0     C17881   7.598  10.325   8.243  1.0366 -0.9061 -0.8500
  133MOL0     C17882   7.496  10.428   8.305 -0.4120 -0.6653  0.4653
  133MOL0     C17883   7.353  10.378   8.322 -0.3784  0.8411 -0.2600
  133MOL0     C17884   7.298  10.398   8.452 -0.9676  0.0929  0.7002
  133MOL0     C17885   7.265  10.398   8.572 -0.7599  0.2684  0.3606
  133MOL0     C17886   7.929  10.340   8.274 -0.3040 -0.8079  0.2845
  133MOL0     C17887   8.061  10.333   8.333  0.4776  0.7731  0.8544
  133MOL0     H17888   8.568  10.492   8.270 -1.1598  0.3438  0.8108
  133MOL0     H17889   8.781  10.473   8.372  0.3212  0.2944  1.0435
  133MOL0     H17890   8.963  10.470   8.497 -0.8165  0.8603 -0.0989
  133MOL0     H17891   8.896  10.550   8.633  1.4658  0.3488 -0.0781
  133MOL0     H17892   9.025  10.403   8.786  3.6342  0.3776  0.2258
  133MOL0     H17893   9.087  10.321   8.631  2.5909 -0.3356  0.3758
  133MOL0     H17894   9.179  10.545   8.555  0.5234 -0.5583  0.0984
  133MOL0     H17895   9.143  10.604   8.718 -1.5960  0.1196 -1.3816
  133MOL0     H17896   9.310  10.340   8.699 -2.6473 -0.5887  0.9172
  133MOL0     H17897   9.389  10.488   8.666  0.6429 -0.3765  0.6758
  133MOL0     H17898   9.205  10.453   8.911 -0.7906 -1.5284 -1.6330
  133MOL0     H17899   9.369  10.388   8.905 -3.3350 -3.8711 -2.0666
  133MOL0     H17900   9.455  10.628   8.846 -0.6753 -4.4611 -1.7720
  133MOL0     H17901   9.307  10.696   8.896  1.1289  1.2525  0.5198
  133MOL0     H17902   9.325  10.590   9.117  1.4182 -0.0277  1.8332
  133MOL0     H17903   9.479  10.524   9.084 -0.3008  0.8541  2.8967
  133MOL0     H17904   9.529  10.701   9.220  2.1184 -1.3459 -0.3967
  133MOL0     H17905   9.427  10.807   9.121  1.2097 -0.0367 -1.3969
  133MOL0     H17906   9.592  10.985   9.034 -0.5238 -1.1267  3.1806
  133MOL0     H17907   9.839  11.102   8.945  0.5045 -1.0454  1.1520
  133MOL0     H17908   9.954  10.985   8.882  1.7065  0.6663  0.8458
  133MOL0     H17909   9.790  10.944   8.690 -0.0844 -1.1317  0.4093
  133MOL0     H17910   9.861  11.113   8.697 -0.1271  0.7174  1.6025
  133MOL0     H17911   9.653  11.205   8.771  1.3865 -0.5716 -0.3243
  133MOL0     H17912   9.582  11.052   8.793  0.8575  2.1485  2.1489
  133MOL0     H17913   9.588  10.998   8.558 -2.8448  0.7577 -2.2091
  133MOL0     H17914   9.676  11.160   8.530 -0.3196 -0.4105 -0.2370
  133MOL0     H17915   9.567  11.089   8.334  0.4003 -0.6528 -2.6495
  133MOL0     H17916   9.409  10.929   8.050  0.3129 -0.6643  1.0068
  133MOL0     H17917   9.488  11.086   8.046  0.9254  1.5884  1.5829
  133MOL0     H17918   9.552  10.969   8.144 -0.5148  0.0087  0.7978
  133MOL0     H17919   8.818  10.925   8.090 -0.2781  0.6767  1.2690
  133MOL0     H17920   8.635  10.984   7.938 -0.4047 -1.6828  0.7534
  133MOL0     H17921   8.621  11.064   7.648 -1.2918 -1.1146 -1.5143
  133MOL0     H17922   8.499  11.045   7.780 -0.1165  1.6555  0.8198
  133MOL0     H17923   8.383  11.242   7.694 -0.6799 -2.4475  1.8788
  133MOL0     H17924   8.481  11.222   7.540  2.1916  0.2001  0.5539
  133MOL0     H17925   8.240  11.091   7.579  0.0524  2.6109 -0.0515
  133MOL0     H17926   8.341  10.979   7.662  2.7696  1.1932  0.7429
  133MOL0     H17927   8.488  10.985   7.460 -0.3459 -4.4127  1.9283
  133MOL0     H17928   8.349  10.887   7.465  1.5346 -1.3125  1.8014
  133MOL0     H17929   8.379  11.007   7.249 -2.5247  0.7057 -0.7623
  133MOL0     H17930   8.364  11.168   7.319 -2.5153  0.0523  0.4855
  133MOL0     H17931   8.145  10.967   7.351 -0.3819  0.5333 -0.0537
  133MOL0     H17932   8.137  11.148   7.378  1.0194  0.9637 -0.4957
  133MOL0     H17933   8.179  11.014   7.117  2.7947  3.6510 -0.8853
  133MOL0     H17934   8.171  11.184   7.158 -1.2891  1.5701  2.6125
  133MOL0     H17935   7.961  10.967   7.166  1.3021  0.4749  1.9789
  133MOL0     H17936   7.976  11.090   7.035  2.7475 -1.3819 -1.5266
  133MOL0     H17937   8.840  11.366   7.865 -2.1450  0.8498  0.9020
  133MOL0     H17938   9.012  11.292   8.006 -0.9730 -0.5552  2.4460
  133MOL0     H17939   9.089  11.179   8.356 -0.1884  0.2403  0.2916
  133MOL0     H17940   9.234  11.223   8.552  1.4864  0.0650  0.6128
  133MOL0     H17941   8.607  10.260   8.704  0.0144  1.4831 -0.6471
  133MOL0     H17942   8.386  10.256   8.571 -1.9207  3.4223  0.6615
  133MOL0     H17943   8.202  10.149   8.072  0.2790 -2.4059  2.0465
  133MOL0     H17944   7.963  10.176   7.984 -1.0430  1.3600  0.0966
  133MOL0     H17945   7.739  10.467   8.164  0.9511 -0.5677  0.6299
  133MOL0     H17946   7.616  10.423   8.050  0.3081  0.7147 -0.9022
  133MOL0     H17947   7.665  10.290   8.322 -0.6132 -0.6477  0.7213
  133MOL0     H17948   7.555  10.235   8.199  2.2047 -2.2334  0.6083
  133MOL0     H17949   7.502  10.525   8.254 -1.0943  1.8157  4.6615
  133MOL0     H17950   7.539  10.449   8.403 -1.5096  2.2883  0.3985
  133MOL0     H17951   7.345  10.270   8.310 -3.2468  0.9264  0.1526
  133MOL0     H17952   7.281  10.425   8.254 -1.2977  1.3943  1.0662
  133MOL0     H17953   7.233  10.402   8.674  1.0899  2.3960  0.9373
  133MOL0     H17954   7.846  10.383   8.329 -1.0337 -2.6353  0.6855
  133MOL0     H17955   8.080  10.374   8.432  3.9604 -0.5011  0.8465
  134MOL0     O17956   8.572   7.987  10.371 -0.3625  0.4013  0.0813
  134MOL0     C17957   8.641   7.914  10.442  0.1694 -0.1111 -0.5369
  134MOL0     O17958   8.611   7.892  10.572 -0.1344  0.8322 -0.4256
  134MOL0     C17959   8.475   7.893  10.613 -0.3209 -0.3576 -0.3330
  134MOL0     C17960   8.431   8.020  10.647 -0.2220  0.3187  0.3479
  134MOL0     C17961   8.305   8.035  10.698 -0.1935 -0.2315  0.0879
  134MOL0     C17962   8.214   7.927  10.697 -0.1537  0.3834 -0.6351
  134MOL0     O17963   8.085   7.933  10.731  0.4642  0.3004  0.1357
  134MOL0     C17964   8.028   8.051  10.771 -0.1072  0.0949  0.1041
  134MOL0     C17965   7.884   8.012  10.819 -0.0850 -0.2023  0.2305
  134MOL0     C17966   7.797   8.136  10.857 -0.3135  0.7203  0.8454
  134MOL0     C17967   7.667   8.079  10.906 -0.2386 -0.9230 -0.4303
  134MOL0     C17968   7.559   8.190  10.931 -0.7693 -0.5570  0.0111
  134MOL0     C17969   7.424   8.133  10.938  0.6171 -0.9752 -0.4963
  134MOL0     C17970   7.332   8.248  10.991  0.6432 -0.1093  0.0285
  134MOL0     C17971   7.201   8.185  11.034  0.2528  0.2363 -0.0160
  134MOL0     N17972   7.194   8.134  11.172 -0.5264 -0.9351  0.3638
  134MOL0     C17973   7.136   8.208  11.281  0.0579  0.1489  0.5192
  134MOL0     C17974   7.121   8.129  11.383  0.2343  1.7337  0.3699
  134MOL0     C17975   7.083   8.161  11.525 -0.2282  0.3610 -0.1212
  134MOL0     C17976   6.930   8.204  11.550  0.3335 -0.0302  0.3213
  134MOL0     C17977   6.912   8.214  11.700 -0.0872 -0.0451 -0.0004
  134MOL0     C17978   6.773   8.263  11.736  0.2914  0.5403  0.0964
  134MOL0     O17979   6.670   8.166  11.691  0.4228 -0.0707  0.1653
  134MOL0     C17980   6.549   8.187  11.758  0.1373 -0.3872  0.6075
  134MOL0     C17981   6.507   8.319  11.795 -0.0950  0.3540 -0.3457
  134MOL0     C17982   6.378   8.346  11.841  0.1152  0.1483  0.2966
  134MOL0     C17983   6.350   8.491  11.869 -0.3840  0.5932 -0.2826
  134MOL0     C17984   6.296   8.238  11.870 -0.0388  0.2652  0.1647
  134MOL0     C17985   6.151   8.247  11.913 -0.2469  0.2538  0.1112
  134MOL0     O17986   6.066   8.145  11.876  0.2529  0.5258 -0.0416
  134MOL0     C17987   5.939   8.173  11.875  0.4574 -0.4173  1.1131
  134MOL0     C17988   5.899   8.280  11.791 -0.0266  0.2546  0.1332
  134MOL0     C17989   5.766   8.315  11.766  0.1631  0.1873 -0.1414
  134MOL0     C17990   5.666   8.226  11.818  0.5298  0.1402  0.0692
  134MOL0     O17991   5.532   8.250  11.796 -0.0116 -0.5149 -0.0613
  134MOL0     C17992   5.439   8.136  11.789  0.2583  0.1462 -0.4449
  134MOL0     C17993   5.304   8.189  11.756  0.0250  0.1582  0.7065
  134MOL0     C17994   5.198   8.077  11.746  0.9496  0.1782 -0.1517
  134MOL0     C17995   5.078   8.125  11.664 -0.4392 -0.7294 -0.8716
  134MOL0     C17996   4.966   8.020  11.643  1.0905  0.1054  0.3826
  134MOL0     C17997   4.858   8.065  11.555  1.5703  0.4595  0.8990
  134MOL0     C17998   4.753   7.956  11.531  0.0436 -0.4394 -0.1310
  134MOL0     C17999   4.683   7.955  11.398  0.1040 -0.1044  0.0125
  134MOL0    Cl18000   4.641   8.119  11.335 -0.1317 -0.7360  0.3040
  134MOL0     C18001   5.708   8.105  11.884 -0.3758  0.2547  0.0967
  134MOL0     C18002   5.843   8.090  11.920 -0.9091  0.5367 -0.1116
  134MOL0     O18003   6.115   8.344  11.976 -0.4658  0.2044  1.0353
  134MOL0     C18004   6.336   8.110  11.829 -0.1698  0.3790  0.3088
  134MOL0     C18005   6.462   8.087  11.774  1.0435 -0.1600 -0.1020
  134MOL0     N18006   7.175   8.007  11.346 -0.2224 -0.1303  0.0512
  134MOL0     N18007   7.206   8.009  11.218 -0.3051  0.5774 -0.6418
  134MOL0     C18008   8.262   7.798  10.664 -1.0123 -0.4621 -0.8880
  134MOL0     C18009   8.396   7.781  10.623 -0.3018  0.9550 -0.1555
  134MOL0     C18010   8.763   7.861  10.385 -0.1574 -0.1155  0.7268
  134MOL0     C18011   8.793   7.877  10.252  0.2608  0.3663 -1.2647
  134MOL0     C18012   8.909   7.829  10.193 -0.3014  1.0729  0.3477
  134MOL0     C18013   8.989   7.746  10.263 -0.0802  0.1304  0.5396
  134MOL0     O18014   9.099   7.679  10.215 -0.0720 -0.5807 -0.3250
  134MOL0     C18015   9.145   7.672  10.081 -0.6418 -0.5200  1.2220
  134MOL0     C18016   9.074   7.573   9.992  0.7192  1.4088  0.3157
  134MOL0     C18017   9.040   7.447  10.065  0.6057  0.4419 -0.2701
  134MOL0     C18018   8.967   7.343   9.978  0.3639 -0.1788 -0.2134
  134MOL0     C18019   9.039   7.323   9.856 -0.3767  0.3302 -0.1705
  134MOL0     C18020   9.109   7.295   9.758 -0.1833 -0.2410  0.1699
  134MOL0     C18021   8.959   7.716  10.391  0.3219 -0.6964 -1.3223
  134MOL0     C18022   8.850   7.781  10.458 -0.2656  0.9274 -0.8310
  134MOL0     H18023   8.493   8.109  10.641 -0.6550  0.9099  3.3438
  134MOL0     H18024   8.280   8.137  10.723 -1.8455 -0.6099  0.0599
  134MOL0     H18025   8.080   8.097  10.856  0.4408 -3.1976  1.7114
  134MOL0     H18026   8.023   8.123  10.690 -3.8743 -0.6700 -0.5211
  134MOL0     H18027   7.832   7.951  10.744 -1.4711  1.0041  0.1677
  134MOL0     H18028   7.899   7.946  10.905 -2.6344 -1.3025 -0.0759
  134MOL0     H18029   7.853   8.194  10.932  0.9392  0.4886  0.1271
  134MOL0     H18030   7.768   8.198  10.772  0.3690  1.2296  0.9742
  134MOL0     H18031   7.622   8.000  10.845 -3.0980 -0.3554  0.7952
  134MOL0     H18032   7.689   8.034  11.003 -2.0864 -1.3598 -0.1902
  134MOL0     H18033   7.582   8.239  11.026 -0.1351  0.4216 -0.6333
  134MOL0     H18034   7.563   8.269  10.855  2.9315  0.2108  0.7845
  134MOL0     H18035   7.391   8.091  10.843  1.4592 -0.1996 -1.1500
  134MOL0     H18036   7.439   8.050  11.008  4.2344 -1.1261 -1.2625
  134MOL0     H18037   7.381   8.312  11.066 -1.9403  3.8519 -1.3314
  134MOL0     H18038   7.312   8.323  10.913 -0.2516  0.5109  0.8259
  134MOL0     H18039   7.189   8.104  10.962 -0.8402  1.0204 -0.7620
  134MOL0     H18040   7.119   8.256  11.019 -0.2198 -0.2956  0.0319
  134MOL0     H18041   7.117   8.314  11.289  3.6601  0.9081  0.6964
  134MOL0     H18042   7.103   8.072  11.585 -0.4208 -0.0651 -0.6804
  134MOL0     H18043   7.148   8.244  11.552  1.2900  0.0463 -2.4937
  134MOL0     H18044   6.852   8.145  11.502  0.0379 -1.6438  2.6073
  134MOL0     H18045   6.918   8.305  11.508  0.3847  0.8120  2.2229
  134MOL0     H18046   6.985   8.282  11.746  1.0471 -1.2872  0.1079
  134MOL0     H18047   6.927   8.116  11.746 -2.5294 -0.7456 -0.5533
  134MOL0     H18048   6.747   8.351  11.676 -2.4449 -2.2316 -3.1808
  134MOL0     H18049   6.766   8.286  11.843 -1.6841 -1.4530  0.4691
  134MOL0     H18050   6.572   8.402  11.767  1.3302 -1.2754 -2.0966
  134MOL0     H18051   6.255   8.519  11.821 -0.3213 -0.5860 -1.1466
  134MOL0     H18052   6.361   8.505  11.977  1.3567 -2.7651  0.1190
  134MOL0     H18053   6.426   8.557  11.827  0.1914 -0.1702 -0.4734
  134MOL0     H18054   5.968   8.351  11.745  0.8740 -0.5608  0.1695
  134MOL0     H18055   5.731   8.400  11.708  0.0827 -1.0613 -2.0281
  134MOL0     H18056   5.482   8.055  11.729 -0.3526 -0.5762  0.0701
  134MOL0     H18057   5.432   8.081  11.884  2.5986  0.2669 -0.1569
  134MOL0     H18058   5.263   8.253  11.833  0.6162  0.3650  0.8554
  134MOL0     H18059   5.312   8.248  11.664 -0.2236  3.0812  2.4590
  134MOL0     H18060   5.158   8.060  11.847 -0.6313  0.2968 -0.7314
  134MOL0     H18061   5.229   7.981  11.705 -1.3833  0.3322 -2.5421
  134MOL0     H18062   5.041   8.212  11.719  2.6104 -0.6279  1.2269
  134MOL0     H18063   5.125   8.141  11.567  1.4972  1.5485  0.3659
  134MOL0     H18064   4.923   7.984  11.737 -2.2235 -3.3594 -2.1416
  134MOL0     H18065   5.020   7.941  11.589 -0.0076  0.1457 -0.8238
  134MOL0     H18066   4.808   8.148  11.605 -1.0722 -1.4632  1.7088
  134MOL0     H18067   4.896   8.093  11.456  1.4802 -3.9298 -0.6043
  134MOL0     H18068   4.678   7.967  11.609  0.6471 -1.4024  0.6170
  134MOL0     H18069   4.800   7.859  11.551  0.3630 -0.1887  0.3514
  134MOL0     H18070   4.587   7.908  11.419 -0.3985  0.6180 -0.6223
  134MOL0     H18071   4.736   7.899  11.320 -1.1595 -2.7200  0.9245
  134MOL0     H18072   5.635   8.027  11.903 -1.5543  0.5934 -2.5081
  134MOL0     H18073   5.865   8.005  11.984  0.5493  1.3762  0.5700
  134MOL0     H18074   6.272   8.024  11.843  0.1531 -0.4555 -2.6376
  134MOL0     H18075   6.487   7.986  11.742  0.5819 -0.4468  0.4227
  134MOL0     H18076   8.200   7.710  10.675  0.1684 -1.3819 -1.4439
  134MOL0     H18077   8.435   7.684  10.595  0.0993  0.9757  0.3251
  134MOL0     H18078   8.722   7.930  10.189  0.1036  2.3253  0.4510
  134MOL0     H18079   8.930   7.843  10.088 -1.0524 -1.4287 -0.2035
  134MOL0     H18080   9.139   7.772  10.037  0.6196  0.2601  2.7462
  134MOL0     H18081   9.249   7.641  10.088 -0.5040 -0.8861 -1.4331
  134MOL0     H18082   9.137   7.549   9.907 -0.6806  2.5928 -1.1400
  134MOL0     H18083   8.990   7.619   9.937 -0.0569 -2.4967 -2.1179
  134MOL0     H18084   8.979   7.472  10.153 -0.8015 -0.6826 -0.8764
  134MOL0     H18085   9.127   7.395  10.107  0.5858  1.0049  0.4778
  134MOL0     H18086   8.868   7.385   9.957 -0.5024 -2.4433 -0.9165
  134MOL0     H18087   8.961   7.245  10.027  0.2367  0.0736  0.2813
  134MOL0     H18088   9.162   7.260   9.672  1.5019 -0.7060  1.3293
  134MOL0     H18089   9.019   7.642  10.444  0.4924  0.1366 -0.3244
  134MOL0     H18090   8.828   7.754  10.561 -3.7166  1.0790 -1.4269
  135MOL0     O18091   7.970   6.870  10.274 -0.3280  0.4532 -0.3873
  135MOL0     C18092   8.016   6.906  10.382 -0.0714  0.0158  0.6563
  135MOL0     O18093   7.950   6.899  10.505  0.1666 -0.0242 -0.2755
  135MOL0     C18094   7.821   6.854  10.510  0.0816 -0.7826 -0.2148
  135MOL0     C18095   7.801   6.718  10.497  0.2846 -0.0180  0.8153
  135MOL0     C18096   7.669   6.661  10.508  0.2987 -0.2410  0.3380
  135MOL0     C18097   7.555   6.738  10.528 -0.8346 -1.2790  0.4813
  135MOL0     O18098   7.423   6.695  10.526  0.4944 -0.3799 -0.0383
  135MOL0     C18099   7.401   6.566  10.585  0.1375  0.0886  0.2559
  135MOL0     C18100   7.272   6.508  10.524  0.8478 -0.6506 -1.0527
  135MOL0     C18101   7.136   6.573  10.569  0.0114 -0.2402  0.1607
  135MOL0     C18102   7.126   6.722  10.539 -0.1660 -0.1769  0.4234
  135MOL0     C18103   6.978   6.775  10.553 -0.3425  0.7270 -0.4022
  135MOL0     C18104   6.967   6.909  10.485 -0.1895  0.8521  0.2908
  135MOL0     C18105   6.833   6.973  10.481 -0.3338 -0.4483 -0.1968
  135MOL0     C18106   6.744   6.948  10.603  0.5285  0.2685  0.2667
  135MOL0     N18107   6.625   7.038  10.603  0.6387  1.2506 -0.2892
  135MOL0     C18108   6.613   7.158  10.531 -0.3509 -0.1728  0.1075
  135MOL0     C18109   6.483   7.184  10.534 -0.4130 -0.2135 -0.2978
  135MOL0     C18110   6.416   7.310  10.477 -0.8873  0.3603  0.2954
  135MOL0     C18111   6.373   7.294  10.331 -0.2764 -0.4972  0.6185
  135MOL0     C18112   6.240   7.221  10.320  0.4599 -0.0438  0.6204
  135MOL0     C18113   6.195   7.212  10.170 -0.9327  0.0634 -0.9561
  135MOL0     O18114   6.091   7.117  10.167  0.0825  0.4849 -0.4099
  135MOL0     C18115   5.970   7.180  10.125 -0.6914  0.5880  0.7097
  135MOL0     C18116   5.878   7.235  10.208 -1.1160 -0.0785 -0.3395
  135MOL0     C18117   5.749   7.289  10.173 -0.7780 -0.1886  0.4740
  135MOL0     C18118   5.653   7.331  10.283  0.3343 -0.1443  0.4121
  135MOL0     C18119   5.719   7.303  10.033  0.0569 -0.1933  0.0316
  135MOL0     C18120   5.605   7.373   9.979  0.3617 -0.4789 -0.0429
  135MOL0     O18121   5.549   7.327   9.867  0.2808  0.4008  0.4592
  135MOL0     C18122   5.486   7.411   9.778 -0.0218 -0.6175  0.4021
  135MOL0     C18123   5.351   7.413   9.791 -0.0492  0.0908 -0.1485
  135MOL0     C18124   5.268   7.513   9.719 -0.9605 -0.0392 -0.6186
  135MOL0     C18125   5.337   7.606   9.643 -0.4721  0.4090 -0.3557
  135MOL0     O18126   5.266   7.701   9.581 -0.3521  0.1242  0.1376
  135MOL0     C18127   5.252   7.804   9.673 -0.1683 -0.7930 -1.1775
  135MOL0     C18128   5.199   7.933   9.604  0.0101 -0.0842 -0.2886
  135MOL0     C18129   5.050   7.907   9.558  1.2357  0.0387  0.0179
  135MOL0     C18130   4.945   7.936   9.673 -0.0412  0.6431  0.6578
  135MOL0     C18131   4.803   7.945   9.619 -0.5954 -0.8877 -0.4346
  135MOL0     C18132   4.704   7.966   9.732  0.5856  0.0676 -0.7216
  135MOL0     C18133   4.555   7.976   9.716  0.6168  0.6173  0.3775
  135MOL0     C18134   4.476   7.875   9.620  0.4421 -0.4329  1.0798
  135MOL0    Cl18135   4.303   7.844   9.651  0.3124 -0.3259 -0.5622
  135MOL0     C18136   5.479   7.601   9.629  0.9334  0.4975 -0.5594
  135MOL0     C18137   5.548   7.507   9.708 -0.0596 -0.0676  0.0314
  135MOL0     O18138   5.556   7.465  10.047 -0.1526  0.1248  0.0407
  135MOL0     C18139   5.809   7.240   9.941  1.6395  0.6705 -0.6644
  135MOL0     C18140   5.928   7.179   9.984  0.0446 -0.2851 -0.8793
  135MOL0     N18141   6.417   7.091  10.612  0.0279 -0.4578  0.0488
  135MOL0     N18142   6.500   6.992  10.641 -0.1077 -0.5274  0.9032
  135MOL0     C18143   7.577   6.877  10.538  0.6756 -0.5282  1.3713
  135MOL0     C18144   7.701   6.932  10.535 -0.6234 -0.3355  0.4022
  135MOL0     C18145   8.160   6.951  10.381 -0.6482 -0.3226  0.7152
  135MOL0     C18146   8.228   6.972  10.258  0.3844  0.9008 -0.5635
  135MOL0     C18147   8.361   7.007  10.244 -0.3077  0.8774 -0.2114
  135MOL0     C18148   8.433   7.036  10.366  0.3330  0.2772  0.7921
  135MOL0     O18149   8.563   7.060  10.351 -0.1173  0.0059  0.6125
  135MOL0     C18150   8.647   7.070  10.465  0.3843 -0.0442  0.2279
  135MOL0     C18151   8.797   7.071  10.438 -0.4782 -0.1894  0.5906
  135MOL0     C18152   8.834   7.187  10.339 -0.5150  0.4204 -0.7165
  135MOL0     C18153   8.855   7.323  10.404 -1.4475  0.0923 -0.1461
  135MOL0     C18154   8.751   7.369  10.483 -0.2201 -0.0804 -0.3981
  135MOL0     C18155   8.664   7.416  10.553  0.1859 -0.1581  0.1250
  135MOL0     C18156   8.368   7.026  10.493 -0.2110 -0.4096 -0.2697
  135MOL0     C18157   8.227   6.996  10.497  0.9117  0.1875 -0.3341
  135MOL0     H18158   7.878   6.642  10.492 -0.3908 -0.6939  0.4545
  135MOL0     H18159   7.657   6.556  10.484 -2.3347 -0.4287  2.0154
  135MOL0     H18160   7.485   6.497  10.589 -0.5231 -0.6682  3.1795
  135MOL0     H18161   7.381   6.578  10.692 -1.0838  2.0179 -0.1388
  135MOL0     H18162   7.284   6.521  10.416 -1.5777 -0.8952 -1.4069
  135MOL0     H18163   7.275   6.402  10.552  2.2855 -0.3596 -0.0217
  135MOL0     H18164   7.050   6.530  10.516 -0.9504  0.4450  1.1209
  135MOL0     H18165   7.120   6.569  10.677  3.2547  1.1602  0.7983
  135MOL0     H18166   7.189   6.771  10.614  0.6533  1.1150 -1.0288
  135MOL0     H18167   7.172   6.740  10.441  1.0845 -1.5510  0.7243
  135MOL0     H18168   6.918   6.695  10.509  1.3330 -1.0918  0.4532
  135MOL0     H18169   6.956   6.790  10.659 -1.0994 -0.2853 -0.4071
  135MOL0     H18170   7.037   6.978  10.533  0.5284  3.4925 -4.0202
  135MOL0     H18171   6.998   6.898  10.380 -0.7653  3.0999 -0.1540
  135MOL0     H18172   6.853   7.080  10.469  0.4849 -0.2394  2.3851
  135MOL0     H18173   6.788   6.938  10.388 -1.1380 -1.6670  0.6292
  135MOL0     H18174   6.792   6.948  10.701  0.6829  1.8134  0.2210
  135MOL0     H18175   6.695   6.851  10.587  0.3781  0.2664  0.7371
  135MOL0     H18176   6.678   7.219  10.467 -2.2186 -1.1334 -2.8919
  135MOL0     H18177   6.330   7.344  10.536  0.0036  1.0683  1.2096
  135MOL0     H18178   6.491   7.389  10.480 -2.5604  2.0288 -0.0325
  135MOL0     H18179   6.453   7.239  10.280 -0.9143 -0.9974  0.1245
  135MOL0     H18180   6.366   7.391  10.282 -2.1210 -1.8089 -1.9750
  135MOL0     H18181   6.159   7.260  10.381 -0.7869 -0.6024 -0.6316
  135MOL0     H18182   6.256   7.118  10.354 -1.4506 -0.4794  0.3004
  135MOL0     H18183   6.276   7.168  10.110  0.4808  0.8302  0.3172
  135MOL0     H18184   6.165   7.310  10.134  0.3734  0.8869  0.0795
  135MOL0     H18185   5.895   7.228  10.315  1.0387  0.6445 -0.5859
  135MOL0     H18186   5.675   7.273  10.373 -0.8839  0.3192  1.0272
  135MOL0     H18187   5.684   7.431  10.315  1.0679 -0.9110  2.2798
  135MOL0     H18188   5.547   7.326  10.256  0.0034  1.0663  1.4035
  135MOL0     H18189   5.306   7.347   9.863 -1.3119  0.4838 -0.5573
  135MOL0     H18190   5.160   7.503   9.727 -1.1964  1.4135 -1.6229
  135MOL0     H18191   5.178   7.783   9.750 -0.0408  3.6855  0.4567
  135MOL0     H18192   5.348   7.823   9.721 -1.0822 -1.3060  0.9636
  135MOL0     H18193   5.192   8.019   9.670  0.0921 -1.1476  1.1594
  135MOL0     H18194   5.264   7.943   9.517 -2.0894 -3.1875 -2.4531
  135MOL0     H18195   5.026   7.806   9.526 -0.7874  0.1082  1.1768
  135MOL0     H18196   5.027   7.970   9.472 -1.6171 -1.7198 -0.6170
  135MOL0     H18197   4.964   7.862   9.751  3.1391 -0.4813 -1.0068
  135MOL0     H18198   4.955   8.036   9.716  0.6272  0.8869 -0.0489
  135MOL0     H18199   4.772   7.860   9.558 -3.7362 -2.0589  2.4210
  135MOL0     H18200   4.805   8.030   9.550  0.9878 -1.9733 -1.8103
  135MOL0     H18201   4.717   7.880   9.798  1.7010 -0.8304 -2.0533
  135MOL0     H18202   4.729   8.055   9.791 -3.4223 -0.6177  2.4290
  135MOL0     H18203   4.525   8.074   9.679 -0.2080  0.2727  0.1156
  135MOL0     H18204   4.508   7.988   9.814  2.7309  3.3209  1.1937
  135MOL0     H18205   4.507   7.774   9.649 -0.1532 -1.4991 -1.6915
  135MOL0     H18206   4.487   7.897   9.513 -0.0822  2.0832  1.4823
  135MOL0     H18207   5.533   7.677   9.573  2.5386  0.7595  1.2506
  135MOL0     H18208   5.655   7.495   9.693  0.4076  2.0007  1.3204
  135MOL0     H18209   5.771   7.216   9.842 -0.8644 -0.1180  0.4138
  135MOL0     H18210   5.991   7.132   9.909  0.0009  0.4420 -1.3906
  135MOL0     H18211   7.487   6.936  10.556 -0.9192 -1.6593 -2.1288
  135MOL0     H18212   7.715   7.038  10.553  0.8102  0.2005 -3.0977
  135MOL0     H18213   8.166   6.962  10.170 -1.0801 -0.4102  0.5577
  135MOL0     H18214   8.410   7.006  10.148  1.3421 -1.9814  0.5480
  135MOL0     H18215   8.614   7.154  10.527  0.2234  0.8805 -1.0852
  135MOL0     H18216   8.639   6.984  10.533  0.4535  1.5281  2.3126
  135MOL0     H18217   8.812   6.971  10.396 -1.9021  0.0849 -0.7021
  135MOL0     H18218   8.853   7.074  10.532 -0.1000  3.2098  0.3861
  135MOL0     H18219   8.756   7.177  10.263 -0.2569 -0.0365 -0.9274
  135MOL0     H18220   8.929   7.160  10.291 -1.1916 -0.4932 -1.5682
  135MOL0     H18221   8.872   7.394  10.322  1.0660 -0.5386 -0.2688
  135MOL0     H18222   8.951   7.323  10.457 -1.8354 -2.3852  0.6500
  135MOL0     H18223   8.585   7.473  10.596  1.0118  2.8728 -2.0221
  135MOL0     H18224   8.402   7.061  10.590  0.9504 -1.8879 -0.1201
  135MOL0     H18225   8.158   7.004  10.580 -0.0261  2.6170 -1.2720
  136MOL0     O18226   2.797   7.094   2.704  0.5574 -0.3045  0.2865
  136MOL0     C18227   2.832   7.154   2.598 -0.1013 -0.8730 -0.0124
  136MOL0     O18228   2.758   7.153   2.478 -0.2064  0.5440 -0.0388
  136MOL0     C18229   2.635   7.098   2.481  0.8249 -0.3768 -0.4090
  136MOL0     C18230   2.531   7.170   2.432  0.7245  0.9523 -0.7591
  136MOL0     C18231   2.408   7.117   2.417  0.5843  0.5585 -0.3054
  136MOL0     C18232   2.382   6.990   2.460  0.0733  0.5110 -0.2272
  136MOL0     O18233   2.249   6.955   2.449 -0.2789  0.0981  0.2588
  136MOL0     C18234   2.186   6.841   2.515 -0.5508 -0.1989  0.8165
  136MOL0     C18235   2.039   6.846   2.493  0.3627  0.6303  0.5981
  136MOL0     C18236   1.962   6.750   2.584  0.2612  0.1454 -0.7521
  136MOL0     C18237   1.965   6.602   2.553  0.6263  0.2156  0.6086
  136MOL0     C18238   1.866   6.519   2.629  1.3704 -0.0906 -0.1505
  136MOL0     C18239   1.719   6.555   2.599  0.5973  1.0099 -0.9706
  136MOL0     C18240   1.628   6.467   2.680 -0.3556  0.0717  0.6317
  136MOL0     C18241   1.492   6.528   2.668 -0.0851  0.3645 -0.7542
  136MOL0     N18242   1.397   6.447   2.746  0.5948 -0.1898  0.2303
  136MOL0     C18243   1.298   6.482   2.831  0.2264 -0.7021  0.6522
  136MOL0     C18244   1.216   6.378   2.844  0.1643 -0.2499 -0.5792
  136MOL0     C18245   1.085   6.389   2.917 -0.0857 -0.2037 -0.4904
  136MOL0     C18246   0.962   6.309   2.857  0.1627 -0.7190  0.3202
  136MOL0     C18247   0.869   6.267   2.972 -0.1779  0.3265 -0.5831
  136MOL0     C18248   0.764   6.172   2.936  0.3662  0.5024 -0.7285
  136MOL0     O18249   0.697   6.209   2.813 -0.3329  0.4846 -0.1720
  136MOL0     C18250   0.582   6.138   2.778 -0.8779 -0.2777 -0.2758
  136MOL0     C18251   0.528   6.033   2.853  1.0258  0.8259  0.0461
  136MOL0     C18252   0.419   5.961   2.809  0.2695 -0.7339 -0.2520
  136MOL0     C18253   0.370   5.856   2.912  0.4045 -0.1432 -0.2390
  136MOL0     C18254   0.362   5.989   2.686 -0.8198 -0.7718 -0.0736
  136MOL0     C18255   0.244   5.919   2.629 -0.4023  0.0058 -0.2857
  136MOL0     O18256   0.223   5.791   2.672  0.3951 -0.1996  0.1432
  136MOL0     C18257   0.107   5.725   2.628 -0.4969  0.0395 -0.9246
  136MOL0     C18258   0.099   5.685   2.492 -0.2302  0.5706 -0.2824
  136MOL0     C18259  -0.013   5.599   2.457 -0.8212  0.1991  0.1171
  136MOL0     C18260  -0.112   5.552   2.550 -1.1099  0.3146 -0.4115
  136MOL0     O18261  -0.221   5.486   2.498  0.2116  0.6183 -0.2889
  136MOL0     C18262  -0.348   5.523   2.556 -0.0454  0.0536  0.1948
  136MOL0     C18263  -0.457   5.443   2.473 -0.2918 -0.3400 -1.1972
  136MOL0     C18264  -0.602   5.457   2.530  0.0784 -0.7468 -0.2298
  136MOL0     C18265  -0.688   5.419   2.416  0.9443 -0.3713 -0.2495
  136MOL0     C18266  -0.845   5.426   2.449 -0.5199 -0.1956  0.1096
  136MOL0     C18267  -0.936   5.391   2.327 -0.6495 -0.8684 -0.5014
  136MOL0     C18268  -1.082   5.361   2.359 -0.3385  0.1055  0.3531
  136MOL0     C18269  -1.152   5.304   2.237 -0.0492 -0.1831 -0.2229
  136MOL0    Cl18270  -1.288   5.212   2.308 -0.3922  0.0278  0.3901
  136MOL0     C18271  -0.096   5.591   2.687 -0.6307  0.1888  0.1165
  136MOL0     C18272   0.014   5.674   2.717 -0.2809 -0.2070 -0.7676
  136MOL0     O18273   0.182   5.971   2.538 -0.7902 -0.0169 -0.3955
  136MOL0     C18274   0.418   6.098   2.616  0.6877  0.5090  0.3837
  136MOL0     C18275   0.525   6.174   2.665  0.0424 -0.2091  0.0858
  136MOL0     N18276   1.269   6.268   2.783 -0.0339 -0.0237 -0.2470
  136MOL0     N18277   1.376   6.310   2.723  0.1052 -0.1776  0.5626
  136MOL0     C18278   2.491   6.911   2.514  0.0368  0.9414 -0.3533
  136MOL0     C18279   2.612   6.970   2.523 -0.1074  0.2577  0.4831
  136MOL0     C18280   2.964   7.232   2.592  0.4690 -0.7477 -0.1311
  136MOL0     C18281   2.974   7.343   2.504 -0.0400  0.5237 -0.0870
  136MOL0     C18282   3.085   7.413   2.500 -0.4810 -0.6516  0.7770
  136MOL0     C18283   3.197   7.368   2.575  0.3695  0.3207 -0.5306
  136MOL0     O18284   3.317   7.427   2.580 -0.3586 -0.0899 -0.2201
  136MOL0     C18285   3.355   7.548   2.520 -0.2590  0.6384  0.4338
  136MOL0     C18286   3.499   7.570   2.554  0.1674  0.1094  0.2068
  136MOL0     C18287   3.598   7.461   2.516  0.5878 -1.2000  0.7686
  136MOL0     C18288   3.745   7.498   2.557  0.4584  0.2947  0.6762
  136MOL0     C18289   3.846   7.421   2.489  0.0967 -0.1937  0.2113
  136MOL0     C18290   3.920   7.350   2.418 -0.0064  0.2080 -0.5483
  136MOL0     C18291   3.187   7.261   2.654 -0.4481 -0.9756 -0.4381
  136MOL0     C18292   3.064   7.194   2.670 -0.2453 -0.3688 -0.6948
  136MOL0     H18293   2.556   7.272   2.408  0.4048  0.9294 -1.2120
  136MOL0     H18294   2.334   7.182   2.374  1.3078  1.4503 -0.2315
  136MOL0     H18295   2.221   6.750   2.466  1.6432  0.0075  1.9065
  136MOL0     H18296   2.209   6.836   2.622 -0.5723  0.6891  0.8770
  136MOL0     H18297   2.008   6.950   2.510 -3.1383 -0.2802  0.5608
  136MOL0     H18298   2.018   6.831   2.386  0.2546  1.2624  0.5217
  136MOL0     H18299   1.990   6.756   2.690 -3.4127  1.1719  0.2875
  136MOL0     H18300   1.860   6.784   2.566  1.0426  1.2837 -3.5499
  136MOL0     H18301   1.931   6.589   2.450  0.9392  0.2551  0.4974
  136MOL0     H18302   2.072   6.578   2.555  0.6355  0.3035  1.4504
  136MOL0     H18303   1.873   6.415   2.595 -0.9424 -0.3399  0.0285
  136MOL0     H18304   1.878   6.522   2.738  1.9234 -1.1289 -0.1672
  136MOL0     H18305   1.702   6.661   2.621 -1.8270  0.8789 -1.9296
  136MOL0     H18306   1.694   6.532   2.496 -1.2909 -4.3459  0.3609
  136MOL0     H18307   1.629   6.365   2.640  2.6683  1.2061 -2.6423
  136MOL0     H18308   1.647   6.471   2.788  0.5166 -0.5221  0.5084
  136MOL0     H18309   1.459   6.549   2.566 -0.9547  0.6227 -0.4293
  136MOL0     H18310   1.502   6.621   2.726  0.6226 -0.9582  1.3443
  136MOL0     H18311   1.270   6.581   2.865  3.3634  0.6862 -0.4172
  136MOL0     H18312   1.095   6.358   3.021 -2.6224  0.7352  0.1098
  136MOL0     H18313   1.059   6.495   2.917 -0.3749 -0.2329 -2.3246
  136MOL0     H18314   1.004   6.225   2.800  3.2622 -1.2198  2.9948
  136MOL0     H18315   0.913   6.381   2.791  2.6351  1.5138  0.7505
  136MOL0     H18316   0.823   6.360   3.005  0.4049  0.5275 -0.3221
  136MOL0     H18317   0.925   6.227   3.057  2.9285  1.9480 -1.7262
  136MOL0     H18318   0.699   6.175   3.024  2.2608  2.3680  0.7323
  136MOL0     H18319   0.806   6.072   2.923 -1.4910 -0.3688 -0.2996
  136MOL0     H18320   0.572   5.985   2.940 -2.9973 -1.7062  0.9310
  136MOL0     H18321   0.378   5.894   3.015 -0.3173  0.4341 -0.3961
  136MOL0     H18322   0.267   5.822   2.903  1.2231 -2.2491 -3.0232
  136MOL0     H18323   0.429   5.764   2.904 -0.4270 -0.6243 -0.9803
  136MOL0     H18324   0.166   5.706   2.409  0.7293  0.0579  0.3310
  136MOL0     H18325  -0.016   5.572   2.352 -1.4878 -1.1176  0.4472
  136MOL0     H18326  -0.351   5.490   2.660  1.1706 -2.5443 -0.5103
  136MOL0     H18327  -0.379   5.628   2.547 -4.3771 -1.1877 -3.0464
  136MOL0     H18328  -0.445   5.475   2.369  1.4469  6.1821  0.5640
  136MOL0     H18329  -0.428   5.338   2.489  2.2908  0.6527  1.5754
  136MOL0     H18330  -0.627   5.556   2.568  0.0055 -0.4475 -1.0477
  136MOL0     H18331  -0.623   5.390   2.614 -0.4310 -3.3286 -2.2656
  136MOL0     H18332  -0.668   5.486   2.332 -0.4046 -0.6272 -0.8104
  136MOL0     H18333  -0.668   5.314   2.394  1.8792 -0.1486 -0.4970
  136MOL0     H18334  -0.874   5.521   2.494 -0.6916 -0.9262  1.5984
  136MOL0     H18335  -0.850   5.355   2.532  0.3882  0.2870  0.5984
  136MOL0     H18336  -0.942   5.487   2.275  5.2824  0.2361  0.1214
  136MOL0     H18337  -0.894   5.305   2.273 -3.1526 -3.1814  0.9384
  136MOL0     H18338  -1.137   5.450   2.392 -0.3068  0.4662 -0.5494
  136MOL0     H18339  -1.077   5.283   2.436  2.6999 -0.2960 -0.1218
  136MOL0     H18340  -1.079   5.244   2.181 -2.2214 -0.2305 -3.2887
  136MOL0     H18341  -1.195   5.388   2.182 -0.4897 -1.3052 -1.6898
  136MOL0     H18342  -0.143   5.542   2.772 -0.4899 -0.2483 -0.0547
  136MOL0     H18343   0.031   5.705   2.819  1.0843  0.0225 -1.0519
  136MOL0     H18344   0.365   6.130   2.527 -1.1255  0.6173  1.4517
  136MOL0     H18345   0.556   6.260   2.606 -1.0384 -0.2395 -0.5621
  136MOL0     H18346   2.465   6.807   2.532 -2.5552  1.5046 -0.3388
  136MOL0     H18347   2.695   6.909   2.558  0.1244  0.1643 -0.2015
  136MOL0     H18348   2.895   7.373   2.436  0.0481 -1.1111 -0.9671
  136MOL0     H18349   3.091   7.497   2.432 -1.6565 -0.6297  0.6844
  136MOL0     H18350   3.331   7.543   2.413 -0.3837  0.4385  0.4693
  136MOL0     H18351   3.300   7.634   2.559  1.9126  0.9853  3.0025
  136MOL0     H18352   3.514   7.599   2.659  0.3579  3.2995 -0.5963
  136MOL0     H18353   3.519   7.663   2.499  0.1544 -0.8779 -1.5131
  136MOL0     H18354   3.596   7.457   2.406  2.4932  0.3769  0.6235
  136MOL0     H18355   3.572   7.364   2.559  1.3627 -1.4330  0.7434
  136MOL0     H18356   3.746   7.473   2.664 -3.7846 -1.7083  0.4661
  136MOL0     H18357   3.756   7.606   2.552 -2.5616  0.6236 -1.0386
  136MOL0     H18358   3.977   7.290   2.350 -4.2827 -1.1171 -3.3226
  136MOL0     H18359   3.262   7.224   2.723 -0.3177  0.8376  0.4346
  136MOL0     H18360   3.056   7.110   2.738  0.6611  0.9916  1.1592
  137MOL0     O18361   2.448   2.771   8.953  0.2656 -0.4415  0.1606
  137MOL0     C18362   2.532   2.831   9.024  0.6606 -0.4689 -1.4320
  137MOL0     O18363   2.657   2.797   9.034 -1.2223 -0.1511 -0.0223
  137MOL0     C18364   2.705   2.699   8.957  0.2555 -0.7305 -0.5614
  137MOL0     C18365   2.657   2.571   8.972 -0.2144  0.2607  0.1075
  137MOL0     C18366   2.705   2.461   8.890  0.1331 -0.6342 -0.8416
  137MOL0     C18367   2.807   2.483   8.801 -0.2608  0.6135 -0.6590
  137MOL0     O18368   2.875   2.384   8.730 -0.5298 -0.1901  0.0998
  137MOL0     C18369   3.005   2.403   8.659 -0.2557 -0.0249  0.8219
  137MOL0     C18370   2.999   2.414   8.504  0.4847  0.6433 -0.5797
  137MOL0     C18371   2.911   2.297   8.457 -0.3053 -0.4231 -0.3561
  137MOL0     C18372   2.957   2.270   8.318 -0.7111  0.1476  0.0915
  137MOL0     C18373   2.885   2.159   8.232  0.0307  0.3184 -0.3063
  137MOL0     C18374   2.731   2.162   8.257  0.5135 -0.1487  0.3307
  137MOL0     C18375   2.665   2.052   8.170  0.1914 -0.5368 -0.7239
  137MOL0     C18376   2.527   2.083   8.113 -0.0807  0.0212 -0.0501
  137MOL0     N18377   2.423   2.061   8.217 -0.5775  0.1046  0.7763
  137MOL0     C18378   2.396   2.118   8.343 -0.6144 -0.1628  0.2993
  137MOL0     C18379   2.284   2.051   8.382 -0.0766 -0.3350  0.7592
  137MOL0     C18380   2.198   2.083   8.509  0.4374 -0.2078 -0.2873
  137MOL0     C18381   2.175   1.968   8.606 -0.4472  0.7941  0.1669
  137MOL0     C18382   2.307   1.941   8.677  0.0659 -0.4862  0.1777
  137MOL0     C18383   2.307   1.833   8.780 -0.4987  0.0648  0.1775
  137MOL0     O18384   2.213   1.872   8.877  0.0047  0.0844  0.4230
  137MOL0     C18385   2.093   1.804   8.883 -0.6236  0.1591  0.4389
  137MOL0     C18386   2.031   1.807   9.009  0.6459  0.0012  0.9029
  137MOL0     C18387   1.919   1.725   9.043  0.9984 -0.4511  0.6370
  137MOL0     C18388   1.868   1.733   9.180  0.9205 -0.3270 -0.1714
  137MOL0     C18389   1.863   1.642   8.940  0.0802 -0.6721 -0.4189
  137MOL0     C18390   1.739   1.554   8.965 -0.6168 -1.6620 -0.1104
  137MOL0     O18391   1.727   1.448   8.883 -0.0095 -0.0437 -0.3403
  137MOL0     C18392   1.607   1.394   8.868  1.0104  0.9751 -0.1265
  137MOL0     C18393   1.544   1.318   8.964  0.1117  0.5229  0.1491
  137MOL0     C18394   1.410   1.287   8.950  0.5213 -0.4041 -0.5740
  137MOL0     C18395   1.337   1.321   8.836 -0.1915  0.4052 -0.4743
  137MOL0     O18396   1.208   1.288   8.816  0.2555 -0.5235  0.7843
  137MOL0     C18397   1.163   1.160   8.855  0.1384 -0.1091 -0.0869
  137MOL0     C18398   1.035   1.140   8.771  0.0824  0.3169 -0.1359
  137MOL0     C18399   0.911   1.177   8.857 -0.5448  0.5873  0.0499
  137MOL0     C18400   0.782   1.180   8.775 -0.1259 -0.4831 -0.2565
  137MOL0     C18401   0.737   1.039   8.723 -0.5161 -0.3590 -0.4122
  137MOL0     C18402   0.611   1.036   8.643  0.1688 -0.4150  0.0618
  137MOL0     C18403   0.482   1.084   8.726 -0.1681  0.9744  0.1193
  137MOL0     C18404   0.348   1.086   8.650 -0.6922  0.3348 -0.4129
  137MOL0    Cl18405   0.280   0.917   8.645 -0.1159 -0.0352 -0.1074
  137MOL0     C18406   1.399   1.399   8.739 -0.0590  1.1907 -0.3906
  137MOL0     C18407   1.539   1.434   8.752  0.4483 -0.0168  0.1002
  137MOL0     O18408   1.650   1.597   9.035 -0.0374  0.8510  0.1366
  137MOL0     C18409   1.927   1.641   8.815  0.2948 -1.1173 -0.0743
  137MOL0     C18410   2.036   1.722   8.785 -0.7133  0.5020  0.0936
  137MOL0     N18411   2.240   1.953   8.291  0.1875  0.2178 -0.2434
  137MOL0     N18412   2.325   1.958   8.198 -0.6796 -0.5703 -0.1331
  137MOL0     C18413   2.868   2.612   8.792  1.3623 -0.5423  0.3240
  137MOL0     C18414   2.812   2.715   8.871  0.5288 -0.3643  0.2200
  137MOL0     C18415   2.488   2.948   9.104 -0.2376  0.3762 -0.3211
  137MOL0     C18416   2.357   2.999   9.087 -0.2549 -0.1769 -0.2395
  137MOL0     C18417   2.312   3.103   9.168  0.3526  0.2283  0.3585
  137MOL0     C18418   2.410   3.179   9.254  0.2581  0.5012 -0.4943
  137MOL0     O18419   2.348   3.268   9.333  0.9256 -0.4529  0.1408
  137MOL0     C18420   2.424   3.311   9.448  0.9835 -0.2577 -1.4742
  137MOL0     C18421   2.343   3.418   9.532  0.5080 -0.2586 -0.5381
  137MOL0     C18422   2.213   3.357   9.590 -0.9029 -0.6684 -0.6601
  137MOL0     C18423   2.156   3.453   9.698 -0.0833  0.4655  0.4631
  137MOL0     C18424   2.033   3.400   9.762 -0.3640  0.1514  0.4795
  137MOL0     C18425   1.932   3.364   9.814 -0.5123 -0.2147  0.4490
  137MOL0     C18426   2.545   3.129   9.267 -0.0679 -0.3298  0.2992
  137MOL0     C18427   2.588   3.019   9.184 -0.0649  1.0355  0.8019
  137MOL0     H18428   2.573   2.544   9.035  0.3656 -0.4856  0.5781
  137MOL0     H18429   2.666   2.359   8.892 -0.3345 -0.5268 -3.0216
  137MOL0     H18430   3.067   2.484   8.699  1.6018 -0.9409 -0.0918
  137MOL0     H18431   3.064   2.316   8.689 -0.2281  0.8511  3.5992
  137MOL0     H18432   2.957   2.510   8.474 -1.3981  0.4800  1.2584
  137MOL0     H18433   3.101   2.419   8.466  1.2716 -1.1415  1.0937
  137MOL0     H18434   2.927   2.212   8.523 -2.3454  0.5276  1.5154
  137MOL0     H18435   2.807   2.332   8.464 -0.1522 -0.0678  0.2006
  137MOL0     H18436   2.939   2.359   8.256  1.0535 -2.1923 -4.2252
  137MOL0     H18437   3.064   2.249   8.318 -0.8161 -0.4144  0.8805
  137MOL0     H18438   2.910   2.162   8.126  2.8173 -0.6828  0.2304
  137MOL0     H18439   2.920   2.059   8.261 -0.3003  0.1228 -0.5771
  137MOL0     H18440   2.712   2.143   8.363  0.9894 -0.1492  0.4184
  137MOL0     H18441   2.691   2.262   8.237 -1.4969 -1.4062 -2.6651
  137MOL0     H18442   2.739   2.039   8.090  3.2937 -1.5356  2.1004
  137MOL0     H18443   2.659   1.954   8.218  2.3177 -1.5869 -2.4488
  137MOL0     H18444   2.502   2.023   8.024  2.1469 -0.6375 -0.2805
  137MOL0     H18445   2.518   2.186   8.079 -0.0157  0.2474  0.6122
  137MOL0     H18446   2.469   2.178   8.397 -0.2837 -0.5082  0.2424
  137MOL0     H18447   2.258   2.156   8.565  1.2189 -0.4810 -0.7605
  137MOL0     H18448   2.101   2.127   8.483 -0.3164  0.0864  2.6299
  137MOL0     H18449   2.131   1.884   8.552 -2.1422  1.2812  0.7445
  137MOL0     H18450   2.097   2.002   8.675 -2.4902  1.3264 -2.2558
  137MOL0     H18451   2.330   2.030   8.736 -2.1149 -1.3669  2.5095
  137MOL0     H18452   2.393   1.929   8.610  0.8438  3.5709  0.1997
  137MOL0     H18453   2.400   1.824   8.836 -0.3864  1.2198  0.2103
  137MOL0     H18454   2.289   1.742   8.722 -0.3538  0.6001 -0.7268
  137MOL0     H18455   2.085   1.864   9.084 -1.3506  2.4484  0.6374
  137MOL0     H18456   1.857   1.629   9.214  0.6046 -1.0506 -2.2916
  137MOL0     H18457   1.942   1.789   9.237  3.1824 -1.7354 -1.5457
  137MOL0     H18458   1.766   1.772   9.178  0.3180 -1.7193  1.2719
  137MOL0     H18459   1.593   1.284   9.054  0.1280 -3.8051 -1.2647
  137MOL0     H18460   1.357   1.224   9.021 -2.2950  0.8645 -1.4211
  137MOL0     H18461   1.241   1.088   8.831  0.1254 -0.1301 -0.0651
  137MOL0     H18462   1.141   1.172   8.961 -0.4774  2.8496 -0.4425
  137MOL0     H18463   1.032   1.199   8.679 -2.5886  1.4604  0.5830
  137MOL0     H18464   1.036   1.035   8.740 -1.3140  0.5838 -1.1429
  137MOL0     H18465   0.935   1.272   8.905 -0.7779  0.8694 -0.3886
  137MOL0     H18466   0.892   1.115   8.945  0.8967  1.5641  1.0858
  137MOL0     H18467   0.700   1.223   8.834  1.3207  1.9598  0.1072
  137MOL0     H18468   0.801   1.253   8.696 -2.0888  1.4721  0.9596
  137MOL0     H18469   0.727   0.968   8.806 -0.9456 -0.0484 -0.1931
  137MOL0     H18470   0.806   0.987   8.656  0.1595 -1.5064  1.1053
  137MOL0     H18471   0.627   1.107   8.561 -1.9337  0.3049  0.1909
  137MOL0     H18472   0.584   0.939   8.599  0.2608  0.0771 -1.1241
  137MOL0     H18473   0.498   1.171   8.790  0.4806 -0.9340  2.7251
  137MOL0     H18474   0.472   1.006   8.801  0.9136  1.7651  1.1249
  137MOL0     H18475   0.360   1.115   8.545  1.9037 -2.4006 -0.9955
  137MOL0     H18476   0.276   1.145   8.708  1.5852 -0.3200  3.4508
  137MOL0     H18477   1.353   1.426   8.644  1.0652 -1.5272 -1.8042
  137MOL0     H18478   1.584   1.499   8.677 -0.7824  0.1244 -0.5477
  137MOL0     H18479   1.885   1.583   8.734  0.1051  0.6871 -1.3229
  137MOL0     H18480   2.073   1.712   8.684  3.7347  1.4657  1.4104
  137MOL0     H18481   2.936   2.651   8.717  0.6461 -0.8373 -0.4899
  137MOL0     H18482   2.835   2.818   8.847 -0.8800 -0.0261  0.2176
  137MOL0     H18483   2.289   2.948   9.020 -0.0936 -0.8876  0.1337
  137MOL0     H18484   2.209   3.138   9.166  1.3658  3.5310 -0.0447
  137MOL0     H18485   2.440   3.232   9.523  0.2821 -0.7285 -1.8034
  137MOL0     H18486   2.516   3.358   9.414  2.1912 -2.4529 -1.4097
  137MOL0     H18487   2.337   3.516   9.484  2.4537  0.3238  0.2892
  137MOL0     H18488   2.415   3.446   9.609 -0.0182  1.2448 -0.5573
  137MOL0     H18489   2.228   3.264   9.645 -0.0334 -0.2353 -0.1452
  137MOL0     H18490   2.135   3.339   9.516  2.0140 -1.8892 -3.6858
  137MOL0     H18491   2.120   3.542   9.645 -1.8141  0.7173  1.9783
  137MOL0     H18492   2.231   3.478   9.774  0.5473 -0.6492  0.2205
  137MOL0     H18493   1.836   3.348   9.859 -0.5545 -2.1915 -0.2721
  137MOL0     H18494   2.629   3.176   9.317  0.3896  0.6422 -1.3061
  137MOL0     H18495   2.687   2.975   9.189 -0.2380  0.2113 -1.6892
  138MOL0     O18496   1.040   0.216   4.781  0.4575 -0.3174  0.4737
  138MOL0     C18497   1.114   0.319   4.773  0.5041  0.3641 -0.0688
  138MOL0     O18498   1.086   0.437   4.820  0.0876  0.1988 -0.1986
  138MOL0     C18499   0.957   0.461   4.862  0.3992  0.6252  0.7481
  138MOL0     C18500   0.836   0.446   4.782 -0.4657 -0.2346 -0.6551
  138MOL0     C18501   0.708   0.474   4.830 -0.1846  0.3072  0.9731
  138MOL0     C18502   0.705   0.510   4.960  0.8874 -0.5985 -0.6400
  138MOL0     O18503   0.589   0.543   5.021  0.8108  0.4591 -0.4969
  138MOL0     C18504   0.572   0.689   5.040 -0.1572  0.8008 -1.2139
  138MOL0     C18505   0.420   0.710   5.004 -1.2388  0.1381  0.8140
  138MOL0     C18506   0.411   0.723   4.860 -0.3001  0.1887 -0.3562
  138MOL0     C18507   0.263   0.717   4.805  0.0900 -0.0861 -0.6616
  138MOL0     C18508   0.280   0.714   4.655  0.3983 -0.1890 -0.4538
  138MOL0     C18509   0.229   0.841   4.591  0.7115 -0.3957  0.8286
  138MOL0     C18510   0.232   0.840   4.438  0.1596  0.9569  0.3990
  138MOL0     C18511   0.109   0.763   4.372  0.3289  0.4403  0.6282
  138MOL0     N18512  -0.015   0.844   4.372  0.7907 -0.2038  0.4932
  138MOL0     C18513  -0.058   0.919   4.269  0.1420  0.1437 -0.0186
  138MOL0     C18514  -0.188   0.941   4.289 -1.3171 -0.3862 -0.8335
  138MOL0     C18515  -0.281   1.025   4.214  0.6740 -0.2422 -0.5476
  138MOL0     C18516  -0.430   0.984   4.258  0.5791  0.6208  0.2695
  138MOL0     C18517  -0.476   0.834   4.228 -1.0605 -0.5003  0.6062
  138MOL0     C18518  -0.617   0.811   4.288  0.3208  0.4521 -0.6246
  138MOL0     O18519  -0.646   0.675   4.254 -0.3507 -0.4037  0.0654
  138MOL0     C18520  -0.763   0.626   4.288 -0.0668 -0.0431 -0.0225
  138MOL0     C18521  -0.787   0.500   4.226 -0.1679 -0.8277 -0.5544
  138MOL0     C18522  -0.911   0.428   4.247  0.0040 -0.7187 -0.7140
  138MOL0     C18523  -0.935   0.304   4.171 -0.3259  0.6484  0.3317
  138MOL0     C18524  -1.004   0.480   4.347  0.0626  0.3062 -0.2690
  138MOL0     C18525  -1.129   0.404   4.388  0.7023 -0.2885  0.2275
  138MOL0     O18526  -1.224   0.488   4.440 -0.8455  0.5381 -0.2944
  138MOL0     C18527  -1.345   0.434   4.474  0.5655 -0.2736 -0.0088
  138MOL0     C18528  -1.416   0.488   4.588  0.3785  0.0456  0.6046
  138MOL0     C18529  -1.550   0.450   4.617 -0.7285 -0.7866 -0.2259
  138MOL0     C18530  -1.614   0.362   4.541  0.1091  0.2030 -0.2087
  138MOL0     O18531  -1.727   0.307   4.588  0.0860  0.3535 -0.0440
  138MOL0     C18532  -1.838   0.399   4.573 -0.8075  0.9361  0.3203
  138MOL0     C18533  -1.957   0.319   4.538  1.0544 -0.3225 -0.3173
  138MOL0     C18534  -2.091   0.390   4.552  1.0507  0.2221  0.3713
  138MOL0     C18535  -2.199   0.287   4.575  0.3531 -0.3119 -0.2477
  138MOL0     C18536  -2.341   0.330   4.557 -0.4536  0.5406  0.7806
  138MOL0     C18537  -2.404   0.429   4.654 -0.7363  0.7178  0.4103
  138MOL0     C18538  -2.557   0.439   4.628 -0.6949  0.0818 -0.3547
  138MOL0     C18539  -2.638   0.337   4.711 -0.5345 -0.6459 -0.0213
  138MOL0    Cl18540  -2.629   0.380   4.892  0.0027  0.0101  0.5949
  138MOL0     C18541  -1.556   0.309   4.431  0.8384  0.1146  0.1565
  138MOL0     C18542  -1.414   0.343   4.403 -0.4834  0.0917  0.7658
  138MOL0     O18543  -1.135   0.283   4.374 -0.8902  0.0292 -0.2354
  138MOL0     C18544  -0.974   0.599   4.417 -0.2137 -0.0328 -0.1847
  138MOL0     C18545  -0.859   0.670   4.378 -1.0662  0.6718 -1.0544
  138MOL0     N18546  -0.213   0.891   4.417 -0.1529  0.5529 -0.7268
  138MOL0     N18547  -0.113   0.831   4.465  0.5921 -0.0691 -0.0491
  138MOL0     C18548   0.818   0.505   5.044 -0.1297  0.1542 -0.4520
  138MOL0     C18549   0.944   0.495   4.993  0.9934  0.0019 -0.0003
  138MOL0     C18550   1.256   0.294   4.731  0.2894  0.4454 -0.3208
  138MOL0     C18551   1.354   0.395   4.745 -0.1840 -0.4287  0.8279
  138MOL0     C18552   1.493   0.366   4.711  0.8855  0.3575  0.0501
  138MOL0     C18553   1.533   0.231   4.678  0.6342  0.2586  0.1921
  138MOL0     O18554   1.655   0.176   4.649  0.4696 -0.5313  0.1706
  138MOL0     C18555   1.768   0.262   4.663 -0.0195 -0.5348  0.4048
  138MOL0     C18556   1.893   0.181   4.622 -1.1611  0.3345 -0.7992
  138MOL0     C18557   1.913   0.167   4.472 -0.1368  0.0857  0.2465
  138MOL0     C18558   1.970   0.036   4.429 -0.2589  0.2620 -1.6911
  138MOL0     C18559   1.880  -0.073   4.462  0.7767 -0.1869  0.1028
  138MOL0     C18560   1.814  -0.166   4.483 -0.0534 -0.1676  0.4329
  138MOL0     C18561   1.430   0.138   4.662  0.2260  0.1668 -0.3827
  138MOL0     C18562   1.296   0.172   4.684 -1.8554  0.0366  0.6650
  138MOL0     H18563   0.847   0.424   4.677  1.5550  1.6207 -0.9128
  138MOL0     H18564   0.617   0.466   4.771  0.4127  1.3382 -0.1385
  138MOL0     H18565   0.582   0.704   5.148 -0.9133  0.2941 -1.0690
  138MOL0     H18566   0.652   0.740   4.985 -0.4372  0.9226 -1.5126
  138MOL0     H18567   0.365   0.628   5.051 -2.2990  0.9195  0.9486
  138MOL0     H18568   0.388   0.804   5.049 -1.2517 -0.9829  3.3171
  138MOL0     H18569   0.452   0.821   4.833 -2.4769  0.6090 -2.4814
  138MOL0     H18570   0.476   0.646   4.817  1.3097  1.3516 -0.0935
  138MOL0     H18571   0.203   0.633   4.842  1.4375 -0.9950 -0.4817
  138MOL0     H18572   0.210   0.809   4.830 -1.5170 -0.7956 -1.2506
  138MOL0     H18573   0.384   0.701   4.623  0.7520 -1.0480  0.9781
  138MOL0     H18574   0.213   0.631   4.628 -0.1024  0.0700 -0.0192
  138MOL0     H18575   0.125   0.865   4.617  0.8774  1.5202 -0.0931
  138MOL0     H18576   0.300   0.914   4.632  2.6975 -1.6488 -0.2120
  138MOL0     H18577   0.239   0.941   4.399  1.6020  0.0667 -1.8411
  138MOL0     H18578   0.327   0.789   4.419  1.6289  3.2228  1.1990
  138MOL0     H18579   0.092   0.672   4.430 -2.5276 -0.2264 -1.0570
  138MOL0     H18580   0.128   0.742   4.266 -0.2888  1.2713  0.3439
  138MOL0     H18581  -0.007   0.953   4.180 -0.3068  1.9051  0.3565
  138MOL0     H18582  -0.268   1.133   4.227  0.0211 -0.0751 -1.2042
  138MOL0     H18583  -0.276   1.013   4.106 -2.9955 -0.7719 -0.8006
  138MOL0     H18584  -0.494   1.064   4.221  2.0893  1.8985  0.3253
  138MOL0     H18585  -0.447   0.995   4.366 -4.3236 -1.7211  0.0140
  138MOL0     H18586  -0.403   0.761   4.262 -0.7418 -0.6420 -0.3538
  138MOL0     H18587  -0.484   0.812   4.122  0.7237 -3.4554  0.9818
  138MOL0     H18588  -0.695   0.879   4.250 -0.4050  0.8771  1.5068
  138MOL0     H18589  -0.612   0.827   4.396 -2.9374 -2.9981  0.2281
  138MOL0     H18590  -0.723   0.464   4.146 -0.4506 -1.7054 -0.4014
  138MOL0     H18591  -0.847   0.288   4.107 -1.7309 -0.6657 -1.3736
  138MOL0     H18592  -0.943   0.223   4.244  0.6062  1.3520  1.2532
  138MOL0     H18593  -1.021   0.317   4.105  0.3599  0.3934 -0.6313
  138MOL0     H18594  -1.375   0.568   4.648 -1.8177 -1.9380  5.2323
  138MOL0     H18595  -1.597   0.487   4.707 -1.0061  0.9182 -1.0426
  138MOL0     H18596  -1.856   0.457   4.664  0.6864  2.3124 -0.2092
  138MOL0     H18597  -1.814   0.467   4.491  0.0303 -2.1450 -2.1957
  138MOL0     H18598  -1.954   0.298   4.431  1.1179 -0.1459 -0.3515
  138MOL0     H18599  -1.962   0.225   4.594 -2.2332 -0.8769 -1.3231
  138MOL0     H18600  -2.112   0.436   4.455 -1.6013  0.6590  1.0908
  138MOL0     H18601  -2.094   0.471   4.625 -2.5083 -0.1747  0.8376
  138MOL0     H18602  -2.180   0.200   4.512  2.0810 -0.3952  0.3286
  138MOL0     H18603  -2.194   0.271   4.684  2.9197  2.2705  0.1409
  138MOL0     H18604  -2.394   0.235   4.547  2.0031 -1.4442  4.4781
  138MOL0     H18605  -2.354   0.374   4.458 -2.2231 -0.4661  0.5276
  138MOL0     H18606  -2.380   0.395   4.755 -1.9930 -0.9803  0.1981
  138MOL0     H18607  -2.359   0.528   4.644 -0.9806  0.8611  0.6994
  138MOL0     H18608  -2.572   0.438   4.520  1.5698  2.2726 -0.7931
  138MOL0     H18609  -2.585   0.542   4.653  0.1564  0.8481 -2.3094
  138MOL0     H18610  -2.607   0.233   4.695  0.2664 -0.9277  2.8018
  138MOL0     H18611  -2.739   0.351   4.672 -0.0180  0.5604 -1.0151
  138MOL0     H18612  -1.611   0.234   4.376  0.8911  1.9517 -2.5984
  138MOL0     H18613  -1.369   0.283   4.324  2.8377  1.1158  1.7022
  138MOL0     H18614  -1.034   0.640   4.497 -0.7320  2.0689 -1.5730
  138MOL0     H18615  -0.836   0.755   4.441  0.1935 -1.6038  1.7818
  138MOL0     H18616   0.798   0.535   5.146  0.2585 -1.1969  0.0389
  138MOL0     H18617   1.030   0.495   5.059  0.2890 -4.6216  1.2906
  138MOL0     H18618   1.323   0.487   4.794 -0.7249 -1.1758  1.9129
  138MOL0     H18619   1.576   0.435   4.721  1.6914 -0.6295  0.4062
  138MOL0     H18620   1.774   0.345   4.591  3.5516 -0.5826  0.4798
  138MOL0     H18621   1.773   0.305   4.763  2.9075  1.7846 -0.5634
  138MOL0     H18622   1.896   0.088   4.678 -0.1251 -0.3926 -2.0223
  138MOL0     H18623   1.977   0.232   4.670 -1.1964 -0.8125  0.5338
  138MOL0     H18624   1.966   0.256   4.439 -3.6623  2.6734  0.9547
  138MOL0     H18625   1.812   0.164   4.430 -0.0451  2.1824 -0.2182
  138MOL0     H18626   2.067   0.028   4.479 -0.8778  2.3811  0.0096
  138MOL0     H18627   1.995   0.038   4.322  1.8421  0.8031 -1.2501
  138MOL0     H18628   1.749  -0.246   4.511 -0.5261  0.2729  0.6014
  138MOL0     H18629   1.459   0.036   4.639  0.9962  0.1542  0.5473
  138MOL0     H18630   1.230   0.086   4.684  0.5099 -1.9268  2.9257
  139MOL0     O18631   0.611   8.555   5.097 -0.1501 -0.2037 -0.6596
  139MOL0     C18632   0.546   8.631   5.166 -0.6487 -1.4220 -0.5313
  139MOL0     O18633   0.589   8.734   5.244 -0.1671 -0.2363 -0.1603
  139MOL0     C18634   0.725   8.731   5.275  0.0339 -0.0142  0.6215
  139MOL0     C18635   0.814   8.812   5.197  0.3678  0.1574  0.1869
  139MOL0     C18636   0.949   8.827   5.218  0.4317  0.5046  0.3715
  139MOL0     C18637   1.007   8.766   5.326  0.6699 -0.1224 -0.3639
  139MOL0     O18638   1.136   8.769   5.367 -0.3954 -0.4238  0.1304
  139MOL0     C18639   1.205   8.891   5.327  0.5472 -0.0591  0.1292
  139MOL0     C18640   1.354   8.886   5.359  0.3130  0.3460  0.5193
  139MOL0     C18641   1.410   8.734   5.359  0.1373 -0.3563  0.3312
  139MOL0     C18642   1.560   8.743   5.386  0.7480 -0.7247  0.6246
  139MOL0     C18643   1.609   8.602   5.445 -0.2898 -0.6770 -1.0983
  139MOL0     C18644   1.765   8.598   5.464  0.2073  0.1634 -0.2106
  139MOL0     C18645   1.838   8.460   5.450  0.2370  0.7966  0.1155
  139MOL0     C18646   1.834   8.389   5.312 -0.2041 -0.2738 -0.2768
  139MOL0     N18647   1.892   8.484   5.212  0.8298 -0.3153 -0.1303
  139MOL0     C18648   2.019   8.523   5.210 -0.4423  1.1102 -0.2174
  139MOL0     C18649   2.024   8.599   5.100  1.2230 -0.6781  0.5836
  139MOL0     C18650   2.156   8.650   5.049  0.4303  0.4076 -0.0296
  139MOL0     C18651   2.246   8.540   4.986 -0.0803  0.0547  0.4999
  139MOL0     C18652   2.205   8.514   4.832  0.1668  0.2661  0.2644
  139MOL0     C18653   2.295   8.405   4.776  0.0484 -0.5075 -0.1880
  139MOL0     O18654   2.243   8.373   4.646 -0.6660 -0.4912 -0.1592
  139MOL0     C18655   2.327   8.313   4.558  0.5125  0.0722  0.2790
  139MOL0     C18656   2.275   8.277   4.434  0.1207 -0.0272 -0.7390
  139MOL0     C18657   2.352   8.215   4.339  0.0739  0.3208 -0.1650
  139MOL0     C18658   2.294   8.198   4.202  0.2697  0.1484 -0.0495
  139MOL0     C18659   2.481   8.175   4.365 -0.2224 -0.0560  0.0413
  139MOL0     C18660   2.566   8.103   4.264 -0.3148  0.2612  0.3319
  139MOL0     O18661   2.513   7.990   4.203 -0.7294  0.0670 -0.4144
  139MOL0     C18662   2.577   7.945   4.093 -0.4842  1.0148 -0.1921
  139MOL0     C18663   2.706   7.889   4.085 -0.8379  0.5503 -0.4578
  139MOL0     C18664   2.752   7.867   3.956 -0.1994  0.1671  1.0839
  139MOL0     C18665   2.674   7.882   3.840 -0.1414 -0.9302 -0.1933
  139MOL0     O18666   2.699   7.841   3.711  0.5033  0.6214 -0.1036
  139MOL0     C18667   2.839   7.811   3.684 -0.1232  0.5732 -0.8930
  139MOL0     C18668   2.847   7.747   3.546  0.3436 -0.7472 -0.3913
  139MOL0     C18669   2.983   7.743   3.500  0.7858 -0.0882  0.2935
  139MOL0     C18670   3.081   7.655   3.579 -1.3704  0.5394  0.2940
  139MOL0     C18671   3.210   7.633   3.505 -0.4194  0.9879  0.1486
  139MOL0     C18672   3.316   7.742   3.524 -0.3327 -0.6324 -1.5674
  139MOL0     C18673   3.438   7.703   3.441  0.1352 -0.9094 -0.4071
  139MOL0     C18674   3.550   7.802   3.452  0.2562  0.7331  0.0803
  139MOL0    Cl18675   3.603   7.825   3.623  0.0696 -0.3447 -0.0486
  139MOL0     C18676   2.544   7.935   3.857 -0.1130  0.1199 -1.3367
  139MOL0     C18677   2.503   7.976   3.982  0.0686 -0.8824 -0.9668
  139MOL0     O18678   2.677   8.153   4.248 -0.1715 -0.3996 -0.5988
  139MOL0     C18679   2.546   8.214   4.487  0.4526  0.8684  0.0278
  139MOL0     C18680   2.462   8.280   4.580 -0.8389  0.8612 -0.6286
  139MOL0     N18681   1.898   8.616   5.045 -0.3660 -0.4106 -0.5824
  139MOL0     N18682   1.810   8.544   5.115  0.1279  0.2651  0.5106
  139MOL0     C18683   0.929   8.689   5.409 -0.2889  0.1228 -0.3945
  139MOL0     C18684   0.786   8.678   5.389  0.7824  0.0792  0.2829
  139MOL0     C18685   0.401   8.621   5.155  0.4680 -0.3744 -0.4659
  139MOL0     C18686   0.325   8.508   5.108  0.2540 -0.3341  0.5942
  139MOL0     C18687   0.195   8.521   5.087  0.1312 -0.4886  1.3324
  139MOL0     C18688   0.118   8.636   5.117 -0.3182 -1.0421  0.3305
  139MOL0     O18689  -0.017   8.624   5.096  0.0859  0.0373  0.3423
  139MOL0     C18690  -0.114   8.725   5.139 -0.7397  0.1827 -0.2604
  139MOL0     C18691  -0.254   8.687   5.098 -0.0163  0.1241 -0.8253
  139MOL0     C18692  -0.349   8.796   5.134  0.0311 -0.7263  0.6608
  139MOL0     C18693  -0.480   8.758   5.065  0.2472 -0.2989  0.5743
  139MOL0     C18694  -0.550   8.881   5.061 -0.5502  0.3898 -0.3975
  139MOL0     C18695  -0.585   8.997   5.047 -0.4267 -0.1151  0.0319
  139MOL0     C18696   0.190   8.745   5.158  0.4147  0.1292 -0.3846
  139MOL0     C18697   0.323   8.734   5.178 -0.0813  0.5670  1.0087
  139MOL0     H18698   0.775   8.871   5.114 -0.8853  0.8422  1.2297
  139MOL0     H18699   1.001   8.892   5.149  2.3840  1.8205  2.9153
  139MOL0     H18700   1.193   8.898   5.218 -1.2068  1.4037  0.3619
  139MOL0     H18701   1.158   8.983   5.364 -1.9469  0.0360 -2.8752
  139MOL0     H18702   1.412   8.948   5.291  3.7583 -0.3385  2.6396
  139MOL0     H18703   1.380   8.934   5.453  0.6869  1.9651 -0.3710
  139MOL0     H18704   1.374   8.671   5.440 -0.1854  0.2971  0.7097
  139MOL0     H18705   1.385   8.694   5.261 -0.4037 -0.4034  0.4872
  139MOL0     H18706   1.616   8.763   5.294  0.0347 -2.3521 -0.1949
  139MOL0     H18707   1.586   8.823   5.457 -2.3710  2.3106 -1.3732
  139MOL0     H18708   1.561   8.582   5.541 -0.9945 -2.0482 -1.7052
  139MOL0     H18709   1.596   8.522   5.371  1.2651 -1.4178 -0.6097
  139MOL0     H18710   1.816   8.669   5.399  1.7177  1.0045  1.7955
  139MOL0     H18711   1.771   8.658   5.555  1.0653  1.8539 -1.3383
  139MOL0     H18712   1.942   8.459   5.484 -0.4116  1.1107  2.2532
  139MOL0     H18713   1.779   8.390   5.510  0.2018 -2.6877 -3.5762
  139MOL0     H18714   1.727   8.373   5.292  0.0485 -0.5105 -1.5400
  139MOL0     H18715   1.889   8.296   5.328 -0.7470 -0.4442  0.6870
  139MOL0     H18716   2.096   8.489   5.278  0.4073 -2.2098 -2.5549
  139MOL0     H18717   2.144   8.744   4.993 -4.0617  0.7022  1.0188
  139MOL0     H18718   2.213   8.681   5.137  0.5147  2.5328 -0.7765
  139MOL0     H18719   2.223   8.450   5.044 -1.0006 -0.0442  0.0027
  139MOL0     H18720   2.351   8.570   4.992  0.5081 -1.8925  0.6682
  139MOL0     H18721   2.217   8.599   4.764  0.8309 -0.9473 -1.1947
  139MOL0     H18722   2.103   8.477   4.818  0.4861 -0.4199 -0.2776
  139MOL0     H18723   2.297   8.318   4.842  1.5028  0.1080  0.6275
  139MOL0     H18724   2.391   8.456   4.771 -1.9106  3.6324  0.4567
  139MOL0     H18725   2.180   8.310   4.393  1.0476  0.9470 -2.1796
  139MOL0     H18726   2.198   8.249   4.190 -0.4045 -0.7238  1.3953
  139MOL0     H18727   2.364   8.247   4.134  0.4205 -3.3572 -2.6976
  139MOL0     H18728   2.294   8.095   4.165  2.0798  0.2579 -0.4839
  139MOL0     H18729   2.776   7.868   4.165 -1.2232  0.2871 -0.1914
  139MOL0     H18730   2.849   7.820   3.940 -2.0143 -4.0006  0.8221
  139MOL0     H18731   2.894   7.905   3.695  0.5441 -0.0543  2.3751
  139MOL0     H18732   2.881   7.734   3.750 -1.0011  0.2038 -0.7447
  139MOL0     H18733   2.795   7.651   3.542 -2.2253  0.3932  2.1726
  139MOL0     H18734   2.805   7.811   3.468 -2.2850 -0.9610  0.7525
  139MOL0     H18735   3.027   7.843   3.494 -0.9809  0.6810 -0.9261
  139MOL0     H18736   2.990   7.712   3.395  2.4672  1.7688 -0.2033
  139MOL0     H18737   3.100   7.697   3.678 -0.5361  0.2600  0.2619
  139MOL0     H18738   3.033   7.560   3.604  3.0240 -2.1280 -0.3213
  139MOL0     H18739   3.190   7.604   3.402 -0.0239 -0.0631  0.3521
  139MOL0     H18740   3.242   7.537   3.547 -2.6634  0.4016  0.6276
  139MOL0     H18741   3.286   7.839   3.484 -1.6040 -0.7845 -1.0149
  139MOL0     H18742   3.335   7.756   3.631 -0.0156  0.3350 -1.7400
  139MOL0     H18743   3.410   7.686   3.337  1.5877  0.0330 -0.9741
  139MOL0     H18744   3.475   7.611   3.489  0.3825 -1.8376 -2.2955
  139MOL0     H18745   3.514   7.900   3.418 -4.9696 -1.0999 -0.4928
  139MOL0     H18746   3.624   7.771   3.377 -1.2078  0.0758 -1.1260
  139MOL0     H18747   2.484   7.956   3.769  1.7968  1.0332 -2.4828
  139MOL0     H18748   2.408   8.027   3.991  1.1537  0.8539  2.1691
  139MOL0     H18749   2.652   8.196   4.501  0.5193 -1.2825 -2.3794
  139MOL0     H18750   2.516   8.316   4.666  1.2693 -2.4414 -0.3752
  139MOL0     H18751   0.963   8.628   5.492 -0.3024 -1.5156 -1.5425
  139MOL0     H18752   0.735   8.611   5.457 -1.1703  2.0039  0.8477
  139MOL0     H18753   0.372   8.417   5.075 -0.8453  0.5588 -4.1833
  139MOL0     H18754   0.135   8.447   5.035 -2.1808  2.4215 -0.4276
  139MOL0     H18755  -0.109   8.727   5.249 -0.4969 -0.0789 -0.2652
  139MOL0     H18756  -0.093   8.822   5.093 -0.7260  0.3143  0.0205
  139MOL0     H18757  -0.274   8.597   5.156 -2.1912 -0.5950 -2.5422
  139MOL0     H18758  -0.255   8.673   4.989  0.5407  0.7229 -0.9127
  139MOL0     H18759  -0.303   8.888   5.097  1.1257 -1.7965 -0.7698
  139MOL0     H18760  -0.356   8.809   5.242 -4.3011  1.3286  0.3197
  139MOL0     H18761  -0.533   8.692   5.134 -0.1849  0.7477  1.2775
  139MOL0     H18762  -0.481   8.724   4.961  0.3038 -1.1567  0.8484
  139MOL0     H18763  -0.635   9.091   5.036 -1.1268 -0.6007 -1.0563
  139MOL0     H18764   0.126   8.830   5.179 -0.4592  0.1248 -2.7268
  139MOL0     H18765   0.365   8.820   5.230  1.1361 -0.9800  2.7422
  140MOL0     O18766  11.199  10.825   8.981  0.1373  0.7519  0.7211
  140MOL0     C18767  11.226  10.943   9.004  0.7648  0.0247  0.3935
  140MOL0     O18768  11.136  11.039   9.029  0.8145 -0.0171  0.1807
  140MOL0     C18769  11.000  11.029   8.997  0.8420 -0.4101  1.1843
  140MOL0     C18770  10.927  11.141   9.037  0.5378  0.4691  0.0151
  140MOL0     C18771  10.784  11.152   9.010  0.1226 -0.2840  0.0141
  140MOL0     C18772  10.724  11.044   8.935  0.2200  0.1661  0.5640
  140MOL0     O18773  10.594  11.048   8.901 -0.8331  0.5225  0.1082
  140MOL0     C18774  10.524  11.169   8.891 -0.4473 -0.2341 -0.3692
  140MOL0     C18775  10.377  11.147   8.880 -0.7287  1.4477  0.1232
  140MOL0     C18776  10.289  11.261   8.858  0.9903  0.1859  0.2920
  140MOL0     C18777  10.136  11.235   8.839  0.0815  1.4987  0.2912
  140MOL0     C18778  10.054  11.363   8.835  0.6608 -0.6773  0.1443
  140MOL0     C18779  10.076  11.444   8.707 -0.1053 -0.5825 -0.9223
  140MOL0     C18780  10.001  11.392   8.591  0.5310 -0.4027 -0.1066
  140MOL0     C18781  10.082  11.288   8.499  0.1025 -0.8717 -0.3895
  140MOL0     N18782  10.033  11.283   8.362 -0.6062  0.4220 -1.1593
  140MOL0     C18783   9.921  11.222   8.308  0.8421  0.2412 -0.3944
  140MOL0     C18784   9.925  11.231   8.169 -0.4726  0.5350 -0.7884
  140MOL0     C18785   9.800  11.197   8.091  0.7308  0.4317 -1.0227
  140MOL0     C18786   9.818  11.180   7.936  0.7801  0.2902  0.0011
  140MOL0     C18787   9.694  11.221   7.852 -0.0117  0.6660 -0.4056
  140MOL0     C18788   9.724  11.206   7.703 -0.2405 -0.4397 -0.7858
  140MOL0     O18789   9.608  11.225   7.638 -0.4519  0.5093  0.4192
  140MOL0     C18790   9.606  11.197   7.506  0.0821  0.0247  0.1058
  140MOL0     C18791   9.477  11.212   7.455 -0.6943 -0.3284  0.4349
  140MOL0     C18792   9.451  11.218   7.316  0.0769 -0.9113 -0.2049
  140MOL0     C18793   9.309  11.221   7.273 -0.4141  1.3707  0.1009
  140MOL0     C18794   9.571  11.211   7.228 -0.0603  0.1006 -0.8207
  140MOL0     C18795   9.571  11.237   7.087  0.0021 -0.1840  0.4130
  140MOL0     O18796   9.693  11.227   7.026  0.0488  0.2873  0.9159
  140MOL0     C18797   9.697  11.196   6.895  0.3730 -0.2779  0.2451
  140MOL0     C18798   9.620  11.255   6.792  0.3201  0.4238 -0.1639
  140MOL0     C18799   9.643  11.223   6.665 -0.0529 -0.8559 -0.9195
  140MOL0     C18800   9.755  11.146   6.626 -0.3369  0.2646  0.1404
  140MOL0     O18801   9.763  11.126   6.490  0.4149 -0.8688  0.0550
  140MOL0     C18802   9.871  11.053   6.434  0.1289 -0.2185  0.3046
  140MOL0     C18803   9.867  10.902   6.460 -0.3623 -0.6575  0.5970
  140MOL0     C18804   9.732  10.856   6.412  0.6018 -0.1492 -0.0791
  140MOL0     C18805   9.748  10.722   6.346  0.4800  0.0267 -0.2841
  140MOL0     C18806   9.651  10.682   6.244  1.4653  1.1806  0.0118
  140MOL0     C18807   9.512  10.640   6.305 -0.0006 -0.1781  1.0385
  140MOL0     C18808   9.403  10.629   6.198  0.4873  0.1175 -0.9260
  140MOL0     C18809   9.438  10.539   6.081 -0.9078 -0.2228  0.9461
  140MOL0    Cl18810   9.560  10.612   5.953  0.2006  0.5148  0.0846
  140MOL0     C18811   9.841  11.107   6.718  0.1999  0.2293 -0.5266
  140MOL0     C18812   9.811  11.120   6.857  0.3527 -0.9051 -0.4267
  140MOL0     O18813   9.463  11.262   7.034  0.0294 -0.2779 -0.0672
  140MOL0     C18814   9.695  11.176   7.288 -0.2451  0.3924 -0.3156
  140MOL0     C18815   9.712  11.171   7.422  0.2581  0.3034 -0.2772
  140MOL0     N18816  10.052  11.289   8.145 -0.3810 -0.2248 -0.8550
  140MOL0     N18817  10.109  11.321   8.254 -0.1513 -0.1900  0.5002
  140MOL0     C18818  10.800  10.937   8.896 -0.0728  0.6465  0.8845
  140MOL0     C18819  10.939  10.932   8.922  0.2895  0.0559  0.2772
  140MOL0     C18820  11.371  10.968   9.024  0.7867  0.1846 -0.0120
  140MOL0     C18821  11.424  11.082   9.065 -0.0022  0.2402  0.0284
  140MOL0     C18822  11.552  11.104   9.094 -0.4576 -0.3087 -0.5123
  140MOL0     C18823  11.642  10.996   9.085  0.0891 -0.0095  0.7541
  140MOL0     O18824  11.772  11.002   9.131 -0.0752  0.5431 -0.2608
  140MOL0     C18825  11.837  11.129   9.129 -0.1468  0.3484 -0.3751
  140MOL0     C18826  11.990  11.099   9.139  1.1441 -0.5623 -1.0287
  140MOL0     C18827  12.080  11.225   9.140  0.1172 -0.2648 -0.5388
  140MOL0     C18828  12.232  11.196   9.143  0.4995  0.6232 -0.2422
  140MOL0     C18829  12.266  11.126   9.017 -0.5678  0.7019  0.3164
  140MOL0     C18830  12.312  11.083   8.907 -1.1927  0.2492 -0.0266
  140MOL0     C18831  11.591  10.875   9.048 -0.0890  0.7499 -0.0120
  140MOL0     C18832  11.456  10.861   9.017  0.4198  0.0203  0.2600
  140MOL0     H18833  10.966  11.205   9.116 -1.4630 -0.3134  1.7283
  140MOL0     H18834  10.741  11.243   9.050  0.5319 -0.0940  0.0323
  140MOL0     H18835  10.550  11.244   8.966 -0.5072  0.7455 -1.3138
  140MOL0     H18836  10.560  11.208   8.796  0.9383  1.6039  0.8442
  140MOL0     H18837  10.359  11.072   8.803  1.4940  0.0115  0.8885
  140MOL0     H18838  10.330  11.111   8.972 -1.7257  1.0766 -0.5231
  140MOL0     H18839  10.287  11.329   8.944  0.5048 -0.1621  0.5560
  140MOL0     H18840  10.322  11.312   8.767 -1.8773  2.1737  0.2228
  140MOL0     H18841  10.116  11.183   8.744  0.8760  0.0242  0.8997
  140MOL0     H18842  10.100  11.172   8.921 -2.2249  2.0135 -0.2305
  140MOL0     H18843   9.946  11.350   8.845  1.0120 -2.9803  1.7953
  140MOL0     H18844  10.087  11.422   8.922  1.1599 -1.0372  0.2034
  140MOL0     H18845  10.044  11.548   8.718 -2.0488 -0.7153 -4.0181
  140MOL0     H18846  10.184  11.445   8.692  0.3198 -1.7122  1.6930
  140MOL0     H18847   9.894  11.371   8.602  0.2525 -0.1304 -1.9063
  140MOL0     H18848   9.994  11.484   8.532 -3.0726 -0.5264 -0.1130
  140MOL0     H18849  10.080  11.186   8.541  4.1267 -1.0762 -0.3155
  140MOL0     H18850  10.188  11.313   8.496 -0.1545  1.1385  2.5785
  140MOL0     H18851   9.846  11.174   8.371  0.4269  1.8313  0.3730
  140MOL0     H18852   9.765  11.099   8.125  2.8293 -0.5142 -1.4297
  140MOL0     H18853   9.720  11.266   8.121 -0.5376 -1.0352 -0.8998
  140MOL0     H18854   9.834  11.074   7.917 -0.4286  0.2888 -1.2002
  140MOL0     H18855   9.900  11.243   7.901  0.9538 -1.2949 -2.7337
  140MOL0     H18856   9.661  11.323   7.872 -2.7544 -0.7006  3.2227
  140MOL0     H18857   9.611  11.152   7.871  1.5765 -0.9459  1.0043
  140MOL0     H18858   9.762  11.109   7.670  2.0358  0.6600 -1.6083
  140MOL0     H18859   9.805  11.276   7.680  0.2682 -0.5187  0.6647
  140MOL0     H18860   9.396  11.220   7.527 -0.9184  1.7894  0.0190
  140MOL0     H18861   9.298  11.298   7.197 -1.9652 -1.3839 -2.7206
  140MOL0     H18862   9.300  11.114   7.250  1.0024  1.4929 -1.2276
  140MOL0     H18863   9.243  11.246   7.356 -0.3671 -2.9926  1.7376
  140MOL0     H18864   9.532  11.317   6.809 -1.4504 -1.9568 -0.0841
  140MOL0     H18865   9.568  11.251   6.591 -0.4783 -1.6804 -0.8117
  140MOL0     H18866   9.882  11.074   6.328  1.5860 -0.6103  0.3564
  140MOL0     H18867   9.966  11.090   6.475  1.1749 -0.6558 -1.5908
  140MOL0     H18868   9.951  10.860   6.404 -0.5264  0.7081 -0.7330
  140MOL0     H18869   9.879  10.876   6.566  1.9632  0.5867  0.6961
  140MOL0     H18870   9.688  10.921   6.336  0.0259 -1.1482 -0.6175
  140MOL0     H18871   9.661  10.841   6.493 -1.7639 -2.3563 -2.3808
  140MOL0     H18872   9.844  10.726   6.293  0.6328  0.2976  0.0138
  140MOL0     H18873   9.765  10.650   6.426  1.3566  1.1703  0.5894
  140MOL0     H18874   9.696  10.602   6.185 -3.4221 -3.5775  1.8818
  140MOL0     H18875   9.634  10.769   6.180  0.5409  0.0311 -1.3492
  140MOL0     H18876   9.537  10.546   6.354 -0.1440 -1.5671 -1.3789
  140MOL0     H18877   9.487  10.711   6.384  0.2839  0.6819  0.3803
  140MOL0     H18878   9.365  10.728   6.168  0.3462  1.1860  2.3718
  140MOL0     H18879   9.322  10.579   6.251  1.1835 -0.6533 -0.5802
  140MOL0     H18880   9.336  10.525   6.043 -0.7783 -0.3724  0.6445
  140MOL0     H18881   9.483  10.447   6.119 -1.0042 -1.0632 -0.8610
  140MOL0     H18882   9.921  11.039   6.687 -0.6789 -2.4926  2.6282
  140MOL0     H18883   9.880  11.099   6.938  0.2155 -2.4256 -0.6661
  140MOL0     H18884   9.773  11.172   7.212 -2.2929  1.3081 -2.6330
  140MOL0     H18885   9.811  11.149   7.460 -0.0239 -0.8439 -0.1722
  140MOL0     H18886  10.734  10.855   8.871  0.4760 -1.0084  4.3360
  140MOL0     H18887  10.981  10.835   8.898 -0.8115 -0.4250  0.2292
  140MOL0     H18888  11.354  11.164   9.075 -3.9460 -2.8464  0.1635
  140MOL0     H18889  11.583  11.198   9.138 -0.8782 -0.5572  0.3379
  140MOL0     H18890  11.817  11.192   9.042 -0.5156  0.7677  0.0110
  140MOL0     H18891  11.812  11.197   9.210 -2.6371 -1.0778  0.1500
  140MOL0     H18892  11.996  11.044   9.045 -1.1470  0.5586 -1.8890
  140MOL0     H18893  12.011  11.037   9.227  0.7353 -2.5385 -2.2509
  140MOL0     H18894  12.058  11.288   9.227 -0.7794 -0.2441 -0.7719
  140MOL0     H18895  12.061  11.273   9.044 -0.5594 -1.6686 -1.1369
  140MOL0     H18896  12.253  11.132   9.230 -2.3595  0.9611  0.7841
  140MOL0     H18897  12.276  11.296   9.149 -0.3877  0.9395  1.5518
  140MOL0     H18898  12.353  11.031   8.823  2.1257  1.6912  0.5331
  140MOL0     H18899  11.660  10.794   9.029 -1.3302  0.3263 -3.5616
  140MOL0     H18900  11.418  10.767   8.980 -0.7618  0.2806  0.7527
  141MOL0     O18901   5.089   3.632   0.220  0.0899 -0.3031  1.2862
  141MOL0     C18902   5.146   3.700   0.298 -0.1107 -0.7384 -0.6460
  141MOL0     O18903   5.100   3.818   0.342  0.4148  0.0921  0.2820
  141MOL0     C18904   4.968   3.854   0.314 -0.1134 -0.7703 -0.4741
  141MOL0     C18905   4.859   3.800   0.382 -0.1850  0.2675 -1.1715
  141MOL0     C18906   4.733   3.836   0.356 -0.4938 -0.5726  0.8857
  141MOL0     C18907   4.694   3.923   0.249 -0.9618 -0.6105 -0.3958
  141MOL0     O18908   4.562   3.941   0.225  0.2227  0.4267  0.3471
  141MOL0     C18909   4.523   4.036   0.121 -0.8080 -1.0333  0.7754
  141MOL0     C18910   4.372   4.055   0.136  0.5352 -0.3414  0.4077
  141MOL0     C18911   4.299   3.921   0.107 -0.9580 -0.0456 -0.0672
  141MOL0     C18912   4.149   3.940   0.111  0.6017  0.9011  0.6765
  141MOL0     C18913   4.087   3.995   0.245 -0.1739  0.0036  0.2001
  141MOL0     C18914   3.945   3.955   0.266  0.4084 -0.4309 -0.5126
  141MOL0     C18915   3.842   4.052   0.198  0.1602 -0.2199  0.7478
  141MOL0     C18916   3.698   3.997   0.167 -0.0530  0.6212  0.4014
  141MOL0     N18917   3.715   3.911   0.046 -0.6166  0.0430 -1.3766
  141MOL0     C18918   3.747   3.779   0.044 -0.1594 -0.1841  0.0738
  141MOL0     C18919   3.758   3.757  -0.099  1.1230  0.5998 -0.4929
  141MOL0     C18920   3.772   3.623  -0.166  0.6467 -0.3129 -0.0418
  141MOL0     C18921   3.643   3.538  -0.174  0.7283 -0.3471 -0.3841
  141MOL0     C18922   3.540   3.596  -0.269  0.3349  0.3111 -0.3763
  141MOL0     C18923   3.411   3.516  -0.289 -0.5961 -0.3650  0.1680
  141MOL0     O18924   3.362   3.471  -0.162 -0.8154 -0.6282 -0.4111
  141MOL0     C18925   3.257   3.389  -0.161  0.4831  0.1845  0.4269
  141MOL0     C18926   3.183   3.340  -0.276  0.1500 -0.9689 -0.3178
  141MOL0     C18927   3.075   3.254  -0.270 -0.3950  0.0163 -0.4748
  141MOL0     C18928   3.005   3.220  -0.398 -0.1259  0.1721  0.4958
  141MOL0     C18929   3.022   3.212  -0.144 -0.7994 -0.7243 -0.0053
  141MOL0     C18930   2.889   3.152  -0.124 -0.4148 -0.0470 -0.2160
  141MOL0     O18931   2.819   3.203  -0.019  0.1944 -0.5907 -0.2726
  141MOL0     C18932   2.688   3.162   0.002  0.8631  0.5243 -0.5209
  141MOL0     C18933   2.648   3.129   0.137  0.4626 -0.0117 -0.4358
  141MOL0     C18934   2.522   3.066   0.159  0.2183 -1.3200 -1.0068
  141MOL0     C18935   2.434   3.059   0.066 -0.2326 -0.4022  0.2501
  141MOL0     O18936   2.315   3.004   0.094 -0.1399  0.4448  0.4357
  141MOL0     C18937   2.202   3.097   0.095  0.7839  0.0839  0.0025
  141MOL0     C18938   2.176   3.152   0.232 -0.1781 -0.0156  0.2345
  141MOL0     C18939   2.074   3.268   0.225  0.5483 -0.9538 -0.7175
  141MOL0     C18940   2.036   3.325   0.359 -0.1751  0.5308  0.4201
  141MOL0     C18941   1.974   3.464   0.333 -0.0753  0.1366  0.7801
  141MOL0     C18942   1.975   3.557   0.458 -0.3458 -0.2404  0.1181
  141MOL0     C18943   1.928   3.702   0.435  0.3894 -0.2045  0.3434
  141MOL0     C18944   2.025   3.800   0.499 -0.5989  1.0763  0.4432
  141MOL0    Cl18945   2.069   3.749   0.669 -0.4406  0.4497  0.1469
  141MOL0     C18946   2.469   3.102  -0.066  0.3161  0.9798  0.5635
  141MOL0     C18947   2.594   3.150  -0.094  0.0951 -0.3535  0.9199
  141MOL0     O18948   2.851   3.062  -0.198 -0.6260  0.4398 -0.5264
  141MOL0     C18949   3.095   3.252  -0.024 -0.4436 -0.3325 -0.1680
  141MOL0     C18950   3.211   3.332  -0.036 -0.3926 -0.9412 -0.3964
  141MOL0     N18951   3.745   3.876  -0.169  0.3690  0.4193  0.1820
  141MOL0     N18952   3.716   3.967  -0.076  1.0035 -0.7632 -0.0312
  141MOL0     C18953   4.808   3.987   0.193  0.2975  0.2470  0.8220
  141MOL0     C18954   4.939   3.952   0.224 -1.1497 -0.1840 -0.6453
  141MOL0     C18955   5.275   3.648   0.354 -0.6849  0.3010  0.1419
  141MOL0     C18956   5.349   3.549   0.287 -1.7749 -0.0274 -0.2928
  141MOL0     C18957   5.481   3.512   0.341  0.3765  1.1421 -0.3611
  141MOL0     C18958   5.530   3.578   0.451 -0.1729 -0.1800  0.4807
  141MOL0     O18959   5.656   3.531   0.496 -0.7697  0.4825  0.0006
  141MOL0     C18960   5.687   3.569   0.635 -0.2480 -0.3802 -0.0418
  141MOL0     C18961   5.816   3.492   0.683 -0.9168  1.1633 -0.0017
  141MOL0     C18962   5.935   3.531   0.587  1.0567 -0.6761  0.3918
  141MOL0     C18963   6.015   3.402   0.554  0.5083  0.1384  0.1250
  141MOL0     C18964   6.140   3.443   0.486 -0.1280  1.1949 -0.3456
  141MOL0     C18965   6.242   3.449   0.419 -0.5213 -0.1433 -0.2129
  141MOL0     C18966   5.453   3.671   0.515  0.7483 -0.3208  0.6550
  141MOL0     C18967   5.328   3.705   0.471 -0.7150 -0.1937 -0.0584
  141MOL0     H18968   4.882   3.736   0.468 -1.1636  1.3875 -0.0334
  141MOL0     H18969   4.668   3.772   0.414 -0.7831  0.1827  1.4072
  141MOL0     H18970   4.569   4.135   0.116 -0.9050 -1.0106  0.1654
  141MOL0     H18971   4.546   3.999   0.020  2.0049  1.9894  0.1375
  141MOL0     H18972   4.352   4.091   0.237 -2.3846 -0.4842 -0.0230
  141MOL0     H18973   4.327   4.137   0.078 -0.0107  0.5232  1.9888
  141MOL0     H18974   4.320   3.894   0.003 -2.5046  2.2393 -1.0610
  141MOL0     H18975   4.320   3.848   0.185 -2.4129 -2.2262 -1.5769
  141MOL0     H18976   4.114   3.989   0.019 -0.8570 -0.8810  0.2110
  141MOL0     H18977   4.110   3.837   0.109 -0.1501  1.1674  1.2008
  141MOL0     H18978   4.142   3.965   0.335 -0.1072  0.1846  0.2201
  141MOL0     H18979   4.096   4.103   0.230  1.7036 -0.2421 -0.7301
  141MOL0     H18980   3.927   3.857   0.221 -1.3817  0.5382 -2.0312
  141MOL0     H18981   3.919   3.952   0.372 -2.4752 -0.1511 -1.1358
  141MOL0     H18982   3.831   4.142   0.259 -1.3710  1.6365 -2.0417
  141MOL0     H18983   3.883   4.093   0.105 -2.5785  1.6791  0.2689
  141MOL0     H18984   3.627   4.078   0.146 -0.0886 -0.0079 -2.2163
  141MOL0     H18985   3.669   3.928   0.248  0.7238 -0.1295  0.0563
  141MOL0     H18986   3.754   3.702   0.120  3.0313 -0.4862 -0.3609
  141MOL0     H18987   3.819   3.643  -0.263 -0.3118  0.8102 -0.2874
  141MOL0     H18988   3.851   3.563  -0.119  0.9027  0.1042  0.0644
  141MOL0     H18989   3.602   3.528  -0.073  1.9613 -0.7298  0.0956
  141MOL0     H18990   3.665   3.444  -0.224 -2.3289 -1.4545  0.1438
  141MOL0     H18991   3.589   3.599  -0.366 -0.2704 -3.9548 -1.0348
  141MOL0     H18992   3.506   3.694  -0.234 -4.0215 -1.2483  0.4739
  141MOL0     H18993   3.422   3.426  -0.350 -1.4723  1.2333 -2.5003
  141MOL0     H18994   3.337   3.578  -0.340  0.3553 -1.6690 -3.0627
  141MOL0     H18995   3.216   3.369  -0.375 -0.2932  0.9916  0.0504
  141MOL0     H18996   3.083   3.202  -0.473 -0.5039 -0.2182  0.1904
  141MOL0     H18997   2.949   3.126  -0.386  2.4934 -1.2810  2.3478
  141MOL0     H18998   2.938   3.303  -0.421  2.4006  2.2634  0.2001
  141MOL0     H18999   2.712   3.135   0.224  1.7271 -3.1154 -1.0237
  141MOL0     H19000   2.494   3.058   0.264  0.1794  1.9020 -0.6630
  141MOL0     H19001   2.212   3.177   0.021  0.9838 -2.1650 -2.5378
  141MOL0     H19002   2.110   3.048   0.063  0.0452  1.2815  0.1998
  141MOL0     H19003   2.130   3.081   0.302 -0.4707  0.9295  1.0159
  141MOL0     H19004   2.271   3.183   0.275  1.1338 -1.7593 -1.2232
  141MOL0     H19005   1.981   3.233   0.179 -0.7733 -1.5361  2.1908
  141MOL0     H19006   2.123   3.342   0.161 -0.3869  0.1168 -0.2311
  141MOL0     H19007   1.968   3.262   0.418  0.6309 -0.8254 -0.0708
  141MOL0     H19008   2.130   3.331   0.415 -1.0621  1.1505  1.9254
  141MOL0     H19009   1.874   3.456   0.289 -1.6121  0.9968  3.8597
  141MOL0     H19010   2.039   3.518   0.263 -2.1366  0.1481 -1.2434
  141MOL0     H19011   1.906   3.523   0.536  0.7538 -0.2147  1.1177
  141MOL0     H19012   2.074   3.550   0.503 -0.6342 -0.9816  0.6536
  141MOL0     H19013   1.825   3.714   0.469 -0.5726 -0.1031 -2.3440
  141MOL0     H19014   1.921   3.726   0.328 -3.1385  0.4048  0.5769
  141MOL0     H19015   1.986   3.903   0.500  0.4941  1.5418 -0.7813
  141MOL0     H19016   2.120   3.792   0.445  0.3616 -1.8663  2.3452
  141MOL0     H19017   2.412   3.077  -0.155  2.5516 -2.7704 -0.0313
  141MOL0     H19018   2.626   3.159  -0.197 -2.7967 -1.3698 -0.1764
  141MOL0     H19019   3.051   3.224   0.070 -1.3059 -2.1237 -1.0640
  141MOL0     H19020   3.281   3.357   0.043  0.2245  0.8503 -1.4671
  141MOL0     H19021   4.802   4.060   0.112 -0.4577 -0.6067  0.0757
  141MOL0     H19022   5.017   4.009   0.175  0.6536 -2.0203 -0.0387
  141MOL0     H19023   5.308   3.501   0.199 -3.8502 -1.9468  1.5809
  141MOL0     H19024   5.547   3.443   0.289 -0.5372 -0.0245 -0.0276
  141MOL0     H19025   5.702   3.677   0.645 -1.3433 -0.0752 -1.3448
  141MOL0     H19026   5.600   3.546   0.698 -0.1599  2.4524  1.2574
  141MOL0     H19027   5.799   3.385   0.670 -0.0885  0.5401  3.1217
  141MOL0     H19028   5.843   3.520   0.785 -0.9405  0.4970  0.1943
  141MOL0     H19029   6.003   3.605   0.630  1.6956 -0.8207 -0.3474
  141MOL0     H19030   5.905   3.561   0.486  0.8115 -2.2552 -0.0293
  141MOL0     H19031   5.958   3.337   0.487  0.3870 -1.6577  1.8603
  141MOL0     H19032   6.029   3.349   0.649  0.5313  1.6220  0.9784
  141MOL0     H19033   6.336   3.441   0.368 -1.5411 -1.1389 -2.0476
  141MOL0     H19034   5.490   3.729   0.599  0.0136  2.2548 -0.6873
  141MOL0     H19035   5.280   3.786   0.526 -2.6777 -1.4860  0.2395
  142MOL0     O19036   1.225   5.138   1.463 -0.0715 -1.1215  0.6551
  142MOL0     C19037   1.232   5.039   1.387  1.2707 -0.1097 -0.3615
  142MOL0     O19038   1.126   4.984   1.322  0.4678  0.2535  0.1466
  142MOL0     C19039   1.002   5.038   1.318  0.2045  0.3832  0.1381
  142MOL0     C19040   0.976   5.170   1.292 -0.3492  0.8658  0.2902
  142MOL0     C19041   0.842   5.211   1.280  0.3965 -0.5224  0.6605
  142MOL0     C19042   0.736   5.127   1.308 -0.2321 -0.3810  0.0759
  142MOL0     O19043   0.601   5.163   1.302 -0.6901 -0.0724 -0.7072
  142MOL0     C19044   0.563   5.248   1.195  0.2158 -0.7178 -0.9748
  142MOL0     C19045   0.406   5.226   1.167 -0.3757 -0.2213  0.3816
  142MOL0     C19046   0.387   5.097   1.093  0.8095  0.3099 -0.4916
  142MOL0     C19047   0.235   5.083   1.059  0.1394 -0.7034  0.0112
  142MOL0     C19048   0.202   4.959   0.980  0.4000 -0.3035 -0.5629
  142MOL0     C19049   0.265   4.943   0.842 -0.2460  0.0220 -0.2162
  142MOL0     C19050   0.272   5.065   0.758  0.8876 -0.5233 -0.3380
  142MOL0     C19051   0.307   5.040   0.616  0.7067 -0.0311 -0.3535
  142MOL0     N19052   0.456   5.031   0.602  0.7611  0.2514  0.1146
  142MOL0     C19053   0.558   5.118   0.640  0.2327 -0.1549  0.2575
  142MOL0     C19054   0.670   5.054   0.616  0.0644  0.7687 -0.9000
  142MOL0     C19055   0.801   5.106   0.657 -0.6587 -0.7436 -0.3630
  142MOL0     C19056   0.879   5.014   0.748  0.5313  0.4417 -0.0766
  142MOL0     C19057   0.795   4.963   0.864 -0.7270 -0.5056 -0.5939
  142MOL0     C19058   0.887   4.893   0.968 -0.1980  0.8637  0.6039
  142MOL0     O19059   0.924   4.751   0.949 -0.6459 -0.0884 -0.0623
  142MOL0     C19060   0.814   4.666   0.950 -0.3340  0.4844 -1.0197
  142MOL0     C19061   0.757   4.619   0.833  0.4064 -0.4240  0.3360
  142MOL0     C19062   0.645   4.530   0.826 -0.9039 -0.9910  0.4685
  142MOL0     C19063   0.600   4.500   0.694  0.1273  0.6977 -0.9893
  142MOL0     C19064   0.592   4.487   0.952 -0.5910 -0.5895  0.3890
  142MOL0     C19065   0.476   4.392   0.968 -0.1492 -0.7472  0.0261
  142MOL0     O19066   0.451   4.288   0.873 -0.2887 -0.1228  0.1815
  142MOL0     C19067   0.345   4.208   0.896  0.3782 -0.6585 -0.1334
  142MOL0     C19068   0.354   4.101   0.982  0.5461 -0.6496  0.4086
  142MOL0     C19069   0.251   4.001   0.983 -0.7638  0.1579  0.4097
  142MOL0     C19070   0.140   4.016   0.898  0.0256 -0.1548  0.3919
  142MOL0     O19071   0.041   3.923   0.901 -0.4066 -0.1071  0.1358
  142MOL0     C19072  -0.028   3.920   1.032  0.6852  0.0381  1.0946
  142MOL0     C19073  -0.137   4.026   1.031  0.3814 -0.8219 -0.2554
  142MOL0     C19074  -0.209   4.040   1.158  0.4129  0.0257  0.6275
  142MOL0     C19075  -0.313   4.152   1.140  0.7968 -0.8414 -0.2204
  142MOL0     C19076  -0.371   4.207   1.272  0.0895  0.1682 -0.4890
  142MOL0     C19077  -0.259   4.288   1.346 -0.0890 -0.4050 -0.1387
  142MOL0     C19078  -0.303   4.381   1.457  0.9799  0.3023 -0.2761
  142MOL0     C19079  -0.194   4.477   1.503  0.2326  0.1955  0.4884
  142MOL0    Cl19080  -0.094   4.401   1.622 -0.1465 -0.2154 -0.4835
  142MOL0     C19081   0.132   4.129   0.812  0.3350 -0.7067  0.8039
  142MOL0     C19082   0.235   4.226   0.815  0.6060  0.5394  0.3253
  142MOL0     O19083   0.415   4.403   1.076  0.5525 -0.4514  0.3682
  142MOL0     C19084   0.638   4.557   1.064  0.2776  0.0358 -0.1295
  142MOL0     C19085   0.750   4.643   1.070  0.5858  0.0542  0.1286
  142MOL0     N19086   0.645   4.932   0.552 -1.1020  0.6085 -0.2517
  142MOL0     N19087   0.515   4.920   0.547 -0.0742 -0.7819 -0.1255
  142MOL0     C19088   0.757   4.994   1.322 -0.4055 -0.3578  0.0194
  142MOL0     C19089   0.894   4.944   1.325  0.4874  0.0806 -0.9414
  142MOL0     C19090   1.361   4.975   1.362  0.3279  0.3837  0.1019
  142MOL0     C19091   1.450   4.940   1.463 -0.1277 -0.5245 -1.1495
  142MOL0     C19092   1.559   4.858   1.426 -0.0471  0.1913  0.1785
  142MOL0     C19093   1.571   4.788   1.310 -0.5075 -0.4510  0.5004
  142MOL0     O19094   1.672   4.700   1.280 -0.2247  0.7834  0.3923
  142MOL0     C19095   1.637   4.559   1.267 -0.3825 -0.9322 -0.2711
  142MOL0     C19096   1.753   4.468   1.285  0.0764  0.3470 -0.6092
  142MOL0     C19097   1.704   4.324   1.311  0.0639  0.0831  0.6207
  142MOL0     C19098   1.810   4.219   1.345 -0.2755  0.1722 -0.1028
  142MOL0     C19099   1.764   4.091   1.406 -0.2676  0.0743  0.4577
  142MOL0     C19100   1.741   3.976   1.450 -0.0804 -0.3219  0.0158
  142MOL0     C19101   1.477   4.820   1.217  0.0333  0.9536  0.1140
  142MOL0     C19102   1.378   4.908   1.241  0.0521 -0.7138 -0.0676
  142MOL0     H19103   1.053   5.245   1.278  0.4302 -0.2377 -1.6792
  142MOL0     H19104   0.808   5.312   1.263  1.6882  0.1715  1.9433
  142MOL0     H19105   0.587   5.352   1.217 -0.7254 -0.5418 -0.7252
  142MOL0     H19106   0.619   5.228   1.103  3.4219  1.9158  0.1941
  142MOL0     H19107   0.355   5.230   1.264 -0.0104 -1.5273  0.6593
  142MOL0     H19108   0.377   5.315   1.112 -1.6052 -0.3339  0.8142
  142MOL0     H19109   0.456   5.084   1.009 -1.5647 -0.9281 -2.3784
  142MOL0     H19110   0.405   5.015   1.163 -0.6980 -0.8237 -1.3642
  142MOL0     H19111   0.186   5.092   1.156 -0.2409  0.5793 -0.2846
  142MOL0     H19112   0.198   5.175   1.013 -0.8414 -1.8263 -1.5685
  142MOL0     H19113   0.221   4.866   1.035  1.5930  1.1942  1.7064
  142MOL0     H19114   0.093   4.954   0.969  0.1462 -1.2831  1.9131
  142MOL0     H19115   0.358   4.886   0.843 -0.9100 -1.0953 -0.1903
  142MOL0     H19116   0.199   4.873   0.789  0.3250 -1.3279  0.7945
  142MOL0     H19117   0.172   5.111   0.767  2.1332  2.5245 -0.8125
  142MOL0     H19118   0.330   5.143   0.809  1.5735 -0.9862 -0.4088
  142MOL0     H19119   0.278   5.137   0.573  1.3930  0.2714 -0.1484
  142MOL0     H19120   0.254   4.950   0.584 -0.1278  0.1450  0.4656
  142MOL0     H19121   0.554   5.214   0.691 -3.3138  1.2585 -2.3040
  142MOL0     H19122   0.855   5.140   0.567 -0.0951  0.3921  0.3698
  142MOL0     H19123   0.786   5.200   0.710  0.8920  1.2894 -3.2186
  142MOL0     H19124   0.964   5.066   0.795 -0.2953  3.0576 -1.3195
  142MOL0     H19125   0.908   4.923   0.695 -0.2649 -0.4607  0.9782
  142MOL0     H19126   0.722   4.894   0.821 -1.7739  1.5205 -2.2263
  142MOL0     H19127   0.738   5.048   0.902 -2.2306 -1.5148 -0.4893
  142MOL0     H19128   0.821   4.887   1.055 -1.5247 -0.8735 -0.4442
  142MOL0     H19129   0.970   4.957   0.998 -0.2966  1.5203 -0.4747
  142MOL0     H19130   0.797   4.658   0.740 -2.7028  2.8992  0.1686
  142MOL0     H19131   0.494   4.475   0.706  0.9270 -1.7200  2.4129
  142MOL0     H19132   0.605   4.589   0.630  0.1246  2.9107  1.8673
  142MOL0     H19133   0.653   4.418   0.645 -0.4035  0.9985 -2.1276
  142MOL0     H19134   0.449   4.087   1.033  1.0203  1.2674  0.1386
  142MOL0     H19135   0.259   3.927   1.062  2.7310 -0.6182 -0.5320
  142MOL0     H19136  -0.077   3.822   1.026  1.1073 -0.1264 -0.0598
  142MOL0     H19137   0.032   3.923   1.123  0.5339 -0.2474  1.2060
  142MOL0     H19138  -0.100   4.127   1.010 -0.6966 -0.0749  1.2781
  142MOL0     H19139  -0.200   4.005   0.943  1.3185  2.9357 -2.0486
  142MOL0     H19140  -0.132   4.075   1.228  3.5885 -1.5283 -1.8262
  142MOL0     H19141  -0.259   3.944   1.175 -1.7259  0.9831  0.1675
  142MOL0     H19142  -0.283   4.234   1.074 -0.7422 -0.5429 -0.6025
  142MOL0     H19143  -0.400   4.108   1.091 -0.9747 -2.1307  3.6369
  142MOL0     H19144  -0.394   4.121   1.335 -0.0199 -0.2305 -1.0651
  142MOL0     H19145  -0.459   4.271   1.264 -0.9189 -1.1549 -0.1900
  142MOL0     H19146  -0.179   4.217   1.371  0.1107 -1.2726 -2.8860
  142MOL0     H19147  -0.218   4.345   1.262 -0.4275 -2.7203 -2.0027
  142MOL0     H19148  -0.345   4.329   1.543 -1.5789 -1.0198 -2.1961
  142MOL0     H19149  -0.378   4.447   1.414  0.8416  0.0173 -0.4733
  142MOL0     H19150  -0.243   4.567   1.541 -1.1959 -0.0900 -0.5567
  142MOL0     H19151  -0.124   4.502   1.423  2.2074 -1.3229  1.6777
  142MOL0     H19152   0.053   4.138   0.738  0.5899 -1.5070  0.4216
  142MOL0     H19153   0.215   4.325   0.775 -0.3221  2.3382  4.7068
  142MOL0     H19154   0.607   4.532   1.165 -1.1517  0.6101 -0.4094
  142MOL0     H19155   0.783   4.684   1.165  0.8630  1.5128 -0.5691
  142MOL0     H19156   0.671   4.930   1.341  0.5865 -1.0760  2.3925
  142MOL0     H19157   0.915   4.840   1.351  0.8351 -0.0470 -1.7031
  142MOL0     H19158   1.441   4.991   1.558 -1.8855  1.3273 -2.2417
  142MOL0     H19159   1.641   4.832   1.493  0.5549 -0.9765 -0.9638
  142MOL0     H19160   1.555   4.523   1.330 -1.0206 -0.6416 -0.9233
  142MOL0     H19161   1.611   4.537   1.164 -0.1528 -2.0208 -0.1113
  142MOL0     H19162   1.816   4.504   1.366  1.2408 -3.6116  0.4490
  142MOL0     H19163   1.810   4.467   1.191 -0.9477  1.0198 -1.2623
  142MOL0     H19164   1.654   4.302   1.216 -2.5343  2.8201  1.2219
  142MOL0     H19165   1.633   4.332   1.394 -1.4822 -2.6456 -0.2782
  142MOL0     H19166   1.895   4.254   1.405  0.4566 -2.9721  0.9247
  142MOL0     H19167   1.861   4.190   1.252  1.7139 -1.2186  1.3301
  142MOL0     H19168   1.719   3.881   1.494  0.5733 -1.2553 -1.5686
  142MOL0     H19169   1.484   4.769   1.121 -3.0116 -0.3594  0.4723
  142MOL0     H19170   1.292   4.927   1.178  0.2573  0.5272  0.0105
  143MOL0     O19171  11.180   1.255   2.199  0.5671 -0.3220 -0.1248
  143MOL0     C19172  11.084   1.233   2.116 -1.1527  0.0332  0.4828
  143MOL0     O19173  11.108   1.213   1.982  0.7613 -1.3164  0.4098
  143MOL0     C19174  11.236   1.230   1.938 -0.0758  0.0285  0.3337
  143MOL0     C19175  11.268   1.342   1.851  0.7276 -0.4208 -0.3292
  143MOL0     C19176  11.393   1.350   1.791  0.2366 -0.3506 -0.1487
  143MOL0     C19177  11.495   1.256   1.813  0.5136  0.1453 -0.1632
  143MOL0     O19178  11.609   1.277   1.745  0.3736  0.7686 -0.0125
  143MOL0     C19179  11.710   1.171   1.764  0.3451 -0.6249  0.0712
  143MOL0     C19180  11.833   1.212   1.677 -0.9117 -1.1809 -0.3446
  143MOL0     C19181  11.790   1.221   1.528 -0.0069 -0.5355  0.3243
  143MOL0     C19182  11.877   1.145   1.429 -0.4476  0.6041  0.5558
  143MOL0     C19183  11.888   0.993   1.466 -0.6489 -0.1153  0.3962
  143MOL0     C19184  11.779   0.916   1.393  0.1600  0.2367 -0.2926
  143MOL0     C19185  11.807   0.766   1.368  0.6120  0.2845 -0.1801
  143MOL0     C19186  11.827   0.682   1.504 -0.4478  0.0124  0.1327
  143MOL0     N19187  11.708   0.704   1.584  0.3278 -0.1288  0.6499
  143MOL0     C19188  11.585   0.646   1.565 -0.9574 -0.4822 -0.2441
  143MOL0     C19189  11.503   0.699   1.657  0.0820  0.8453  0.5132
  143MOL0     C19190  11.357   0.665   1.697  0.9318  0.1313  0.5029
  143MOL0     C19191  11.270   0.790   1.742  0.0002  0.1215 -0.0410
  143MOL0     C19192  11.129   0.743   1.790 -0.8810 -0.0089 -0.4668
  143MOL0     C19193  11.043   0.865   1.823 -0.3546 -0.2947 -0.3765
  143MOL0     O19194  10.903   0.829   1.801 -0.4648 -0.7564  0.2482
  143MOL0     C19195  10.806   0.846   1.901  0.0423  0.5379  0.0909
  143MOL0     C19196  10.829   0.860   2.040 -0.2483 -0.0215 -0.4012
  143MOL0     C19197  10.734   0.865   2.137 -0.4973 -0.1314  0.3697
  143MOL0     C19198  10.783   0.870   2.281  0.0380  0.0739 -0.1965
  143MOL0     C19199  10.594   0.857   2.097  0.2645  0.6598  0.5844
  143MOL0     C19200  10.473   0.867   2.185 -0.5961  0.9863 -0.2946
  143MOL0     O19201  10.493   0.851   2.316 -0.3481 -0.3454  0.3518
  143MOL0     C19202  10.403   0.880   2.413  0.0397  0.1827 -1.2579
  143MOL0     C19203  10.439   0.840   2.548  0.7643  0.0383  0.5272
  143MOL0     C19204  10.374   0.890   2.661  0.6546 -0.8347 -0.0794
  143MOL0     C19205  10.268   0.980   2.640  0.6763 -0.3045 -0.8604
  143MOL0     O19206  10.193   1.041   2.741 -0.2736 -0.7466  1.1462
  143MOL0     C19207  10.247   1.035   2.876 -0.8487  0.3547  0.5784
  143MOL0     C19208  10.171   0.930   2.961 -0.7555 -0.3493  0.5656
  143MOL0     C19209  10.215   0.935   3.107 -0.6625 -0.4150  0.2680
  143MOL0     C19210  10.112   0.855   3.194  0.0425 -0.4047 -1.2356
  143MOL0     C19211  10.065   0.943   3.311 -0.9691  0.5643  0.3859
  143MOL0     C19212   9.953   0.872   3.397  0.2202 -0.3687 -0.5917
  143MOL0     C19213   9.984   0.719   3.435 -0.2297 -1.6445 -0.3532
  143MOL0     C19214   9.886   0.642   3.526 -0.0510  0.2151 -0.2756
  143MOL0    Cl19215   9.721   0.676   3.481 -0.1895 -0.5451 -0.2163
  143MOL0     C19216  10.228   1.021   2.511  0.1127  0.2572  0.1894
  143MOL0     C19217  10.291   0.972   2.395  0.2613  0.1152 -0.5501
  143MOL0     O19218  10.360   0.857   2.133 -0.5709 -0.2504 -0.2354
  143MOL0     C19219  10.568   0.854   1.959  0.4979  0.3959 -0.7475
  143MOL0     C19220  10.676   0.854   1.862  0.5605  0.4858 -1.3802
  143MOL0     N19221  11.577   0.786   1.734 -0.3988 -0.4167  0.4092
  143MOL0     N19222  11.695   0.785   1.691 -0.9920  0.8279 -0.6490
  143MOL0     C19223  11.460   1.140   1.894  0.3006  0.0408 -0.3222
  143MOL0     C19224  11.333   1.136   1.960  0.0661  1.4276  0.3875
  143MOL0     C19225  10.944   1.226   2.155 -1.4119 -0.2094  0.1329
  143MOL0     C19226  10.837   1.197   2.060  0.5498  0.0092 -0.0631
  143MOL0     C19227  10.707   1.214   2.097 -1.1751 -0.7096  1.5465
  143MOL0     C19228  10.669   1.246   2.228  1.0508  0.3401  0.5791
  143MOL0     O19229  10.539   1.246   2.270  0.2839 -0.0700 -0.4520
  143MOL0     C19230  10.440   1.253   2.170  0.3280 -0.5560 -0.2898
  143MOL0     C19231  10.305   1.295   2.234  0.5523  0.4546  0.4080
  143MOL0     C19232  10.294   1.438   2.280 -0.4333 -0.2782 -0.0184
  143MOL0     C19233  10.166   1.478   2.355  0.0730  1.0181 -0.2241
  143MOL0     C19234  10.141   1.399   2.473 -1.1256 -1.1519 -0.5596
  143MOL0     C19235  10.126   1.327   2.573 -1.1426  0.4083  0.5939
  143MOL0     C19236  10.769   1.261   2.324  0.0266  0.6149  0.7017
  143MOL0     C19237  10.908   1.259   2.288  0.5414  0.6787  0.0249
  143MOL0     H19238  11.187   1.412   1.836  2.0809  1.3695  0.3593
  143MOL0     H19239  11.428   1.419   1.715  1.7942  0.2953  1.1146
  143MOL0     H19240  11.746   1.167   1.867  1.4526  0.9702 -0.2111
  143MOL0     H19241  11.676   1.077   1.721  0.2131  0.6020 -2.7396
  143MOL0     H19242  11.870   1.306   1.718  3.1282 -1.4825 -2.8113
  143MOL0     H19243  11.916   1.145   1.700  1.8437  1.8706 -0.8264
  143MOL0     H19244  11.687   1.189   1.507  0.2702 -0.8346 -0.6234
  143MOL0     H19245  11.797   1.327   1.500  1.2349 -0.3574  1.2295
  143MOL0     H19246  11.852   1.163   1.324  0.3716 -1.7174 -0.0819
  143MOL0     H19247  11.976   1.192   1.432  0.2678 -0.5900 -1.9332
  143MOL0     H19248  11.984   0.953   1.433  0.1353  2.9415 -1.3362
  143MOL0     H19249  11.892   0.977   1.575  3.2269  3.1577  0.9637
  143MOL0     H19250  11.681   0.927   1.440  1.2633  0.1471  2.1434
  143MOL0     H19251  11.766   0.961   1.294  0.4101 -0.5024 -0.6672
  143MOL0     H19252  11.729   0.708   1.318 -2.3934  0.8245  3.4247
  143MOL0     H19253  11.901   0.754   1.314  0.6760 -1.3707  0.2437
  143MOL0     H19254  11.916   0.719   1.556  0.6715 -0.9076 -1.0533
  143MOL0     H19255  11.840   0.574   1.494  2.6791  0.0934  1.8543
  143MOL0     H19256  11.570   0.565   1.493 -2.0539  1.5649 -2.4616
  143MOL0     H19257  11.297   0.625   1.615 -2.4958  1.0988  2.3349
  143MOL0     H19258  11.350   0.589   1.776 -1.9806  0.6284  0.8345
  143MOL0     H19259  11.257   0.848   1.650  0.3111 -1.4413 -1.1197
  143MOL0     H19260  11.313   0.844   1.827 -0.7933 -1.3956  1.3772
  143MOL0     H19261  11.131   0.677   1.878 -4.1799  2.4383  1.6801
  143MOL0     H19262  11.089   0.689   1.704 -0.5532 -1.5512  0.3134
  143MOL0     H19263  11.066   0.951   1.759 -2.8634  0.6339 -0.1574
  143MOL0     H19264  11.072   0.899   1.923 -0.9748  0.4939 -0.4553
  143MOL0     H19265  10.932   0.872   2.073 -0.3053 -1.6209  0.4490
  143MOL0     H19266  10.887   0.901   2.294  1.1032 -2.4136 -1.9627
  143MOL0     H19267  10.715   0.933   2.339  0.8485 -0.0216  0.8928
  143MOL0     H19268  10.772   0.772   2.329 -1.3256  0.3500  0.0896
  143MOL0     H19269  10.526   0.775   2.557  2.6972  2.6356  2.3139
  143MOL0     H19270  10.405   0.846   2.756  1.3460  2.4548  1.3614
  143MOL0     H19271  10.355   1.017   2.884 -0.6661  2.0232  2.9026
  143MOL0     H19272  10.235   1.134   2.921  0.2321 -0.1217  2.0049
  143MOL0     H19273  10.063   0.950   2.959 -0.3124  2.6401  1.8667
  143MOL0     H19274  10.201   0.831   2.924  1.1432  0.4041 -0.0573
  143MOL0     H19275  10.212   1.042   3.133 -0.8059  0.5681 -3.2276
  143MOL0     H19276  10.315   0.894   3.123 -0.1774 -0.2585 -1.9895
  143MOL0     H19277  10.032   0.815   3.131 -0.0157 -2.4790  0.0624
  143MOL0     H19278  10.157   0.756   3.209 -1.9056 -1.2733 -0.8665
  143MOL0     H19279  10.042   1.044   3.274  2.0688  2.1142  2.3022
  143MOL0     H19280  10.153   0.957   3.374 -0.7695 -0.9473  0.4666
  143MOL0     H19281   9.944   0.935   3.486 -1.1030  0.6182 -1.3968
  143MOL0     H19282   9.855   0.869   3.350  1.4761 -5.0645 -3.6694
  143MOL0     H19283  10.071   0.729   3.500 -1.0793 -0.4743  0.6480
  143MOL0     H19284  10.003   0.661   3.344 -0.9476  0.6200 -2.0433
  143MOL0     H19285   9.904   0.683   3.626 -0.0065  0.8944 -0.5566
  143MOL0     H19286   9.902   0.536   3.543  2.5603  0.5654 -0.1424
  143MOL0     H19287  10.143   1.088   2.505  0.0612  0.2519  0.8540
  143MOL0     H19288  10.256   1.011   2.300 -1.4191  0.1002  0.0284
  143MOL0     H19289  10.473   0.864   1.907  1.2661 -0.0796 -2.3063
  143MOL0     H19290  10.656   0.847   1.755  0.1625  2.3318 -1.4498
  143MOL0     H19291  11.528   1.056   1.905 -0.6368 -0.5133  1.8697
  143MOL0     H19292  11.309   1.046   2.015  2.6032  0.3912 -0.0391
  143MOL0     H19293  10.855   1.155   1.962 -0.4908  0.7661 -0.6055
  143MOL0     H19294  10.630   1.200   2.022 -1.8177 -0.0523  2.0781
  143MOL0     H19295  10.471   1.314   2.084 -0.7470 -0.6639 -0.7707
  143MOL0     H19296  10.416   1.152   2.138  0.0278 -0.2490 -1.0508
  143MOL0     H19297  10.277   1.232   2.318 -1.3220 -0.1922 -0.6272
  143MOL0     H19298  10.226   1.287   2.158  1.6723  0.7844 -0.8428
  143MOL0     H19299  10.304   1.503   2.193 -0.7640  0.2987  0.3738
  143MOL0     H19300  10.380   1.463   2.344 -1.1165 -3.3479  2.3267
  143MOL0     H19301  10.080   1.479   2.288  0.0090  2.9768 -0.1416
  143MOL0     H19302  10.182   1.579   2.391  2.2647  0.7617 -0.3377
  143MOL0     H19303  10.114   1.266   2.660  0.5264 -3.4873 -1.6438
  143MOL0     H19304  10.745   1.298   2.423  2.3713  3.9065  0.2024
  143MOL0     H19305  10.984   1.289   2.360 -2.6611  2.3927  3.0116
  144MOL0     O19306   5.068   6.038  11.030 -0.1347  0.2123 -0.2775
  144MOL0     C19307   5.079   6.094  10.920  0.4632 -0.4367  0.1110
  144MOL0     O19308   4.973   6.149  10.857  0.0878 -0.4201  0.1040
  144MOL0     C19309   4.851   6.118  10.909 -0.5475  0.0229 -0.1852
  144MOL0     C19310   4.775   6.213  10.984 -0.5250  0.9831  0.1204
  144MOL0     C19311   4.644   6.182  11.014  0.2261 -0.1536 -0.2052
  144MOL0     C19312   4.586   6.059  10.982  0.3340  0.1893 -0.0123
  144MOL0     O19313   4.452   6.041  11.029 -0.2870 -0.8183  0.1311
  144MOL0     C19314   4.363   6.098  10.930  0.0528  0.3688  0.3875
  144MOL0     C19315   4.223   6.140  10.993  0.1191 -0.7277  0.6920
  144MOL0     C19316   4.122   6.024  11.013 -0.4593  0.4977  0.6196
  144MOL0     C19317   4.164   5.916  11.112 -0.1754 -1.1066  0.9009
  144MOL0     C19318   4.041   5.838  11.160 -0.2953 -0.5909  0.5069
  144MOL0     C19319   4.026   5.841  11.312 -0.3107 -0.2419  0.0541
  144MOL0     C19320   3.977   5.973  11.361  0.0508  0.0843 -0.7130
  144MOL0     C19321   3.821   5.998  11.331  1.0030 -0.5385  0.5160
  144MOL0     N19322   3.781   6.134  11.382 -0.0173 -0.3762  0.2746
  144MOL0     C19323   3.852   6.253  11.367 -0.5925 -0.6767 -0.2833
  144MOL0     C19324   3.788   6.341  11.445 -0.7884 -0.7401 -0.7671
  144MOL0     C19325   3.828   6.491  11.455  0.1994 -0.0992  0.3471
  144MOL0     C19326   3.718   6.590  11.482  0.2665  0.1994  0.3712
  144MOL0     C19327   3.607   6.592  11.375 -0.7214 -0.3636 -0.0549
  144MOL0     C19328   3.506   6.706  11.393  0.6230  0.1976 -0.5829
  144MOL0     O19329   3.404   6.725  11.286  0.1069  0.1008 -0.4833
  144MOL0     C19330   3.308   6.804  11.330  0.9583 -0.5398 -0.8415
  144MOL0     C19331   3.193   6.741  11.373 -0.1563  0.1230 -0.1785
  144MOL0     C19332   3.082   6.812  11.413 -0.8972  0.4876  0.2595
  144MOL0     C19333   2.957   6.737  11.433 -0.0848  0.7998 -0.3081
  144MOL0     C19334   3.085   6.955  11.433 -0.3839  0.4135 -0.5708
  144MOL0     C19335   2.971   7.052  11.465  0.0132  0.0125  0.2677
  144MOL0     O19336   2.998   7.162  11.543 -0.2316 -0.6042 -0.3224
  144MOL0     C19337   2.912   7.264  11.561 -0.4200  0.1221 -0.2993
  144MOL0     C19338   2.838   7.313  11.454 -1.2487 -0.6901 -0.4085
  144MOL0     C19339   2.769   7.427  11.472 -0.5372  0.6119  0.7164
  144MOL0     C19340   2.766   7.495  11.601  0.0153  0.0108 -0.0421
  144MOL0     O19341   2.705   7.617  11.603  0.5171  0.7250  0.1213
  144MOL0     C19342   2.648   7.660  11.730  0.3791  0.5113  0.5338
  144MOL0     C19343   2.548   7.771  11.700  1.3087 -0.2731 -0.0631
  144MOL0     C19344   2.420   7.708  11.629  0.1826 -0.3905 -0.7784
  144MOL0     C19345   2.322   7.829  11.613  0.0431 -1.3173 -0.0112
  144MOL0     C19346   2.203   7.787  11.527  0.1873 -0.4013  0.5514
  144MOL0     C19347   2.235   7.714  11.398 -0.6969 -0.0638  1.0974
  144MOL0     C19348   2.105   7.689  11.318  0.1085 -0.1939 -0.1402
  144MOL0     C19349   2.125   7.639  11.180  0.5674  0.6893 -0.1805
  144MOL0    Cl19350   2.168   7.777  11.061 -0.5092  0.3063 -0.3510
  144MOL0     C19351   2.826   7.434  11.717  0.3525  0.1258 -0.5286
  144MOL0     C19352   2.914   7.326  11.689  0.2188  0.5836  0.3729
  144MOL0     O19353   2.858   7.020  11.421 -0.6531  0.2635  0.4756
  144MOL0     C19354   3.208   7.021  11.396 -0.4230 -0.5983  0.7328
  144MOL0     C19355   3.318   6.945  11.337  1.0657  0.7970 -1.0680
  144MOL0     N19356   3.692   6.270  11.513  0.7020  0.0669  0.6379
  144MOL0     N19357   3.677   6.150  11.469  0.5759  0.2704  0.4667
  144MOL0     C19358   4.657   5.974  10.900  0.1519  0.3413 -0.1875
  144MOL0     C19359   4.791   5.998  10.859 -0.8437 -0.2032 -0.4414
  144MOL0     C19360   5.215   6.121  10.868 -0.6656 -0.6960  0.4983
  144MOL0     C19361   5.226   6.193  10.749 -0.1274 -0.3233  1.5160
  144MOL0     C19362   5.352   6.216  10.695  0.0540  0.0879 -0.0252
  144MOL0     C19363   5.473   6.176  10.755  0.9592  0.3690  0.1118
  144MOL0     O19364   5.589   6.207  10.682 -0.2056  0.5923  0.4206
  144MOL0     C19365   5.713   6.166  10.740  0.5207 -1.1408 -0.6777
  144MOL0     C19366   5.751   6.023  10.718 -0.2819  0.3055 -0.3710
  144MOL0     C19367   5.858   5.980  10.823  0.0523 -0.7535  0.2782
  144MOL0     C19368   5.991   6.044  10.804  0.0737 -0.2315  0.6666
  144MOL0     C19369   6.075   6.006  10.919 -0.7700 -0.4961  0.1910
  144MOL0     C19370   6.157   5.996  11.009 -0.3874 -0.3286  0.3505
  144MOL0     C19371   5.457   6.097  10.873  0.2465  0.9367 -0.6693
  144MOL0     C19372   5.331   6.072  10.929 -0.3701 -0.1136  0.0185
  144MOL0     H19373   4.825   6.306  11.009 -0.4685  1.3170 -1.1750
  144MOL0     H19374   4.587   6.250  11.075 -0.1426  1.0227 -1.8095
  144MOL0     H19375   4.412   6.194  10.911 -1.4575  1.1881  0.4624
  144MOL0     H19376   4.360   6.037  10.839  0.5659  0.4380  0.3233
  144MOL0     H19377   4.241   6.197  11.085 -1.1258  1.1324 -0.1811
  144MOL0     H19378   4.176   6.219  10.934  2.0625 -1.5263 -2.1016
  144MOL0     H19379   4.034   6.069  11.060  0.5318  0.1216  3.0026
  144MOL0     H19380   4.093   5.973  10.921  2.2042 -0.1548  0.0420
  144MOL0     H19381   4.223   5.848  11.050 -0.8665  0.2178 -1.3398
  144MOL0     H19382   4.229   5.941  11.196 -3.0079  0.7982  2.6887
  144MOL0     H19383   3.950   5.868  11.108  1.4623  0.6557 -2.0257
  144MOL0     H19384   4.053   5.732  11.139 -4.2553 -1.7216  2.7249
  144MOL0     H19385   3.968   5.761  11.359 -0.3102 -1.3017 -1.6656
  144MOL0     H19386   4.128   5.828  11.349 -1.1362 -1.2087  2.1596
  144MOL0     H19387   3.991   5.976  11.469 -1.1555 -0.5627 -0.5170
  144MOL0     H19388   4.045   6.052  11.327  2.6883  0.6821  4.8851
  144MOL0     H19389   3.756   5.920  11.370 -3.2829  1.2782 -2.2449
  144MOL0     H19390   3.796   6.000  11.224  0.4270 -2.0218  0.5909
  144MOL0     H19391   3.943   6.273  11.310  0.5499 -1.0220  1.3398
  144MOL0     H19392   3.914   6.502  11.521  0.7411 -0.5052 -0.2744
  144MOL0     H19393   3.871   6.505  11.355  0.5643  0.5613  0.5923
  144MOL0     H19394   3.767   6.687  11.492 -0.7211  0.6335  1.1654
  144MOL0     H19395   3.679   6.577  11.584  2.1368  2.0519  1.3907
  144MOL0     H19396   3.562   6.492  11.372 -2.7997  0.5486 -1.5235
  144MOL0     H19397   3.655   6.608  11.278  0.6925  1.2251  0.8561
  144MOL0     H19398   3.563   6.799  11.402  1.1285 -0.1115 -0.5157
  144MOL0     H19399   3.462   6.685  11.491 -0.1892 -1.8370 -1.3403
  144MOL0     H19400   3.200   6.633  11.364  3.2941  0.0219  1.7965
  144MOL0     H19401   2.879   6.788  11.376  2.0677  2.6509 -1.7641
  144MOL0     H19402   2.970   6.640  11.386  3.0273  0.0900  1.7258
  144MOL0     H19403   2.931   6.732  11.540  0.9932 -0.1702 -0.0734
  144MOL0     H19404   2.861   7.271  11.356  0.0741 -1.1171  0.0750
  144MOL0     H19405   2.728   7.473  11.383  0.8826  0.4707 -0.0271
  144MOL0     H19406   2.598   7.583  11.790  0.5614  0.8022  1.0678
  144MOL0     H19407   2.725   7.706  11.794  0.8027  0.1920  0.2640
  144MOL0     H19408   2.514   7.819  11.792  1.2918 -0.5787  0.0886
  144MOL0     H19409   2.598   7.846  11.638 -2.2527  1.4718 -1.1130
  144MOL0     H19410   2.369   7.635  11.694 -0.2640  1.9576  1.6865
  144MOL0     H19411   2.450   7.660  11.536 -2.2027 -1.8023 -0.9012
  144MOL0     H19412   2.283   7.871  11.706 -0.3265  0.6559 -0.9843
  144MOL0     H19413   2.388   7.899  11.560  2.1815 -2.4885  0.9793
  144MOL0     H19414   2.140   7.873  11.503  1.5053  0.2710 -0.5987
  144MOL0     H19415   2.132   7.728  11.586  0.0331  0.7542  1.5670
  144MOL0     H19416   2.303   7.777  11.339  0.3107 -0.0852  2.1862
  144MOL0     H19417   2.280   7.615  11.414 -0.8966 -0.1620  1.0505
  144MOL0     H19418   2.063   7.788  11.299 -2.9182 -0.8528  2.3463
  144MOL0     H19419   2.039   7.625  11.378  0.2317 -1.8696 -1.7084
  144MOL0     H19420   2.026   7.600  11.154  0.4219  2.7011 -3.2003
  144MOL0     H19421   2.203   7.562  11.177  0.3400  0.3290  1.8034
  144MOL0     H19422   2.822   7.479  11.815  2.4563  0.8524 -0.7204
  144MOL0     H19423   2.967   7.273  11.768 -2.0305 -2.0504  0.2604
  144MOL0     H19424   3.219   7.128  11.408 -0.4282 -0.3990 -0.8384
  144MOL0     H19425   3.412   6.988  11.302  2.1539  0.9793  1.8134
  144MOL0     H19426   4.617   5.877  10.869  2.4690 -1.4535  1.9958
  144MOL0     H19427   4.843   5.931  10.791  0.9974 -1.0909  1.7005
  144MOL0     H19428   5.134   6.216  10.697  0.2308 -1.5344  0.2843
  144MOL0     H19429   5.357   6.275  10.603  0.9359 -0.7392 -0.5306
  144MOL0     H19430   5.787   6.245  10.720 -1.4545  0.5566 -1.7287
  144MOL0     H19431   5.709   6.178  10.849  3.5602 -0.7650 -0.5274
  144MOL0     H19432   5.793   6.002  10.618  0.2714  0.0258 -0.0885
  144MOL0     H19433   5.662   5.963  10.737 -1.2145  1.5612 -0.7068
  144MOL0     H19434   5.869   5.871  10.826  0.4287 -0.7845 -1.3565
  144MOL0     H19435   5.821   6.012  10.921 -0.9059  2.1219 -0.9086
  144MOL0     H19436   5.976   6.152  10.797 -2.2359 -0.4587  1.4223
  144MOL0     H19437   6.035   6.013  10.708 -1.6819 -2.4918  0.4891
  144MOL0     H19438   6.220   5.983  11.094  1.9850  1.2804 -1.0435
  144MOL0     H19439   5.541   6.040  10.908 -0.1823  0.6785 -0.0428
  144MOL0     H19440   5.326   6.008  11.016 -1.2507 -0.6372 -0.4014
  145MOL0     O19441   7.032   6.801   3.213 -0.9640  0.0264 -0.1234
  145MOL0     C19442   6.966   6.906   3.240 -0.3908 -0.5566 -0.7514
  145MOL0     O19443   7.022   7.026   3.276  0.1896  0.4717 -0.8043
  145MOL0     C19444   7.151   7.048   3.254  0.0057 -1.3510  0.0769
  145MOL0     C19445   7.221   7.123   3.343 -1.5019  0.1109 -0.4747
  145MOL0     C19446   7.366   7.137   3.332  1.2144 -0.2668 -0.0355
  145MOL0     C19447   7.433   7.094   3.215 -0.4946 -0.4803  0.0028
  145MOL0     O19448   7.569   7.094   3.218 -0.3612 -0.1555  0.5505
  145MOL0     C19449   7.646   7.038   3.107 -0.5110 -1.0928  0.2542
  145MOL0     C19450   7.795   7.069   3.135  0.5542 -0.3567  0.9813
  145MOL0     C19451   7.825   7.209   3.107 -0.3230 -0.8685 -0.1183
  145MOL0     C19452   7.970   7.260   3.140  0.3810 -0.2979 -0.2094
  145MOL0     C19453   8.071   7.224   3.031  0.1956 -0.1808  0.8967
  145MOL0     C19454   8.135   7.349   2.976 -0.5659 -0.6661  0.2946
  145MOL0     C19455   8.240   7.313   2.876 -0.6501 -0.1403  0.9299
  145MOL0     C19456   8.269   7.421   2.771 -0.5450 -0.5042 -0.9749
  145MOL0     N19457   8.406   7.419   2.713  0.3266  0.7978  0.1816
  145MOL0     C19458   8.481   7.530   2.688  0.6222 -0.1982  0.0530
  145MOL0     C19459   8.566   7.502   2.592 -0.1585  0.2124  0.9875
  145MOL0     C19460   8.668   7.582   2.518  0.4028  0.6639  0.0971
  145MOL0     C19461   8.644   7.591   2.368  0.2876 -0.4506  0.8253
  145MOL0     C19462   8.520   7.676   2.324  0.0425  0.5145 -0.3165
  145MOL0     C19463   8.402   7.581   2.300  0.3181 -0.5944  0.3017
  145MOL0     O19464   8.308   7.653   2.209 -0.4504  0.0982 -0.5236
  145MOL0     C19465   8.171   7.657   2.217  0.6753  1.9471  0.1077
  145MOL0     C19466   8.095   7.730   2.129  0.5444 -0.3049 -0.5725
  145MOL0     C19467   7.955   7.719   2.127 -0.0581 -0.3752  0.4893
  145MOL0     C19468   7.887   7.831   2.056 -0.4113  0.7379  0.0388
  145MOL0     C19469   7.881   7.624   2.207  0.7512  1.2528  0.2528
  145MOL0     C19470   7.735   7.592   2.207  0.2853  0.6000 -1.2193
  145MOL0     O19471   7.689   7.522   2.318  0.2005  0.9068 -0.0105
  145MOL0     C19472   7.549   7.497   2.334  1.3175  0.0148  0.6781
  145MOL0     C19473   7.473   7.563   2.431 -0.0854  0.5877  0.4470
  145MOL0     C19474   7.331   7.536   2.429 -0.2906 -0.2584  0.6556
  145MOL0     C19475   7.272   7.448   2.340 -0.0843  0.2840 -0.4967
  145MOL0     O19476   7.133   7.438   2.353  0.0271  0.5130  0.2865
  145MOL0     C19477   7.067   7.321   2.312 -0.0198  0.2250  0.0716
  145MOL0     C19478   6.945   7.311   2.400  0.0476 -0.6221 -0.1001
  145MOL0     C19479   6.846   7.200   2.383 -0.5951  0.5840 -0.5011
  145MOL0     C19480   6.739   7.218   2.272  0.0220  0.0174 -0.2373
  145MOL0     C19481   6.658   7.098   2.270 -0.0666  0.0258  0.7075
  145MOL0     C19482   6.539   7.110   2.178  0.2476 -0.7294  0.2613
  145MOL0     C19483   6.461   6.980   2.168 -0.1155  0.0339 -0.5393
  145MOL0     C19484   6.385   6.932   2.292  0.0862 -0.1618  0.4288
  145MOL0    Cl19485   6.210   6.935   2.269  0.2438  0.1144 -0.0094
  145MOL0     C19486   7.355   7.377   2.246  0.0611 -0.0477  0.2626
  145MOL0     C19487   7.486   7.407   2.246 -0.1060  0.2396  1.1591
  145MOL0     O19488   7.677   7.629   2.111  0.1534  0.5483  0.0975
  145MOL0     C19489   7.962   7.552   2.298 -0.0387 -0.7063  1.0921
  145MOL0     C19490   8.111   7.568   2.307  0.3937 -0.3989  0.3372
  145MOL0     N19491   8.548   7.372   2.561  0.0989  0.6239 -0.3673
  145MOL0     N19492   8.453   7.322   2.636 -0.4332 -0.4578  0.6003
  145MOL0     C19493   7.350   7.034   3.121  0.0426  1.2117  0.3656
  145MOL0     C19494   7.212   7.006   3.140 -0.7933  0.8481  0.7725
  145MOL0     C19495   6.821   6.898   3.263 -0.5525 -0.6506  0.4734
  145MOL0     C19496   6.742   7.014   3.249 -0.6016  0.2550  0.0666
  145MOL0     C19497   6.607   7.012   3.272 -0.0531 -0.0399 -0.2453
  145MOL0     C19498   6.542   6.893   3.299  0.2093 -0.2398 -0.3506
  145MOL0     O19499   6.411   6.874   3.332  0.2009 -0.6795 -0.1035
  145MOL0     C19500   6.324   6.988   3.353  0.0878 -0.2366 -0.6169
  145MOL0     C19501   6.185   6.946   3.386  0.2079  0.4179  0.2110
  145MOL0     C19502   6.093   7.062   3.411 -0.4690 -0.2257  0.0451
  145MOL0     C19503   6.045   7.141   3.287 -0.0225 -0.1167  0.4248
  145MOL0     C19504   5.952   7.248   3.318  0.9308  0.6033 -0.9966
  145MOL0     C19505   5.854   7.322   3.357  0.6311 -0.7233 -0.1390
  145MOL0     C19506   6.614   6.777   3.296  0.0269  0.4307  0.4574
  145MOL0     C19507   6.753   6.775   3.276 -0.7426 -0.7730 -0.9052
  145MOL0     H19508   7.168   7.166   3.427 -0.3352  1.8721 -0.5898
  145MOL0     H19509   7.413   7.196   3.409  1.8682  0.1826 -0.7629
  145MOL0     H19510   7.648   6.929   3.115 -0.0244 -1.2752 -1.8828
  145MOL0     H19511   7.625   7.083   3.009  3.3859  1.2080  0.2449
  145MOL0     H19512   7.820   7.064   3.241  2.8031  1.3996  0.6066
  145MOL0     H19513   7.860   7.008   3.073  0.5766 -1.0008  1.6309
  145MOL0     H19514   7.804   7.231   3.002 -0.0896  0.1745  0.0473
  145MOL0     H19515   7.755   7.261   3.172 -1.0242 -0.7033 -0.9819
  145MOL0     H19516   7.960   7.369   3.138  0.0825 -0.2243  2.2371
  145MOL0     H19517   7.997   7.221   3.238 -4.2121  0.8930  1.7891
  145MOL0     H19518   8.138   7.148   3.073 -1.9474 -0.6171  3.8317
  145MOL0     H19519   8.026   7.170   2.947  2.6035 -1.1704  0.1506
  145MOL0     H19520   8.051   7.403   2.933 -1.6302 -1.5786  1.1738
  145MOL0     H19521   8.183   7.417   3.047 -2.1122  0.9893 -0.1788
  145MOL0     H19522   8.328   7.298   2.939  0.4993 -0.2712 -0.6377
  145MOL0     H19523   8.225   7.215   2.829  2.0818 -0.3153  0.2494
  145MOL0     H19524   8.248   7.517   2.819 -0.7044 -1.1336  0.2741
  145MOL0     H19525   8.196   7.420   2.690  0.0291  2.6762 -1.6607
  145MOL0     H19526   8.478   7.627   2.735  4.3601  0.1371 -0.1080
  145MOL0     H19527   8.672   7.684   2.556 -0.4595  0.5318  0.5633
  145MOL0     H19528   8.763   7.532   2.541 -1.0950 -3.0518 -0.9569
  145MOL0     H19529   8.637   7.494   2.317  0.0686 -0.6089  1.1557
  145MOL0     H19530   8.740   7.634   2.338  1.0003 -2.7047 -0.3740
  145MOL0     H19531   8.548   7.710   2.225 -0.5049  2.3597  0.1273
  145MOL0     H19532   8.505   7.759   2.394 -3.9082 -1.4550  1.5162
  145MOL0     H19533   8.361   7.552   2.397  0.1846 -0.6791  0.2190
  145MOL0     H19534   8.437   7.487   2.256 -0.6252 -0.5128 -0.6551
  145MOL0     H19535   8.150   7.794   2.060 -0.8861  1.6918  0.0389
  145MOL0     H19536   7.958   7.884   1.993  0.6926 -1.5964 -0.7999
  145MOL0     H19537   7.802   7.804   1.992  1.7216 -0.0044 -2.6549
  145MOL0     H19538   7.849   7.895   2.136  1.7129  3.2436 -0.8270
  145MOL0     H19539   7.516   7.634   2.501 -2.3021  3.6424 -0.9981
  145MOL0     H19540   7.275   7.595   2.500 -0.3294  1.1736 -0.5306
  145MOL0     H19541   7.027   7.334   2.211 -2.9087  1.2250  1.2497
  145MOL0     H19542   7.124   7.231   2.340 -3.8135 -2.4525 -0.1266
  145MOL0     H19543   6.986   7.305   2.501 -0.0675  4.9316  0.5694
  145MOL0     H19544   6.890   7.405   2.396 -1.9455 -1.4347  3.6345
  145MOL0     H19545   6.792   7.186   2.477  0.3066 -2.4492 -0.3370
  145MOL0     H19546   6.898   7.107   2.358 -0.5358 -0.6314  3.4997
  145MOL0     H19547   6.677   7.306   2.291  0.6363  0.3289  0.3630
  145MOL0     H19548   6.796   7.225   2.179  3.5306  1.7409  1.8323
  145MOL0     H19549   6.627   7.077   2.373  1.1308 -3.5925  0.4761
  145MOL0     H19550   6.719   7.010   2.249 -3.5705 -1.9388 -2.6114
  145MOL0     H19551   6.472   7.194   2.200 -0.6945 -1.7471  1.4423
  145MOL0     H19552   6.572   7.134   2.077  0.7015  0.7656  0.7306
  145MOL0     H19553   6.524   6.897   2.135  0.2642 -0.9233  2.2897
  145MOL0     H19554   6.381   6.979   2.093 -3.3435 -0.8957  2.5787
  145MOL0     H19555   6.424   6.998   2.370  2.1491  2.2487 -2.4378
  145MOL0     H19556   6.424   6.831   2.307 -1.5895 -1.1279 -1.2509
  145MOL0     H19557   7.311   7.308   2.174  3.7490 -0.5658 -1.7602
  145MOL0     H19558   7.547   7.357   2.171  0.5710  0.9066  1.2566
  145MOL0     H19559   7.915   7.490   2.374 -0.9526 -0.6137  0.6168
  145MOL0     H19560   8.171   7.510   2.376  0.9920  0.4943  0.5779
  145MOL0     H19561   7.403   7.003   3.031  0.2116 -2.2483  1.5151
  145MOL0     H19562   7.167   6.939   3.068 -0.3647  2.2951 -0.9246
  145MOL0     H19563   6.784   7.112   3.226 -1.1250  0.3811 -0.3824
  145MOL0     H19564   6.552   7.105   3.256  3.5067  2.6369  1.5601
  145MOL0     H19565   6.368   7.033   3.442 -1.9553 -0.7506  0.7153
  145MOL0     H19566   6.327   7.053   3.265  2.1664 -0.3344 -0.6617
  145MOL0     H19567   6.183   6.881   3.473 -0.9230 -0.3454 -0.3576
  145MOL0     H19568   6.159   6.875   3.307 -0.0408 -1.7530  2.1543
  145MOL0     H19569   6.145   7.128   3.481 -0.2362 -1.6323  1.2497
  145MOL0     H19570   6.002   7.035   3.466 -2.4597  2.8738 -1.4668
  145MOL0     H19571   5.998   7.068   3.221  1.2339  0.1384 -0.8021
  145MOL0     H19572   6.125   7.186   3.227 -1.5880  1.6621 -0.4594
  145MOL0     H19573   5.773   7.379   3.396 -1.8641 -2.3520 -2.5831
  145MOL0     H19574   6.564   6.682   3.306  3.1542 -1.4617 -0.3971
  145MOL0     H19575   6.812   6.684   3.278  1.9513  0.8603 -0.9076
  146MOL0     O19576   7.422   6.206   9.782 -0.0955 -0.5011 -0.2833
  146MOL0     C19577   7.421   6.218   9.661 -0.4847 -0.2378  0.0768
  146MOL0     O19578   7.323   6.268   9.587  0.5269  0.0801  0.6607
  146MOL0     C19579   7.196   6.305   9.639  0.5529  0.0746  0.2975
  146MOL0     C19580   7.156   6.341   9.766 -0.0737 -1.3156 -0.6233
  146MOL0     C19581   7.020   6.374   9.800  0.6601  0.4293  0.1768
  146MOL0     C19582   6.923   6.387   9.698  0.6164  0.6131  0.2050
  146MOL0     O19583   6.786   6.401   9.722  0.0034  0.3160  0.8938
  146MOL0     C19584   6.746   6.479   9.826 -0.3010 -0.7913  0.5360
  146MOL0     C19585   6.601   6.510   9.798  0.6106 -0.3438  0.3837
  146MOL0     C19586   6.515   6.446   9.913 -0.5575 -0.2048 -0.1459
  146MOL0     C19587   6.367   6.461   9.878 -0.4610  0.0317  0.4990
  146MOL0     C19588   6.280   6.393   9.985  0.0838  0.0703 -0.4227
  146MOL0     C19589   6.174   6.299   9.937  0.1835  0.6251  0.2074
  146MOL0     C19590   6.077   6.241  10.039 -0.0060 -0.3828 -0.4012
  146MOL0     C19591   6.002   6.121   9.982  0.0929  0.4684  0.1608
  146MOL0     N19592   5.896   6.075  10.070 -0.5315  0.1756 -0.3132
  146MOL0     C19593   5.773   6.132  10.079 -1.1524  0.4228  0.1675
  146MOL0     C19594   5.715   6.091  10.196 -0.0147 -0.0227 -0.4009
  146MOL0     C19595   5.586   6.139  10.258 -0.1009  0.0107 -0.0621
  146MOL0     C19596   5.560   6.288  10.234  0.2463  0.7783 -0.0547
  146MOL0     C19597   5.452   6.339  10.321  1.2927  0.0437 -0.1391
  146MOL0     C19598   5.317   6.268  10.293 -0.3475 -0.0542  0.7390
  146MOL0     O19599   5.220   6.350  10.363  0.7947  0.7948 -0.2989
  146MOL0     C19600   5.106   6.286  10.401  0.5200 -0.2876 -0.6501
  146MOL0     C19601   5.021   6.351  10.490  0.1709 -0.7406  0.0998
  146MOL0     C19602   4.900   6.300  10.536  0.1168  0.8921 -0.7380
  146MOL0     C19603   4.845   6.376  10.656 -0.8639 -0.0291 -0.4227
  146MOL0     C19604   4.841   6.180  10.486  0.3509  0.9474  0.8284
  146MOL0     C19605   4.710   6.115  10.525 -0.3431 -0.3153  0.0275
  146MOL0     O19606   4.680   5.993  10.461  0.0036 -0.0154 -0.5919
  146MOL0     C19607   4.551   5.949  10.488  0.1058 -0.0619 -0.5456
  146MOL0     C19608   4.516   5.835  10.562 -0.5699  0.3368  0.3741
  146MOL0     C19609   4.384   5.779  10.564  0.1887 -0.2963 -0.5201
  146MOL0     C19610   4.282   5.847  10.492  0.4477  0.8094  0.6516
  146MOL0     O19611   4.146   5.807  10.505  0.0811 -0.4595  0.6157
  146MOL0     C19612   4.046   5.915  10.516 -1.2661 -0.4341 -0.2033
  146MOL0     C19613   3.924   5.836  10.554  0.1053  0.2187  0.3913
  146MOL0     C19614   3.942   5.773  10.697  0.2502 -0.1834  0.7331
  146MOL0     C19615   3.992   5.626  10.704 -0.1479  0.3662 -0.4780
  146MOL0     C19616   3.988   5.556  10.845  0.2448 -0.1809  0.1807
  146MOL0     C19617   3.861   5.482  10.876  0.2450  0.5497 -0.0184
  146MOL0     C19618   3.769   5.557  10.969  0.5980 -0.0477  0.3681
  146MOL0     C19619   3.633   5.495  10.992 -0.0566 -0.2214  0.3370
  146MOL0    Cl19620   3.552   5.549  11.150  0.4053  0.4152 -0.2743
  146MOL0     C19621   4.317   5.956  10.413  0.2605  0.1759  0.1402
  146MOL0     C19622   4.447   6.002  10.411 -0.0107 -0.9630  0.3443
  146MOL0     O19623   4.629   6.182  10.585  0.0700 -0.1865  0.2725
  146MOL0     C19624   4.923   6.112  10.384  0.9020  1.1764  0.1667
  146MOL0     C19625   5.046   6.172  10.340 -0.6329 -0.5988  0.8127
  146MOL0     N19626   5.817   6.014  10.258 -0.6535 -0.0215 -0.7962
  146MOL0     N19627   5.930   6.007  10.181 -0.3873 -0.2317  0.9221
  146MOL0     C19628   6.964   6.338   9.578 -0.9727 -0.5112  0.4329
  146MOL0     C19629   7.091   6.303   9.550  0.5212  1.2754 -0.1631
  146MOL0     C19630   7.537   6.158   9.592  0.0068  0.7789 -0.0555
  146MOL0     C19631   7.634   6.093   9.655 -0.2983  0.3935 -0.4662
  146MOL0     C19632   7.744   6.032   9.594 -0.3230 -0.5132 -0.1264
  146MOL0     C19633   7.762   6.035   9.455  0.3815  0.1835  1.0704
  146MOL0     O19634   7.862   5.963   9.393 -0.2109 -0.0875  0.6282
  146MOL0     C19635   7.973   5.917   9.473  0.1916 -0.2059  0.6210
  146MOL0     C19636   8.084   5.853   9.384  0.2879  0.4054 -0.1992
  146MOL0     C19637   8.135   5.961   9.288  0.0740  0.6552  0.0562
  146MOL0     C19638   8.227   6.057   9.360  0.0379  1.1077  0.6826
  146MOL0     C19639   8.361   5.998   9.378 -0.0140 -1.0977 -0.4228
  146MOL0     C19640   8.469   5.958   9.402 -0.4276 -0.8951 -0.4093
  146MOL0     C19641   7.653   6.089   9.386  1.1841 -0.4242 -0.0872
  146MOL0     C19642   7.546   6.157   9.455  0.5388  0.7856  0.2026
  146MOL0     H19643   7.230   6.336   9.844  0.1019 -0.3429 -0.7168
  146MOL0     H19644   6.991   6.365   9.904  1.1096  0.2203  0.2889
  146MOL0     H19645   6.766   6.429   9.922  3.1405 -1.0556 -0.1863
  146MOL0     H19646   6.796   6.576   9.834 -1.8024 -0.0770  1.8089
  146MOL0     H19647   6.585   6.618   9.793  0.4533 -0.4140 -0.9551
  146MOL0     H19648   6.558   6.463   9.709 -2.5541 -1.2068  2.2038
  146MOL0     H19649   6.548   6.342   9.924  0.8654 -0.0139 -2.0923
  146MOL0     H19650   6.526   6.500  10.008 -0.1406  0.1938 -0.4138
  146MOL0     H19651   6.336   6.566   9.883 -0.7507  0.1795 -2.5108
  146MOL0     H19652   6.357   6.426   9.775  1.7328  3.0972 -0.8929
  146MOL0     H19653   6.343   6.340  10.057  1.5190  1.2569 -0.7629
  146MOL0     H19654   6.224   6.466  10.044  0.6445  1.0807 -1.1202
  146MOL0     H19655   6.108   6.345   9.864  0.6793 -2.1464 -2.2029
  146MOL0     H19656   6.238   6.223   9.889 -0.5364 -0.7312  1.3265
  146MOL0     H19657   6.129   6.212  10.131  1.5794  2.2170 -0.3885
  146MOL0     H19658   6.004   6.318  10.066  0.5348  0.6208 -1.7106
  146MOL0     H19659   6.077   6.042   9.966  0.6582  0.6281  1.8980
  146MOL0     H19660   5.956   6.150   9.886  2.4749  0.9515 -0.9030
  146MOL0     H19661   5.734   6.195  10.000  0.1972 -1.1413 -1.8627
  146MOL0     H19662   5.512   6.073  10.211  1.0696 -0.2875 -1.5693
  146MOL0     H19663   5.578   6.110  10.363  0.6825  3.4402  1.0750
  146MOL0     H19664   5.537   6.285  10.128  1.9331 -0.0746 -0.4237
  146MOL0     H19665   5.651   6.348  10.248  1.3600 -0.7221 -0.6813
  146MOL0     H19666   5.433   6.446  10.307 -2.6140 -0.6059 -0.9487
  146MOL0     H19667   5.486   6.333  10.425  0.6645 -2.1205 -0.0167
  146MOL0     H19668   5.330   6.165  10.329  1.7939 -0.9944 -2.3070
  146MOL0     H19669   5.296   6.250  10.188 -0.3658 -1.7280  0.9937
  146MOL0     H19670   5.077   6.434  10.534  1.4380 -1.5833  0.1375
  146MOL0     H19671   4.918   6.446  10.697 -0.5681  0.1874 -1.2981
  146MOL0     H19672   4.776   6.443  10.603 -0.1599  0.3369 -0.8951
  146MOL0     H19673   4.804   6.316  10.738  1.4252  1.8318  2.2646
  146MOL0     H19674   4.598   5.791  10.619 -0.9176 -0.2151  0.4618
  146MOL0     H19675   4.345   5.697  10.623  0.4277 -1.2652 -1.6906
  146MOL0     H19676   4.072   5.993  10.588 -2.8872 -1.0369  1.0966
  146MOL0     H19677   4.042   5.978  10.427 -0.8776 -1.3755 -0.9062
  146MOL0     H19678   3.840   5.906  10.555 -1.6995 -1.8103 -1.0230
  146MOL0     H19679   3.904   5.752  10.487  0.1073  2.1535 -2.1951
  146MOL0     H19680   3.845   5.785  10.746 -0.5601  0.8775 -1.0448
  146MOL0     H19681   4.009   5.844  10.748 -0.6389  2.2305 -1.2286
  146MOL0     H19682   3.934   5.561  10.638  0.2221 -0.8081  0.3176
  146MOL0     H19683   4.094   5.622  10.665 -0.6131 -1.2575 -1.6393
  146MOL0     H19684   4.013   5.631  10.921  1.5956 -0.3123 -0.1255
  146MOL0     H19685   4.073   5.487  10.844 -1.6556 -2.8724  3.2537
  146MOL0     H19686   3.809   5.442  10.788  1.7113 -1.7928  0.0747
  146MOL0     H19687   3.892   5.385  10.917 -0.0703 -0.7171 -2.5359
  146MOL0     H19688   3.761   5.656  10.923  0.8725  1.1012  2.6651
  146MOL0     H19689   3.819   5.567  11.066 -1.4681 -0.4923  1.5298
  146MOL0     H19690   3.649   5.386  10.998 -0.7181 -0.3518 -0.2269
  146MOL0     H19691   3.568   5.525  10.910  1.2255  3.2451  0.4563
  146MOL0     H19692   4.238   6.003  10.355 -0.7224 -1.7195 -0.1305
  146MOL0     H19693   4.455   6.087  10.345 -0.0970  1.8526  3.6889
  146MOL0     H19694   4.887   6.025  10.330 -1.3475  1.7078  0.7179
  146MOL0     H19695   5.097   6.127  10.256 -1.0875 -0.2624  0.3463
  146MOL0     H19696   6.886   6.329   9.503 -2.8971  0.8418  2.1609
  146MOL0     H19697   7.111   6.283   9.445  1.4276  0.9692  0.0564
  146MOL0     H19698   7.623   6.094   9.763 -2.4463  0.7456 -0.6475
  146MOL0     H19699   7.806   5.975   9.663  0.5927 -0.1214 -0.6192
  146MOL0     H19700   8.011   6.002   9.531  1.2141  1.1901 -1.9513
  146MOL0     H19701   7.938   5.834   9.535  0.6119 -1.2488 -0.4921
  146MOL0     H19702   8.045   5.768   9.328  1.2957 -0.2081  0.0157
  146MOL0     H19703   8.159   5.816   9.454 -1.3438 -2.5495  0.1312
  146MOL0     H19704   8.051   6.014   9.240  0.0486  1.0444  0.5221
  146MOL0     H19705   8.187   5.915   9.204 -1.6148 -0.3223 -0.5185
  146MOL0     H19706   8.197   6.094   9.458  0.0312  1.3002  0.6085
  146MOL0     H19707   8.238   6.148   9.300  0.4423  1.5776  1.4493
  146MOL0     H19708   8.568   5.940   9.439  0.4210  4.0759  0.5633
  146MOL0     H19709   7.645   6.074   9.279  0.0911  0.9454 -0.2274
  146MOL0     H19710   7.470   6.206   9.396  0.3572 -1.4903 -1.5975
  147MOL0     O19711   7.632   9.712   9.795 -0.4989 -0.0901 -0.2960
  147MOL0     C19712   7.534   9.735   9.726  0.0735  1.2008  0.9312
  147MOL0     O19713   7.410   9.680   9.734  0.7755  0.6280 -0.1004
  147MOL0     C19714   7.386   9.572   9.818  0.7707 -0.0030  0.2459
  147MOL0     C19715   7.479   9.470   9.819 -0.6237  0.9095 -0.4699
  147MOL0     C19716   7.451   9.357   9.897 -0.4694 -0.6324  0.1868
  147MOL0     C19717   7.317   9.339   9.961 -0.9957 -0.5495  0.2969
  147MOL0     O19718   7.276   9.229  10.030  0.3633 -0.6752 -0.5448
  147MOL0     C19719   7.350   9.108  10.030 -0.3824 -0.6673 -0.2391
  147MOL0     C19720   7.290   9.013  10.134  0.6975 -0.3444 -0.7161
  147MOL0     C19721   7.137   9.004  10.142  0.0323 -0.0443  0.3189
  147MOL0     C19722   7.073   8.955  10.012  0.3598 -0.3937  0.6107
  147MOL0     C19723   6.925   8.953  10.007  0.3900  0.1432  0.2967
  147MOL0     C19724   6.873   8.862   9.896  0.0524  0.2356  0.1844
  147MOL0     C19725   6.723   8.874   9.865  0.3896 -0.2177 -0.4377
  147MOL0     C19726   6.626   8.853   9.990 -0.5100  1.0346 -0.0200
  147MOL0     N19727   6.489   8.829   9.949 -0.9505  0.8584  0.8540
  147MOL0     C19728   6.399   8.927   9.968 -0.0042 -0.7967 -1.1010
  147MOL0     C19729   6.279   8.864   9.947  0.0485 -0.3528  0.1861
  147MOL0     C19730   6.143   8.929   9.935 -0.1657 -1.4635 -0.2822
  147MOL0     C19731   6.029   8.838   9.994  0.6519 -0.9931  0.4524
  147MOL0     C19732   6.028   8.824  10.147 -0.8250 -0.6640  0.5798
  147MOL0     C19733   5.908   8.755  10.191 -0.2462  0.2990 -0.2418
  147MOL0     O19734   5.782   8.803  10.141 -0.4086  0.2381 -0.0149
  147MOL0     C19735   5.688   8.719  10.085  0.0953  0.0501  0.0426
  147MOL0     C19736   5.686   8.581  10.080  0.0935  0.1121  0.2912
  147MOL0     C19737   5.573   8.509  10.033  0.3986 -0.0758 -0.3479
  147MOL0     C19738   5.569   8.361  10.047 -0.7557 -0.6605 -0.9908
  147MOL0     C19739   5.464   8.587   9.980 -0.9182  0.2679 -0.4830
  147MOL0     C19740   5.330   8.532   9.932  0.4498  0.1954 -0.4410
  147MOL0     O19741   5.233   8.614   9.897  0.4881 -0.4800 -0.1799
  147MOL0     C19742   5.119   8.567   9.834 -0.0905 -0.8229 -0.4617
  147MOL0     C19743   4.995   8.623   9.880 -0.6578  0.2221 -0.4560
  147MOL0     C19744   4.875   8.598   9.817 -0.1709 -0.2758 -0.1946
  147MOL0     C19745   4.859   8.517   9.710 -0.1520  0.2145 -0.1966
  147MOL0     O19746   4.737   8.490   9.656  0.0434 -0.1458  0.0679
  147MOL0     C19747   4.614   8.513   9.729 -0.1298  0.3241 -0.5804
  147MOL0     C19748   4.487   8.469   9.665  0.1901 -0.0312  0.1404
  147MOL0     C19749   4.371   8.551   9.720  0.0816 -0.1595 -0.9792
  147MOL0     C19750   4.243   8.521   9.641  0.2721  0.4740  0.6689
  147MOL0     C19751   4.117   8.576   9.700  0.6480  0.5880  0.4268
  147MOL0     C19752   3.999   8.483   9.653  0.0695 -0.1939  0.1251
  147MOL0     C19753   3.881   8.578   9.617 -0.3598 -0.3569  0.0499
  147MOL0     C19754   3.875   8.615   9.469 -1.0778 -0.2017 -0.5088
  147MOL0    Cl19755   4.010   8.708   9.399  0.4183  0.0427  0.1149
  147MOL0     C19756   4.980   8.456   9.674 -0.5889  0.4917  0.1055
  147MOL0     C19757   5.110   8.485   9.724  0.0193  0.1290  0.3452
  147MOL0     O19758   5.309   8.416   9.927 -0.0422  0.1837  0.3295
  147MOL0     C19759   5.464   8.721   9.979 -0.8917  0.1601 -0.2608
  147MOL0     C19760   5.575   8.781  10.030 -0.0345 -0.1447 -0.0878
  147MOL0     N19761   6.303   8.727   9.922  0.3293  0.8679 -0.0345
  147MOL0     N19762   6.429   8.703   9.931 -0.5259 -0.3250 -0.8527
  147MOL0     C19763   7.231   9.444   9.963 -0.3768 -0.6602 -0.1336
  147MOL0     C19764   7.260   9.558   9.881  0.0226  0.6155 -0.3808
  147MOL0     C19765   7.546   9.833   9.618 -0.2424  0.6778 -0.3913
  147MOL0     C19766   7.437   9.845   9.534 -0.0297  0.5629 -0.4409
  147MOL0     C19767   7.433   9.947   9.434  0.1067  0.6345 -0.6601
  147MOL0     C19768   7.536  10.035   9.408 -0.3022 -0.2375  0.4648
  147MOL0     O19769   7.539  10.133   9.312 -0.1905  0.0954  0.5182
  147MOL0     C19770   7.416  10.147   9.236 -0.0391 -0.0388 -0.7711
  147MOL0     C19771   7.421  10.272   9.152 -0.7267  0.1295  0.1001
  147MOL0     C19772   7.507  10.256   9.029 -0.4287 -1.2355  0.6146
  147MOL0     C19773   7.551  10.392   8.967  0.0254  0.1518 -0.1875
  147MOL0     C19774   7.434  10.482   8.942 -0.3785  0.6087  0.2356
  147MOL0     C19775   7.346  10.549   8.886  0.3533  0.4904  0.2364
  147MOL0     C19776   7.652  10.006   9.484  0.1109  0.0862  0.3355
  147MOL0     C19777   7.651   9.910   9.587 -0.7337 -0.6591 -0.4807
  147MOL0     H19778   7.572   9.462   9.764  1.0432  1.1455  2.1111
  147MOL0     H19779   7.522   9.275   9.900 -0.2239 -0.4016  1.0121
  147MOL0     H19780   7.350   9.066   9.929  1.6477 -0.3902 -0.4088
  147MOL0     H19781   7.453   9.131  10.060 -0.6092 -0.7717  0.6538
  147MOL0     H19782   7.338   8.915  10.141  0.0351 -0.6236  5.4320
  147MOL0     H19783   7.325   9.056  10.229 -0.4502 -1.1390  0.1068
  147MOL0     H19784   7.099   8.936  10.219 -1.0888 -0.3242 -0.4493
  147MOL0     H19785   7.092   9.100  10.169  0.3693 -0.3076  1.9584
  147MOL0     H19786   7.115   9.014   9.930 -0.1426 -3.2749 -1.9253
  147MOL0     H19787   7.106   8.851   9.998 -0.7547 -0.5132 -1.5155
  147MOL0     H19788   6.880   8.912  10.097 -1.2220 -1.9257 -1.3279
  147MOL0     H19789   6.888   9.055   9.994  0.0087  0.1468  1.3495
  147MOL0     H19790   6.924   8.900   9.807 -2.3404 -0.8074 -1.7482
  147MOL0     H19791   6.906   8.759   9.913  0.6856  0.3234 -0.4356
  147MOL0     H19792   6.696   8.970   9.819  2.8424  1.4267  1.2973
  147MOL0     H19793   6.706   8.787   9.802  0.6554 -1.5382  1.2429
  147MOL0     H19794   6.637   8.948  10.044  2.2561  0.0989  1.2935
  147MOL0     H19795   6.656   8.773  10.058  0.7125  0.6708 -0.9329
  147MOL0     H19796   6.415   9.034   9.973  3.3683 -1.2104 -0.6644
  147MOL0     H19797   6.165   9.025   9.982  2.9800 -2.1098 -0.1900
  147MOL0     H19798   6.118   8.949   9.830  1.5606  2.9418 -0.0500
  147MOL0     H19799   6.037   8.737   9.954 -2.2040 -1.9009  1.8547
  147MOL0     H19800   5.937   8.882   9.954  0.7377 -0.3413  0.9506
  147MOL0     H19801   6.040   8.923  10.192 -1.0326 -0.1840 -0.4019
  147MOL0     H19802   6.110   8.763  10.187 -1.2626 -1.2862  0.5410
  147MOL0     H19803   5.910   8.743  10.300 -0.3849 -4.3106 -0.5638
  147MOL0     H19804   5.917   8.656  10.147  0.9956  1.3240 -2.4403
  147MOL0     H19805   5.770   8.528  10.123  0.6506  0.9363  0.2388
  147MOL0     H19806   5.526   8.316   9.957 -0.0989 -0.9034 -1.1853
  147MOL0     H19807   5.661   8.304  10.054  0.1246  0.8443  0.2858
  147MOL0     H19808   5.498   8.343  10.129  1.6657 -1.0425  1.1248
  147MOL0     H19809   5.014   8.700   9.955 -0.8209  0.5690 -0.7699
  147MOL0     H19810   4.787   8.649   9.856 -0.8738 -2.5061  1.3411
  147MOL0     H19811   4.631   8.476   9.830  4.3274 -2.2212 -1.9902
  147MOL0     H19812   4.610   8.623   9.728  1.6394  0.4376  1.0350
  147MOL0     H19813   4.499   8.485   9.558 -0.7628  0.6654  0.1239
  147MOL0     H19814   4.474   8.361   9.676  1.4585 -0.0394  1.8773
  147MOL0     H19815   4.396   8.657   9.712  2.0371 -0.0729  3.3806
  147MOL0     H19816   4.361   8.530   9.827  0.3880 -1.7865 -1.2344
  147MOL0     H19817   4.259   8.555   9.538 -0.8193 -0.4398  0.1735
  147MOL0     H19818   4.246   8.412   9.631 -0.8040  0.6285 -2.3526
  147MOL0     H19819   4.097   8.682   9.681 -2.1593  0.1298  0.4603
  147MOL0     H19820   4.128   8.578   9.809 -2.3315  2.2273  0.7929
  147MOL0     H19821   4.017   8.417   9.567  0.7695  2.5981 -2.0006
  147MOL0     H19822   3.992   8.405   9.730 -0.1568 -2.8240 -2.4021
  147MOL0     H19823   3.879   8.664   9.685  0.3103  1.7343 -2.3993
  147MOL0     H19824   3.793   8.516   9.636 -1.5528  2.1861  3.8976
  147MOL0     H19825   3.780   8.665   9.446 -1.6775 -0.0704  2.0217
  147MOL0     H19826   3.881   8.518   9.419  2.1714 -0.6191  0.4784
  147MOL0     H19827   4.992   8.389   9.590  2.9761  1.9742 -0.7574
  147MOL0     H19828   5.201   8.443   9.682  3.3770  3.8182  3.1669
  147MOL0     H19829   5.375   8.780   9.961 -0.6435  1.3901  2.1230
  147MOL0     H19830   5.589   8.888  10.046  1.8809 -0.3543 -0.1443
  147MOL0     H19831   7.134   9.430  10.009 -1.0105  0.3512 -1.0926
  147MOL0     H19832   7.176   9.624   9.858  1.3042  1.9684 -1.3224
  147MOL0     H19833   7.347   9.785   9.547  0.0588  1.0013  3.2605
  147MOL0     H19834   7.342   9.956   9.375  0.7998  1.3110 -1.6620
  147MOL0     H19835   7.397  10.061   9.171 -0.0340 -1.2446  0.7678
  147MOL0     H19836   7.343  10.156   9.317  0.5859  2.2061 -0.4035
  147MOL0     H19837   7.473  10.342   9.217 -0.8962  0.2121  0.1468
  147MOL0     H19838   7.321  10.304   9.119  0.3741  0.7565 -2.9772
  147MOL0     H19839   7.442  10.231   8.945  2.0309  1.5099 -2.3633
  147MOL0     H19840   7.599  10.200   9.050  0.0439 -0.0132  1.9766
  147MOL0     H19841   7.609  10.393   8.874  1.8051  0.9300  0.8972
  147MOL0     H19842   7.611  10.437   9.046  0.5162  2.3599 -1.7277
  147MOL0     H19843   7.269  10.614   8.849  0.2688 -0.9189 -2.2033
  147MOL0     H19844   7.737  10.066   9.452  0.9291  0.4198  2.9038
  147MOL0     H19845   7.743   9.890   9.641 -1.9817 -0.9249  1.6687
  148MOL0     O19846  10.249   7.756   5.419 -0.3095  0.5354 -0.5256
  148MOL0     C19847  10.269   7.874   5.421  0.8573 -0.0050 -0.2694
  148MOL0     O19848  10.385   7.939   5.463 -0.1651  0.6014  0.4529
  148MOL0     C19849  10.505   7.867   5.482  0.0644  0.2162  0.1590
  148MOL0     C19850  10.528   7.732   5.451 -0.6006 -0.2437  0.3477
  148MOL0     C19851  10.643   7.657   5.491  1.0638  0.7242 -0.3868
  148MOL0     C19852  10.729   7.728   5.582  0.6731 -0.1109 -0.3286
  148MOL0     O19853  10.830   7.681   5.653 -0.1884  1.2171  0.2667
  148MOL0     C19854  10.884   7.551   5.614  0.1052  0.3004 -0.1857
  148MOL0     C19855  11.024   7.530   5.675 -0.6706 -0.7906  0.1414
  148MOL0     C19856  11.033   7.491   5.818  1.2061 -0.0817  0.1091
  148MOL0     C19857  11.173   7.487   5.863  0.2679 -1.0934 -0.3010
  148MOL0     C19858  11.175   7.457   6.009 -0.1840 -0.1259 -0.5483
  148MOL0     C19859  11.316   7.462   6.085  0.5319 -0.5256  0.2774
  148MOL0     C19860  11.301   7.429   6.229 -0.5409  0.0543  0.2464
  148MOL0     C19861  11.443   7.427   6.283 -0.2271 -0.1136  0.2051
  148MOL0     N19862  11.441   7.409   6.428 -0.4498  0.7187 -0.3067
  148MOL0     C19863  11.395   7.500   6.514  0.0205 -0.0052  0.2380
  148MOL0     C19864  11.380   7.428   6.630 -0.0640 -0.0874  0.4432
  148MOL0     C19865  11.327   7.493   6.762  0.0922 -0.6253  0.5082
  148MOL0     C19866  11.179   7.521   6.764 -0.0871  0.7242 -0.7965
  148MOL0     C19867  11.112   7.385   6.773 -0.0455  0.1259  0.6632
  148MOL0     C19868  10.961   7.398   6.776 -0.0751 -0.0921  0.1339
  148MOL0     O19869  10.906   7.427   6.905  0.6445  0.1882 -0.8515
  148MOL0     C19870  10.768   7.440   6.904  0.5292 -0.0888 -0.1444
  148MOL0     C19871  10.704   7.509   7.008 -0.2130  0.3671 -0.2215
  148MOL0     C19872  10.567   7.536   7.015 -0.1647 -0.0830  0.1703
  148MOL0     C19873  10.527   7.618   7.131 -0.1803  0.0752  0.4954
  148MOL0     C19874  10.484   7.478   6.920  1.2142 -0.3718 -0.1201
  148MOL0     C19875  10.335   7.485   6.913  0.3265  0.2360  0.3983
  148MOL0     O19876  10.280   7.375   6.847  0.6516 -0.3343 -0.3617
  148MOL0     C19877  10.158   7.407   6.785 -0.1318  0.8980 -0.9737
  148MOL0     C19878  10.141   7.536   6.722 -0.1766  0.6625 -0.4120
  148MOL0     C19879  10.016   7.573   6.684 -0.2617  0.1070  0.0328
  148MOL0     C19880   9.902   7.488   6.702 -0.6032 -0.0590 -0.6080
  148MOL0     O19881   9.780   7.537   6.660 -0.1840 -0.4026 -0.3209
  148MOL0     C19882   9.722   7.479   6.542 -0.6330  0.5704 -0.2276
  148MOL0     C19883   9.575   7.527   6.542 -0.2904  0.1576 -0.7818
  148MOL0     C19884   9.502   7.475   6.664  1.5411  0.1202 -0.1265
  148MOL0     C19885   9.443   7.337   6.633 -0.2390 -0.1901 -0.5514
  148MOL0     C19886   9.324   7.301   6.735  0.1691  0.5882  0.1259
  148MOL0     C19887   9.279   7.155   6.714 -0.3459  0.4703 -0.0652
  148MOL0     C19888   9.176   7.116   6.815 -0.1239 -0.5082 -0.2236
  148MOL0     C19889   9.230   7.108   6.962 -0.1382 -0.3593 -0.7465
  148MOL0    Cl19890   9.092   7.118   7.072  0.3016 -0.1109 -0.2610
  148MOL0     C19891   9.918   7.361   6.766 -0.4268 -0.0735  0.9424
  148MOL0     C19892  10.047   7.318   6.802  0.0755 -0.0561 -0.2880
  148MOL0     O19893  10.276   7.579   6.964  0.8102 -0.3501 -0.3949
  148MOL0     C19894  10.546   7.400   6.817  0.2484 -0.6062 -0.1802
  148MOL0     C19895  10.685   7.388   6.804 -1.1197  0.1125  0.0623
  148MOL0     N19896  11.419   7.296   6.620 -0.0754 -0.0224  1.3704
  148MOL0     N19897  11.458   7.294   6.492 -0.1564  0.6203 -0.4840
  148MOL0     C19898  10.706   7.863   5.616 -0.2897 -0.4059 -0.2518
  148MOL0     C19899  10.599   7.932   5.562  0.5697  0.2061 -0.3240
  148MOL0     C19900  10.161   7.972   5.384 -0.3359  0.4011  0.4235
  148MOL0     C19901  10.183   8.113   5.393  0.2995 -0.1491 -0.5315
  148MOL0     C19902  10.078   8.204   5.374 -0.0843  0.8304  0.1728
  148MOL0     C19903   9.957   8.155   5.346  1.3152  0.1148 -0.7021
  148MOL0     O19904   9.862   8.250   5.350  0.0595 -0.2224  0.0568
  148MOL0     C19905   9.722   8.224   5.333 -0.0403 -0.0542 -0.8546
  148MOL0     C19906   9.649   8.366   5.363  1.0089  0.2321  0.1456
  148MOL0     C19907   9.499   8.346   5.372  0.3568 -0.4253  0.4706
  148MOL0     C19908   9.405   8.463   5.354  0.2341  0.8416 -0.1657
  148MOL0     C19909   9.408   8.547   5.476  0.0277  0.2403 -0.2766
  148MOL0     C19910   9.414   8.627   5.564  0.2385  0.4393  1.0861
  148MOL0     C19911   9.935   8.019   5.311  0.2374  0.6763 -0.3228
  148MOL0     C19912  10.040   7.925   5.332 -0.7262  0.0557 -0.0712
  148MOL0     H19913  10.463   7.690   5.375  1.2912  1.1030 -2.1277
  148MOL0     H19914  10.666   7.553   5.470 -1.4893  0.2381 -1.2042
  148MOL0     H19915  10.808   7.474   5.630  0.2919  0.5945  2.6818
  148MOL0     H19916  10.907   7.563   5.508  3.1807 -0.5827  0.2839
  148MOL0     H19917  11.072   7.447   5.623  0.3398  0.1155 -0.4259
  148MOL0     H19918  11.074   7.625   5.655  1.2509 -1.7901 -0.0762
  148MOL0     H19919  10.970   7.562   5.872 -1.7604 -1.7013 -0.9933
  148MOL0     H19920  10.982   7.395   5.828 -0.0972  0.0259 -3.6650
  148MOL0     H19921  11.207   7.397   5.811  1.6905 -0.1084 -1.1529
  148MOL0     H19922  11.231   7.576   5.837 -1.6491 -0.1957 -1.7829
  148MOL0     H19923  11.110   7.517   6.073 -0.5931 -0.9020 -0.2295
  148MOL0     H19924  11.142   7.354   6.027  0.9723 -0.0847  2.4445
  148MOL0     H19925  11.387   7.405   6.024  1.2212 -0.0908  0.6626
  148MOL0     H19926  11.346   7.567   6.085 -2.4785  0.4467 -1.4929
  148MOL0     H19927  11.236   7.492   6.290  0.0473  0.8539  0.0680
  148MOL0     H19928  11.252   7.331   6.233 -3.2311  1.2840 -0.4248
  148MOL0     H19929  11.498   7.519   6.264 -0.5130  0.4818  2.0947
  148MOL0     H19930  11.495   7.342   6.237  2.8140  2.3092 -1.1819
  148MOL0     H19931  11.390   7.607   6.495  3.1320  0.1065 -0.5463
  148MOL0     H19932  11.359   7.434   6.849  0.6286  1.9807  2.1712
  148MOL0     H19933  11.377   7.589   6.771  0.1487 -0.1076 -3.3052
  148MOL0     H19934  11.137   7.571   6.676  0.7667  0.3102 -1.4696
  148MOL0     H19935  11.152   7.577   6.853  1.7152 -2.1054  1.7099
  148MOL0     H19936  11.152   7.315   6.846  1.5146 -0.5004 -0.6986
  148MOL0     H19937  11.138   7.341   6.676  0.9887 -0.3783  1.1499
  148MOL0     H19938  10.914   7.307   6.739 -2.7398  1.8464 -1.5690
  148MOL0     H19939  10.942   7.477   6.703 -0.4610  0.0721  0.4050
  148MOL0     H19940  10.769   7.544   7.088 -0.3799 -0.2546  0.1989
  148MOL0     H19941  10.613   7.644   7.192  0.3249 -2.7854  1.1607
  148MOL0     H19942  10.482   7.713   7.102  3.0792  2.0225  1.3599
  148MOL0     H19943  10.456   7.554   7.186 -1.1125  1.4978  0.9971
  148MOL0     H19944  10.215   7.615   6.721 -0.1284  0.6571  1.0272
  148MOL0     H19945  10.011   7.669   6.632  1.0923  0.0289 -0.2999
  148MOL0     H19946   9.758   7.499   6.441 -5.0072 -2.2833 -2.6419
  148MOL0     H19947   9.728   7.371   6.557 -0.2319  0.6960  0.5878
  148MOL0     H19948   9.573   7.636   6.540 -3.0048  0.2077  0.4989
  148MOL0     H19949   9.520   7.502   6.451 -1.1317 -0.5269 -0.1069
  148MOL0     H19950   9.413   7.540   6.671  0.8532  0.0176 -4.7393
  148MOL0     H19951   9.550   7.471   6.763  1.5354 -1.5075 -0.1655
  148MOL0     H19952   9.403   7.349   6.532  1.2210  1.5778 -0.9745
  148MOL0     H19953   9.531   7.272   6.640  2.0617  2.5509 -1.6124
  148MOL0     H19954   9.234   7.361   6.719 -0.7085 -0.8647 -0.6235
  148MOL0     H19955   9.358   7.318   6.837 -1.4282 -2.6380  1.3279
  148MOL0     H19956   9.237   7.146   6.613 -1.3941  0.0567  0.3967
  148MOL0     H19957   9.354   7.076   6.718 -1.6625 -0.7598  1.9451
  148MOL0     H19958   9.131   7.018   6.796 -0.0457 -0.5021 -0.4429
  148MOL0     H19959   9.094   7.188   6.802  1.2532  1.0105 -0.8317
  148MOL0     H19960   9.307   7.183   6.985 -0.0906 -0.1863 -1.4558
  148MOL0     H19961   9.266   7.006   6.974  0.5315 -0.1131 -0.6168
  148MOL0     H19962   9.826   7.307   6.786  0.8218 -2.7153 -0.0360
  148MOL0     H19963  10.050   7.224   6.856  0.7447  0.7184  1.0714
  148MOL0     H19964  10.480   7.363   6.739 -1.0051  0.5323  0.3079
  148MOL0     H19965  10.707   7.329   6.716 -1.1745  2.1394 -1.3877
  148MOL0     H19966  10.773   7.907   5.689 -0.8588 -0.6246  0.4096
  148MOL0     H19967  10.608   8.036   5.589  4.7975  0.0899 -0.6573
  148MOL0     H19968  10.285   8.144   5.411  0.3238 -1.7099  2.6400
  148MOL0     H19969  10.098   8.310   5.392  2.3918  0.1884  1.7452
  148MOL0     H19970   9.705   8.184   5.233  0.6598 -1.1230 -0.5701
  148MOL0     H19971   9.693   8.150   5.409 -0.2519 -1.0272 -1.8681
  148MOL0     H19972   9.666   8.421   5.270 -1.3181  1.5313  0.4045
  148MOL0     H19973   9.703   8.412   5.446  0.7704 -1.7570  1.4646
  148MOL0     H19974   9.492   8.299   5.470 -1.2210  1.1756  1.1741
  148MOL0     H19975   9.467   8.278   5.292  0.6853  0.1015 -0.1231
  148MOL0     H19976   9.301   8.429   5.355 -0.4004  2.6498  0.5605
  148MOL0     H19977   9.439   8.519   5.267  0.2654  0.1657 -0.5938
  148MOL0     H19978   9.413   8.706   5.636  1.6737  2.6995 -1.2053
  148MOL0     H19979   9.836   7.986   5.278  0.8685 -0.9532 -0.6972
  148MOL0     H19980  10.021   7.821   5.307  0.1642  0.2564 -1.7714
  149MOL0     O19981   2.260   1.322   9.157 -0.2651  0.2584  0.1595
  149MOL0     C19982   2.225   1.440   9.134 -0.3214  0.1441 -0.5023
  149MOL0     O19983   2.096   1.487   9.145 -0.4164  0.3341  0.3293
  149MOL0     C19984   2.000   1.388   9.168 -0.2262  0.6530  0.1324
  149MOL0     C19985   1.939   1.309   9.070  0.0869 -0.5336  0.0507
  149MOL0     C19986   1.839   1.211   9.102 -0.1171  0.0954  0.2261
  149MOL0     C19987   1.796   1.205   9.232 -0.0723 -0.1085  0.0853
  149MOL0     O19988   1.690   1.127   9.275  0.2906 -0.6188 -0.5827
  149MOL0     C19989   1.639   1.025   9.184 -0.8190 -0.3692  0.2427
  149MOL0     C19990   1.529   0.942   9.247  0.4163 -0.1076  0.1337
  149MOL0     C19991   1.416   1.023   9.321  0.6400 -0.6763  0.7780
  149MOL0     C19992   1.310   0.932   9.365  0.4435 -0.2390  0.3888
  149MOL0     C19993   1.225   0.865   9.256  0.0368  0.5380  0.3665
  149MOL0     C19994   1.095   0.809   9.297 -0.4375 -0.8690  0.6542
  149MOL0     C19995   1.021   0.738   9.181  0.6646 -0.0211  0.7268
  149MOL0     C19996   0.873   0.692   9.225 -0.1232  0.3387  0.0094
  149MOL0     N19997   0.800   0.761   9.331  0.4324  0.5710 -0.3766
  149MOL0     C19998   0.720   0.862   9.314  0.7063 -0.6839  0.5182
  149MOL0     C19999   0.644   0.871   9.433  0.2450  0.2774  0.9070
  149MOL0     C20000   0.528   0.966   9.459 -0.3926  0.0301 -0.2402
  149MOL0     C20001   0.395   0.883   9.432  0.1195  0.3647 -0.0529
  149MOL0     C20002   0.356   0.818   9.559 -0.1728 -0.5152 -0.6065
  149MOL0     C20003   0.219   0.749   9.550 -0.2996 -0.4488  0.2362
  149MOL0     O20004   0.129   0.855   9.514 -1.0053  0.6545 -0.2354
  149MOL0     C20005  -0.005   0.826   9.522 -0.0024 -0.2772 -0.1092
  149MOL0     C20006  -0.058   0.714   9.588  0.1853 -0.3930  0.0586
  149MOL0     C20007  -0.193   0.690   9.599  0.2245 -0.6804 -0.3469
  149MOL0     C20008  -0.240   0.581   9.692 -0.2362 -0.2768  0.0394
  149MOL0     C20009  -0.287   0.787   9.542 -0.4202  0.1860  0.2466
  149MOL0     C20010  -0.438   0.772   9.534 -0.6800 -0.6651 -0.2254
  149MOL0     O20011  -0.506   0.880   9.478  0.0106  0.0792 -0.3796
  149MOL0     C20012  -0.638   0.871   9.446  0.3350  0.8740 -0.5966
  149MOL0     C20013  -0.710   0.981   9.412 -0.3726 -0.9172  0.7209
  149MOL0     C20014  -0.854   0.980   9.382 -0.5723  0.3546  1.0663
  149MOL0     C20015  -0.921   0.861   9.405  0.6397  2.0842  0.4543
  149MOL0     O20016  -1.061   0.855   9.386 -0.6688 -0.1253 -0.8227
  149MOL0     C20017  -1.132   0.795   9.496  0.6763 -0.8784  0.3657
  149MOL0     C20018  -1.260   0.734   9.437  0.2013  0.3125  0.5655
  149MOL0     C20019  -1.356   0.703   9.550  0.1983  0.3146  0.0542
  149MOL0     C20020  -1.481   0.634   9.503  0.1440 -0.3152 -0.6402
  149MOL0     C20021  -1.582   0.612   9.609 -0.0724  0.9260 -0.1015
  149MOL0     C20022  -1.717   0.554   9.567  0.4860  0.1182 -0.5665
  149MOL0     C20023  -1.807   0.667   9.514  0.0146  0.5820 -0.5001
  149MOL0     C20024  -1.961   0.624   9.517  0.1938 -1.1957 -0.5586
  149MOL0    Cl20025  -1.987   0.458   9.442  0.5533  0.4024  0.0814
  149MOL0     C20026  -0.845   0.739   9.408 -0.0712  0.8775 -0.8713
  149MOL0     C20027  -0.708   0.752   9.424 -0.6108 -0.5231 -0.2553
  149MOL0     O20028  -0.488   0.672   9.590 -0.6108 -0.5259  1.3910
  149MOL0     C20029  -0.232   0.899   9.472 -0.3085 -0.2493 -0.2531
  149MOL0     C20030  -0.097   0.918   9.466  0.0019 -0.5416 -0.3203
  149MOL0     N20031   0.702   0.779   9.517 -0.0607  0.0985  0.0947
  149MOL0     N20032   0.791   0.719   9.458 -0.4971 -0.2761 -0.4702
  149MOL0     C20033   1.856   1.288   9.331  1.5360  0.3087  0.4751
  149MOL0     C20034   1.961   1.377   9.297  0.3779 -0.1436 -0.1843
  149MOL0     C20035   2.332   1.541   9.116  0.6387  0.1055 -0.0157
  149MOL0     C20036   2.301   1.671   9.153 -0.2894  0.1744  0.4644
  149MOL0     C20037   2.406   1.767   9.133 -0.1518  0.4307 -0.2314
  149MOL0     C20038   2.525   1.735   9.075 -0.5034 -0.1648  0.2120
  149MOL0     O20039   2.614   1.838   9.065 -0.6224 -0.5518 -0.5636
  149MOL0     C20040   2.751   1.828   9.026  0.2703  0.8466 -0.4023
  149MOL0     C20041   2.762   1.853   8.872 -0.0033  0.1715 -0.1719
  149MOL0     C20042   2.744   1.998   8.833  0.0530 -0.8794 -0.1226
  149MOL0     C20043   2.790   2.027   8.683  0.0159 -1.0223 -0.0347
  149MOL0     C20044   2.732   1.925   8.593  1.3006 -0.1156  0.3581
  149MOL0     C20045   2.692   1.855   8.498  0.1185  0.5927 -1.1554
  149MOL0     C20046   2.560   1.610   9.039 -0.0469  1.3510  0.1396
  149MOL0     C20047   2.456   1.511   9.050  0.0523  0.0405 -0.8816
  149MOL0     H20048   1.970   1.326   8.968 -1.1416 -3.3213 -0.8799
  149MOL0     H20049   1.797   1.155   9.019  1.2274 -1.1983  0.3870
  149MOL0     H20050   1.596   1.069   9.093  2.1479  3.0356  0.2459
  149MOL0     H20051   1.723   0.968   9.144  0.5439  0.6538  1.5246
  149MOL0     H20052   1.490   0.865   9.180  0.9696  0.3944 -0.7978
  149MOL0     H20053   1.588   0.895   9.326  1.2479  1.0973  0.2709
  149MOL0     H20054   1.472   1.078   9.397 -0.5086  2.0766 -0.2477
  149MOL0     H20055   1.369   1.097   9.255  0.7307 -0.7585  0.6207
  149MOL0     H20056   1.365   0.851   9.415  0.6091 -0.1122  0.4112
  149MOL0     H20057   1.246   0.983   9.438 -1.9647  1.0310 -2.3954
  149MOL0     H20058   1.215   0.933   9.171  2.2224 -0.6512 -0.9495
  149MOL0     H20059   1.277   0.777   9.216  0.5068  1.4249 -1.0687
  149MOL0     H20060   1.110   0.738   9.378  0.1986 -0.6916  0.6951
  149MOL0     H20061   1.045   0.891   9.351  1.0772  1.1252 -0.8153
  149MOL0     H20062   1.019   0.801   9.091  4.1945 -1.3530 -0.4229
  149MOL0     H20063   1.083   0.655   9.148  0.4408  0.4871 -1.0849
  149MOL0     H20064   0.879   0.592   9.270  2.0001 -0.4297 -1.7424
  149MOL0     H20065   0.810   0.698   9.135  0.8162  1.5560 -0.5991
  149MOL0     H20066   0.704   0.909   9.217  0.1018 -0.8095  0.5541
  149MOL0     H20067   0.535   1.005   9.560 -0.0148  4.4100 -1.7487
  149MOL0     H20068   0.537   1.056   9.397 -0.7209  1.1421  1.2858
  149MOL0     H20069   0.422   0.799   9.368 -1.2334 -0.2683  0.1824
  149MOL0     H20070   0.311   0.930   9.381 -1.3297 -1.7684  0.2456
  149MOL0     H20071   0.353   0.894   9.637  1.2796 -1.0123 -0.0333
  149MOL0     H20072   0.427   0.743   9.596 -1.2707 -2.0685 -1.4890
  149MOL0     H20073   0.204   0.708   9.650 -0.7095 -1.9992 -0.4272
  149MOL0     H20074   0.216   0.669   9.475  0.0462 -0.7592  0.5551
  149MOL0     H20075   0.004   0.634   9.627 -1.8555 -3.4727 -2.5135
  149MOL0     H20076  -0.155   0.546   9.752 -0.3889 -2.3755 -0.9136
  149MOL0     H20077  -0.315   0.626   9.758  0.6246  1.9019 -0.3557
  149MOL0     H20078  -0.291   0.504   9.634 -1.9901  0.8202  0.0455
  149MOL0     H20079  -0.659   1.073   9.388  1.0165 -2.3118 -2.2208
  149MOL0     H20080  -0.909   1.067   9.347 -0.2222 -0.3395 -1.3935
  149MOL0     H20081  -1.082   0.711   9.544  1.8292 -0.4743 -0.1099
  149MOL0     H20082  -1.155   0.876   9.566 -1.5964 -1.8317  0.8270
  149MOL0     H20083  -1.306   0.796   9.360 -0.4523  0.5249  1.1190
  149MOL0     H20084  -1.242   0.642   9.380 -0.2928  1.8539 -2.2478
  149MOL0     H20085  -1.391   0.789   9.608  3.0392  1.7634 -0.1892
  149MOL0     H20086  -1.310   0.631   9.619 -0.9775 -0.4184  0.1042
  149MOL0     H20087  -1.521   0.695   9.421 -0.5705  1.3910  0.9070
  149MOL0     H20088  -1.455   0.535   9.463  4.1601  0.1865  0.3355
  149MOL0     H20089  -1.597   0.711   9.652 -2.2266  0.7513 -0.3713
  149MOL0     H20090  -1.535   0.555   9.690 -2.2173 -1.2963 -0.3190
  149MOL0     H20091  -1.707   0.468   9.499 -1.3755 -1.1140  0.6371
  149MOL0     H20092  -1.760   0.512   9.658  2.5814 -0.2498  0.3110
  149MOL0     H20093  -1.773   0.685   9.411  3.5682  0.4069  0.5293
  149MOL0     H20094  -1.791   0.762   9.566 -1.2437 -0.0658  1.1597
  149MOL0     H20095  -2.026   0.687   9.455 -1.9449 -0.3235  2.3545
  149MOL0     H20096  -2.003   0.628   9.618 -0.1376 -2.1376 -0.6514
  149MOL0     H20097  -0.888   0.639   9.410  2.1149 -0.1096  0.1932
  149MOL0     H20098  -0.652   0.659   9.427  2.8968  1.3531 -1.0400
  149MOL0     H20099  -0.295   0.973   9.425 -1.7925 -1.3483 -0.0789
  149MOL0     H20100  -0.056   1.002   9.410 -1.0875  0.7899  0.8229
  149MOL0     H20101   1.819   1.278   9.432  1.3221  0.4178  0.4064
  149MOL0     H20102   1.989   1.449   9.373 -1.1192 -0.7879  1.0472
  149MOL0     H20103   2.210   1.713   9.194 -0.7498  1.8272 -2.0044
  149MOL0     H20104   2.393   1.871   9.161  2.5646  0.5239  1.0077
  149MOL0     H20105   2.803   1.906   9.084  0.5230  3.2013 -3.5260
  149MOL0     H20106   2.787   1.726   9.041 -0.8677  0.2934 -1.2675
  149MOL0     H20107   2.687   1.790   8.824 -3.6576  2.1866  2.4036
  149MOL0     H20108   2.864   1.821   8.848  0.1662 -0.4145  1.1890
  149MOL0     H20109   2.810   2.059   8.896  1.4716 -0.3455 -2.0202
  149MOL0     H20110   2.639   2.024   8.848 -0.4574 -1.8972 -1.6409
  149MOL0     H20111   2.899   2.022   8.680  0.0975  0.5645 -0.7095
  149MOL0     H20112   2.764   2.130   8.660  1.3573 -0.8284 -0.7601
  149MOL0     H20113   2.642   1.804   8.418  0.9628 -1.4893 -0.4200
  149MOL0     H20114   2.652   1.569   8.998 -1.8718 -3.9066  0.5534
  149MOL0     H20115   2.483   1.413   9.011 -0.2319 -1.3398  2.1167
  150MOL0     O20116  10.580   2.912  10.395 -0.1436 -0.1592  0.3322
  150MOL0     C20117  10.642   2.810  10.422  0.1475  0.0971 -0.5802
  150MOL0     O20118  10.590   2.701  10.486  1.0768  0.5081  0.5768
  150MOL0     C20119  10.462   2.682  10.523 -0.1845  0.3045  0.7123
  150MOL0     C20120  10.361   2.741  10.447  0.1771 -0.5649 -0.1365
  150MOL0     C20121  10.228   2.728  10.496 -0.6858  0.3333 -0.3398
  150MOL0     C20122  10.199   2.673  10.617  0.0495 -0.0655 -0.6829
  150MOL0     O20123  10.072   2.664  10.673 -0.3226 -0.7845 -0.4671
  150MOL0     C20124   9.991   2.781  10.651 -0.8023  0.2067  0.0041
  150MOL0     C20125   9.881   2.795  10.750  0.2279  0.1673 -0.1429
  150MOL0     C20126   9.919   2.741  10.892  0.2737 -0.2800 -0.2067
  150MOL0     C20127   9.839   2.815  10.997 -0.9676 -0.5133 -0.2057
  150MOL0     C20128   9.866   2.758  11.136 -0.9116 -0.1413  0.3652
  150MOL0     C20129   9.770   2.802  11.236 -0.8036  0.0573  0.6661
  150MOL0     C20130   9.628   2.739  11.239  0.5921  0.1451 -0.5081
  150MOL0     C20131   9.644   2.591  11.272 -0.0595  0.4882 -0.0481
  150MOL0     N20132   9.509   2.533  11.279  0.7972 -0.7537 -1.1206
  150MOL0     C20133   9.421   2.547  11.387 -0.0126 -0.7294 -0.7771
  150MOL0     C20134   9.314   2.471  11.357 -1.4826  0.3116 -0.2250
  150MOL0     C20135   9.213   2.417  11.456  0.1606  0.1166  0.3226
  150MOL0     C20136   9.107   2.527  11.482 -1.0220 -0.4650  0.3360
  150MOL0     C20137   9.008   2.464  11.589  0.3886  0.2792 -0.3549
  150MOL0     C20138   8.914   2.347  11.531 -0.7485 -0.0212 -0.5138
  150MOL0     O20139   8.879   2.269  11.647 -0.2331 -0.0136 -0.2504
  150MOL0     C20140   8.755   2.310  11.689  0.5838  0.1592  0.6436
  150MOL0     C20141   8.724   2.344  11.824 -1.1481 -0.1350  0.0351
  150MOL0     C20142   8.589   2.361  11.871 -0.8898  0.5212 -0.1072
  150MOL0     C20143   8.565   2.371  12.019 -0.1854 -0.1527 -0.3424
  150MOL0     C20144   8.486   2.355  11.771  0.1561  0.0117  0.3812
  150MOL0     C20145   8.346   2.365  11.800  0.1666  0.0874 -0.2220
  150MOL0     O20146   8.262   2.292  11.709 -0.1936  0.5258  0.3321
  150MOL0     C20147   8.122   2.284  11.741 -0.2779 -0.1124 -0.5239
  150MOL0     C20148   8.071   2.183  11.821 -0.8497  0.8731  0.1085
  150MOL0     C20149   7.931   2.158  11.833  0.0147  1.1523 -0.1180
  150MOL0     C20150   7.845   2.255  11.785  0.6765 -0.1685  0.0882
  150MOL0     O20151   7.710   2.258  11.804  0.9690  1.2296  0.1724
  150MOL0     C20152   7.657   2.140  11.864 -0.6070 -0.3799 -0.3936
  150MOL0     C20153   7.511   2.188  11.889  0.0498  0.5900 -0.3092
  150MOL0     C20154   7.444   2.072  11.952 -0.7295  0.0069  0.7908
  150MOL0     C20155   7.303   2.113  11.985 -0.3881  0.8587  0.3114
  150MOL0     C20156   7.224   1.998  12.050  0.2412 -0.2315 -0.0479
  150MOL0     C20157   7.107   2.056  12.134 -0.7962  0.0504  0.9264
  150MOL0     C20158   6.992   2.145  12.068 -0.7971 -0.0202 -0.3048
  150MOL0     C20159   6.861   2.157  12.153  0.0821  0.5316 -0.3116
  150MOL0    Cl20160   6.867   2.216  12.325  0.3316  0.4889 -0.0621
  150MOL0     C20161   7.889   2.353  11.698 -0.5645  0.5873  1.0084
  150MOL0     C20162   8.031   2.366  11.680 -0.5900 -0.0363  0.6863
  150MOL0     O20163   8.308   2.431  11.895  0.0385  0.5176  0.2775
  150MOL0     C20164   8.519   2.324  11.639 -0.1002  0.5600  0.7498
  150MOL0     C20165   8.649   2.290  11.600 -0.2063  0.7347 -0.1382
  150MOL0     N20166   9.327   2.416  11.230  0.4213 -0.5563 -0.4911
  150MOL0     N20167   9.441   2.455  11.180 -0.2697 -0.2855 -0.5444
  150MOL0     C20168  10.302   2.615  10.688 -0.3604 -0.0912 -0.3366
  150MOL0     C20169  10.434   2.613  10.642  0.0572 -0.3723  0.4178
  150MOL0     C20170  10.786   2.812  10.402  0.6770  1.1314 -0.3764
  150MOL0     C20171  10.848   2.682  10.424 -0.3943  0.2435  0.0952
  150MOL0     C20172  10.983   2.660  10.401 -1.4326  0.2303  0.2522
  150MOL0     C20173  11.055   2.764  10.350 -0.8684 -0.1991  0.2925
  150MOL0     O20174  11.188   2.736  10.327 -0.2425  0.0013  0.3726
  150MOL0     C20175  11.254   2.819  10.233  0.9652  0.1880  0.4661
  150MOL0     C20176  11.375   2.730  10.189 -0.2015 -0.3834  0.0300
  150MOL0     C20177  11.446   2.769  10.062  0.1813 -0.4509 -0.2799
  150MOL0     C20178  11.354   2.766   9.934 -0.6640 -0.1471 -0.6804
  150MOL0     C20179  11.304   2.632   9.912 -0.0721  0.4400 -0.3857
  150MOL0     C20180  11.268   2.522   9.886 -0.0996 -0.4844  0.1853
  150MOL0     C20181  10.998   2.889  10.311 -0.5477  0.2425  0.3786
  150MOL0     C20182  10.862   2.912  10.337 -0.5890 -0.7435 -1.2055
  150MOL0     H20183  10.385   2.790  10.353  0.5244  0.2756  0.3753
  150MOL0     H20184  10.150   2.730  10.421 -0.8828 -2.6986 -0.3662
  150MOL0     H20185  10.055   2.868  10.637  2.0266 -1.9920 -2.1105
  150MOL0     H20186   9.934   2.776  10.558  1.4754 -1.4523 -1.4245
  150MOL0     H20187   9.854   2.900  10.760  1.3753  0.3955  0.9459
  150MOL0     H20188   9.798   2.736  10.711 -1.6713  0.7152  2.7425
  150MOL0     H20189   9.889   2.635  10.894 -0.1446 -0.1690  1.5227
  150MOL0     H20190  10.023   2.760  10.920  0.3428  0.7874 -1.1484
  150MOL0     H20191   9.877   2.917  11.006  0.1385 -0.9427  0.1272
  150MOL0     H20192   9.733   2.821  10.969 -0.9511  3.3015  0.0349
  150MOL0     H20193   9.857   2.649  11.137  0.8006 -0.5572 -4.4216
  150MOL0     H20194   9.962   2.789  11.180 -2.0624  0.6681  2.4578
  150MOL0     H20195   9.804   2.799  11.340 -4.3194  1.8518  2.0403
  150MOL0     H20196   9.758   2.908  11.213 -0.6323  0.1915  1.1887
  150MOL0     H20197   9.563   2.789  11.311 -2.7098 -1.7171 -1.9584
  150MOL0     H20198   9.589   2.751  11.137 -0.3284  2.1237  0.0344
  150MOL0     H20199   9.704   2.578  11.363 -0.0131 -0.0377 -0.1542
  150MOL0     H20200   9.686   2.535  11.189 -0.8074 -0.0586 -0.0649
  150MOL0     H20201   9.445   2.610  11.473  1.6175  0.9127 -2.3343
  150MOL0     H20202   9.164   2.332  11.406  1.8103  0.5046 -2.1482
  150MOL0     H20203   9.265   2.383  11.546  2.9402  1.6869 -0.5969
  150MOL0     H20204   9.061   2.546  11.385  1.0217 -0.5145 -0.6827
  150MOL0     H20205   9.155   2.616  11.522  0.8459 -1.6450  0.8283
  150MOL0     H20206   8.944   2.539  11.639  1.4560  1.6521 -0.9944
  150MOL0     H20207   9.077   2.423  11.663 -0.4893 -0.1569  0.2495
  150MOL0     H20208   8.980   2.291  11.465  2.0099  2.7880 -0.4027
  150MOL0     H20209   8.825   2.372  11.473 -1.4274 -1.0658  0.0543
  150MOL0     H20210   8.816   2.342  11.880  0.9530 -1.0683 -3.2025
  150MOL0     H20211   8.499   2.449  12.059 -0.6798 -1.1116  0.7811
  150MOL0     H20212   8.518   2.274  12.038  0.5106 -0.8313 -1.9206
  150MOL0     H20213   8.657   2.374  12.078 -0.5014  3.2445  0.1705
  150MOL0     H20214   8.139   2.112  11.869 -0.3296  0.2946 -1.4054
  150MOL0     H20215   7.893   2.069  11.884 -0.0013 -0.4638 -2.7814
  150MOL0     H20216   7.673   2.064  11.787 -1.9401 -2.2353  1.0514
  150MOL0     H20217   7.703   2.111  11.959  1.7045  5.1188  0.5208
  150MOL0     H20218   7.518   2.278  11.951  0.8159 -0.1558  0.7259
  150MOL0     H20219   7.460   2.207  11.794 -0.1826 -0.2563 -0.3624
  150MOL0     H20220   7.488   2.043  12.048 -1.6171  1.2760  1.6114
  150MOL0     H20221   7.434   1.991  11.879 -1.1389  2.3050 -1.8449
  150MOL0     H20222   7.314   2.192  12.060  0.0616 -0.0473  1.2307
  150MOL0     H20223   7.255   2.165  11.902 -0.3277  0.2687 -0.1047
  150MOL0     H20224   7.291   1.947  12.119  2.8814  2.8716 -0.0550
  150MOL0     H20225   7.178   1.936  11.973 -2.8858  1.8956 -0.0918
  150MOL0     H20226   7.056   1.967  12.174  0.4021 -2.1081 -1.9710
  150MOL0     H20227   7.152   2.114  12.215 -2.0412  0.9388  1.0246
  150MOL0     H20228   6.967   2.100  11.971  1.2562 -4.0941  0.8340
  150MOL0     H20229   7.038   2.243  12.048 -0.5313 -0.0554  0.1215
  150MOL0     H20230   6.813   2.059  12.149  2.1970 -0.5327 -1.2198
  150MOL0     H20231   6.793   2.229  12.106 -0.3272  0.7789  0.6462
  150MOL0     H20232   7.818   2.417  11.647 -1.3641 -0.4987  0.7317
  150MOL0     H20233   8.076   2.440  11.614  1.5169 -2.6993 -1.0878
  150MOL0     H20234   8.448   2.305  11.559  1.2023 -3.7859  0.4002
  150MOL0     H20235   8.654   2.252  11.499 -0.6035  0.4982 -0.0721
  150MOL0     H20236  10.271   2.556  10.773  1.4537  0.7370  0.9707
  150MOL0     H20237  10.506   2.553  10.696  0.0088 -0.3254  0.5332
  150MOL0     H20238  10.779   2.603  10.453  0.3538  0.2671  2.0481
  150MOL0     H20239  11.026   2.561  10.395  1.4448  1.4470 -0.7484
  150MOL0     H20240  11.178   2.835  10.157 -1.4031  2.2025  3.0440
  150MOL0     H20241  11.298   2.914  10.267 -1.1778  1.0722  0.9198
  150MOL0     H20242  11.351   2.625  10.205 -1.7846 -0.1090 -0.3720
  150MOL0     H20243  11.446   2.747  10.270  1.5281 -0.9019 -1.3101
  150MOL0     H20244  11.538   2.715  10.040  3.5918  5.0864 -1.7458
  150MOL0     H20245  11.466   2.877  10.068  1.4644 -0.5741 -1.6804
  150MOL0     H20246  11.425   2.791   9.855  0.0593 -0.7272 -0.2251
  150MOL0     H20247  11.278   2.845   9.941  0.6103  0.9793  1.8559
  150MOL0     H20248  11.218   2.433   9.855 -0.1069  0.3815 -2.5491
  150MOL0     H20249  11.057   2.971  10.272 -0.0114 -0.5647 -0.5630
  150MOL0     H20250  10.822   3.012  10.324  2.4704  0.2613 -4.2393
  151MOL0     O20251   2.382   5.959   0.456 -0.2155 -0.5693  0.0068
  151MOL0     C20252   2.261   5.973   0.421 -0.7014  0.7791 -0.1241
  151MOL0     O20253   2.225   6.019   0.301 -0.0179 -0.5245 -0.0944
  151MOL0     C20254   2.329   6.072   0.216 -0.2391  0.5500 -0.2463
  151MOL0     C20255   2.387   6.190   0.261 -0.1904  0.6957  0.7266
  151MOL0     C20256   2.488   6.248   0.181  0.4387  0.1463  0.9117
  151MOL0     C20257   2.541   6.182   0.068  0.4515 -0.3353  1.1001
  151MOL0     O20258   2.636   6.245  -0.003 -0.3997  0.7064  0.6284
  151MOL0     C20259   2.748   6.169  -0.046 -0.8257  0.2084  0.1772
  151MOL0     C20260   2.880   6.245  -0.030  0.2026 -1.0949  0.4701
  151MOL0     C20261   3.001   6.155  -0.058 -0.7668  0.3787 -0.2740
  151MOL0     C20262   3.133   6.226  -0.028 -0.6861  0.1048  0.8849
  151MOL0     C20263   3.172   6.304  -0.159 -0.0846  0.3128  0.2571
  151MOL0     C20264   3.312   6.364  -0.136  0.2700 -0.4922  0.7734
  151MOL0     C20265   3.393   6.342  -0.265  0.3781 -1.3465  0.0370
  151MOL0     C20266   3.490   6.223  -0.263 -0.5036 -0.0374  0.3410
  151MOL0     N20267   3.409   6.103  -0.255  0.2415  1.1766  0.1127
  151MOL0     C20268   3.402   6.020  -0.145  0.1352  0.2354 -0.0468
  151MOL0     C20269   3.345   5.908  -0.176 -0.7639 -0.4297  0.7073
  151MOL0     C20270   3.321   5.781  -0.097  0.2984 -0.4012  0.4032
  151MOL0     C20271   3.179   5.783  -0.029  0.0494  0.1403 -0.0843
  151MOL0     C20272   3.064   5.741  -0.134 -0.0787 -0.1738 -0.0513
  151MOL0     C20273   2.933   5.724  -0.058  0.2528  0.6291 -0.3316
  151MOL0     O20274   2.835   5.647  -0.135 -0.4975  0.0691  0.1500
  151MOL0     C20275   2.700   5.630  -0.090  0.3100 -0.6245  0.1965
  151MOL0     C20276   2.632   5.526  -0.153  0.6334  0.4146  0.1874
  151MOL0     C20277   2.497   5.493  -0.123 -0.3305  0.4037  0.2721
  151MOL0     C20278   2.425   5.389  -0.207 -0.1579  0.7471  0.5975
  151MOL0     C20279   2.433   5.581  -0.025 -0.4297  0.4442  0.5831
  151MOL0     C20280   2.303   5.549   0.029  0.5639  0.0987 -1.2427
  151MOL0     O20281   2.250   5.655   0.095  0.1269  0.3919  0.6769
  151MOL0     C20282   2.133   5.640   0.165  0.9985  0.7233  0.4177
  151MOL0     C20283   2.121   5.671   0.299  0.4746 -1.0463  0.2015
  151MOL0     C20284   2.002   5.651   0.369  0.6348  0.1652 -0.2321
  151MOL0     C20285   1.880   5.632   0.292 -0.1819 -1.0653  0.1240
  151MOL0     O20286   1.754   5.631   0.347  0.2224  0.6657 -0.1062
  151MOL0     C20287   1.740   5.632   0.489  0.1552 -0.4345  0.1995
  151MOL0     C20288   1.594   5.668   0.520  0.2274  0.1333  0.0260
  151MOL0     C20289   1.503   5.545   0.486  0.1780 -0.9585 -0.5389
  151MOL0     C20290   1.500   5.424   0.587 -0.0400 -0.0117  0.0724
  151MOL0     C20291   1.409   5.450   0.717 -0.5129 -1.3019  0.9118
  151MOL0     C20292   1.429   5.341   0.817 -0.9569 -0.6161  0.4946
  151MOL0     C20293   1.323   5.353   0.926 -0.1194  0.2901 -0.1009
  151MOL0     C20294   1.316   5.241   1.019 -0.1499 -0.9614 -0.2634
  151MOL0    Cl20295   1.240   5.109   0.944  0.3751  0.0053  0.2779
  151MOL0     C20296   1.893   5.599   0.153  0.2160  0.4176 -0.3670
  151MOL0     C20297   2.020   5.593   0.098 -0.7981  0.4360 -0.2773
  151MOL0     O20298   2.244   5.444   0.010 -0.1541 -1.1884  0.3642
  151MOL0     C20299   2.508   5.691   0.031 -0.2997  0.7944 -0.2080
  151MOL0     C20300   2.638   5.716  -0.003  0.4794 -0.3943  0.2933
  151MOL0     N20301   3.312   5.925  -0.307 -0.1872 -0.9881 -0.2782
  151MOL0     N20302   3.343   6.043  -0.353  0.6571 -0.2097 -0.3228
  151MOL0     C20303   2.472   6.070   0.020  0.0836  0.2117 -0.3365
  151MOL0     C20304   2.370   6.014   0.090 -0.5139  0.3498  0.1529
  151MOL0     C20305   2.150   5.948   0.516 -0.2648  0.3521 -0.4118
  151MOL0     C20306   2.172   5.868   0.627  0.4045 -0.0127 -0.4723
  151MOL0     C20307   2.063   5.833   0.712 -0.7125  0.4428  0.4913
  151MOL0     C20308   1.935   5.880   0.695  0.9422  0.0177  0.0696
  151MOL0     O20309   1.825   5.845   0.774 -0.3265  0.0763 -0.0251
  151MOL0     C20310   1.837   5.743   0.880 -1.1087 -0.0129 -0.1689
  151MOL0     C20311   1.702   5.686   0.909  0.4799  0.2182 -0.5168
  151MOL0     C20312   1.682   5.641   1.052  0.2097 -1.0986  0.0296
  151MOL0     C20313   1.735   5.499   1.065 -0.3520 -0.8242 -0.1308
  151MOL0     C20314   1.678   5.422   1.183 -0.3671 -0.5844  0.4190
  151MOL0     C20315   1.643   5.361   1.278 -0.0619 -0.2771  0.3986
  151MOL0     C20316   1.916   5.962   0.581 -1.0254  0.0316  0.3487
  151MOL0     C20317   2.018   5.992   0.496  0.3256  0.1702  0.4208
  151MOL0     H20318   2.358   6.243   0.352  0.7098  1.1234  0.7735
  151MOL0     H20319   2.545   6.335   0.212  0.6413 -1.2256  4.8108
  151MOL0     H20320   2.755   6.081   0.020 -0.3184  2.3467  3.1992
  151MOL0     H20321   2.748   6.149  -0.153  3.1352 -1.1261  0.2533
  151MOL0     H20322   2.872   6.324  -0.105  0.6766 -0.1604  1.3733
  151MOL0     H20323   2.899   6.292   0.067 -1.1222  0.8042 -0.1387
  151MOL0     H20324   3.000   6.069   0.009  1.4955  0.7418  0.3295
  151MOL0     H20325   3.004   6.119  -0.161  2.4759 -0.9097  0.1437
  151MOL0     H20326   3.116   6.304   0.047  1.4960  0.2723  1.2707
  151MOL0     H20327   3.205   6.151   0.006  0.2659  0.2663 -0.6877
  151MOL0     H20328   3.178   6.227  -0.236 -0.7976 -1.2937  1.7454
  151MOL0     H20329   3.103   6.377  -0.202  1.1823 -0.2282 -2.9879
  151MOL0     H20330   3.299   6.469  -0.108 -1.7421 -0.4202 -0.2626
  151MOL0     H20331   3.360   6.302  -0.060  1.3926 -1.8665 -0.9759
  151MOL0     H20332   3.330   6.345  -0.355  0.3845 -2.5771 -0.0254
  151MOL0     H20333   3.447   6.436  -0.281  1.7332 -2.1906 -0.5586
  151MOL0     H20334   3.563   6.229  -0.181  1.8896 -0.2280 -1.6657
  151MOL0     H20335   3.548   6.216  -0.355 -0.5157  0.2133  0.3129
  151MOL0     H20336   3.445   6.036  -0.047  0.6884 -0.7680 -0.1083
  151MOL0     H20337   3.340   5.689  -0.153  1.9919 -0.7943  1.5330
  151MOL0     H20338   3.394   5.782  -0.015  0.4122  0.5382  0.3087
  151MOL0     H20339   3.154   5.879   0.016 -1.1851  0.4412 -1.3533
  151MOL0     H20340   3.179   5.712   0.054  1.6164  0.4105  0.1911
  151MOL0     H20341   3.095   5.650  -0.186  1.9991 -0.5777  1.7515
  151MOL0     H20342   3.044   5.821  -0.206  1.1182 -0.3820 -0.6419
  151MOL0     H20343   2.893   5.822  -0.031  1.8756  0.4814  3.1908
  151MOL0     H20344   2.949   5.659   0.029  1.7578  1.7666  0.2873
  151MOL0     H20345   2.680   5.462  -0.226 -2.1511 -1.2237 -0.3635
  151MOL0     H20346   2.327   5.426  -0.238 -0.6140 -1.1908 -0.4929
  151MOL0     H20347   2.474   5.360  -0.301 -2.9093 -0.5820 -0.5238
  151MOL0     H20348   2.414   5.300  -0.144  2.6907 -2.5827 -3.0746
  151MOL0     H20349   2.215   5.710   0.339 -0.6309  2.7533 -0.4977
  151MOL0     H20350   2.004   5.669   0.476 -0.7158  0.7150 -0.2875
  151MOL0     H20351   1.783   5.545   0.541 -1.4319 -1.7126 -0.5136
  151MOL0     H20352   1.794   5.721   0.522  5.0022 -2.2599 -1.7556
  151MOL0     H20353   1.576   5.693   0.625 -5.0484 -1.8051 -0.1495
  151MOL0     H20354   1.552   5.747   0.458  1.8171 -0.6417 -2.1590
  151MOL0     H20355   1.535   5.514   0.386  0.2081 -2.1849 -0.1748
  151MOL0     H20356   1.399   5.577   0.483  1.5042  4.5594  1.3041
  151MOL0     H20357   1.465   5.335   0.535 -0.2665 -1.3083  2.3394
  151MOL0     H20358   1.603   5.402   0.616 -0.1355  0.4885  0.8230
  151MOL0     H20359   1.306   5.459   0.682  0.6662  1.3432 -2.4976
  151MOL0     H20360   1.441   5.542   0.766  1.1611  0.0423 -2.3808
  151MOL0     H20361   1.436   5.247   0.761 -1.2113  0.8841 -2.2159
  151MOL0     H20362   1.529   5.352   0.861 -0.6066 -1.4633 -0.0737
  151MOL0     H20363   1.223   5.359   0.884 -0.0889  1.2237 -0.0475
  151MOL0     H20364   1.347   5.450   0.970  0.4127  0.6866 -1.2478
  151MOL0     H20365   1.257   5.270   1.107 -0.2487 -0.6920 -0.4168
  151MOL0     H20366   1.417   5.213   1.050  0.1633  0.1001 -0.2729
  151MOL0     H20367   1.805   5.584   0.091  0.8917  0.5683 -1.3800
  151MOL0     H20368   2.038   5.559  -0.003  3.8258 -3.1570  1.3537
  151MOL0     H20369   2.466   5.753   0.109  0.1379  0.8467 -0.0102
  151MOL0     H20370   2.692   5.807   0.019  2.9736 -1.3965 -1.1799
  151MOL0     H20371   2.501   6.030  -0.077  4.7599  2.4206 -0.0803
  151MOL0     H20372   2.339   5.914   0.061  0.5302  0.5611 -1.8586
  151MOL0     H20373   2.268   5.823   0.650  0.5986 -0.0188 -1.2587
  151MOL0     H20374   2.094   5.768   0.794  2.3686  1.0146 -0.0731
  151MOL0     H20375   1.908   5.663   0.858  1.0754  1.5168  0.9378
  151MOL0     H20376   1.886   5.785   0.968 -0.5035 -1.7644  0.3921
  151MOL0     H20377   1.681   5.610   0.833  1.3266 -0.3576 -0.1809
  151MOL0     H20378   1.636   5.772   0.889  0.8718  0.8334  0.7161
  151MOL0     H20379   1.574   5.641   1.068  0.4587  0.0250  2.0135
  151MOL0     H20380   1.724   5.703   1.132  0.1002 -2.3041  1.0685
  151MOL0     H20381   1.844   5.513   1.056 -0.8137  3.5409 -1.0613
  151MOL0     H20382   1.704   5.443   0.977  0.9655  0.0748 -1.2110
  151MOL0     H20383   1.607   5.310   1.365 -0.9293  2.9816  2.1135
  151MOL0     H20384   1.817   5.985   0.543 -0.6444 -1.3106 -1.5940
  151MOL0     H20385   1.991   6.043   0.404  0.6856 -2.6636 -1.4011
  152MOL0     O20386   4.743   5.585   8.017 -0.3126 -0.2282  0.6106
  152MOL0     C20387   4.797   5.694   8.046  0.6870  0.8811 -0.3689
  152MOL0     O20388   4.930   5.720   8.035  0.1708  0.5883  0.3766
  152MOL0     C20389   5.009   5.637   7.954 -0.0942 -0.3132  0.0917
  152MOL0     C20390   5.073   5.694   7.838 -0.4350 -0.0978 -1.4245
  152MOL0     C20391   5.149   5.618   7.758 -0.4627  1.0732  1.3866
  152MOL0     C20392   5.152   5.476   7.777  0.4998  1.3212  0.0926
  152MOL0     O20393   5.225   5.400   7.679 -0.5442 -0.7171 -0.1316
  152MOL0     C20394   5.146   5.282   7.632  0.3425 -0.5413 -0.4060
  152MOL0     C20395   5.196   5.150   7.687 -0.3532 -0.3000  0.7678
  152MOL0     C20396   5.343   5.110   7.635  0.3709 -0.9156 -0.8058
  152MOL0     C20397   5.347   5.078   7.492 -1.0663  0.1140  1.2571
  152MOL0     C20398   5.500   5.038   7.458 -0.0719  0.1666  0.8560
  152MOL0     C20399   5.519   5.000   7.308 -0.8731  0.3408  0.5330
  152MOL0     C20400   5.671   4.988   7.279  0.1489  0.6473 -0.0543
  152MOL0     C20401   5.706   4.958   7.127 -0.3457  0.4446 -0.8956
  152MOL0     N20402   5.644   4.835   7.075 -0.0371  0.2158 -0.3415
  152MOL0     C20403   5.520   4.835   7.016 -0.1006 -1.0550 -0.1948
  152MOL0     C20404   5.501   4.705   6.978 -0.5692  0.1404  0.3356
  152MOL0     C20405   5.376   4.658   6.908  0.1523  0.4255  0.2166
  152MOL0     C20406   5.246   4.727   6.951  0.5120 -0.3552  0.2295
  152MOL0     C20407   5.220   4.691   7.105  0.4180  0.2704 -1.2031
  152MOL0     C20408   5.072   4.664   7.148 -0.3097  0.0659 -0.8928
  152MOL0     O20409   5.060   4.645   7.289 -0.2858 -0.0318 -0.1049
  152MOL0     C20410   4.938   4.668   7.345 -0.1443  0.4933  0.8380
  152MOL0     C20411   4.816   4.698   7.284  0.5341 -0.0384  0.2898
  152MOL0     C20412   4.692   4.705   7.361  0.1260 -0.7147 -0.0380
  152MOL0     C20413   4.563   4.712   7.287  0.4416  0.4769  0.4649
  152MOL0     C20414   4.702   4.702   7.506 -0.0722  0.4243 -0.3680
  152MOL0     C20415   4.585   4.729   7.594  0.3060  0.3357 -0.9288
  152MOL0     O20416   4.466   4.781   7.549 -0.1440  0.0205 -0.5743
  152MOL0     C20417   4.358   4.815   7.635  0.3707  0.1509 -0.4843
  152MOL0     C20418   4.218   4.792   7.597 -0.0892  0.8830 -0.5450
  152MOL0     C20419   4.108   4.823   7.690  0.7287  0.1901 -0.3540
  152MOL0     C20420   4.144   4.895   7.808 -0.0729  0.3527 -0.3901
  152MOL0     O20421   4.040   4.948   7.879 -0.4394  0.3975 -0.9428
  152MOL0     C20422   4.006   4.872   7.991 -0.3867 -0.3207 -0.6738
  152MOL0     C20423   3.869   4.898   8.039 -0.1711 -0.0127  0.3375
  152MOL0     C20424   3.764   4.842   7.932 -0.8247  0.3301 -0.4217
  152MOL0     C20425   3.645   4.811   8.025 -0.0370 -0.3161  0.0710
  152MOL0     C20426   3.534   4.754   7.942 -0.2869  0.4832 -0.3465
  152MOL0     C20427   3.394   4.790   8.004  0.5947  1.0049  0.0961
  152MOL0     C20428   3.274   4.739   7.919  0.3892 -1.5313  0.3857
  152MOL0     C20429   3.155   4.723   8.022  0.0332 -0.5951 -0.2986
  152MOL0    Cl20430   3.018   4.636   7.931  0.1416 -0.1464 -0.1203
  152MOL0     C20431   4.274   4.933   7.843 -0.7959  0.0504  0.0909
  152MOL0     C20432   4.382   4.889   7.756  0.6559  0.1364  0.2124
  152MOL0     O20433   4.607   4.701   7.711 -0.5235 -0.3877  0.1661
  152MOL0     C20434   4.828   4.689   7.561  0.4486  0.8685 -0.3743
  152MOL0     C20435   4.939   4.674   7.478  0.0558 -0.2589 -0.8257
  152MOL0     N20436   5.617   4.636   7.014 -0.2022 -0.3361 -0.0471
  152MOL0     N20437   5.698   4.713   7.076 -0.3710  0.2389  0.4718
  152MOL0     C20438   5.099   5.416   7.896  0.0419  0.4723  0.1488
  152MOL0     C20439   5.026   5.498   7.987 -0.4354  0.2848  0.4746
  152MOL0     C20440   4.720   5.807   8.111 -0.4102  1.0231 -0.0612
  152MOL0     C20441   4.799   5.891   8.188  0.1314 -0.2648  0.4700
  152MOL0     C20442   4.736   5.994   8.264 -0.4798  0.7017 -0.7329
  152MOL0     C20443   4.595   5.994   8.276 -0.0710  0.4932  0.6566
  152MOL0     O20444   4.513   6.078   8.345  0.0910  0.0821  0.1134
  152MOL0     C20445   4.575   6.126   8.462 -0.2880 -0.4317 -0.3957
  152MOL0     C20446   4.474   6.208   8.550 -0.0242 -0.3423  0.7553
  152MOL0     C20447   4.412   6.323   8.482  1.0193 -0.9527 -0.7166
  152MOL0     C20448   4.499   6.446   8.473 -0.8528 -0.8149  0.5827
  152MOL0     C20449   4.455   6.550   8.385  1.2229 -0.2616  0.2276
  152MOL0     C20450   4.434   6.635   8.301  0.9744 -0.0890  0.1849
  152MOL0     C20451   4.518   5.907   8.202 -0.3523  0.4966 -0.2287
  152MOL0     C20452   4.583   5.815   8.108  0.6522 -0.1661  0.3600
  152MOL0     H20453   5.051   5.796   7.811 -1.7114  0.1417  0.4014
  152MOL0     H20454   5.185   5.661   7.666 -1.2033 -0.1325  0.5001
  152MOL0     H20455   5.040   5.302   7.651  0.0310  0.0059 -2.4489
  152MOL0     H20456   5.146   5.272   7.523 -0.8206 -0.9544 -0.3837
  152MOL0     H20457   5.197   5.157   7.796  0.6295 -1.2631  0.8389
  152MOL0     H20458   5.126   5.068   7.669 -1.3450  0.3970  1.3711
  152MOL0     H20459   5.413   5.190   7.658 -0.4719 -0.4032  0.0508
  152MOL0     H20460   5.354   5.022   7.699 -3.5890  0.3879  2.0435
  152MOL0     H20461   5.280   4.995   7.465 -2.2155  2.0346 -2.4959
  152MOL0     H20462   5.312   5.165   7.437 -3.5022 -2.7242 -2.1529
  152MOL0     H20463   5.565   5.125   7.473  1.7118 -0.8073 -0.8501
  152MOL0     H20464   5.536   4.960   7.526 -0.5472 -0.9673 -0.1701
  152MOL0     H20465   5.468   4.911   7.270 -1.1750  0.8547 -0.2922
  152MOL0     H20466   5.489   5.082   7.242 -0.1005  0.5711  0.4569
  152MOL0     H20467   5.715   5.087   7.293  0.7463  0.2955  0.6136
  152MOL0     H20468   5.728   4.927   7.350  3.3558  4.5754  1.1075
  152MOL0     H20469   5.814   4.962   7.110 -0.2350 -1.2715 -0.7552
  152MOL0     H20470   5.658   5.036   7.067 -0.5121  0.5790 -0.5935
  152MOL0     H20471   5.449   4.916   7.013  0.2333 -0.7603 -0.2309
  152MOL0     H20472   5.382   4.660   6.799  1.0254 -1.3580  0.1867
  152MOL0     H20473   5.363   4.552   6.930  1.5608  0.3846  0.9894
  152MOL0     H20474   5.167   4.682   6.891  0.9698  3.0651 -3.3161
  152MOL0     H20475   5.247   4.836   6.942  1.2886 -0.2510  1.2983
  152MOL0     H20476   5.247   4.779   7.164  0.6765  0.1276 -1.1070
  152MOL0     H20477   5.284   4.609   7.138 -0.0378  0.6892  0.8748
  152MOL0     H20478   5.037   4.568   7.108  0.5296 -1.1002  1.0151
  152MOL0     H20479   5.018   4.753   7.114  0.3084  1.2234  1.0045
  152MOL0     H20480   4.804   4.717   7.178  0.9496  2.0483  0.5671
  152MOL0     H20481   4.512   4.806   7.310 -0.2229  0.8454 -2.1354
  152MOL0     H20482   4.591   4.712   7.181  0.8215  2.5758  0.5353
  152MOL0     H20483   4.503   4.622   7.309  3.1432 -1.2039  1.4403
  152MOL0     H20484   4.212   4.738   7.503 -0.9176  0.7916 -0.4427
  152MOL0     H20485   4.007   4.791   7.667  0.9406 -0.3981 -0.4793
  152MOL0     H20486   4.013   4.764   7.977 -1.2619 -0.1668 -2.4796
  152MOL0     H20487   4.084   4.892   8.066 -2.8163  2.8171  1.2555
  152MOL0     H20488   3.862   4.851   8.137 -0.8045 -1.1120 -0.2069
  152MOL0     H20489   3.852   5.005   8.052 -4.7198 -0.4154 -0.5440
  152MOL0     H20490   3.800   4.753   7.879  3.4759  1.6395 -0.0537
  152MOL0     H20491   3.748   4.921   7.858  3.2955  0.4606 -1.3805
  152MOL0     H20492   3.679   4.730   8.090  1.2273 -1.7855 -2.2724
  152MOL0     H20493   3.613   4.904   8.072 -1.8884  0.5220 -2.6373
  152MOL0     H20494   3.548   4.646   7.933  1.7400  0.7749 -1.2237
  152MOL0     H20495   3.536   4.791   7.839  0.1171  1.3812 -0.0297
  152MOL0     H20496   3.400   4.747   8.104  2.5462  1.7638  0.3543
  152MOL0     H20497   3.382   4.898   8.020  0.5875  1.1712 -0.9438
  152MOL0     H20498   3.293   4.649   7.860 -0.3629 -1.4104 -0.0485
  152MOL0     H20499   3.244   4.817   7.849 -1.9032 -2.0059  0.7722
  152MOL0     H20500   3.128   4.824   8.055  0.2315  0.1805 -2.3883
  152MOL0     H20501   3.188   4.671   8.112  4.1664 -0.3976 -1.5276
  152MOL0     H20502   4.302   4.984   7.935  1.0685  0.1599 -0.4918
  152MOL0     H20503   4.485   4.910   7.783  1.4475 -0.4765 -2.0446
  152MOL0     H20504   4.833   4.705   7.668 -2.9766  0.7447 -0.0935
  152MOL0     H20505   5.034   4.661   7.528  1.2356  1.8293 -2.3675
  152MOL0     H20506   5.103   5.309   7.915 -1.0436  0.6659  1.6509
  152MOL0     H20507   4.982   5.458   8.078  2.0833  0.5997  1.9214
  152MOL0     H20508   4.906   5.875   8.186 -0.0122 -1.6341 -3.0128
  152MOL0     H20509   4.784   6.070   8.326  2.3718 -0.3888 -1.4721
  152MOL0     H20510   4.622   6.056   8.531  0.0035  1.3995  1.3810
  152MOL0     H20511   4.662   6.188   8.437 -0.5344  0.4088  0.7230
  152MOL0     H20512   4.535   6.246   8.633  0.3435 -1.4297  0.9870
  152MOL0     H20513   4.398   6.134   8.572  0.3541 -0.7122  0.8200
  152MOL0     H20514   4.331   6.355   8.548  1.8784 -1.0001  0.3948
  152MOL0     H20515   4.373   6.301   8.383  0.2293 -2.4692 -0.0969
  152MOL0     H20516   4.596   6.409   8.437 -1.2084 -1.1664 -0.0270
  152MOL0     H20517   4.528   6.494   8.567  1.5944 -1.4694  0.2391
  152MOL0     H20518   4.416   6.705   8.222  0.8643 -0.9368 -0.5603
  152MOL0     H20519   4.413   5.898   8.227  0.5869 -0.9004  4.0443
  152MOL0     H20520   4.527   5.748   8.045 -0.8434  3.9034 -3.1144
  153MOL0     O20521  10.158   2.190  10.008 -0.2930  0.7385  0.5384
  153MOL0     C20522  10.258   2.185  10.079  0.6932  0.5819  0.4270
  153MOL0     O20523  10.259   2.202  10.217 -0.0009 -0.1744  0.0055
  153MOL0     C20524  10.142   2.241  10.286  0.7675  0.3839  0.0840
  153MOL0     C20525  10.003   2.228  10.254 -0.2961  0.1316 -0.4587
  153MOL0     C20526   9.897   2.266  10.333 -0.0736  0.0364  0.1574
  153MOL0     C20527   9.922   2.348  10.441 -0.5396  0.2191 -0.3090
  153MOL0     O20528   9.814   2.393  10.514 -0.6525  0.0237  0.3275
  153MOL0     C20529   9.677   2.334  10.508  0.4297 -1.1659  0.0089
  153MOL0     C20530   9.581   2.451  10.561 -0.3778  0.3819 -0.2624
  153MOL0     C20531   9.620   2.484  10.707  0.7248  0.2745  1.0393
  153MOL0     C20532   9.545   2.603  10.775  0.0094 -0.6305 -0.2935
  153MOL0     C20533   9.399   2.558  10.793 -0.0664 -0.0196 -0.0166
  153MOL0     C20534   9.301   2.681  10.778 -0.1201 -0.0036  0.1045
  153MOL0     C20535   9.314   2.791  10.881 -1.2493 -0.3043 -0.5541
  153MOL0     C20536   9.290   2.733  11.025  0.6554  0.9319  0.1095
  153MOL0     N20537   9.286   2.835  11.132  0.3274 -0.6078  0.4094
  153MOL0     C20538   9.372   2.926  11.182 -0.7054 -0.4630 -0.6306
  153MOL0     C20539   9.321   2.963  11.305  0.3664 -0.1257 -0.6246
  153MOL0     C20540   9.385   3.061  11.399 -0.3459  0.1798 -0.4030
  153MOL0     C20541   9.428   2.999  11.528 -0.8314 -0.7523 -0.3174
  153MOL0     C20542   9.325   2.932  11.618 -0.1729 -0.2177 -0.0627
  153MOL0     C20543   9.385   2.844  11.722  0.2803  0.0031 -1.0470
  153MOL0     O20544   9.304   2.744  11.777  0.0528 -0.0505  0.6643
  153MOL0     C20545   9.189   2.788  11.845 -0.4016  1.2989 -0.9086
  153MOL0     C20546   9.171   2.903  11.912 -0.2804  0.6802 -0.7711
  153MOL0     C20547   9.049   2.929  11.984  0.4228  0.1150 -0.0527
  153MOL0     C20548   9.032   3.061  12.050  0.1970  0.4725  0.5091
  153MOL0     C20549   8.937   2.830  11.968 -0.3667 -0.2287 -0.1022
  153MOL0     C20550   8.813   2.842  12.051 -0.7512  0.0991  0.9420
  153MOL0     O20551   8.690   2.816  11.982 -0.1463 -0.1659  0.3842
  153MOL0     C20552   8.578   2.839  12.042  0.8253 -0.6740  0.2250
  153MOL0     C20553   8.553   2.942  12.140  0.8146  0.4730  0.9953
  153MOL0     C20554   8.433   2.963  12.195  0.3020  0.4860  0.0446
  153MOL0     C20555   8.329   2.865  12.169 -0.6629  0.2635 -0.2717
  153MOL0     O20556   8.212   2.885  12.229 -0.7859 -0.3279 -0.0109
  153MOL0     C20557   8.091   2.845  12.162  0.2239 -0.0273  0.3088
  153MOL0     C20558   7.974   2.904  12.238 -0.4076  0.8479 -0.0364
  153MOL0     C20559   7.946   2.846  12.375 -0.9013  0.0800 -0.5032
  153MOL0     C20560   7.891   2.706  12.379  0.3767 -1.0974  0.7222
  153MOL0     C20561   7.812   2.708  12.509 -0.2667  0.9196 -0.2426
  153MOL0     C20562   7.773   2.565  12.558 -0.6317 -0.2546 -0.0846
  153MOL0     C20563   7.776   2.537  12.704  0.6066 -0.4408  0.5832
  153MOL0     C20564   7.682   2.620  12.773 -0.4296 -0.4425 -0.3058
  153MOL0    Cl20565   7.510   2.584  12.733  0.2306 -0.2967 -0.2790
  153MOL0     C20566   8.350   2.768  12.082  0.0100  0.7660  0.1138
  153MOL0     C20567   8.466   2.757  12.007 -0.3323  1.2467  0.6894
  153MOL0     O20568   8.833   2.878  12.167  0.0547  0.7170  0.2575
  153MOL0     C20569   8.963   2.712  11.901 -0.3956 -0.3515 -0.3114
  153MOL0     C20570   9.090   2.692  11.845  0.3954 -0.0802 -1.0378
  153MOL0     N20571   9.197   2.906  11.314 -0.5822 -0.0603  1.1221
  153MOL0     N20572   9.179   2.830  11.217  0.0478  1.1540 -0.1856
  153MOL0     C20573  10.060   2.363  10.479  0.5400 -0.0456  0.0479
  153MOL0     C20574  10.165   2.308  10.406  0.8809  0.5089  0.6838
  153MOL0     C20575  10.387   2.157  10.022  0.7596  0.1857 -0.4969
  153MOL0     C20576  10.493   2.108  10.100 -0.2935 -0.4765  0.4785
  153MOL0     C20577  10.621   2.100  10.048 -0.8922 -0.1968 -0.2713
  153MOL0     C20578  10.647   2.132   9.916 -0.4980 -0.2151  0.4357
  153MOL0     O20579  10.780   2.113   9.885  0.3434 -0.4532  0.5001
  153MOL0     C20580  10.827   2.155   9.760  0.1337 -0.6926 -0.2584
  153MOL0     C20581  10.976   2.106   9.744 -0.4660  0.0028 -0.5170
  153MOL0     C20582  11.037   2.117   9.606 -0.4341  0.1462  0.2323
  153MOL0     C20583  11.164   2.046   9.577  0.2725 -0.5035 -0.3343
  153MOL0     C20584  11.277   2.082   9.658  0.2535 -0.7616 -0.1018
  153MOL0     C20585  11.360   2.109   9.743  0.8542  0.3043  0.7501
  153MOL0     C20586  10.545   2.193   9.839 -0.5887 -0.2497 -0.7829
  153MOL0     C20587  10.415   2.204   9.891  0.2349  0.0646  0.4190
  153MOL0     H20588   9.976   2.164  10.170  0.6830  2.1836 -2.4304
  153MOL0     H20589   9.799   2.238  10.297  0.3582 -1.3963  0.0434
  153MOL0     H20590   9.640   2.309  10.408 -4.6911  0.0960  1.2824
  153MOL0     H20591   9.679   2.248  10.574  1.8306  0.9664  2.9824
  153MOL0     H20592   9.577   2.539  10.496 -0.4192 -0.9834 -2.2134
  153MOL0     H20593   9.477   2.415  10.560 -0.6935  1.2786 -0.4741
  153MOL0     H20594   9.602   2.391  10.762 -0.8940  0.8594  1.5374
  153MOL0     H20595   9.728   2.497  10.720  1.2576 -0.3237 -2.0113
  153MOL0     H20596   9.584   2.622  10.876  0.4715 -0.3358 -0.5261
  153MOL0     H20597   9.553   2.694  10.715  0.5284 -1.6872 -1.8667
  153MOL0     H20598   9.375   2.493  10.708  0.4428  0.3690 -0.4641
  153MOL0     H20599   9.387   2.504  10.887 -1.0009 -2.0414 -1.2212
  153MOL0     H20600   9.315   2.715  10.675 -2.7253 -1.5616 -0.8791
  153MOL0     H20601   9.198   2.646  10.790  0.3002 -1.2558  0.2609
  153MOL0     H20602   9.410   2.842  10.867 -2.1092  1.3728 -0.6043
  153MOL0     H20603   9.239   2.868  10.863 -0.8093  0.2699  0.0279
  153MOL0     H20604   9.376   2.670  11.050  0.2063  1.1811  2.4557
  153MOL0     H20605   9.201   2.671  11.032  1.1893  0.3709  2.8836
  153MOL0     H20606   9.471   2.944  11.142 -1.0404 -0.3172 -1.4098
  153MOL0     H20607   9.470   3.119  11.364  0.5432  0.2161  1.6682
  153MOL0     H20608   9.307   3.134  11.425 -1.4300 -1.5518  1.6436
  153MOL0     H20609   9.483   3.073  11.587  3.7073 -3.1582 -1.1009
  153MOL0     H20610   9.501   2.926  11.493  1.8859  2.3363 -1.7043
  153MOL0     H20611   9.258   2.870  11.557  1.4005  0.8951 -3.1144
  153MOL0     H20612   9.257   3.004  11.666  1.9004 -0.0550  2.8907
  153MOL0     H20613   9.418   2.912  11.801 -1.0498 -1.3027  0.7357
  153MOL0     H20614   9.466   2.782  11.683  0.2037 -0.7658 -0.0378
  153MOL0     H20615   9.256   2.972  11.910 -0.4873  0.9227 -2.3423
  153MOL0     H20616   8.933   3.103  12.033 -0.3309 -0.9150  0.0258
  153MOL0     H20617   9.031   3.061  12.159 -1.3116  0.5527  0.5127
  153MOL0     H20618   9.108   3.136  12.026 -1.0495  1.4757 -0.4106
  153MOL0     H20619   8.633   3.007  12.173 -1.1082  2.5814  1.7929
  153MOL0     H20620   8.414   3.047  12.260  1.1110  2.8612 -2.5754
  153MOL0     H20621   8.079   2.884  12.060  1.8356  0.0351  0.1180
  153MOL0     H20622   8.090   2.736  12.158  3.2928 -0.2136  1.7416
  153MOL0     H20623   7.985   3.013  12.249 -0.0300  0.9424 -1.2571
  153MOL0     H20624   7.887   2.895  12.173 -0.3253  0.3724 -0.0841
  153MOL0     H20625   7.885   2.921  12.427  0.2865  2.8045 -2.7262
  153MOL0     H20626   8.045   2.844  12.423 -1.6055 -3.4718  1.1303
  153MOL0     H20627   7.830   2.689  12.290  2.9416  1.9487 -1.8994
  153MOL0     H20628   7.967   2.627  12.386  0.9214 -0.5102  1.7083
  153MOL0     H20629   7.717   2.762  12.497  0.3071  2.2637  0.9108
  153MOL0     H20630   7.875   2.750  12.588  1.4480  2.0232 -2.1162
  153MOL0     H20631   7.666   2.556  12.536 -1.2096 -2.0048  2.9032
  153MOL0     H20632   7.836   2.491  12.508 -0.4231  1.4067 -2.4416
  153MOL0     H20633   7.876   2.563  12.741 -0.4351  3.3665  1.1695
  153MOL0     H20634   7.760   2.430  12.719  0.1241 -0.8430 -2.1553
  153MOL0     H20635   7.697   2.727  12.758 -4.3753  1.0243  3.9408
  153MOL0     H20636   7.692   2.608  12.881 -1.1819  1.3043 -0.0116
  153MOL0     H20637   8.286   2.680  12.081  0.5556  0.3682  0.2035
  153MOL0     H20638   8.465   2.686  11.924  0.6510  0.4792  1.3041
  153MOL0     H20639   8.891   2.631  11.890 -1.6358  0.6698  0.1165
  153MOL0     H20640   9.101   2.601  11.787 -3.1280 -2.0213  0.9949
  153MOL0     H20641  10.079   2.410  10.575  0.2330  2.0495 -0.8811
  153MOL0     H20642  10.267   2.315  10.442  1.4500  0.4685 -0.8770
  153MOL0     H20643  10.485   2.079  10.205 -0.2166  2.3949  1.3843
  153MOL0     H20644  10.700   2.059  10.109 -1.2603 -0.6701 -0.1023
  153MOL0     H20645  10.762   2.118   9.681 -1.6592  1.9610 -0.1492
  153MOL0     H20646  10.824   2.264   9.763  0.2539 -0.7005  1.3946
  153MOL0     H20647  10.983   2.002   9.778 -0.0734  1.2469  3.6957
  153MOL0     H20648  11.039   2.165   9.811 -1.9256 -0.4351  1.3187
  153MOL0     H20649  11.052   2.226   9.604 -1.0037  0.2403  0.5377
  153MOL0     H20650  10.973   2.089   9.522 -1.0646 -0.9802  1.0636
  153MOL0     H20651  11.187   2.055   9.471  3.9023 -0.3831  0.3142
  153MOL0     H20652  11.146   1.943   9.608 -1.5509 -0.2070 -0.2856
  153MOL0     H20653  11.429   2.142   9.818 -0.4019  0.9164  1.6632
  153MOL0     H20654  10.578   2.216   9.738 -1.0948  0.1164 -0.8696
  153MOL0     H20655  10.341   2.239   9.820  2.1003  1.1212 -1.0773
  154MOL0     O20656   1.129   8.267  10.450  0.4877 -0.3085  0.0967
  154MOL0     C20657   1.034   8.219  10.387 -0.1106 -0.9607  0.1786
  154MOL0     O20658   0.956   8.296  10.308  0.6582  0.3804  0.0343
  154MOL0     C20659   0.979   8.431  10.282 -0.5447 -1.0010  0.3388
  154MOL0     C20660   1.031   8.521  10.384  0.0109 -0.3043 -0.0609
  154MOL0     C20661   1.062   8.657  10.354  0.1234 -0.3334  0.0381
  154MOL0     C20662   1.030   8.714  10.237 -0.8560 -0.5277 -0.7042
  154MOL0     O20663   1.079   8.842  10.227 -0.4912 -0.1518 -0.2005
  154MOL0     C20664   1.044   8.926  10.115  0.8294  0.0725 -0.4682
  154MOL0     C20665   1.005   9.060  10.176  0.9538  0.1766  0.1271
  154MOL0     C20666   0.857   9.068  10.215 -0.9962  0.2136  0.5301
  154MOL0     C20667   0.830   9.209  10.287 -0.0435 -0.0087  0.2742
  154MOL0     C20668   0.805   9.329  10.203  0.7061 -1.2010 -0.1059
  154MOL0     C20669   0.729   9.448  10.274 -0.5567 -0.3731  0.3042
  154MOL0     C20670   0.606   9.418  10.356 -0.1980  0.0269  0.0505
  154MOL0     C20671   0.491   9.361  10.257  0.6813 -0.6716 -0.7347
  154MOL0     N20672   0.430   9.458  10.164 -0.2777 -0.0018 -0.2761
  154MOL0     C20673   0.396   9.443  10.033 -0.4704  0.4683  0.7602
  154MOL0     C20674   0.354   9.566  10.003 -0.6922 -1.3656  0.3821
  154MOL0     C20675   0.305   9.606   9.869 -0.2343 -0.1510 -0.9010
  154MOL0     C20676   0.165   9.659   9.859  0.6458  0.8427 -0.0733
  154MOL0     C20677   0.155   9.804   9.899 -0.3314 -0.1960 -0.3656
  154MOL0     C20678   0.026   9.828   9.981  0.2768  0.1776  0.1309
  154MOL0     O20679   0.001   9.971  10.002  0.3550  0.4561 -0.4498
  154MOL0     C20680   0.038  10.004  10.129 -0.0847 -0.4105 -0.1618
  154MOL0     C20681   0.164   9.972  10.200 -0.5095  0.6216  0.3050
  154MOL0     C20682   0.195  10.032  10.325 -0.3110 -0.1830  0.8057
  154MOL0     C20683   0.324   9.993  10.398 -0.3021 -0.2840 -0.9689
  154MOL0     C20684   0.089  10.111  10.387 -0.4452  0.2640 -0.0199
  154MOL0     C20685   0.090  10.159  10.529 -0.6724 -0.1180 -0.1581
  154MOL0     O20686   0.215  10.177  10.588 -0.5028 -0.8419 -0.2165
  154MOL0     C20687   0.221  10.268  10.688 -0.5142 -0.1230 -0.0158
  154MOL0     C20688   0.302  10.233  10.801  0.9201 -1.0145 -0.2447
  154MOL0     C20689   0.342  10.335  10.896  0.7800 -0.4271  0.3359
  154MOL0     C20690   0.289  10.462  10.883  0.5244  0.9362 -0.2911
  154MOL0     O20691   0.320  10.563  10.977 -0.4876  0.5754  0.0819
  154MOL0     C20692   0.399  10.546  11.096  1.1809  0.0021  0.3550
  154MOL0     C20693   0.419  10.674  11.190 -0.0768 -0.9695  0.2271
  154MOL0     C20694   0.549  10.655  11.274  0.4826 -0.0636  0.0856
  154MOL0     C20695   0.552  10.777  11.374  0.3956  0.2738  0.2609
  154MOL0     C20696   0.692  10.794  11.434 -0.4248  1.1414  0.8058
  154MOL0     C20697   0.712  10.926  11.509 -0.8669 -0.1447 -0.4932
  154MOL0     C20698   0.841  10.931  11.590  0.0221 -0.6041 -0.9918
  154MOL0     C20699   0.965  10.922  11.506  0.4344 -0.2750 -0.3072
  154MOL0    Cl20700   1.095  10.935  11.630  0.1178 -0.1058 -0.2664
  154MOL0     C20701   0.220  10.496  10.764 -0.5669  0.2515 -0.5635
  154MOL0     C20702   0.196  10.402  10.664 -0.1824 -0.3182 -1.0918
  154MOL0     O20703  -0.018  10.151  10.593 -0.2186  0.0219  0.6583
  154MOL0     C20704  -0.029  10.128  10.323  0.6628  1.3254 -0.4252
  154MOL0     C20705  -0.061  10.075  10.198 -0.0091 -0.2970 -0.5540
  154MOL0     N20706   0.356   9.656  10.117 -0.4129 -0.3883 -0.2714
  154MOL0     N20707   0.417   9.585  10.210  0.3486 -0.1066 -0.4354
  154MOL0     C20708   0.979   8.626  10.135  0.0327 -0.2274 -0.7645
  154MOL0     C20709   0.967   8.490  10.157  0.7714 -0.2361  0.7582
  154MOL0     C20710   0.995   8.081  10.407 -0.7669  0.3376 -0.1807
  154MOL0     C20711   0.865   8.044  10.360 -0.3994  0.0574  1.2160
  154MOL0     C20712   0.825   7.909  10.360 -0.6471  0.4232 -0.1484
  154MOL0     C20713   0.914   7.815  10.422 -0.3394  0.1897  0.6337
  154MOL0     O20714   0.883   7.681  10.435 -0.3566  0.5480 -0.7060
  154MOL0     C20715   0.762   7.615  10.394 -0.2926 -0.4030  0.3318
  154MOL0     C20716   0.779   7.479  10.452  0.0485  0.4440  0.1267
  154MOL0     C20717   0.776   7.470  10.607 -0.1384  0.7008 -0.3726
  154MOL0     C20718   0.791   7.327  10.665 -0.3546 -0.4478  0.7232
  154MOL0     C20719   0.923   7.274  10.616 -0.0699 -0.2844 -1.0791
  154MOL0     C20720   1.041   7.243  10.575  0.1209 -1.0593 -0.3532
  154MOL0     C20721   1.040   7.854  10.468  1.2145  0.5936 -0.4676
  154MOL0     C20722   1.084   7.980  10.454  0.1378  0.1372  0.3797
  154MOL0     H20723   1.039   8.486  10.486 -0.8540  1.5991  0.7135
  154MOL0     H20724   1.093   8.720  10.436 -0.9227 -1.0062  0.9697
  154MOL0     H20725   1.130   8.952  10.052  0.8192 -2.8527 -1.8849
  154MOL0     H20726   0.968   8.904  10.039 -0.3057  2.3731 -0.1018
  154MOL0     H20727   1.061   9.080  10.268  1.9513  3.1708 -1.0025
  154MOL0     H20728   1.037   9.142  10.111 -1.2099  2.6588  1.9278
  154MOL0     H20729   0.799   9.062  10.122  0.0227  0.9291 -0.1821
  154MOL0     H20730   0.820   8.985  10.275 -1.4802  0.4211  0.5235
  154MOL0     H20731   0.743   9.183  10.348 -0.2376 -1.9022 -0.7130
  154MOL0     H20732   0.911   9.223  10.358  2.3999 -3.0471 -1.6207
  154MOL0     H20733   0.898   9.356  10.153 -0.7856  0.2938 -2.2443
  154MOL0     H20734   0.748   9.306  10.112 -0.3391  5.9624 -1.8409
  154MOL0     H20735   0.800   9.479  10.351 -2.4243 -1.6551  2.6872
  154MOL0     H20736   0.712   9.530  10.204  0.1088  0.1712  0.7646
  154MOL0     H20737   0.632   9.344  10.432  1.6792  0.6550  0.0686
  154MOL0     H20738   0.570   9.513  10.399 -0.9500 -0.3800  0.3473
  154MOL0     H20739   0.413   9.309  10.314  1.2698 -1.3142 -0.5154
  154MOL0     H20740   0.530   9.286  10.187  0.0892 -0.2839 -1.5075
  154MOL0     H20741   0.411   9.362   9.962 -1.3581  0.0201  1.0667
  154MOL0     H20742   0.367   9.686   9.826 -1.6534 -0.3922 -3.5848
  154MOL0     H20743   0.313   9.521   9.800  1.5716  0.2273 -1.2221
  154MOL0     H20744   0.113   9.587   9.923  1.3297  0.6199  0.2427
  154MOL0     H20745   0.147   9.643   9.752  1.4240  2.5425 -0.4981
  154MOL0     H20746   0.151   9.873   9.814  1.0582 -0.1627 -0.4238
  154MOL0     H20747   0.243   9.835   9.956 -0.2989  0.2845 -0.6677
  154MOL0     H20748   0.036   9.783  10.080 -2.0920  0.2107  0.4429
  154MOL0     H20749  -0.059   9.791   9.923  0.2071  0.9217 -0.2594
  154MOL0     H20750   0.220   9.889  10.157 -0.7473  1.3654 -1.5455
  154MOL0     H20751   0.297   9.937  10.488 -0.8877  0.7031 -0.5179
  154MOL0     H20752   0.395   9.932  10.341  1.1718 -2.6765  3.0142
  154MOL0     H20753   0.374  10.085  10.431  0.9971 -1.2503 -0.1677
  154MOL0     H20754   0.334  10.130  10.804 -1.1684 -1.7836 -1.8712
  154MOL0     H20755   0.411  10.314  10.977 -0.6203 -1.4364  1.3080
  154MOL0     H20756   0.352  10.466  11.154 -0.2655  0.1177 -0.6034
  154MOL0     H20757   0.497  10.511  11.062  1.1335 -0.7605  0.9833
  154MOL0     H20758   0.439  10.760  11.126  5.0142 -1.0695  1.2027
  154MOL0     H20759   0.326  10.689  11.245 -1.7148 -2.8327 -1.8761
  154MOL0     H20760   0.641  10.662  11.216  1.5770  0.5282  1.8239
  154MOL0     H20761   0.553  10.562  11.332  0.1127  0.7662  1.4817
  154MOL0     H20762   0.533  10.875  11.331  0.9025  0.8288  1.2494
  154MOL0     H20763   0.473  10.765  11.449 -2.0906  4.1739 -1.4236
  154MOL0     H20764   0.763  10.795  11.351 -0.1210 -1.1162  0.9842
  154MOL0     H20765   0.727  10.703  11.484 -1.4289 -0.2188 -0.8731
  154MOL0     H20766   0.705  11.013  11.443 -0.8799 -0.0907 -0.4222
  154MOL0     H20767   0.622  10.944  11.568 -2.6548 -1.3679 -2.6854
  154MOL0     H20768   0.837  10.853  11.667  3.8383  5.0384  6.2252
  154MOL0     H20769   0.841  11.031  11.634 -3.6824  0.2685 -2.6196
  154MOL0     H20770   0.965  10.990  11.421 -2.0772  0.4006  0.1612
  154MOL0     H20771   0.986  10.821  11.471 -2.7733 -1.5319  0.9805
  154MOL0     H20772   0.184  10.598  10.756 -1.3789  0.0309  0.1615
  154MOL0     H20773   0.155  10.430  10.567  0.3986  2.0504 -0.7204
  154MOL0     H20774  -0.103  10.191  10.370 -1.8597 -1.9176  0.2812
  154MOL0     H20775  -0.160  10.073  10.154 -0.7064 -2.3052  0.9436
  154MOL0     H20776   0.950   8.673  10.042  0.3401 -1.4447 -1.5076
  154MOL0     H20777   0.911   8.424  10.091  0.5185  0.5182  0.2092
  154MOL0     H20778   0.799   8.117  10.315 -2.9148 -2.1740  1.0051
  154MOL0     H20779   0.729   7.887  10.314 -0.4550 -0.8915  0.0564
  154MOL0     H20780   0.668   7.663  10.423  0.4407  1.3291 -0.0255
  154MOL0     H20781   0.758   7.622  10.285  0.0638  0.6282  0.3778
  154MOL0     H20782   0.867   7.437  10.403  1.3010  3.0173 -0.0254
  154MOL0     H20783   0.693   7.424  10.414 -2.6345  4.0166  0.5087
  154MOL0     H20784   0.671   7.487  10.634 -1.1205 -4.7362  0.3754
  154MOL0     H20785   0.838   7.544  10.658 -1.5587  1.6058  0.1108
  154MOL0     H20786   0.710   7.266  10.623  0.7543  0.1813 -2.5631
  154MOL0     H20787   0.779   7.326  10.774 -2.6702 -2.4005  0.5670
  154MOL0     H20788   1.140   7.225  10.541  0.8774 -1.0404  1.7073
  154MOL0     H20789   1.105   7.779  10.512  0.2198  0.5063  0.9242
  154MOL0     H20790   1.187   8.001  10.483  0.6020  0.4252 -1.3728
  155MOL0     O20791   5.399   8.705   3.937 -0.4664  0.3750  0.6423
  155MOL0     C20792   5.404   8.809   3.880 -0.8044 -0.4227  0.5050
  155MOL0     O20793   5.304   8.893   3.878  0.6110  0.2083 -0.2691
  155MOL0     C20794   5.186   8.843   3.945 -0.3508 -0.4469 -0.8524
  155MOL0     C20795   5.137   8.906   4.062 -0.0101 -0.3342 -0.1592
  155MOL0     C20796   5.010   8.878   4.114  0.0469 -0.6088 -0.4173
  155MOL0     C20797   4.947   8.768   4.067  0.5562 -1.4597 -0.2394
  155MOL0     O20798   4.837   8.727   4.138 -0.2506  1.0637 -0.3480
  155MOL0     C20799   4.804   8.589   4.127  0.4578 -0.6323 -0.1354
  155MOL0     C20800   4.675   8.570   4.201  1.1158 -0.6557  0.6702
  155MOL0     C20801   4.547   8.620   4.136  0.5606 -0.1148 -0.2700
  155MOL0     C20802   4.436   8.515   4.162  0.2413 -0.2955  0.1159
  155MOL0     C20803   4.309   8.553   4.078 -1.0648 -0.8570 -0.0513
  155MOL0     C20804   4.207   8.441   4.064  0.3140 -0.0936 -1.0405
  155MOL0     C20805   4.065   8.496   4.055  0.3098  0.4726 -0.3028
  155MOL0     C20806   3.957   8.387   4.091 -0.6474  0.5792  0.1176
  155MOL0     N20807   3.820   8.445   4.091 -0.1852 -0.4305  0.0377
  155MOL0     C20808   3.781   8.564   4.037  0.0034 -0.1692 -0.4027
  155MOL0     C20809   3.646   8.570   4.033 -0.0288  0.9331 -1.1045
  155MOL0     C20810   3.573   8.691   3.990 -0.5413  0.0288  0.2573
  155MOL0     C20811   3.486   8.657   3.870 -0.2463  0.7443  0.4563
  155MOL0     C20812   3.386   8.766   3.847 -0.4306 -0.5102  0.5273
  155MOL0     C20813   3.285   8.741   3.734 -0.1828  0.2587 -0.1660
  155MOL0     O20814   3.209   8.618   3.751  0.5130 -0.3836  0.3321
  155MOL0     C20815   3.115   8.615   3.854 -0.0620  0.3151 -0.9294
  155MOL0     C20816   3.048   8.503   3.873 -0.2131  0.5802 -0.5442
  155MOL0     C20817   2.937   8.489   3.969 -0.8507 -0.6558  1.0697
  155MOL0     C20818   2.859   8.365   3.973 -0.1995 -0.0818  0.4440
  155MOL0     C20819   2.891   8.604   4.035  0.5154 -0.4067 -0.2785
  155MOL0     C20820   2.770   8.611   4.114 -0.5219 -0.7079 -0.2359
  155MOL0     O20821   2.650   8.616   4.052 -0.3346  0.0881 -0.2671
  155MOL0     C20822   2.539   8.635   4.128  0.5797  0.1962 -1.0830
  155MOL0     C20823   2.494   8.545   4.226 -0.4323  0.1502  0.2502
  155MOL0     C20824   2.380   8.580   4.293 -0.5181 -0.2560  0.4236
  155MOL0     C20825   2.304   8.688   4.256 -0.2077 -0.4919 -0.2816
  155MOL0     O20826   2.179   8.709   4.312 -0.8863  0.4930  0.0424
  155MOL0     C20827   2.176   8.676   4.450  0.5640  0.3361 -0.2685
  155MOL0     C20828   2.072   8.737   4.532  0.0151 -1.0037 -0.0875
  155MOL0     C20829   1.923   8.725   4.487  0.0021 -0.6745 -0.2487
  155MOL0     C20830   1.820   8.801   4.578 -0.1623 -0.9041  0.1478
  155MOL0     C20831   1.674   8.785   4.526  0.2147 -0.1633  1.3583
  155MOL0     C20832   1.576   8.894   4.586 -0.3369  0.2340 -0.2031
  155MOL0     C20833   1.434   8.867   4.523 -0.2429  0.1220  0.3020
  155MOL0     C20834   1.332   8.928   4.614 -0.2951  0.8445 -0.3764
  155MOL0    Cl20835   1.355   9.094   4.614  0.1816  0.0955 -0.1117
  155MOL0     C20836   2.358   8.786   4.179  1.4281 -0.5397  0.3826
  155MOL0     C20837   2.476   8.759   4.115 -0.2720  0.4919  0.0669
  155MOL0     O20838   2.794   8.646   4.223 -0.6680 -0.1731 -0.1845
  155MOL0     C20839   2.962   8.720   4.016  0.4391  0.4781  0.4373
  155MOL0     C20840   3.071   8.725   3.923 -0.0072  0.2587  0.5987
  155MOL0     N20841   3.599   8.447   4.077  0.0356  0.2249  0.1757
  155MOL0     N20842   3.706   8.374   4.114  0.2806 -1.0078  0.5606
  155MOL0     C20843   4.996   8.701   3.961  1.2024  0.2532  0.5257
  155MOL0     C20844   5.120   8.732   3.898 -0.7418 -0.4832  0.2012
  155MOL0     C20845   5.529   8.859   3.803  0.3004  0.2866  0.7839
  155MOL0     C20846   5.642   8.778   3.806 -0.0207  0.2614 -0.2916
  155MOL0     C20847   5.756   8.813   3.729  0.4557  0.6894  0.1511
  155MOL0     C20848   5.751   8.926   3.641  0.4935  0.1847 -0.6242
  155MOL0     O20849   5.856   8.971   3.560 -0.2798  0.4402 -0.2673
  155MOL0     C20850   5.972   8.889   3.533 -0.0587  0.3575  1.3715
  155MOL0     C20851   6.058   8.971   3.440 -0.1960  0.8058  0.7205
  155MOL0     C20852   5.982   8.967   3.296 -0.7748  0.1382 -0.4562
  155MOL0     C20853   6.059   8.875   3.197  0.9104  0.2541  0.0448
  155MOL0     C20854   6.201   8.906   3.167 -0.7237  0.4180 -0.4648
  155MOL0     C20855   6.316   8.937   3.151 -1.0521 -1.0472  0.1994
  155MOL0     C20856   5.638   9.015   3.646  0.1018  1.1977 -0.4212
  155MOL0     C20857   5.525   8.972   3.723  0.9359 -0.9029 -0.4544
  155MOL0     H20858   5.209   8.975   4.106  1.1508 -0.7976 -1.2608
  155MOL0     H20859   4.982   8.927   4.206 -2.1622  0.9838 -1.8514
  155MOL0     H20860   4.775   8.571   4.023 -1.2836 -1.7093  0.4907
  155MOL0     H20861   4.882   8.519   4.159  1.1915  0.7705  1.2532
  155MOL0     H20862   4.668   8.461   4.209  2.7164 -0.8848 -0.4655
  155MOL0     H20863   4.681   8.607   4.303  0.0052  1.3492  0.0647
  155MOL0     H20864   4.521   8.721   4.171  0.2722 -0.8682  1.8498
  155MOL0     H20865   4.567   8.628   4.029 -2.5074 -0.4507 -0.9547
  155MOL0     H20866   4.470   8.420   4.120 -0.6761 -0.2119 -0.8614
  155MOL0     H20867   4.428   8.491   4.269  2.0067 -3.4460 -0.3315
  155MOL0     H20868   4.264   8.637   4.131 -1.5328 -0.8608 -0.4318
  155MOL0     H20869   4.326   8.588   3.976 -2.8824  1.7875  0.4488
  155MOL0     H20870   4.226   8.390   3.969  4.1265  0.7519 -0.9004
  155MOL0     H20871   4.214   8.368   4.145  1.1331  2.0900  0.9716
  155MOL0     H20872   4.066   8.574   4.132  3.0415  3.1048 -2.7470
  155MOL0     H20873   4.053   8.536   3.954 -0.8953  2.9319  0.7440
  155MOL0     H20874   3.989   8.340   4.185 -0.2428  0.4318 -0.0916
  155MOL0     H20875   3.979   8.314   4.013  0.4296  0.9589  0.0498
  155MOL0     H20876   3.855   8.636   4.004 -0.6371  0.3239 -0.7870
  155MOL0     H20877   3.515   8.722   4.078 -1.8264 -1.4267 -0.0168
  155MOL0     H20878   3.648   8.765   3.963  0.7743 -1.2386  0.2699
  155MOL0     H20879   3.433   8.561   3.881 -0.2238  0.5287 -1.0897
  155MOL0     H20880   3.551   8.644   3.783 -0.2172  0.1424  0.5643
  155MOL0     H20881   3.444   8.853   3.815  1.0048 -2.0636 -1.3628
  155MOL0     H20882   3.339   8.791   3.942  2.7117  4.2113  1.1639
  155MOL0     H20883   3.338   8.740   3.639  1.2324  5.8287  0.2166
  155MOL0     H20884   3.212   8.823   3.731  0.7306  1.2080  1.7192
  155MOL0     H20885   3.059   8.407   3.823 -2.3896 -1.0276  1.8016
  155MOL0     H20886   2.854   8.330   4.076  1.1184 -0.1951  0.4776
  155MOL0     H20887   2.758   8.381   3.933  0.2544 -1.9416 -1.6503
  155MOL0     H20888   2.918   8.293   3.916  1.7554  1.2374  0.7249
  155MOL0     H20889   2.555   8.456   4.237 -1.2842 -0.2326  2.5725
  155MOL0     H20890   2.357   8.511   4.374 -2.0622  2.0142  2.0328
  155MOL0     H20891   2.162   8.567   4.459  2.6250 -0.0498 -1.0604
  155MOL0     H20892   2.271   8.699   4.498  2.9106  0.5424 -4.5146
  155MOL0     H20893   2.073   8.687   4.629  0.3422 -4.7978 -1.8767
  155MOL0     H20894   2.103   8.842   4.543  1.9679 -1.5749  0.3126
  155MOL0     H20895   1.894   8.620   4.478  0.0416 -0.6262 -1.0393
  155MOL0     H20896   1.909   8.768   4.388 -3.2409  1.1578  0.8625
  155MOL0     H20897   1.823   8.765   4.682 -2.3020  1.5629  1.1957
  155MOL0     H20898   1.845   8.908   4.579 -1.7316 -0.5120  1.2007
  155MOL0     H20899   1.631   8.686   4.542 -2.9222  0.9451  0.5536
  155MOL0     H20900   1.681   8.795   4.418 -0.2732 -1.3958  1.1966
  155MOL0     H20901   1.578   8.881   4.694 -4.4252  1.4531  0.1952
  155MOL0     H20902   1.621   8.985   4.546  0.2524 -0.5532 -1.4046
  155MOL0     H20903   1.418   8.759   4.518 -0.3690 -0.1916  4.0674
  155MOL0     H20904   1.424   8.909   4.423  0.0344 -2.0333 -0.6699
  155MOL0     H20905   1.344   8.889   4.715  0.4807  1.0307 -0.3897
  155MOL0     H20906   1.227   8.905   4.596 -0.4401  0.0855  1.3547
  155MOL0     H20907   2.311   8.881   4.157  2.0758 -0.5620 -1.2685
  155MOL0     H20908   2.527   8.836   4.059 -1.0253  0.6331 -0.4567
  155MOL0     H20909   2.960   8.815   4.068 -0.5299  0.8477 -0.2508
  155MOL0     H20910   3.118   8.822   3.921  1.8478 -0.5710 -2.0501
  155MOL0     H20911   4.940   8.621   3.914  1.7007 -0.5280  1.2104
  155MOL0     H20912   5.134   8.680   3.805 -2.4981  2.1106 -1.6544
  155MOL0     H20913   5.655   8.693   3.872  0.6754 -0.2318 -1.0394
  155MOL0     H20914   5.834   8.737   3.729  0.0701  0.1906  2.9070
  155MOL0     H20915   6.026   8.869   3.626 -2.3446 -0.1615  2.6718
  155MOL0     H20916   5.953   8.792   3.486 -0.0663  1.4680 -1.0538
  155MOL0     H20917   6.154   8.918   3.436 -1.6448 -1.9196 -0.9060
  155MOL0     H20918   6.068   9.077   3.465  1.0212  1.1540 -1.0045
  155MOL0     H20919   5.982   9.060   3.237  2.2866 -0.9358 -2.4041
  155MOL0     H20920   5.876   8.941   3.303 -1.1269  1.7225  0.4703
  155MOL0     H20921   6.024   8.883   3.093  0.6586  1.2992  0.2026
  155MOL0     H20922   6.052   8.779   3.248 -2.3421  0.9334  1.0727
  155MOL0     H20923   6.419   8.963   3.139 -1.2649  0.5577  1.3931
  155MOL0     H20924   5.635   9.100   3.579  0.2430  0.5163 -1.3201
  155MOL0     H20925   5.438   9.037   3.721 -0.7499 -2.9179  1.8198
  156MOL0     O20926   4.098   8.105   2.699 -0.2259  0.6216 -0.3226
  156MOL0     C20927   4.155   8.211   2.718 -0.4130 -0.2268 -0.2703
  156MOL0     O20928   4.098   8.337   2.709  1.3399 -0.1481  0.3770
  156MOL0     C20929   3.958   8.356   2.700 -0.7446 -1.2850 -0.4809
  156MOL0     C20930   3.868   8.271   2.767  0.3253 -0.0731 -0.6364
  156MOL0     C20931   3.728   8.289   2.746 -0.7027  1.2257 -0.2443
  156MOL0     C20932   3.676   8.390   2.665 -0.1581  0.9820 -1.1888
  156MOL0     O20933   3.540   8.418   2.658 -0.2079 -1.1735  0.0797
  156MOL0     C20934   3.492   8.557   2.646 -0.7980  0.4591 -0.7581
  156MOL0     C20935   3.341   8.576   2.684  0.6160  0.5893  0.4839
  156MOL0     C20936   3.325   8.517   2.825 -0.7012 -1.0838 -1.5319
  156MOL0     C20937   3.179   8.522   2.880  0.7461  0.1050 -0.8729
  156MOL0     C20938   3.166   8.443   3.004 -0.8649 -0.6671  0.6928
  156MOL0     C20939   3.039   8.461   3.067  1.0889 -0.1933 -0.2609
  156MOL0     C20940   2.920   8.417   2.977  0.1700  0.4706 -0.1402
  156MOL0     C20941   2.925   8.276   2.923 -0.0230  0.2136  0.1406
  156MOL0     N20942   2.788   8.220   2.902  0.3780 -0.6096 -0.4730
  156MOL0     C20943   2.705   8.199   3.013  0.3242  0.4274 -0.0872
  156MOL0     C20944   2.609   8.116   2.958  0.5719  0.5579  0.7807
  156MOL0     C20945   2.487   8.069   3.039  1.0030  0.0152  1.0645
  156MOL0     C20946   2.514   7.966   3.142 -0.2890  0.4771 -0.1703
  156MOL0     C20947   2.549   7.832   3.070  0.2873  0.4695 -0.7586
  156MOL0     C20948   2.556   7.713   3.167 -0.0811  1.3661 -0.3097
  156MOL0     O20949   2.443   7.691   3.252  0.6325  0.4792  0.1660
  156MOL0     C20950   2.359   7.590   3.208  0.5999 -0.1445  0.0367
  156MOL0     C20951   2.263   7.627   3.113  0.2717  0.0008 -0.1413
  156MOL0     C20952   2.191   7.529   3.045 -0.0174 -0.7382  0.0149
  156MOL0     C20953   2.108   7.572   2.931 -0.3448  0.0130 -0.4205
  156MOL0     C20954   2.179   7.405   3.102 -0.1723 -0.2818  0.2062
  156MOL0     C20955   2.061   7.310   3.081 -0.1659  0.3765  0.1525
  156MOL0     O20956   1.953   7.352   3.013 -0.2424  0.7354  0.3226
  156MOL0     C20957   1.835   7.299   3.047  1.0959 -0.6518 -1.0513
  156MOL0     C20958   1.806   7.161   3.065 -0.2821 -0.4174 -0.4347
  156MOL0     C20959   1.679   7.113   3.101 -0.0312 -0.1027 -0.1194
  156MOL0     C20960   1.582   7.213   3.131 -0.8970 -0.0620  0.1283
  156MOL0     O20961   1.460   7.169   3.158 -0.0385 -0.5750  0.5458
  156MOL0     C20962   1.340   7.259   3.158 -0.2412  0.2859 -0.7413
  156MOL0     C20963   1.222   7.168   3.169 -0.5382  0.5327  0.7152
  156MOL0     C20964   1.117   7.242   3.250  1.1721 -0.9939 -0.0776
  156MOL0     C20965   0.994   7.154   3.264 -0.5269 -0.3095 -0.8864
  156MOL0     C20966   0.884   7.230   3.340  0.3497  0.2179  0.8616
  156MOL0     C20967   0.752   7.137   3.338  0.0229 -0.6305 -0.1170
  156MOL0     C20968   0.775   7.002   3.403 -0.0790 -0.6876 -0.0084
  156MOL0     C20969   0.646   6.936   3.454  0.0756  0.3633 -0.1200
  156MOL0    Cl20970   0.658   6.775   3.543  0.0041 -0.8001  0.1173
  156MOL0     C20971   1.609   7.354   3.109 -1.3067  0.4344  0.3719
  156MOL0     C20972   1.737   7.389   3.080 -0.1414  0.8306  0.3041
  156MOL0     O20973   2.068   7.202   3.139 -0.2978  0.2497  0.1397
  156MOL0     C20974   2.278   7.362   3.194  0.4016  0.0265  0.0412
  156MOL0     C20975   2.379   7.452   3.241  0.8044 -0.5356 -0.2561
  156MOL0     N20976   2.621   8.104   2.820  0.3656 -0.3520  0.6040
  156MOL0     N20977   2.731   8.155   2.798 -0.3334 -0.0056  0.3919
  156MOL0     C20978   3.769   8.465   2.590  0.4916  1.4878 -0.2448
  156MOL0     C20979   3.910   8.445   2.609 -0.5100 -0.6314  0.5330
  156MOL0     C20980   4.303   8.214   2.710 -0.0388  0.3387  0.5670
  156MOL0     C20981   4.385   8.107   2.660  0.4649 -0.4958 -0.3656
  156MOL0     C20982   4.518   8.125   2.635 -0.0186  0.0593  0.1092
  156MOL0     C20983   4.585   8.241   2.666  0.8335 -0.4105 -0.1927
  156MOL0     O20984   4.715   8.272   2.640 -0.6861 -0.5314  0.8654
  156MOL0     C20985   4.799   8.191   2.548 -0.2547  0.3217  0.6552
  156MOL0     C20986   4.941   8.249   2.571  0.8841  0.2174 -0.0673
  156MOL0     C20987   5.050   8.143   2.526  1.0401  0.2471 -0.3528
  156MOL0     C20988   5.184   8.199   2.541  0.0161 -0.7124 -0.4167
  156MOL0     C20989   5.232   8.204   2.677 -0.9646  0.3160  0.6297
  156MOL0     C20990   5.266   8.211   2.792  0.2568 -0.6745  0.6257
  156MOL0     C20991   4.507   8.336   2.738 -0.0245  0.0226 -0.3183
  156MOL0     C20992   4.370   8.324   2.762 -0.4664 -0.2912  0.2015
  156MOL0     H20993   3.909   8.189   2.824  2.2716 -0.7242 -2.8492
  156MOL0     H20994   3.654   8.226   2.794 -4.2637  2.2452 -3.9042
  156MOL0     H20995   3.553   8.621   2.711  4.4554 -2.3344 -2.2915
  156MOL0     H20996   3.516   8.602   2.548  3.3715 -1.6424 -0.9302
  156MOL0     H20997   3.310   8.680   2.688 -2.3022 -0.2359  2.7742
  156MOL0     H20998   3.269   8.513   2.630  1.3841 -1.0152  1.2420
  156MOL0     H20999   3.346   8.410   2.818  1.1298 -0.9400  0.5729
  156MOL0     H21000   3.389   8.565   2.900  2.1594 -3.1179 -2.4839
  156MOL0     H21001   3.148   8.627   2.888 -0.1934 -0.0079 -2.4456
  156MOL0     H21002   3.117   8.474   2.804 -0.6587 -0.0128  0.3160
  156MOL0     H21003   3.195   8.339   2.980  0.2804 -0.0827 -0.6634
  156MOL0     H21004   3.236   8.484   3.077 -0.3516  1.9237 -1.1034
  156MOL0     H21005   3.038   8.407   3.163  0.1416  3.1959  1.8136
  156MOL0     H21006   3.028   8.566   3.097 -2.5069 -0.5296 -0.0458
  156MOL0     H21007   2.837   8.417   3.049  1.7368  0.4705  1.7313
  156MOL0     H21008   2.896   8.492   2.901 -3.4323  1.5766  1.8674
  156MOL0     H21009   2.988   8.214   2.988 -0.2255 -2.1326 -1.7535
  156MOL0     H21010   2.969   8.288   2.824 -1.9848  0.4592 -0.7478
  156MOL0     H21011   2.709   8.226   3.118  0.9868  1.4168 -0.3551
  156MOL0     H21012   2.437   8.156   3.082  0.7938  0.8908 -0.8423
  156MOL0     H21013   2.410   8.036   2.968 -0.0788  0.9349  1.7655
  156MOL0     H21014   2.426   7.950   3.205 -2.5834  0.4958 -3.1624
  156MOL0     H21015   2.601   7.996   3.201  0.9703  1.4716 -2.4121
  156MOL0     H21016   2.647   7.836   3.022  0.0543  2.5877 -1.1668
  156MOL0     H21017   2.482   7.814   2.986  2.5662  1.0564 -2.8049
  156MOL0     H21018   2.650   7.723   3.222  2.2040  2.6632 -4.0056
  156MOL0     H21019   2.582   7.625   3.108  0.4483  1.7956 -0.7343
  156MOL0     H21020   2.259   7.730   3.080 -2.0473  0.4500  1.3386
  156MOL0     H21021   2.006   7.598   2.962 -1.7153 -3.2177 -1.6986
  156MOL0     H21022   2.144   7.661   2.879 -0.2451  0.9469  1.1780
  156MOL0     H21023   2.101   7.495   2.854 -3.1895 -1.1236  0.8163
  156MOL0     H21024   1.889   7.092   3.054  0.8750  1.1587 -2.1665
  156MOL0     H21025   1.657   7.008   3.117 -1.0813  0.3317  1.4746
  156MOL0     H21026   1.344   7.325   3.245 -0.9536 -0.8923  0.2126
  156MOL0     H21027   1.351   7.321   3.069  0.2020 -0.5952 -1.3113
  156MOL0     H21028   1.178   7.154   3.070 -1.2212 -1.4426  1.2335
  156MOL0     H21029   1.242   7.070   3.215  1.4511  1.3288  1.6940
  156MOL0     H21030   1.098   7.339   3.202  0.8487 -0.0472  1.8707
  156MOL0     H21031   1.152   7.261   3.352  1.7832  0.5505 -0.5379
  156MOL0     H21032   0.955   7.131   3.165 -1.3981  0.3772 -0.7169
  156MOL0     H21033   1.019   7.066   3.324 -0.5551  1.0023  1.1655
  156MOL0     H21034   0.868   7.317   3.277  2.5769 -1.6239 -2.5376
  156MOL0     H21035   0.915   7.248   3.444  3.5225 -0.9415  0.2169
  156MOL0     H21036   0.679   7.196   3.395  1.2961  2.7976 -1.7558
  156MOL0     H21037   0.713   7.133   3.236 -2.3612 -0.1373  0.7216
  156MOL0     H21038   0.852   7.001   3.480  0.1472 -2.4069 -0.2162
  156MOL0     H21039   0.807   6.935   3.322 -0.6411 -2.1878  0.9510
  156MOL0     H21040   0.575   6.923   3.372  1.3400  1.6024 -1.4483
  156MOL0     H21041   0.583   6.999   3.517 -0.2039 -0.0952  0.0690
  156MOL0     H21042   1.530   7.427   3.121 -3.0866 -1.2998 -0.3032
  156MOL0     H21043   1.755   7.495   3.064 -0.1668  0.7918  0.0046
  156MOL0     H21044   2.291   7.258   3.225 -0.8315 -0.3851 -0.7557
  156MOL0     H21045   2.456   7.416   3.309  0.1623 -0.4377  0.5367
  156MOL0     H21046   3.745   8.541   2.516  1.2983  2.8828  0.8807
  156MOL0     H21047   3.972   8.513   2.550 -2.0582 -0.7230 -1.2973
  156MOL0     H21048   4.338   8.015   2.626 -1.2972  0.8746 -1.8009
  156MOL0     H21049   4.575   8.043   2.592 -0.2539 -0.4330  0.7146
  156MOL0     H21050   4.799   8.094   2.597 -1.4469 -0.0465 -0.0291
  156MOL0     H21051   4.769   8.190   2.443 -2.5757  1.7466  1.2355
  156MOL0     H21052   4.956   8.265   2.678  2.2025  1.1305 -0.3606
  156MOL0     H21053   4.960   8.346   2.524 -1.5260  0.9500  0.3255
  156MOL0     H21054   5.018   8.107   2.428 -2.4252 -0.4223  0.8589
  156MOL0     H21055   5.032   8.060   2.594  1.9460  0.7792  0.5550
  156MOL0     H21056   5.182   8.305   2.511 -0.9674 -0.7225 -0.4162
  156MOL0     H21057   5.256   8.133   2.493  0.1248 -3.5075  3.2254
  156MOL0     H21058   5.299   8.212   2.895 -0.2845  1.3976  0.8104
  156MOL0     H21059   4.572   8.413   2.778  3.0777 -2.7674  0.5193
  156MOL0     H21060   4.321   8.406   2.812 -0.7299  0.5240 -1.3172
  157MOL0     O21061   7.476   2.083   8.320  0.0951  0.4670 -0.1973
  157MOL0     C21062   7.516   2.024   8.224  0.2157  0.0652  0.0400
  157MOL0     O21063   7.479   2.036   8.099 -0.5423  0.3064  0.2506
  157MOL0     C21064   7.374   2.119   8.060 -0.7426 -0.3875 -0.2506
  157MOL0     C21065   7.266   2.074   7.979  0.8231 -0.0470 -0.0230
  157MOL0     C21066   7.170   2.167   7.930 -0.0210  0.9520  0.4014
  157MOL0     C21067   7.174   2.301   7.962  0.5223  0.5582  0.8625
  157MOL0     O21068   7.088   2.393   7.905  0.4937 -0.0779  0.2572
  157MOL0     C21069   6.980   2.356   7.825 -0.4585  0.2164  0.1416
  157MOL0     C21070   6.893   2.475   7.776  0.1146 -0.2487  0.4025
  157MOL0     C21071   6.772   2.429   7.698  0.8528  0.5261  0.2109
  157MOL0     C21072   6.804   2.346   7.577  0.7458  0.0740 -0.7032
  157MOL0     C21073   6.686   2.314   7.491  0.7768  0.0147  1.2620
  157MOL0     C21074   6.639   2.436   7.409  0.9843 -0.0486  0.2105
  157MOL0     C21075   6.563   2.391   7.280 -0.7733 -0.2473 -0.2497
  157MOL0     C21076   6.515   2.509   7.190  0.5312 -0.0152 -0.3586
  157MOL0     N21077   6.635   2.586   7.138 -0.1464 -0.7349 -0.5307
  157MOL0     C21078   6.743   2.530   7.074 -0.0346 -0.0888 -0.0338
  157MOL0     C21079   6.812   2.641   7.032  0.8197 -0.4309  0.4167
  157MOL0     C21080   6.948   2.637   6.962  0.0015  0.1095  0.4631
  157MOL0     C21081   7.059   2.651   7.068  0.7726  0.5326  0.1129
  157MOL0     C21082   7.195   2.633   7.014  0.2133 -0.1877 -0.9014
  157MOL0     C21083   7.303   2.667   7.121 -0.0350  0.0887 -1.4034
  157MOL0     O21084   7.436   2.683   7.069  0.0183  0.9842  0.4556
  157MOL0     C21085   7.543   2.592   7.104  0.1072 -0.0442 -0.4554
  157MOL0     C21086   7.530   2.474   7.181  0.7489  0.0762 -0.2483
  157MOL0     C21087   7.643   2.393   7.204 -0.2948 -0.2055 -0.1659
  157MOL0     C21088   7.617   2.275   7.290 -0.3424 -0.2121  0.0194
  157MOL0     C21089   7.775   2.428   7.163 -0.4454 -0.3725  0.1215
  157MOL0     C21090   7.892   2.347   7.185 -0.1347  0.8870 -0.5973
  157MOL0     O21091   7.994   2.367   7.099 -0.0815  0.1443  0.1394
  157MOL0     C21092   8.109   2.289   7.130  0.0859 -0.4775 -0.0117
  157MOL0     C21093   8.225   2.347   7.183 -0.6461  0.0772  0.2416
  157MOL0     C21094   8.341   2.267   7.194  0.4910  0.4213  0.7538
  157MOL0     C21095   8.345   2.133   7.170  0.4659  0.1570  0.6776
  157MOL0     O21096   8.450   2.044   7.187 -0.0284 -0.6789  0.2127
  157MOL0     C21097   8.588   2.093   7.172  0.7675  0.7817  0.6049
  157MOL0     C21098   8.685   1.971   7.196  0.3081  0.1272 -0.2106
  157MOL0     C21099   8.680   1.872   7.087  0.2053  0.9589 -0.2460
  157MOL0     C21100   8.782   1.753   7.110 -0.1363  0.4366  1.2932
  157MOL0     C21101   8.786   1.675   6.981 -0.6311  0.3096  0.0540
  157MOL0     C21102   8.853   1.533   7.004  0.1351 -0.4972  0.7666
  157MOL0     C21103   8.854   1.451   6.870 -0.0965 -0.1098 -0.2376
  157MOL0     C21104   8.944   1.321   6.877  0.4500  0.6247  0.0763
  157MOL0    Cl21105   9.096   1.328   6.794 -0.4742 -0.1094 -0.1916
  157MOL0     C21106   8.219   2.070   7.124  0.3459  0.0218 -0.2259
  157MOL0     C21107   8.105   2.151   7.101 -0.7938  0.0674 -0.3047
  157MOL0     O21108   7.896   2.289   7.296  0.2294 -0.5657 -0.4356
  157MOL0     C21109   7.788   2.546   7.086  1.0083  0.4088  0.4473
  157MOL0     C21110   7.669   2.621   7.061 -1.2879  0.4533  0.6211
  157MOL0     N21111   6.747   2.762   7.075  0.3440  0.7612 -0.5949
  157MOL0     N21112   6.637   2.728   7.137  0.0459  0.1284  0.0438
  157MOL0     C21113   7.269   2.342   8.056  0.2545  0.4229  0.7323
  157MOL0     C21114   7.370   2.255   8.097  0.3750 -0.4809 -0.3263
  157MOL0     C21115   7.616   1.923   8.250  0.0768 -0.7743  0.5485
  157MOL0     C21116   7.701   1.940   8.363  0.1950 -0.2800 -0.0389
  157MOL0     C21117   7.791   1.840   8.404 -0.8924  0.2759 -0.1699
  157MOL0     C21118   7.799   1.725   8.319  0.2073 -0.4597 -0.4193
  157MOL0     O21119   7.877   1.616   8.338 -0.4518  0.2352  0.7574
  157MOL0     C21120   7.963   1.611   8.451  0.6309  0.5179  0.1433
  157MOL0     C21121   8.007   1.462   8.491 -0.5466  0.1296  0.3586
  157MOL0     C21122   8.153   1.423   8.457 -0.1900  0.6070 -0.3452
  157MOL0     C21123   8.218   1.309   8.537  0.4618  0.5199  0.4334
  157MOL0     C21124   8.163   1.181   8.502 -0.2265  0.5764  0.5647
  157MOL0     C21125   8.124   1.067   8.477  0.2793  1.3182 -0.0822
  157MOL0     C21126   7.716   1.714   8.212 -0.1094 -0.3664  0.4152
  157MOL0     C21127   7.621   1.808   8.180  0.4799  0.2143 -0.0627
  157MOL0     H21128   7.244   1.972   7.948 -0.9550  1.1089 -2.9870
  157MOL0     H21129   7.088   2.129   7.869 -0.0197  0.6718  0.5685
  157MOL0     H21130   7.028   2.306   7.740 -1.6992  1.5962 -1.4575
  157MOL0     H21131   6.922   2.287   7.887 -0.6240  1.3891  1.3271
  157MOL0     H21132   6.868   2.550   7.852  2.6079 -0.1416  1.2219
  157MOL0     H21133   6.964   2.511   7.701  1.1455 -3.9016 -0.5715
  157MOL0     H21134   6.714   2.350   7.748  1.7604 -0.8217 -0.7884
  157MOL0     H21135   6.700   2.507   7.671  0.4049 -0.1988 -0.7413
  157MOL0     H21136   6.888   2.387   7.521 -0.5189  0.5269 -2.3607
  157MOL0     H21137   6.837   2.244   7.599 -2.7215 -1.2137 -0.7727
  157MOL0     H21138   6.726   2.246   7.414  1.9134  3.1452 -1.1190
  157MOL0     H21139   6.601   2.278   7.550 -1.9714  2.1859 -1.0811
  157MOL0     H21140   6.571   2.500   7.467  0.0464  0.2033 -1.1261
  157MOL0     H21141   6.730   2.490   7.381  0.8592  0.0729  0.0368
  157MOL0     H21142   6.634   2.336   7.217 -0.7594 -0.0749 -0.3849
  157MOL0     H21143   6.477   2.331   7.308 -1.2475  0.6485  0.2556
  157MOL0     H21144   6.442   2.573   7.242  0.5942  0.4198 -0.7996
  157MOL0     H21145   6.463   2.468   7.103 -0.5855 -0.2116  0.3722
  157MOL0     H21146   6.772   2.426   7.068  3.5436  0.8560 -2.2089
  157MOL0     H21147   6.953   2.553   6.892 -2.7347 -0.4240  0.7944
  157MOL0     H21148   6.942   2.732   6.908 -1.6060 -0.0988  0.2239
  157MOL0     H21149   7.051   2.576   7.147  2.6339 -1.4536 -1.4788
  157MOL0     H21150   7.047   2.744   7.125 -2.9433 -1.7206  3.5632
  157MOL0     H21151   7.220   2.701   6.932  1.2978  0.7731  0.1788
  157MOL0     H21152   7.205   2.530   6.979  4.4392 -0.1202 -0.4302
  157MOL0     H21153   7.290   2.601   7.207  1.0963  0.1014 -1.2161
  157MOL0     H21154   7.271   2.758   7.173 -0.9027 -1.8147  1.6571
  157MOL0     H21155   7.433   2.445   7.219  0.3034 -2.4624 -2.9840
  157MOL0     H21156   7.645   2.295   7.394 -1.6349 -0.3683  0.4160
  157MOL0     H21157   7.518   2.228   7.293 -0.4330 -0.3325 -2.6365
  157MOL0     H21158   7.675   2.191   7.251 -0.4073 -0.1809 -0.1437
  157MOL0     H21159   8.220   2.452   7.211  2.5350 -0.2657  2.6706
  157MOL0     H21160   8.438   2.316   7.205  2.2343 -1.8277 -2.7080
  157MOL0     H21161   8.611   2.129   7.071  0.5155 -0.0960  0.2166
  157MOL0     H21162   8.602   2.174   7.243  0.5415 -0.3119  1.9326
  157MOL0     H21163   8.782   2.005   7.233 -1.1286  2.0777  2.1141
  157MOL0     H21164   8.647   1.924   7.288  0.4215 -1.2290 -0.8352
  157MOL0     H21165   8.706   1.923   6.994  0.2231 -0.5936 -1.1383
  157MOL0     H21166   8.581   1.825   7.081  1.2592 -1.6488  1.1002
  157MOL0     H21167   8.876   1.791   7.152 -1.5533  2.6210  2.7131
  157MOL0     H21168   8.744   1.687   7.189  0.2966  0.4107  1.4846
  157MOL0     H21169   8.839   1.733   6.905 -0.7906 -1.0094 -1.1032
  157MOL0     H21170   8.683   1.662   6.948 -1.2782  3.7787  0.3261
  157MOL0     H21171   8.955   1.540   7.043 -0.0726 -1.8787  1.6619
  157MOL0     H21172   8.789   1.489   7.081 -0.1764 -0.0674  0.7542
  157MOL0     H21173   8.890   1.506   6.782  0.7533 -1.5870 -0.8600
  157MOL0     H21174   8.752   1.420   6.847  0.6175 -0.6923 -3.0255
  157MOL0     H21175   8.882   1.243   6.832 -0.3202  1.0187  0.4318
  157MOL0     H21176   8.965   1.283   6.977  1.3564  0.4193 -0.1851
  157MOL0     H21177   8.218   1.962   7.115  3.0500 -0.1886  1.2171
  157MOL0     H21178   8.007   2.120   7.067 -0.3489 -1.5836 -0.1696
  157MOL0     H21179   7.884   2.576   7.047  0.1597  0.4984 -1.7061
  157MOL0     H21180   7.680   2.705   6.992  2.5009 -0.9510 -0.7257
  157MOL0     H21181   7.261   2.446   8.085 -1.8681  0.6189 -0.3758
  157MOL0     H21182   7.453   2.297   8.153 -0.0181  1.3824 -1.0625
  157MOL0     H21183   7.701   2.039   8.407  1.0971 -1.0788  1.8673
  157MOL0     H21184   7.847   1.853   8.496  0.4441  0.3037 -0.9517
  157MOL0     H21185   8.049   1.679   8.445  1.9821 -1.0345  1.0142
  157MOL0     H21186   7.904   1.637   8.539 -1.2306 -0.3633 -0.7860
  157MOL0     H21187   7.932   1.403   8.436 -1.2950  1.4052 -0.0426
  157MOL0     H21188   7.979   1.447   8.595 -2.4543 -0.1487 -0.1610
  157MOL0     H21189   8.198   1.519   8.484  1.5684 -0.6744  1.5936
  157MOL0     H21190   8.151   1.399   8.351 -2.0626 -2.8938  0.3242
  157MOL0     H21191   8.215   1.329   8.644 -3.4547 -2.9093  1.1779
  157MOL0     H21192   8.326   1.306   8.516  0.4227 -0.7678  0.3771
  157MOL0     H21193   8.093   0.966   8.457  1.4998  0.8754  0.1592
  157MOL0     H21194   7.724   1.627   8.147 -0.1732 -0.4007  0.4526
  157MOL0     H21195   7.549   1.777   8.105  0.6882 -0.2513 -0.0707
  158MOL0     O21196   7.988   9.407   7.013  0.1575  0.2283  0.3046
  158MOL0     C21197   7.922   9.323   6.946  0.3039 -0.0945  0.6184
  158MOL0     O21198   7.827   9.240   6.994  0.1769  0.3102  0.4387
  158MOL0     C21199   7.825   9.213   7.127  0.3651 -0.2713  0.0841
  158MOL0     C21200   7.776   9.305   7.219 -0.3583 -1.1351  1.1020
  158MOL0     C21201   7.778   9.270   7.353 -0.0629  0.4573 -0.1704
  158MOL0     C21202   7.810   9.142   7.393 -0.4167  0.9225 -0.4028
  158MOL0     O21203   7.787   9.110   7.525  0.5726 -0.2370  0.2073
  158MOL0     C21204   7.662   9.147   7.574  0.3511  0.6145 -0.7276
  158MOL0     C21205   7.607   9.060   7.689  1.2651  0.3948 -0.3817
  158MOL0     C21206   7.456   9.086   7.723 -0.1058 -0.5103  0.4133
  158MOL0     C21207   7.410   8.979   7.820 -0.5598  0.3843  0.4696
  158MOL0     C21208   7.273   9.024   7.873  0.9974  0.6767  0.4256
  158MOL0     C21209   7.218   8.939   7.992  0.2576  0.1108 -0.1246
  158MOL0     C21210   7.090   8.983   8.053 -0.0597 -0.1552  0.4777
  158MOL0     C21211   6.968   8.896   8.004 -0.2011 -0.4539  0.8687
  158MOL0     N21212   6.973   8.899   7.858  0.8516  0.7929  0.3047
  158MOL0     C21213   6.906   8.991   7.774 -0.3456  0.2247 -0.2319
  158MOL0     C21214   6.911   8.944   7.649  0.0577  1.2697  0.2583
  158MOL0     C21215   6.845   9.002   7.529 -0.1057 -0.1150  0.2995
  158MOL0     C21216   6.742   9.104   7.561  0.8719 -0.4075 -0.1956
  158MOL0     C21217   6.657   9.129   7.431  0.0597 -0.6730  0.9519
  158MOL0     C21218   6.545   9.227   7.440 -0.1648 -0.3940  0.5463
  158MOL0     O21219   6.435   9.177   7.517  0.4286  0.0201  0.2094
  158MOL0     C21220   6.321   9.254   7.524 -0.0332 -0.0584 -1.0376
  158MOL0     C21221   6.210   9.208   7.598  1.0194  0.1649 -0.2590
  158MOL0     C21222   6.088   9.282   7.620 -1.3060 -1.3152  0.2140
  158MOL0     C21223   5.980   9.222   7.698 -0.6041  0.3306  0.3348
  158MOL0     C21224   6.092   9.419   7.578 -0.4132 -0.3702  0.0280
  158MOL0     C21225   5.974   9.517   7.608 -0.8855  0.2270 -0.1241
  158MOL0     O21226   5.873   9.476   7.682 -0.2370 -0.2440 -0.6969
  158MOL0     C21227   5.767   9.564   7.705 -0.0699  0.0415 -0.1617
  158MOL0     C21228   5.707   9.655   7.612 -0.3987  0.6838 -0.7700
  158MOL0     C21229   5.606   9.741   7.654  0.7023  0.5370 -0.1451
  158MOL0     C21230   5.563   9.746   7.785  1.1449  0.3292  0.3736
  158MOL0     O21231   5.470   9.842   7.813 -0.5249 -1.0118  0.2782
  158MOL0     C21232   5.426   9.860   7.953  0.6547  0.7975  0.2269
  158MOL0     C21233   5.332   9.973   7.943  0.0712 -0.1528  0.5373
  158MOL0     C21234   5.276  10.018   8.078  0.0397  0.0442 -0.2861
  158MOL0     C21235   5.207  10.148   8.048 -0.3065 -0.5043 -0.6701
  158MOL0     C21236   5.166  10.220   8.179  0.4141  0.3702  0.7486
  158MOL0     C21237   5.096  10.358   8.151  0.0134 -0.1183 -0.5021
  158MOL0     C21238   4.962  10.341   8.089  0.1647  0.2895 -0.6341
  158MOL0     C21239   4.872  10.230   8.142 -0.0333  0.6011  0.0744
  158MOL0    Cl21240   4.722  10.237   8.040  0.1477  0.0972  0.1470
  158MOL0     C21241   5.618   9.652   7.871 -0.2132 -0.3199 -0.8540
  158MOL0     C21242   5.710   9.558   7.830  0.6631  0.2004 -0.1045
  158MOL0     O21243   5.995   9.632   7.563 -0.0793 -0.4727  0.7013
  158MOL0     C21244   6.203   9.459   7.502 -0.2683 -0.5847  0.1714
  158MOL0     C21245   6.321   9.382   7.483  1.1116 -0.6037  0.6519
  158MOL0     N21246   6.980   8.818   7.661  0.1335 -0.3620  0.2035
  158MOL0     N21247   7.018   8.795   7.773  0.1527  0.1302 -0.3720
  158MOL0     C21248   7.858   9.048   7.303 -0.8252 -0.1777  0.7986
  158MOL0     C21249   7.870   9.089   7.168  0.8080  0.0882 -0.6325
  158MOL0     C21250   7.941   9.324   6.801 -0.0617 -0.8825 -0.2690
  158MOL0     C21251   7.845   9.272   6.714  1.0734  0.0514  0.4660
  158MOL0     C21252   7.853   9.291   6.575 -0.1078 -0.3216  0.2110
  158MOL0     C21253   7.964   9.357   6.516 -0.4580 -0.6389 -0.7313
  158MOL0     O21254   7.980   9.359   6.382  0.3120 -0.4194 -0.4874
  158MOL0     C21255   8.111   9.378   6.323 -0.2666  0.1060  0.4588
  158MOL0     C21256   8.097   9.383   6.169 -0.0621 -0.4119  1.9938
  158MOL0     C21257   8.242   9.338   6.114  0.3202  0.6751 -0.4989
  158MOL0     C21258   8.242   9.321   5.961  0.8135 -0.4656  0.3507
  158MOL0     C21259   8.212   9.453   5.900  0.0531 -0.4898 -0.5074
  158MOL0     C21260   8.181   9.563   5.852 -0.8539  0.3361  0.2398
  158MOL0     C21261   8.073   9.391   6.601  0.0730 -0.2547 -0.6098
  158MOL0     C21262   8.057   9.379   6.741  1.0815  0.2781 -0.1272
  158MOL0     H21263   7.728   9.394   7.180 -1.7980 -1.2783  2.4491
  158MOL0     H21264   7.732   9.346   7.416  0.3255  1.6486 -1.2671
  158MOL0     H21265   7.651   9.244   7.624 -1.5607 -0.8811  2.0363
  158MOL0     H21266   7.583   9.131   7.500 -0.9915  2.0160  0.3519
  158MOL0     H21267   7.609   8.954   7.662  0.2478 -0.2756  1.8695
  158MOL0     H21268   7.666   9.085   7.778 -2.3725  0.3193  2.3039
  158MOL0     H21269   7.446   9.189   7.759 -0.5973 -1.2762  2.6036
  158MOL0     H21270   7.398   9.081   7.630  1.4851 -2.8638 -0.5555
  158MOL0     H21271   7.404   8.882   7.770 -0.3027  1.0483 -0.8925
  158MOL0     H21272   7.485   8.970   7.899  0.0545  3.0380  0.2945
  158MOL0     H21273   7.277   9.130   7.900  0.0346  0.8139  0.0765
  158MOL0     H21274   7.199   9.022   7.792 -0.3475  4.6915  1.3577
  158MOL0     H21275   7.233   8.835   7.961  0.6067  0.8395 -2.6026
  158MOL0     H21276   7.288   8.949   8.076  0.7675 -0.0805 -0.5258
  158MOL0     H21277   7.097   8.975   8.162 -0.4963  1.0366  0.6045
  158MOL0     H21278   7.079   9.088   8.026  0.4816 -0.6354 -1.8076
  158MOL0     H21279   6.878   8.939   8.047 -0.3735  2.0974 -1.6957
  158MOL0     H21280   6.976   8.790   8.028 -4.2183 -1.2688 -0.6240
  158MOL0     H21281   6.850   9.080   7.800 -2.0583 -0.2291 -2.1057
  158MOL0     H21282   6.926   9.049   7.472  0.5833 -0.3444  1.0629
  158MOL0     H21283   6.803   8.922   7.468 -0.9692 -0.5476  1.4211
  158MOL0     H21284   6.789   9.197   7.593  1.0355 -0.7691  0.6534
  158MOL0     H21285   6.679   9.085   7.649  0.3225 -2.3040 -0.9634
  158MOL0     H21286   6.609   9.037   7.399  1.4637 -1.1788  0.2077
  158MOL0     H21287   6.721   9.160   7.348  0.3301  1.9288  2.0298
  158MOL0     H21288   6.517   9.245   7.335 -2.5089  1.7386  1.4247
  158MOL0     H21289   6.586   9.320   7.481  0.1791  1.2460 -3.0667
  158MOL0     H21290   6.209   9.106   7.633 -1.1635 -1.6555 -4.8660
  158MOL0     H21291   5.979   9.115   7.675 -1.3625  0.5940 -0.9594
  158MOL0     H21292   5.987   9.249   7.804  2.4319  1.8071 -0.1116
  158MOL0     H21293   5.884   9.256   7.657 -0.6710  3.1276  2.4876
  158MOL0     H21294   5.739   9.676   7.510  1.6152 -0.1233 -0.3506
  158MOL0     H21295   5.560   9.813   7.586  0.8875  1.1599  0.3796
  158MOL0     H21296   5.393   9.765   7.994  1.4650  0.9655  1.2991
  158MOL0     H21297   5.511   9.900   8.008 -0.1762  3.9871 -0.5361
  158MOL0     H21298   5.399  10.045   7.894  1.2699 -2.1084 -0.8390
  158MOL0     H21299   5.245   9.951   7.881 -2.6261  4.6339  2.0894
  158MOL0     H21300   5.351  10.038   8.155  1.5100 -0.5058 -1.5129
  158MOL0     H21301   5.200   9.951   8.120  0.6183 -1.0711 -0.9619
  158MOL0     H21302   5.272  10.211   7.987 -0.9153 -0.3424 -1.1654
  158MOL0     H21303   5.115  10.128   7.992 -1.3145  3.6070 -0.8269
  158MOL0     H21304   5.261  10.244   8.227  1.3991  1.3041 -1.5250
  158MOL0     H21305   5.103  10.158   8.244  2.6950 -2.8259  0.1286
  158MOL0     H21306   5.085  10.416   8.243  0.5053  2.9192 -2.1972
  158MOL0     H21307   5.170  10.417   8.096 -0.4842  0.0347 -1.0170
  158MOL0     H21308   4.978  10.320   7.983  0.0269 -0.7732 -0.4505
  158MOL0     H21309   4.903  10.434   8.099 -2.4445 -1.3992  1.2522
  158MOL0     H21310   4.862  10.237   8.251  1.3546  1.9816  0.1412
  158MOL0     H21311   4.922  10.136   8.121 -2.7926 -1.3935  1.7788
  158MOL0     H21312   5.605   9.659   7.978  0.8601  0.0801 -0.7403
  158MOL0     H21313   5.731   9.484   7.906 -2.6784 -0.4297  0.3507
  158MOL0     H21314   6.213   9.559   7.462 -0.2386 -0.7880 -0.3417
  158MOL0     H21315   6.407   9.432   7.439  1.2898 -0.5855  1.0150
  158MOL0     H21316   7.885   8.950   7.341  2.2377  0.2471  0.0048
  158MOL0     H21317   7.907   9.019   7.094  0.4781  1.9083 -2.6128
  158MOL0     H21318   7.757   9.230   6.762  1.3364  0.0794  0.9824
  158MOL0     H21319   7.771   9.263   6.509 -0.6951 -1.1093  1.2292
  158MOL0     H21320   8.148   9.476   6.354 -0.8308 -0.1307  1.9487
  158MOL0     H21321   8.172   9.295   6.360 -0.9114 -1.0403 -0.9615
  158MOL0     H21322   8.075   9.485   6.136 -1.2054 -1.0888  0.5903
  158MOL0     H21323   8.030   9.317   6.115  1.2070 -0.0672 -0.1260
  158MOL0     H21324   8.260   9.244   6.167  0.2719  0.9300 -0.0203
  158MOL0     H21325   8.321   9.407   6.143  0.0969  0.8495 -0.2950
  158MOL0     H21326   8.162   9.252   5.933 -0.8417  1.5759 -0.1566
  158MOL0     H21327   8.337   9.294   5.913  1.5294  2.4642 -0.0753
  158MOL0     H21328   8.168   9.657   5.803  0.3282 -0.7687 -2.3467
  158MOL0     H21329   8.167   9.430   6.563 -0.1303  1.9500  0.9950
  158MOL0     H21330   8.141   9.407   6.805 -1.4067  1.7406  2.7502
  159MOL0     O21331   8.751   5.430   4.964  0.9509  0.7646  0.7502
  159MOL0     C21332   8.670   5.491   4.894 -0.6785  0.4499 -0.4718
  159MOL0     O21333   8.542   5.506   4.926 -0.2569  0.1216  0.3809
  159MOL0     C21334   8.490   5.462   5.050  0.4635 -0.3070  0.1698
  159MOL0     C21335   8.525   5.346   5.128  0.0691 -0.0045  0.1360
  159MOL0     C21336   8.458   5.310   5.252 -0.3968 -0.5258 -0.3637
  159MOL0     C21337   8.362   5.401   5.302  0.0561  1.0496  0.0169
  159MOL0     O21338   8.303   5.363   5.425 -0.0025  0.2318  0.7080
  159MOL0     C21339   8.185   5.286   5.384  0.4606  0.1109 -0.4330
  159MOL0     C21340   8.064   5.364   5.448  0.1021  0.0610  0.5562
  159MOL0     C21341   7.929   5.286   5.480 -0.3533 -0.0468 -0.5403
  159MOL0     C21342   7.896   5.162   5.390 -0.5038 -0.5109  0.1964
  159MOL0     C21343   7.783   5.080   5.447 -0.1160 -0.3044  0.0053
  159MOL0     C21344   7.751   4.956   5.362 -0.4197 -0.8387 -0.4765
  159MOL0     C21345   7.616   4.887   5.404  0.2846 -0.5222 -0.5986
  159MOL0     C21346   7.578   4.759   5.324  0.2542 -0.2523 -1.0632
  159MOL0     N21347   7.516   4.786   5.197  0.1001  0.4438  0.6411
  159MOL0     C21348   7.374   4.780   5.179 -0.5377 -0.0884  0.7352
  159MOL0     C21349   7.355   4.823   5.053 -0.5401  0.6457 -0.0771
  159MOL0     C21350   7.228   4.822   4.974 -0.1884 -0.3436 -0.7990
  159MOL0     C21351   7.235   4.885   4.834 -0.4734  0.0969  0.2993
  159MOL0     C21352   7.295   4.784   4.723 -0.4420  0.8845 -0.3523
  159MOL0     C21353   7.330   4.854   4.583  0.2991  0.5681  0.5955
  159MOL0     O21354   7.213   4.928   4.535 -0.3092 -0.2024 -0.2054
  159MOL0     C21355   7.124   4.863   4.464  1.3808 -0.0841 -0.5768
  159MOL0     C21356   7.031   4.942   4.385  0.5903 -0.2321  0.5060
  159MOL0     C21357   6.918   4.874   4.340  0.0487 -0.2696 -0.2903
  159MOL0     C21358   6.819   4.957   4.262  0.2820  0.1154  0.5285
  159MOL0     C21359   6.902   4.738   4.350 -0.5430 -0.0507  0.1607
  159MOL0     C21360   6.772   4.667   4.319 -0.9754  0.8565 -0.0811
  159MOL0     O21361   6.661   4.751   4.327 -0.2446  0.0027 -0.2782
  159MOL0     C21362   6.540   4.697   4.364 -0.7190 -1.0034  1.2027
  159MOL0     C21363   6.478   4.597   4.302 -0.3549 -0.0234 -0.3301
  159MOL0     C21364   6.349   4.545   4.338 -1.4368 -0.0035 -1.5548
  159MOL0     C21365   6.283   4.607   4.444 -0.4320  0.0736  0.1331
  159MOL0     O21366   6.165   4.559   4.496 -0.2872  1.1008  0.3103
  159MOL0     C21367   6.160   4.421   4.540  0.1112  0.6947 -0.5256
  159MOL0     C21368   6.032   4.402   4.630 -0.2656 -0.1320  0.5354
  159MOL0     C21369   6.059   4.450   4.770  0.7115  1.0364  0.3664
  159MOL0     C21370   5.950   4.406   4.871 -0.4854 -0.1231 -0.0294
  159MOL0     C21371   5.809   4.466   4.838 -0.7058 -0.5434 -0.5635
  159MOL0     C21372   5.715   4.393   4.922  0.5978  0.0202  0.2859
  159MOL0     C21373   5.567   4.415   4.879 -0.4593 -0.1452  0.1326
  159MOL0     C21374   5.480   4.336   4.989  0.6604  0.6125  0.3049
  159MOL0    Cl21375   5.308   4.314   4.938 -0.1720 -0.2607 -0.0536
  159MOL0     C21376   6.336   4.725   4.495  0.0530  0.5933 -0.4710
  159MOL0     C21377   6.463   4.771   4.452  0.4965  1.2164 -0.5989
  159MOL0     O21378   6.767   4.548   4.300  0.5443 -0.2088 -0.2748
  159MOL0     C21379   7.013   4.667   4.404  0.4468 -0.1623  0.6720
  159MOL0     C21380   7.123   4.723   4.455  0.5461 -0.7474  0.3702
  159MOL0     N21381   7.478   4.860   5.006 -0.1468  0.0796  0.1893
  159MOL0     N21382   7.574   4.849   5.092  0.4466 -0.2350  0.3862
  159MOL0     C21383   8.326   5.512   5.230 -0.3160  1.0786  0.2626
  159MOL0     C21384   8.388   5.545   5.107  0.1583 -0.8554  0.2366
  159MOL0     C21385   8.722   5.546   4.767  0.7903  0.7121  0.1489
  159MOL0     C21386   8.643   5.616   4.673 -0.3129 -0.1786 -0.0378
  159MOL0     C21387   8.700   5.670   4.560  0.4780 -0.6072  0.3035
  159MOL0     C21388   8.830   5.639   4.517  0.4114 -0.1172 -0.5739
  159MOL0     O21389   8.855   5.666   4.390  0.1352 -0.5411 -0.2007
  159MOL0     C21390   8.923   5.788   4.365  0.7835  0.8454  0.0303
  159MOL0     C21391   9.057   5.790   4.441 -0.3285 -0.6325 -0.0140
  159MOL0     C21392   9.135   5.909   4.383 -0.7145 -0.0972 -0.3145
  159MOL0     C21393   9.270   5.913   4.455 -0.5126 -0.3895  0.3359
  159MOL0     C21394   9.332   6.049   4.490  0.2809 -0.2354  0.5787
  159MOL0     C21395   9.375   6.158   4.524  0.2461 -0.1092 -0.1792
  159MOL0     C21396   8.912   5.567   4.610  0.1909 -0.4998 -0.4250
  159MOL0     C21397   8.858   5.516   4.731 -0.1796  0.2604 -0.5039
  159MOL0     H21398   8.607   5.283   5.095  0.5851  1.1068 -0.7797
  159MOL0     H21399   8.477   5.225   5.317  4.9549  1.5037  1.2968
  159MOL0     H21400   8.162   5.270   5.279 -2.8441  0.0552  0.1875
  159MOL0     H21401   8.208   5.190   5.432  4.0473  0.9956 -0.1100
  159MOL0     H21402   8.093   5.401   5.546  0.0564 -0.1090  0.6351
  159MOL0     H21403   8.039   5.452   5.388  2.0221 -1.1098 -2.2051
  159MOL0     H21404   7.931   5.265   5.587 -1.5146 -1.6499 -0.7845
  159MOL0     H21405   7.844   5.353   5.464  1.1181  2.5386  1.7105
  159MOL0     H21406   7.880   5.191   5.286  0.9214 -3.4973 -0.9560
  159MOL0     H21407   7.984   5.098   5.394 -1.1800 -1.4225  1.3929
  159MOL0     H21408   7.807   5.060   5.552  1.5418  2.4068  0.2470
  159MOL0     H21409   7.687   5.131   5.460 -1.0401 -1.6165 -1.2439
  159MOL0     H21410   7.738   4.984   5.257 -1.7975 -3.3660 -1.0458
  159MOL0     H21411   7.826   4.877   5.358 -2.5800 -3.0353  0.1488
  159MOL0     H21412   7.619   4.864   5.511 -1.4582  3.3600  0.4402
  159MOL0     H21413   7.541   4.964   5.387 -0.3569 -0.8530  0.6162
  159MOL0     H21414   7.515   4.700   5.392  1.4185  0.6780  0.9155
  159MOL0     H21415   7.673   4.707   5.311 -0.3832 -1.8756  0.4228
  159MOL0     H21416   7.299   4.746   5.250 -1.0583  1.5925  1.0533
  159MOL0     H21417   7.214   4.715   4.955  0.0343 -1.4903  4.2522
  159MOL0     H21418   7.159   4.868   5.045  0.5699  0.1117 -0.3394
  159MOL0     H21419   7.297   4.976   4.833  0.3188 -0.4019  1.7948
  159MOL0     H21420   7.130   4.903   4.807 -0.0760 -0.6278 -1.9271
  159MOL0     H21421   7.235   4.695   4.706  0.3392  0.6691 -2.2346
  159MOL0     H21422   7.388   4.749   4.769 -0.7400  0.6047  0.0373
  159MOL0     H21423   7.372   4.789   4.506 -1.5182  2.6125 -2.3469
  159MOL0     H21424   7.406   4.928   4.610 -0.2492  2.3096 -2.2033
  159MOL0     H21425   7.042   5.049   4.370 -0.4294 -0.1423  0.3263
  159MOL0     H21426   6.735   4.986   4.327 -1.0890 -1.5276 -0.4247
  159MOL0     H21427   6.861   5.044   4.210 -2.1674  0.4316 -1.0923
  159MOL0     H21428   6.787   4.899   4.176  1.4819 -1.3917  1.0650
  159MOL0     H21429   6.527   4.555   4.215  0.3724 -0.9616  0.5026
  159MOL0     H21430   6.323   4.451   4.291 -0.6359 -0.7140 -0.6083
  159MOL0     H21431   6.149   4.354   4.454 -0.8052 -1.3557  1.0981
  159MOL0     H21432   6.246   4.393   4.603 -2.0781 -2.2736  1.4019
  159MOL0     H21433   5.953   4.469   4.594 -1.2472  0.9338  4.2711
  159MOL0     H21434   5.983   4.304   4.623 -0.3257 -0.1125  0.6866
  159MOL0     H21435   6.079   4.557   4.768  3.5716  0.6625  2.8175
  159MOL0     H21436   6.155   4.405   4.798  0.2556 -0.0047  0.3289
  159MOL0     H21437   5.951   4.297   4.863  3.0115 -0.4967  3.0862
  159MOL0     H21438   5.970   4.429   4.976 -1.3011  3.5971 -0.5492
  159MOL0     H21439   5.788   4.450   4.732  1.3608 -0.8049 -0.9734
  159MOL0     H21440   5.817   4.573   4.862 -1.5015 -0.2345 -1.5968
  159MOL0     H21441   5.738   4.289   4.897  3.3232  0.3726  1.0355
  159MOL0     H21442   5.728   4.416   5.028  0.4890  3.1569 -0.2867
  159MOL0     H21443   5.547   4.378   4.778  0.0324  1.9371 -0.7739
  159MOL0     H21444   5.539   4.521   4.870 -2.9019 -0.8500 -1.7588
  159MOL0     H21445   5.466   4.382   5.087  0.5315 -3.1512  2.2039
  159MOL0     H21446   5.533   4.242   5.008  0.2840  0.0954 -1.0685
  159MOL0     H21447   6.277   4.772   4.573 -1.5935 -0.3664 -1.0958
  159MOL0     H21448   6.515   4.859   4.489  0.8982  0.9379 -0.4891
  159MOL0     H21449   7.001   4.560   4.389  0.1815  0.1694 -1.8974
  159MOL0     H21450   7.200   4.659   4.496  1.1145 -0.4735 -0.2642
  159MOL0     H21451   8.258   5.576   5.285 -0.4475  0.6485  0.6044
  159MOL0     H21452   8.357   5.636   5.057 -0.5387 -0.5262  1.2353
  159MOL0     H21453   8.540   5.635   4.703 -0.3005 -1.4170  0.9255
  159MOL0     H21454   8.634   5.724   4.492 -1.2037 -0.1261  2.2062
  159MOL0     H21455   8.929   5.813   4.259 -1.4238 -1.1374 -0.6637
  159MOL0     H21456   8.865   5.862   4.421  0.3265 -0.9881  2.1690
  159MOL0     H21457   9.113   5.699   4.419  0.2651  0.0554 -1.5375
  159MOL0     H21458   9.041   5.803   4.549  0.8106  2.4217 -0.0930
  159MOL0     H21459   9.081   6.000   4.408 -3.0937 -0.7850 -2.5229
  159MOL0     H21460   9.145   5.904   4.274 -1.3324 -3.6280 -0.3137
  159MOL0     H21461   9.355   5.867   4.403  4.6567  3.4868  4.2608
  159MOL0     H21462   9.262   5.866   4.554  3.5216 -0.1450  0.9481
  159MOL0     H21463   9.421   6.248   4.558  2.2051 -2.0972  2.8945
  159MOL0     H21464   9.010   5.537   4.574  0.3440  0.1900 -0.5940
  159MOL0     H21465   8.921   5.460   4.800  0.4082 -0.3698 -1.5336
  160MOL0     O21466   5.378   8.628   9.600 -0.3710 -0.4413 -0.3614
  160MOL0     C21467   5.426   8.596   9.487 -0.3154 -0.7116  1.0384
  160MOL0     O21468   5.361   8.549   9.374  0.8832 -0.4535  0.2798
  160MOL0     C21469   5.225   8.561   9.368  0.4390 -0.0881 -0.3187
  160MOL0     C21470   5.161   8.445   9.345 -0.0589  0.2501  0.6436
  160MOL0     C21471   5.022   8.457   9.331  1.3786  0.0736  0.2252
  160MOL0     C21472   4.954   8.574   9.319 -0.1401  0.2386  1.5472
  160MOL0     O21473   4.824   8.563   9.289  0.4459 -0.1932 -0.1620
  160MOL0     C21474   4.760   8.634   9.178  0.0836  0.3522  0.4902
  160MOL0     C21475   4.606   8.630   9.193  0.4860  0.0632 -0.5074
  160MOL0     C21476   4.529   8.718   9.100 -0.6807 -0.0859  0.1563
  160MOL0     C21477   4.374   8.710   9.124  0.3557 -0.3448  0.6580
  160MOL0     C21478   4.309   8.764   8.998  0.3148  0.9665  0.6721
  160MOL0     C21479   4.158   8.793   9.020 -0.0941  0.1380  0.2482
  160MOL0     C21480   4.093   8.811   8.876  0.6003  0.3920  0.0867
  160MOL0     C21481   3.965   8.889   8.878 -0.1320 -0.0204  0.1219
  160MOL0     N21482   3.891   8.879   8.752  0.5868 -0.0821  0.2658
  160MOL0     C21483   3.883   8.767   8.665  0.2084 -0.5758 -0.6030
  160MOL0     C21484   3.826   8.804   8.550 -0.0034 -0.2022 -0.5092
  160MOL0     C21485   3.787   8.715   8.432 -0.0392 -0.0893 -0.8364
  160MOL0     C21486   3.681   8.607   8.468 -0.2659 -0.2571 -0.4023
  160MOL0     C21487   3.658   8.512   8.348  0.3251 -0.4064 -0.4817
  160MOL0     C21488   3.579   8.383   8.389 -0.3461 -0.5311 -0.1396
  160MOL0     O21489   3.595   8.295   8.275 -0.1621  0.5325 -0.8348
  160MOL0     C21490   3.520   8.179   8.257 -0.1704  0.1187  0.2559
  160MOL0     C21491   3.542   8.104   8.139 -0.3568 -0.3261 -0.1204
  160MOL0     C21492   3.482   7.981   8.112  0.0247  0.9204  1.3079
  160MOL0     C21493   3.526   7.896   7.985 -0.5477  0.7065  0.4263
  160MOL0     C21494   3.377   7.943   8.199 -0.3532  0.5617 -0.0270
  160MOL0     C21495   3.296   7.822   8.181  1.3000  0.2014 -0.4157
  160MOL0     O21496   3.217   7.788   8.292  0.0877 -0.3063  0.1697
  160MOL0     C21497   3.103   7.722   8.250  0.3111 -0.6397 -0.2834
  160MOL0     C21498   2.998   7.800   8.207  1.0103  0.0999 -0.8720
  160MOL0     C21499   2.876   7.744   8.165  0.6130  0.9237  0.0182
  160MOL0     C21500   2.859   7.607   8.181 -0.3848  0.6368  0.6762
  160MOL0     O21501   2.742   7.538   8.170 -0.3636  0.7302 -0.0269
  160MOL0     C21502   2.626   7.609   8.120 -0.2047  0.0478 -0.0800
  160MOL0     C21503   2.512   7.509   8.077  0.3567  0.0350  0.2620
  160MOL0     C21504   2.465   7.438   8.198 -0.3700 -0.5268 -0.5707
  160MOL0     C21505   2.336   7.361   8.177  0.2831  0.9458  0.3538
  160MOL0     C21506   2.359   7.224   8.120  0.0352  0.2302 -0.9628
  160MOL0     C21507   2.241   7.157   8.075 -0.2722 -0.9039  0.5629
  160MOL0     C21508   2.149   7.112   8.200 -1.3916  1.1724  0.2941
  160MOL0     C21509   2.031   7.032   8.146  0.6869 -0.8704  0.1570
  160MOL0    Cl21510   1.901   7.137   8.082  0.1272  0.1011  0.2021
  160MOL0     C21511   2.962   7.523   8.237  0.0985  0.1854  0.3189
  160MOL0     C21512   3.084   7.584   8.262 -0.2453  0.0408  0.1724
  160MOL0     O21513   3.291   7.765   8.071  0.4377  0.3798 -0.3609
  160MOL0     C21514   3.333   8.030   8.302 -0.8871 -0.8921 -0.1689
  160MOL0     C21515   3.414   8.137   8.338 -0.1992 -0.2014 -0.2425
  160MOL0     N21516   3.798   8.936   8.564 -0.0766  0.9566  0.3694
  160MOL0     N21517   3.837   8.975   8.687  0.3634 -0.4054  0.0735
  160MOL0     C21518   5.018   8.689   9.333  0.3651 -0.8724  0.5666
  160MOL0     C21519   5.153   8.687   9.371 -0.1761  0.7660 -0.6902
  160MOL0     C21520   5.574   8.589   9.487 -0.6815 -0.5037 -0.7336
  160MOL0     C21521   5.641   8.619   9.603 -0.5138 -0.7674  0.2814
  160MOL0     C21522   5.777   8.601   9.607 -0.2109  0.2966  1.1354
  160MOL0     C21523   5.857   8.575   9.488 -0.0571 -0.5587 -0.6528
  160MOL0     O21524   5.997   8.604   9.482  0.8473  0.2693 -0.4861
  160MOL0     C21525   6.063   8.618   9.609  0.2860 -0.7791  0.1075
  160MOL0     C21526   6.213   8.614   9.596 -0.7720  0.4036 -0.5373
  160MOL0     C21527   6.265   8.755   9.573  0.1549 -0.1951 -0.6846
  160MOL0     C21528   6.409   8.749   9.528 -0.4826 -0.0185  0.3148
  160MOL0     C21529   6.466   8.873   9.571 -0.0001  0.2573  0.3090
  160MOL0     C21530   6.513   8.982   9.592 -0.6691  0.5322  0.2909
  160MOL0     C21531   5.789   8.566   9.373  0.4174 -0.0543  0.0510
  160MOL0     C21532   5.648   8.546   9.369 -0.0078 -0.0245 -0.0649
  160MOL0     H21533   5.223   8.356   9.348  0.0071  0.3190  1.6502
  160MOL0     H21534   4.961   8.367   9.329 -0.9841  1.5684  1.1487
  160MOL0     H21535   4.796   8.736   9.163 -0.9780  0.4383 -1.8566
  160MOL0     H21536   4.796   8.569   9.098  3.6538  2.2298  0.3990
  160MOL0     H21537   4.569   8.528   9.179 -1.1887  0.7845 -1.6709
  160MOL0     H21538   4.582   8.663   9.294  4.1015  0.6764  0.3140
  160MOL0     H21539   4.571   8.819   9.089  3.0673 -1.5441 -0.1746
  160MOL0     H21540   4.544   8.673   9.002 -3.1845 -0.1641 -0.2456
  160MOL0     H21541   4.351   8.604   9.136 -4.2578  0.7011  3.7642
  160MOL0     H21542   4.339   8.764   9.213 -1.8576 -1.7214  0.6962
  160MOL0     H21543   4.362   8.854   8.962  1.5450 -1.4341 -4.4733
  160MOL0     H21544   4.323   8.689   8.920 -3.0125  1.5245 -0.6237
  160MOL0     H21545   4.103   8.724   9.084  0.7843  0.2219  1.1281
  160MOL0     H21546   4.166   8.883   9.082  1.9881  0.5330 -0.4807
  160MOL0     H21547   4.161   8.862   8.807 -0.6975  0.1811 -1.3878
  160MOL0     H21548   4.078   8.713   8.831 -2.2234  0.7077  0.1907
  160MOL0     H21549   4.000   8.991   8.897 -0.5052 -0.2176  2.0072
  160MOL0     H21550   3.894   8.844   8.948 -1.6314 -1.5367 -2.2021
  160MOL0     H21551   3.922   8.671   8.698  0.2228  1.1476  5.7512
  160MOL0     H21552   3.748   8.774   8.349 -3.5876 -0.2004  0.5645
  160MOL0     H21553   3.883   8.673   8.402  0.8541  1.4573 -0.2614
  160MOL0     H21554   3.585   8.656   8.488  0.1363  1.8879 -3.1772
  160MOL0     H21555   3.706   8.557   8.562 -3.8629  4.7326  3.7850
  160MOL0     H21556   3.751   8.481   8.298  0.3903 -1.3329  0.1984
  160MOL0     H21557   3.592   8.566   8.279 -2.2644 -0.7493  1.5671
  160MOL0     H21558   3.475   8.413   8.401  0.0634  2.1591 -2.2572
  160MOL0     H21559   3.622   8.344   8.482  3.6496 -1.2695 -2.0748
  160MOL0     H21560   3.615   8.135   8.064 -0.3214 -0.6644 -0.2268
  160MOL0     H21561   3.452   7.895   7.905 -2.2076  2.5896  1.8246
  160MOL0     H21562   3.618   7.937   7.944  1.4437 -1.6092  2.2483
  160MOL0     H21563   3.555   7.796   8.019 -2.5027  0.2768  0.9594
  160MOL0     H21564   3.008   7.907   8.193 -0.8276  0.3872 -0.2644
  160MOL0     H21565   2.792   7.801   8.128  0.0376  0.2288  0.2264
  160MOL0     H21566   2.583   7.690   8.180 -2.4141 -2.4083  1.9265
  160MOL0     H21567   2.662   7.656   8.028 -0.2467  2.8266  1.2468
  160MOL0     H21568   2.427   7.565   8.036 -0.6581 -1.0819  0.7862
  160MOL0     H21569   2.537   7.431   8.005  0.2036  0.1127  0.1259
  160MOL0     H21570   2.453   7.511   8.279 -0.7604  0.3123 -1.3826
  160MOL0     H21571   2.548   7.372   8.226 -2.6301 -3.4950 -0.3875
  160MOL0     H21572   2.281   7.354   8.272 -3.0254  0.8797 -1.3987
  160MOL0     H21573   2.257   7.405   8.116 -0.0991  1.4583  1.2056
  160MOL0     H21574   2.417   7.163   8.191 -0.2719 -0.2327 -1.0989
  160MOL0     H21575   2.429   7.234   8.038  1.5773  1.6240  0.4491
  160MOL0     H21576   2.180   7.216   8.007 -0.4852 -1.9096 -0.1488
  160MOL0     H21577   2.266   7.071   8.012 -0.9476 -0.7127  0.0305
  160MOL0     H21578   2.122   7.203   8.254  2.1320  1.2930  2.1476
  160MOL0     H21579   2.210   7.045   8.262 -2.3933 -2.1303 -2.0067
  160MOL0     H21580   1.994   6.975   8.231  0.2918 -1.6786 -0.5434
  160MOL0     H21581   2.067   6.968   8.065  1.9665 -1.6016  1.2510
  160MOL0     H21582   2.946   7.424   8.277  1.3294 -0.0041  0.3703
  160MOL0     H21583   3.168   7.529   8.303  2.1922  3.9358  0.9382
  160MOL0     H21584   3.252   8.000   8.367 -1.3471  2.0208  0.7346
  160MOL0     H21585   3.388   8.172   8.437  0.5959 -2.3976  0.8015
  160MOL0     H21586   4.950   8.774   9.339  0.4926 -0.8287  1.4578
  160MOL0     H21587   5.210   8.777   9.395 -1.1789  1.8535 -2.2040
  160MOL0     H21588   5.599   8.638   9.701 -1.1787  1.5547 -0.4036
  160MOL0     H21589   5.822   8.614   9.705 -0.7058  0.7954  1.3043
  160MOL0     H21590   6.039   8.710   9.663 -3.1227 -2.0729  1.0773
  160MOL0     H21591   6.032   8.535   9.674  2.2362 -0.3587  1.6759
  160MOL0     H21592   6.234   8.561   9.502  2.9119 -0.9616  0.8750
  160MOL0     H21593   6.259   8.560   9.679 -0.2346 -0.4586 -1.3779
  160MOL0     H21594   6.248   8.797   9.672 -2.1263 -4.8406  1.1676
  160MOL0     H21595   6.197   8.799   9.500 -2.2553 -1.7185  0.5380
  160MOL0     H21596   6.437   8.728   9.425 -0.3365  0.6057  0.2208
  160MOL0     H21597   6.460   8.663   9.570  0.2113 -0.3182 -1.1102
  160MOL0     H21598   6.550   9.083   9.592 -1.5609  0.8872 -0.9585
  160MOL0     H21599   5.862   8.554   9.294  1.6140  1.2564  0.9245
  160MOL0     H21600   5.591   8.504   9.286 -2.5315  1.1250  0.9800
  161MOL0     O21601  10.081   0.485   0.081  0.2185  0.8487 -0.3003
  161MOL0     C21602  10.136   0.385   0.035  0.9716 -0.0983  0.9505
  161MOL0     O21603  10.073   0.268   0.011 -0.7074 -0.2690  0.6274
  161MOL0     C21604   9.948   0.249   0.068  0.2015 -0.4575  0.0659
  161MOL0     C21605   9.829   0.274  -0.002  0.1660 -0.4222  0.4956
  161MOL0     C21606   9.710   0.263   0.054  0.8055 -0.0603 -0.1324
  161MOL0     C21607   9.692   0.202   0.183  0.4463 -0.6261 -0.9097
  161MOL0     O21608   9.584   0.191   0.257 -0.1676  0.2742 -0.1341
  161MOL0     C21609   9.462   0.248   0.198  0.1294 -0.5834 -0.6665
  161MOL0     C21610   9.368   0.236   0.322  0.0581  0.4972  0.1550
  161MOL0     C21611   9.227   0.286   0.294 -0.1864 -0.9603 -0.0657
  161MOL0     C21612   9.153   0.213   0.183  0.1260  1.0020  0.6463
  161MOL0     C21613   9.002   0.257   0.181  0.0663 -0.4611 -0.2152
  161MOL0     C21614   8.948   0.222   0.047 -0.4385 -1.0700  0.3257
  161MOL0     C21615   8.807   0.266   0.019 -0.9063  0.1378 -0.0935
  161MOL0     C21616   8.770   0.255  -0.130 -0.6978  0.9830 -0.4203
  161MOL0     N21617   8.852   0.339  -0.223  0.9361  0.5533  0.4355
  161MOL0     C21618   8.824   0.462  -0.275 -0.8212 -0.4785 -0.3331
  161MOL0     C21619   8.918   0.496  -0.371 -0.5304 -0.5080  0.3350
  161MOL0     C21620   8.949   0.606  -0.469  0.8690 -0.4016  0.3430
  161MOL0     C21621   9.081   0.609  -0.533  0.3050  0.0773  0.1199
  161MOL0     C21622   9.201   0.666  -0.456  0.2437 -0.4530 -0.8836
  161MOL0     C21623   9.317   0.681  -0.549 -0.6045 -0.4880  0.0655
  161MOL0     O21624   9.450   0.669  -0.484 -0.4562 -0.8127  0.2086
  161MOL0     C21625   9.558   0.648  -0.576 -0.6342  0.4679 -0.5857
  161MOL0     C21626   9.566   0.675  -0.710 -1.2179 -0.1337 -0.1752
  161MOL0     C21627   9.683   0.644  -0.786 -0.0450 -0.3499  0.5087
  161MOL0     C21628   9.677   0.675  -0.937 -0.2368  0.7670 -0.0747
  161MOL0     C21629   9.801   0.587  -0.716 -0.6545  0.0520  0.4299
  161MOL0     C21630   9.931   0.557  -0.784  0.5557  0.4519  0.2459
  161MOL0     O21631  10.050   0.547  -0.713 -0.5895 -0.1626 -0.5165
  161MOL0     C21632  10.165   0.560  -0.787 -0.0827  0.6758 -0.3665
  161MOL0     C21633  10.234   0.675  -0.781  0.1461 -0.5887  0.3579
  161MOL0     C21634  10.354   0.700  -0.846 -1.0058 -0.4648  0.5566
  161MOL0     C21635  10.419   0.592  -0.908 -0.3412 -0.0270 -0.3291
  161MOL0     O21636  10.533   0.592  -0.985  0.1562  0.4027 -1.0366
  161MOL0     C21637  10.643   0.670  -0.931 -0.2272  0.3206  0.2426
  161MOL0     C21638  10.770   0.635  -1.000  0.1013  1.3494 -0.3373
  161MOL0     C21639  10.884   0.717  -0.937  1.0185  0.6166  0.2470
  161MOL0     C21640  11.019   0.672  -0.989 -0.1175  0.8117  0.2464
  161MOL0     C21641  11.133   0.752  -0.920 -0.5062  0.3254  0.6008
  161MOL0     C21642  11.268   0.688  -0.944  0.5572 -0.2218  0.0292
  161MOL0     C21643  11.385   0.740  -0.851  0.4058 -0.2658  1.0436
  161MOL0     C21644  11.523   0.693  -0.893  0.4870  0.2073  0.4296
  161MOL0    Cl21645  11.590   0.783  -1.028  0.2889 -0.5054 -0.3537
  161MOL0     C21646  10.348   0.474  -0.922  0.9018  0.1909 -0.2071
  161MOL0     C21647  10.220   0.462  -0.874 -0.3061  0.1356 -0.5168
  161MOL0     O21648   9.921   0.540  -0.905 -0.0529 -0.0824 -0.2459
  161MOL0     C21649   9.788   0.556  -0.581  0.0676  0.4188  0.4012
  161MOL0     C21650   9.667   0.591  -0.512  0.0785 -0.2465 -1.2855
  161MOL0     N21651   8.990   0.383  -0.373  0.3686  0.3324 -0.3771
  161MOL0     N21652   8.968   0.290  -0.280  0.6772 -0.7270  0.6201
  161MOL0     C21653   9.801   0.155   0.247  0.1963 -0.1882 -0.1061
  161MOL0     C21654   9.927   0.183   0.191 -0.5466 -0.3786  0.2033
  161MOL0     C21655  10.282   0.394  -0.005 -0.0123 -1.0294 -0.7455
  161MOL0     C21656  10.367   0.487   0.057 -0.9486 -0.6332 -0.4767
  161MOL0     C21657  10.503   0.491   0.023 -0.3413 -0.0487 -0.6547
  161MOL0     C21658  10.550   0.413  -0.083 -0.7111  0.5181  0.2050
  161MOL0     O21659  10.675   0.433  -0.136  0.2775 -0.1963 -0.0779
  161MOL0     C21660  10.776   0.523  -0.097  0.0802  0.6466 -0.3993
  161MOL0     C21661  10.746   0.665  -0.139 -0.7343 -0.4514 -0.9774
  161MOL0     C21662  10.881   0.740  -0.148 -0.1767  0.0194 -0.0571
  161MOL0     C21663  10.851   0.889  -0.153 -0.9480 -0.5698  0.9389
  161MOL0     C21664  10.959   0.971  -0.095 -0.3792  0.6865 -1.1451
  161MOL0     C21665  11.042   1.053  -0.059 -0.1456 -0.4004  0.1244
  161MOL0     C21666  10.465   0.319  -0.154 -0.3695  0.0074  0.0179
  161MOL0     C21667  10.328   0.315  -0.112 -0.0670  0.3920  0.4114
  161MOL0     H21668   9.849   0.320  -0.099  2.4292  1.0481  1.5722
  161MOL0     H21669   9.616   0.286   0.003  0.3202 -1.4715  0.0927
  161MOL0     H21670   9.480   0.355   0.181  0.4511 -0.5742 -0.2865
  161MOL0     H21671   9.424   0.202   0.106  0.2368  1.3393 -1.7298
  161MOL0     H21672   9.358   0.132   0.356  0.2472  1.1192  2.2539
  161MOL0     H21673   9.416   0.298   0.399 -0.3034 -1.1994  1.8335
  161MOL0     H21674   9.168   0.271   0.385  0.5311 -0.3037  0.5211
  161MOL0     H21675   9.229   0.391   0.264 -0.0151 -1.7028 -2.8616
  161MOL0     H21676   9.191   0.254   0.088 -0.8118  2.2019  0.7620
  161MOL0     H21677   9.165   0.105   0.195  1.8423  0.8817 -1.3673
  161MOL0     H21678   8.947   0.207   0.263 -0.1332  1.0059  0.5784
  161MOL0     H21679   8.992   0.365   0.191 -0.2166 -0.4158 -0.9274
  161MOL0     H21680   9.006   0.270  -0.032 -3.7281  1.9337 -0.5449
  161MOL0     H21681   8.951   0.113   0.051 -2.2720 -1.1367  1.1962
  161MOL0     H21682   8.748   0.200   0.083 -1.2294  0.1286 -0.3987
  161MOL0     H21683   8.800   0.369   0.055  0.9037  0.4360 -0.4990
  161MOL0     H21684   8.669   0.291  -0.146 -0.3980  1.8634 -0.3879
  161MOL0     H21685   8.778   0.152  -0.165 -0.6453  0.7715  0.2056
  161MOL0     H21686   8.741   0.526  -0.248 -3.2690 -4.2694  2.0030
  161MOL0     H21687   8.883   0.603  -0.556 -0.9807 -1.3042  1.7197
  161MOL0     H21688   8.921   0.701  -0.422 -1.5460 -1.6487  1.5908
  161MOL0     H21689   9.075   0.659  -0.630  0.0609  1.2599  0.7286
  161MOL0     H21690   9.097   0.504  -0.560 -1.2901  0.1417 -1.2131
  161MOL0     H21691   9.230   0.613  -0.364  0.6741 -1.0823 -1.3747
  161MOL0     H21692   9.180   0.770  -0.429  0.3190 -1.2759  2.8565
  161MOL0     H21693   9.287   0.774  -0.597 -0.8969 -0.2849  0.6369
  161MOL0     H21694   9.305   0.611  -0.633  0.4679 -0.5602 -0.0352
  161MOL0     H21695   9.477   0.714  -0.759 -1.2449 -0.2928 -0.2531
  161MOL0     H21696   9.580   0.714  -0.967 -1.3638  1.0336  3.4333
  161MOL0     H21697   9.755   0.747  -0.965  0.5085  0.4676  1.1401
  161MOL0     H21698   9.692   0.580  -0.990 -0.9256  0.6196 -0.0103
  161MOL0     H21699  10.196   0.757  -0.720  1.7436  3.1032 -3.1191
  161MOL0     H21700  10.403   0.797  -0.845  0.2453 -1.0315 -0.8633
  161MOL0     H21701  10.624   0.775  -0.957 -0.8194  0.2257  0.2779
  161MOL0     H21702  10.648   0.662  -0.822 -2.2395  0.3463  0.3761
  161MOL0     H21703  10.790   0.527  -0.996 -0.8473  1.1619 -0.4680
  161MOL0     H21704  10.761   0.656  -1.107 -0.4417  0.9290 -0.3799
  161MOL0     H21705  10.866   0.713  -0.829  0.8232  3.4102  0.4015
  161MOL0     H21706  10.866   0.823  -0.961 -2.0139  0.1529  0.0535
  161MOL0     H21707  11.032   0.564  -0.978  0.3593  0.4290 -3.0134
  161MOL0     H21708  11.016   0.671  -1.098 -1.8247  0.8144  0.2752
  161MOL0     H21709  11.116   0.756  -0.812  0.3917 -0.2538  0.7697
  161MOL0     H21710  11.137   0.860  -0.940  2.4535  0.6424  2.2302
  161MOL0     H21711  11.240   0.582  -0.950 -1.0173  0.2004 -0.5511
  161MOL0     H21712  11.296   0.718  -1.045 -0.2676 -3.3759 -1.2696
  161MOL0     H21713  11.362   0.690  -0.757 -0.5509 -2.2819 -0.1902
  161MOL0     H21714  11.386   0.847  -0.827  2.9464  0.3346 -1.2297
  161MOL0     H21715  11.521   0.591  -0.933 -3.4918  0.4971 -0.4989
  161MOL0     H21716  11.595   0.696  -0.811  0.9223  2.4133  0.0448
  161MOL0     H21717  10.388   0.387  -0.973  2.3039  0.2298  0.7578
  161MOL0     H21718  10.162   0.380  -0.914  3.6427 -0.7074 -5.5756
  161MOL0     H21719   9.866   0.511  -0.521 -0.8239 -0.6356  0.8086
  161MOL0     H21720   9.673   0.578  -0.404 -0.9829 -1.7878 -1.3802
  161MOL0     H21721   9.791   0.107   0.344  0.8764  2.2096  1.2339
  161MOL0     H21722  10.022   0.161   0.240  0.9086  0.7863 -1.9420
  161MOL0     H21723  10.326   0.553   0.133 -2.0743 -2.2450  0.3959
  161MOL0     H21724  10.571   0.570   0.054 -0.9834  1.6381 -3.1899
  161MOL0     H21725  10.802   0.504   0.008 -1.0743 -0.7452 -0.3374
  161MOL0     H21726  10.865   0.485  -0.149 -0.6702 -2.5535  0.4317
  161MOL0     H21727  10.691   0.708  -0.055  0.4327 -0.3914 -0.2261
  161MOL0     H21728  10.685   0.674  -0.229 -0.8823 -0.5638 -0.8872
  161MOL0     H21729  10.950   0.701  -0.224  1.9273  1.9018  0.7853
  161MOL0     H21730  10.943   0.726  -0.059 -1.1113 -0.5407  0.5217
  161MOL0     H21731  10.755   0.916  -0.107 -2.2411  1.5605 -2.6215
  161MOL0     H21732  10.858   0.905  -0.260  3.0905 -1.4510  0.9033
  161MOL0     H21733  11.120   1.124  -0.037 -0.5777  1.3224 -3.2836
  161MOL0     H21734  10.495   0.262  -0.241 -3.0941 -0.3838 -0.7813
  161MOL0     H21735  10.257   0.248  -0.159  0.6511  0.6486 -1.0960
  162MOL0     O21736   3.984   7.256   5.322 -0.7682  0.2158  0.1082
  162MOL0     C21737   3.920   7.354   5.358 -0.1560 -0.0818  0.1471
  162MOL0     O21738   3.824   7.354   5.459 -0.6783 -0.2901  0.0313
  162MOL0     C21739   3.795   7.246   5.539 -0.3450 -0.2348  0.8141
  162MOL0     C21740   3.676   7.264   5.609 -0.5209  0.1041 -0.1781
  162MOL0     C21741   3.629   7.167   5.702 -0.0509  0.2503  1.0217
  162MOL0     C21742   3.695   7.039   5.705  0.8176  0.4616  0.2189
  162MOL0     O21743   3.646   6.932   5.775  0.7966  1.2189 -0.5152
  162MOL0     C21744   3.509   6.903   5.776 -0.2547  0.4508  0.3467
  162MOL0     C21745   3.483   6.752   5.780  0.4267  0.6944  0.2074
  162MOL0     C21746   3.542   6.689   5.908 -0.5823  0.3625 -0.5432
  162MOL0     C21747   3.431   6.630   6.006  0.2117  0.0552 -0.1144
  162MOL0     C21748   3.466   6.620   6.155  0.4917 -0.7053 -0.4385
  162MOL0     C21749   3.362   6.541   6.241 -0.1870  0.1431  0.4405
  162MOL0     C21750   3.237   6.629   6.259  0.2957 -0.4654  0.2742
  162MOL0     C21751   3.136   6.565   6.358  0.1328  0.0248  0.6303
  162MOL0     N21752   3.012   6.648   6.368  0.3849  0.4863  0.1579
  162MOL0     C21753   2.949   6.698   6.485 -0.6448  0.5214 -0.0326
  162MOL0     C21754   2.837   6.773   6.444 -0.8026 -0.6183  0.2592
  162MOL0     C21755   2.732   6.829   6.532 -0.4296  0.4748  0.9018
  162MOL0     C21756   2.598   6.815   6.469  0.3199 -0.0279 -0.2355
  162MOL0     C21757   2.493   6.855   6.573  0.2948 -0.7327 -0.7836
  162MOL0     C21758   2.345   6.853   6.523 -0.3533 -0.3173  0.0906
  162MOL0     O21759   2.341   6.955   6.425 -0.5523  0.1212  0.2909
  162MOL0     C21760   2.223   6.995   6.362 -0.0541 -0.4819  0.7159
  162MOL0     C21761   2.209   7.126   6.341  0.0438 -0.2903  0.2752
  162MOL0     C21762   2.088   7.181   6.296 -0.0612 -0.0088 -0.7779
  162MOL0     C21763   2.090   7.333   6.272 -0.4430  0.1702  0.4721
  162MOL0     C21764   1.980   7.098   6.271  0.7144 -0.8424  0.6351
  162MOL0     C21765   1.849   7.150   6.209 -0.1567  0.6587 -0.9055
  162MOL0     O21766   1.740   7.075   6.220 -0.3996  0.2601  0.0032
  162MOL0     C21767   1.616   7.138   6.204  0.1259  0.3322  0.4034
  162MOL0     C21768   1.512   7.131   6.296  0.5883  0.5288  0.3024
  162MOL0     C21769   1.387   7.195   6.278  0.9297 -0.6390 -0.1807
  162MOL0     C21770   1.360   7.251   6.155  0.4309 -0.7239  0.1185
  162MOL0     O21771   1.245   7.328   6.152  0.4167 -0.3349 -0.4731
  162MOL0     C21772   1.229   7.404   6.034  0.4261 -0.5870  0.0289
  162MOL0     C21773   1.093   7.485   6.057  0.4145 -0.4371 -0.3031
  162MOL0     C21774   0.984   7.486   5.946 -0.3383 -0.3870 -1.4381
  162MOL0     C21775   0.886   7.378   5.978 -0.2507 -0.0092 -0.1785
  162MOL0     C21776   0.778   7.355   5.874 -0.2975  0.8567  0.3979
  162MOL0     C21777   0.717   7.485   5.819  0.2671 -0.2932 -0.0614
  162MOL0     C21778   0.603   7.467   5.723 -0.2061 -0.3400 -0.5169
  162MOL0     C21779   0.565   7.600   5.655 -0.2220  0.6825  0.0263
  162MOL0    Cl21780   0.540   7.726   5.791  0.0883  0.2108 -0.0175
  162MOL0     C21781   1.451   7.247   6.052 -0.6184 -0.0570 -0.0424
  162MOL0     C21782   1.575   7.193   6.073 -0.0730 -0.0953  0.1844
  162MOL0     O21783   1.845   7.265   6.160  0.5890 -0.1721  0.3499
  162MOL0     C21784   1.998   6.956   6.272 -0.4823  0.5233 -0.8955
  162MOL0     C21785   2.120   6.909   6.327 -0.7156  0.7912  0.8843
  162MOL0     N21786   2.842   6.764   6.307 -0.3315 -0.5660 -0.0554
  162MOL0     N21787   2.950   6.707   6.261  0.0119 -0.5620  0.1654
  162MOL0     C21788   3.807   7.021   5.624  0.4773  0.0242  0.6783
  162MOL0     C21789   3.859   7.122   5.543  0.2278  0.0233 -0.2964
  162MOL0     C21790   3.945   7.485   5.298  0.0771 -0.2605 -0.2275
  162MOL0     C21791   3.865   7.596   5.344 -0.6457 -0.1787 -1.2952
  162MOL0     C21792   3.888   7.731   5.306 -0.5408 -0.0848 -0.8000
  162MOL0     C21793   3.981   7.756   5.202  1.3727 -0.3538  0.1689
  162MOL0     O21794   4.021   7.886   5.175  0.2168 -0.4760 -0.3556
  162MOL0     C21795   3.928   7.991   5.223  0.1690 -0.0128  0.2773
  162MOL0     C21796   3.980   8.126   5.166 -0.0461 -0.1915 -0.8716
  162MOL0     C21797   3.914   8.241   5.242  0.1198 -0.1519 -0.1382
  162MOL0     C21798   3.915   8.385   5.175 -0.6256  0.4152 -0.2069
  162MOL0     C21799   4.055   8.436   5.156  0.1889  0.9252 -0.3094
  162MOL0     C21800   4.164   8.484   5.117  0.4025  0.4059 -0.9309
  162MOL0     C21801   4.049   7.649   5.145  0.9322 -1.1635  0.1807
  162MOL0     C21802   4.032   7.517   5.193 -0.7297  0.1345 -0.1295
  162MOL0     H21803   3.625   7.360   5.609  0.2670  0.6220  2.6617
  162MOL0     H21804   3.540   7.179   5.762 -0.1965  1.3618  0.6107
  162MOL0     H21805   3.447   6.948   5.854 -1.1415 -0.0414 -0.0620
  162MOL0     H21806   3.466   6.943   5.684  1.5974 -2.4255 -1.9643
  162MOL0     H21807   3.376   6.727   5.777  0.8891 -1.6963  0.8591
  162MOL0     H21808   3.539   6.704   5.699  0.3882 -0.4539  0.8334
  162MOL0     H21809   3.611   6.605   5.891  2.3863  1.9451  2.5425
  162MOL0     H21810   3.583   6.766   5.974  1.7073  0.4592 -1.9690
  162MOL0     H21811   3.344   6.696   6.009  0.5405  0.5715  4.4075
  162MOL0     H21812   3.408   6.527   5.977  0.3055 -1.0698  3.3970
  162MOL0     H21813   3.562   6.570   6.166  2.7280  3.3065  0.4451
  162MOL0     H21814   3.473   6.722   6.195 -2.3267  0.0854 -1.6997
  162MOL0     H21815   3.355   6.439   6.202 -0.5121  1.3802 -3.1064
  162MOL0     H21816   3.406   6.526   6.340 -1.2609  0.9949  1.0660
  162MOL0     H21817   3.265   6.724   6.305 -2.1060 -0.1888  1.3084
  162MOL0     H21818   3.199   6.649   6.159 -2.0940 -1.4590  0.9013
  162MOL0     H21819   3.184   6.539   6.453  0.0344 -1.4794  0.2852
  162MOL0     H21820   3.100   6.473   6.311 -1.3991  0.6282  0.5736
  162MOL0     H21821   2.972   6.673   6.588 -1.2067 -1.2571 -0.2991
  162MOL0     H21822   2.745   6.779   6.628  0.2148 -0.2951  0.4306
  162MOL0     H21823   2.747   6.936   6.546  0.9963  0.2566  1.1543
  162MOL0     H21824   2.576   6.710   6.443 -0.9214  0.8761 -3.3283
  162MOL0     H21825   2.593   6.881   6.382 -1.8027  0.8852  0.5118
  162MOL0     H21826   2.510   6.959   6.602 -2.8955 -0.0620 -0.9443
  162MOL0     H21827   2.486   6.798   6.666 -1.4984  0.6477 -0.0282
  162MOL0     H21828   2.270   6.879   6.599  1.1625  2.6273  0.7356
  162MOL0     H21829   2.338   6.754   6.476  3.3155  0.3870 -2.3965
  162MOL0     H21830   2.295   7.188   6.361  0.4083 -0.5920 -0.3354
  162MOL0     H21831   2.013   7.387   6.329  0.2142 -0.0473  1.6084
  162MOL0     H21832   2.182   7.383   6.303 -1.9941  3.7430 -0.0826
  162MOL0     H21833   2.079   7.362   6.167 -1.5359  0.6727  0.7058
  162MOL0     H21834   1.529   7.086   6.393  0.8502  2.0013  0.9619
  162MOL0     H21835   1.315   7.204   6.358 -2.0269 -0.1274 -2.6989
  162MOL0     H21836   1.304   7.482   6.020 -0.4480  0.5499  1.4448
  162MOL0     H21837   1.224   7.347   5.940  2.9100  0.1348 -0.6350
  162MOL0     H21838   1.056   7.439   6.149 -2.3325 -0.0933 -1.1540
  162MOL0     H21839   1.102   7.592   6.077 -3.1386 -0.5581  3.2638
  162MOL0     H21840   1.036   7.471   5.851  0.1354  2.4237 -1.6992
  162MOL0     H21841   0.936   7.584   5.941  0.6953  0.3104  1.0402
  162MOL0     H21842   0.951   7.290   5.977  1.6843  1.3524 -1.7002
  162MOL0     H21843   0.858   7.397   6.082  2.4455  0.2622  0.5871
  162MOL0     H21844   0.705   7.288   5.920 -1.8905  0.7379 -2.0931
  162MOL0     H21845   0.816   7.291   5.794 -2.5174 -1.1367  0.8523
  162MOL0     H21846   0.682   7.546   5.903  0.3263 -0.6044  0.1913
  162MOL0     H21847   0.789   7.551   5.771 -3.4403  0.5858 -5.2185
  162MOL0     H21848   0.526   7.412   5.778  1.7008 -0.3501  2.3788
  162MOL0     H21849   0.642   7.399   5.647 -0.7332 -2.5856  1.1081
  162MOL0     H21850   0.473   7.589   5.596  0.8901  0.8747 -1.8532
  162MOL0     H21851   0.644   7.643   5.593 -0.7902  2.1610  0.2680
  162MOL0     H21852   1.438   7.286   5.952 -1.2680  0.9160  0.4117
  162MOL0     H21853   1.643   7.202   5.989 -3.4200  0.5111 -2.6716
  162MOL0     H21854   1.919   6.887   6.244 -1.7096  2.0662 -1.3943
  162MOL0     H21855   2.125   6.801   6.338 -1.7231  0.4041 -1.8294
  162MOL0     H21856   3.857   6.925   5.635 -1.6601 -1.6018 -2.3098
  162MOL0     H21857   3.959   7.105   5.503 -0.3300 -0.0117 -1.7438
  162MOL0     H21858   3.784   7.584   5.415 -0.4282  1.3576 -0.7458
  162MOL0     H21859   3.817   7.808   5.334 -3.4679 -2.3050 -1.5250
  162MOL0     H21860   3.825   7.976   5.188  0.2278  2.3158 -1.0783
  162MOL0     H21861   3.930   7.988   5.333  4.3056  1.2195  0.4082
  162MOL0     H21862   3.957   8.131   5.059  1.1393 -2.9043 -1.3367
  162MOL0     H21863   4.085   8.142   5.190 -0.3355 -0.9789  1.0769
  162MOL0     H21864   3.945   8.253   5.346 -1.3069  4.2449 -0.0183
  162MOL0     H21865   3.809   8.211   5.253  0.6093 -1.5465  1.0127
  162MOL0     H21866   3.861   8.457   5.238 -0.9695  1.1703 -1.3371
  162MOL0     H21867   3.864   8.377   5.079 -0.6746  0.9570 -0.2325
  162MOL0     H21868   4.249   8.519   5.062 -0.8149  2.0837 -1.8595
  162MOL0     H21869   4.136   7.675   5.086  1.8308 -0.7176  1.6543
  162MOL0     H21870   4.110   7.446   5.168 -0.3534  0.0268  1.2744
  163MOL0     O21871   0.715   1.115   7.313 -0.2252  0.3206 -0.1974
  163MOL0     C21872   0.766   1.001   7.306  1.2598  0.1728  0.7547
  163MOL0     O21873   0.722   0.900   7.225  0.3667  0.0503 -0.3742
  163MOL0     C21874   0.589   0.920   7.187  0.0591  0.2579 -0.0752
  163MOL0     C21875   0.556   1.007   7.083  0.0824  0.6735  0.9980
  163MOL0     C21876   0.431   1.008   7.027  0.6447 -0.2963 -0.1616
  163MOL0     C21877   0.315   0.951   7.091 -0.6674 -0.8790 -0.7634
  163MOL0     O21878   0.184   0.963   7.053 -0.3188 -0.1212 -0.3751
  163MOL0     C21879   0.076   0.888   7.110  0.2878  0.1466  0.1783
  163MOL0     C21880  -0.049   0.887   7.014 -0.8500  0.0527  0.7332
  163MOL0     C21881  -0.175   0.825   7.074 -0.1474 -0.2546  1.1561
  163MOL0     C21882  -0.247   0.745   6.955  0.3198  0.2680  0.2426
  163MOL0     C21883  -0.396   0.702   6.991  0.6894 -0.4806  0.8161
  163MOL0     C21884  -0.485   0.821   7.013 -0.6896 -0.0292  0.8038
  163MOL0     C21885  -0.622   0.763   7.038 -0.4379  0.2009 -1.0536
  163MOL0     C21886  -0.736   0.866   7.043  0.7100  0.1085  0.1037
  163MOL0     N21887  -0.865   0.806   7.088  0.0078 -0.0045  0.4511
  163MOL0     C21888  -0.892   0.727   7.191  1.0978  0.0763  0.0214
  163MOL0     C21889  -1.031   0.721   7.182 -0.4684  0.7316  0.4708
  163MOL0     C21890  -1.109   0.628   7.269  0.3701  0.0369  0.2370
  163MOL0     C21891  -1.073   0.652   7.413 -0.0627 -0.2339  0.9126
  163MOL0     C21892  -1.142   0.555   7.505  0.6716  0.3980 -0.0218
  163MOL0     C21893  -1.296   0.531   7.500  0.4250 -0.5946 -0.0811
  163MOL0     O21894  -1.336   0.413   7.566  0.4564  0.9638  0.0420
  163MOL0     C21895  -1.434   0.414   7.668 -0.2815 -0.6234 -0.3424
  163MOL0     C21896  -1.443   0.291   7.731  0.6330  0.0399  0.3974
  163MOL0     C21897  -1.533   0.267   7.832 -1.0354  0.6135  0.9693
  163MOL0     C21898  -1.543   0.118   7.868  0.6358 -0.5392  0.9577
  163MOL0     C21899  -1.602   0.380   7.889 -0.3423  0.4060  0.5749
  163MOL0     C21900  -1.689   0.369   8.011  0.6822 -0.1065  0.3628
  163MOL0     O21901  -1.732   0.487   8.059  0.0768 -0.6325 -1.0076
  163MOL0     C21902  -1.840   0.498   8.148 -0.5068  0.2307  0.5812
  163MOL0     C21903  -1.807   0.508   8.289 -1.0383  0.3129  0.5729
  163MOL0     C21904  -1.917   0.506   8.381 -0.3623  1.2823  1.0309
  163MOL0     C21905  -2.044   0.472   8.335  0.2689 -0.4443 -0.6086
  163MOL0     O21906  -2.138   0.445   8.426 -0.2776  0.7076  0.1961
  163MOL0     C21907  -2.280   0.409   8.391 -0.6252 -0.8866  0.3172
  163MOL0     C21908  -2.280   0.259   8.355  0.4805  0.1390 -0.0537
  163MOL0     C21909  -2.410   0.194   8.398  0.1233  0.4285 -0.7586
  163MOL0     C21910  -2.399   0.037   8.380 -0.4169 -0.2191 -0.7237
  163MOL0     C21911  -2.534  -0.036   8.414  0.7339  0.2577 -0.5073
  163MOL0     C21912  -2.573  -0.009   8.559  0.0537 -0.6640  0.0479
  163MOL0     C21913  -2.720  -0.061   8.579 -0.6798 -0.0168 -0.0095
  163MOL0     C21914  -2.761  -0.066   8.726  0.2130 -0.2191 -0.4637
  163MOL0    Cl21915  -2.753   0.099   8.801  0.2335  0.3703 -0.1515
  163MOL0     C21916  -2.070   0.449   8.197 -0.3303 -0.9952 -0.1662
  163MOL0     C21917  -1.966   0.465   8.104  0.0556  0.6858 -0.0175
  163MOL0     O21918  -1.696   0.259   8.065 -0.2658 -0.3217  0.6266
  163MOL0     C21919  -1.593   0.501   7.820 -0.1062 -0.0760 -0.9354
  163MOL0     C21920  -1.509   0.523   7.704 -0.1427  0.1731 -0.4055
  163MOL0     N21921  -1.070   0.801   7.074  0.5390 -0.0615 -0.3839
  163MOL0     N21922  -0.976   0.861   7.022 -0.2834 -0.7167  0.5206
  163MOL0     C21923   0.352   0.883   7.211  0.3605  0.2296  0.5321
  163MOL0     C21924   0.487   0.861   7.251  0.5463 -0.4236 -0.3585
  163MOL0     C21925   0.887   0.962   7.375  0.1130 -0.5303 -0.3272
  163MOL0     C21926   0.973   1.065   7.399  0.2722 -0.6740  0.8203
  163MOL0     C21927   1.094   1.031   7.461 -0.4269  0.3843 -0.4261
  163MOL0     C21928   1.126   0.904   7.504 -0.0003 -0.4625  0.0698
  163MOL0     O21929   1.245   0.866   7.578  0.0865 -0.3440  0.3071
  163MOL0     C21930   1.339   0.973   7.612 -0.4527  0.2929 -0.0113
  163MOL0     C21931   1.431   0.911   7.719 -0.2152  0.4366  0.2724
  163MOL0     C21932   1.542   0.998   7.786  0.5437 -0.3420  1.3615
  163MOL0     C21933   1.615   0.912   7.894 -0.5959  0.1494 -0.1231
  163MOL0     C21934   1.674   0.790   7.837  0.6223 -0.9255  0.7124
  163MOL0     C21935   1.712   0.684   7.802  0.1299  0.9120  0.5466
  163MOL0     C21936   1.038   0.800   7.486  0.9243 -0.0648  0.9650
  163MOL0     C21937   0.921   0.832   7.421  0.6348 -0.0164  0.4268
  163MOL0     H21938   0.647   1.039   7.034  0.4416 -0.3504  0.9650
  163MOL0     H21939   0.433   1.077   6.943  1.0893 -0.1694 -0.0478
  163MOL0     H21940   0.130   0.794   7.128  3.7676  1.9239 -0.0678
  163MOL0     H21941   0.052   0.938   7.204 -0.2519  1.5566 -0.6826
  163MOL0     H21942  -0.074   0.993   7.001 -1.1081 -0.2008 -1.2406
  163MOL0     H21943  -0.019   0.844   6.918  0.1789 -2.2521  2.0145
  163MOL0     H21944  -0.152   0.749   7.149 -1.9104 -0.2914  1.7000
  163MOL0     H21945  -0.236   0.898   7.127 -2.0351 -0.6943 -0.2689
  163MOL0     H21946  -0.257   0.792   6.856 -3.2976 -0.0031  0.3235
  163MOL0     H21947  -0.198   0.647   6.944  0.4926  0.0342  2.6220
  163MOL0     H21948  -0.438   0.642   6.909 -1.3317  2.8225 -0.7711
  163MOL0     H21949  -0.390   0.640   7.081 -0.4835 -2.9387 -0.6862
  163MOL0     H21950  -0.466   0.893   7.092  1.0460 -0.1753  0.5642
  163MOL0     H21951  -0.489   0.876   6.918 -0.3473  1.0179  1.3807
  163MOL0     H21952  -0.645   0.694   6.956 -0.2873 -0.5939 -0.4419
  163MOL0     H21953  -0.622   0.713   7.135  3.1061  2.3418  0.2540
  163MOL0     H21954  -0.739   0.911   6.943 -0.3002  0.9901  0.5080
  163MOL0     H21955  -0.720   0.947   7.115  2.1712 -2.4660  2.8924
  163MOL0     H21956  -0.815   0.680   7.251 -0.8876  2.5804  5.1292
  163MOL0     H21957  -1.218   0.638   7.260  0.0776 -1.3852  1.6597
  163MOL0     H21958  -1.087   0.523   7.246 -1.0437 -0.6835  1.8952
  163MOL0     H21959  -1.098   0.757   7.436 -5.0961 -1.1565  0.8398
  163MOL0     H21960  -0.967   0.648   7.437 -0.0725 -0.6011  0.8976
  163MOL0     H21961  -1.111   0.595   7.602 -0.3731  1.8303 -0.2418
  163MOL0     H21962  -1.100   0.455   7.492  1.1025  0.6186 -0.3359
  163MOL0     H21963  -1.332   0.522   7.397  0.2138 -0.9559  0.0238
  163MOL0     H21964  -1.329   0.631   7.531  4.5962  0.7915  0.5434
  163MOL0     H21965  -1.387   0.214   7.679 -0.9478 -0.6654 -0.3336
  163MOL0     H21966  -1.477   0.085   7.949  1.8946 -1.1448 -0.2655
  163MOL0     H21967  -1.647   0.096   7.896 -0.0799 -0.3879 -1.3983
  163MOL0     H21968  -1.514   0.059   7.780  0.7941 -1.0621  1.3539
  163MOL0     H21969  -1.701   0.523   8.308 -1.1030  1.0855  0.3589
  163MOL0     H21970  -1.903   0.519   8.488  0.1515 -2.6636  1.5915
  163MOL0     H21971  -2.327   0.431   8.487  3.3850 -2.0147  2.7911
  163MOL0     H21972  -2.321   0.473   8.313  2.6123  0.5280 -0.3886
  163MOL0     H21973  -2.275   0.255   8.246  2.7628  3.6283 -0.2357
  163MOL0     H21974  -2.192   0.212   8.400 -1.9206 -2.6919  2.0768
  163MOL0     H21975  -2.505   0.228   8.355 -0.6365 -0.7910 -0.1205
  163MOL0     H21976  -2.404   0.208   8.507  5.1702 -0.4889 -0.6958
  163MOL0     H21977  -2.368   0.003   8.281  2.8053  1.9226 -0.6186
  163MOL0     H21978  -2.316  -0.001   8.441  0.0070 -2.9185 -2.8101
  163MOL0     H21979  -2.521  -0.143   8.397 -1.9625 -0.8736  3.3522
  163MOL0     H21980  -2.613   0.005   8.349  0.5872  0.3103 -0.2949
  163MOL0     H21981  -2.496  -0.052   8.624  1.4879  2.7431  0.8192
  163MOL0     H21982  -2.573   0.097   8.588 -1.9671 -0.7909  0.7214
  163MOL0     H21983  -2.742  -0.160   8.538  2.0492 -0.8102  0.2076
  163MOL0     H21984  -2.790   0.008   8.532 -2.4707 -0.8708  1.3045
  163MOL0     H21985  -2.693  -0.121   8.792 -0.4485  0.1574  0.5712
  163MOL0     H21986  -2.861  -0.108   8.740  0.5061 -0.6614  0.3541
  163MOL0     H21987  -2.170   0.435   8.158 -1.2412  0.0379  1.6552
  163MOL0     H21988  -1.978   0.441   7.999 -2.3358 -1.8089  0.7330
  163MOL0     H21989  -1.656   0.583   7.854 -0.6648 -1.5849  2.0939
  163MOL0     H21990  -1.500   0.626   7.673 -3.6126  0.7623  0.1783
  163MOL0     H21991   0.282   0.850   7.288  1.8553 -0.5162  1.6458
  163MOL0     H21992   0.491   0.796   7.338  0.9425  1.5022  1.1312
  163MOL0     H21993   0.957   1.166   7.364  0.4139 -0.0127  2.5854
  163MOL0     H21994   1.169   1.108   7.475  0.0886 -0.1341 -0.2920
  163MOL0     H21995   1.410   0.996   7.531  1.7757 -0.4589  1.6561
  163MOL0     H21996   1.298   1.074   7.627 -2.2487  0.5226 -4.6416
  163MOL0     H21997   1.477   0.833   7.658 -0.0938  0.9223 -0.2637
  163MOL0     H21998   1.369   0.865   7.796 -3.8643  1.7034 -1.6765
  163MOL0     H21999   1.509   1.089   7.836 -0.9861 -0.6994  1.0485
  163MOL0     H22000   1.602   1.030   7.700 -2.8555 -3.1875 -2.4898
  163MOL0     H22001   1.541   0.894   7.973 -3.4894  0.8892 -2.4652
  163MOL0     H22002   1.694   0.972   7.940 -1.6108  0.2840  1.5622
  163MOL0     H22003   1.743   0.588   7.765 -2.5880  0.5289 -1.0052
  163MOL0     H22004   1.063   0.701   7.524 -2.1670 -2.1375 -1.8782
  163MOL0     H22005   0.843   0.760   7.398  0.1675  1.5033 -3.6953
  164MOL0     O22006   9.158   9.070   8.391 -0.1823  0.4842 -0.2843
  164MOL0     C22007   9.131   9.100   8.275  0.0574 -0.0507  0.0113
  164MOL0     O22008   9.024   9.046   8.199  0.5630  0.2927  0.4582
  164MOL0     C22009   8.946   8.944   8.238  0.2736  1.3957 -0.3817
  164MOL0     C22010   8.989   8.834   8.311  1.3544  0.5842 -0.3644
  164MOL0     C22011   8.899   8.738   8.351  0.6341  0.5598  1.1233
  164MOL0     C22012   8.764   8.742   8.313 -0.7395  0.4849  0.7358
  164MOL0     O22013   8.670   8.649   8.349  0.4707  0.7763 -0.2974
  164MOL0     C22014   8.688   8.589   8.480 -0.4755  0.9794  0.6064
  164MOL0     C22015   8.554   8.536   8.530 -1.1563  0.4380 -0.0981
  164MOL0     C22016   8.582   8.461   8.659 -0.3175  0.6464 -0.9136
  164MOL0     C22017   8.449   8.414   8.722  0.2842  0.4880 -0.1972
  164MOL0     C22018   8.481   8.331   8.850 -0.0673  0.4830  0.3372
  164MOL0     C22019   8.361   8.300   8.940  0.6173  0.0822  0.5503
  164MOL0     C22020   8.315   8.434   9.015 -0.5387  0.1709  0.3120
  164MOL0     C22021   8.215   8.400   9.124  0.2600 -0.3361 -0.4146
  164MOL0     N22022   8.091   8.343   9.065  0.1989  0.2924 -0.5958
  164MOL0     C22023   8.016   8.394   8.970 -0.1089  0.4730 -0.1503
  164MOL0     C22024   7.919   8.305   8.942  0.2411 -0.4248  0.5738
  164MOL0     C22025   7.788   8.332   8.859  0.3108 -0.7579  0.4563
  164MOL0     C22026   7.652   8.283   8.925 -1.0548 -0.3829 -0.2982
  164MOL0     C22027   7.526   8.350   8.871  0.7574 -0.0679  0.1306
  164MOL0     C22028   7.535   8.358   8.716 -0.0736 -0.8642  0.2705
  164MOL0     O22029   7.533   8.228   8.654 -0.6368 -0.0999  0.8238
  164MOL0     C22030   7.413   8.156   8.634  0.6569 -0.9065  0.6537
  164MOL0     C22031   7.408   8.034   8.563 -0.0565  0.1141  1.2247
  164MOL0     C22032   7.291   7.959   8.559 -0.4024  0.9234 -1.0740
  164MOL0     C22033   7.301   7.830   8.477 -0.6004 -0.1914 -0.5816
  164MOL0     C22034   7.177   7.995   8.632  0.4770 -0.2186 -1.0385
  164MOL0     C22035   7.048   7.922   8.636 -0.3871  0.2814 -0.8024
  164MOL0     O22036   6.939   7.994   8.657 -0.4358  0.4538 -0.1177
  164MOL0     C22037   6.820   7.938   8.644 -0.1860  0.0263  0.2540
  164MOL0     C22038   6.769   7.833   8.727 -0.0205 -0.6262  0.0056
  164MOL0     C22039   6.637   7.785   8.706 -0.0349 -0.1981 -0.0310
  164MOL0     C22040   6.566   7.832   8.592  0.3532 -0.5004 -0.3308
  164MOL0     O22041   6.444   7.790   8.548 -0.1879 -0.0168  0.6342
  164MOL0     C22042   6.402   7.657   8.562 -0.0444 -0.1513 -0.6854
  164MOL0     C22043   6.302   7.656   8.679 -0.5532 -0.2903  0.0118
  164MOL0     C22044   6.156   7.656   8.622  0.5544 -0.1401  0.2776
  164MOL0     C22045   6.115   7.790   8.554  0.1969  0.1096  0.3620
  164MOL0     C22046   5.965   7.812   8.561  0.1537 -0.9104  0.2024
  164MOL0     C22047   5.876   7.754   8.440  0.6558  0.3704 -0.9537
  164MOL0     C22048   5.730   7.799   8.451  0.5079  0.2200  0.3656
  164MOL0     C22049   5.652   7.761   8.327 -0.4972 -0.2539 -0.6810
  164MOL0    Cl22050   5.732   7.843   8.176 -0.2948  0.0249  0.1452
  164MOL0     C22051   6.612   7.939   8.519 -0.8168  0.5083  0.6229
  164MOL0     C22052   6.739   7.997   8.548 -0.2987 -0.6173 -0.1427
  164MOL0     O22053   7.048   7.799   8.609 -0.0417  0.4818 -0.2707
  164MOL0     C22054   7.180   8.114   8.703  0.2368 -0.4891 -0.8873
  164MOL0     C22055   7.294   8.199   8.700 -0.5404 -0.6420  0.7484
  164MOL0     N22056   7.937   8.197   9.029 -0.3677  0.0772  0.4670
  164MOL0     N22057   8.052   8.213   9.096 -0.7968 -0.9872  0.1576
  164MOL0     C22058   8.722   8.847   8.231 -0.0250 -0.2258 -0.3278
  164MOL0     C22059   8.808   8.950   8.200  0.9618  0.2368 -0.0404
  164MOL0     C22060   9.208   9.204   8.198 -0.3893  0.2154  0.6888
  164MOL0     C22061   9.144   9.277   8.100  0.1059  0.6884  0.0801
  164MOL0     C22062   9.202   9.383   8.038 -0.8333  0.2569 -0.4340
  164MOL0     C22063   9.336   9.416   8.065 -0.2225  0.8607  0.4153
  164MOL0     O22064   9.383   9.527   7.993  0.0005  0.2866  0.4709
  164MOL0     C22065   9.521   9.575   8.023  0.2543  0.5740 -0.7538
  164MOL0     C22066   9.531   9.702   7.944  0.0039 -0.6322 -0.3047
  164MOL0     C22067   9.561   9.660   7.802  0.2657  0.0150  0.3142
  164MOL0     C22068   9.560   9.770   7.693 -0.6047 -0.0294  0.2101
  164MOL0     C22069   9.668   9.873   7.721 -0.6956 -0.2919  0.5190
  164MOL0     C22070   9.748   9.968   7.726  0.0073 -0.7731  0.3939
  164MOL0     C22071   9.410   9.337   8.158 -0.1586  1.1372 -0.4501
  164MOL0     C22072   9.342   9.240   8.225 -0.4832  0.9093 -0.7782
  164MOL0     H22073   9.092   8.837   8.345  1.2807  0.2120 -0.1040
  164MOL0     H22074   8.925   8.650   8.409 -0.4620 -0.8602 -0.4206
  164MOL0     H22075   8.766   8.513   8.472 -0.5196  1.0044 -0.0849
  164MOL0     H22076   8.726   8.662   8.552  0.6322 -0.4856  1.5535
  164MOL0     H22077   8.484   8.616   8.554 -2.5816 -1.4685  2.6939
  164MOL0     H22078   8.512   8.465   8.458 -1.0024  0.7370 -0.4838
  164MOL0     H22079   8.657   8.382   8.649 -0.1470  0.7229 -0.2697
  164MOL0     H22080   8.624   8.523   8.739 -0.7849 -1.0421  0.7106
  164MOL0     H22081   8.390   8.498   8.762  0.8525  1.4748 -1.3796
  164MOL0     H22082   8.387   8.369   8.645  0.2576  0.5036 -0.1853
  164MOL0     H22083   8.518   8.232   8.823  0.9405  0.2348  2.4420
  164MOL0     H22084   8.558   8.370   8.916  0.0613 -1.4369  1.4145
  164MOL0     H22085   8.281   8.254   8.881  0.2599 -1.4540  2.1601
  164MOL0     H22086   8.398   8.233   9.018 -1.1972 -2.0971 -0.3623
  164MOL0     H22087   8.397   8.486   9.065  0.4605 -3.0165  2.2958
  164MOL0     H22088   8.256   8.493   8.943  2.3547 -2.3977 -4.6490
  164MOL0     H22089   8.193   8.480   9.195 -2.5829 -1.4355  0.0585
  164MOL0     H22090   8.263   8.318   9.178 -0.3991 -0.8372 -0.5741
  164MOL0     H22091   8.026   8.494   8.930  0.1537  0.4516 -0.1363
  164MOL0     H22092   7.790   8.440   8.847  2.2224 -0.8690 -0.6670
  164MOL0     H22093   7.798   8.294   8.757  2.1388 -0.8583  0.6424
  164MOL0     H22094   7.663   8.304   9.031  0.1980  0.0286 -0.4874
  164MOL0     H22095   7.644   8.175   8.910  3.5632 -0.9975  0.1780
  164MOL0     H22096   7.511   8.449   8.916  0.6779  0.5878 -1.2918
  164MOL0     H22097   7.441   8.287   8.897  0.3799  1.0496  1.8035
  164MOL0     H22098   7.624   8.417   8.691  0.3988 -0.8862  1.7890
  164MOL0     H22099   7.451   8.416   8.677  1.5836  0.8745 -0.9477
  164MOL0     H22100   7.495   8.006   8.505 -1.1310 -3.0654  0.9829
  164MOL0     H22101   7.407   7.808   8.467 -0.7987 -1.3594 -0.2119
  164MOL0     H22102   7.256   7.751   8.537 -3.4037  2.8161  1.6441
  164MOL0     H22103   7.252   7.839   8.379  0.0712 -0.4960 -0.9525
  164MOL0     H22104   6.828   7.777   8.798 -0.6006  0.2915  1.2531
  164MOL0     H22105   6.591   7.700   8.755 -0.1127 -1.3574 -2.0152
  164MOL0     H22106   6.353   7.607   8.477 -1.2700 -1.4883  0.7512
  164MOL0     H22107   6.485   7.594   8.596  0.4690 -0.3083 -2.1489
  164MOL0     H22108   6.321   7.559   8.727  0.2635 -1.1845 -2.0129
  164MOL0     H22109   6.341   7.739   8.739  2.2357 -1.1120 -0.5192
  164MOL0     H22110   6.087   7.638   8.704  0.7698  1.2391  0.7919
  164MOL0     H22111   6.145   7.575   8.550 -2.3979  2.6208 -2.7563
  164MOL0     H22112   6.157   7.873   8.613  0.3240  1.0538 -1.0160
  164MOL0     H22113   6.152   7.809   8.453 -2.4860 -1.9407 -1.1472
  164MOL0     H22114   5.953   7.921   8.565 -0.6220 -0.9083 -1.2703
  164MOL0     H22115   5.919   7.780   8.655  0.1550  0.4852  0.7079
  164MOL0     H22116   5.899   7.786   8.338 -3.9496  1.7924 -1.7307
  164MOL0     H22117   5.880   7.644   8.441 -3.1886  0.0678  1.3296
  164MOL0     H22118   5.716   7.907   8.460 -1.3459  0.0553 -0.1864
  164MOL0     H22119   5.677   7.751   8.533 -1.8482  4.0853  1.3307
  164MOL0     H22120   5.547   7.790   8.328 -1.1555 -2.3643  2.0102
  164MOL0     H22121   5.658   7.651   8.325  0.8533 -0.3226  2.1280
  164MOL0     H22122   6.554   7.977   8.435  0.3375  0.2110 -0.3438
  164MOL0     H22123   6.790   8.078   8.497 -0.3383 -0.3565  0.2254
  164MOL0     H22124   7.097   8.143   8.767  1.7768 -0.7271  1.3657
  164MOL0     H22125   7.282   8.292   8.755 -2.2771  0.8718 -1.9642
  164MOL0     H22126   8.620   8.849   8.193  1.2460  0.3449 -4.2236
  164MOL0     H22127   8.783   9.026   8.127 -1.5171 -1.7284 -1.4191
  164MOL0     H22128   9.048   9.243   8.062 -0.5225 -0.6199  2.6145
  164MOL0     H22129   9.142   9.429   7.960  0.7284  0.2828 -1.6532
  164MOL0     H22130   9.535   9.589   8.131 -3.2067 -1.0714  0.0462
  164MOL0     H22131   9.595   9.505   7.986 -0.3296 -1.1612  1.1746
  164MOL0     H22132   9.626   9.750   7.968  0.4362 -0.4550 -2.2606
  164MOL0     H22133   9.452   9.778   7.941  0.2689 -0.3431 -0.0303
  164MOL0     H22134   9.477   9.594   7.776 -0.2701  1.2031 -1.1512
  164MOL0     H22135   9.654   9.604   7.797 -1.8456 -3.9215  1.1518
  164MOL0     H22136   9.463   9.818   7.709 -0.7234 -0.7307  1.9506
  164MOL0     H22137   9.581   9.731   7.593 -2.6189 -1.4494  0.2950
  164MOL0     H22138   9.821  10.046   7.733  1.5001 -2.1203  0.6910
  164MOL0     H22139   9.511   9.367   8.183  0.1763 -0.4489  0.2145
  164MOL0     H22140   9.378   9.198   8.318  1.7022 -1.0569 -2.3699
  165MOL0     O22141   4.419   5.231   8.840 -0.3494  0.7807  1.5104
  165MOL0     C22142   4.405   5.231   8.960  0.0076  0.2436  0.1798
  165MOL0     O22143   4.295   5.270   9.032  0.3745 -0.0866 -0.2861
  165MOL0     C22144   4.178   5.280   8.980  0.8603  0.8737 -0.6782
  165MOL0     C22145   4.146   5.301   8.841 -0.0293 -0.0098 -0.1070
  165MOL0     C22146   4.012   5.323   8.803 -0.1758 -0.3010 -1.5157
  165MOL0     C22147   3.903   5.312   8.889  0.4428 -0.0415 -0.1099
  165MOL0     O22148   3.784   5.334   8.828  0.7354 -0.6657  0.9693
  165MOL0     C22149   3.666   5.356   8.911  0.2716  0.2672 -0.2972
  165MOL0     C22150   3.540   5.399   8.841 -0.3340  0.1768  0.3464
  165MOL0     C22151   3.425   5.432   8.931  0.6777  0.1748  0.4351
  165MOL0     C22152   3.457   5.548   9.029 -0.0679 -0.6820  0.9247
  165MOL0     C22153   3.456   5.678   8.946 -0.6819 -0.0350 -0.3966
  165MOL0     C22154   3.327   5.704   8.862  0.2074 -0.9913  0.5045
  165MOL0     C22155   3.297   5.849   8.830 -0.5929  0.1985 -0.1957
  165MOL0     C22156   3.396   5.904   8.743  0.0490 -0.2576 -0.8273
  165MOL0     N22157   3.410   6.055   8.755  0.6989  0.0561 -1.2755
  165MOL0     C22158   3.314   6.150   8.741 -0.1538 -0.4447  0.8887
  165MOL0     C22159   3.371   6.273   8.774  0.7819 -0.2616  0.2748
  165MOL0     C22160   3.297   6.408   8.795  0.0283  0.4864 -0.6106
  165MOL0     C22161   3.260   6.474   8.674 -0.5131  0.2733  0.6984
  165MOL0     C22162   3.238   6.629   8.698  0.1306  0.5730 -0.0628
  165MOL0     C22163   3.104   6.669   8.767 -0.0354  0.5736 -0.3020
  165MOL0     O22164   3.010   6.610   8.686 -0.2200  0.2365  0.1015
  165MOL0     C22165   2.873   6.610   8.718  0.4462  0.2150 -0.1295
  165MOL0     C22166   2.806   6.720   8.767  0.6547 -0.3916  0.1303
  165MOL0     C22167   2.671   6.706   8.819 -0.0331  0.3566  0.5964
  165MOL0     C22168   2.593   6.837   8.843 -0.9254  0.8682 -0.6381
  165MOL0     C22169   2.603   6.581   8.828  0.7033  0.5297 -0.7604
  165MOL0     C22170   2.465   6.561   8.870  0.0037 -0.0860 -0.5895
  165MOL0     O22171   2.446   6.434   8.921 -0.0073  0.1489 -0.3914
  165MOL0     C22172   2.325   6.382   8.960  0.1107 -0.0447 -0.0300
  165MOL0     C22173   2.263   6.268   8.903 -0.8652 -0.4604 -0.3949
  165MOL0     C22174   2.138   6.221   8.949  0.1351 -0.5666  0.1067
  165MOL0     C22175   2.076   6.293   9.046  0.4700  0.4485 -0.1507
  165MOL0     O22176   1.960   6.232   9.102  0.1253  0.9887 -0.4983
  165MOL0     C22177   1.916   6.275   9.234  1.1013  0.2348 -1.2516
  165MOL0     C22178   1.788   6.200   9.276 -0.4860  0.1168  0.4646
  165MOL0     C22179   1.663   6.245   9.211  0.2687  0.8761  0.0421
  165MOL0     C22180   1.551   6.146   9.253 -0.6811  0.5491  0.1610
  165MOL0     C22181   1.420   6.225   9.240  0.2212  0.8192 -0.6601
  165MOL0     C22182   1.350   6.172   9.106 -0.0901  0.8114 -0.0759
  165MOL0     C22183   1.219   6.250   9.072  0.2435  0.8122  0.1172
  165MOL0     C22184   1.170   6.190   8.943  0.1225  0.4273  0.3115
  165MOL0    Cl22185   1.049   6.284   8.866  0.0905  0.1065 -0.2255
  165MOL0     C22186   2.128   6.408   9.094  0.5096 -1.0162 -0.4401
  165MOL0     C22187   2.252   6.460   9.050  1.3207 -0.2122  0.5434
  165MOL0     O22188   2.372   6.635   8.832  0.2276  0.3227  0.3174
  165MOL0     C22189   2.682   6.471   8.783  0.3122  0.2179  0.2813
  165MOL0     C22190   2.808   6.487   8.735 -0.7683  1.1392  0.3496
  165MOL0     N22191   3.510   6.250   8.778 -0.1321  0.4735  0.1985
  165MOL0     N22192   3.528   6.119   8.770 -0.1368  0.4911 -0.1463
  165MOL0     C22193   3.936   5.286   9.019 -0.1322  0.1686 -0.2996
  165MOL0     C22194   4.071   5.278   9.073 -0.5528 -0.5500  0.0620
  165MOL0     C22195   4.523   5.176   9.030 -0.7848  0.2452  0.2147
  165MOL0     C22196   4.654   5.199   8.980  0.5674 -0.2161  0.5852
  165MOL0     C22197   4.759   5.183   9.071  0.3036  1.0168  0.6192
  165MOL0     C22198   4.741   5.141   9.208 -0.0807 -0.3786 -0.2984
  165MOL0     O22199   4.839   5.126   9.297 -0.4920 -0.3942  0.2006
  165MOL0     C22200   4.965   5.180   9.265  0.9070 -0.0485 -0.1658
  165MOL0     C22201   5.056   5.077   9.203  0.0479  0.3243  0.0950
  165MOL0     C22202   5.182   5.141   9.146 -0.7091 -1.3783  1.6769
  165MOL0     C22203   5.262   5.204   9.254  0.4432 -0.4008  0.2420
  165MOL0     C22204   5.382   5.264   9.208 -0.7657 -0.2655  0.0191
  165MOL0     C22205   5.488   5.295   9.154  0.2662 -0.4185 -0.0390
  165MOL0     C22206   4.615   5.111   9.253  0.3164  0.1430  0.7911
  165MOL0     C22207   4.506   5.138   9.166  0.2381  0.3994 -0.5333
  165MOL0     H22208   4.226   5.310   8.768  0.4122 -2.1650  0.0440
  165MOL0     H22209   4.004   5.346   8.697 -0.4605 -0.1893 -1.4718
  165MOL0     H22210   3.647   5.263   8.965  0.7369  1.5205  2.1197
  165MOL0     H22211   3.693   5.436   8.979 -0.9952 -0.4901  1.1542
  165MOL0     H22212   3.563   5.488   8.782 -0.8938  0.1281  0.0516
  165MOL0     H22213   3.517   5.323   8.766  1.6741 -0.0455 -0.1039
  165MOL0     H22214   3.363   5.459   8.846  2.5790  4.9899  0.2123
  165MOL0     H22215   3.389   5.346   8.987 -2.0916  1.6197  1.0614
  165MOL0     H22216   3.391   5.553   9.115  2.3383 -0.3174  2.8705
  165MOL0     H22217   3.554   5.553   9.080  0.2710  2.9865  0.2639
  165MOL0     H22218   3.470   5.754   9.023 -1.6303 -2.5207  2.4280
  165MOL0     H22219   3.539   5.682   8.874 -0.6661 -3.1413 -0.6824
  165MOL0     H22220   3.329   5.655   8.764 -1.7414 -0.5778  0.2005
  165MOL0     H22221   3.239   5.664   8.913  1.7171 -2.6143  1.9728
  165MOL0     H22222   3.199   5.844   8.781 -0.7172 -2.8809  0.1592
  165MOL0     H22223   3.277   5.906   8.921 -2.5296 -2.2747  1.0561
  165MOL0     H22224   3.379   5.861   8.644 -3.6652 -0.4205 -0.2617
  165MOL0     H22225   3.492   5.868   8.782 -1.6733 -6.1664 -0.9983
  165MOL0     H22226   3.208   6.126   8.731  0.1650 -1.1455 -1.5066
  165MOL0     H22227   3.216   6.400   8.867  0.0281  0.3291 -0.6276
  165MOL0     H22228   3.372   6.469   8.845  1.0871 -0.0381 -1.5008
  165MOL0     H22229   3.172   6.433   8.623 -0.0706  0.9714 -0.6773
  165MOL0     H22230   3.351   6.458   8.615 -1.1088 -2.4889  0.3627
  165MOL0     H22231   3.241   6.668   8.596  3.2337  2.6641  0.7094
  165MOL0     H22232   3.319   6.678   8.753 -0.5714  0.1727  1.3791
  165MOL0     H22233   3.096   6.777   8.775 -3.9558  0.5173 -1.3708
  165MOL0     H22234   3.097   6.622   8.866  0.6740  1.1922  0.0438
  165MOL0     H22235   2.844   6.819   8.746  0.0447 -0.7597 -3.1980
  165MOL0     H22236   2.547   6.832   8.942 -2.4922 -3.6871 -1.3611
  165MOL0     H22237   2.658   6.924   8.833  0.2252 -0.1277 -2.2345
  165MOL0     H22238   2.510   6.845   8.772  0.2532  1.9415 -1.9407
  165MOL0     H22239   2.324   6.215   8.830  1.0389 -1.6136  1.9047
  165MOL0     H22240   2.097   6.134   8.898  2.7231 -0.8054 -1.7824
  165MOL0     H22241   1.990   6.249   9.311  0.1123 -3.3199 -1.3354
  165MOL0     H22242   1.886   6.379   9.245 -2.1274 -0.7266  0.4258
  165MOL0     H22243   1.800   6.092   9.262 -2.0295 -0.0012 -0.1358
  165MOL0     H22244   1.764   6.218   9.381 -2.5817  1.3219 -0.1731
  165MOL0     H22245   1.681   6.235   9.103 -2.2514  3.1460 -0.7053
  165MOL0     H22246   1.637   6.348   9.239 -2.4632  0.0393  0.8685
  165MOL0     H22247   1.545   6.052   9.198 -0.2700  0.1262  0.8224
  165MOL0     H22248   1.565   6.122   9.359  0.0720 -3.2158 -0.6489
  165MOL0     H22249   1.420   6.335   9.238 -1.5113  0.9029  1.0543
  165MOL0     H22250   1.345   6.196   9.315  1.4275 -2.2227 -0.4970
  165MOL0     H22251   1.418   6.173   9.021 -0.3737  1.8758 -0.2974
  165MOL0     H22252   1.322   6.068   9.127 -0.6838  0.9338 -0.2577
  165MOL0     H22253   1.251   6.354   9.057  0.1446  0.5037 -2.7176
  165MOL0     H22254   1.154   6.245   9.160  1.1788  0.3244  0.7998
  165MOL0     H22255   1.140   6.084   8.947 -0.7816  0.6512 -0.2031
  165MOL0     H22256   1.252   6.193   8.870  0.5537 -0.0926  0.7631
  165MOL0     H22257   2.089   6.466   9.176  0.3002 -2.2709  0.3709
  165MOL0     H22258   2.293   6.548   9.099  3.2703 -1.1976  0.8199
  165MOL0     H22259   2.648   6.368   8.791  1.4789 -0.2429 -0.4864
  165MOL0     H22260   2.859   6.397   8.702 -1.5367 -1.0756  4.5482
  165MOL0     H22261   3.853   5.270   9.087 -3.2683  0.7658 -3.6453
  165MOL0     H22262   4.092   5.248   9.175  0.1709 -1.8651 -0.4501
  165MOL0     H22263   4.679   5.234   8.881  0.3624 -1.3701  0.1072
  165MOL0     H22264   4.858   5.188   9.028  0.3480  2.1972  0.8317
  165MOL0     H22265   4.960   5.264   9.195  3.6551  0.0197 -0.3638
  165MOL0     H22266   4.996   5.223   9.361 -0.2434 -1.1754  0.7451
  165MOL0     H22267   5.011   5.029   9.116  1.3231  2.8525 -2.1273
  165MOL0     H22268   5.091   5.003   9.276  0.0621 -0.7921 -1.0226
  165MOL0     H22269   5.170   5.211   9.063 -1.5578 -3.4917 -0.0863
  165MOL0     H22270   5.249   5.062   9.109  0.3282  1.1144 -2.5428
  165MOL0     H22271   5.294   5.131   9.329  0.8324 -1.8591 -1.3149
  165MOL0     H22272   5.206   5.283   9.307  1.4321 -0.8152  1.9971
  165MOL0     H22273   5.583   5.316   9.110 -0.3753 -0.4765 -1.5182
  165MOL0     H22274   4.602   5.090   9.359  4.0640 -1.5414  1.1018
  165MOL0     H22275   4.403   5.142   9.201  1.0230 -0.5980  2.0588
  166MOL0     O22276   5.070   4.271   8.356 -0.0325  0.1798 -0.8750
  166MOL0     C22277   5.020   4.246   8.247 -0.9217 -0.8765  0.8058
  166MOL0     O22278   5.088   4.264   8.130 -0.2186  0.8327 -0.4627
  166MOL0     C22279   5.231   4.292   8.135  0.3747 -0.3970 -0.0382
  166MOL0     C22280   5.287   4.411   8.097 -0.3942 -0.0862 -0.6883
  166MOL0     C22281   5.425   4.437   8.112  0.3353  1.1718 -0.0041
  166MOL0     C22282   5.505   4.327   8.145  0.0989 -0.9374 -0.7628
  166MOL0     O22283   5.642   4.350   8.134 -0.1134 -0.2034 -0.0291
  166MOL0     C22284   5.728   4.275   8.044  0.3102  0.0374 -0.4855
  166MOL0     C22285   5.721   4.324   7.896 -0.5359 -0.7617  0.5153
  166MOL0     C22286   5.815   4.228   7.812  0.4666 -0.4819 -1.0051
  166MOL0     C22287   5.794   4.295   7.672 -0.0558 -0.7934 -0.5171
  166MOL0     C22288   5.853   4.195   7.573 -0.4089 -0.0321  0.3840
  166MOL0     C22289   5.782   4.064   7.544  0.3306  1.1878  0.3136
  166MOL0     C22290   5.802   4.009   7.407 -0.1107 -0.7245 -0.0494
  166MOL0     C22291   5.774   3.862   7.387 -0.0843  0.6249 -0.6074
  166MOL0     N22292   5.631   3.845   7.403  1.4925  0.2714  0.9180
  166MOL0     C22293   5.531   3.843   7.303 -0.2812 -0.3864  0.1571
  166MOL0     C22294   5.420   3.799   7.371  0.6662 -0.2822 -0.4216
  166MOL0     C22295   5.286   3.758   7.307  0.1743  0.4082 -0.1203
  166MOL0     C22296   5.159   3.770   7.399 -0.6681  0.1675 -0.3507
  166MOL0     C22297   5.107   3.903   7.363  0.6872  0.0326 -0.8100
  166MOL0     C22298   4.971   3.938   7.421  0.4825 -0.3062 -1.2652
  166MOL0     O22299   4.921   4.072   7.385  0.0311 -0.5289  0.1844
  166MOL0     C22300   4.820   4.084   7.298  0.7084  0.5575  0.1781
  166MOL0     C22301   4.787   3.975   7.216  1.2469  0.4740 -0.2781
  166MOL0     C22302   4.678   3.983   7.131 -0.1727 -0.9151 -0.3966
  166MOL0     C22303   4.638   3.866   7.050  0.4717 -0.6091  0.1192
  166MOL0     C22304   4.603   4.113   7.116  0.3561 -0.2802 -0.0611
  166MOL0     C22305   4.469   4.138   7.043 -0.0598 -0.0459  0.1562
  166MOL0     O22306   4.450   4.269   7.001 -0.3909 -0.5561 -0.7038
  166MOL0     C22307   4.331   4.307   6.940  0.5059  0.7085  0.2955
  166MOL0     C22308   4.293   4.246   6.822  0.4157 -0.1101 -1.0967
  166MOL0     C22309   4.173   4.271   6.760  0.2311 -0.5998  0.2803
  166MOL0     C22310   4.092   4.377   6.813 -0.3666 -0.2251 -0.0513
  166MOL0     O22311   3.979   4.406   6.748  0.4592 -0.3958  0.8744
  166MOL0     C22312   3.971   4.541   6.689 -0.6546 -0.4307  0.6970
  166MOL0     C22313   3.939   4.529   6.544 -0.1585 -0.1883  0.9659
  166MOL0     C22314   3.831   4.426   6.519 -1.1995  0.2058  0.5771
  166MOL0     C22315   3.707   4.476   6.594 -0.6412  0.4751 -0.2235
  166MOL0     C22316   3.594   4.378   6.592  0.1028  0.4898  0.5714
  166MOL0     C22317   3.517   4.386   6.456  0.6875 -0.8595  0.1327
  166MOL0     C22318   3.398   4.490   6.448 -0.0192 -0.4724 -1.0245
  166MOL0     C22319   3.341   4.489   6.308  0.3983 -0.8399  0.3084
  166MOL0    Cl22320   3.464   4.561   6.190  0.0575  0.3514 -0.0059
  166MOL0     C22321   4.143   4.446   6.929  0.1229 -0.9606  0.4182
  166MOL0     C22322   4.256   4.408   6.996  0.1553  1.1317  0.2867
  166MOL0     O22323   4.399   4.042   7.005  0.2082 -0.0969  0.1127
  166MOL0     C22324   4.643   4.221   7.199 -0.7150  0.3237 -0.3137
  166MOL0     C22325   4.756   4.205   7.282 -0.3707  1.1098 -0.5376
  166MOL0     N22326   5.461   3.772   7.501 -0.4120  0.3540 -0.2555
  166MOL0     N22327   5.587   3.792   7.523 -0.3220 -0.8305  0.4079
  166MOL0     C22328   5.443   4.209   8.189 -0.2959 -0.2068 -0.1063
  166MOL0     C22329   5.307   4.188   8.187 -0.3554  0.1351  1.2358
  166MOL0     C22330   4.881   4.205   8.229 -0.3596  0.1653 -0.0308
  166MOL0     C22331   4.828   4.164   8.103 -0.5044  0.5170  0.7820
  166MOL0     C22332   4.707   4.116   8.093  0.3344  0.0739 -0.3159
  166MOL0     C22333   4.629   4.093   8.209 -0.7899 -0.3128  0.2647
  166MOL0     O22334   4.501   4.061   8.206 -0.1209  0.5796 -0.1769
  166MOL0     C22335   4.409   4.080   8.093 -0.1792 -0.7398  0.3589
  166MOL0     C22336   4.296   3.978   8.114 -0.9233  0.0153 -0.7651
  166MOL0     C22337   4.167   4.009   8.049  0.5155 -0.5925  0.3462
  166MOL0     C22338   4.157   3.945   7.908  0.0787  0.6499  0.2923
  166MOL0     C22339   4.026   3.972   7.851  0.0172  0.4174 -0.5447
  166MOL0     C22340   3.914   3.984   7.807  0.0045  0.1822 -0.0059
  166MOL0     C22341   4.670   4.138   8.333  0.5608  0.5661 -0.3404
  166MOL0     C22342   4.803   4.182   8.344 -1.0982 -0.9702  0.2657
  166MOL0     H22343   5.224   4.481   8.043  2.1836  1.3875 -2.0084
  166MOL0     H22344   5.469   4.533   8.087  3.1282 -0.1361 -0.4922
  166MOL0     H22345   5.829   4.302   8.078  0.6243  2.6327 -3.1051
  166MOL0     H22346   5.712   4.167   8.039 -0.6008  0.1969 -1.2822
  166MOL0     H22347   5.617   4.313   7.863 -0.5851 -1.1022  0.7741
  166MOL0     H22348   5.759   4.426   7.887 -0.3188 -0.8518  0.4069
  166MOL0     H22349   5.918   4.234   7.850 -0.4545  0.1010  1.5501
  166MOL0     H22350   5.795   4.120   7.806 -0.0649 -0.3010 -3.1647
  166MOL0     H22351   5.693   4.317   7.636  1.7533  1.8743 -4.8033
  166MOL0     H22352   5.853   4.387   7.675  0.6183 -1.2384  0.3321
  166MOL0     H22353   5.864   4.247   7.477 -1.2835  0.1412  0.3747
  166MOL0     H22354   5.953   4.183   7.617  0.5194  0.5015 -1.4409
  166MOL0     H22355   5.810   3.995   7.624 -1.4059  2.5062  2.1475
  166MOL0     H22356   5.675   4.084   7.554 -0.5252 -2.6330  0.1847
  166MOL0     H22357   5.747   4.057   7.326 -0.4905 -2.1054 -0.6485
  166MOL0     H22358   5.907   4.031   7.386 -0.9338  1.8535 -1.8865
  166MOL0     H22359   5.828   3.803   7.462 -1.3079 -0.3926 -0.5116
  166MOL0     H22360   5.800   3.818   7.291 -2.3739 -0.7122 -0.6771
  166MOL0     H22361   5.541   3.861   7.196 -0.0701 -3.0965 -0.3291
  166MOL0     H22362   5.280   3.813   7.213  1.7164 -0.7827 -0.9600
  166MOL0     H22363   5.300   3.652   7.284 -0.1102  0.4695 -0.5872
  166MOL0     H22364   5.161   3.763   7.508 -2.6160  2.5551 -0.0836
  166MOL0     H22365   5.098   3.686   7.366 -3.9143  1.0542  2.8166
  166MOL0     H22366   5.092   3.897   7.254  0.2776 -2.3599 -0.6921
  166MOL0     H22367   5.169   3.988   7.390 -1.3402  1.3564 -0.0823
  166MOL0     H22368   4.988   3.944   7.529 -0.3186 -0.9112 -1.0870
  166MOL0     H22369   4.897   3.858   7.406 -2.0774  2.2355 -3.2354
  166MOL0     H22370   4.837   3.879   7.214  0.2605 -0.1129  1.5199
  166MOL0     H22371   4.692   3.777   7.085 -0.4480  0.1330  3.8000
  166MOL0     H22372   4.530   3.850   7.051  0.5020 -0.8134  0.1781
  166MOL0     H22373   4.656   3.889   6.944 -0.4993 -1.3935 -0.2234
  166MOL0     H22374   4.376   4.185   6.787 -0.4785 -2.3667  0.4469
  166MOL0     H22375   4.152   4.232   6.661 -1.2412  0.3627  0.1838
  166MOL0     H22376   3.903   4.610   6.741 -0.9216  1.3731 -1.8953
  166MOL0     H22377   4.070   4.588   6.689 -2.0671  2.8297  2.0832
  166MOL0     H22378   3.917   4.628   6.503 -2.8482 -0.0286  2.5431
  166MOL0     H22379   4.027   4.493   6.489  1.4846  3.8609  0.6121
  166MOL0     H22380   3.860   4.332   6.567  0.7676 -0.3260 -1.4652
  166MOL0     H22381   3.810   4.408   6.413  3.8783 -3.0564 -0.2291
  166MOL0     H22382   3.726   4.500   6.699  0.9245  3.5327 -1.0697
  166MOL0     H22383   3.667   4.561   6.537  2.0453  0.0894 -2.9447
  166MOL0     H22384   3.520   4.404   6.668 -2.6692  1.6775 -2.2918
  166MOL0     H22385   3.633   4.277   6.606  0.8018  0.1563 -2.9175
  166MOL0     H22386   3.589   4.399   6.374 -2.8937  1.1432 -3.0378
  166MOL0     H22387   3.463   4.293   6.437 -0.4119  0.4566 -4.7552
  166MOL0     H22388   3.436   4.590   6.468 -2.7599  0.2945  1.0225
  166MOL0     H22389   3.319   4.461   6.519 -0.5785  3.9854  0.4611
  166MOL0     H22390   3.246   4.541   6.296  1.4598  1.0408 -0.4123
  166MOL0     H22391   3.315   4.384   6.287  0.2392 -1.4113  3.0190
  166MOL0     H22392   4.085   4.529   6.967  1.3858  1.3962 -2.4546
  166MOL0     H22393   4.296   4.465   7.079 -0.1114 -1.1653  2.0926
  166MOL0     H22394   4.608   4.323   7.210 -0.9964  0.0286  2.1549
  166MOL0     H22395   4.797   4.292   7.333 -1.1428  0.9146  0.4656
  166MOL0     H22396   5.509   4.130   8.224 -2.7724 -2.2915  0.1027
  166MOL0     H22397   5.262   4.096   8.224  0.3863 -0.7998 -0.1265
  166MOL0     H22398   4.892   4.164   8.016  3.2261 -3.6815  3.0723
  166MOL0     H22399   4.663   4.093   7.997  1.1047  0.7386 -0.8458
  166MOL0     H22400   4.362   4.179   8.100  1.8450  0.2023  1.3288
  166MOL0     H22401   4.453   4.066   7.994  0.8358 -1.2900  0.8744
  166MOL0     H22402   4.275   3.972   8.222 -2.0377 -0.7797 -0.9989
  166MOL0     H22403   4.327   3.877   8.085  0.6609  0.3032 -0.1745
  166MOL0     H22404   4.142   4.115   8.041 -2.3655 -1.2471 -0.3194
  166MOL0     H22405   4.083   3.973   8.109  0.5332 -0.7086  0.3004
  166MOL0     H22406   4.167   3.836   7.917 -4.0658  0.0683 -0.2373
  166MOL0     H22407   4.235   3.984   7.842  0.0257  1.7569  0.8647
  166MOL0     H22408   3.822   4.011   7.760 -1.2193  0.0768  2.2025
  166MOL0     H22409   4.604   4.142   8.419  0.5198 -1.7093 -0.2199
  166MOL0     H22410   4.836   4.206   8.445  0.9456 -0.3996 -0.4995
  167MOL0     O22411   4.494   3.071   0.530  0.3007  0.4066 -1.1616
  167MOL0     C22412   4.574   3.025   0.450  0.2382 -0.8641 -0.3752
  167MOL0     O22413   4.548   2.995   0.316 -0.7779  0.3419 -0.2312
  167MOL0     C22414   4.418   2.987   0.277 -0.5100 -0.5807  1.2281
  167MOL0     C22415   4.370   2.860   0.229 -0.0923  0.6969  0.3170
  167MOL0     C22416   4.234   2.856   0.202 -0.5670  1.0557 -0.1463
  167MOL0     C22417   4.145   2.962   0.217 -0.6243 -0.3075 -0.4490
  167MOL0     O22418   4.024   2.962   0.164  0.4952 -0.5643 -0.4127
  167MOL0     C22419   3.963   2.835   0.137 -1.0144  0.6994  1.0031
  167MOL0     C22420   3.812   2.849   0.128 -0.3143 -0.1220 -0.2063
  167MOL0     C22421   3.747   2.706   0.158  0.6742 -0.2857  0.5032
  167MOL0     C22422   3.597   2.713   0.113 -0.5868  0.2810 -1.0937
  167MOL0     C22423   3.521   2.581   0.156  0.1745  0.5319  0.1402
  167MOL0     C22424   3.380   2.576   0.104  0.2325 -1.2193 -0.4677
  167MOL0     C22425   3.296   2.449   0.130 -0.4395  0.0531  0.5991
  167MOL0     C22426   3.327   2.330   0.037  0.1202  0.2161 -0.1119
  167MOL0     N22427   3.215   2.232   0.045 -0.0140 -0.1388  0.1381
  167MOL0     C22428   3.101   2.233  -0.033 -0.2044 -0.2977  1.1297
  167MOL0     C22429   3.036   2.120   0.009  0.0200  0.0391  1.1772
  167MOL0     C22430   2.914   2.058  -0.053  0.1437 -0.1724 -0.2044
  167MOL0     C22431   2.781   2.127  -0.018 -0.1001 -0.3454 -0.5427
  167MOL0     C22432   2.735   2.081   0.122 -0.2195  0.7166  0.8802
  167MOL0     C22433   2.600   2.141   0.153 -0.4677  0.2797  0.0124
  167MOL0     O22434   2.521   2.106   0.040 -0.0596 -0.7491  0.1769
  167MOL0     C22435   2.418   2.186   0.008  0.6678 -0.6018  0.4105
  167MOL0     C22436   2.365   2.292   0.088 -1.0863  0.4024  0.1200
  167MOL0     C22437   2.254   2.357   0.044  0.0097  0.0016  0.2071
  167MOL0     C22438   2.214   2.482   0.116  0.6578  0.8585  0.3540
  167MOL0     C22439   2.188   2.318  -0.077 -0.5179  0.3122  0.6011
  167MOL0     C22440   2.073   2.390  -0.139 -0.3607  0.5173  0.2781
  167MOL0     O22441   1.951   2.344  -0.093  0.3781  0.3997 -0.1982
  167MOL0     C22442   1.841   2.371  -0.175  0.9030 -0.7864  0.5813
  167MOL0     C22443   1.781   2.284  -0.268 -0.3306 -0.3274  0.3449
  167MOL0     C22444   1.662   2.314  -0.342  0.2148  0.2807  0.1259
  167MOL0     C22445   1.607   2.441  -0.328 -0.2506  0.7415 -1.2305
  167MOL0     O22446   1.488   2.490  -0.373 -0.5858 -0.2645 -0.2411
  167MOL0     C22447   1.427   2.435  -0.490 -0.3360  0.0479 -0.9463
  167MOL0     C22448   1.284   2.381  -0.447 -0.2099  0.2188 -0.4051
  167MOL0     C22449   1.187   2.479  -0.380 -0.0091 -0.5707  0.2041
  167MOL0     C22450   1.051   2.415  -0.365 -0.0522  0.2165 -1.2960
  167MOL0     C22451   0.952   2.525  -0.349  0.1310  0.1812 -0.5199
  167MOL0     C22452   0.803   2.478  -0.326 -0.0110 -0.5181  0.0162
  167MOL0     C22453   0.711   2.598  -0.299  0.2686  0.5985 -0.0040
  167MOL0     C22454   0.561   2.555  -0.270 -0.0828 -0.5054  0.0753
  167MOL0    Cl22455   0.561   2.481  -0.120  0.1664  0.0736  0.2378
  167MOL0     C22456   1.666   2.538  -0.239 -0.4226 -0.2095  0.3242
  167MOL0     C22457   1.782   2.498  -0.161  0.4887 -0.7275  0.0073
  167MOL0     O22458   2.097   2.444  -0.240 -0.1242  0.2461  0.4017
  167MOL0     C22459   2.241   2.215  -0.153  0.3447 -0.3331  0.0125
  167MOL0     C22460   2.355   2.154  -0.108 -0.7335 -0.1032 -0.5125
  167MOL0     N22461   3.101   2.055   0.101 -0.2752 -0.1684 -0.7485
  167MOL0     N22462   3.215   2.116   0.122 -0.1965  0.4555  0.6711
  167MOL0     C22463   4.196   3.083   0.257  0.0806  0.5574  0.1186
  167MOL0     C22464   4.330   3.092   0.289  1.2088 -0.5199 -0.7980
  167MOL0     C22465   4.704   2.996   0.507  0.6859  0.1258  0.3405
  167MOL0     C22466   4.726   2.999   0.649  0.3235 -0.4403 -0.3624
  167MOL0     C22467   4.858   2.991   0.700  0.3631 -0.2376  0.1513
  167MOL0     C22468   4.971   2.968   0.614 -0.9049  0.3105  0.5238
  167MOL0     O22469   5.095   2.941   0.669  0.7307 -0.7831 -0.2076
  167MOL0     C22470   5.215   2.992   0.625 -0.3998  0.4037 -0.0297
  167MOL0     C22471   5.321   2.973   0.738  0.4498  0.2525 -0.0785
  167MOL0     C22472   5.332   2.835   0.773 -0.3855 -0.1073  0.1543
  167MOL0     C22473   5.464   2.787   0.859  0.4237 -0.3521  0.6633
  167MOL0     C22474   5.470   2.645   0.897  0.8266 -0.9660  0.0700
  167MOL0     C22475   5.455   2.530   0.924 -0.0534  0.6000  0.5383
  167MOL0     C22476   4.943   2.951   0.481  0.6462  0.3262 -0.7750
  167MOL0     C22477   4.816   2.972   0.424 -0.0990  1.9551 -0.6301
  167MOL0     H22478   4.438   2.777   0.210 -0.7056  0.0191  1.0389
  167MOL0     H22479   4.192   2.762   0.166 -1.2871  0.3771  2.2677
  167MOL0     H22480   4.004   2.795   0.044  0.5167  1.5008  1.2969
  167MOL0     H22481   3.989   2.777   0.227 -0.5296  2.5302  2.0835
  167MOL0     H22482   3.778   2.921   0.203  2.8306 -2.4171  3.8338
  167MOL0     H22483   3.779   2.889   0.032  0.2505  1.5473  0.2680
  167MOL0     H22484   3.807   2.637   0.098  1.2692 -0.4513  1.2765
  167MOL0     H22485   3.747   2.697   0.267 -0.0481  3.3225  0.9448
  167MOL0     H22486   3.540   2.791   0.165 -0.4878 -1.8224  2.5087
  167MOL0     H22487   3.593   2.726   0.004  2.3616 -0.8971 -1.4241
  167MOL0     H22488   3.581   2.494   0.128  0.5418  0.8702 -0.1430
  167MOL0     H22489   3.506   2.575   0.264 -1.1273 -0.9561 -0.0910
  167MOL0     H22490   3.334   2.653   0.167  1.2761 -1.5606  0.7461
  167MOL0     H22491   3.377   2.601  -0.002 -2.0692  2.5096  0.2693
  167MOL0     H22492   3.320   2.425   0.234  0.3280  2.1440  0.9579
  167MOL0     H22493   3.189   2.466   0.116 -0.8238 -3.8315 -3.1833
  167MOL0     H22494   3.424   2.282   0.054 -0.4666 -1.6107 -1.5748
  167MOL0     H22495   3.316   2.366  -0.066 -1.6418  4.1230  1.2269
  167MOL0     H22496   3.074   2.298  -0.116  1.7515 -0.9702 -0.1025
  167MOL0     H22497   2.923   2.056  -0.162 -1.7327  0.0696 -0.3943
  167MOL0     H22498   2.899   1.952  -0.032  1.2044 -0.9424 -2.9383
  167MOL0     H22499   2.711   2.104  -0.099  0.8715 -0.1734 -1.4577
  167MOL0     H22500   2.792   2.235  -0.022  1.5942 -0.3697  1.5788
  167MOL0     H22501   2.801   2.109   0.205 -1.7686  0.2570  2.3263
  167MOL0     H22502   2.727   1.973   0.113 -0.3978  0.7637  0.4465
  167MOL0     H22503   2.621   2.247   0.168 -2.4818  0.2675  4.4920
  167MOL0     H22504   2.552   2.099   0.242  0.1705  1.2359  0.8214
  167MOL0     H22505   2.418   2.341   0.168  1.1149  0.6339 -1.3970
  167MOL0     H22506   2.115   2.514   0.083 -0.3116 -1.2181  1.0855
  167MOL0     H22507   2.210   2.456   0.222 -1.6232  3.7969  1.1318
  167MOL0     H22508   2.292   2.559   0.107 -0.4846  1.7808 -2.7908
  167MOL0     H22509   1.833   2.189  -0.274 -1.5593 -1.1015  1.4453
  167MOL0     H22510   1.612   2.237  -0.400 -4.1915  2.0145  1.1945
  167MOL0     H22511   1.418   2.513  -0.566 -1.1416  0.9800  0.0641
  167MOL0     H22512   1.482   2.350  -0.531  3.2554 -1.3020  5.2516
  167MOL0     H22513   1.231   2.357  -0.539  2.2646 -0.7527 -1.6796
  167MOL0     H22514   1.303   2.293  -0.385  2.6896  0.3594 -0.9514
  167MOL0     H22515   1.182   2.569  -0.441 -0.7210 -0.1477  0.8700
  167MOL0     H22516   1.220   2.508  -0.279 -0.1248 -0.5678  0.2413
  167MOL0     H22517   1.032   2.368  -0.463  1.2824 -0.4270 -1.2682
  167MOL0     H22518   1.042   2.350  -0.277 -1.1808  1.1299 -0.7159
  167MOL0     H22519   0.954   2.582  -0.443  0.9885  0.5331 -0.2923
  167MOL0     H22520   0.978   2.598  -0.273  0.2240  2.5578 -2.6922
  167MOL0     H22521   0.765   2.422  -0.412 -0.7297 -0.8345  0.5224
  167MOL0     H22522   0.804   2.411  -0.239  1.3855 -0.9345 -0.2968
  167MOL0     H22523   0.702   2.659  -0.388  2.1069  0.7833 -0.0962
  167MOL0     H22524   0.754   2.660  -0.220 -2.5835 -0.1834  2.3727
  167MOL0     H22525   0.516   2.485  -0.342 -2.3576  0.8613  0.0539
  167MOL0     H22526   0.495   2.642  -0.266  1.2789  0.6407 -1.2130
  167MOL0     H22527   1.629   2.640  -0.231  0.7887  0.3529 -0.7727
  167MOL0     H22528   1.812   2.568  -0.084 -1.2326  0.9021 -0.7145
  167MOL0     H22529   2.202   2.198  -0.252  0.6384  3.5106 -0.8906
  167MOL0     H22530   2.400   2.079  -0.172  0.5238  0.3570 -0.2175
  167MOL0     H22531   4.133   3.171   0.252 -3.3036 -1.5259  1.9640
  167MOL0     H22532   4.359   3.189   0.329 -0.3588  1.0850 -3.2501
  167MOL0     H22533   4.646   3.025   0.717 -0.6842 -1.4124 -1.1422
  167MOL0     H22534   4.882   3.007   0.804 -3.5902 -1.2532  1.3748
  167MOL0     H22535   5.229   2.932   0.535  0.8341 -1.1438  1.1465
  167MOL0     H22536   5.212   3.098   0.597  1.2920  0.7077  0.8569
  167MOL0     H22537   5.294   3.044   0.816 -0.0555  0.2247 -0.2213
  167MOL0     H22538   5.419   3.008   0.705  0.8054 -2.2653 -2.0262
  167MOL0     H22539   5.342   2.783   0.677  0.6546 -0.5061  0.4619
  167MOL0     H22540   5.240   2.809   0.825 -1.2756  2.0340 -0.2557
  167MOL0     H22541   5.463   2.852   0.947  2.0649  0.0196  0.4387
  167MOL0     H22542   5.552   2.808   0.798  0.2508  1.2219  0.9235
  167MOL0     H22543   5.461   2.426   0.951  0.3897  0.4502 -0.1135
  167MOL0     H22544   5.028   2.917   0.423  2.8594 -0.3720  2.6324
  167MOL0     H22545   4.807   2.973   0.316 -1.3865 -0.2752 -0.5998
  168MOL0     O22546   3.128   3.585   8.866 -0.1753  0.3114 -0.1743
  168MOL0     C22547   3.157   3.642   8.971  0.6168 -0.5289 -1.2520
  168MOL0     O22548   3.112   3.603   9.098  0.4463 -0.1251  0.3073
  168MOL0     C22549   3.053   3.481   9.121 -0.0779  0.4064  1.0985
  168MOL0     C22550   3.044   3.365   9.043  0.3148  0.3870 -0.4993
  168MOL0     C22551   2.982   3.243   9.088  0.3347  0.4714  0.7796
  168MOL0     C22552   2.934   3.236   9.213 -1.2189  0.2933 -0.8038
  168MOL0     O22553   2.873   3.124   9.255 -0.2312 -0.0583 -0.7019
  168MOL0     C22554   2.944   3.043   9.363 -0.0654 -0.3259  0.5449
  168MOL0     C22555   3.031   2.944   9.287  0.6603  0.0884 -0.4139
  168MOL0     C22556   2.969   2.801   9.274 -0.3351 -0.1442  0.3201
  168MOL0     C22557   3.043   2.716   9.159  0.0569 -0.5406  0.4031
  168MOL0     C22558   3.199   2.717   9.184  0.3663  0.2099 -0.2398
  168MOL0     C22559   3.287   2.616   9.093  0.6823  0.3327  1.1405
  168MOL0     C22560   3.269   2.616   8.945 -0.9289  0.2157 -0.3954
  168MOL0     C22561   3.318   2.747   8.887  0.4472 -0.0853  0.2557
  168MOL0     N22562   3.315   2.758   8.744  0.7347 -0.1532  1.0419
  168MOL0     C22563   3.428   2.756   8.661  0.7484 -0.1108  0.5287
  168MOL0     C22564   3.375   2.751   8.536 -0.1655 -0.5431 -0.3052
  168MOL0     C22565   3.443   2.738   8.404  0.7057 -0.6189  1.3952
  168MOL0     C22566   3.485   2.593   8.395  0.1973  0.2499 -1.4761
  168MOL0     C22567   3.377   2.478   8.435 -0.5014 -0.6039  0.6271
  168MOL0     C22568   3.413   2.333   8.431  0.7622  0.1145  0.9829
  168MOL0     O22569   3.418   2.287   8.569 -0.4925 -0.3959  0.3429
  168MOL0     C22570   3.343   2.183   8.611  0.2644 -0.6142  0.0105
  168MOL0     C22571   3.292   2.190   8.742 -0.3091 -0.5719  0.0310
  168MOL0     C22572   3.226   2.082   8.799  0.3116  0.1761 -0.2874
  168MOL0     C22573   3.194   2.102   8.942 -0.2234 -0.2993  0.1118
  168MOL0     C22574   3.205   1.958   8.733  0.3208  0.5082  1.4420
  168MOL0     C22575   3.141   1.838   8.791  1.0900 -0.2412 -0.1640
  168MOL0     O22576   3.134   1.724   8.708  0.2268 -0.1856  0.1089
  168MOL0     C22577   3.038   1.633   8.736  0.5235  0.4327 -0.4887
  168MOL0     C22578   2.937   1.621   8.642 -0.3043 -0.2371  0.6861
  168MOL0     C22579   2.828   1.544   8.667  0.6537  0.3953 -0.4955
  168MOL0     C22580   2.809   1.475   8.789  0.3771  0.0057 -0.6028
  168MOL0     O22581   2.698   1.408   8.829 -0.3172  0.4423  0.4134
  168MOL0     C22582   2.618   1.333   8.732  0.5127  1.4934  0.0623
  168MOL0     C22583   2.687   1.196   8.699 -0.1171  0.3784  0.2963
  168MOL0     C22584   2.655   1.135   8.559 -0.0197 -0.4734 -0.4831
  168MOL0     C22585   2.772   1.050   8.489 -0.5616 -0.8186  0.2213
  168MOL0     C22586   2.730   1.025   8.341  0.6484  0.2365 -0.6226
  168MOL0     C22587   2.850   0.984   8.260  0.6766 -0.9783  0.6021
  168MOL0     C22588   2.817   1.012   8.114 -0.6135 -0.6082  0.3432
  168MOL0     C22589   2.944   1.002   8.029 -0.2997 -0.3514  0.2799
  168MOL0    Cl22590   2.973   0.846   7.961  0.3225 -0.1136 -0.4570
  168MOL0     C22591   2.916   1.481   8.878 -0.4406 -1.4560 -0.4630
  168MOL0     C22592   3.029   1.562   8.853  0.4196 -0.0944  0.4730
  168MOL0     O22593   3.104   1.838   8.907  0.3775  0.2442  0.0673
  168MOL0     C22594   3.262   1.944   8.603  0.1275 -0.0413  0.1319
  168MOL0     C22595   3.333   2.058   8.546 -0.2719 -0.4049 -0.1544
  168MOL0     N22596   3.235   2.750   8.547 -0.3738 -0.4809  0.4216
  168MOL0     N22597   3.200   2.757   8.665 -0.8145 -0.2542 -0.1380
  168MOL0     C22598   2.952   3.343   9.297  0.1523 -1.0641 -0.5460
  168MOL0     C22599   3.008   3.466   9.254  0.5579  0.9857 -0.2826
  168MOL0     C22600   3.262   3.743   8.977 -0.9451 -0.2085  0.6650
  168MOL0     C22601   3.264   3.836   9.076 -1.6477  0.1774 -0.0470
  168MOL0     C22602   3.345   3.954   9.065  0.5848 -0.2470  0.2911
  168MOL0     C22603   3.446   3.965   8.966  0.1731 -0.2533 -0.0080
  168MOL0     O22604   3.535   4.069   8.958 -0.2189  0.1645  0.4335
  168MOL0     C22605   3.592   4.126   9.084  0.0955  0.5225  1.3699
  168MOL0     C22606   3.513   4.248   9.130  0.4668 -0.1085  0.1992
  168MOL0     C22607   3.609   4.363   9.153  0.3795  0.0300  0.4397
  168MOL0     C22608   3.526   4.494   9.164  0.5520 -0.1609 -0.1657
  168MOL0     C22609   3.404   4.481   9.254  0.6664 -0.4012 -0.3745
  168MOL0     C22610   3.296   4.470   9.318  0.5167  0.6327  0.0712
  168MOL0     C22611   3.454   3.856   8.871  0.2011  0.0549 -0.4002
  168MOL0     C22612   3.362   3.745   8.875 -0.8872  0.4430 -0.3718
  168MOL0     H22613   3.089   3.367   8.944  1.1944 -0.0690 -0.1219
  168MOL0     H22614   2.980   3.162   9.015 -0.4163  0.2096  1.0781
  168MOL0     H22615   2.988   3.113   9.434 -2.0370  0.2626  1.2483
  168MOL0     H22616   2.876   2.983   9.425 -0.4300  0.1462  0.6074
  168MOL0     H22617   3.051   2.983   9.187  0.6544  2.3858  0.4254
  168MOL0     H22618   3.125   2.929   9.340  0.5461  0.0029 -0.2342
  168MOL0     H22619   2.983   2.740   9.363 -1.2916 -0.9640 -0.0633
  168MOL0     H22620   2.862   2.806   9.252 -0.3286 -1.2148 -0.0273
  168MOL0     H22621   3.007   2.613   9.157 -0.9158 -0.2853 -3.3300
  168MOL0     H22622   3.020   2.776   9.070 -0.9573 -0.8747  0.4295
  168MOL0     H22623   3.238   2.819   9.179  2.5659 -0.6566 -2.3337
  168MOL0     H22624   3.219   2.691   9.289  1.4686 -1.1495 -0.7588
  168MOL0     H22625   3.393   2.642   9.101  1.4680 -1.8332 -1.0237
  168MOL0     H22626   3.269   2.519   9.139  0.7994 -0.3915 -0.3046
  168MOL0     H22627   3.338   2.546   8.897  0.6584  0.8459  0.8652
  168MOL0     H22628   3.165   2.591   8.922 -1.1357 -0.8401  1.4473
  168MOL0     H22629   3.416   2.769   8.930 -0.5529 -0.8719  3.1012
  168MOL0     H22630   3.241   2.818   8.917 -0.5030 -1.3657  0.9025
  168MOL0     H22631   3.533   2.747   8.686  0.8163  1.6591  1.0042
  168MOL0     H22632   3.374   2.759   8.323  1.9223 -1.0586  0.2081
  168MOL0     H22633   3.528   2.806   8.399 -0.2942  0.5526 -1.6241
  168MOL0     H22634   3.573   2.581   8.460  0.3857 -2.4936 -2.1233
  168MOL0     H22635   3.520   2.571   8.294 -3.2483 -2.5325 -2.2528
  168MOL0     H22636   3.305   2.493   8.354  1.0910  0.8251 -0.6078
  168MOL0     H22637   3.334   2.510   8.530 -0.2021 -1.5582  1.0947
  168MOL0     H22638   3.508   2.318   8.379 -0.4361 -1.2576 -0.9792
  168MOL0     H22639   3.339   2.278   8.372 -0.8435  0.9621  2.1290
  168MOL0     H22640   3.313   2.283   8.794  1.8951  0.2310 -2.0798
  168MOL0     H22641   3.210   2.202   8.982 -3.3001  0.0672  0.7234
  168MOL0     H22642   3.089   2.083   8.968 -0.7856 -0.5057 -2.0997
  168MOL0     H22643   3.253   2.026   8.994 -2.8608 -3.2073 -0.8229
  168MOL0     H22644   2.936   1.665   8.543  3.9599 -3.4649 -1.1161
  168MOL0     H22645   2.743   1.549   8.599  0.7246  0.0400 -0.6106
  168MOL0     H22646   2.519   1.310   8.773  1.0069  0.9810  1.0032
  168MOL0     H22647   2.601   1.393   8.642 -1.5613  0.2875 -0.4302
  168MOL0     H22648   2.792   1.226   8.695 -0.3063  0.9608 -1.1712
  168MOL0     H22649   2.663   1.124   8.777 -0.4593 -1.7497 -1.6839
  168MOL0     H22650   2.622   1.214   8.491 -0.4108  0.3812  0.6703
  168MOL0     H22651   2.563   1.076   8.570 -0.0424 -0.2229  0.7078
  168MOL0     H22652   2.866   1.106   8.497 -0.8040 -0.3953  0.1385
  168MOL0     H22653   2.792   0.951   8.531 -1.0189 -0.8338  0.4061
  168MOL0     H22654   2.694   1.119   8.299  1.7448  0.0825 -1.9757
  168MOL0     H22655   2.652   0.948   8.336  3.0919 -2.8918  3.1334
  168MOL0     H22656   2.933   1.046   8.296 -1.6637  2.5079  0.4448
  168MOL0     H22657   2.867   0.877   8.272 -0.5371 -1.0175  2.5851
  168MOL0     H22658   2.775   1.112   8.101 -0.6902 -0.9546 -2.8059
  168MOL0     H22659   2.739   0.944   8.078  0.0718 -0.6178 -1.1892
  168MOL0     H22660   3.034   1.028   8.086  0.3400  0.6880 -1.1483
  168MOL0     H22661   2.925   1.075   7.949  1.1367  1.9486  1.9007
  168MOL0     H22662   2.905   1.424   8.970 -0.6383  0.2352  0.5867
  168MOL0     H22663   3.104   1.580   8.930  1.2261  2.6059 -0.8083
  168MOL0     H22664   3.263   1.848   8.552  0.2782 -0.2435  0.5075
  168MOL0     H22665   3.385   2.047   8.452 -1.4205  0.1601 -0.8715
  168MOL0     H22666   2.920   3.333   9.401 -1.6011 -0.5964 -1.0006
  168MOL0     H22667   3.024   3.555   9.314  0.1444 -1.7131  4.3330
  168MOL0     H22668   3.193   3.820   9.157 -0.2463  1.8388  1.5707
  168MOL0     H22669   3.331   4.035   9.135  1.9491  1.2667 -1.0988
  168MOL0     H22670   3.597   4.053   9.165 -2.1850 -0.8173  0.4229
  168MOL0     H22671   3.693   4.154   9.052  0.5984  0.1178  2.5467
  168MOL0     H22672   3.457   4.227   9.221  0.2343  1.7355  0.5271
  168MOL0     H22673   3.451   4.278   9.045  0.5959  0.6053  0.3457
  168MOL0     H22674   3.670   4.371   9.062 -0.5578  1.0691 -0.1248
  168MOL0     H22675   3.667   4.343   9.243 -0.1147 -1.0592  0.5394
  168MOL0     H22676   3.492   4.515   9.062  0.2370 -0.5330 -0.1360
  168MOL0     H22677   3.586   4.582   9.191 -2.7584  2.6141 -1.0977
  168MOL0     H22678   3.205   4.457   9.373  0.6005  0.6037  0.2037
  168MOL0     H22679   3.524   3.848   8.789 -0.0915 -1.3444 -0.5556
  168MOL0     H22680   3.368   3.668   8.798 -0.4046 -0.2385  0.3424
  169MOL0     O22681   7.007   9.097   2.675 -0.7769 -0.8433 -0.3847
  169MOL0     C22682   6.991   9.054   2.786  0.4878  0.2420  0.1742
  169MOL0     O22683   7.063   8.956   2.836 -0.4198  0.0495  0.7164
  169MOL0     C22684   7.178   8.918   2.767  0.1015 -0.4083  0.0537
  169MOL0     C22685   7.166   8.856   2.643  0.2890 -0.1285  0.1437
  169MOL0     C22686   7.284   8.805   2.582  0.2920  0.5267  0.2673
  169MOL0     C22687   7.403   8.827   2.641 -0.6469  0.1036 -0.1102
  169MOL0     O22688   7.509   8.785   2.561 -0.0890 -0.6103 -0.3060
  169MOL0     C22689   7.629   8.874   2.555  0.7556  0.0083  0.1478
  169MOL0     C22690   7.608   8.968   2.431 -0.7523  0.2142 -0.1683
  169MOL0     C22691   7.496   9.074   2.453 -0.3438  0.0953  0.8621
  169MOL0     C22692   7.525   9.199   2.368 -0.1127 -0.1764 -0.0527
  169MOL0     C22693   7.389   9.265   2.329 -0.5943  0.3412  0.0489
  169MOL0     C22694   7.349   9.346   2.456 -0.5583 -0.0351  0.8105
  169MOL0     C22695   7.227   9.433   2.442  0.2598 -1.2716 -1.6128
  169MOL0     C22696   7.130   9.414   2.559  0.0305 -0.2844 -0.9384
  169MOL0     N22697   6.991   9.475   2.538  0.1710  0.6754  0.6401
  169MOL0     C22698   6.970   9.593   2.470  0.0235  0.2142 -0.2492
  169MOL0     C22699   6.847   9.634   2.511 -0.1741  0.0099  0.2275
  169MOL0     C22700   6.784   9.754   2.460  0.8713 -0.5579  0.2659
  169MOL0     C22701   6.654   9.720   2.389 -0.7052 -0.5161  0.0405
  169MOL0     C22702   6.619   9.840   2.291  0.9900  0.6317 -0.2392
  169MOL0     C22703   6.479   9.853   2.253 -0.1554 -0.6171 -0.5865
  169MOL0     O22704   6.470   9.951   2.149  0.0071  0.1696 -0.3071
  169MOL0     C22705   6.346   9.996   2.121 -0.8738  0.0590  0.9655
  169MOL0     C22706   6.280   9.946   2.010 -0.6024  0.1249 -0.1953
  169MOL0     C22707   6.147   9.994   1.982  0.0381  0.3281 -0.1350
  169MOL0     C22708   6.083   9.927   1.860  0.6557  0.1004  0.0820
  169MOL0     C22709   6.092  10.091   2.061  0.9782 -0.5733 -0.5286
  169MOL0     C22710   5.955  10.147   2.046 -0.7040 -0.4603 -0.0073
  169MOL0     O22711   5.878  10.078   1.961 -0.2512  0.0112 -0.1506
  169MOL0     C22712   5.745  10.095   1.972 -0.6578 -0.3148  0.2502
  169MOL0     C22713   5.689  10.167   1.863 -0.0769  0.5346 -0.1995
  169MOL0     C22714   5.549  10.169   1.849 -0.8161 -0.2178  0.6055
  169MOL0     C22715   5.462  10.093   1.932 -0.5707  0.1595 -0.1880
  169MOL0     O22716   5.325  10.098   1.906 -0.1941  0.4207 -0.6414
  169MOL0     C22717   5.217  10.016   1.969 -0.3458 -0.1518  0.0554
  169MOL0     C22718   5.118  10.001   1.852  0.0361  0.1468 -0.4674
  169MOL0     C22719   5.045  10.123   1.809  1.2218  1.3808 -0.3996
  169MOL0     C22720   4.966  10.194   1.911 -0.0365 -0.2439 -0.4975
  169MOL0     C22721   4.842  10.109   1.947  0.6998  0.4343  0.1243
  169MOL0     C22722   4.729  10.115   1.831 -0.2739  0.5155  1.3941
  169MOL0     C22723   4.610  10.026   1.871 -0.4059  0.6187  0.0856
  169MOL0     C22724   4.483  10.036   1.783  0.4960  0.6870  0.2021
  169MOL0    Cl22725   4.420  10.200   1.771  0.0156  0.0150  0.2713
  169MOL0     C22726   5.516  10.031   2.040 -0.6812 -0.1203  0.3015
  169MOL0     C22727   5.658  10.019   2.062 -0.1948 -0.2341 -0.4498
  169MOL0     O22728   5.920  10.244   2.120  0.2008  0.2126  0.2249
  169MOL0     C22729   6.172  10.145   2.164 -0.1094  0.2305 -0.3471
  169MOL0     C22730   6.296  10.100   2.195 -0.2040 -0.7954 -0.1971
  169MOL0     N22731   6.799   9.544   2.602 -0.2411  0.1373 -0.5823
  169MOL0     N22732   6.885   9.451   2.619 -1.2445  0.2034 -0.6889
  169MOL0     C22733   7.412   8.890   2.764  0.4096  0.1923  0.0751
  169MOL0     C22734   7.301   8.945   2.820  0.2622  0.3334  0.7610
  169MOL0     C22735   6.869   9.112   2.861 -0.3661  0.0717  0.5187
  169MOL0     C22736   6.855   9.105   3.001 -0.5502 -0.9991 -0.2535
  169MOL0     C22737   6.743   9.165   3.065  0.5681  0.8201 -0.6364
  169MOL0     C22738   6.629   9.206   2.989  0.0052  0.3473  0.2776
  169MOL0     O22739   6.509   9.235   3.063  0.5302  0.0067  0.4889
  169MOL0     C22740   6.402   9.297   2.995 -0.1817  0.7946 -0.9942
  169MOL0     C22741   6.276   9.308   3.089  0.1191  0.4965 -1.3713
  169MOL0     C22742   6.162   9.385   3.024  0.1839 -0.3291  0.6645
  169MOL0     C22743   6.091   9.314   2.917  0.3709  0.4154  0.1876
  169MOL0     C22744   6.023   9.428   2.842  1.1444  0.7277  0.0448
  169MOL0     C22745   5.952   9.506   2.783 -0.6085  1.0647  0.4280
  169MOL0     C22746   6.652   9.233   2.855 -0.6047  0.3772 -0.4935
  169MOL0     C22747   6.770   9.178   2.794  0.8529 -0.4853 -0.2098
  169MOL0     H22748   7.073   8.859   2.588  1.0609  3.6546 -1.2472
  169MOL0     H22749   7.282   8.754   2.486  1.8273 -0.0614  0.5280
  169MOL0     H22750   7.654   8.952   2.628  0.6379  0.9268 -0.7711
  169MOL0     H22751   7.713   8.810   2.525 -0.2322 -0.5960 -1.4549
  169MOL0     H22752   7.706   9.010   2.405 -0.5980 -0.5010 -0.7768
  169MOL0     H22753   7.582   8.900   2.349  3.0040  1.0573 -2.3137
  169MOL0     H22754   7.398   9.033   2.428  0.1000 -0.1638 -0.4862
  169MOL0     H22755   7.506   9.099   2.559 -1.7031  1.1713  0.7716
  169MOL0     H22756   7.593   9.271   2.415  0.3883 -1.5755  1.4641
  169MOL0     H22757   7.594   9.171   2.288  0.0036 -0.0863  0.0156
  169MOL0     H22758   7.410   9.323   2.239 -3.1809 -1.9539 -2.2190
  169MOL0     H22759   7.311   9.197   2.294  0.2126  1.0152 -3.4048
  169MOL0     H22760   7.342   9.278   2.542  4.3582 -0.7547  0.9557
  169MOL0     H22761   7.435   9.411   2.476 -1.1024  0.3148  2.1587
  169MOL0     H22762   7.256   9.538   2.440  0.5644 -1.2236  1.4139
  169MOL0     H22763   7.177   9.408   2.348  2.2062 -0.1565 -3.0091
  169MOL0     H22764   7.172   9.442   2.656  1.8308 -1.0987 -1.4452
  169MOL0     H22765   7.131   9.306   2.575  2.5860  0.0108  1.8542
  169MOL0     H22766   7.037   9.631   2.394 -1.4790  0.8473 -1.2993
  169MOL0     H22767   6.766   9.826   2.540  1.0308  2.4836 -2.2514
  169MOL0     H22768   6.854   9.818   2.405  0.8165  0.1844  1.0490
  169MOL0     H22769   6.573   9.692   2.458 -2.7149  0.7160 -1.6876
  169MOL0     H22770   6.674   9.629   2.331 -1.6121 -0.9953  0.4430
  169MOL0     H22771   6.668   9.815   2.196 -1.1245 -1.8077 -0.8214
  169MOL0     H22772   6.658   9.933   2.332  2.6858 -0.9370  1.9627
  169MOL0     H22773   6.421   9.889   2.339  0.9292 -2.1515  0.8459
  169MOL0     H22774   6.447   9.754   2.219 -0.7561  0.0645 -2.0817
  169MOL0     H22775   6.339   9.875   1.952  1.8455  0.8850  1.2491
  169MOL0     H22776   5.998   9.860   1.877  2.5693 -2.2234  1.0705
  169MOL0     H22777   6.044  10.006   1.794  0.4467 -1.9116 -2.3202
  169MOL0     H22778   6.158   9.876   1.800  0.1813 -1.7080  0.9550
  169MOL0     H22779   5.758  10.215   1.793  0.5298 -0.4170 -0.2729
  169MOL0     H22780   5.509  10.224   1.764  0.3199 -1.2203 -0.6457
  169MOL0     H22781   5.253   9.919   2.004 -1.4979 -0.9280 -0.8289
  169MOL0     H22782   5.182  10.069   2.058  0.6592 -0.8820  0.9151
  169MOL0     H22783   5.170   9.951   1.770 -1.0884 -2.3855  0.2678
  169MOL0     H22784   5.044   9.932   1.894 -2.5397  0.4374 -4.0827
  169MOL0     H22785   4.981  10.112   1.721 -0.9562 -3.4165  1.3957
  169MOL0     H22786   5.117  10.191   1.764  1.3417  2.0147  0.7073
  169MOL0     H22787   5.032  10.203   1.998 -0.4252 -1.7348 -0.0188
  169MOL0     H22788   4.942  10.293   1.871  1.8144 -0.4069 -2.1612
  169MOL0     H22789   4.787  10.148   2.033  1.0251  0.9991  0.0781
  169MOL0     H22790   4.862  10.003   1.967  0.5310  0.4672  0.4678
  169MOL0     H22791   4.706  10.220   1.810  0.7053  0.4959  0.0973
  169MOL0     H22792   4.769  10.065   1.743  0.0728  0.8455  1.3635
  169MOL0     H22793   4.580  10.053   1.973  0.1558  3.4901 -0.4138
  169MOL0     H22794   4.656   9.927   1.871  0.1295  0.8351  1.4448
  169MOL0     H22795   4.408   9.963   1.814 -1.9732  1.4128 -3.5126
  169MOL0     H22796   4.519  10.019   1.681  1.4949  2.8151  0.1394
  169MOL0     H22797   5.442   9.987   2.105  0.2292  0.5260  1.8298
  169MOL0     H22798   5.698   9.944   2.130  0.3999  0.9095  0.5120
  169MOL0     H22799   6.138  10.225   2.230  0.1223 -1.2597  1.6607
  169MOL0     H22800   6.356  10.132   2.280 -2.8099  0.3346  1.3431
  169MOL0     H22801   7.512   8.898   2.806  1.2149  0.4678 -1.7922
  169MOL0     H22802   7.311   9.011   2.905  2.7379  0.7206  0.2613
  169MOL0     H22803   6.927   9.061   3.070 -1.4538  2.8166  3.5120
  169MOL0     H22804   6.729   9.153   3.172 -1.7300  0.7421 -0.8957
  169MOL0     H22805   6.438   9.394   2.960  2.5437 -0.1110 -0.9448
  169MOL0     H22806   6.379   9.228   2.914  0.4574 -1.7859  0.8998
  169MOL0     H22807   6.297   9.349   3.188 -0.2695 -2.4932  0.0563
  169MOL0     H22808   6.247   9.205   3.112 -1.0851  1.9772  6.4147
  169MOL0     H22809   6.205   9.480   2.992  0.9196 -0.7349  0.4059
  169MOL0     H22810   6.086   9.403   3.101 -1.5567 -1.3956 -0.7201
  169MOL0     H22811   6.022   9.236   2.951  1.1234 -0.5418 -0.4053
  169MOL0     H22812   6.166   9.260   2.858  0.5014  2.4822 -1.6670
  169MOL0     H22813   5.912   9.579   2.715  0.7679  2.3748  0.9718
  169MOL0     H22814   6.562   9.268   2.805 -0.9768  0.0077 -0.0967
  169MOL0     H22815   6.785   9.181   2.686 -1.0510 -2.6181 -0.6133
  170MOL0     O22816   0.244   1.789   3.829  0.9566 -0.2759 -0.0147
  170MOL0     C22817   0.280   1.886   3.897 -1.2420  0.2932  0.1221
  170MOL0     O22818   0.228   2.009   3.892  0.6922  0.3640 -1.1520
  170MOL0     C22819   0.097   2.018   3.856  0.8399  0.0846  0.3290
  170MOL0     C22820   0.051   2.121   3.770 -0.5272  0.2702 -0.3753
  170MOL0     C22821  -0.083   2.137   3.729 -0.3790  0.1317  0.4761
  170MOL0     C22822  -0.175   2.047   3.774  0.3560 -0.1179  0.5299
  170MOL0     O22823  -0.310   2.056   3.731 -0.2103 -0.0518 -0.1305
  170MOL0     C22824  -0.419   2.037   3.830 -0.6965 -0.1909 -0.1138
  170MOL0     C22825  -0.545   2.108   3.793  0.1019  0.1456  0.5618
  170MOL0     C22826  -0.672   2.058   3.858 -0.1695 -0.6914  0.8546
  170MOL0     C22827  -0.773   2.180   3.851  0.4091  0.3316  0.0127
  170MOL0     C22828  -0.924   2.144   3.891 -0.8145 -0.9782 -0.2528
  170MOL0     C22829  -0.988   2.023   3.830  0.4552  0.5087 -0.5859
  170MOL0     C22830  -1.120   1.997   3.910 -0.6254  0.0575  1.3572
  170MOL0     C22831  -1.149   1.853   3.900  0.3635  0.0687  0.7188
  170MOL0     N22832  -1.284   1.840   3.967 -0.5370 -0.0597 -0.1318
  170MOL0     C22833  -1.396   1.796   3.911  0.3065  0.1007  0.9754
  170MOL0     C22834  -1.476   1.761   4.016  0.3153 -0.1757  0.4457
  170MOL0     C22835  -1.622   1.711   4.026  0.9467  0.2545 -0.1566
  170MOL0     C22836  -1.638   1.551   4.032 -0.1352 -0.8550 -0.0480
  170MOL0     C22837  -1.762   1.495   3.968  0.2972 -0.6022 -0.2671
  170MOL0     C22838  -1.882   1.535   4.047 -1.1140 -0.0633  0.1129
  170MOL0     O22839  -1.988   1.444   4.021 -0.8525  0.1392 -0.8053
  170MOL0     C22840  -2.105   1.482   3.965  0.7146  0.4751  1.3917
  170MOL0     C22841  -2.199   1.381   3.979  0.2047  1.3326  0.5489
  170MOL0     C22842  -2.329   1.396   3.941 -0.0568  0.2112  0.3678
  170MOL0     C22843  -2.422   1.281   3.985 -0.6384  0.3012 -0.3392
  170MOL0     C22844  -2.360   1.515   3.868  0.0643 -0.3981 -0.2650
  170MOL0     C22845  -2.495   1.536   3.817 -1.0160  0.2610  0.1251
  170MOL0     O22846  -2.527   1.651   3.758 -0.2893  0.1316 -0.2344
  170MOL0     C22847  -2.653   1.674   3.702 -0.6410  0.0622  0.1128
  170MOL0     C22848  -2.655   1.775   3.610  0.1211 -0.2121  0.8726
  170MOL0     C22849  -2.771   1.810   3.532 -0.5022  0.0765  0.1388
  170MOL0     C22850  -2.890   1.748   3.555 -0.0980  0.3617 -0.2457
  170MOL0     O22851  -3.016   1.779   3.492 -0.5345 -0.4533  0.0109
  170MOL0     C22852  -3.018   1.893   3.408  0.3295  0.0131 -0.4449
  170MOL0     C22853  -3.139   1.910   3.312  0.0239 -0.1215  0.6803
  170MOL0     C22854  -3.260   1.970   3.381 -0.9268  0.1891 -1.3397
  170MOL0     C22855  -3.392   1.916   3.331 -0.6042  0.8110 -0.2584
  170MOL0     C22856  -3.505   2.001   3.390  0.6241  0.6272 -1.0592
  170MOL0     C22857  -3.637   1.974   3.324  0.0883  0.0396 -0.0674
  170MOL0     C22858  -3.748   2.060   3.391  0.2359 -0.7863  0.6811
  170MOL0     C22859  -3.776   2.022   3.533  0.2761  0.7379 -0.4910
  170MOL0    Cl22860  -3.904   2.110   3.609  0.3485 -0.0820 -0.2682
  170MOL0     C22861  -2.889   1.645   3.649  0.1602 -0.9265  0.2376
  170MOL0     C22862  -2.778   1.610   3.717  0.5974 -0.6604 -0.7797
  170MOL0     O22863  -2.571   1.439   3.819  0.1683  0.3687  1.0300
  170MOL0     C22864  -2.264   1.615   3.851  0.0907  0.3052  0.5568
  170MOL0     C22865  -2.137   1.598   3.902 -0.4235  0.4360 -0.4383
  170MOL0     N22866  -1.399   1.768   4.134  0.7480 -0.5028  0.3515
  170MOL0     N22867  -1.277   1.802   4.098  0.0588  1.0777 -0.0818
  170MOL0     C22868  -0.141   1.941   3.862  0.1443 -0.6352  0.5886
  170MOL0     C22869  -0.008   1.937   3.911 -0.1365 -0.0055  0.1190
  170MOL0     C22870   0.400   1.864   3.984  0.3020  0.3406 -0.4571
  170MOL0     C22871   0.415   1.950   4.100  0.6651  0.5290  0.1628
  170MOL0     C22872   0.528   1.933   4.167 -0.4318 -0.0003  0.8045
  170MOL0     C22873   0.615   1.823   4.154 -0.2994 -0.5961 -0.1563
  170MOL0     O22874   0.722   1.824   4.238 -0.0270  0.2977  0.3447
  170MOL0     C22875   0.827   1.721   4.228  0.9642 -0.6233  0.3334
  170MOL0     C22876   0.904   1.754   4.356 -0.1857 -0.0114 -0.0993
  170MOL0     C22877   0.995   1.634   4.402  0.1419 -0.6080  0.1524
  170MOL0     C22878   1.121   1.633   4.306  0.7966 -0.1086  0.0440
  170MOL0     C22879   1.203   1.513   4.309 -0.3654  1.1262 -0.9118
  170MOL0     C22880   1.277   1.420   4.313 -0.3230  0.4841 -0.8602
  170MOL0     C22881   0.610   1.751   4.041 -0.0351  0.0798  0.3286
  170MOL0     C22882   0.495   1.759   3.963 -0.3291 -0.3389  0.3764
  170MOL0     H22883   0.119   2.199   3.736 -1.7959  1.4584 -0.2891
  170MOL0     H22884  -0.101   2.220   3.662 -1.7925  0.6317  1.4361
  170MOL0     H22885  -0.449   1.932   3.833 -1.5584  0.0194  3.2318
  170MOL0     H22886  -0.387   2.075   3.928 -1.4550  2.6416 -0.8771
  170MOL0     H22887  -0.526   2.213   3.816  2.6108  0.1502 -1.1207
  170MOL0     H22888  -0.555   2.106   3.684  1.0367  0.7160  0.4553
  170MOL0     H22889  -0.699   1.971   3.796 -1.5161  0.2012  0.1199
  170MOL0     H22890  -0.672   2.034   3.965 -1.5837  0.7525  1.2207
  170MOL0     H22891  -0.735   2.257   3.919 -1.5154  3.2583 -2.0087
  170MOL0     H22892  -0.771   2.224   3.751 -0.4058  0.9365  0.2537
  170MOL0     H22893  -0.913   2.132   3.999  2.0684  0.8125 -0.2418
  170MOL0     H22894  -0.991   2.230   3.879 -1.1628 -1.3559 -1.0376
  170MOL0     H22895  -1.022   2.043   3.728  1.6396 -1.8215 -1.5084
  170MOL0     H22896  -0.922   1.936   3.832 -0.3409 -0.0926  0.2943
  170MOL0     H22897  -1.086   2.014   4.013  4.5624 -1.6266  0.2280
  170MOL0     H22898  -1.195   2.065   3.869  1.9062  2.5945  0.6030
  170MOL0     H22899  -1.078   1.788   3.951  2.9364  3.7398  2.2802
  170MOL0     H22900  -1.156   1.822   3.795  2.2964 -1.5684  1.0196
  170MOL0     H22901  -1.431   1.785   3.809  1.0704  0.5595  0.6589
  170MOL0     H22902  -1.678   1.745   4.114 -1.0283  1.0528 -1.6391
  170MOL0     H22903  -1.680   1.740   3.937 -0.8474 -3.2685 -0.3105
  170MOL0     H22904  -1.637   1.515   4.135 -3.5984 -0.4085  0.2635
  170MOL0     H22905  -1.559   1.493   3.985  0.6338  1.3819 -1.6824
  170MOL0     H22906  -1.757   1.387   3.953  4.6736 -1.0270  2.3324
  170MOL0     H22907  -1.767   1.540   3.869 -0.1681  0.5378  0.2553
  170MOL0     H22908  -1.909   1.633   4.008 -0.9129 -0.0082  0.1166
  170MOL0     H22909  -1.850   1.527   4.151 -0.2250 -3.4950 -0.2837
  170MOL0     H22910  -2.163   1.294   4.034 -1.7431 -0.2850 -0.5850
  170MOL0     H22911  -2.442   1.214   3.902  4.5634 -0.0188 -1.6508
  170MOL0     H22912  -2.378   1.228   4.070 -2.1789 -2.7514 -1.3283
  170MOL0     H22913  -2.514   1.329   4.020  0.3482  1.2434  1.0932
  170MOL0     H22914  -2.555   1.811   3.589  0.0094  0.3673  1.3028
  170MOL0     H22915  -2.762   1.881   3.449 -2.1160  0.2402  0.0787
  170MOL0     H22916  -3.005   1.978   3.476 -1.7820  0.4852 -0.5678
  170MOL0     H22917  -2.925   1.888   3.351  0.7553 -1.4147  0.3194
  170MOL0     H22918  -3.110   1.984   3.238 -3.2149  2.0363  1.3842
  170MOL0     H22919  -3.165   1.812   3.270  2.2995 -0.3170 -0.4424
  170MOL0     H22920  -3.259   2.079   3.375  2.7210  0.3207 -0.5377
  170MOL0     H22921  -3.255   1.946   3.488 -1.1637 -3.3891 -2.0141
  170MOL0     H22922  -3.403   1.934   3.224 -1.7365  0.7895 -0.1577
  170MOL0     H22923  -3.405   1.808   3.337  0.2841  0.6582 -0.9176
  170MOL0     H22924  -3.483   2.108   3.385  2.3156  0.7369  3.8163
  170MOL0     H22925  -3.506   1.968   3.494  1.5143  1.6645 -0.7117
  170MOL0     H22926  -3.636   2.008   3.220  0.6750 -2.2101 -0.8662
  170MOL0     H22927  -3.661   1.867   3.330  0.3196 -0.0361 -0.4478
  170MOL0     H22928  -3.844   2.059   3.338  1.3834  1.0316 -1.6637
  170MOL0     H22929  -3.713   2.163   3.380 -0.6335 -0.6701 -1.5130
  170MOL0     H22930  -3.686   2.033   3.593 -1.0806  0.0884  1.7965
  170MOL0     H22931  -3.808   1.917   3.539 -1.4958  1.3129  1.5066
  170MOL0     H22932  -2.983   1.592   3.653 -0.6058  0.4652  2.5908
  170MOL0     H22933  -2.793   1.525   3.783  0.1389 -1.0959 -1.4359
  170MOL0     H22934  -2.297   1.701   3.793  0.7373 -0.3432 -0.8351
  170MOL0     H22935  -2.054   1.669   3.896  0.8886 -0.9534  0.4476
  170MOL0     H22936  -0.211   1.868   3.902  0.7186 -0.6567  1.5849
  170MOL0     H22937   0.027   1.866   3.986 -0.2534  0.6227  0.7887
  170MOL0     H22938   0.334   2.007   4.144  1.0197 -0.1317  1.7482
  170MOL0     H22939   0.548   1.980   4.263  5.8797 -0.3932  0.0993
  170MOL0     H22940   0.768   1.629   4.229 -1.2866  0.7301  1.3268
  170MOL0     H22941   0.889   1.714   4.139  1.8630 -2.7591  1.0542
  170MOL0     H22942   0.832   1.766   4.438 -0.8367  0.2623 -0.7020
  170MOL0     H22943   0.958   1.849   4.358  1.7588 -1.0737  1.1551
  170MOL0     H22944   0.930   1.546   4.392 -0.2321 -0.5397  1.7313
  170MOL0     H22945   1.028   1.633   4.506  0.3590 -0.4287  0.0838
  170MOL0     H22946   1.188   1.719   4.316 -0.7097  1.2227 -0.7643
  170MOL0     H22947   1.080   1.636   4.204  1.7334 -2.1390 -0.4391
  170MOL0     H22948   1.338   1.332   4.307 -1.1921 -0.0967 -1.4480
  170MOL0     H22949   0.678   1.672   4.011 -0.4151  0.0533 -0.4935
  170MOL0     H22950   0.473   1.690   3.882  0.4570  0.4035 -0.4918
  171MOL0     O22951   2.456  10.981   0.399 -0.2380  0.3866  0.8179
  171MOL0     C22952   2.564  10.966   0.452 -0.2744  0.4558  0.5857
  171MOL0     O22953   2.654  10.861   0.427 -0.7556 -0.0584 -0.1850
  171MOL0     C22954   2.619  10.753   0.341  0.1284 -0.6757 -0.2072
  171MOL0     C22955   2.729  10.708   0.255 -0.2210  1.0855 -0.4565
  171MOL0     C22956   2.713  10.587   0.189 -0.5135  0.0227 -0.0905
  171MOL0     C22957   2.587  10.528   0.192  0.2751  0.0640  0.5807
  171MOL0     O22958   2.569  10.410   0.122  0.1002 -0.3297  0.4110
  171MOL0     C22959   2.583  10.421  -0.021  1.4869 -0.2554  0.2802
  171MOL0     C22960   2.546  10.289  -0.079  0.9131  0.5775  0.1717
  171MOL0     C22961   2.669  10.205  -0.122  0.5720 -1.2260  1.0159
  171MOL0     C22962   2.734  10.158   0.006 -0.4611 -0.3451  0.2360
  171MOL0     C22963   2.825  10.036  -0.017  0.2278  0.3520 -0.2341
  171MOL0     C22964   2.750   9.903  -0.047  0.0513 -0.7618 -0.3100
  171MOL0     C22965   2.835   9.771  -0.047  0.5092 -0.1355  0.3329
  171MOL0     C22966   2.736   9.655  -0.075 -0.1832 -0.9443 -0.8549
  171MOL0     N22967   2.805   9.530  -0.094  0.3312  0.1327 -0.4823
  171MOL0     C22968   2.911   9.510  -0.189  0.4474 -0.0147 -0.3400
  171MOL0     C22969   2.963   9.385  -0.149 -0.6054 -0.5592  1.0252
  171MOL0     C22970   3.080   9.308  -0.202 -0.3655 -0.0055  0.9835
  171MOL0     C22971   3.049   9.208  -0.312  0.8101 -0.5605 -0.1791
  171MOL0     C22972   3.168   9.125  -0.352  0.5166  0.9114  0.7607
  171MOL0     C22973   3.172   8.991  -0.269 -0.2941  0.9341  0.2364
  171MOL0     O22974   3.282   8.908  -0.303 -0.7876 -0.4530  0.1602
  171MOL0     C22975   3.302   8.788  -0.234  0.4646  0.8181 -0.3834
  171MOL0     C22976   3.281   8.771  -0.096  0.5918  0.2132  0.3659
  171MOL0     C22977   3.330   8.650  -0.033  0.7275  0.8837  0.3375
  171MOL0     C22978   3.309   8.645   0.114  0.1925 -0.1655  0.6833
  171MOL0     C22979   3.377   8.546  -0.113 -1.3596  0.2460  0.2844
  171MOL0     C22980   3.430   8.418  -0.063  0.2373  0.0288 -0.2420
  171MOL0     O22981   3.499   8.337  -0.151 -0.4582 -0.1232 -0.5962
  171MOL0     C22982   3.562   8.226  -0.107  0.2727  0.3786 -0.7280
  171MOL0     C22983   3.493   8.120  -0.031 -0.1507 -0.2843 -0.2824
  171MOL0     C22984   3.556   8.000  -0.019  0.5552 -0.3983  0.1564
  171MOL0     C22985   3.682   7.973  -0.077  0.5418  0.2754  0.7778
  171MOL0     O22986   3.745   7.853  -0.072 -0.2736 -0.5090  0.1468
  171MOL0     C22987   3.707   7.755   0.028  0.4876 -0.2486 -0.8047
  171MOL0     C22988   3.818   7.650   0.051  0.6172  0.0881  0.3237
  171MOL0     C22989   3.862   7.574  -0.075  0.2343  0.3264 -0.7860
  171MOL0     C22990   3.751   7.490  -0.133 -0.0635  0.5320  0.6714
  171MOL0     C22991   3.809   7.427  -0.262  0.2372  1.4564  1.5748
  171MOL0     C22992   3.696   7.355  -0.335  0.0610  0.6583  0.5436
  171MOL0     C22993   3.681   7.215  -0.274  0.4107  0.5318  0.7883
  171MOL0     C22994   3.589   7.127  -0.361  0.9513 -0.3858 -0.2105
  171MOL0    Cl22995   3.610   6.956  -0.330  0.2418 -0.1211 -0.5017
  171MOL0     C22996   3.748   8.078  -0.142  0.0477  0.6918  0.7015
  171MOL0     C22997   3.689   8.200  -0.167  0.3816 -0.3161 -0.8146
  171MOL0     O22998   3.411   8.393   0.055 -0.2131  0.1196  0.6841
  171MOL0     C22999   3.385   8.564  -0.251  0.4430  0.0058  0.2921
  171MOL0     C23000   3.345   8.679  -0.306 -0.9418 -0.4843 -0.8947
  171MOL0     N23001   2.878   9.337  -0.053  0.3859 -0.2564 -1.0813
  171MOL0     N23002   2.791   9.422  -0.011 -0.0966  0.4549 -0.9690
  171MOL0     C23003   2.488  10.575   0.277 -0.2700  0.9194  0.2449
  171MOL0     C23004   2.494  10.691   0.349  0.0991  0.2629 -0.2147
  171MOL0     C23005   2.623  11.060   0.541  0.3227 -0.3685  0.1054
  171MOL0     C23006   2.548  11.169   0.588 -0.0704 -0.3819 -0.8995
  171MOL0     C23007   2.599  11.261   0.682 -0.2310  0.1757  0.0327
  171MOL0     C23008   2.729  11.246   0.726 -0.3025 -0.5932 -0.1988
  171MOL0     O23009   2.774  11.352   0.807  0.1988 -0.3478 -0.2334
  171MOL0     C23010   2.866  11.318   0.915  0.0541  0.1315 -0.1771
  171MOL0     C23011   2.794  11.233   1.020  0.3918  0.8188 -0.0984
  171MOL0     C23012   2.662  11.292   1.066 -0.8218 -0.7434  0.1772
  171MOL0     C23013   2.665  11.427   1.135 -0.5988  0.5313 -0.1905
  171MOL0     C23014   2.524  11.451   1.162  0.8818 -0.5472 -0.0903
  171MOL0     C23015   2.408  11.459   1.196  0.4899 -1.0051  0.1330
  171MOL0     C23016   2.808  11.140   0.679  1.2728 -0.0226 -1.1455
  171MOL0     C23017   2.756  11.045   0.592  0.6508 -0.3426 -0.5744
  171MOL0     H23018   2.821  10.764   0.264 -2.0283  4.1706  0.3604
  171MOL0     H23019   2.792  10.550   0.124 -1.8219 -2.1972 -0.4967
  171MOL0     H23020   2.509  10.495  -0.051  0.1284 -1.3785  0.7832
  171MOL0     H23021   2.680  10.451  -0.063  1.4713 -0.7922 -0.1568
  171MOL0     H23022   2.469  10.238  -0.019  0.3107 -1.8189 -2.4157
  171MOL0     H23023   2.502  10.315  -0.176  3.8642  0.2214 -1.3666
  171MOL0     H23024   2.654  10.125  -0.195 -0.4694 -0.3213  0.2053
  171MOL0     H23025   2.723  10.283  -0.176 -1.4880 -0.7799 -0.5201
  171MOL0     H23026   2.798  10.238   0.045  0.5441 -1.9065  1.9212
  171MOL0     H23027   2.669  10.143   0.092  0.0090 -2.0467  0.3249
  171MOL0     H23028   2.899  10.057  -0.095  1.5267 -1.5447  0.4059
  171MOL0     H23029   2.870  10.020   0.082 -0.3150  0.1841 -0.0095
  171MOL0     H23030   2.675   9.895   0.032 -3.7762 -0.0399 -3.5118
  171MOL0     H23031   2.687   9.911  -0.137  1.0375 -0.2544 -0.9774
  171MOL0     H23032   2.924   9.774  -0.111 -0.0515 -2.0593 -0.5964
  171MOL0     H23033   2.883   9.759   0.051  1.5956  1.4581  0.0393
  171MOL0     H23034   2.685   9.663  -0.172 -0.6926  0.4722 -0.4927
  171MOL0     H23035   2.655   9.637  -0.005 -1.7795 -3.0550 -3.0860
  171MOL0     H23036   2.959   9.574  -0.262  1.0945  0.0729  0.1599
  171MOL0     H23037   3.155   9.375  -0.244 -0.5631  0.1205  0.8268
  171MOL0     H23038   3.117   9.247  -0.119  0.1372 -0.9392  0.0847
  171MOL0     H23039   3.012   9.266  -0.397 -0.1029 -1.6679 -0.5645
  171MOL0     H23040   2.963   9.146  -0.284  1.8763 -4.4006 -4.3650
  171MOL0     H23041   3.260   9.184  -0.354 -0.1507  2.0418 -2.5339
  171MOL0     H23042   3.154   9.096  -0.456 -0.0723 -2.4598  1.6431
  171MOL0     H23043   3.079   8.941  -0.300 -0.9714  1.6912  0.9806
  171MOL0     H23044   3.169   9.013  -0.162  0.1273 -2.2998  1.0335
  171MOL0     H23045   3.255   8.861  -0.041 -0.4963  0.3238 -0.2914
  171MOL0     H23046   3.398   8.656   0.176  1.9475 -5.0348 -0.4868
  171MOL0     H23047   3.237   8.727   0.127 -0.7729 -0.6738 -1.0727
  171MOL0     H23048   3.271   8.549   0.149  2.0036 -0.7404  1.1307
  171MOL0     H23049   3.392   8.138   0.006  0.2649 -2.8369  2.4441
  171MOL0     H23050   3.505   7.919   0.034  1.0243  0.7131  2.4221
  171MOL0     H23051   3.693   7.794   0.129  1.5384  1.3158 -1.2394
  171MOL0     H23052   3.615   7.705  -0.005  0.2255 -2.0397  2.2328
  171MOL0     H23053   3.908   7.688   0.101 -0.5117 -1.8227  4.2502
  171MOL0     H23054   3.767   7.591   0.128 -1.2760  1.8125  0.4695
  171MOL0     H23055   3.944   7.510  -0.040  0.0260  1.5071  2.1600
  171MOL0     H23056   3.902   7.640  -0.153  1.9601 -1.1200 -1.1858
  171MOL0     H23057   3.718   7.420  -0.056  0.7921 -1.2347 -0.5187
  171MOL0     H23058   3.672   7.558  -0.165  1.1098  2.0051  0.7687
  171MOL0     H23059   3.896   7.364  -0.240 -1.4783 -1.0838  1.5367
  171MOL0     H23060   3.843   7.500  -0.335  0.2773  1.7863  1.9175
  171MOL0     H23061   3.603   7.412  -0.322 -1.3143 -1.2841 -0.4347
  171MOL0     H23062   3.718   7.344  -0.441 -2.5667  0.3474 -0.0504
  171MOL0     H23063   3.648   7.221  -0.170 -1.5507 -0.0587  0.2418
  171MOL0     H23064   3.780   7.169  -0.281  0.4859  0.9543 -2.1595
  171MOL0     H23065   3.610   7.140  -0.468 -0.5029  1.6686 -0.3022
  171MOL0     H23066   3.484   7.152  -0.342  2.4443  5.7229  2.2500
  171MOL0     H23067   3.848   8.061  -0.180 -0.5138  2.2511 -1.6395
  171MOL0     H23068   3.739   8.264  -0.239  0.0527  0.5408 -0.3055
  171MOL0     H23069   3.407   8.480  -0.316  0.9828 -2.6432  3.6224
  171MOL0     H23070   3.334   8.701  -0.411  0.4000 -0.0852 -0.9742
  171MOL0     H23071   2.401  10.511   0.281 -2.8466  4.0400 -0.9164
  171MOL0     H23072   2.412  10.724   0.411  0.8425  1.0358  0.3842
  171MOL0     H23073   2.447  11.185   0.552  0.0296  0.6443 -0.7551
  171MOL0     H23074   2.533  11.341   0.713  1.1654  2.1310 -1.7845
  171MOL0     H23075   2.954  11.269   0.872 -0.6935 -1.8956  0.5047
  171MOL0     H23076   2.901  11.405   0.970 -1.8077 -0.2811  1.7621
  171MOL0     H23077   2.861  11.231   1.106  1.9591 -0.9518 -1.2794
  171MOL0     H23078   2.775  11.132   0.982 -0.8300  0.6455  0.8919
  171MOL0     H23079   2.610  11.224   1.136 -1.7033 -0.6592 -0.3759
  171MOL0     H23080   2.601  11.304   0.976  1.7659 -2.0479 -1.8940
  171MOL0     H23081   2.707  11.503   1.067 -0.2882  0.3198 -0.2385
  171MOL0     H23082   2.730  11.417   1.223  0.8229 -1.6632 -1.3976
  171MOL0     H23083   2.302  11.456   1.210  0.0775  3.4437 -0.6297
  171MOL0     H23084   2.914  11.142   0.705  0.7358  0.4693  1.2411
  171MOL0     H23085   2.833  10.973   0.568  1.1771 -0.4072  1.1120
  172MOL0     O23086  10.483   7.877   9.793  0.0515  0.5374  0.7054
  172MOL0     C23087  10.372   7.925   9.792  1.2698 -1.1268 -0.6356
  172MOL0     O23088  10.334   8.030   9.719  0.3641 -0.4032  0.2654
  172MOL0     C23089  10.423   8.095   9.634 -0.0477  0.7477 -0.1428
  172MOL0     C23090  10.406   8.087   9.494  0.0302  0.2372 -0.3207
  172MOL0     C23091  10.506   8.141   9.406  0.4357  0.1407 -0.0214
  172MOL0     C23092  10.614   8.227   9.462  0.3513 -0.3881 -0.3750
  172MOL0     O23093  10.713   8.281   9.390 -0.5370 -0.0665  0.6482
  172MOL0     C23094  10.761   8.227   9.264  0.5113 -0.6793 -0.8445
  172MOL0     C23095  10.840   8.103   9.283 -0.3508  0.3521  0.5463
  172MOL0     C23096  10.985   8.129   9.234  0.2111 -0.4418 -0.4061
  172MOL0     C23097  11.082   8.011   9.253  0.4216 -0.0201 -0.0474
  172MOL0     C23098  11.220   8.043   9.201 -0.6130 -1.5485  0.7878
  172MOL0     C23099  11.318   7.940   9.252 -0.3344  0.0344  0.0692
  172MOL0     C23100  11.459   7.947   9.189 -0.4057 -0.3579 -0.6326
  172MOL0     C23101  11.539   8.069   9.247 -0.1150  0.8712  0.6152
  172MOL0     N23102  11.525   8.082   9.391  0.1604 -0.5301  0.1912
  172MOL0     C23103  11.571   7.990   9.482  0.9389  0.0624 -0.0846
  172MOL0     C23104  11.551   8.041   9.600  0.7287 -0.5764  0.3863
  172MOL0     C23105  11.587   7.986   9.736 -0.5336  0.4336  1.2958
  172MOL0     C23106  11.564   8.087   9.844 -0.4427  0.0954 -0.8361
  172MOL0     C23107  11.591   8.022   9.984  0.7971 -0.4379  0.0537
  172MOL0     C23108  11.650   8.126  10.084 -0.0930  0.2954  0.0868
  172MOL0     O23109  11.676   8.072  10.214 -0.1901  0.7092 -0.2637
  172MOL0     C23110  11.765   8.139  10.301  0.9657  0.2325  0.4659
  172MOL0     C23111  11.810   8.066  10.408  0.1003  0.3195 -0.0218
  172MOL0     C23112  11.908   8.116  10.496  0.5851 -0.1198  0.3800
  172MOL0     C23113  11.950   8.027  10.603 -0.6455 -0.1091  0.4084
  172MOL0     C23114  11.971   8.243  10.476 -0.2947 -0.5238 -1.2716
  172MOL0     C23115  12.060   8.297  10.579  0.0115 -0.3339 -0.5942
  172MOL0     O23116  12.062   8.252  10.709 -0.2003 -0.6631  0.0607
  172MOL0     C23117  12.163   8.284  10.796  0.5848 -0.7152 -0.0159
  172MOL0     C23118  12.295   8.325  10.763  0.5928  0.8232  0.3998
  172MOL0     C23119  12.392   8.332  10.856  0.0897 -0.2038  0.8238
  172MOL0     C23120  12.367   8.297  10.991  0.5790 -0.1255  0.8499
  172MOL0     O23121  12.467   8.313  11.087 -0.0815  0.6046 -0.7153
  172MOL0     C23122  12.604   8.283  11.043  0.1689  0.0450 -1.1898
  172MOL0     C23123  12.631   8.129  11.039  1.3399 -0.2316  0.1807
  172MOL0     C23124  12.743   8.097  10.950 -0.3339 -0.0444 -0.4406
  172MOL0     C23125  12.810   7.965  10.969  0.5438  0.6729  0.1691
  172MOL0     C23126  12.742   7.836  10.907 -0.2719  0.1974 -0.1740
  172MOL0     C23127  12.775   7.824  10.750 -0.1796  0.3522 -0.5839
  172MOL0     C23128  12.713   7.703  10.676 -0.5625  0.1876  0.3785
  172MOL0     C23129  12.783   7.573  10.717  0.6831 -0.8002  0.1684
  172MOL0    Cl23130  12.679   7.442  10.702 -0.0113 -0.0493 -0.5622
  172MOL0     C23131  12.234   8.271  11.029 -1.0751  0.0846 -0.0786
  172MOL0     C23132  12.129   8.269  10.935 -0.0947  1.2435 -0.9675
  172MOL0     O23133  12.133   8.382  10.538  0.1847 -0.1182  1.0296
  172MOL0     C23134  11.922   8.321  10.371 -0.1995 -0.6287  0.3731
  172MOL0     C23135  11.819   8.270  10.284  0.7490  0.9855  0.2421
  172MOL0     N23136  11.504   8.171   9.582 -0.0336 -0.2959  0.9857
  172MOL0     N23137  11.487   8.193   9.450 -0.3456  0.7885 -0.5363
  172MOL0     C23138  10.617   8.243   9.600 -0.2139 -0.6789  0.3551
  172MOL0     C23139  10.525   8.177   9.685  0.7231 -0.3479  0.0667
  172MOL0     C23140  10.263   7.884   9.877  0.1746  0.4948  1.1651
  172MOL0     C23141  10.136   7.950   9.873 -0.5446 -0.2871  0.0509
  172MOL0     C23142  10.044   7.909   9.979 -0.6527 -0.7553  0.6441
  172MOL0     C23143  10.070   7.807  10.071  0.8246  0.3961 -0.1833
  172MOL0     O23144   9.974   7.772  10.163 -0.1186 -0.0398 -0.1595
  172MOL0     C23145   9.968   7.877  10.262 -0.5226  0.5490  0.9212
  172MOL0     C23146   9.917   7.817  10.402 -0.4973  0.1972  0.5014
  172MOL0     C23147  10.035   7.758  10.484  0.5817 -0.5553  0.6001
  172MOL0     C23148  10.121   7.873  10.549  0.3258  0.4574 -1.0115
  172MOL0     C23149  10.207   7.810  10.646 -0.3456  0.1095 -0.6018
  172MOL0     C23150  10.280   7.757  10.732  0.3977 -0.4897  0.5652
  172MOL0     C23151  10.191   7.738  10.064 -0.6850 -0.2684 -0.2858
  172MOL0     C23152  10.287   7.788   9.977 -0.0726  0.5352  0.0736
  172MOL0     H23153  10.323   8.037   9.445  0.0305  0.5129 -0.6017
  172MOL0     H23154  10.497   8.129   9.299  3.9754  2.1501 -0.7195
  172MOL0     H23155  10.680   8.222   9.191  1.3787  1.3734 -2.0641
  172MOL0     H23156  10.824   8.303   9.215 -0.1774  2.1532  2.2591
  172MOL0     H23157  10.846   8.087   9.391  1.9134 -0.6317  0.3265
  172MOL0     H23158  10.799   8.015   9.232  1.7787  0.0815 -0.8136
  172MOL0     H23159  10.973   8.162   9.130  2.2881  3.0077  0.2875
  172MOL0     H23160  11.029   8.217   9.280  0.9538 -1.5928  1.1697
  172MOL0     H23161  11.068   7.985   9.358 -5.3681 -2.1250 -1.0003
  172MOL0     H23162  11.053   7.933   9.183 -0.5310  3.4950 -3.9529
  172MOL0     H23163  11.223   8.053   9.092 -2.5133 -5.5330  0.1941
  172MOL0     H23164  11.239   8.145   9.235  1.2903 -1.3069 -0.8054
  172MOL0     H23165  11.331   7.947   9.360  0.1727 -3.5724  0.3805
  172MOL0     H23166  11.280   7.838   9.236  3.9591 -1.7627  0.0433
  172MOL0     H23167  11.512   7.857   9.220  1.5867  1.8911  3.3065
  172MOL0     H23168  11.453   7.955   9.080  0.8789 -0.5305 -0.7303
  172MOL0     H23169  11.495   8.160   9.204 -2.0343 -1.3705 -2.5028
  172MOL0     H23170  11.640   8.054   9.207 -0.8156  1.6720 -1.5966
  172MOL0     H23171  11.606   7.889   9.463 -3.0443 -1.9045  1.8371
  172MOL0     H23172  11.524   7.899   9.760  1.2114 -0.2377  3.7820
  172MOL0     H23173  11.688   7.945   9.744  0.3212  1.5273 -2.1855
  172MOL0     H23174  11.461   8.126   9.842 -0.1351  1.0069  0.0830
  172MOL0     H23175  11.632   8.171   9.824  1.4216 -1.4188 -1.0928
  172MOL0     H23176  11.667   7.944   9.978  1.5507 -0.1467  3.6774
  172MOL0     H23177  11.495   7.985  10.021  1.7771 -2.3980  0.7725
  172MOL0     H23178  11.573   8.204  10.091 -2.2903 -1.8881  2.2679
  172MOL0     H23179  11.743   8.167  10.043 -0.5426  1.6971  0.4133
  172MOL0     H23180  11.753   7.975  10.421 -2.1770  1.7791  0.7715
  172MOL0     H23181  11.913   8.066  10.698  0.9628  2.2072  0.1785
  172MOL0     H23182  11.918   7.925  10.582  0.0436 -0.3897  0.6984
  172MOL0     H23183  12.059   8.029  10.604 -0.6581  0.5236  1.2849
  172MOL0     H23184  12.325   8.345  10.660  1.8749  0.6966  0.7402
  172MOL0     H23185  12.491   8.352  10.816 -0.7219 -0.4883 -1.4753
  172MOL0     H23186  12.629   8.328  10.947 -2.4009  0.2371 -1.8353
  172MOL0     H23187  12.665   8.328  11.122 -1.5639  0.8875 -0.2767
  172MOL0     H23188  12.621   8.086  11.139 -1.4322  2.9708  1.4485
  172MOL0     H23189  12.543   8.090  10.986  0.6325  1.4117  0.0885
  172MOL0     H23190  12.817   8.173  10.976  0.2483 -1.4233  2.2885
  172MOL0     H23191  12.710   8.109  10.846  1.3739  2.3933 -0.7900
  172MOL0     H23192  12.912   7.975  10.930  0.7738  0.2971  0.6694
  172MOL0     H23193  12.821   7.955  11.077  2.6442 -0.4737 -0.1033
  172MOL0     H23194  12.633   7.841  10.922 -0.2283  4.8617  0.1096
  172MOL0     H23195  12.787   7.747  10.951 -0.1576  1.0745  1.6123
  172MOL0     H23196  12.739   7.915  10.700  0.8492  0.6874 -0.7390
  172MOL0     H23197  12.883   7.823  10.732  0.6227 -0.6880  3.3187
  172MOL0     H23198  12.717   7.719  10.568 -0.9895 -0.3278  0.2829
  172MOL0     H23199  12.608   7.704  10.708 -0.9653  2.6156 -0.8080
  172MOL0     H23200  12.803   7.588  10.823 -0.6159 -1.7447  0.5674
  172MOL0     H23201  12.879   7.564  10.664  0.1346 -0.1126 -0.9752
  172MOL0     H23202  12.203   8.241  11.128 -3.3060  3.0008  0.2668
  172MOL0     H23203  12.033   8.224  10.960 -0.3422  0.3447 -3.3039
  172MOL0     H23204  11.961   8.421  10.360 -2.3992  0.2876  0.3403
  172MOL0     H23205  11.805   8.325  10.191  2.0201  0.8329 -0.0556
  172MOL0     H23206  10.693   8.305   9.648 -0.8995 -0.8290  1.6919
  172MOL0     H23207  10.528   8.186   9.794 -3.3038 -1.6885  0.4437
  172MOL0     H23208  10.116   8.033   9.806 -0.9418 -2.1042 -2.2200
  172MOL0     H23209   9.949   7.956  10.003 -0.1105  0.4943  0.4543
  172MOL0     H23210  10.059   7.935  10.283  0.3048 -0.8516  1.3269
  172MOL0     H23211   9.893   7.950  10.230  2.4386  2.3931 -2.5699
  172MOL0     H23212   9.843   7.742  10.372 -1.3228  0.4343  1.8867
  172MOL0     H23213   9.879   7.899  10.464 -0.6058  1.8645 -1.6727
  172MOL0     H23214  10.089   7.689  10.419 -3.3146 -1.2254 -2.2857
  172MOL0     H23215   9.998   7.705  10.572  2.0122 -1.7359  0.5336
  172MOL0     H23216  10.061   7.946  10.604  1.7875  0.7335  0.2781
  172MOL0     H23217  10.181   7.935  10.482  3.1925  0.1128  1.0632
  172MOL0     H23218  10.328   7.712  10.816 -1.0735 -2.1049  0.5904
  172MOL0     H23219  10.208   7.660  10.137 -4.3992 -2.1115 -1.1846
  172MOL0     H23220  10.382   7.742  10.002  0.2751  1.9591  1.5804
  173MOL0     O23221   0.865   6.706   3.085 -0.0314 -0.6014  0.5591
  173MOL0     C23222   0.871   6.726   2.967 -0.0410 -0.0130  0.5568
  173MOL0     O23223   0.771   6.700   2.871 -0.5334 -0.5723  0.0018
  173MOL0     C23224   0.653   6.645   2.911  0.3714 -0.6858 -0.3641
  173MOL0     C23225   0.586   6.671   3.033  0.2115  0.6654  0.6317
  173MOL0     C23226   0.479   6.586   3.068  0.1819 -0.6610  0.2351
  173MOL0     C23227   0.440   6.477   2.979  1.2913 -0.3274  0.0984
  173MOL0     O23228   0.341   6.389   3.009 -0.2526  0.4175  0.7650
  173MOL0     C23229   0.354   6.325   3.137  0.1102 -0.7338 -0.2525
  173MOL0     C23230   0.331   6.173   3.135  0.1301 -0.1892  0.0461
  173MOL0     C23231   0.193   6.133   3.095  0.1842  0.2303 -0.2781
  173MOL0     C23232   0.148   6.010   3.172 -0.1792 -0.3791 -0.2882
  173MOL0     C23233   0.011   5.973   3.163 -0.2076  0.0929  0.2738
  173MOL0     C23234  -0.022   5.943   3.016  0.1301 -0.4573  1.2709
  173MOL0     C23235  -0.142   5.859   2.991  0.3547 -0.5211 -0.5054
  173MOL0     C23236  -0.215   5.903   2.864  0.1419  0.4279  0.5701
  173MOL0     N23237  -0.345   5.840   2.869 -0.0192 -0.0639  0.2092
  173MOL0     C23238  -0.465   5.907   2.872 -0.2807 -0.8469 -0.2350
  173MOL0     C23239  -0.564   5.811   2.867 -0.3061  0.5647 -0.9091
  173MOL0     C23240  -0.714   5.831   2.870 -0.1382 -0.5725  0.7592
  173MOL0     C23241  -0.807   5.708   2.906 -0.6301 -0.1947  0.3588
  173MOL0     C23242  -0.949   5.757   2.943 -0.2015  0.0619  0.2719
  173MOL0     C23243  -1.023   5.827   2.820 -0.4954  1.2559  0.2005
  173MOL0     O23244  -1.077   5.724   2.737  0.9011 -0.1931 -0.7910
  173MOL0     C23245  -1.208   5.689   2.749  0.5035 -0.5527  0.0679
  173MOL0     C23246  -1.269   5.621   2.646  0.4470  0.7719  0.3017
  173MOL0     C23247  -1.408   5.583   2.657 -0.1781 -0.7870  0.2265
  173MOL0     C23248  -1.473   5.545   2.526  0.4296  0.4308 -0.0924
  173MOL0     C23249  -1.483   5.605   2.779  0.7096 -0.4266  0.1456
  173MOL0     C23250  -1.619   5.543   2.807 -0.2825 -0.3305 -0.9549
  173MOL0     O23251  -1.682   5.597   2.912 -1.0046 -0.0584  0.1106
  173MOL0     C23252  -1.802   5.550   2.946 -0.6464  0.3969  0.2255
  173MOL0     C23253  -1.807   5.425   3.011  1.0965  0.4068 -0.4557
  173MOL0     C23254  -1.934   5.367   3.023  0.0687  0.7273 -0.1750
  173MOL0     C23255  -2.053   5.415   2.966  0.3402 -1.1343  0.4840
  173MOL0     O23256  -2.178   5.357   2.968  0.0136 -0.1922 -0.7006
  173MOL0     C23257  -2.206   5.245   3.061 -0.0692  0.3760 -0.4669
  173MOL0     C23258  -2.356   5.214   3.073 -0.7786 -0.4361  0.5010
  173MOL0     C23259  -2.383   5.130   3.201 -0.7387  0.6407  0.0866
  173MOL0     C23260  -2.522   5.169   3.268 -0.0828 -0.0275 -0.1972
  173MOL0     C23261  -2.554   5.077   3.385 -0.0381 -0.7865  0.5169
  173MOL0     C23262  -2.677   5.134   3.462 -0.7302  0.2677 -0.9867
  173MOL0     C23263  -2.691   5.053   3.590  0.9493  0.2253  0.6461
  173MOL0     C23264  -2.820   5.097   3.666 -1.2203  0.3409 -0.2374
  173MOL0    Cl23265  -2.969   5.109   3.585  0.7244  0.3365  0.0917
  173MOL0     C23266  -2.047   5.537   2.903 -1.0897 -0.4112 -0.2492
  173MOL0     C23267  -1.925   5.605   2.893 -0.1519 -0.0195 -0.4328
  173MOL0     O23268  -1.668   5.453   2.744 -0.8632 -0.1365  1.1105
  173MOL0     C23269  -1.410   5.659   2.885  0.4539  0.1359 -0.1897
  173MOL0     C23270  -1.278   5.709   2.868  0.5468 -0.4590 -0.0333
  173MOL0     N23271  -0.496   5.694   2.846 -0.0500 -0.5671  0.1528
  173MOL0     N23272  -0.366   5.708   2.840  0.1184 -0.9114 -0.0014
  173MOL0     C23273   0.505   6.459   2.857 -0.3681 -0.9404  0.5534
  173MOL0     C23274   0.612   6.540   2.822  0.0127  0.0517  0.0197
  173MOL0     C23275   1.001   6.782   2.913 -0.4742 -0.4503 -0.4723
  173MOL0     C23276   1.100   6.828   3.002  0.1998  0.1586 -1.0706
  173MOL0     C23277   1.227   6.869   2.958  0.9833 -0.0021  0.1410
  173MOL0     C23278   1.258   6.886   2.824  0.4180  0.6497  1.0192
  173MOL0     O23279   1.377   6.921   2.772  0.0231  0.0771 -0.5593
  173MOL0     C23280   1.472   6.981   2.858 -0.2491 -0.5408  0.6216
  173MOL0     C23281   1.555   7.084   2.775  0.6830  1.1716 -0.1293
  173MOL0     C23282   1.647   7.019   2.668  0.9233 -0.0659  0.1645
  173MOL0     C23283   1.750   7.108   2.607  0.9680  0.4263 -0.0262
  173MOL0     C23284   1.868   7.123   2.696 -0.6159 -0.8244 -0.3146
  173MOL0     C23285   1.977   7.121   2.756 -0.0701  0.3054 -0.5989
  173MOL0     C23286   1.157   6.840   2.732  0.3212  0.2297 -1.1182
  173MOL0     C23287   1.035   6.795   2.781  0.3826 -0.7656 -0.1851
  173MOL0     H23288   0.619   6.759   3.086 -1.3636  1.7343 -0.0899
  173MOL0     H23289   0.427   6.600   3.162 -0.4861  1.0787 -0.3408
  173MOL0     H23290   0.455   6.345   3.172  0.0575  3.4357 -1.9655
  173MOL0     H23291   0.284   6.372   3.206  0.3102  1.6732 -1.5706
  173MOL0     H23292   0.388   6.121   3.058  1.6519 -0.2848  1.1952
  173MOL0     H23293   0.363   6.127   3.229 -1.4822 -2.4744 -0.4201
  173MOL0     H23294   0.120   6.210   3.121 -0.3868 -1.0743  2.3763
  173MOL0     H23295   0.184   6.119   2.987 -1.9022 -0.9676 -0.0194
  173MOL0     H23296   0.219   5.928   3.157  2.0390  1.5324 -0.6342
  173MOL0     H23297   0.168   6.031   3.278  2.7289  3.4957 -1.4035
  173MOL0     H23298  -0.020   5.894   3.233 -0.0093  1.3286  1.8104
  173MOL0     H23299  -0.052   6.054   3.203 -0.4914  0.3021 -0.5766
  173MOL0     H23300  -0.017   6.037   2.959  2.0571  0.2676  2.5514
  173MOL0     H23301   0.058   5.878   2.980  0.6172  2.1618 -3.2219
  173MOL0     H23302  -0.113   5.754   2.979  1.0742 -0.2013 -1.7769
  173MOL0     H23303  -0.212   5.879   3.072 -0.2679  0.7263 -1.3155
  173MOL0     H23304  -0.160   5.874   2.774 -0.3692  0.0664  0.3719
  173MOL0     H23305  -0.237   6.009   2.855  2.1425  0.8420 -0.0359
  173MOL0     H23306  -0.473   6.015   2.878  0.0486 -0.8411  0.1662
  173MOL0     H23307  -0.730   5.915   2.938 -1.0858 -0.0809 -0.0331
  173MOL0     H23308  -0.739   5.879   2.775  0.5939  2.1919  1.8668
  173MOL0     H23309  -0.755   5.651   2.983  1.5703 -2.0915 -2.3081
  173MOL0     H23310  -0.803   5.652   2.812  2.9002  0.4172  0.0414
  173MOL0     H23311  -0.960   5.818   3.033 -2.9539 -2.2208  1.6396
  173MOL0     H23312  -1.000   5.665   2.972  1.2399  0.6835  5.9290
  173MOL0     H23313  -0.943   5.866   2.757  2.0552 -0.4903  2.1506
  173MOL0     H23314  -1.087   5.911   2.849 -1.7360  0.1475  0.8164
  173MOL0     H23315  -1.217   5.615   2.551  0.9304 -0.1544  0.6121
  173MOL0     H23316  -1.452   5.614   2.443 -1.8484  0.3727 -0.7966
  173MOL0     H23317  -1.441   5.445   2.495 -3.0694 -0.7447 -0.4147
  173MOL0     H23318  -1.580   5.535   2.546  0.0895  1.9004 -1.0465
  173MOL0     H23319  -1.716   5.383   3.052 -0.8102 -3.3793  0.3234
  173MOL0     H23320  -1.928   5.278   3.085  2.7477  1.0078  0.0535
  173MOL0     H23321  -2.159   5.153   3.024 -4.6377 -2.5058  0.0965
  173MOL0     H23322  -2.162   5.276   3.156  1.2816  1.0347 -1.2621
  173MOL0     H23323  -2.410   5.309   3.080 -0.3599 -0.1178 -0.3693
  173MOL0     H23324  -2.378   5.164   2.978  2.6087  0.1950 -0.7498
  173MOL0     H23325  -2.302   5.155   3.270  2.2000 -0.7045 -2.5881
  173MOL0     H23326  -2.375   5.022   3.191  1.0657  0.6166  1.3973
  173MOL0     H23327  -2.511   5.273   3.299 -0.9466 -0.8594  3.3578
  173MOL0     H23328  -2.595   5.159   3.187  0.4349  0.4584 -0.7367
  173MOL0     H23329  -2.465   5.072   3.448  1.1598 -0.9320 -1.1107
  173MOL0     H23330  -2.570   4.982   3.334 -1.1053  0.4462 -1.6061
  173MOL0     H23331  -2.668   5.241   3.479 -3.8731  0.2351  1.9369
  173MOL0     H23332  -2.769   5.119   3.405 -1.5116  1.0922  0.0194
  173MOL0     H23333  -2.602   5.036   3.652  2.8415  1.7990 -1.4880
  173MOL0     H23334  -2.702   4.947   3.563  1.5489  0.4991 -0.7407
  173MOL0     H23335  -2.804   5.190   3.720 -0.4704 -1.6998  3.3917
  173MOL0     H23336  -2.832   5.031   3.753  1.4217  0.3374  0.2094
  173MOL0     H23337  -2.141   5.584   2.878  0.5363  4.3776  1.5231
  173MOL0     H23338  -1.920   5.703   2.847 -0.0516  0.9240  1.4524
  173MOL0     H23339  -1.448   5.656   2.987  1.3582 -0.7651  0.1337
  173MOL0     H23340  -1.231   5.749   2.958  1.0819  1.0541 -0.9342
  173MOL0     H23341   0.463   6.395   2.780  0.8411 -1.2284  0.1035
  173MOL0     H23342   0.673   6.529   2.733 -1.4029 -1.1253 -0.8551
  173MOL0     H23343   1.094   6.825   3.111  0.8902 -0.1576 -1.0406
  173MOL0     H23344   1.303   6.900   3.029  1.7938 -1.7593  0.0873
  173MOL0     H23345   1.430   7.049   2.933 -1.1054  1.4044 -1.4917
  173MOL0     H23346   1.528   6.910   2.919  3.2154 -1.1810 -2.8993
  173MOL0     H23347   1.605   7.158   2.837 -0.4366  2.2132 -0.4364
  173MOL0     H23348   1.481   7.138   2.716 -3.5587 -2.2249  1.5149
  173MOL0     H23349   1.586   6.963   2.597  1.7997  0.9346 -1.4484
  173MOL0     H23350   1.701   6.939   2.719 -0.9837 -2.8780 -1.9701
  173MOL0     H23351   1.715   7.205   2.570  0.0889 -0.4280 -1.5354
  173MOL0     H23352   1.776   7.041   2.525 -1.3559 -2.4834  1.3878
  173MOL0     H23353   2.070   7.110   2.806  0.1467  0.6874 -0.9146
  173MOL0     H23354   1.184   6.832   2.627  1.4213  1.3538 -0.9365
  173MOL0     H23355   0.958   6.754   2.716  0.2984 -1.4648  0.3388
  174MOL0     O23356   5.359   6.605   9.837 -0.0631  1.0304 -0.0142
  174MOL0     C23357   5.443   6.589   9.930 -0.5137  0.2250  0.2991
  174MOL0     O23358   5.416   6.599  10.060 -0.2431  0.2791  0.2982
  174MOL0     C23359   5.282   6.609  10.097  0.3115 -0.2697 -0.2760
  174MOL0     C23360   5.168   6.526  10.056 -0.3642  0.8223  0.1884
  174MOL0     C23361   5.044   6.538  10.119  0.5572  0.1241 -0.1912
  174MOL0     C23362   5.025   6.637  10.210  0.2532 -0.6103 -0.3388
  174MOL0     O23363   4.906   6.659  10.274  0.8069  0.4659  0.0341
  174MOL0     C23364   4.778   6.591  10.248  0.8810  0.1677  0.0521
  174MOL0     C23365   4.664   6.655  10.326  0.2395 -0.3106  0.2180
  174MOL0     C23366   4.537   6.577  10.324  1.0808  0.4665  0.4363
  174MOL0     C23367   4.506   6.503  10.449 -0.6598  0.4792  0.7250
  174MOL0     C23368   4.378   6.418  10.442  0.2095  0.7378 -0.3430
  174MOL0     C23369   4.334   6.376  10.580  0.2543  0.9142  0.0165
  174MOL0     C23370   4.211   6.281  10.571 -0.2253 -0.3958  0.4043
  174MOL0     C23371   4.100   6.345  10.497  0.4003 -0.3110  0.3758
  174MOL0     N23372   3.959   6.297  10.526 -0.1725 -0.3757  0.2510
  174MOL0     C23373   3.882   6.325  10.639 -0.2047  0.5511  0.1954
  174MOL0     C23374   3.758   6.278  10.618  0.3116 -0.1423 -0.0345
  174MOL0     C23375   3.634   6.287  10.699  0.4065 -1.3442  0.9914
  174MOL0     C23376   3.569   6.153  10.718  1.3988 -0.1533 -0.3607
  174MOL0     C23377   3.650   6.056  10.806  0.7162  0.0729  0.4190
  174MOL0     C23378   3.582   5.919  10.827 -0.2304  0.1786 -0.4117
  174MOL0     O23379   3.549   5.855  10.712  0.3187  0.5442  0.2564
  174MOL0     C23380   3.443   5.761  10.719 -0.1523  0.0774 -0.9004
  174MOL0     C23381   3.392   5.700  10.842  0.3093 -0.0897 -0.1721
  174MOL0     C23382   3.275   5.625  10.845 -0.2592  0.8142  0.1332
  174MOL0     C23383   3.220   5.578  10.979 -0.6378 -0.0204  0.3273
  174MOL0     C23384   3.216   5.596  10.712  0.8506 -0.0127 -0.0624
  174MOL0     C23385   3.097   5.504  10.691 -0.5824  0.7383  0.2280
  174MOL0     O23386   3.088   5.451  10.557  0.3160  0.1207  0.5196
  174MOL0     C23387   2.999   5.361  10.526  0.2563  0.0023 -0.0793
  174MOL0     C23388   2.958   5.251  10.606  1.2703  0.0788  0.8846
  174MOL0     C23389   2.851   5.166  10.567 -0.5232  0.5969  0.1491
  174MOL0     C23390   2.793   5.187  10.441 -0.2096 -0.3734 -0.1961
  174MOL0     O23391   2.688   5.103  10.411  0.3812 -0.4335  0.2453
  174MOL0     C23392   2.666   5.070  10.277  0.3929 -1.0850  0.4915
  174MOL0     C23393   2.536   4.982  10.263  0.6921  0.5824 -0.7480
  174MOL0     C23394   2.562   4.840  10.284 -0.3302  0.2328  0.1571
  174MOL0     C23395   2.435   4.765  10.271  0.9288  0.2904 -0.8351
  174MOL0     C23396   2.424   4.653  10.373 -0.2756 -0.3629  0.6463
  174MOL0     C23397   2.477   4.520  10.322  0.4187 -0.2279  0.0048
  174MOL0     C23398   2.463   4.405  10.417 -0.6124 -0.3863  0.5623
  174MOL0     C23399   2.317   4.368  10.437 -0.9078 -0.0160 -0.1854
  174MOL0    Cl23400   2.313   4.238  10.562  0.2124  0.2324 -0.3265
  174MOL0     C23401   2.838   5.296  10.355 -0.0103  0.6544  0.1898
  174MOL0     C23402   2.945   5.375  10.398  0.0026  0.1366 -0.5650
  174MOL0     O23403   3.020   5.477  10.782 -0.1005 -0.9280 -0.0749
  174MOL0     C23404   3.269   5.652  10.596 -0.6906  0.2393 -0.5712
  174MOL0     C23405   3.376   5.736  10.598 -0.1453  0.6704  0.0398
  174MOL0     N23406   3.758   6.229  10.487 -0.0709 -0.0682  0.6205
  174MOL0     N23407   3.878   6.225  10.444 -0.2695 -0.2219  0.1096
  174MOL0     C23408   5.128   6.731  10.240  0.5995  0.4218  0.0419
  174MOL0     C23409   5.257   6.709  10.191 -0.1020 -1.0137  0.2088
  174MOL0     C23410   5.589   6.562   9.890 -0.1747 -0.0142  0.6138
  174MOL0     C23411   5.639   6.614   9.771  0.9746  1.2469 -0.6112
  174MOL0     C23412   5.774   6.616   9.735  0.7186  0.1469 -0.4498
  174MOL0     C23413   5.868   6.567   9.831  0.1674  0.2464  0.1744
  174MOL0     O23414   6.002   6.572   9.813 -0.3519  0.0007  0.1270
  174MOL0     C23415   6.052   6.625   9.691 -0.1723 -0.3367  0.3785
  174MOL0     C23416   6.038   6.777   9.679 -0.0377  0.2769 -0.6897
  174MOL0     C23417   6.148   6.859   9.758 -0.4432 -0.7435  0.2574
  174MOL0     C23418   6.156   6.997   9.702 -0.1245  0.4211  0.2247
  174MOL0     C23419   6.252   7.077   9.778  0.1192  0.5008 -0.4728
  174MOL0     C23420   6.326   7.145   9.837  0.7513  0.3255 -0.5279
  174MOL0     C23421   5.816   6.520   9.955 -0.4487 -0.1479  0.1605
  174MOL0     C23422   5.678   6.525   9.990 -0.3133 -0.2655  1.1044
  174MOL0     H23423   5.207   6.461   9.978  4.4856  2.8833  0.5592
  174MOL0     H23424   4.966   6.463  10.107  0.0271  0.5473  0.5142
  174MOL0     H23425   4.744   6.590  10.144  0.4526 -2.0197  0.1483
  174MOL0     H23426   4.793   6.488  10.281 -1.3557  0.4201  2.0469
  174MOL0     H23427   4.695   6.669  10.430 -1.1276 -0.1436  0.6211
  174MOL0     H23428   4.644   6.748  10.273  1.7198 -0.2127 -0.2167
  174MOL0     H23429   4.446   6.632  10.295  1.6408  0.5578 -1.2344
  174MOL0     H23430   4.552   6.502  10.246  2.2332  2.1014 -1.0126
  174MOL0     H23431   4.586   6.438  10.485 -2.4349 -2.6741 -0.6080
  174MOL0     H23432   4.488   6.581  10.524  1.0116  0.3435  1.3164
  174MOL0     H23433   4.303   6.494  10.415 -2.3292 -0.8980  1.6908
  174MOL0     H23434   4.377   6.334  10.373 -0.9724  0.4932 -0.0402
  174MOL0     H23435   4.407   6.317  10.635  1.2101  1.4196 -0.6920
  174MOL0     H23436   4.312   6.469  10.633 -0.7813  1.4340 -1.2654
  174MOL0     H23437   4.237   6.182  10.532  0.4736 -0.4796  1.0831
  174MOL0     H23438   4.182   6.268  10.675  0.2165  1.1359  0.7443
  174MOL0     H23439   4.115   6.327  10.390  0.0734 -0.5155  0.3651
  174MOL0     H23440   4.109   6.453  10.515  0.3540 -0.5214  1.7922
  174MOL0     H23441   3.916   6.367  10.733 -1.0009  2.4933 -0.3460
  174MOL0     H23442   3.652   6.335  10.796  0.7711 -1.3712  0.9391
  174MOL0     H23443   3.564   6.359  10.656 -0.1739 -2.5009 -0.0539
  174MOL0     H23444   3.538   6.104  10.625 -1.3134  0.7008 -0.0129
  174MOL0     H23445   3.476   6.170  10.773  0.8738 -0.0050 -1.2783
  174MOL0     H23446   3.673   6.091  10.907  2.8647  0.9630 -0.3083
  174MOL0     H23447   3.750   6.047  10.763  1.5917  0.4293  2.2764
  174MOL0     H23448   3.490   5.932  10.884 -0.5506 -1.3642 -0.5490
  174MOL0     H23449   3.653   5.859  10.885  0.8655  0.8450 -1.0154
  174MOL0     H23450   3.435   5.719  10.940  1.4665  1.5114 -0.9418
  174MOL0     H23451   3.215   5.471  10.999 -3.2900 -0.5317 -2.3180
  174MOL0     H23452   3.276   5.625  11.061 -1.4558 -1.8096  1.9791
  174MOL0     H23453   3.113   5.598  10.982 -0.7937 -0.5111 -1.2601
  174MOL0     H23454   2.986   5.236  10.709 -3.9468  2.8653  3.1353
  174MOL0     H23455   2.831   5.081  10.631 -2.2775  0.5629 -0.3888
  174MOL0     H23456   2.646   5.158  10.215 -0.2011 -2.3739 -1.2388
  174MOL0     H23457   2.761   5.028  10.242  0.7330 -0.5140  0.7343
  174MOL0     H23458   2.457   5.030  10.323 -0.2532 -3.2347  1.4070
  174MOL0     H23459   2.500   4.993  10.160 -0.0130 -1.3109 -0.7395
  174MOL0     H23460   2.615   4.820  10.378  0.7872  2.6130  0.1001
  174MOL0     H23461   2.632   4.810  10.205 -2.6939 -1.7966 -1.3098
  174MOL0     H23462   2.358   4.832  10.310  1.9965  0.2391  1.5323
  174MOL0     H23463   2.422   4.729  10.169 -0.5638 -0.1014 -0.5293
  174MOL0     H23464   2.320   4.659  10.406  0.0577  1.9849  1.4399
  174MOL0     H23465   2.491   4.679  10.456  0.5251  1.2790 -0.4581
  174MOL0     H23466   2.421   4.495  10.231 -0.8729  0.7297  0.5049
  174MOL0     H23467   2.584   4.538  10.308  0.3485  1.3734  1.2477
  174MOL0     H23468   2.519   4.435  10.507  2.5402 -0.3202 -1.2456
  174MOL0     H23469   2.516   4.320  10.373 -1.5063 -0.5137 -0.3124
  174MOL0     H23470   2.282   4.322  10.344  0.5819 -1.2738 -0.1764
  174MOL0     H23471   2.237   4.439  10.458 -1.5461 -1.0388  0.9607
  174MOL0     H23472   2.794   5.320  10.259  1.3053  1.0317 -0.3450
  174MOL0     H23473   2.987   5.449  10.330  0.6628  0.1266 -0.1724
  174MOL0     H23474   3.223   5.634  10.499 -0.1769  1.0792 -0.9800
  174MOL0     H23475   3.420   5.771  10.505 -0.3461 -0.6206 -0.5634
  174MOL0     H23476   5.121   6.816  10.307 -1.7677 -0.5008  1.0584
  174MOL0     H23477   5.340   6.771  10.226 -1.8464  1.3387  0.3905
  174MOL0     H23478   5.568   6.649   9.697  0.1524  1.0074  0.0627
  174MOL0     H23479   5.793   6.646   9.632  1.8709 -0.4064 -0.4081
  174MOL0     H23480   6.157   6.599   9.677 -0.7390 -2.8895  0.3908
  174MOL0     H23481   5.995   6.569   9.616  2.3552  0.1556 -2.0714
  174MOL0     H23482   5.938   6.806   9.713  0.1987  1.5604 -1.0393
  174MOL0     H23483   6.053   6.790   9.571  0.5022 -0.8290 -0.7563
  174MOL0     H23484   6.247   6.816   9.738  0.3366  1.4586 -1.0126
  174MOL0     H23485   6.137   6.856   9.867 -0.0004  0.9767  0.3785
  174MOL0     H23486   6.056   7.040   9.714  0.5831  1.7865  1.5905
  174MOL0     H23487   6.186   6.989   9.597 -1.3274  1.4204 -0.2259
  174MOL0     H23488   6.405   7.190   9.894 -1.8452  1.1581  2.6840
  174MOL0     H23489   5.884   6.485  10.032 -1.6919  2.4093  2.6468
  174MOL0     H23490   5.650   6.495  10.090 -1.3272  0.8098  1.1650
  175MOL0     O23491   5.364   7.733   0.146 -0.1036 -0.4044 -0.7567
  175MOL0     C23492   5.268   7.777   0.080 -0.3157 -0.5427 -0.2429
  175MOL0     O23493   5.286   7.886  -0.003 -0.4560  0.0136 -0.8917
  175MOL0     C23494   5.410   7.939  -0.038 -0.4384  0.3376  0.0540
  175MOL0     C23495   5.506   7.872  -0.119  0.5918 -0.3590  0.1131
  175MOL0     C23496   5.630   7.935  -0.144  0.2665 -0.1887  0.2484
  175MOL0     C23497   5.660   8.065  -0.100  0.4522 -0.0157 -0.9124
  175MOL0     O23498   5.780   8.125  -0.131 -0.0921 -0.7853 -0.0670
  175MOL0     C23499   5.815   8.250  -0.055 -0.2926  0.0796 -0.0048
  175MOL0     C23500   5.972   8.280  -0.075  0.5009 -0.1965  0.1908
  175MOL0     C23501   6.061   8.169  -0.022 -0.2226  0.3774 -0.6942
  175MOL0     C23502   6.193   8.225   0.038  0.5766 -0.0896 -0.2577
  175MOL0     C23503   6.286   8.295  -0.065  1.1328  0.1607 -0.2817
  175MOL0     C23504   6.400   8.362   0.012 -0.5426 -0.0123 -0.0513
  175MOL0     C23505   6.508   8.429  -0.077  1.0407 -0.1823  0.1392
  175MOL0     C23506   6.625   8.495   0.003  0.0285  1.2492 -0.7456
  175MOL0     N23507   6.612   8.632   0.068 -1.0448 -0.1414 -0.3576
  175MOL0     C23508   6.503   8.687   0.126  0.7847  0.1772 -0.5389
  175MOL0     C23509   6.522   8.819   0.139  1.0592 -1.8246  0.6322
  175MOL0     C23510   6.433   8.923   0.206 -0.0331  0.2643  0.3174
  175MOL0     C23511   6.350   8.987   0.094  0.7426 -0.9447 -0.4109
  175MOL0     C23512   6.431   9.086   0.007  0.0295  0.4679  0.2371
  175MOL0     C23513   6.439   9.216   0.074 -0.5006  0.1021 -0.8657
  175MOL0     O23514   6.554   9.295   0.044 -0.1188  0.3306 -0.0090
  175MOL0     C23515   6.553   9.335  -0.090 -0.3466  0.0568 -0.0173
  175MOL0     C23516   6.664   9.299  -0.172  0.2666 -0.2893  0.6199
  175MOL0     C23517   6.653   9.304  -0.311  0.1671  0.6366 -0.1397
  175MOL0     C23518   6.768   9.255  -0.390  0.6383 -0.3029 -0.8566
  175MOL0     C23519   6.533   9.361  -0.368 -0.2353  0.2127 -0.4733
  175MOL0     C23520   6.519   9.373  -0.517  0.1505 -0.0983 -0.5993
  175MOL0     O23521   6.408   9.444  -0.557  0.4754 -0.5173 -0.1131
  175MOL0     C23522   6.348   9.404  -0.673  0.1052 -0.5406  0.6069
  175MOL0     C23523   6.252   9.309  -0.680 -0.3786 -0.6502 -0.6352
  175MOL0     C23524   6.172   9.295  -0.790 -0.4619  0.4573 -0.4031
  175MOL0     C23525   6.203   9.356  -0.908 -0.8689  0.9817 -0.1715
  175MOL0     O23526   6.132   9.316  -1.019 -0.6137  0.1142 -0.1327
  175MOL0     C23527   6.161   9.368  -1.153 -0.2678  0.0746  1.1138
  175MOL0     C23528   6.084   9.258  -1.236 -0.1485 -0.4052  0.3860
  175MOL0     C23529   5.931   9.254  -1.208 -0.0426 -0.7336  0.5549
  175MOL0     C23530   5.857   9.186  -1.326  1.0609  0.0530  0.2840
  175MOL0     C23531   5.706   9.152  -1.290  0.7330 -0.0574 -0.0803
  175MOL0     C23532   5.621   9.275  -1.276 -0.1212 -0.1841  0.4538
  175MOL0     C23533   5.479   9.223  -1.268  0.0004 -0.6140  0.6984
  175MOL0     C23534   5.376   9.321  -1.331  0.4418 -0.1879  0.7200
  175MOL0    Cl23535   5.374   9.490  -1.270  0.1094 -0.1539 -0.2481
  175MOL0     C23536   6.306   9.451  -0.904 -0.1746  0.5129  0.0694
  175MOL0     C23537   6.373   9.474  -0.782  0.0915  0.1849  0.5841
  175MOL0     O23538   6.593   9.303  -0.591  0.6119 -0.6504 -0.7485
  175MOL0     C23539   6.435   9.415  -0.289 -0.1019 -0.6084  0.7512
  175MOL0     C23540   6.442   9.390  -0.150  0.3861 -0.5321  0.3545
  175MOL0     N23541   6.648   8.842   0.082  0.0393  0.2014  0.1142
  175MOL0     N23542   6.694   8.735   0.027 -0.2902 -0.1854 -0.0010
  175MOL0     C23543   5.557   8.125  -0.016 -0.9055 -0.5701  0.4519
  175MOL0     C23544   5.434   8.067   0.007 -0.0396 -0.3508  0.3257
  175MOL0     C23545   5.139   7.703   0.083 -0.5637  0.6483 -0.0064
  175MOL0     C23546   5.092   7.629   0.190  0.2906 -0.0798 -0.0472
  175MOL0     C23547   4.970   7.561   0.187  0.9632 -0.9912  0.0709
  175MOL0     C23548   4.894   7.572   0.072 -0.0467  0.4622  0.2150
  175MOL0     O23549   4.767   7.508   0.069  0.2427  0.2943 -0.1556
  175MOL0     C23550   4.668   7.579   0.141 -0.7000 -0.2033  0.1626
  175MOL0     C23551   4.551   7.499   0.109  1.0572  0.5176 -0.2758
  175MOL0     C23552   4.507   7.502  -0.039  0.0722 -0.3454  0.4744
  175MOL0     C23553   4.419   7.394  -0.094 -0.0401 -0.6619 -0.2773
  175MOL0     C23554   4.309   7.375   0.009 -0.7790 -0.4011  0.9377
  175MOL0     C23555   4.214   7.365   0.085 -0.3174 -0.3452 -0.1224
  175MOL0     C23556   4.936   7.639  -0.042  0.0652  0.1871  0.2867
  175MOL0     C23557   5.068   7.695  -0.033  0.3052 -0.7167  0.2638
  175MOL0     H23558   5.481   7.772  -0.150 -0.5992  0.5357 -1.9827
  175MOL0     H23559   5.699   7.883  -0.211  1.7680  0.8753  0.9235
  175MOL0     H23560   5.762   8.336  -0.095 -0.6627  0.0479  0.4109
  175MOL0     H23561   5.800   8.243   0.053 -0.3320 -3.3726 -0.1099
  175MOL0     H23562   5.988   8.292  -0.182 -1.2756 -1.4546 -0.2692
  175MOL0     H23563   5.986   8.368  -0.012 -1.8881  0.2565  0.2050
  175MOL0     H23564   6.013   8.111   0.058  1.3395  0.5152  0.4074
  175MOL0     H23565   6.081   8.102  -0.106  0.7493 -0.0748 -0.1184
  175MOL0     H23566   6.167   8.291   0.121 -0.5884 -0.1983 -0.5153
  175MOL0     H23567   6.240   8.135   0.080 -2.2208 -1.3720  0.3988
  175MOL0     H23568   6.329   8.214  -0.125 -1.8350 -0.1388 -2.1899
  175MOL0     H23569   6.229   8.356  -0.135  0.8951 -0.1665 -0.3782
  175MOL0     H23570   6.357   8.429   0.086 -2.2194 -2.3914  1.2777
  175MOL0     H23571   6.446   8.285   0.076  0.5535  0.9553  0.3643
  175MOL0     H23572   6.552   8.364  -0.153  0.3654  1.0816 -1.3800
  175MOL0     H23573   6.464   8.511  -0.134  3.9370  1.2482 -0.1661
  175MOL0     H23574   6.708   8.497  -0.068  0.1507  3.8158 -0.6357
  175MOL0     H23575   6.654   8.425   0.082  2.5416  1.5475 -1.3183
  175MOL0     H23576   6.407   8.643   0.152  0.2264  2.4731  1.6363
  175MOL0     H23577   6.367   8.883   0.283  2.3386 -1.3761  1.6511
  175MOL0     H23578   6.506   8.988   0.256 -0.4987  1.5172 -0.5753
  175MOL0     H23579   6.264   9.029   0.147  1.7536 -0.8224  1.2225
  175MOL0     H23580   6.320   8.900   0.035 -1.7449 -1.2880  1.1915
  175MOL0     H23581   6.366   9.083  -0.081 -0.1225 -0.7968  0.3684
  175MOL0     H23582   6.524   9.044  -0.031 -1.2194  0.0443 -2.6429
  175MOL0     H23583   6.458   9.191   0.178 -1.1448 -0.5577 -0.8988
  175MOL0     H23584   6.345   9.271   0.063 -1.7153 -2.1144 -2.4494
  175MOL0     H23585   6.754   9.272  -0.117 -1.9847 -1.2025  4.2199
  175MOL0     H23586   6.745   9.163  -0.445  0.9891 -0.2152 -1.1565
  175MOL0     H23587   6.808   9.324  -0.464 -1.4495  3.1822  1.0169
  175MOL0     H23588   6.852   9.229  -0.325  1.1440  1.0709 -0.9338
  175MOL0     H23589   6.235   9.247  -0.593 -0.7265  2.5751  1.7599
  175MOL0     H23590   6.084   9.231  -0.793 -1.2074  1.3863  0.6677
  175MOL0     H23591   6.124   9.471  -1.161  1.6906  0.8645  1.5183
  175MOL0     H23592   6.269   9.364  -1.171  0.2355  4.3677  2.0150
  175MOL0     H23593   6.101   9.283  -1.341  2.6611 -0.5802  0.7231
  175MOL0     H23594   6.132   9.160  -1.224 -1.6003 -1.3051 -0.7087
  175MOL0     H23595   5.894   9.357  -1.205  1.7912  0.0580 -1.3579
  175MOL0     H23596   5.898   9.208  -1.115 -0.8772  0.6720  0.9873
  175MOL0     H23597   5.867   9.246  -1.417 -2.7019 -1.7161 -1.4835
  175MOL0     H23598   5.914   9.093  -1.335  1.7080  0.6185 -1.9406
  175MOL0     H23599   5.694   9.092  -1.199 -4.9876 -2.7275 -2.1474
  175MOL0     H23600   5.671   9.086  -1.370  0.7704 -1.4555  0.9997
  175MOL0     H23601   5.638   9.335  -1.186  0.4491  1.0217 -0.4342
  175MOL0     H23602   5.630   9.337  -1.366 -0.5520 -0.3617  0.2849
  175MOL0     H23603   5.455   9.195  -1.165  2.5723 -1.1214  1.2237
  175MOL0     H23604   5.473   9.132  -1.328 -2.7132 -0.0686 -0.0230
  175MOL0     H23605   5.279   9.272  -1.322 -0.8249  2.0236 -0.2533
  175MOL0     H23606   5.390   9.316  -1.439  2.3406 -1.3505  0.9676
  175MOL0     H23607   6.331   9.510  -0.991 -1.5041  1.3895  0.2539
  175MOL0     H23608   6.448   9.553  -0.779 -1.1910  1.4152  1.8662
  175MOL0     H23609   6.350   9.470  -0.327 -0.0209 -0.2641  1.0622
  175MOL0     H23610   6.354   9.415  -0.091 -1.1201  1.3439 -2.4604
  175MOL0     H23611   5.569   8.222   0.030  0.0519 -1.0064  1.1768
  175MOL0     H23612   5.350   8.110   0.061 -1.9802 -2.5008 -0.8513
  175MOL0     H23613   5.154   7.622   0.279  1.3641 -0.9700 -0.8379
  175MOL0     H23614   4.925   7.500   0.265 -4.6148  0.8422 -1.1867
  175MOL0     H23615   4.684   7.600   0.247  2.7170  1.2806 -0.5346
  175MOL0     H23616   4.651   7.677   0.094  5.3265  1.6285  0.9787
  175MOL0     H23617   4.465   7.531   0.169  0.4058 -0.5970 -0.5719
  175MOL0     H23618   4.573   7.398   0.145 -1.8918  0.2033  0.9285
  175MOL0     H23619   4.592   7.500  -0.108  0.1993 -1.9349  0.6504
  175MOL0     H23620   4.448   7.594  -0.051 -0.4154 -0.3853  2.2782
  175MOL0     H23621   4.477   7.302  -0.098  0.3985 -0.4767  1.2929
  175MOL0     H23622   4.381   7.423  -0.193 -0.4486 -1.2464 -0.2974
  175MOL0     H23623   4.138   7.357   0.160  1.1294  0.4530  1.4686
  175MOL0     H23624   4.885   7.622  -0.136 -2.2026 -0.6272  1.5859
  175MOL0     H23625   5.110   7.744  -0.120  1.8360 -0.6947  0.9857
  176MOL0     O23626   5.676   9.992   3.250  0.7823  1.1549  0.1247
  176MOL0     C23627   5.731   9.889   3.241 -0.6943  0.5314 -0.3613
  176MOL0     O23628   5.708   9.778   3.319  0.0120  0.0432  1.0994
  176MOL0     C23629   5.646   9.795   3.435 -0.3689 -0.5378 -0.2181
  176MOL0     C23630   5.709   9.856   3.545 -0.6914 -0.4069  0.3067
  176MOL0     C23631   5.647   9.864   3.675 -0.4207  0.0371  1.3700
  176MOL0     C23632   5.514   9.811   3.686 -0.3083 -0.1812 -0.5278
  176MOL0     O23633   5.439   9.797   3.798 -0.1706 -0.7445 -0.2157
  176MOL0     C23634   5.365   9.919   3.822 -0.0794  0.5990  0.1878
  176MOL0     C23635   5.334   9.934   3.964 -0.0715 -0.2571 -0.7799
  176MOL0     C23636   5.231   9.814   3.995 -0.2381  0.0842 -0.0184
  176MOL0     C23637   5.188   9.820   4.133  0.7817 -0.4991  0.4484
  176MOL0     C23638   5.054   9.742   4.150  1.0350  0.5744 -0.5452
  176MOL0     C23639   5.024   9.765   4.306 -0.2801  0.9879  0.0800
  176MOL0     C23640   4.906   9.681   4.347 -0.1418  0.5940 -0.7326
  176MOL0     C23641   4.932   9.606   4.483 -0.0999 -0.0245  0.0960
  176MOL0     N23642   4.931   9.696   4.600 -0.2020 -0.1333 -0.0042
  176MOL0     C23643   5.035   9.783   4.627 -0.5334  0.2558  0.6136
  176MOL0     C23644   4.998   9.841   4.741 -0.0750  0.4079  0.2762
  176MOL0     C23645   5.077   9.935   4.828  0.5529 -0.2029  0.6229
  176MOL0     C23646   5.050  10.081   4.789  0.1960 -0.3424 -0.3272
  176MOL0     C23647   4.909  10.111   4.766 -0.1862 -0.2267  0.0544
  176MOL0     C23648   4.881  10.258   4.806  0.3394 -0.3413  0.4711
  176MOL0     O23649   4.745  10.320   4.783 -0.4493  0.4440  0.2337
  176MOL0     C23650   4.713  10.378   4.662 -0.6396 -0.2016 -0.4103
  176MOL0     C23651   4.594  10.437   4.652  0.2646  0.8163  0.4677
  176MOL0     C23652   4.539  10.491   4.544 -0.2846  0.6852 -0.0590
  176MOL0     C23653   4.399  10.536   4.556  0.2704 -0.2318 -0.4370
  176MOL0     C23654   4.630  10.512   4.439  0.1604 -0.5756  0.4205
  176MOL0     C23655   4.601  10.583   4.307  0.2503 -0.4393  0.7834
  176MOL0     O23656   4.707  10.640   4.243  0.1052  0.0508 -0.0917
  176MOL0     C23657   4.702  10.734   4.144  0.1558  1.0798 -0.6329
  176MOL0     C23658   4.816  10.738   4.063 -0.4111  0.2345 -0.0450
  176MOL0     C23659   4.829  10.826   3.958  0.0540 -1.1772 -0.1469
  176MOL0     C23660   4.728  10.919   3.928  0.9047 -0.5682 -0.9033
  176MOL0     O23661   4.732  11.020   3.837  0.1285 -0.3661  0.4327
  176MOL0     C23662   4.870  11.052   3.798  0.4404 -0.1216 -0.0894
  176MOL0     C23663   4.879  11.204   3.769 -0.0464 -0.8694  0.0474
  176MOL0     C23664   5.019  11.230   3.719 -0.4644 -0.7996 -0.0737
  176MOL0     C23665   5.027  11.379   3.674  0.2192 -0.3568  0.2833
  176MOL0     C23666   5.120  11.393   3.551  0.4798  0.0297  0.7549
  176MOL0     C23667   5.266  11.371   3.600 -0.2793  0.3394  1.2469
  176MOL0     C23668   5.362  11.417   3.486 -0.4575  0.4090 -0.3766
  176MOL0     C23669   5.508  11.405   3.520  0.4846  0.1393 -0.5937
  176MOL0    Cl23670   5.605  11.488   3.404  0.1709 -0.1864 -0.4485
  176MOL0     C23671   4.608  10.911   4.012 -0.4480 -0.4468  0.1862
  176MOL0     C23672   4.598  10.819   4.115  0.3845 -0.8771  0.5656
  176MOL0     O23673   4.480  10.586   4.268 -0.3634 -0.3956 -0.5076
  176MOL0     C23674   4.762  10.457   4.435 -0.1541  0.4155 -0.0372
  176MOL0     C23675   4.798  10.395   4.553 -0.8054 -0.4299 -0.4360
  176MOL0     N23676   4.873   9.787   4.779  0.8431  0.0214  0.6292
  176MOL0     N23677   4.828   9.713   4.690 -0.4818  0.1783 -0.0685
  176MOL0     C23678   5.448   9.769   3.575 -0.4762  0.1849  0.1784
  176MOL0     C23679   5.518   9.757   3.454 -0.4510  0.7943 -0.6816
  176MOL0     C23680   5.861   9.885   3.155  0.4302  0.2927 -0.0519
  176MOL0     C23681   5.920   9.762   3.121  0.0530 -0.3839  0.7306
  176MOL0     C23682   6.036   9.759   3.040 -0.0029  0.7536  0.2569
  176MOL0     C23683   6.106   9.879   3.007  1.1072  0.3137  0.4390
  176MOL0     O23684   6.226   9.866   2.940  0.6013  0.5307 -0.3775
  176MOL0     C23685   6.295   9.987   2.918  0.0642 -1.0014 -0.1803
  176MOL0     C23686   6.434   9.953   2.860 -0.1556 -0.1934 -0.4746
  176MOL0     C23687   6.426   9.842   2.749 -0.3051 -1.2531  0.7109
  176MOL0     C23688   6.454   9.695   2.804 -0.0993 -0.8447  0.4963
  176MOL0     C23689   6.376   9.607   2.723  0.7583  0.5978 -0.2676
  176MOL0     C23690   6.295   9.539   2.655  0.2504  1.0116 -0.2774
  176MOL0     C23691   6.038  10.000   3.035 -0.1746 -0.0567 -0.1724
  176MOL0     C23692   5.921  10.004   3.114 -0.6309  0.3783  0.0144
  176MOL0     H23693   5.806   9.903   3.543 -1.3650  1.4664  3.9155
  176MOL0     H23694   5.705   9.915   3.751 -0.3953  3.2552 -0.6238
  176MOL0     H23695   5.418  10.012   3.800  1.1582  0.2099  1.3554
  176MOL0     H23696   5.279   9.916   3.755  0.6046  1.8162 -0.8070
  176MOL0     H23697   5.417   9.914   4.033 -0.6440  1.9418  0.6650
  176MOL0     H23698   5.284  10.030   3.983 -2.7893 -1.4046 -1.7030
  176MOL0     H23699   5.143   9.816   3.929 -0.6665 -0.0473  0.5421
  176MOL0     H23700   5.274   9.716   3.975 -1.2807 -0.3485 -0.2014
  176MOL0     H23701   5.259   9.775   4.203  0.5769 -3.1091 -0.9124
  176MOL0     H23702   5.175   9.927   4.153  1.2877 -0.2784 -0.3675
  176MOL0     H23703   4.970   9.783   4.095 -1.6551 -3.0294  0.5033
  176MOL0     H23704   5.071   9.638   4.120 -0.9199  0.6995 -2.3420
  176MOL0     H23705   5.113   9.727   4.356 -0.6827 -0.1426 -0.0241
  176MOL0     H23706   5.010   9.868   4.338  1.4373  2.5998 -3.7630
  176MOL0     H23707   4.820   9.746   4.363 -1.7885 -1.7985  0.6844
  176MOL0     H23708   4.876   9.606   4.273 -4.3253  1.0544  0.2676
  176MOL0     H23709   5.031   9.560   4.479  0.6652  1.6057 -0.6671
  176MOL0     H23710   4.851   9.535   4.503 -1.3345  1.1970 -0.4255
  176MOL0     H23711   5.128   9.797   4.574 -0.1346  1.8210  1.6705
  176MOL0     H23712   5.040   9.920   4.930 -1.1026  0.0897  0.0930
  176MOL0     H23713   5.185   9.914   4.820  0.9033  0.7067  2.4580
  176MOL0     H23714   5.117  10.101   4.705 -0.7310  1.2389 -0.7388
  176MOL0     H23715   5.094  10.153   4.860  1.1602  1.8403 -2.9571
  176MOL0     H23716   4.856  10.059   4.847  1.1580  4.3350  4.2901
  176MOL0     H23717   4.874  10.085   4.665 -2.1855 -0.8592  0.8582
  176MOL0     H23718   4.950  10.320   4.747  0.6925  0.2490  1.4883
  176MOL0     H23719   4.913  10.261   4.910 -0.0733 -3.8745  0.8089
  176MOL0     H23720   4.536  10.414   4.740 -1.5681  0.5041 -0.7775
  176MOL0     H23721   4.380  10.616   4.629 -0.5810 -0.1406 -0.7519
  176MOL0     H23722   4.357  10.586   4.468 -2.4073 -0.9280  0.3539
  176MOL0     H23723   4.332  10.451   4.571  0.0492  0.1920  1.1934
  176MOL0     H23724   4.901  10.674   4.082 -0.9197 -0.6192 -0.5499
  176MOL0     H23725   4.922  10.816   3.903 -0.8704  0.4396 -2.1057
  176MOL0     H23726   4.936  11.042   3.885 -0.5952  1.9368  1.0119
  176MOL0     H23727   4.899  10.986   3.716 -1.9909 -1.9684  0.4330
  176MOL0     H23728   4.811  11.216   3.684  4.2657 -0.5034 -3.7032
  176MOL0     H23729   4.862  11.259   3.861  1.8105 -2.3795  1.3726
  176MOL0     H23730   5.032  11.167   3.631 -2.3665 -0.4117 -0.6837
  176MOL0     H23731   5.101  11.217   3.790 -1.8235  0.4560  1.8370
  176MOL0     H23732   4.934  11.424   3.637  2.0298  2.3937 -1.3307
  176MOL0     H23733   5.069  11.449   3.747 -2.4834 -0.5373  2.1591
  176MOL0     H23734   5.107  11.495   3.513 -2.0814  0.1112  1.6266
  176MOL0     H23735   5.079  11.333   3.469 -2.0401 -0.3343  2.1872
  176MOL0     H23736   5.284  11.430   3.689 -1.8810 -0.7867  2.3774
  176MOL0     H23737   5.284  11.267   3.628 -1.7621 -0.8949 -1.8727
  176MOL0     H23738   5.332  11.515   3.447 -0.4089  0.4496 -0.3116
  176MOL0     H23739   5.350  11.358   3.395 -1.5260 -1.2829  0.7928
  176MOL0     H23740   5.527  11.298   3.515 -0.3725 -0.2219  2.1549
  176MOL0     H23741   5.535  11.434   3.622  0.8622 -1.1853 -0.2976
  176MOL0     H23742   4.524  10.978   3.995 -0.9094 -0.2692  2.8141
  176MOL0     H23743   4.502  10.805   4.165  0.0970  0.3855  0.4056
  176MOL0     H23744   4.832  10.463   4.352  1.6442 -0.8483  1.3009
  176MOL0     H23745   4.896  10.349   4.554 -0.1508  0.9561  0.2982
  176MOL0     H23746   5.341   9.751   3.575 -0.4817  0.2240 -0.3857
  176MOL0     H23747   5.462   9.717   3.370 -3.9118 -0.1998  1.8749
  176MOL0     H23748   5.869   9.667   3.136 -0.7042 -0.2925 -0.9540
  176MOL0     H23749   6.068   9.663   3.002 -1.2945  0.7371 -0.8628
  176MOL0     H23750   6.242  10.044   2.841 -0.7335 -3.0977 -1.2675
  176MOL0     H23751   6.306  10.046   3.010 -2.1338 -1.7221  0.6366
  176MOL0     H23752   6.488   9.903   2.941  0.6048  0.9550 -0.2575
  176MOL0     H23753   6.477  10.043   2.816  0.3542  0.4174  1.2105
  176MOL0     H23754   6.504   9.864   2.676  0.2824 -0.7105  1.4911
  176MOL0     H23755   6.323   9.848   2.711 -0.1024 -1.4797  0.1140
  176MOL0     H23756   6.426   9.682   2.909 -0.7577 -2.3117  0.1555
  176MOL0     H23757   6.556   9.659   2.790 -1.3385 -4.0723 -1.1247
  176MOL0     H23758   6.232   9.478   2.594 -0.6970  2.4771 -0.8294
  176MOL0     H23759   6.076  10.096   3.005 -2.3282  1.1646  0.7505
  176MOL0     H23760   5.883  10.099   3.147 -1.8644 -0.2731  0.5205
  177MOL0     O23761  11.125   1.457   3.872 -0.1919  0.1067  0.2327
  177MOL0     C23762  11.230   1.486   3.820  0.4815  0.2694  0.6920
  177MOL0     O23763  11.244   1.528   3.685  0.2463  0.0425  0.1307
  177MOL0     C23764  11.138   1.586   3.626 -0.1366  0.6596 -0.0962
  177MOL0     C23765  11.118   1.724   3.606  0.2208 -0.1036  1.0630
  177MOL0     C23766  10.997   1.772   3.543 -0.6990  0.4003  0.8062
  177MOL0     C23767  10.899   1.680   3.516  0.7773 -0.3733 -0.4673
  177MOL0     O23768  10.775   1.710   3.473  1.0350  0.9380  0.2743
  177MOL0     C23769  10.764   1.833   3.413 -0.3793  0.5859  0.8896
  177MOL0     C23770  10.634   1.844   3.340 -1.2206  0.0320  0.3392
  177MOL0     C23771  10.521   1.898   3.428  0.6180 -0.5475 -0.0049
  177MOL0     C23772  10.384   1.891   3.359 -0.7837  0.1648  0.0296
  177MOL0     C23773  10.268   1.915   3.460  0.4366  1.0307  0.9682
  177MOL0     C23774  10.141   1.911   3.377 -0.5191  0.7841  0.1072
  177MOL0     C23775  10.027   1.888   3.473 -0.0824  0.2482 -0.0835
  177MOL0     C23776   9.892   1.875   3.399  0.0639  0.2555 -0.4258
  177MOL0     N23777   9.789   1.860   3.499  0.9812  0.9125 -0.5427
  177MOL0     C23778   9.697   1.950   3.544 -0.4902  0.4080  0.6403
  177MOL0     C23779   9.622   1.880   3.637  0.9596  0.6712  0.4632
  177MOL0     C23780   9.504   1.927   3.715 -0.4308  0.3010  1.2450
  177MOL0     C23781   9.384   1.966   3.632  0.6348 -0.1846 -0.0253
  177MOL0     C23782   9.317   1.859   3.541  0.8420 -0.2168  0.6668
  177MOL0     C23783   9.173   1.890   3.492  0.6416  0.5898  0.2003
  177MOL0     O23784   9.181   2.008   3.417  1.2230 -1.0029 -0.5729
  177MOL0     C23785   9.058   2.058   3.379  0.3885  0.4021 -0.0701
  177MOL0     C23786   8.993   1.991   3.280 -0.2836 -0.8048  0.5444
  177MOL0     C23787   8.869   2.033   3.234 -1.0765 -0.4077  0.6882
  177MOL0     C23788   8.816   1.956   3.108 -0.3171 -0.1174 -1.1999
  177MOL0     C23789   8.800   2.142   3.293  0.2480  0.2209 -1.1845
  177MOL0     C23790   8.670   2.197   3.262  0.4319  0.6826 -0.2713
  177MOL0     O23791   8.611   2.281   3.348 -0.9214  0.3481  0.2227
  177MOL0     C23792   8.512   2.368   3.309 -0.5359  0.8688 -0.6890
  177MOL0     C23793   8.428   2.357   3.199 -0.0184 -0.5399  0.3506
  177MOL0     C23794   8.333   2.456   3.162 -0.5275 -0.2391  0.0527
  177MOL0     C23795   8.326   2.568   3.241  0.0502 -0.3825  0.3084
  177MOL0     O23796   8.226   2.660   3.213  0.0786 -0.1545  0.0676
  177MOL0     C23797   8.139   2.692   3.326 -0.5668 -0.0715  0.4967
  177MOL0     C23798   8.040   2.584   3.364 -0.7217  0.3263  0.1271
  177MOL0     C23799   7.940   2.614   3.470  0.7286  0.0044 -0.3355
  177MOL0     C23800   7.858   2.486   3.506  0.3816 -0.0416  0.4996
  177MOL0     C23801   7.743   2.503   3.596  0.1953 -0.1220 -1.4535
  177MOL0     C23802   7.629   2.601   3.546 -0.6411 -1.0791  0.5641
  177MOL0     C23803   7.499   2.585   3.605 -0.5336  0.6247 -0.2922
  177MOL0     C23804   7.430   2.449   3.603  0.0441  0.6641 -0.1163
  177MOL0    Cl23805   7.263   2.477   3.680  0.4219 -0.3654 -0.0418
  177MOL0     C23806   8.418   2.582   3.347 -0.5043 -1.3700 -0.8416
  177MOL0     C23807   8.509   2.480   3.391  0.5574  0.1493  0.0404
  177MOL0     O23808   8.609   2.142   3.169 -0.5725 -0.7466 -0.4695
  177MOL0     C23809   8.870   2.205   3.403  0.0641 -0.1248 -0.8900
  177MOL0     C23810   9.000   2.167   3.443  1.1504 -0.5966  0.2663
  177MOL0     N23811   9.667   1.752   3.649 -0.0754  0.1769  0.1963
  177MOL0     N23812   9.755   1.743   3.555 -0.0499  0.1520  0.6596
  177MOL0     C23813  10.910   1.549   3.555  0.3770 -0.4392 -0.5379
  177MOL0     C23814  11.029   1.503   3.597  0.6044  0.0605 -0.0624
  177MOL0     C23815  11.353   1.438   3.902 -0.1744  0.4110  0.8296
  177MOL0     C23816  11.472   1.507   3.875 -0.2299 -0.4709  0.2834
  177MOL0     C23817  11.586   1.478   3.939 -0.2325  0.0184 -0.4352
  177MOL0     C23818  11.598   1.373   4.040 -0.3446  0.9415 -0.8667
  177MOL0     O23819  11.717   1.327   4.105  0.2753  0.1173  0.0514
  177MOL0     C23820  11.835   1.392   4.065  0.3710  0.5870 -0.2632
  177MOL0     C23821  11.946   1.309   4.124  0.7448  0.4874  0.3932
  177MOL0     C23822  11.970   1.165   4.069  0.5696  0.5228 -0.3243
  177MOL0     C23823  12.026   1.174   3.920 -0.1459 -0.5979  0.4928
  177MOL0     C23824  11.917   1.192   3.821  0.3543 -1.0793 -0.2025
  177MOL0     C23825  11.835   1.193   3.733 -1.0002 -0.3111  0.4073
  177MOL0     C23826  11.483   1.305   4.066  0.5283 -0.2501 -0.2629
  177MOL0     C23827  11.354   1.344   4.015  0.7152  0.1094  0.6515
  177MOL0     H23828  11.200   1.794   3.618  0.6341 -0.2330 -0.8144
  177MOL0     H23829  10.986   1.876   3.513 -0.5722 -0.1934 -1.4761
  177MOL0     H23830  10.771   1.905   3.494 -1.5078  0.4506  1.1312
  177MOL0     H23831  10.848   1.846   3.344  1.2641  0.0510  2.7086
  177MOL0     H23832  10.650   1.916   3.259 -0.5943  1.9979  2.1551
  177MOL0     H23833  10.611   1.746   3.295  0.1676 -0.6729  1.1172
  177MOL0     H23834  10.524   1.843   3.523 -0.6782  2.8663  2.1937
  177MOL0     H23835  10.543   2.004   3.445  1.5867 -0.6993 -0.2415
  177MOL0     H23836  10.389   1.961   3.276  0.6447  0.7252  0.5626
  177MOL0     H23837  10.385   1.791   3.316 -0.2990 -0.1880  0.8384
  177MOL0     H23838  10.276   1.822   3.517  0.8038  1.6764  1.9968
  177MOL0     H23839  10.275   2.009   3.514  0.7214  1.6560 -0.1226
  177MOL0     H23840  10.110   2.000   3.322 -1.7094  1.4142  1.7022
  177MOL0     H23841  10.133   1.825   3.310  0.9168  0.8885 -0.2274
  177MOL0     H23842  10.054   1.807   3.541  1.3933  1.4309  0.7972
  177MOL0     H23843  10.018   1.984   3.525  5.0825  1.7226 -1.3504
  177MOL0     H23844   9.902   1.782   3.341  3.0341 -0.0173  0.3404
  177MOL0     H23845   9.881   1.963   3.334  2.6290  0.4155 -0.7556
  177MOL0     H23846   9.697   2.055   3.518  0.6418  0.1194 -0.6603
  177MOL0     H23847   9.468   1.835   3.762  0.9993 -1.8446 -1.5463
  177MOL0     H23848   9.524   2.013   3.779  0.4416  1.7196 -0.8429
  177MOL0     H23849   9.409   2.058   3.577  0.3216  1.0098  1.7322
  177MOL0     H23850   9.304   1.988   3.703 -0.0093  2.2966 -1.3993
  177MOL0     H23851   9.323   1.772   3.606  3.2167 -1.0431 -0.5420
  177MOL0     H23852   9.380   1.843   3.453 -0.2477 -1.2844  0.0497
  177MOL0     H23853   9.117   1.889   3.586  0.6377 -2.7426  0.2600
  177MOL0     H23854   9.149   1.803   3.430 -0.6794  0.6563  0.5993
  177MOL0     H23855   9.050   1.913   3.230 -1.7906 -0.8648 -1.1581
  177MOL0     H23856   8.877   1.870   3.080 -0.3699 -0.4765 -0.2571
  177MOL0     H23857   8.717   1.916   3.131 -0.4388  0.4924 -0.6341
  177MOL0     H23858   8.813   2.031   3.028 -0.5067  0.2024 -0.8944
  177MOL0     H23859   8.430   2.273   3.131 -1.6919  1.0278 -1.7785
  177MOL0     H23860   8.280   2.426   3.072 -0.5811 -1.6740  0.5256
  177MOL0     H23861   8.191   2.713   3.420 -0.6878 -1.6876  0.9569
  177MOL0     H23862   8.087   2.786   3.304 -0.3750 -0.2466 -0.7695
  177MOL0     H23863   7.983   2.566   3.272  0.4447 -0.4534 -0.4659
  177MOL0     H23864   8.097   2.499   3.402  2.0371  0.8231 -2.4591
  177MOL0     H23865   7.876   2.694   3.430 -0.3422  2.3967  5.1416
  177MOL0     H23866   7.983   2.659   3.561  2.8912 -0.5248 -1.0377
  177MOL0     H23867   7.811   2.443   3.417 -3.4610  2.8218  0.8989
  177MOL0     H23868   7.920   2.411   3.556 -1.5120 -0.5317  2.2355
  177MOL0     H23869   7.780   2.540   3.692 -0.2210 -1.4923 -0.7455
  177MOL0     H23870   7.693   2.410   3.625 -4.3567  2.1277 -1.2355
  177MOL0     H23871   7.658   2.701   3.578  2.8364 -1.0587 -2.0208
  177MOL0     H23872   7.629   2.614   3.437  1.1246  0.5255  0.7064
  177MOL0     H23873   7.421   2.653   3.569  1.1084  2.1558 -1.1368
  177MOL0     H23874   7.511   2.620   3.708 -4.2153  4.4381 -0.8746
  177MOL0     H23875   7.481   2.380   3.669  2.0529  2.4630  0.3187
  177MOL0     H23876   7.424   2.413   3.499 -1.5943 -1.0722  0.5256
  177MOL0     H23877   8.405   2.668   3.412  0.7939 -1.4944 -0.4057
  177MOL0     H23878   8.573   2.502   3.475  0.2420  6.0288 -0.8412
  177MOL0     H23879   8.828   2.289   3.458 -1.4860 -0.5465 -1.3704
  177MOL0     H23880   9.050   2.242   3.503  2.1634 -0.4822 -0.6869
  177MOL0     H23881  10.830   1.482   3.525 -0.2449  0.9185 -2.0383
  177MOL0     H23882  11.034   1.394   3.600  2.6511  0.1038 -0.2211
  177MOL0     H23883  11.471   1.586   3.800 -2.0642  0.3009  1.0786
  177MOL0     H23884  11.678   1.534   3.922 -0.7604  0.8822 -0.4720
  177MOL0     H23885  11.847   1.392   3.957 -0.3879 -1.0263 -0.3685
  177MOL0     H23886  11.829   1.493   4.107  1.2226  0.3909  0.3747
  177MOL0     H23887  11.947   1.316   4.233 -0.6105  1.9683  0.3513
  177MOL0     H23888  12.034   1.366   4.092  0.1634  1.0438 -0.2528
  177MOL0     H23889  11.872   1.117   4.058  0.2014  1.2874 -0.4497
  177MOL0     H23890  12.036   1.111   4.137 -0.5180  0.0008  0.3585
  177MOL0     H23891  12.075   1.080   3.893  1.7303  0.5442 -0.2489
  177MOL0     H23892  12.090   1.261   3.902 -2.9029  1.0096 -2.7279
  177MOL0     H23893  11.758   1.165   3.663  1.2408 -1.0521 -1.9184
  177MOL0     H23894  11.486   1.240   4.153  0.0687 -1.0880 -0.8539
  177MOL0     H23895  11.261   1.291   4.035 -0.3851  0.2565 -3.2935
  178MOL0     O23896   3.940   6.111   1.414 -0.2497 -0.7955  0.0281
  178MOL0     C23897   4.037   6.150   1.349 -0.4276  0.7058  0.1417
  178MOL0     O23898   4.064   6.134   1.210 -0.1727 -0.3164  0.3386
  178MOL0     C23899   3.967   6.095   1.121  0.4319 -0.3093 -0.1561
  178MOL0     C23900   4.012   6.007   1.016  0.6494 -0.4030  0.8966
  178MOL0     C23901   3.908   5.950   0.936 -0.4780 -1.1873  0.3101
  178MOL0     C23902   3.767   5.995   0.952 -0.2249 -0.4353 -0.2388
  178MOL0     O23903   3.662   5.951   0.879  0.5769 -0.3674  0.0561
  178MOL0     C23904   3.680   5.820   0.820 -0.5960 -0.4426  0.0109
  178MOL0     C23905   3.547   5.773   0.762 -0.4884 -0.5758  0.3020
  178MOL0     C23906   3.582   5.662   0.662  0.1236  0.1942 -0.6641
  178MOL0     C23907   3.471   5.563   0.617  0.4211 -0.8267 -0.1948
  178MOL0     C23908   3.333   5.632   0.624  0.4645 -0.0504  0.0905
  178MOL0     C23909   3.225   5.536   0.564 -0.3665  0.0314  0.0179
  178MOL0     C23910   3.190   5.415   0.658 -0.3055  0.2742 -0.5774
  178MOL0     C23911   3.108   5.299   0.599 -0.6830 -0.8468 -0.0576
  178MOL0     N23912   3.143   5.258   0.461  0.5910  0.4021  0.3002
  178MOL0     C23913   3.068   5.286   0.351 -0.6630 -0.4332  1.5312
  178MOL0     C23914   3.130   5.222   0.246 -0.7619  0.7902 -0.4546
  178MOL0     C23915   3.079   5.233   0.110 -0.1029 -0.2325  0.2576
  178MOL0     C23916   3.163   5.333   0.032  0.0883 -0.7708  0.0508
  178MOL0     C23917   3.108   5.334  -0.118 -0.0477 -0.0752  0.5840
  178MOL0     C23918   3.107   5.191  -0.186 -1.4768 -0.3033 -0.3408
  178MOL0     O23919   3.110   5.224  -0.326 -0.1546  0.1930  0.1035
  178MOL0     C23920   3.001   5.178  -0.391  0.1955 -0.3147 -0.4956
  178MOL0     C23921   2.981   5.044  -0.409 -0.1926 -0.3779 -0.1806
  178MOL0     C23922   2.864   4.991  -0.472  0.2829  0.5734 -0.2751
  178MOL0     C23923   2.853   4.846  -0.496 -0.1502 -1.1029  0.1888
  178MOL0     C23924   2.763   5.083  -0.498  0.1995  0.3779  0.0573
  178MOL0     C23925   2.631   5.041  -0.554  0.1591 -0.3803  0.3052
  178MOL0     O23926   2.627   4.921  -0.620  0.3326  0.8123  0.3906
  178MOL0     C23927   2.504   4.862  -0.653 -0.2083 -0.5808 -0.4563
  178MOL0     C23928   2.441   4.761  -0.572  0.5938 -0.0942 -0.2036
  178MOL0     C23929   2.303   4.718  -0.598  0.3011 -0.6350 -0.3234
  178MOL0     C23930   2.240   4.772  -0.712 -0.0705  0.1759 -1.1519
  178MOL0     O23931   2.119   4.731  -0.758  0.6211  0.0358 -0.7302
  178MOL0     C23932   2.064   4.612  -0.695  0.1276  0.1288 -0.0581
  178MOL0     C23933   1.935   4.565  -0.765  1.0012 -0.3453 -0.2448
  178MOL0     C23934   1.854   4.474  -0.678 -0.2204  0.1783  0.2433
  178MOL0     C23935   1.736   4.407  -0.751 -0.4882 -0.6494  0.2551
  178MOL0     C23936   1.637   4.342  -0.666  0.0308  0.5746  0.1299
  178MOL0     C23937   1.565   4.439  -0.559  0.2787  1.1351  0.3863
  178MOL0     C23938   1.430   4.382  -0.494 -0.6461 -0.6464 -0.7547
  178MOL0     C23939   1.364   4.470  -0.395  0.6379 -0.3520 -0.5961
  178MOL0    Cl23940   1.332   4.628  -0.479  0.3498  0.0729  0.1944
  178MOL0     C23941   2.301   4.869  -0.793  0.5621  0.7921  0.3954
  178MOL0     C23942   2.432   4.911  -0.766  0.2576  0.8672 -0.5067
  178MOL0     O23943   2.535   5.113  -0.530  0.4343 -0.0410 -0.4406
  178MOL0     C23944   2.785   5.216  -0.472 -0.1489 -0.3399  0.2142
  178MOL0     C23945   2.900   5.264  -0.424 -0.2655 -0.1973 -0.0820
  178MOL0     N23946   3.241   5.148   0.291 -0.0495 -0.5732  0.0781
  178MOL0     N23947   3.253   5.183   0.426 -0.5555 -0.1731 -1.3040
  178MOL0     C23948   3.734   6.088   1.048 -0.1654 -0.1856  0.3439
  178MOL0     C23949   3.834   6.135   1.128 -0.2509 -0.3798  0.6885
  178MOL0     C23950   4.142   6.228   1.421  0.1676 -0.4997 -0.3175
  178MOL0     C23951   4.109   6.305   1.541  0.3233 -0.1512 -0.0080
  178MOL0     C23952   4.216   6.359   1.614  0.2089  0.0221 -0.1698
  178MOL0     C23953   4.346   6.339   1.579  0.0519  0.4662 -0.4244
  178MOL0     O23954   4.448   6.396   1.655 -0.3514  0.1077 -0.1373
  178MOL0     C23955   4.530   6.498   1.586  0.7134  0.5389 -0.4438
  178MOL0     C23956   4.619   6.573   1.686  0.0322 -0.8147  0.7035
  178MOL0     C23957   4.554   6.674   1.773 -0.4588  0.1457 -0.0195
  178MOL0     C23958   4.502   6.615   1.906 -0.1666  0.5130  0.1060
  178MOL0     C23959   4.454   6.718   1.989  0.0431 -0.5355 -1.0534
  178MOL0     C23960   4.421   6.813   2.063 -0.3162 -0.3100  0.6145
  178MOL0     C23961   4.380   6.259   1.470 -0.1938 -0.4513 -0.4494
  178MOL0     C23962   4.277   6.205   1.388  0.6081  0.4554  1.0702
  178MOL0     H23963   4.118   5.983   1.011  0.8001  0.4385 -1.1464
  178MOL0     H23964   3.945   5.870   0.872 -1.0503 -0.3925 -1.0590
  178MOL0     H23965   3.760   5.815   0.745 -0.9409 -3.2401 -0.2868
  178MOL0     H23966   3.698   5.754   0.905 -4.0189  0.9093  2.0193
  178MOL0     H23967   3.479   5.751   0.844 -1.3612 -0.2759 -0.3278
  178MOL0     H23968   3.501   5.854   0.705 -0.0878 -1.5932 -1.5623
  178MOL0     H23969   3.632   5.706   0.575  0.9401  0.0696 -0.2669
  178MOL0     H23970   3.653   5.591   0.705  0.7607  0.1613 -1.7420
  178MOL0     H23971   3.488   5.543   0.511 -1.4766  2.6297 -1.3192
  178MOL0     H23972   3.477   5.466   0.667  1.6577  0.0516  1.4405
  178MOL0     H23973   3.313   5.659   0.728  0.0433 -0.6942  0.1869
  178MOL0     H23974   3.342   5.725   0.568  0.1349 -0.9514 -1.5244
  178MOL0     H23975   3.137   5.597   0.543 -0.5517  0.2368  1.3009
  178MOL0     H23976   3.251   5.492   0.467 -1.9740  0.5536 -0.6800
  178MOL0     H23977   3.282   5.364   0.689 -0.7642 -0.1473  0.1183
  178MOL0     H23978   3.147   5.440   0.755 -0.3369 -1.3567 -0.1301
  178MOL0     H23979   3.004   5.332   0.585  0.2889  1.6784 -2.0674
  178MOL0     H23980   3.131   5.218   0.668  4.0619 -0.4395 -0.8334
  178MOL0     H23981   2.978   5.346   0.356 -1.2105 -1.1443  0.6739
  178MOL0     H23982   3.081   5.137   0.059 -0.1731  0.4405 -1.0405
  178MOL0     H23983   2.975   5.267   0.112 -0.0955 -0.2311  1.1752
  178MOL0     H23984   3.270   5.310   0.040  0.5914  1.0832 -0.8032
  178MOL0     H23985   3.140   5.433   0.070 -3.7243 -0.0908 -3.3955
  178MOL0     H23986   3.175   5.402  -0.172  0.0508 -1.3514 -0.9488
  178MOL0     H23987   3.008   5.376  -0.127  1.2234  2.8754 -1.4253
  178MOL0     H23988   3.019   5.133  -0.159 -2.4582  1.3210  0.0703
  178MOL0     H23989   3.196   5.133  -0.159 -2.8530 -2.4501 -0.1769
  178MOL0     H23990   3.067   4.987  -0.377  1.1705  0.9929 -1.2535
  178MOL0     H23991   2.943   4.806  -0.450  0.7721 -0.6266 -1.1357
  178MOL0     H23992   2.760   4.806  -0.454 -0.6296  0.0858  0.2988
  178MOL0     H23993   2.871   4.829  -0.603  1.7453  1.0176  0.1067
  178MOL0     H23994   2.481   4.724  -0.478 -2.6669 -1.8647  0.6299
  178MOL0     H23995   2.261   4.647  -0.528  0.3939  0.1910  0.5878
  178MOL0     H23996   2.135   4.529  -0.696  0.1896 -0.0225 -4.9198
  178MOL0     H23997   2.047   4.639  -0.590 -0.7780 -0.6130 -0.0017
  178MOL0     H23998   1.869   4.650  -0.787  1.3751 -0.4515 -1.8778
  178MOL0     H23999   1.964   4.515  -0.857  1.8087 -2.0534  0.8890
  178MOL0     H24000   1.814   4.533  -0.595  0.9913 -0.0103  0.9943
  178MOL0     H24001   1.922   4.399  -0.636 -3.4044 -2.6928  0.7540
  178MOL0     H24002   1.682   4.475  -0.818 -0.8451 -0.5924  0.5985
  178MOL0     H24003   1.776   4.331  -0.818 -1.2313  2.1555 -3.7943
  178MOL0     H24004   1.691   4.264  -0.610  0.6070  0.2582 -0.8450
  178MOL0     H24005   1.565   4.298  -0.735  0.3354 -2.9743  1.8383
  178MOL0     H24006   1.630   4.468  -0.476 -0.7736  1.4013  1.1357
  178MOL0     H24007   1.542   4.532  -0.612  1.8690 -0.0807 -2.7031
  178MOL0     H24008   1.459   4.285  -0.451  1.9268 -1.2326 -3.5181
  178MOL0     H24009   1.355   4.352  -0.567 -0.9390 -1.5633 -0.1043
  178MOL0     H24010   1.413   4.485  -0.298 -0.4776 -1.4139  0.1586
  178MOL0     H24011   1.271   4.415  -0.378  0.9597 -1.6996 -2.8103
  178MOL0     H24012   2.252   4.905  -0.883  1.0495  0.5417  0.0270
  178MOL0     H24013   2.482   4.985  -0.828  1.8156  0.5659  0.3553
  178MOL0     H24014   2.704   5.286  -0.494 -1.1291 -0.5662  2.7451
  178MOL0     H24015   2.920   5.370  -0.407 -3.7391  0.3378  1.6387
  178MOL0     H24016   3.637   6.128   1.072  0.6702  2.5410 -0.4763
  178MOL0     H24017   3.810   6.226   1.181 -0.1661  0.5932 -0.8943
  178MOL0     H24018   4.004   6.306   1.570  0.3341 -0.0674  0.0268
  178MOL0     H24019   4.201   6.424   1.700  0.6430 -0.9420  0.6611
  178MOL0     H24020   4.598   6.459   1.509 -0.7450  0.6628 -1.8470
  178MOL0     H24021   4.467   6.569   1.532  1.9919  4.1705  2.4814
  178MOL0     H24022   4.688   6.631   1.625  1.8318 -0.6007  2.7943
  178MOL0     H24023   4.672   6.498   1.746 -1.8843 -2.1244  0.8729
  178MOL0     H24024   4.477   6.727   1.716 -1.8679  0.4037  2.0267
  178MOL0     H24025   4.631   6.747   1.801  1.0070 -0.6012 -1.9024
  178MOL0     H24026   4.581   6.565   1.962 -0.2868  0.5549  0.3129
  178MOL0     H24027   4.434   6.534   1.878 -0.6732  0.6977  0.7751
  178MOL0     H24028   4.403   6.900   2.123  3.6954  0.4863  0.9595
  178MOL0     H24029   4.484   6.241   1.446  0.8297  3.6014  0.0664
  178MOL0     H24030   4.294   6.130   1.312  0.0499 -0.9941  2.3402
  179MOL0     O24031   8.464   9.202   2.363 -0.2369  0.8031  0.0436
  179MOL0     C24032   8.345   9.191   2.405  0.5706 -0.5945  0.5185
  179MOL0     O24033   8.298   9.217   2.536  0.1379  0.1931  1.1412
  179MOL0     C24034   8.377   9.283   2.628  0.2326 -0.0357 -0.6062
  179MOL0     C24035   8.352   9.239   2.762  0.1140  0.6646 -0.1248
  179MOL0     C24036   8.414   9.304   2.869  0.0819 -0.4623 -0.4167
  179MOL0     C24037   8.500   9.411   2.840 -0.8502  0.3106 -0.1221
  179MOL0     O24038   8.561   9.454   2.952 -0.1175  0.1387 -0.4283
  179MOL0     C24039   8.645   9.573   2.947 -0.4572  0.4850 -0.2611
  179MOL0     C24040   8.705   9.596   3.090 -0.1335 -0.0755 -0.2440
  179MOL0     C24041   8.812   9.492   3.132 -0.4040 -0.6340  0.5268
  179MOL0     C24042   8.761   9.403   3.246 -0.2622  0.5576 -0.5590
  179MOL0     C24043   8.833   9.264   3.263  0.5971  0.7699  0.7116
  179MOL0     C24044   8.817   9.181   3.143 -0.3057 -0.5412  0.4705
  179MOL0     C24045   8.682   9.119   3.131 -0.5110 -0.4275  0.4573
  179MOL0     C24046   8.688   9.028   3.007  0.4531 -0.0874  0.8451
  179MOL0     N24047   8.563   8.957   2.977 -0.8658  0.6692 -1.2387
  179MOL0     C24048   8.514   8.840   3.036  0.7722  0.0446 -0.2945
  179MOL0     C24049   8.401   8.810   2.977  0.1575 -0.1549  0.0267
  179MOL0     C24050   8.329   8.684   3.017 -0.4041 -0.1409 -0.6397
  179MOL0     C24051   8.207   8.659   2.930 -0.3275 -0.4108  0.1175
  179MOL0     C24052   8.130   8.528   2.960  0.0235  0.0168 -0.1161
  179MOL0     C24053   8.033   8.471   2.852  0.7001  0.1627  0.2678
  179MOL0     O24054   7.964   8.575   2.793  0.5389 -0.5716  0.2226
  179MOL0     C24055   7.829   8.557   2.772  0.7775 -0.3500  0.3837
  179MOL0     C24056   7.747   8.562   2.880 -0.7099  1.2308  0.3319
  179MOL0     C24057   7.606   8.551   2.875 -0.8461  0.2695 -0.6456
  179MOL0     C24058   7.529   8.622   2.990 -0.9122 -0.2016  0.2125
  179MOL0     C24059   7.554   8.492   2.759 -0.2898  0.3620  0.0187
  179MOL0     C24060   7.415   8.445   2.739  1.0042  0.2474 -0.3842
  179MOL0     O24061   7.370   8.386   2.625  0.0001 -0.2780 -0.3111
  179MOL0     C24062   7.256   8.308   2.636 -0.3062  0.2835  0.7348
  179MOL0     C24063   7.254   8.170   2.667 -0.9215 -0.1749 -0.6485
  179MOL0     C24064   7.135   8.105   2.686  0.0056  0.7107 -0.2038
  179MOL0     C24065   7.017   8.169   2.639  0.6483  0.0612  0.5490
  179MOL0     O24066   6.901   8.095   2.662 -0.6552 -0.3874 -0.5612
  179MOL0     C24067   6.775   8.157   2.632 -0.0161 -1.0126  0.1937
  179MOL0     C24068   6.670   8.057   2.644 -0.9334  0.2236 -0.1112
  179MOL0     C24069   6.525   8.115   2.617  0.0228 -0.2926  0.4346
  179MOL0     C24070   6.502   8.153   2.472 -1.5695 -0.2998 -0.4051
  179MOL0     C24071   6.350   8.191   2.431  0.5417  0.1657 -0.0877
  179MOL0     C24072   6.306   8.324   2.499  0.1502 -0.3915 -0.7859
  179MOL0     C24073   6.370   8.445   2.424 -1.4257  0.1674 -0.2029
  179MOL0     C24074   6.313   8.582   2.448  0.0729  0.0012  0.1305
  179MOL0    Cl24075   6.130   8.568   2.424 -0.2804  0.0488 -0.0312
  179MOL0     C24076   7.019   8.307   2.597 -0.2589  0.3261 -0.1174
  179MOL0     C24077   7.138   8.376   2.599 -1.1013 -0.0598 -0.6227
  179MOL0     O24078   7.350   8.434   2.842  0.3091  0.4253 -0.1198
  179MOL0     C24079   7.645   8.472   2.648  0.5598 -0.1690 -0.3979
  179MOL0     C24080   7.783   8.510   2.654 -0.2405  0.2535 -0.7378
  179MOL0     N24081   8.373   8.911   2.887 -0.5765 -0.6759  0.1103
  179MOL0     N24082   8.477   8.998   2.877  0.4942  0.2358 -0.3163
  179MOL0     C24083   8.523   9.452   2.709 -0.4052 -0.6050  0.1487
  179MOL0     C24084   8.467   9.386   2.604 -2.1005  0.5385 -0.5830
  179MOL0     C24085   8.241   9.175   2.292  0.0045  0.6823 -0.0194
  179MOL0     C24086   8.101   9.167   2.323 -0.0762 -0.1285 -0.2722
  179MOL0     C24087   8.005   9.156   2.231 -0.7992  0.3570 -0.1771
  179MOL0     C24088   8.040   9.149   2.101 -0.1927  0.5305  0.6749
  179MOL0     O24089   7.937   9.140   2.013  0.8606  0.4770 -0.4071
  179MOL0     C24090   7.937   9.203   1.878 -0.4847  0.6081 -0.1622
  179MOL0     C24091   7.799   9.191   1.808 -0.0436 -0.0062  0.0777
  179MOL0     C24092   7.765   9.062   1.737  0.1679  0.1322 -0.5162
  179MOL0     C24093   7.790   8.924   1.821 -1.0036 -1.8547  0.6900
  179MOL0     C24094   7.684   8.938   1.926 -0.0351  0.5893 -0.4361
  179MOL0     C24095   7.611   8.950   2.020 -0.0882  1.0013  0.3389
  179MOL0     C24096   8.175   9.149   2.055 -0.5133  0.0945  0.2830
  179MOL0     C24097   8.279   9.162   2.153 -0.1136 -0.0409 -0.8104
  179MOL0     H24098   8.301   9.145   2.780  2.6106 -0.2343  3.0737
  179MOL0     H24099   8.394   9.277   2.973  1.6110 -1.4848 -0.3667
  179MOL0     H24100   8.719   9.565   2.867 -0.2559 -1.0014  0.0558
  179MOL0     H24101   8.581   9.660   2.925 -0.4485  1.0522  1.7337
  179MOL0     H24102   8.753   9.695   3.091 -0.8128  0.2586  1.1895
  179MOL0     H24103   8.623   9.599   3.162 -1.3568  2.9644 -1.5624
  179MOL0     H24104   8.835   9.431   3.044 -3.9523 -2.0533  0.3885
  179MOL0     H24105   8.898   9.548   3.170 -1.1922  1.0510 -0.0739
  179MOL0     H24106   8.775   9.463   3.336  3.7189  2.0463 -1.9436
  179MOL0     H24107   8.655   9.384   3.227 -0.3430 -0.9051  1.1134
  179MOL0     H24108   8.940   9.264   3.285  1.2717 -2.7340 -1.6796
  179MOL0     H24109   8.795   9.205   3.348  0.5157 -1.2816 -0.6619
  179MOL0     H24110   8.834   9.240   3.052  1.2038 -0.2460  0.9118
  179MOL0     H24111   8.890   9.100   3.139  0.0848 -0.3415  2.5168
  179MOL0     H24112   8.650   9.059   3.216 -1.4659 -0.3233  0.1883
  179MOL0     H24113   8.601   9.192   3.133 -0.3884 -0.2909  0.4243
  179MOL0     H24114   8.775   8.964   2.996  0.3319  0.0688 -1.5017
  179MOL0     H24115   8.708   9.103   2.929  4.1981 -0.1955  1.5335
  179MOL0     H24116   8.564   8.786   3.116  0.6529 -0.5301 -0.5951
  179MOL0     H24117   8.398   8.600   3.007  1.2078  1.3693 -3.7090
  179MOL0     H24118   8.290   8.697   3.118  0.9094  2.5089 -0.3753
  179MOL0     H24119   8.245   8.646   2.828  0.1278 -0.0023  0.2301
  179MOL0     H24120   8.138   8.744   2.933 -0.3042 -0.2575 -1.9824
  179MOL0     H24121   8.074   8.545   3.052 -2.8786  3.5267 -2.2275
  179MOL0     H24122   8.203   8.450   2.982 -1.9798 -1.8916  0.0432
  179MOL0     H24123   7.965   8.399   2.898 -0.4245 -0.5265 -2.3071
  179MOL0     H24124   8.086   8.411   2.777  1.4856 -0.2721  1.1507
  179MOL0     H24125   7.793   8.596   2.972 -1.7559 -1.4936  2.0174
  179MOL0     H24126   7.487   8.545   3.056 -2.2546 -0.1118 -0.5166
  179MOL0     H24127   7.601   8.682   3.047 -2.6337  1.0291  1.1882
  179MOL0     H24128   7.450   8.688   2.955  2.0105  3.4592 -0.1405
  179MOL0     H24129   7.345   8.116   2.692 -0.5485  1.4280  1.8237
  179MOL0     H24130   7.139   8.015   2.746  3.1795  0.9453  0.0947
  179MOL0     H24131   6.763   8.243   2.698  0.3992  0.2405 -1.2881
  179MOL0     H24132   6.777   8.183   2.525 -1.9429 -1.9847 -0.1123
  179MOL0     H24133   6.675   7.973   2.574  0.0875  0.4096 -0.2726
  179MOL0     H24134   6.669   8.022   2.748 -2.4488  0.7589  0.0748
  179MOL0     H24135   6.503   8.202   2.679  0.5978 -0.8002  1.3672
  179MOL0     H24136   6.446   8.040   2.628 -2.0056  1.5383 -0.9632
  179MOL0     H24137   6.576   8.230   2.453  0.4001 -1.4764  1.9392
  179MOL0     H24138   6.526   8.064   2.412  1.6425 -0.0639  0.3921
  179MOL0     H24139   6.290   8.104   2.459  1.7888 -0.2224  1.4956
  179MOL0     H24140   6.341   8.204   2.323 -0.1875  0.2509 -0.0240
  179MOL0     H24141   6.198   8.329   2.487  0.1297 -0.2319 -0.5477
  179MOL0     H24142   6.335   8.328   2.605 -0.9243 -1.0764 -0.4530
  179MOL0     H24143   6.366   8.437   2.315  1.7773  2.2733 -0.6365
  179MOL0     H24144   6.478   8.452   2.442 -0.7620 -1.8750 -2.7447
  179MOL0     H24145   6.359   8.639   2.366 -2.9600  1.4707 -0.6883
  179MOL0     H24146   6.336   8.620   2.548  0.4645 -2.2962  0.9758
  179MOL0     H24147   6.930   8.358   2.562  0.4644  1.1041 -0.8742
  179MOL0     H24148   7.157   8.473   2.556  4.7039 -0.8525 -0.6178
  179MOL0     H24149   7.608   8.432   2.554 -0.0116  0.9909 -0.6851
  179MOL0     H24150   7.847   8.504   2.567 -0.4577  1.7899 -1.0282
  179MOL0     H24151   8.591   9.532   2.679 -0.3695 -0.1077  1.4753
  179MOL0     H24152   8.498   9.404   2.501  0.4835 -2.7247 -0.5632
  179MOL0     H24153   8.069   9.178   2.426 -1.2666 -1.1413 -0.5092
  179MOL0     H24154   7.902   9.158   2.265 -0.7441 -0.7821  0.1128
  179MOL0     H24155   7.961   9.309   1.890  2.2813  0.0063  0.3248
  179MOL0     H24156   8.017   9.153   1.823 -0.1164  0.5286  0.4409
  179MOL0     H24157   7.798   9.259   1.722 -2.0004  0.0032  0.0716
  179MOL0     H24158   7.716   9.211   1.875  2.4756  3.5182  2.5357
  179MOL0     H24159   7.830   9.056   1.649  1.3916 -1.3995  0.4428
  179MOL0     H24160   7.662   9.066   1.699  0.4911  1.4205 -1.3167
  179MOL0     H24161   7.890   8.923   1.866  0.5199  0.1275 -2.2620
  179MOL0     H24162   7.771   8.834   1.761  0.5163 -0.4988 -2.0495
  179MOL0     H24163   7.556   8.958   2.111  1.1676 -0.9680  1.3322
  179MOL0     H24164   8.200   9.148   1.950 -0.1275 -1.2850  0.3775
  179MOL0     H24165   8.383   9.155   2.123  0.6083 -3.1480  1.8849
  180MOL0     O24166   4.689   8.400   3.494 -0.1137  0.4279  0.1300
  180MOL0     C24167   4.780   8.431   3.571  0.6778 -0.1885  0.3266
  180MOL0     O24168   4.779   8.416   3.706 -0.1643  0.0575 -0.5215
  180MOL0     C24169   4.667   8.364   3.773  0.2844 -0.2959  0.5793
  180MOL0     C24170   4.534   8.334   3.718  0.2913 -0.0394  0.2505
  180MOL0     C24171   4.450   8.264   3.798 -0.6394  0.9124 -0.7454
  180MOL0     C24172   4.490   8.224   3.930  0.4265  0.4056 -0.2497
  180MOL0     O24173   4.410   8.150   4.013 -0.0091  0.3289 -0.1590
  180MOL0     C24174   4.280   8.097   3.984  0.0512  0.4352  0.0574
  180MOL0     C24175   4.235   7.996   4.086 -0.1994  0.5132 -0.1069
  180MOL0     C24176   4.198   8.063   4.221  0.6433 -0.5919  0.4910
  180MOL0     C24177   4.102   7.967   4.288  0.3331  0.1237 -0.2044
  180MOL0     C24178   4.081   8.021   4.427  0.0703 -0.2020  0.0599
  180MOL0     C24179   4.020   7.914   4.527 -0.2791  0.0191  0.5149
  180MOL0     C24180   4.113   7.788   4.548  0.1213  0.7526 -0.8505
  180MOL0     C24181   4.143   7.739   4.692 -0.2976  0.8080 -0.1392
  180MOL0     N24182   4.022   7.688   4.761 -0.1941 -0.2191  0.1396
  180MOL0     C24183   3.907   7.768   4.799 -0.8315  1.1225 -0.0141
  180MOL0     C24184   3.817   7.672   4.830  0.0199  0.2677  0.0799
  180MOL0     C24185   3.670   7.693   4.877 -0.2201 -0.7174 -0.1723
  180MOL0     C24186   3.674   7.718   5.027 -0.2629 -0.1844  0.5579
  180MOL0     C24187   3.536   7.750   5.064  0.3710 -0.1788 -0.7770
  180MOL0     C24188   3.530   7.777   5.210  0.1718 -0.0385  0.0601
  180MOL0     O24189   3.570   7.907   5.249 -0.6040 -0.0614  0.2627
  180MOL0     C24190   3.486   8.005   5.294 -0.6664 -0.9456 -0.0323
  180MOL0     C24191   3.346   8.005   5.280 -0.2618  0.6106 -0.1098
  180MOL0     C24192   3.259   8.089   5.341 -0.0575 -0.0446 -1.1236
  180MOL0     C24193   3.112   8.053   5.332 -0.0056  0.1490  0.0338
  180MOL0     C24194   3.314   8.201   5.407  0.7023  0.9003 -0.4425
  180MOL0     C24195   3.236   8.305   5.479  0.2314 -0.5182 -0.5188
  180MOL0     O24196   3.303   8.398   5.541 -0.6555  0.2840  0.4028
  180MOL0     C24197   3.243   8.477   5.636 -0.0906 -0.1035 -0.4383
  180MOL0     C24198   3.314   8.505   5.757 -0.6992 -0.7130  0.0748
  180MOL0     C24199   3.267   8.614   5.839  0.6809  0.6106 -0.3042
  180MOL0     C24200   3.168   8.700   5.794  0.7045  0.2394  0.5189
  180MOL0     O24201   3.122   8.807   5.867 -0.7499 -0.2566  0.4396
  180MOL0     C24202   3.186   8.838   5.988 -0.2852 -0.2513 -0.7477
  180MOL0     C24203   3.106   8.939   6.070  0.5268 -0.7010  0.4937
  180MOL0     C24204   2.976   8.879   6.135 -0.3554  0.2188  0.7116
  180MOL0     C24205   2.853   8.912   6.051 -1.0519 -0.4133 -0.3471
  180MOL0     C24206   2.820   9.059   6.050  0.9138  0.1320  0.0343
  180MOL0     C24207   2.675   9.083   6.010  0.7174 -0.6206 -0.4261
  180MOL0     C24208   2.650   9.043   5.866 -0.7001  0.0928 -0.1289
  180MOL0     C24209   2.517   9.092   5.821  0.2135 -0.0898  0.9427
  180MOL0    Cl24210   2.524   9.094   5.646 -0.1975  0.2529 -0.1834
  180MOL0     C24211   3.101   8.675   5.671 -1.3123  0.0443  0.0831
  180MOL0     C24212   3.142   8.560   5.599  1.0648 -0.4971  0.6378
  180MOL0     O24213   3.114   8.285   5.486 -0.1606 -0.2880  0.2653
  180MOL0     C24214   3.454   8.211   5.426  0.3628  0.3271 -0.2497
  180MOL0     C24215   3.540   8.109   5.374  0.5091  0.3353 -0.1057
  180MOL0     N24216   3.876   7.541   4.830  0.2805 -0.1560  0.1603
  180MOL0     N24217   3.994   7.563   4.789 -0.8020 -0.1199  0.2125
  180MOL0     C24218   4.613   8.257   3.979 -0.7286  0.0147 -0.2565
  180MOL0     C24219   4.703   8.335   3.906 -0.6788  0.0679 -0.1061
  180MOL0     C24220   4.887   8.498   3.503 -0.6175  0.6429  0.6251
  180MOL0     C24221   4.891   8.531   3.362  0.2045 -0.7189  0.0282
  180MOL0     C24222   5.002   8.589   3.306  0.2860  0.3987 -0.2956
  180MOL0     C24223   5.119   8.611   3.378 -0.6435 -1.0055  0.8259
  180MOL0     O24224   5.217   8.682   3.312 -0.4244 -0.5078  0.0587
  180MOL0     C24225   5.348   8.670   3.369  1.0520 -0.0927 -0.0471
  180MOL0     C24226   5.447   8.728   3.266  0.3003 -0.0704 -0.8152
  180MOL0     C24227   5.598   8.744   3.319  0.1638 -0.0548  0.3211
  180MOL0     C24228   5.719   8.651   3.273  1.3196  0.1402 -0.0520
  180MOL0     C24229   5.671   8.520   3.311  0.3008  0.2620 -0.1290
  180MOL0     C24230   5.641   8.397   3.333 -1.2421  0.1640  0.0110
  180MOL0     C24231   5.128   8.568   3.508  0.9157  0.3595 -0.0119
  180MOL0     C24232   5.011   8.509   3.569 -0.4678 -0.0981  1.6954
  180MOL0     H24233   4.508   8.348   3.613 -1.3303  1.6571  0.8272
  180MOL0     H24234   4.358   8.223   3.756 -1.2652  0.6723  0.7689
  180MOL0     H24235   4.203   8.172   3.961  0.6538  0.1386 -3.4181
  180MOL0     H24236   4.310   8.027   3.906  3.3057  1.0300  0.6186
  180MOL0     H24237   4.153   7.941   4.039  0.5570 -0.2003 -0.6067
  180MOL0     H24238   4.319   7.929   4.105  0.7562  2.1515  1.7876
  180MOL0     H24239   4.291   8.065   4.279  0.5597 -0.8470  0.6363
  180MOL0     H24240   4.155   8.164   4.217  2.7045  0.2999 -0.3462
  180MOL0     H24241   4.019   7.959   4.218  0.8010  2.7810 -1.1813
  180MOL0     H24242   4.146   7.867   4.294 -2.0338 -0.9912 -0.5140
  180MOL0     H24243   4.180   8.050   4.462 -0.5935  0.3755  1.5511
  180MOL0     H24244   4.016   8.109   4.430  0.6642  0.2101  2.3561
  180MOL0     H24245   4.013   7.949   4.630 -3.1275  1.3981 -0.0479
  180MOL0     H24246   3.917   7.891   4.498 -0.7569 -0.4461  2.4829
  180MOL0     H24247   4.071   7.705   4.490  2.7856 -2.9510  1.9918
  180MOL0     H24248   4.209   7.813   4.501 -0.3371 -0.8903 -2.8175
  180MOL0     H24249   4.186   7.812   4.761  2.5250 -0.8328 -0.0309
  180MOL0     H24250   4.228   7.670   4.694  0.2808  1.5165  0.4577
  180MOL0     H24251   3.898   7.876   4.808 -1.0093  1.0333  1.1101
  180MOL0     H24252   3.625   7.773   4.817  2.2593  1.6123  0.8734
  180MOL0     H24253   3.610   7.603   4.857 -1.8013 -0.0015  1.0664
  180MOL0     H24254   3.737   7.803   5.055 -0.3413  0.6037 -1.4938
  180MOL0     H24255   3.705   7.627   5.079 -2.2239 -2.0128 -1.2544
  180MOL0     H24256   3.463   7.676   5.028 -1.8570 -0.1329  3.0449
  180MOL0     H24257   3.515   7.850   5.025  0.5259 -1.2387 -3.8582
  180MOL0     H24258   3.593   7.705   5.264  1.9151  2.1120  1.0350
  180MOL0     H24259   3.425   7.759   5.235 -0.1895  2.0762  0.1839
  180MOL0     H24260   3.319   7.912   5.232  2.2416 -1.2312  1.7221
  180MOL0     H24261   3.078   7.988   5.413 -1.5079  0.0662 -0.6366
  180MOL0     H24262   3.044   8.137   5.317 -1.0314 -0.3161  1.8084
  180MOL0     H24263   3.101   7.987   5.245  1.9354 -1.3691  0.8556
  180MOL0     H24264   3.392   8.437   5.790  1.4009  2.6701  2.8133
  180MOL0     H24265   3.323   8.629   5.931 -1.5685  1.1528  1.0630
  180MOL0     H24266   3.203   8.751   6.052 -2.0450  1.6850  2.6301
  180MOL0     H24267   3.279   8.893   5.969  0.0470 -0.0079  1.3396
  180MOL0     H24268   3.174   8.968   6.151 -0.4590  0.5212  0.9097
  180MOL0     H24269   3.097   9.037   6.023  0.4071 -1.2608 -0.6871
  180MOL0     H24270   2.963   8.925   6.234 -1.0583 -2.4670  1.9666
  180MOL0     H24271   3.001   8.775   6.158 -3.3190 -0.4972  1.1400
  180MOL0     H24272   2.877   8.862   5.956 -0.1260 -3.6355  1.4106
  180MOL0     H24273   2.772   8.851   6.093  0.8653 -2.9176  0.0154
  180MOL0     H24274   2.878   9.110   5.973  2.9508 -2.7986 -0.5411
  180MOL0     H24275   2.839   9.106   6.147 -1.2257  1.2934 -0.0341
  180MOL0     H24276   2.597   9.038   6.072  3.0403 -2.0957  1.5898
  180MOL0     H24277   2.662   9.192   6.015  1.1087 -0.5914  0.0601
  180MOL0     H24278   2.660   8.935   5.851 -1.1647  0.0421 -0.0740
  180MOL0     H24279   2.722   9.096   5.803  0.5781  0.3300  1.4695
  180MOL0     H24280   2.502   9.199   5.838  1.5847  0.3180 -0.2146
  180MOL0     H24281   2.439   9.028   5.862  0.1969 -0.8613 -0.2286
  180MOL0     H24282   3.024   8.744   5.639 -0.1888  1.9230  1.2529
  180MOL0     H24283   3.099   8.556   5.499 -0.0479  5.3571  0.5276
  180MOL0     H24284   3.503   8.285   5.490 -0.7565 -0.1291  1.1977
  180MOL0     H24285   3.648   8.114   5.382  0.8972 -4.0567  0.0630
  180MOL0     H24286   4.636   8.248   4.085 -1.5469 -0.6275 -0.1311
  180MOL0     H24287   4.803   8.366   3.935 -0.8777  2.8694 -2.0043
  180MOL0     H24288   4.804   8.511   3.299  0.3282 -2.3252  0.3290
  180MOL0     H24289   4.999   8.617   3.202 -2.7997  1.7256  0.0424
  180MOL0     H24290   5.357   8.714   3.469 -1.3063 -0.2036  0.2845
  180MOL0     H24291   5.373   8.567   3.396  1.3437 -0.3290 -1.1884
  180MOL0     H24292   5.402   8.817   3.222  1.0086  0.3479 -0.7180
  180MOL0     H24293   5.452   8.665   3.177 -1.0430  3.6788 -3.8190
  180MOL0     H24294   5.588   8.743   3.428  0.0921  3.3142  0.4303
  180MOL0     H24295   5.615   8.843   3.277 -0.7474 -1.1539 -2.8668
  180MOL0     H24296   5.811   8.672   3.328  1.0921  0.3317  0.2567
  180MOL0     H24297   5.736   8.653   3.165 -2.0776 -1.0333 -0.7429
  180MOL0     H24298   5.606   8.299   3.360 -1.2122  0.3274  0.6449
  180MOL0     H24299   5.219   8.567   3.567 -0.4968 -0.5661  2.2966
  180MOL0     H24300   5.022   8.454   3.662  1.9166 -1.4044  0.7183
  181MOL0     O24301   1.265   8.962   7.662 -0.0042 -0.3662  0.5655
  181MOL0     C24302   1.383   8.973   7.613  0.4532 -0.4311 -0.7200
  181MOL0     O24303   1.412   9.001   7.484 -0.3505 -0.3163  0.6451
  181MOL0     C24304   1.298   9.027   7.399 -0.3305 -0.3737 -1.1582
  181MOL0     C24305   1.218   8.922   7.358 -0.1738 -0.0406  0.3797
  181MOL0     C24306   1.124   8.929   7.258  0.2324 -0.6637  0.3474
  181MOL0     C24307   1.109   9.054   7.189  0.4119  0.3618 -0.1183
  181MOL0     O24308   1.010   9.086   7.100  0.8894  0.0541  0.1069
  181MOL0     C24309   0.916   8.982   7.074  0.4519 -0.0376  0.0042
  181MOL0     C24310   0.795   9.030   6.986  0.1178 -0.2709 -0.2056
  181MOL0     C24311   0.683   8.925   6.977 -0.0922 -0.1632 -0.5749
  181MOL0     C24312   0.569   8.997   6.910  0.5626 -0.4457  0.3619
  181MOL0     C24313   0.447   8.917   6.904 -1.3836  0.4301  0.1725
  181MOL0     C24314   0.332   8.985   6.842 -0.3067 -0.3250  0.6983
  181MOL0     C24315   0.207   8.898   6.838 -0.2673 -0.3836 -0.9022
  181MOL0     C24316   0.100   8.986   6.757  1.1612 -0.0025 -0.1831
  181MOL0     N24317  -0.034   8.928   6.792  0.5517 -0.0241  0.0104
  181MOL0     C24318  -0.132   8.985   6.865 -0.4250  0.9111 -0.4163
  181MOL0     C24319  -0.234   8.895   6.868 -0.1688 -0.1284 -0.4302
  181MOL0     C24320  -0.367   8.911   6.921 -0.1005  0.3553 -0.1008
  181MOL0     C24321  -0.436   9.039   6.867 -1.2720 -0.1326 -0.0949
  181MOL0     C24322  -0.572   9.046   6.932  0.0461 -0.0010 -0.8200
  181MOL0     C24323  -0.651   9.171   6.893 -0.1410  0.1380 -0.1460
  181MOL0     O24324  -0.769   9.162   6.973  0.1165  0.2689 -1.0735
  181MOL0     C24325  -0.876   9.247   6.963 -0.4029 -0.3688  0.6400
  181MOL0     C24326  -0.931   9.302   7.078 -0.5134 -0.8387  0.6259
  181MOL0     C24327  -1.039   9.391   7.086 -0.2072 -0.5133  0.4065
  181MOL0     C24328  -1.083   9.436   7.230  0.6743  0.3270 -0.2040
  181MOL0     C24329  -1.093   9.437   6.967  1.7724  0.8887 -0.0237
  181MOL0     C24330  -1.207   9.533   6.960 -0.0385 -1.3038  0.7560
  181MOL0     O24331  -1.279   9.527   6.842  0.5499 -0.3163  0.7018
  181MOL0     C24332  -1.357   9.638   6.810 -0.1718  0.2290 -0.6981
  181MOL0     C24333  -1.475   9.667   6.863 -1.0780  0.4284  0.0761
  181MOL0     C24334  -1.547   9.785   6.823 -0.8935 -0.7289 -0.6859
  181MOL0     C24335  -1.501   9.868   6.720 -0.1989  0.9917  0.3360
  181MOL0     O24336  -1.572   9.976   6.676 -0.0474 -0.3134  0.3507
  181MOL0     C24337  -1.713   9.969   6.694  0.9575  0.4184  1.2835
  181MOL0     C24338  -1.760  10.105   6.658 -0.0725  0.0387  0.2522
  181MOL0     C24339  -1.712  10.217   6.761  0.4134 -0.1870 -0.1385
  181MOL0     C24340  -1.764  10.350   6.701  0.7890  0.1622 -0.2189
  181MOL0     C24341  -1.712  10.473   6.781  0.1743  0.0125 -0.2957
  181MOL0     C24342  -1.578  10.518   6.729 -0.0905  0.1986 -0.3056
  181MOL0     C24343  -1.521  10.660   6.791  0.3185 -0.1176 -0.3284
  181MOL0     C24344  -1.389  10.687   6.714 -0.0430 -0.5792  0.2179
  181MOL0    Cl24345  -1.269  10.562   6.768  0.0242 -0.2175  0.5057
  181MOL0     C24346  -1.383   9.826   6.665 -0.7500 -0.5832 -0.2211
  181MOL0     C24347  -1.311   9.715   6.705 -0.0934 -0.3493 -0.2342
  181MOL0     O24348  -1.227   9.615   7.048  0.0084 -0.9097  0.5495
  181MOL0     C24349  -1.055   9.361   6.850  0.4841 -0.4395  0.5060
  181MOL0     C24350  -0.951   9.269   6.841 -0.8191 -0.3814 -0.6122
  181MOL0     N24351  -0.196   8.779   6.797 -0.6164 -0.4691 -0.2339
  181MOL0     N24352  -0.082   8.812   6.742  0.4023 -1.0465 -0.3021
  181MOL0     C24353   1.176   9.162   7.241 -0.2552 -0.4258  0.1879
  181MOL0     C24354   1.274   9.147   7.333  0.6376  0.2933  0.6216
  181MOL0     C24355   1.501   8.988   7.702  0.0836  0.2090  0.2986
  181MOL0     C24356   1.480   8.989   7.843  0.3639  0.2537 -0.0100
  181MOL0     C24357   1.580   9.007   7.938  0.0566  0.3375  0.7417
  181MOL0     C24358   1.712   9.005   7.890  0.1653  0.4140  1.0075
  181MOL0     O24359   1.810   9.015   7.984 -0.7458 -0.6189 -0.2290
  181MOL0     C24360   1.950   9.026   7.935  0.3015  0.3219  0.1583
  181MOL0     C24361   2.031   9.029   8.058 -0.1612 -0.4645 -0.2533
  181MOL0     C24362   2.038   8.885   8.117  0.1038  0.4726 -0.2137
  181MOL0     C24363   2.153   8.812   8.054  0.2276  0.2735  0.1938
  181MOL0     C24364   2.217   8.714   8.138 -0.6421  0.1750 -0.0711
  181MOL0     C24365   2.281   8.646   8.208 -0.5155  0.1889 -0.3064
  181MOL0     C24366   1.736   9.006   7.750 -1.1033 -0.7114  1.8514
  181MOL0     C24367   1.633   9.003   7.657 -0.3007 -0.1299 -0.2930
  181MOL0     H24368   1.232   8.828   7.410 -0.9733  0.2869  1.2329
  181MOL0     H24369   1.069   8.839   7.233  0.0168 -1.1649  2.4526
  181MOL0     H24370   0.967   8.902   7.020 -1.4673 -0.8911 -0.6555
  181MOL0     H24371   0.885   8.946   7.172 -0.3710  0.2532 -0.1348
  181MOL0     H24372   0.748   9.122   7.022  0.9369  0.2880 -0.5372
  181MOL0     H24373   0.834   9.059   6.888 -1.2624  2.8642  0.0569
  181MOL0     H24374   0.719   8.846   6.910 -0.1105 -0.1398 -0.6130
  181MOL0     H24375   0.655   8.869   7.067  1.0760 -0.9071 -0.6631
  181MOL0     H24376   0.561   9.092   6.964  3.2099 -0.9279  1.7822
  181MOL0     H24377   0.597   9.034   6.811  0.7155  4.4912  1.9765
  181MOL0     H24378   0.467   8.821   6.854 -2.8840 -0.7955  1.8460
  181MOL0     H24379   0.429   8.890   7.008  1.2495  1.7313  1.0748
  181MOL0     H24380   0.299   9.075   6.895 -0.8415  0.6735 -1.2163
  181MOL0     H24381   0.354   9.023   6.742 -0.4788 -1.9273  0.0227
  181MOL0     H24382   0.231   8.809   6.778  2.0303  0.6502 -1.6327
  181MOL0     H24383   0.172   8.886   6.941 -0.7384  1.1281 -0.8707
  181MOL0     H24384   0.121   8.974   6.651 -0.8454  0.0236 -0.6180
  181MOL0     H24385   0.106   9.089   6.795 -1.4204 -0.2549  1.1463
  181MOL0     H24386  -0.139   9.088   6.899 -1.1958  0.2696  1.5333
  181MOL0     H24387  -0.421   8.817   6.904  2.0087 -1.3801  2.1450
  181MOL0     H24388  -0.360   8.923   7.029 -0.5349 -0.3157  0.0122
  181MOL0     H24389  -0.439   9.041   6.758  1.1984 -1.1841 -0.2383
  181MOL0     H24390  -0.383   9.127   6.903 -0.1244 -1.7016  2.3233
  181MOL0     H24391  -0.562   9.053   7.041 -1.1610 -1.1709 -0.6033
  181MOL0     H24392  -0.627   8.954   6.910 -0.8924 -0.0190  1.3830
  181MOL0     H24393  -0.660   9.163   6.784  0.4585  4.1777 -0.6714
  181MOL0     H24394  -0.613   9.271   6.919 -0.6516  0.0197  1.1184
  181MOL0     H24395  -0.875   9.272   7.166  2.0321  0.3962 -0.4641
  181MOL0     H24396  -1.104   9.543   7.239 -1.7150 -0.0616 -0.5689
  181MOL0     H24397  -1.175   9.382   7.256  2.7552 -2.8143  1.3308
  181MOL0     H24398  -1.010   9.409   7.307 -1.4802 -1.0270  1.5140
  181MOL0     H24399  -1.514   9.608   6.946  1.2166 -0.4645  0.5894
  181MOL0     H24400  -1.639   9.799   6.879  0.1668 -0.7430  1.1134
  181MOL0     H24401  -1.760   9.894   6.629 -1.8738  0.9060  2.6186
  181MOL0     H24402  -1.745   9.949   6.797  0.9263 -1.3847  0.9607
  181MOL0     H24403  -1.734  10.136   6.557 -1.3293  1.0670  0.2016
  181MOL0     H24404  -1.868  10.103   6.680  0.0136 -1.5862  0.6635
  181MOL0     H24405  -1.604  10.205   6.771  0.2596 -1.9024 -0.2725
  181MOL0     H24406  -1.755  10.216   6.862 -2.7182  0.7421 -1.3352
  181MOL0     H24407  -1.740  10.360   6.594 -2.8778 -2.2202 -1.4628
  181MOL0     H24408  -1.873  10.348   6.691  0.8823 -0.7555 -1.2558
  181MOL0     H24409  -1.713  10.456   6.889 -1.9653 -1.5612 -0.5001
  181MOL0     H24410  -1.781  10.555   6.764  0.9885  1.1163  1.4364
  181MOL0     H24411  -1.509  10.434   6.745 -4.0979 -3.5748 -0.9953
  181MOL0     H24412  -1.587  10.544   6.624 -3.2714  1.7562  0.2321
  181MOL0     H24413  -1.498  10.640   6.896  0.4475 -0.7253 -0.4693
  181MOL0     H24414  -1.594  10.741   6.782 -1.2087 -1.5089 -0.8314
  181MOL0     H24415  -1.353  10.789   6.732 -0.4854 -0.3274 -0.2867
  181MOL0     H24416  -1.418  10.682   6.609 -2.6118  0.3506  0.8078
  181MOL0     H24417  -1.341   9.886   6.584  1.5932 -0.3907  1.0441
  181MOL0     H24418  -1.213   9.702   6.661 -0.4738 -0.8667 -0.9450
  181MOL0     H24419  -1.112   9.376   6.759 -3.0996 -0.4248  2.5823
  181MOL0     H24420  -0.927   9.220   6.747 -1.7757 -0.8606 -0.6165
  181MOL0     H24421   1.164   9.266   7.211 -1.7567 -0.4983  0.4982
  181MOL0     H24422   1.340   9.228   7.362  0.9677 -0.0864  0.9425
  181MOL0     H24423   1.378   8.983   7.880  1.4408 -0.3941  3.1235
  181MOL0     H24424   1.558   9.013   8.044  0.2429  2.6277  0.7031
  181MOL0     H24425   1.977   8.937   7.877  2.9031  0.8642  0.4216
  181MOL0     H24426   1.965   9.115   7.874  2.2504  0.4482  0.7431
  181MOL0     H24427   1.984   9.097   8.130  0.7191 -0.8137  0.6784
  181MOL0     H24428   2.128   9.073   8.033 -0.5783  0.8775  0.3541
  181MOL0     H24429   1.942   8.838   8.095 -0.0251  0.6045  0.0633
  181MOL0     H24430   2.046   8.887   8.226  1.9318 -1.0898 -0.2592
  181MOL0     H24431   2.235   8.883   8.035  0.4635  0.3529  1.4270
  181MOL0     H24432   2.129   8.766   7.958  1.2557 -2.5935  1.1947
  181MOL0     H24433   2.335   8.574   8.266 -3.7546 -1.9207  0.3794
  181MOL0     H24434   1.834   9.013   7.703 -0.9382 -2.0251  1.9635
  181MOL0     H24435   1.658   8.990   7.553  1.7641 -0.7291  0.2407
  182MOL0     O24436   5.606   8.508   0.064  0.1978 -0.0676 -0.3536
  182MOL0     C24437   5.652   8.613   0.105  0.3382  0.2428  0.1252
  182MOL0     O24438   5.604   8.687   0.212 -0.3122 -0.6755  0.3874
  182MOL0     C24439   5.488   8.659   0.279  0.0687  0.0409 -0.3504
  182MOL0     C24440   5.465   8.757   0.376  0.9196 -0.1764  0.1120
  182MOL0     C24441   5.344   8.768   0.450 -0.8580 -0.5029 -0.7220
  182MOL0     C24442   5.242   8.678   0.437  0.3510  0.1868  0.3710
  182MOL0     O24443   5.137   8.695   0.510  0.9355 -0.0457 -0.2248
  182MOL0     C24444   5.014   8.621   0.486 -0.1465  0.6143  0.2127
  182MOL0     C24445   4.899   8.718   0.488 -0.1950 -0.6772 -0.0628
  182MOL0     C24446   4.782   8.653   0.556 -0.3504  0.1939 -1.0171
  182MOL0     C24447   4.665   8.749   0.578  0.2516 -0.4995 -0.0006
  182MOL0     C24448   4.543   8.673   0.640 -1.0565  0.1501  0.0525
  182MOL0     C24449   4.555   8.632   0.784 -0.0479 -0.0929 -0.6871
  182MOL0     C24450   4.416   8.617   0.848  0.3603 -0.3047  0.1063
  182MOL0     C24451   4.323   8.514   0.788  0.8913 -0.2062  0.5732
  182MOL0     N24452   4.192   8.523   0.853 -0.0491 -0.2127  0.0567
  182MOL0     C24453   4.160   8.516   0.990 -0.0347  0.0743 -0.5588
  182MOL0     C24454   4.025   8.528   0.999 -0.7748 -0.2300 -0.5763
  182MOL0     C24455   3.946   8.521   1.127  1.1831 -0.1611  0.6686
  182MOL0     C24456   3.979   8.633   1.230  0.0150  0.0770  0.3027
  182MOL0     C24457   3.946   8.779   1.172  1.0808 -0.6242  0.4257
  182MOL0     C24458   3.966   8.893   1.279  0.0070 -0.3559  0.9161
  182MOL0     O24459   3.890   8.863   1.392 -0.1102  0.1255 -0.6434
  182MOL0     C24460   3.812   8.968   1.452 -0.3901  0.1060 -0.0813
  182MOL0     C24461   3.828   9.103   1.433 -1.0855 -0.2475 -0.3849
  182MOL0     C24462   3.741   9.197   1.501 -0.4756 -0.6497 -0.0204
  182MOL0     C24463   3.754   9.347   1.471 -0.7247 -0.0529  0.4428
  182MOL0     C24464   3.646   9.158   1.598 -0.0791  0.9394  0.4948
  182MOL0     C24465   3.554   9.246   1.654  0.3935 -0.4505 -0.4900
  182MOL0     O24466   3.430   9.274   1.593 -0.3763  0.5241  0.4751
  182MOL0     C24467   3.353   9.382   1.604  0.7842  0.3468 -0.5418
  182MOL0     C24468   3.215   9.361   1.613  0.2152  0.0295  1.0932
  182MOL0     C24469   3.137   9.470   1.637 -1.2724  0.1597  1.0122
  182MOL0     C24470   3.189   9.604   1.658 -0.8457  0.4931 -0.3550
  182MOL0     O24471   3.112   9.700   1.716 -0.4145  0.7154  0.3172
  182MOL0     C24472   3.159   9.797   1.806 -0.9485 -0.4717  0.0024
  182MOL0     C24473   3.049   9.860   1.893  0.7251  0.7623 -0.3564
  182MOL0     C24474   2.952   9.934   1.806  0.2030  0.4548  0.7013
  182MOL0     C24475   2.838  10.000   1.884 -0.4089 -0.2988  0.4346
  182MOL0     C24476   2.781  10.115   1.796  0.5673  1.0503  0.4735
  182MOL0     C24477   2.669  10.188   1.867  0.0235 -0.5158 -0.0386
  182MOL0     C24478   2.555  10.108   1.924  0.6685  0.0618  0.4842
  182MOL0     C24479   2.501  10.018   1.809  0.2799  0.6213  0.3105
  182MOL0    Cl24480   2.367   9.917   1.864 -0.2998 -0.1820  0.8353
  182MOL0     C24481   3.329   9.618   1.648 -0.5178 -0.8189  0.0400
  182MOL0     C24482   3.410   9.507   1.636  0.1435 -0.5950 -0.8730
  182MOL0     O24483   3.594   9.306   1.756 -0.2945  0.1119  0.0170
  182MOL0     C24484   3.631   9.016   1.622 -0.2425  0.6612  0.4077
  182MOL0     C24485   3.710   8.925   1.545 -0.3647  0.5174  0.5536
  182MOL0     N24486   3.983   8.566   0.877  0.2030 -0.1209  0.0704
  182MOL0     N24487   4.080   8.555   0.785 -0.0508 -0.1009  0.3930
  182MOL0     C24488   5.269   8.574   0.348 -0.4353 -0.1194  0.2911
  182MOL0     C24489   5.385   8.563   0.264 -0.1938 -0.6870  0.5815
  182MOL0     C24490   5.783   8.654   0.045 -0.2983  0.0827 -0.3245
  182MOL0     C24491   5.813   8.630  -0.088 -0.0511 -0.4510 -0.7059
  182MOL0     C24492   5.935   8.678  -0.145 -0.3413 -0.2222 -0.1077
  182MOL0     C24493   6.031   8.731  -0.066 -0.4478  0.2151 -0.3850
  182MOL0     O24494   6.155   8.765  -0.105  0.3273  0.7488 -0.1481
  182MOL0     C24495   6.200   8.734  -0.234 -0.3638 -0.0435  0.3375
  182MOL0     C24496   6.350   8.770  -0.243 -0.3760  0.0264 -0.2587
  182MOL0     C24497   6.404   8.759  -0.385  0.1897  0.6778  0.7745
  182MOL0     C24498   6.555   8.796  -0.404  0.3958 -0.3014 -0.8478
  182MOL0     C24499   6.599   8.744  -0.532 -0.3047 -0.6587 -0.1781
  182MOL0     C24500   6.623   8.714  -0.647 -0.6766  0.5130 -0.5955
  182MOL0     C24501   6.003   8.757   0.067 -0.5639 -0.3655  0.1782
  182MOL0     C24502   5.880   8.729   0.119  0.4620 -0.1031  0.5347
  182MOL0     H24503   5.539   8.836   0.389 -0.9533  1.6344  0.2955
  182MOL0     H24504   5.336   8.857   0.511 -2.0025 -1.2157  0.2132
  182MOL0     H24505   5.016   8.564   0.392  3.8690 -3.2071  2.2496
  182MOL0     H24506   5.016   8.546   0.566  1.6523  1.0924  0.6740
  182MOL0     H24507   4.921   8.814   0.535 -1.4836 -0.0837 -0.6326
  182MOL0     H24508   4.873   8.739   0.384 -2.0528 -4.5165 -0.5478
  182MOL0     H24509   4.748   8.567   0.497 -3.5786  1.9339 -1.9682
  182MOL0     H24510   4.827   8.615   0.648 -0.8953  2.2452  0.1522
  182MOL0     H24511   4.691   8.841   0.631  1.4339  0.3374 -1.9358
  182MOL0     H24512   4.616   8.790   0.489 -2.4429 -0.7295  1.2509
  182MOL0     H24513   4.452   8.733   0.635 -2.2602 -1.4971  1.1900
  182MOL0     H24514   4.521   8.583   0.580  2.6404 -0.3582 -0.7567
  182MOL0     H24515   4.620   8.544   0.785  3.4342  2.2623  0.2770
  182MOL0     H24516   4.612   8.712   0.833  1.5656 -0.0459 -2.4972
  182MOL0     H24517   4.427   8.599   0.956 -1.3467  1.9854  0.7566
  182MOL0     H24518   4.374   8.718   0.850  3.7446  1.2342  1.9920
  182MOL0     H24519   4.358   8.412   0.809 -1.7852 -1.3169  0.0259
  182MOL0     H24520   4.305   8.523   0.681 -1.5657 -3.8144  0.5123
  182MOL0     H24521   4.225   8.494   1.073 -2.9079 -2.5252  1.1944
  182MOL0     H24522   3.840   8.537   1.106  1.1362 -1.9466 -0.6269
  182MOL0     H24523   3.945   8.418   1.162  0.7869 -1.3209 -2.4465
  182MOL0     H24524   4.085   8.618   1.255 -0.5695 -3.1879  1.3160
  182MOL0     H24525   3.916   8.614   1.317  1.5968  0.2700  1.5433
  182MOL0     H24526   3.842   8.770   1.139  1.5364 -1.3000 -0.8965
  182MOL0     H24527   4.008   8.808   1.087  1.7618 -0.3461  1.0104
  182MOL0     H24528   3.932   8.987   1.233  1.0878  0.2466  1.3165
  182MOL0     H24529   4.072   8.906   1.300  0.1359  1.6896 -0.6093
  182MOL0     H24530   3.897   9.142   1.359 -1.2455  0.7906 -0.0090
  182MOL0     H24531   3.664   9.382   1.420  1.1081  1.9904 -1.5315
  182MOL0     H24532   3.773   9.410   1.558  0.4516  2.4447 -1.4919
  182MOL0     H24533   3.834   9.361   1.399  1.5359 -2.3020  2.3082
  182MOL0     H24534   3.170   9.263   1.602 -0.8294  0.7967 -3.0536
  182MOL0     H24535   3.031   9.453   1.652 -1.1783  0.0403  1.5398
  182MOL0     H24536   3.237   9.752   1.869  0.3648 -0.8564 -1.8334
  182MOL0     H24537   3.216   9.874   1.753  1.7127 -1.7510  0.8199
  182MOL0     H24538   2.984   9.782   1.932  0.6494 -0.8684 -3.4736
  182MOL0     H24539   3.094   9.923   1.971  0.3894 -1.3556  1.6571
  182MOL0     H24540   2.919   9.879   1.718  0.6884 -0.7225  1.2394
  182MOL0     H24541   3.009  10.020   1.770  0.8599  0.2847  1.3054
  182MOL0     H24542   2.767   9.922   1.912  0.0100 -0.7211  0.3268
  182MOL0     H24543   2.873  10.036   1.981  0.8899  0.8515 -0.4081
  182MOL0     H24544   2.750  10.081   1.697 -1.3970 -0.4694  1.5364
  182MOL0     H24545   2.859  10.191   1.783  0.1436  1.3951 -0.1140
  182MOL0     H24546   2.719  10.255   1.938  2.1796  2.2492 -3.8186
  182MOL0     H24547   2.626  10.256   1.793  3.6139  1.1865 -0.7688
  182MOL0     H24548   2.466  10.167   1.950  0.9022  0.5527  0.1869
  182MOL0     H24549   2.580  10.057   2.018  0.6689  1.5603  1.3478
  182MOL0     H24550   2.567   9.941   1.770 -1.3094 -1.0105  0.6691
  182MOL0     H24551   2.470  10.076   1.722  3.5297 -0.7680 -1.9630
  182MOL0     H24552   3.378   9.709   1.682 -1.2417 -0.3490 -0.1484
  182MOL0     H24553   3.515   9.521   1.659 -0.2237  1.2488 -0.1232
  182MOL0     H24554   3.568   8.967   1.696  1.1241 -2.1887 -0.1927
  182MOL0     H24555   3.694   8.820   1.568  0.5636  0.4561  0.9578
  182MOL0     H24556   5.195   8.497   0.328 -1.1966  0.7131 -0.1632
  182MOL0     H24557   5.385   8.489   0.184 -4.3550  1.4131 -1.7106
  182MOL0     H24558   5.730   8.586  -0.142 -1.5674  0.9146  0.3958
  182MOL0     H24559   5.956   8.639  -0.244 -0.5380 -2.1332  0.5543
  182MOL0     H24560   6.198   8.629  -0.263  1.8767  0.2782 -1.2151
  182MOL0     H24561   6.139   8.780  -0.312  1.7054  1.3556 -0.5464
  182MOL0     H24562   6.404   8.710  -0.169 -0.0229 -2.2554 -2.2528
  182MOL0     H24563   6.356   8.875  -0.212  4.6821 -0.3590  0.9838
  182MOL0     H24564   6.351   8.845  -0.429  2.8816  3.3384  2.3811
  182MOL0     H24565   6.369   8.664  -0.428  2.3372  0.0396  0.3413
  182MOL0     H24566   6.621   8.748  -0.330 -0.0021  0.8520  0.2854
  182MOL0     H24567   6.582   8.901  -0.392  2.5560 -0.9077  0.1609
  182MOL0     H24568   6.656   8.693  -0.746  3.7898  1.0477  0.5679
  182MOL0     H24569   6.082   8.795   0.132  1.1400 -0.3706 -1.8001
  182MOL0     H24570   5.859   8.766   0.218  0.1144  1.5144 -0.1109
  183MOL0     O24571   4.595   4.045   6.687 -0.3049  0.8752 -0.3928
  183MOL0     C24572   4.624   3.943   6.632  0.1481  0.2413  0.1948
  183MOL0     O24573   4.749   3.913   6.574  0.7616 -0.0260 -0.4126
  183MOL0     C24574   4.842   4.014   6.543  0.7678  0.5065 -0.3895
  183MOL0     C24575   4.967   3.960   6.563  0.3243 -0.7305  0.1412
  183MOL0     C24576   5.077   4.043   6.547 -0.0013  0.0111  0.5463
  183MOL0     C24577   5.060   4.173   6.496  0.9480 -0.3679  0.0744
  183MOL0     O24578   5.161   4.262   6.468 -0.0397  0.3515 -0.6980
  183MOL0     C24579   5.303   4.221   6.504  0.5570  0.6529  0.0047
  183MOL0     C24580   5.330   4.226   6.652 -0.0998  0.3469 -0.7630
  183MOL0     C24581   5.421   4.347   6.682  0.2339  0.1893 -0.2526
  183MOL0     C24582   5.565   4.300   6.650 -0.7281 -0.2407 -0.3550
  183MOL0     C24583   5.653   4.430   6.666 -0.4062  1.1356  0.5802
  183MOL0     C24584   5.797   4.372   6.722  0.2459  0.9496  0.7982
  183MOL0     C24585   5.889   4.490   6.772  0.4931  0.4392 -1.0094
  183MOL0     C24586   6.014   4.430   6.824 -1.0596  0.1791 -0.1239
  183MOL0     N24587   6.094   4.521   6.905  0.2168 -0.4926  0.3114
  183MOL0     C24588   6.038   4.572   7.019  0.3437 -1.2211  0.2767
  183MOL0     C24589   6.141   4.651   7.075  0.6472  1.0118 -0.3943
  183MOL0     C24590   6.131   4.739   7.197  1.1995 -0.0946 -0.2776
  183MOL0     C24591   6.078   4.664   7.320  0.1259 -1.1012 -0.7483
  183MOL0     C24592   5.933   4.689   7.344  0.1780 -0.4560  0.3272
  183MOL0     C24593   5.870   4.586   7.421  0.3359  0.2282 -0.5937
  183MOL0     O24594   5.730   4.589   7.381  0.5246 -0.2883  0.7419
  183MOL0     C24595   5.626   4.633   7.470  0.7476 -0.2889  0.7485
  183MOL0     C24596   5.634   4.659   7.603 -0.0255 -0.1525  0.1154
  183MOL0     C24597   5.519   4.677   7.680 -0.6352  0.7140  0.0836
  183MOL0     C24598   5.521   4.699   7.828 -0.0793 -0.0595 -0.8279
  183MOL0     C24599   5.397   4.692   7.617  0.7916  0.9461  0.5101
  183MOL0     C24600   5.276   4.710   7.697  0.1208  0.0641  0.0132
  183MOL0     O24601   5.236   4.617   7.786 -0.6222  0.3147  0.1392
  183MOL0     C24602   5.127   4.651   7.863 -0.5108  0.4532 -0.6139
  183MOL0     C24603   5.008   4.581   7.843  1.0038 -0.0174 -0.7923
  183MOL0     C24604   4.893   4.612   7.916  0.9733 -0.1667  0.4387
  183MOL0     C24605   4.899   4.716   8.008 -0.0381  0.3923 -0.4337
  183MOL0     O24606   4.785   4.762   8.083  0.3329 -1.2809  0.2902
  183MOL0     C24607   4.660   4.695   8.064 -0.4886 -0.6508  0.1523
  183MOL0     C24608   4.551   4.795   8.094  0.1008  0.2545 -0.1629
  183MOL0     C24609   4.555   4.817   8.242 -0.1164 -0.3765 -0.2024
  183MOL0     C24610   4.432   4.906   8.286  0.0989  0.2719 -0.4171
  183MOL0     C24611   4.432   4.896   8.445  0.2871  0.1459 -0.3087
  183MOL0     C24612   4.327   4.963   8.521  0.7941  0.2272  0.1672
  183MOL0     C24613   4.184   4.925   8.492  0.0165 -0.8885  0.8862
  183MOL0     C24614   4.097   5.052   8.515  1.2889  0.1606  0.1462
  183MOL0    Cl24615   3.920   5.021   8.491 -0.4136 -0.4045  0.2808
  183MOL0     C24616   5.017   4.795   8.016  0.6758  0.5037  0.2937
  183MOL0     C24617   5.129   4.761   7.949  0.2943  0.1351  0.4034
  183MOL0     O24618   5.218   4.812   7.661  1.4911 -0.6706 -0.1717
  183MOL0     C24619   5.384   4.687   7.476  0.4572  0.5395  0.0444
  183MOL0     C24620   5.501   4.657   7.405  0.5202  0.0119  0.2298
  183MOL0     N24621   6.249   4.636   6.993 -0.1671  0.3619  0.1244
  183MOL0     N24622   6.226   4.553   6.896 -0.1355  0.4979  0.1346
  183MOL0     C24623   4.928   4.223   6.473  0.2017 -0.0080 -0.0230
  183MOL0     C24624   4.818   4.145   6.501 -0.4595 -0.3151  0.6576
  183MOL0     C24625   4.533   3.831   6.647  1.2097  0.6309  0.6600
  183MOL0     C24626   4.554   3.701   6.593 -0.4629 -0.2404 -0.6577
  183MOL0     C24627   4.473   3.594   6.621 -0.6172 -0.7496  0.5945
  183MOL0     C24628   4.362   3.607   6.711  0.2250 -0.2527 -0.1434
  183MOL0     O24629   4.282   3.508   6.762 -0.4379  0.6748 -0.2461
  183MOL0     C24630   4.281   3.378   6.696 -0.3226  0.3310 -1.0410
  183MOL0     C24631   4.395   3.293   6.745 -0.5701  0.0108 -0.4228
  183MOL0     C24632   4.368   3.239   6.895 -0.7695 -0.1717  0.4751
  183MOL0     C24633   4.270   3.119   6.903  0.1965 -0.3459  0.2313
  183MOL0     C24634   4.313   3.020   6.804 -0.3939 -0.1043 -0.1764
  183MOL0     C24635   4.346   2.932   6.728  0.0284 -0.2659  0.0651
  183MOL0     C24636   4.346   3.726   6.769  0.6197 -0.3683 -0.6734
  183MOL0     C24637   4.424   3.834   6.737  1.3274  0.5637 -0.7589
  183MOL0     H24638   4.968   3.855   6.593  0.1410 -1.0719 -0.9817
  183MOL0     H24639   5.176   4.004   6.571 -0.9614 -1.3694  2.5963
  183MOL0     H24640   5.319   4.120   6.465 -2.2722 -0.0928  0.5498
  183MOL0     H24641   5.370   4.288   6.448 -1.2279  2.3126 -0.2378
  183MOL0     H24642   5.237   4.225   6.709  0.5853  1.3287  0.4320
  183MOL0     H24643   5.391   4.142   6.689  0.6961  1.0688 -0.4132
  183MOL0     H24644   5.391   4.432   6.620  0.6303 -0.4258 -1.3078
  183MOL0     H24645   5.417   4.374   6.788 -0.9662  1.7001 -0.6490
  183MOL0     H24646   5.589   4.228   6.728  0.3756  0.9314  0.4128
  183MOL0     H24647   5.577   4.254   6.551  3.3634 -1.5941  0.6108
  183MOL0     H24648   5.650   4.486   6.572 -2.2628  0.7308  0.3446
  183MOL0     H24649   5.615   4.492   6.748  3.2037  0.1904  3.1884
  183MOL0     H24650   5.777   4.295   6.797  0.8065  0.5618  0.5555
  183MOL0     H24651   5.848   4.331   6.635 -2.9739 -0.4273 -0.6140
  183MOL0     H24652   5.909   4.558   6.689 -1.1992  0.3801 -1.4962
  183MOL0     H24653   5.839   4.544   6.853  0.9236  3.0274 -2.3719
  183MOL0     H24654   6.071   4.388   6.741 -1.6225  0.8784 -0.8725
  183MOL0     H24655   5.996   4.347   6.893  1.6802 -1.1164 -0.8109
  183MOL0     H24656   5.944   4.560   7.072  0.0209  1.2933  0.3536
  183MOL0     H24657   6.229   4.785   7.209  1.3673  0.4364 -3.0378
  183MOL0     H24658   6.065   4.825   7.177 -2.1818 -2.3348  0.3557
  183MOL0     H24659   6.131   4.707   7.406  0.3098 -0.3757 -1.2131
  183MOL0     H24660   6.107   4.559   7.314  1.9758 -0.6199 -0.7801
  183MOL0     H24661   5.883   4.674   7.248 -0.9385  1.5147  0.5455
  183MOL0     H24662   5.906   4.787   7.385 -3.4640  0.1920 -3.0355
  183MOL0     H24663   5.884   4.624   7.523 -0.7897  3.9070 -1.6626
  183MOL0     H24664   5.914   4.487   7.407  0.7348 -0.0073  1.9009
  183MOL0     H24665   5.727   4.625   7.648  0.4165 -2.2177 -2.1206
  183MOL0     H24666   5.455   4.779   7.862  1.9986  0.1931  3.3367
  183MOL0     H24667   5.493   4.608   7.882  1.5555 -1.0572 -1.5703
  183MOL0     H24668   5.618   4.729   7.869 -1.5277 -0.5897  3.4697
  183MOL0     H24669   5.006   4.504   7.766 -2.9451  1.3853 -2.3340
  183MOL0     H24670   4.808   4.546   7.904  1.6440 -1.3588  1.9068
  183MOL0     H24671   4.646   4.674   7.957 -1.3370  0.8235 -0.0463
  183MOL0     H24672   4.660   4.604   8.125 -1.0206 -0.5993  0.2330
  183MOL0     H24673   4.553   4.892   8.043  0.7506 -0.9268 -2.4888
  183MOL0     H24674   4.454   4.747   8.078 -0.8396  2.3431 -1.1121
  183MOL0     H24675   4.648   4.865   8.276 -2.0194  1.5045  2.8016
  183MOL0     H24676   4.542   4.720   8.291 -0.8750  0.1364  0.6478
  183MOL0     H24677   4.461   5.008   8.260  0.4743  0.6090  1.2306
  183MOL0     H24678   4.347   4.873   8.226  0.5879 -0.0018 -0.9747
  183MOL0     H24679   4.525   4.938   8.483  0.6412  0.1001 -1.1080
  183MOL0     H24680   4.427   4.788   8.462 -0.3828  0.1328 -0.5501
  183MOL0     H24681   4.340   4.953   8.629  1.9488  2.1222  0.2428
  183MOL0     H24682   4.337   5.068   8.492  2.8556 -0.2325 -0.9459
  183MOL0     H24683   4.150   4.845   8.559 -0.6410 -0.7208  0.7597
  183MOL0     H24684   4.173   4.898   8.387 -0.3747  0.9282  0.4401
  183MOL0     H24685   4.139   5.113   8.434  1.4173 -1.7513 -1.3002
  183MOL0     H24686   4.123   5.098   8.611 -0.3039 -1.0037  1.1954
  183MOL0     H24687   5.017   4.870   8.096  1.3583 -2.1450  2.9514
  183MOL0     H24688   5.220   4.819   7.960  3.2209 -3.6316 -1.7784
  183MOL0     H24689   5.289   4.701   7.427  0.0558  1.4182  1.0309
  183MOL0     H24690   5.486   4.632   7.301 -1.6148 -1.0486  0.7325
  183MOL0     H24691   4.922   4.326   6.438 -0.0549  0.0267  0.1187
  183MOL0     H24692   4.713   4.167   6.484 -0.8263 -0.9889  1.9078
  183MOL0     H24693   4.634   3.697   6.520  1.4209 -2.3267  1.3626
  183MOL0     H24694   4.485   3.499   6.570  3.8089 -1.4228  2.4074
  183MOL0     H24695   4.188   3.326   6.721 -1.1611  2.4300  0.4362
  183MOL0     H24696   4.275   3.393   6.588  1.8459  0.3280 -1.1933
  183MOL0     H24697   4.474   3.368   6.749 -0.5730  0.0361 -0.8689
  183MOL0     H24698   4.423   3.218   6.670 -0.5012  1.4047 -1.8231
  183MOL0     H24699   4.321   3.318   6.954 -0.5354  0.9255 -0.7657
  183MOL0     H24700   4.465   3.222   6.943 -1.0698  1.6322  1.7795
  183MOL0     H24701   4.172   3.154   6.870  0.7029  1.7330  0.7958
  183MOL0     H24702   4.261   3.076   7.003 -0.1830  0.7074  0.6649
  183MOL0     H24703   4.386   2.858   6.661  0.2368 -0.5641  0.5172
  183MOL0     H24704   4.261   3.748   6.833  0.2636 -0.8601 -0.9726
  183MOL0     H24705   4.402   3.933   6.776 -2.9671  1.0401 -3.7485
  184MOL0     O24706   9.083   0.353   6.359 -0.5863  0.5557 -0.0692
  184MOL0     C24707   9.070   0.404   6.251 -0.5803  0.8555 -0.3296
  184MOL0     O24708   8.949   0.463   6.213 -0.2449  0.1060  0.6560
  184MOL0     C24709   8.830   0.474   6.289  0.5099 -0.0346 -0.2210
  184MOL0     C24710   8.724   0.526   6.223  0.3266  0.2347  0.5746
  184MOL0     C24711   8.623   0.590   6.298 -0.4460  0.0344  0.4064
  184MOL0     C24712   8.607   0.588   6.432 -0.2058  0.0215  0.6397
  184MOL0     O24713   8.498   0.642   6.482  0.0917 -0.5557  0.4354
  184MOL0     C24714   8.456   0.623   6.615 -0.1187 -0.4543 -0.3051
  184MOL0     C24715   8.530   0.719   6.705  0.1341  0.2707  0.5466
  184MOL0     C24716   8.442   0.831   6.770  1.2845  0.3407  0.6837
  184MOL0     C24717   8.380   0.924   6.658  0.1331 -0.5490 -0.4592
  184MOL0     C24718   8.289   1.034   6.713 -0.6181 -1.0221  0.4636
  184MOL0     C24719   8.155   0.976   6.765 -0.4038 -0.1180  0.9074
  184MOL0     C24720   8.064   1.083   6.840  0.3817 -0.0874  0.2030
  184MOL0     C24721   8.007   1.189   6.746 -0.5133  0.4521 -0.2298
  184MOL0     N24722   7.890   1.264   6.790 -1.1833  0.4193 -0.0368
  184MOL0     C24723   7.802   1.327   6.695  0.2243 -0.0839  0.5407
  184MOL0     C24724   7.701   1.376   6.772  0.1449 -0.0178 -0.8271
  184MOL0     C24725   7.599   1.483   6.726  0.4150 -0.2325  0.0890
  184MOL0     C24726   7.457   1.414   6.730  0.0439  0.0140  0.9690
  184MOL0     C24727   7.460   1.268   6.661  0.9230  0.0042 -0.2773
  184MOL0     C24728   7.315   1.202   6.640 -0.1311  0.2164 -0.2426
  184MOL0     O24729   7.340   1.068   6.594  0.0789  0.7468 -0.5370
  184MOL0     C24730   7.269   0.971   6.657  0.1378  0.6842 -0.7818
  184MOL0     C24731   7.349   0.863   6.697  0.5581  0.9883  1.1726
  184MOL0     C24732   7.298   0.752   6.764  0.2549 -0.2815  0.2095
  184MOL0     C24733   7.411   0.655   6.800  0.0857  0.1940 -0.1456
  184MOL0     C24734   7.153   0.758   6.794  0.7604  0.0886  0.0617
  184MOL0     C24735   7.090   0.654   6.870 -0.1462 -0.3377 -0.6928
  184MOL0     O24736   7.168   0.547   6.909  0.4593  0.5491  0.2356
  184MOL0     C24737   7.105   0.440   6.964  0.3349 -0.1116 -0.0620
  184MOL0     C24738   7.123   0.311   6.902 -0.6637 -0.1504 -0.5482
  184MOL0     C24739   7.054   0.200   6.956 -0.4207 -0.4563  0.2885
  184MOL0     C24740   6.970   0.224   7.061  1.2371 -0.4134 -0.7523
  184MOL0     O24741   6.893   0.123   7.115  0.4934 -0.7480 -0.5691
  184MOL0     C24742   6.851   0.019   7.026  1.0182  1.0018  1.0676
  184MOL0     C24743   6.742  -0.075   7.091 -0.7324  0.1039  0.1466
  184MOL0     C24744   6.614  -0.006   7.130 -0.2066 -0.2627 -0.2250
  184MOL0     C24745   6.640   0.107   7.233 -0.6978  0.4573 -0.4386
  184MOL0     C24746   6.516   0.134   7.308  0.5098  0.0060 -0.3130
  184MOL0     C24747   6.528   0.242   7.411 -0.1533 -0.5187 -0.8985
  184MOL0     C24748   6.406   0.237   7.504 -0.2283 -1.3432  0.0467
  184MOL0     C24749   6.403   0.351   7.603 -0.6583 -0.7643  0.1843
  184MOL0    Cl24750   6.377   0.511   7.524 -0.5234 -0.5957  0.1501
  184MOL0     C24751   6.959   0.345   7.121 -0.2638  0.4381 -0.3137
  184MOL0     C24752   7.021   0.455   7.077 -0.1317  0.0583  0.4113
  184MOL0     O24753   6.968   0.664   6.888 -0.2711  0.4972  0.0123
  184MOL0     C24754   7.077   0.864   6.746  0.6937 -0.2869  0.5158
  184MOL0     C24755   7.131   0.979   6.686  0.2933 -0.1726 -1.1494
  184MOL0     N24756   7.730   1.347   6.906 -0.8781  0.4768  0.4542
  184MOL0     N24757   7.837   1.274   6.914  0.7131 -1.1778 -0.5164
  184MOL0     C24758   8.710   0.524   6.504 -0.3598 -0.2170  1.3593
  184MOL0     C24759   8.821   0.463   6.433 -0.5575 -0.2846 -0.2992
  184MOL0     C24760   9.190   0.404   6.165 -0.2069 -0.2825  0.0965
  184MOL0     C24761   9.320   0.382   6.219  0.4478 -1.2547  0.2356
  184MOL0     C24762   9.430   0.382   6.132  1.0790 -0.0956 -0.8380
  184MOL0     C24763   9.415   0.382   5.991 -0.6118  0.2016 -0.5948
  184MOL0     O24764   9.510   0.349   5.891  0.7450 -0.4153 -0.6962
  184MOL0     C24765   9.641   0.296   5.932  0.6445 -0.2623 -0.0613
  184MOL0     C24766   9.741   0.306   5.817 -0.2834  0.1414  0.0270
  184MOL0     C24767   9.878   0.258   5.868 -0.4417 -0.0622 -0.1925
  184MOL0     C24768   9.987   0.279   5.758  0.3802 -1.0399 -0.4198
  184MOL0     C24769  10.111   0.253   5.836 -0.3456 -0.1444  0.0436
  184MOL0     C24770  10.218   0.229   5.887  0.8807 -0.5020  0.9406
  184MOL0     C24771   9.283   0.395   5.941 -1.0370 -0.1415 -0.1729
  184MOL0     C24772   9.175   0.420   6.029 -0.4855 -0.4723  0.3564
  184MOL0     H24773   8.725   0.520   6.114 -1.6043 -5.1690  0.5434
  184MOL0     H24774   8.542   0.649   6.257 -0.2621  1.0149  1.4273
  184MOL0     H24775   8.349   0.635   6.632 -0.4635 -2.5603 -0.6627
  184MOL0     H24776   8.486   0.521   6.640 -1.7206 -0.9325 -0.2199
  184MOL0     H24777   8.582   0.651   6.773 -2.4320  0.1943  2.5994
  184MOL0     H24778   8.601   0.781   6.650 -0.6780  1.0426  0.3485
  184MOL0     H24779   8.361   0.775   6.818  1.0089 -0.3188 -0.4981
  184MOL0     H24780   8.493   0.886   6.850  1.5715 -3.2613  3.2303
  184MOL0     H24781   8.463   0.970   6.603 -2.5507  1.1341 -3.4210
  184MOL0     H24782   8.320   0.870   6.584 -0.3424 -0.6241 -0.0160
  184MOL0     H24783   8.341   1.102   6.781 -1.4040  1.4973 -1.3225
  184MOL0     H24784   8.268   1.101   6.630  3.0436  1.7069  1.4450
  184MOL0     H24785   8.107   0.943   6.672  0.1023  2.5247 -0.4051
  184MOL0     H24786   8.172   0.894   6.835  1.7309 -0.7062 -0.2075
  184MOL0     H24787   7.995   1.015   6.890  1.1105  0.5275  2.1448
  184MOL0     H24788   8.110   1.137   6.923 -0.4807 -0.7215  1.1076
  184MOL0     H24789   7.989   1.129   6.656  2.0853  0.0778 -0.5790
  184MOL0     H24790   8.084   1.264   6.723 -0.3443 -0.0092 -1.2618
  184MOL0     H24791   7.819   1.351   6.591  0.2160 -0.6108  0.4128
  184MOL0     H24792   7.590   1.564   6.799 -0.7555  0.6689 -1.0363
  184MOL0     H24793   7.622   1.514   6.624  1.1671 -0.1664  0.2682
  184MOL0     H24794   7.389   1.484   6.681 -2.5274 -0.7337  3.2433
  184MOL0     H24795   7.405   1.398   6.825 -0.1756  1.7476  1.1753
  184MOL0     H24796   7.519   1.196   6.719  0.4313 -1.4990 -1.5758
  184MOL0     H24797   7.511   1.277   6.565 -0.6742 -1.7985 -1.3607
  184MOL0     H24798   7.264   1.269   6.571 -3.3575  1.6615  3.1908
  184MOL0     H24799   7.264   1.206   6.737 -0.1635 -1.6973 -0.1532
  184MOL0     H24800   7.453   0.877   6.671  0.6673 -0.2973  0.8314
  184MOL0     H24801   7.513   0.692   6.784  0.2779  0.4237  1.4748
  184MOL0     H24802   7.413   0.645   6.908 -1.4882 -0.2215 -0.1331
  184MOL0     H24803   7.397   0.559   6.749 -1.5539  0.8164 -0.9597
  184MOL0     H24804   7.189   0.294   6.817 -2.8320 -1.9571 -1.9829
  184MOL0     H24805   7.066   0.109   6.899  1.1470 -1.5048  2.1527
  184MOL0     H24806   6.806   0.058   6.935  4.6233  0.4001 -1.1842
  184MOL0     H24807   6.933  -0.046   6.993 -0.4997 -1.4923  1.9554
  184MOL0     H24808   6.721  -0.152   7.017 -4.0193 -0.8241  1.8561
  184MOL0     H24809   6.793  -0.116   7.179 -0.4857 -0.8429 -0.4329
  184MOL0     H24810   6.556  -0.089   7.172 -0.0737 -1.4763 -2.3185
  184MOL0     H24811   6.557   0.032   7.046 -1.1283 -2.5402 -0.7114
  184MOL0     H24812   6.721   0.081   7.301  0.1750 -2.3738 -2.3924
  184MOL0     H24813   6.668   0.194   7.173 -0.7998 -0.0437 -1.2346
  184MOL0     H24814   6.477   0.044   7.354  0.7471 -0.1633 -0.4361
  184MOL0     H24815   6.440   0.173   7.240 -0.0950 -0.7362 -0.0624
  184MOL0     H24816   6.614   0.218   7.474 -1.0698 -1.9851 -0.1509
  184MOL0     H24817   6.539   0.339   7.361  0.5689 -0.3494 -0.4175
  184MOL0     H24818   6.410   0.143   7.560  0.4643 -0.1295  2.1595
  184MOL0     H24819   6.318   0.223   7.441  1.8104 -3.1319 -2.6615
  184MOL0     H24820   6.496   0.359   7.658 -0.9230 -0.5383  0.6017
  184MOL0     H24821   6.322   0.323   7.671 -3.3642  2.0363 -1.6190
  184MOL0     H24822   6.887   0.352   7.201 -0.1224 -1.8427  0.0825
  184MOL0     H24823   7.002   0.543   7.138 -2.0002  0.5625 -0.8305
  184MOL0     H24824   6.969   0.866   6.750  0.5013  1.1195 -2.5553
  184MOL0     H24825   7.062   1.055   6.651 -0.0577 -0.2989 -0.7479
  184MOL0     H24826   8.695   0.501   6.609  1.0711 -1.0431  1.4146
  184MOL0     H24827   8.893   0.416   6.500 -0.7800  0.4333  0.4542
  184MOL0     H24828   9.342   0.380   6.325  2.8906  2.4521 -0.0198
  184MOL0     H24829   9.528   0.368   6.176  0.9615  3.1643  0.7361
  184MOL0     H24830   9.675   0.346   6.022 -1.2325  1.3264 -0.1604
  184MOL0     H24831   9.631   0.193   5.968  2.3631 -0.5346 -0.3106
  184MOL0     H24832   9.746   0.413   5.795  1.2677  0.0179 -0.3438
  184MOL0     H24833   9.702   0.246   5.735 -2.2729 -4.0700  3.6104
  184MOL0     H24834   9.866   0.161   5.917 -0.9129 -0.6634 -1.4579
  184MOL0     H24835   9.898   0.325   5.953 -2.2747 -0.0750  0.2901
  184MOL0     H24836   9.980   0.383   5.725 -2.5015 -1.2207 -0.6234
  184MOL0     H24837   9.975   0.212   5.672  0.1522 -3.1317  1.1463
  184MOL0     H24838  10.316   0.202   5.919  0.3263 -3.0502  0.7705
  184MOL0     H24839   9.259   0.369   5.839 -3.3501 -0.0294  0.2943
  184MOL0     H24840   9.075   0.422   5.986 -0.2192 -3.2035 -0.5966
  185MOL0     O24841   3.171   3.517  10.821 -0.3333 -0.4726  0.6169
  185MOL0     C24842   3.108   3.608  10.757 -0.2427  0.8249 -0.7993
  185MOL0     O24843   2.978   3.632  10.757 -0.4030  0.6329 -0.5376
  185MOL0     C24844   2.908   3.571  10.856  1.3511 -0.2394 -0.5227
  185MOL0     C24845   2.783   3.516  10.826  0.6314 -0.0400  0.2146
  185MOL0     C24846   2.694   3.466  10.930 -1.0431  0.1593 -0.3283
  185MOL0     C24847   2.731   3.493  11.062  0.3074  0.2667 -0.2930
  185MOL0     O24848   2.647   3.493  11.165  0.0732  1.0524  0.9265
  185MOL0     C24849   2.509   3.489  11.145  1.6485  0.4270  0.1142
  185MOL0     C24850   2.435   3.548  11.264  0.2222  0.4918  0.1939
  185MOL0     C24851   2.432   3.448  11.382  0.2937 -0.2424  0.2692
  185MOL0     C24852   2.399   3.510  11.520  0.4628  0.1121 -0.7436
  185MOL0     C24853   2.539   3.543  11.584  0.2807  0.3079 -0.2048
  185MOL0     C24854   2.529   3.596  11.731 -0.2631  0.8219  1.1240
  185MOL0     C24855   2.474   3.736  11.739  1.1457 -0.4228 -0.8013
  185MOL0     C24856   2.523   3.814  11.857  0.9247  0.1707  1.0561
  185MOL0     N24857   2.442   3.934  11.893 -0.4730  0.7778  0.2181
  185MOL0     C24858   2.399   3.969  12.019 -1.0284 -0.1401 -0.6425
  185MOL0     C24859   2.363   4.098  12.007  0.2242  0.3449 -0.0781
  185MOL0     C24860   2.325   4.178  12.129  0.5254 -0.4429  0.0858
  185MOL0     C24861   2.243   4.304  12.095 -0.0889  0.3718 -0.2532
  185MOL0     C24862   2.123   4.286  11.995  0.2129  0.4354 -0.0556
  185MOL0     C24863   1.985   4.251  12.061  0.0333  0.3803  0.1600
  185MOL0     O24864   1.983   4.128  12.130  0.0718  0.2860 -0.0211
  185MOL0     C24865   1.868   4.092  12.193 -0.7545  0.1570 -0.0272
  185MOL0     C24866   1.796   3.990  12.138  0.2629  0.7704  0.3811
  185MOL0     C24867   1.681   3.929  12.205  0.0624  0.6454  1.2081
  185MOL0     C24868   1.612   3.823  12.126 -0.4704  0.9603  0.0896
  185MOL0     C24869   1.650   3.983  12.330 -0.2367  0.7074 -0.4991
  185MOL0     C24870   1.520   3.940  12.405  0.6471 -1.0020 -0.3726
  185MOL0     O24871   1.410   3.901  12.332 -0.3576 -0.2231  1.0225
  185MOL0     C24872   1.307   3.823  12.381 -0.1383 -0.0279  0.4776
  185MOL0     C24873   1.277   3.698  12.321  0.6138  0.0688 -0.1348
  185MOL0     C24874   1.175   3.623  12.378  0.1161 -0.0088 -0.3319
  185MOL0     C24875   1.112   3.658  12.496 -0.4651 -1.0025 -0.1585
  185MOL0     O24876   1.017   3.574  12.539 -0.1306 -0.1720  1.2431
  185MOL0     C24877   0.947   3.585  12.662  0.8197 -0.9863 -0.0928
  185MOL0     C24878   0.852   3.464  12.658  0.2983  0.3954  0.3575
  185MOL0     C24879   0.745   3.466  12.771 -0.1846 -0.0825 -0.3571
  185MOL0     C24880   0.643   3.348  12.750  1.1234 -0.5593  0.4090
  185MOL0     C24881   0.533   3.334  12.852 -0.3428  0.9044 -0.0329
  185MOL0     C24882   0.411   3.236  12.806  1.0655  0.2441 -0.1408
  185MOL0     C24883   0.319   3.208  12.925 -0.3553  0.3927  0.0275
  185MOL0     C24884   0.169   3.173  12.892 -0.4335 -0.1162 -0.2920
  185MOL0    Cl24885   0.169   3.061  12.754 -0.2203 -0.0405 -0.0143
  185MOL0     C24886   1.139   3.785  12.550  0.2350 -0.9017 -0.0991
  185MOL0     C24887   1.226   3.869  12.481  0.8341  0.0490 -0.5712
  185MOL0     O24888   1.519   3.954  12.529 -0.1568 -0.3038 -0.2945
  185MOL0     C24889   1.714   4.099  12.377  0.4669  0.5945 -0.2573
  185MOL0     C24890   1.826   4.150  12.318 -0.1357  0.9874  0.6248
  185MOL0     N24891   2.379   4.138  11.877  0.0031  0.2468 -0.3000
  185MOL0     N24892   2.427   4.037  11.808  0.5255  0.3455 -0.1552
  185MOL0     C24893   2.850   3.551  11.096  0.2393  0.1961 -0.6134
  185MOL0     C24894   2.941   3.589  10.994 -0.8228  0.2491 -0.1455
  185MOL0     C24895   3.192   3.692  10.664  1.2956  0.9444  0.1620
  185MOL0     C24896   3.334   3.697  10.666 -0.0094 -0.2479 -0.0392
  185MOL0     C24897   3.395   3.792  10.592 -0.4554 -0.6579  0.7336
  185MOL0     C24898   3.329   3.885  10.511 -0.4996 -0.4366  0.6720
  185MOL0     O24899   3.386   4.002  10.456  0.2190  0.5044  0.5154
  185MOL0     C24900   3.524   4.045  10.476 -0.5728 -0.2506  0.0661
  185MOL0     C24901   3.614   3.961  10.382 -0.4763 -0.2161  0.5678
  185MOL0     C24902   3.713   3.863  10.445  0.3074 -0.4632  0.6104
  185MOL0     C24903   3.726   3.734  10.361  0.2409 -0.6914 -1.1782
  185MOL0     C24904   3.856   3.680  10.395  0.4546 -0.0114 -0.8284
  185MOL0     C24905   3.963   3.636  10.424  0.1254  0.7961 -0.8704
  185MOL0     C24906   3.193   3.869  10.495  0.4646 -0.5773 -0.0052
  185MOL0     C24907   3.124   3.776  10.573  0.7819  0.1758  1.1528
  185MOL0     H24908   2.742   3.516  10.725 -0.2068 -0.7355  0.5394
  185MOL0     H24909   2.597   3.425  10.904 -1.2436 -0.4436  1.2428
  185MOL0     H24910   2.480   3.542  11.054  3.8887  1.8502  0.1534
  185MOL0     H24911   2.471   3.390  11.120 -0.1216  0.7667  1.2826
  185MOL0     H24912   2.493   3.630  11.307  0.8919  0.4664 -0.6483
  185MOL0     H24913   2.333   3.580  11.240  0.1580  1.6202  1.8062
  185MOL0     H24914   2.358   3.368  11.374  2.0655 -2.0774  1.1602
  185MOL0     H24915   2.534   3.407  11.384  0.6808  0.7099  1.0827
  185MOL0     H24916   2.329   3.594  11.521  0.4404  0.1255  1.4573
  185MOL0     H24917   2.354   3.439  11.590 -1.9851 -0.5273 -2.8161
  185MOL0     H24918   2.597   3.450  11.591 -0.3264  0.0056  1.1560
  185MOL0     H24919   2.594   3.602  11.510  3.4327 -0.3744  1.4117
  185MOL0     H24920   2.464   3.525  11.782 -0.1435 -1.3887 -1.5686
  185MOL0     H24921   2.629   3.600  11.775 -0.5352  0.1885  1.8142
  185MOL0     H24922   2.497   3.784  11.644 -1.6099  0.6684 -1.0021
  185MOL0     H24923   2.365   3.732  11.748  1.2726 -1.3153  0.7367
  185MOL0     H24924   2.630   3.835  11.865  1.8351 -2.9207 -1.1583
  185MOL0     H24925   2.510   3.743  11.939  2.3379  0.1834  1.3083
  185MOL0     H24926   2.409   3.908  12.108 -0.6027 -0.0298 -0.6120
  185MOL0     H24927   2.275   4.118  12.206  2.0650 -0.5310  1.0624
  185MOL0     H24928   2.417   4.226  12.163 -0.4833  3.0344 -1.6705
  185MOL0     H24929   2.297   4.389  12.052 -0.0638 -0.2114 -1.4129
  185MOL0     H24930   2.213   4.351  12.189  0.3970 -0.6959  0.4650
  185MOL0     H24931   2.149   4.224  11.909  1.0823  0.2286  0.3400
  185MOL0     H24932   2.114   4.384  11.948  3.3097  1.7156  1.6901
  185MOL0     H24933   1.922   4.230  11.974 -2.3490  4.0495  0.7839
  185MOL0     H24934   1.955   4.345  12.109  1.7132  0.5824  0.8792
  185MOL0     H24935   1.817   3.946  12.041  1.1328 -0.0433  0.9185
  185MOL0     H24936   1.509   3.859  12.118 -0.5086  0.9038  0.3297
  185MOL0     H24937   1.655   3.818  12.025 -1.4817 -1.2540 -0.2861
  185MOL0     H24938   1.604   3.725  12.174 -1.5037  0.8738 -0.2399
  185MOL0     H24939   1.327   3.650  12.238  0.4021 -0.8555  0.2576
  185MOL0     H24940   1.154   3.523  12.342 -4.0772  0.0349  1.3756
  185MOL0     H24941   1.021   3.592  12.742 -0.1034  2.5216  0.6518
  185MOL0     H24942   0.891   3.679  12.654 -0.1337 -1.6229 -1.3637
  185MOL0     H24943   0.804   3.459  12.559 -2.1356 -0.1224  1.4937
  185MOL0     H24944   0.904   3.368  12.650 -4.8364 -2.6432 -4.5369
  185MOL0     H24945   0.682   3.555  12.761  0.3918  0.5547  1.4195
  185MOL0     H24946   0.796   3.469  12.867  1.6561  1.0677 -1.3041
  185MOL0     H24947   0.593   3.378  12.657 -0.6011 -0.2281  1.3965
  185MOL0     H24948   0.704   3.258  12.738 -0.7086 -1.8455  0.4230
  185MOL0     H24949   0.479   3.428  12.870 -2.4515 -0.0366 -1.1443
  185MOL0     H24950   0.577   3.305  12.948 -0.8699  1.0252  0.2488
  185MOL0     H24951   0.354   3.284  12.726  1.0264  0.7663  0.1966
  185MOL0     H24952   0.449   3.139  12.773  0.4965 -0.7053  1.8180
  185MOL0     H24953   0.316   3.304  12.976 -5.0232  0.7177 -0.4396
  185MOL0     H24954   0.364   3.127  12.984 -2.3697 -0.8022  0.0014
  185MOL0     H24955   0.118   3.267  12.870  0.8539  0.9022  0.9192
  185MOL0     H24956   0.114   3.132  12.978 -2.1045  0.7113 -0.9242
  185MOL0     H24957   1.086   3.840  12.628 -2.6933 -0.0885 -2.4646
  185MOL0     H24958   1.234   3.973  12.513  2.4973 -0.5401  1.0872
  185MOL0     H24959   1.662   4.144  12.461 -0.6395  0.0051 -0.5957
  185MOL0     H24960   1.874   4.242  12.351 -0.8062  0.8801  1.9775
  185MOL0     H24961   2.868   3.566  11.202 -1.8041  1.9592 -0.4509
  185MOL0     H24962   3.031   3.645  11.013  0.0626 -1.3236  0.4502
  185MOL0     H24963   3.384   3.634  10.738 -0.0510 -2.0776 -1.5407
  185MOL0     H24964   3.501   3.805  10.611 -0.7784  1.8633  1.1471
  185MOL0     H24965   3.538   4.147  10.438 -3.2046  1.5103  3.3076
  185MOL0     H24966   3.546   4.047  10.583 -3.4397 -5.1626  1.0280
  185MOL0     H24967   3.678   4.034  10.332 -1.0026  1.1596  1.8434
  185MOL0     H24968   3.549   3.934  10.299 -0.0807  0.0914  0.1523
  185MOL0     H24969   3.696   3.848  10.552 -1.3772 -0.1651  0.4110
  185MOL0     H24970   3.806   3.921  10.446  0.2805 -0.3913 -0.3413
  185MOL0     H24971   3.745   3.759  10.256  4.3502  1.7017 -0.0918
  185MOL0     H24972   3.642   3.666  10.378 -0.0581  0.2973  1.9585
  185MOL0     H24973   4.058   3.588  10.432 -1.8254 -3.5765 -1.4457
  185MOL0     H24974   3.129   3.921  10.424  0.7929  2.1742  1.5577
  185MOL0     H24975   3.017   3.768  10.556  0.2928  3.0666  2.3278
  186MOL0     O24976   7.702   3.631   2.781 -0.1451 -0.6317 -0.4231
  186MOL0     C24977   7.766   3.540   2.725  0.3262 -0.3343 -1.0017
  186MOL0     O24978   7.717   3.446   2.638  0.3108 -0.3201  0.3598
  186MOL0     C24979   7.585   3.441   2.613  0.4286  0.0506 -0.1566
  186MOL0     C24980   7.493   3.413   2.715  0.0848 -0.5623 -0.0603
  186MOL0     C24981   7.358   3.398   2.692 -0.0128  0.0109  0.4495
  186MOL0     C24982   7.309   3.409   2.558 -0.0300  0.4285  0.4763
  186MOL0     O24983   7.170   3.378   2.546 -0.4548  0.0347 -0.1427
  186MOL0     C24984   7.125   3.404   2.404  0.7676  0.5150  0.6973
  186MOL0     C24985   6.978   3.375   2.385 -0.3216 -0.2393  1.0983
  186MOL0     C24986   6.914   3.402   2.241 -0.5980 -0.5823 -0.4890
  186MOL0     C24987   6.761   3.399   2.238 -0.0289  0.4723  0.7707
  186MOL0     C24988   6.709   3.442   2.101 -0.1942 -0.9509 -0.4784
  186MOL0     C24989   6.587   3.366   2.059  1.0836 -0.1369 -0.5667
  186MOL0     C24990   6.512   3.442   1.942 -0.8394 -0.0733  0.0163
  186MOL0     C24991   6.533   3.381   1.803 -0.9347 -0.7831  0.3297
  186MOL0     N24992   6.646   3.444   1.729 -0.4699 -0.3761  0.2135
  186MOL0     C24993   6.650   3.566   1.664  0.0008 -0.6779 -0.9850
  186MOL0     C24994   6.774   3.563   1.601 -0.1429 -0.3849  1.1152
  186MOL0     C24995   6.844   3.672   1.517  0.2382 -0.1482 -0.3508
  186MOL0     C24996   6.866   3.621   1.370  0.1621 -0.2117 -0.2662
  186MOL0     C24997   6.890   3.735   1.278 -0.3665 -0.2951 -0.0729
  186MOL0     C24998   6.944   3.679   1.149  0.5259  0.8050 -0.2674
  186MOL0     O24999   6.969   3.784   1.056  0.3622  0.1159  0.1996
  186MOL0     C25000   7.012   3.746   0.931  0.1954  0.5094  0.1382
  186MOL0     C25001   7.025   3.613   0.886  0.2221 -0.0701  0.5161
  186MOL0     C25002   7.071   3.573   0.766  0.1484 -0.3396 -0.0352
  186MOL0     C25003   7.110   3.431   0.742  0.2843  0.5411 -0.5073
  186MOL0     C25004   7.082   3.673   0.662 -0.0123 -0.1105  0.5452
  186MOL0     C25005   7.096   3.635   0.515  0.2436  0.1101  0.4938
  186MOL0     O25006   7.152   3.733   0.438  0.2575 -0.0695  0.4170
  186MOL0     C25007   7.178   3.726   0.311 -0.4029  0.4195  1.2526
  186MOL0     C25008   7.124   3.819   0.218 -0.1597  0.3535  0.3823
  186MOL0     C25009   7.155   3.800   0.086 -0.7846 -0.1951 -0.1826
  186MOL0     C25010   7.251   3.702   0.043  0.1031 -0.1006 -0.1190
  186MOL0     O25011   7.281   3.673  -0.089  0.0530  0.3931 -0.4052
  186MOL0     C25012   7.312   3.793  -0.163  0.1478  0.2136 -0.0804
  186MOL0     C25013   7.361   3.748  -0.302  0.5706 -0.1780  0.3461
  186MOL0     C25014   7.503   3.695  -0.304  0.4989  0.9154 -0.1500
  186MOL0     C25015   7.534   3.655  -0.443 -0.3780 -0.2401  0.7280
  186MOL0     C25016   7.683   3.619  -0.465  0.2035 -0.7893  0.3695
  186MOL0     C25017   7.702   3.561  -0.605 -0.2751 -0.2558 -0.0194
  186MOL0     C25018   7.787   3.648  -0.686  0.0284  0.3516  0.0659
  186MOL0     C25019   7.850   3.591  -0.813  0.8383 -0.0768  0.7327
  186MOL0    Cl25020   7.768   3.446  -0.878  0.5009 -0.4001 -0.2372
  186MOL0     C25021   7.313   3.626   0.139 -0.6877  0.1701  0.4799
  186MOL0     C25022   7.277   3.630   0.268  0.1953  0.0468  0.2814
  186MOL0     O25023   7.038   3.539   0.467 -0.6891 -0.4134  0.0451
  186MOL0     C25024   7.084   3.809   0.702  0.3087 -0.5024  0.3249
  186MOL0     C25025   7.048   3.840   0.836 -0.9377 -0.5900  0.2782
  186MOL0     N25026   6.827   3.442   1.623  0.2377  0.2149  0.2066
  186MOL0     N25027   6.753   3.365   1.700 -0.1859 -0.4345  0.4380
  186MOL0     C25028   7.400   3.445   2.451 -0.1745  0.6926 -0.0958
  186MOL0     C25029   7.543   3.463   2.484 -0.1370 -0.0275 -0.4100
  186MOL0     C25030   7.908   3.541   2.742 -1.3734 -0.0892 -0.0401
  186MOL0     C25031   7.959   3.588   2.867 -0.1547 -0.7839 -0.3331
  186MOL0     C25032   8.096   3.576   2.899  0.2874  0.3222  0.6274
  186MOL0     C25033   8.184   3.523   2.815 -0.8939  0.3098  0.1470
  186MOL0     O25034   8.321   3.507   2.825  0.8687 -0.1094  0.0773
  186MOL0     C25035   8.405   3.584   2.917  0.7363  0.3068  0.9442
  186MOL0     C25036   8.408   3.519   3.059 -0.4512  0.0509  0.8641
  186MOL0     C25037   8.498   3.394   3.050 -0.2949 -0.0762 -0.2400
  186MOL0     C25038   8.472   3.289   3.160 -0.4743 -0.2215  0.3937
  186MOL0     C25039   8.581   3.200   3.147 -0.1911 -0.9235 -0.2934
  186MOL0     C25040   8.675   3.125   3.115  0.4281  0.3396  0.0871
  186MOL0     C25041   8.135   3.479   2.689 -0.1751  0.2372  0.3457
  186MOL0     C25042   7.999   3.485   2.653 -0.6393 -0.8486 -0.0232
  186MOL0     H25043   7.522   3.388   2.817 -1.6944  0.1696  0.6640
  186MOL0     H25044   7.284   3.366   2.765 -0.0789  0.3927  0.5521
  186MOL0     H25045   7.150   3.502   2.364  3.1768 -1.0970 -2.2038
  186MOL0     H25046   7.180   3.338   2.335 -0.0082  2.0761 -1.5337
  186MOL0     H25047   6.961   3.267   2.396 -1.5570 -0.6190 -2.9486
  186MOL0     H25048   6.920   3.434   2.456 -1.3146 -1.1556  1.0758
  186MOL0     H25049   6.952   3.501   2.214  0.2272 -0.3724  1.2723
  186MOL0     H25050   6.945   3.322   2.173 -0.2478 -2.1337  1.4117
  186MOL0     H25051   6.727   3.296   2.255 -2.4801  1.3654  1.7400
  186MOL0     H25052   6.714   3.461   2.315  1.4110 -0.5687  2.5649
  186MOL0     H25053   6.698   3.551   2.098  2.5005 -0.6042 -0.2617
  186MOL0     H25054   6.792   3.433   2.030  0.7181  2.4325  0.0152
  186MOL0     H25055   6.615   3.265   2.027 -2.9449 -1.2559 -1.2341
  186MOL0     H25056   6.507   3.367   2.133  1.6136  0.1945  0.0064
  186MOL0     H25057   6.404   3.434   1.952 -0.9173 -1.0067 -1.3024
  186MOL0     H25058   6.528   3.550   1.937 -0.8510 -0.0470  0.4895
  186MOL0     H25059   6.448   3.399   1.737  0.3008 -2.0940 -1.7343
  186MOL0     H25060   6.546   3.273   1.805  1.2595 -0.9838 -5.5077
  186MOL0     H25061   6.573   3.643   1.665  1.2976  0.7186  1.3436
  186MOL0     H25062   6.780   3.760   1.518  0.8824  0.5197 -4.1554
  186MOL0     H25063   6.930   3.707   1.575 -0.2987 -0.7811  0.8815
  186MOL0     H25064   6.782   3.568   1.326 -2.2770  0.7328  2.8870
  186MOL0     H25065   6.950   3.551   1.360  0.3886  0.2634 -1.9022
  186MOL0     H25066   6.956   3.813   1.319  0.4186  0.2024 -2.1470
  186MOL0     H25067   6.798   3.787   1.249  0.6576  2.1414  0.7408
  186MOL0     H25068   6.867   3.611   1.112  0.9241  1.1244 -1.7824
  186MOL0     H25069   7.039   3.625   1.162 -0.2527 -0.0957  2.0349
  186MOL0     H25070   7.018   3.533   0.959  0.3862 -2.2699 -1.7526
  186MOL0     H25071   7.162   3.380   0.823 -1.5202 -0.8562 -0.1650
  186MOL0     H25072   7.022   3.368   0.728  1.2700 -1.2746  0.9501
  186MOL0     H25073   7.173   3.416   0.653 -0.5433 -1.5424 -0.8207
  186MOL0     H25074   7.062   3.903   0.245  1.0968  1.7278 -0.7947
  186MOL0     H25075   7.086   3.851   0.020  0.8417  2.7281  0.2368
  186MOL0     H25076   7.226   3.859  -0.180 -1.6563 -2.5345 -2.7261
  186MOL0     H25077   7.396   3.850  -0.123 -0.0203  1.3836 -1.3245
  186MOL0     H25078   7.297   3.668  -0.342  0.8896 -0.2697  0.0106
  186MOL0     H25079   7.351   3.836  -0.367 -1.5168 -1.2003 -0.8455
  186MOL0     H25080   7.509   3.610  -0.236  1.8271  1.6581  0.7204
  186MOL0     H25081   7.572   3.770  -0.264  2.1063 -1.3011  1.5060
  186MOL0     H25082   7.478   3.563  -0.462 -0.4069  0.3103 -2.2248
  186MOL0     H25083   7.505   3.729  -0.518  1.3238 -1.8739 -1.6670
  186MOL0     H25084   7.709   3.550  -0.383 -0.3087 -1.0045  0.3550
  186MOL0     H25085   7.742   3.710  -0.450 -2.5002  1.0627  0.5169
  186MOL0     H25086   7.737   3.458  -0.596 -3.4111 -1.5209 -1.0475
  186MOL0     H25087   7.606   3.545  -0.655  0.9556  1.4680 -3.2689
  186MOL0     H25088   7.864   3.702  -0.629  0.3431  0.5007 -0.4947
  186MOL0     H25089   7.727   3.727  -0.732  2.7452  1.7981 -1.2560
  186MOL0     H25090   7.959   3.582  -0.801  0.8154  0.7102  1.6141
  186MOL0     H25091   7.847   3.656  -0.900 -2.0356 -1.7236 -0.5400
  186MOL0     H25092   7.379   3.545   0.109  1.1728  0.9041  2.3385
  186MOL0     H25093   7.312   3.566   0.348 -1.5441  1.3852  2.2102
  186MOL0     H25094   7.100   3.882   0.623 -1.3205 -1.8705 -1.3658
  186MOL0     H25095   7.026   3.939   0.875  1.1354  0.7672 -1.7468
  186MOL0     H25096   7.390   3.455   2.343  3.0312  0.4911 -0.4898
  186MOL0     H25097   7.616   3.483   2.406 -1.7639  2.0828 -1.4757
  186MOL0     H25098   7.900   3.635   2.945  1.7072 -0.5639  1.0189
  186MOL0     H25099   8.132   3.612   2.995  2.0575  3.7633 -1.1563
  186MOL0     H25100   8.506   3.582   2.876  0.6234  1.1258  0.6130
  186MOL0     H25101   8.373   3.688   2.922 -0.4029 -0.0002  0.4673
  186MOL0     H25102   8.305   3.506   3.094 -1.2311  1.4619 -0.7948
  186MOL0     H25103   8.453   3.594   3.125  2.1097  1.0201 -1.7568
  186MOL0     H25104   8.604   3.420   3.050 -0.3657  0.2165 -0.1983
  186MOL0     H25105   8.487   3.348   2.951  1.5337 -0.3290 -0.3686
  186MOL0     H25106   8.369   3.258   3.136 -0.2120 -1.1270  0.4196
  186MOL0     H25107   8.467   3.341   3.256 -4.7878  1.1678 -0.3159
  186MOL0     H25108   8.758   3.062   3.085  1.7741  2.3539 -0.6431
  186MOL0     H25109   8.200   3.432   2.616 -2.8506 -0.4783 -1.7521
  186MOL0     H25110   7.959   3.450   2.559 -0.3221  0.2950 -0.5956
  187MOL0     O25111   6.729   3.886   8.760  0.2267  0.0347 -0.5590
  187MOL0     C25112   6.720   3.761   8.743  0.9873  0.1976 -0.5454
  187MOL0     O25113   6.603   3.697   8.729  0.2087 -0.0771  0.7717
  187MOL0     C25114   6.495   3.782   8.740  0.0173 -0.2307 -0.1838
  187MOL0     C25115   6.459   3.849   8.856  0.4537 -0.5383 -0.4115
  187MOL0     C25116   6.328   3.905   8.874  0.3865 -0.0566  0.0758
  187MOL0     C25117   6.243   3.914   8.767  0.5159 -0.0282  0.1227
  187MOL0     O25118   6.130   3.982   8.774  0.5194  0.3916  0.3446
  187MOL0     C25119   6.018   3.902   8.799 -0.6425 -0.4814  0.8011
  187MOL0     C25120   5.903   3.991   8.828  0.5817 -0.2980 -0.7572
  187MOL0     C25121   5.783   3.909   8.888  0.1264 -0.0391  0.2191
  187MOL0     C25122   5.659   3.996   8.931 -0.5690  1.1795  0.0296
  187MOL0     C25123   5.543   3.911   8.976  0.4394 -0.4933  0.1539
  187MOL0     C25124   5.438   3.978   9.082 -1.3655 -0.0774  0.6227
  187MOL0     C25125   5.480   3.934   9.217  0.4005 -0.1006  0.0967
  187MOL0     C25126   5.407   4.014   9.324 -0.5801 -0.1554  0.5803
  187MOL0     N25127   5.406   3.924   9.444 -0.4448  0.1955  0.2032
  187MOL0     C25128   5.517   3.867   9.495 -0.5329 -0.9315  0.4101
  187MOL0     C25129   5.480   3.777   9.584  0.3182 -0.6769 -0.9874
  187MOL0     C25130   5.545   3.699   9.693 -0.4720  0.2077  0.4303
  187MOL0     C25131   5.692   3.678   9.682 -0.4090 -1.1089  0.2180
  187MOL0     C25132   5.770   3.809   9.737 -0.8643 -0.2378 -0.7799
  187MOL0     C25133   5.923   3.796   9.705 -0.8961 -0.6194  0.5772
  187MOL0     O25134   5.986   3.686   9.779 -0.3287  0.5769 -0.2898
  187MOL0     C25135   6.122   3.696   9.779  0.0147 -1.0315  0.1950
  187MOL0     C25136   6.189   3.667   9.899 -0.4710 -0.1188  0.0817
  187MOL0     C25137   6.330   3.673   9.912  0.2845 -0.1010 -0.5135
  187MOL0     C25138   6.388   3.654  10.058  0.5145 -0.2564 -0.5359
  187MOL0     C25139   6.413   3.703   9.799  0.4282 -0.2937  0.4375
  187MOL0     C25140   6.573   3.715   9.806  0.0631  0.6944 -0.7272
  187MOL0     O25141   6.626   3.776   9.688 -0.4224  0.0054  0.2900
  187MOL0     C25142   6.762   3.804   9.687 -0.1495 -0.8665  0.3876
  187MOL0     C25143   6.802   3.940   9.657  0.4271 -0.1952  1.4346
  187MOL0     C25144   6.937   3.980   9.680  0.0067  0.9631 -0.5222
  187MOL0     C25145   7.039   3.878   9.722  0.5034 -0.4598  0.1153
  187MOL0     O25146   7.171   3.905   9.742 -0.0333  0.3582 -0.6330
  187MOL0     C25147   7.189   3.912   9.884 -0.4247 -0.2883  0.2515
  187MOL0     C25148   7.195   4.062   9.929  0.7010  0.1570 -0.0015
  187MOL0     C25149   7.276   4.147   9.832 -0.1893  0.6385 -0.1531
  187MOL0     C25150   7.415   4.097   9.809  1.1023 -0.1472 -0.0434
  187MOL0     C25151   7.482   4.185   9.700  1.0308 -0.0802  0.5095
  187MOL0     C25152   7.627   4.135   9.678  0.9260 -0.8709  0.0059
  187MOL0     C25153   7.713   4.233   9.590 -0.6526  0.2388  0.3645
  187MOL0     C25154   7.693   4.390   9.601  0.0487 -0.3309  0.3485
  187MOL0    Cl25155   7.742   4.453   9.768 -0.0440  0.0654  0.2160
  187MOL0     C25156   7.003   3.747   9.727 -0.5531  0.1385 -0.8921
  187MOL0     C25157   6.865   3.712   9.709 -0.2961 -0.7013  1.1507
  187MOL0     O25158   6.632   3.694   9.908  0.1859 -0.6477 -0.6990
  187MOL0     C25159   6.338   3.728   9.675  0.1533  0.4859  0.5854
  187MOL0     C25160   6.203   3.733   9.671 -0.7747 -0.3323  0.0831
  187MOL0     N25161   5.344   3.771   9.583  0.3703 -0.2699 -0.6041
  187MOL0     N25162   5.300   3.865   9.511  0.1998  0.1465  0.1437
  187MOL0     C25163   6.289   3.857   8.652  0.3061  0.2488  0.2796
  187MOL0     C25164   6.407   3.795   8.629  0.6982  0.0444 -0.0541
  187MOL0     C25165   6.838   3.684   8.741  0.5393  0.8423  0.2304
  187MOL0     C25166   6.834   3.543   8.709  0.0995 -0.1169 -0.9602
  187MOL0     C25167   6.946   3.472   8.742 -0.3644 -0.7986 -0.3952
  187MOL0     C25168   7.063   3.528   8.795  0.4414 -0.2647 -0.0752
  187MOL0     O25169   7.171   3.460   8.836  0.0699 -0.3194 -0.5127
  187MOL0     C25170   7.211   3.468   8.982  0.9389  0.0192  0.9445
  187MOL0     C25171   7.348   3.426   9.012  0.5918 -0.4723 -0.5434
  187MOL0     C25172   7.436   3.549   8.981  0.5565 -0.0594  0.4566
  187MOL0     C25173   7.588   3.500   8.997 -0.5177 -0.5260  0.0721
  187MOL0     C25174   7.615   3.473   9.137  0.7418  0.2565  0.1444
  187MOL0     C25175   7.636   3.445   9.252 -0.1584 -0.2978 -0.0603
  187MOL0     C25176   7.065   3.662   8.806  0.7634 -0.9299  0.1836
  187MOL0     C25177   6.952   3.738   8.794 -0.2646  0.4344  0.8699
  187MOL0     H25178   6.531   3.866   8.935 -1.0005 -1.0391  1.0794
  187MOL0     H25179   6.299   3.941   8.972  0.0290  1.7942 -0.6577
  187MOL0     H25180   5.985   3.845   8.712  1.5747  2.1522 -1.9634
  187MOL0     H25181   6.032   3.828   8.879  2.4147 -0.8646  0.0245
  187MOL0     H25182   5.929   4.068   8.900 -0.0609  0.0773 -0.9192
  187MOL0     H25183   5.877   4.054   8.742 -0.5442  2.0266  1.1762
  187MOL0     H25184   5.753   3.833   8.814  1.5348 -1.9350  1.4972
  187MOL0     H25185   5.819   3.862   8.980 -0.6923  3.0055  2.2291
  187MOL0     H25186   5.699   4.048   9.019 -0.5074 -0.1564  0.8173
  187MOL0     H25187   5.622   4.056   8.847 -1.7474 -0.2644 -0.5232
  187MOL0     H25188   5.488   3.877   8.888 -2.0153  2.3562  0.4421
  187MOL0     H25189   5.589   3.818   9.013 -2.9223 -3.1955 -1.8766
  187MOL0     H25190   5.445   4.087   9.073 -6.1701  0.4702  0.7387
  187MOL0     H25191   5.334   3.952   9.058 -2.1334  2.0617  1.3727
  187MOL0     H25192   5.464   3.826   9.229  0.8616 -0.1481  0.2841
  187MOL0     H25193   5.588   3.949   9.218  0.7153 -1.4779 -2.9122
  187MOL0     H25194   5.304   4.047   9.309  0.2869  3.5685  1.8258
  187MOL0     H25195   5.470   4.102   9.336 -1.2132  0.3185  0.4568
  187MOL0     H25196   5.612   3.895   9.450 -2.3326 -0.6810 -3.6647
  187MOL0     H25197   5.526   3.735   9.795  1.1956  1.3177  0.3814
  187MOL0     H25198   5.490   3.604   9.688  0.9662 -0.5739 -2.3884
  187MOL0     H25199   5.716   3.663   9.576 -1.3861  2.4920 -0.6327
  187MOL0     H25200   5.717   3.590   9.742 -3.1266 -1.7911  0.5030
  187MOL0     H25201   5.765   3.827   9.845  0.6821  0.7317 -0.8351
  187MOL0     H25202   5.729   3.895   9.683  0.5428  0.8004 -0.2628
  187MOL0     H25203   5.976   3.883   9.745 -0.4497 -0.7505  0.2767
  187MOL0     H25204   5.940   3.796   9.597 -1.5844 -2.0746  0.4498
  187MOL0     H25205   6.131   3.654   9.990 -0.1118 -0.5709  0.2535
  187MOL0     H25206   6.461   3.572  10.063 -2.1719 -2.8261  4.9501
  187MOL0     H25207   6.445   3.741  10.091 -0.2298  0.9615 -2.3036
  187MOL0     H25208   6.302   3.639  10.124 -0.1447  2.0879 -0.7485
  187MOL0     H25209   6.738   4.021   9.625  2.7434  0.6264 -1.5561
  187MOL0     H25210   6.972   4.082   9.665  1.6370  0.1223 -3.2106
  187MOL0     H25211   7.129   3.839   9.938 -2.7346  0.0158 -1.7185
  187MOL0     H25212   7.290   3.880   9.910  0.4320 -0.8015 -3.1580
  187MOL0     H25213   7.091   4.095   9.922  1.0247  1.4835  1.1850
  187MOL0     H25214   7.235   4.073  10.030  2.5005 -4.4869  0.0616
  187MOL0     H25215   7.286   4.251   9.863  0.6041  0.4745  0.1551
  187MOL0     H25216   7.226   4.150   9.735  0.2649 -0.7423 -0.4580
  187MOL0     H25217   7.476   4.101   9.899 -2.7710  0.4426  2.7688
  187MOL0     H25218   7.417   3.992   9.777  2.4498 -0.7052  1.6959
  187MOL0     H25219   7.479   4.287   9.741 -2.3934 -0.3920  1.3442
  187MOL0     H25220   7.412   4.175   9.617 -0.0017 -1.3554  1.4838
  187MOL0     H25221   7.676   4.131   9.776 -1.7170  2.0488  1.5893
  187MOL0     H25222   7.628   4.030   9.647  0.6857 -1.2666  1.2781
  187MOL0     H25223   7.710   4.199   9.486  1.8254 -0.8804  0.5896
  187MOL0     H25224   7.819   4.221   9.615 -0.5129 -1.8585 -0.9629
  187MOL0     H25225   7.590   4.416   9.578 -0.4626 -2.7066 -0.3431
  187MOL0     H25226   7.762   4.432   9.527 -2.1263 -2.0283 -2.8734
  187MOL0     H25227   7.065   3.662   9.756 -2.7614 -0.7343  1.6374
  187MOL0     H25228   6.831   3.610   9.720 -0.8815 -0.5808  0.5383
  187MOL0     H25229   6.386   3.778   9.591 -1.1624 -0.3563 -0.7184
  187MOL0     H25230   6.156   3.764   9.578 -2.0984  0.9225  1.1227
  187MOL0     H25231   6.229   3.856   8.561 -1.5953 -3.0723  1.4254
  187MOL0     H25232   6.417   3.736   8.539 -3.3624 -3.4835  1.4786
  187MOL0     H25233   6.739   3.496   8.686 -2.0355  2.5898  1.5539
  187MOL0     H25234   6.953   3.364   8.732  0.2427 -0.7806 -0.1692
  187MOL0     H25235   7.189   3.569   9.017  0.2234  0.5382 -0.9199
  187MOL0     H25236   7.149   3.398   9.040  0.0162 -0.9557 -1.1345
  187MOL0     H25237   7.373   3.341   8.947 -0.4703 -1.2990  0.0872
  187MOL0     H25238   7.365   3.398   9.116  2.9199 -1.8717 -1.2293
  187MOL0     H25239   7.407   3.636   9.040 -1.0790 -1.8393  2.4041
  187MOL0     H25240   7.429   3.577   8.875 -0.0595  4.5594  1.4937
  187MOL0     H25241   7.655   3.580   8.966 -2.8889  0.9431 -1.5336
  187MOL0     H25242   7.607   3.408   8.940 -0.2985  0.5740 -1.6991
  187MOL0     H25243   7.643   3.426   9.357 -3.9022 -0.2203  0.3269
  187MOL0     H25244   7.158   3.703   8.843 -0.4371  3.5483 -1.1006
  187MOL0     H25245   6.956   3.840   8.831 -1.4131  1.2614 -1.1309
  188MOL0     O25246   2.887   8.181   1.725 -0.3676  0.2946  0.0584
  188MOL0     C25247   2.887   8.132   1.837 -0.7807  0.2064 -0.4913
  188MOL0     O25248   2.973   8.161   1.944  0.1739  0.0109 -1.1502
  188MOL0     C25249   3.087   8.227   1.923 -0.0062  1.8492  0.6781
  188MOL0     C25250   3.085   8.361   1.875  0.3625 -0.2778  0.1419
  188MOL0     C25251   3.204   8.406   1.825  0.5822 -1.1124 -1.0031
  188MOL0     C25252   3.326   8.348   1.842 -0.1201  1.2653 -0.5253
  188MOL0     O25253   3.448   8.413   1.817  0.6425  0.2880 -0.4421
  188MOL0     C25254   3.521   8.450   1.933 -0.2627 -0.5135  1.1150
  188MOL0     C25255   3.469   8.571   2.020 -0.5962 -0.8344 -0.3217
  188MOL0     C25256   3.486   8.701   1.941  0.0252 -1.0771  0.0498
  188MOL0     C25257   3.434   8.818   2.022  0.0671 -0.4983 -0.5625
  188MOL0     C25258   3.438   8.961   1.944 -0.4204  0.5770 -0.5494
  188MOL0     C25259   3.361   9.060   2.024  0.8778 -0.2471 -0.2906
  188MOL0     C25260   3.213   9.074   1.988 -0.7143  0.1015 -0.0091
  188MOL0     C25261   3.204   9.180   1.880  0.0095 -0.3468 -0.0963
  188MOL0     N25262   3.064   9.208   1.870 -0.2047 -0.3819  0.9164
  188MOL0     C25263   2.980   9.296   1.941  0.4804  0.0250 -0.4364
  188MOL0     C25264   2.855   9.259   1.908  0.4870 -0.4585  0.4398
  188MOL0     C25265   2.726   9.328   1.935 -0.3328  0.7621 -0.5580
  188MOL0     C25266   2.644   9.268   2.048  0.3276  1.1572  0.0731
  188MOL0     C25267   2.707   9.298   2.175 -0.9950  0.1750 -0.7842
  188MOL0     C25268   2.605   9.262   2.292 -1.3908 -0.1863  1.2789
  188MOL0     O25269   2.595   9.123   2.306 -0.0890 -0.1670 -0.3864
  188MOL0     C25270   2.468   9.073   2.329 -0.1418  0.5576  0.0490
  188MOL0     C25271   2.371   9.148   2.410 -0.0967 -0.1193  0.1811
  188MOL0     C25272   2.241   9.095   2.437  0.2160  0.1511  0.0857
  188MOL0     C25273   2.161   9.185   2.533  0.3695  0.2823  0.0180
  188MOL0     C25274   2.208   8.963   2.407 -0.4291 -0.8393 -0.6152
  188MOL0     C25275   2.079   8.887   2.440 -0.0519  0.0696 -0.0911
  188MOL0     O25276   2.060   8.766   2.388 -0.2907 -0.0315 -0.2746
  188MOL0     C25277   1.941   8.713   2.413  0.3756  0.7010 -0.2641
  188MOL0     C25278   1.939   8.587   2.466  0.4108 -0.0398 -0.7864
  188MOL0     C25279   1.827   8.525   2.517  0.1141  0.7325  0.6386
  188MOL0     C25280   1.693   8.591   2.500 -1.3803 -0.6613  0.5472
  188MOL0     O25281   1.562   8.555   2.521  0.1607  0.7847  0.3366
  188MOL0     C25282   1.534   8.433   2.586  0.9269  0.5987 -0.3625
  188MOL0     C25283   1.386   8.453   2.642 -0.3909 -1.1356 -0.2582
  188MOL0     C25284   1.266   8.441   2.542 -0.2587  0.0084 -0.5919
  188MOL0     C25285   1.233   8.295   2.504  0.1179  0.0631 -0.0600
  188MOL0     C25286   1.089   8.265   2.453  0.0644 -0.0451  0.9577
  188MOL0     C25287   1.073   8.305   2.304  0.4015 -0.6791  0.3672
  188MOL0     C25288   0.927   8.307   2.265 -0.3295  0.5255 -0.9032
  188MOL0     C25289   0.908   8.311   2.111  0.2556  0.7983 -0.3404
  188MOL0    Cl25290   0.918   8.478   2.039 -0.8215  0.2017 -0.5688
  188MOL0     C25291   1.695   8.715   2.438 -0.1694 -1.0138  0.2423
  188MOL0     C25292   1.813   8.775   2.396 -0.5018 -0.1203  0.4681
  188MOL0     O25293   2.006   8.941   2.523  0.4390  0.1557  0.1735
  188MOL0     C25294   2.312   8.895   2.344 -0.2903 -0.1371  1.3273
  188MOL0     C25295   2.442   8.949   2.303  0.0288  0.8745  0.1981
  188MOL0     N25296   2.857   9.147   1.825 -0.7209  0.1292  0.2546
  188MOL0     N25297   2.987   9.129   1.794  1.1179 -0.0241 -0.3061
  188MOL0     C25298   3.323   8.221   1.916  0.3622 -0.6892 -0.3321
  188MOL0     C25299   3.210   8.156   1.943  0.2301  0.8785 -0.2813
  188MOL0     C25300   2.778   8.035   1.871 -0.2785 -0.1510 -0.6574
  188MOL0     C25301   2.659   8.012   1.792  0.6632 -0.1499  0.7449
  188MOL0     C25302   2.555   7.941   1.844  0.0396 -0.1547  0.6558
  188MOL0     C25303   2.565   7.874   1.968  0.2951  0.6234  0.3029
  188MOL0     O25304   2.464   7.813   2.044  0.3104 -0.3212 -0.7607
  188MOL0     C25305   2.335   7.818   1.984  0.6088  1.2885 -0.9284
  188MOL0     C25306   2.220   7.777   2.081 -0.5546  1.1635 -0.4856
  188MOL0     C25307   2.105   7.714   1.998 -1.1760  0.5709  0.3009
  188MOL0     C25308   1.979   7.673   2.072 -0.2299  0.5228 -0.3281
  188MOL0     C25309   1.918   7.793   2.124  0.0463  0.3642  0.7299
  188MOL0     C25310   1.866   7.889   2.179  0.1653 -0.0874 -0.8502
  188MOL0     C25311   2.685   7.873   2.033 -1.3391  0.2296  0.1602
  188MOL0     C25312   2.792   7.953   1.988  0.7367  1.1876 -0.0846
  188MOL0     H25313   2.993   8.417   1.863  1.0911  1.1660  1.0456
  188MOL0     H25314   3.190   8.500   1.773 -3.0599 -1.8183 -1.6100
  188MOL0     H25315   3.529   8.352   1.981 -1.0282 -3.1468 -3.5361
  188MOL0     H25316   3.625   8.475   1.907  0.1179 -3.0234 -0.1669
  188MOL0     H25317   3.367   8.568   2.061 -2.0441 -0.2425 -3.5505
  188MOL0     H25318   3.540   8.582   2.102 -0.8190 -0.6791 -0.1501
  188MOL0     H25319   3.589   8.718   1.910 -0.3045  1.0355 -0.0009
  188MOL0     H25320   3.425   8.674   1.853 -0.2812 -0.8910  0.2038
  188MOL0     H25321   3.334   8.798   2.060  0.4271 -1.8020 -0.2475
  188MOL0     H25322   3.502   8.822   2.108  1.7200  0.7495 -1.8632
  188MOL0     H25323   3.543   8.993   1.939 -0.1345 -0.1224  0.4869
  188MOL0     H25324   3.397   8.947   1.843 -2.4785 -0.4807  0.3715
  188MOL0     H25325   3.364   9.041   2.132 -1.3621  1.0103  0.0754
  188MOL0     H25326   3.410   9.158   2.028  1.2778 -0.0131 -5.1273
  188MOL0     H25327   3.172   8.977   1.957 -0.2960  0.6489 -2.5100
  188MOL0     H25328   3.159   9.108   2.077  1.0239  0.8098  0.8039
  188MOL0     H25329   3.262   9.152   1.792  2.5593 -0.3412  1.4687
  188MOL0     H25330   3.245   9.278   1.905  2.0668 -0.9393 -0.9528
  188MOL0     H25331   3.006   9.368   2.018  2.6925 -3.1446  2.0640
  188MOL0     H25332   2.744   9.433   1.962 -2.1317  1.4648 -1.9071
  188MOL0     H25333   2.665   9.339   1.845 -0.7564 -2.0633 -0.7097
  188MOL0     H25334   2.644   9.164   2.014  2.3148 -0.1194  3.4732
  188MOL0     H25335   2.546   9.313   2.062  0.9797  3.0221 -1.0147
  188MOL0     H25336   2.728   9.405   2.184  0.0206 -0.1803  4.6407
  188MOL0     H25337   2.803   9.247   2.191 -0.8259  1.5622  4.7092
  188MOL0     H25338   2.506   9.301   2.265 -0.0067  1.4892 -2.1222
  188MOL0     H25339   2.634   9.310   2.385  0.2903 -1.8577  1.6622
  188MOL0     H25340   2.394   9.249   2.443  2.1378  0.1230 -1.8446
  188MOL0     H25341   2.213   9.275   2.569 -0.9571  1.5223 -1.0252
  188MOL0     H25342   2.063   9.225   2.505  0.9609  2.5031  0.8983
  188MOL0     H25343   2.152   9.129   2.626  2.5262 -1.7585 -0.9316
  188MOL0     H25344   2.029   8.527   2.471  0.0801 -0.4779  2.7769
  188MOL0     H25345   1.837   8.420   2.542 -0.5666  0.0930 -1.5418
  188MOL0     H25346   1.530   8.344   2.522 -1.8124 -0.8802  1.6340
  188MOL0     H25347   1.610   8.425   2.664  1.7626  1.7017 -1.0294
  188MOL0     H25348   1.374   8.386   2.727 -1.7040 -2.8656 -1.7178
  188MOL0     H25349   1.376   8.557   2.674 -0.9027 -0.3249 -2.7714
  188MOL0     H25350   1.292   8.495   2.450  2.7027 -2.1570 -1.1713
  188MOL0     H25351   1.173   8.490   2.573  0.1934  0.9388 -0.6641
  188MOL0     H25352   1.309   8.269   2.430  0.6502 -0.2365  0.5736
  188MOL0     H25353   1.250   8.221   2.584  0.9495 -0.3567 -0.6091
  188MOL0     H25354   1.017   8.311   2.521  0.0918 -0.7367  1.4644
  188MOL0     H25355   1.079   8.156   2.450 -0.4941 -0.0595 -3.5751
  188MOL0     H25356   1.110   8.406   2.284  0.5980 -0.9463 -0.7350
  188MOL0     H25357   1.141   8.243   2.245  2.5703  1.2245  0.7278
  188MOL0     H25358   0.886   8.399   2.307  0.2176 -0.7784  2.8464
  188MOL0     H25359   0.876   8.215   2.295 -0.5651  0.9290 -0.0582
  188MOL0     H25360   0.803   8.284   2.100  0.5497 -1.6929  1.9350
  188MOL0     H25361   0.977   8.242   2.061 -1.4642 -0.2298 -1.3990
  188MOL0     H25362   1.602   8.768   2.420  0.9976  0.6841 -1.2385
  188MOL0     H25363   1.805   8.871   2.345  1.1503 -1.2064 -2.0566
  188MOL0     H25364   2.302   8.788   2.327  0.6484  0.0483 -0.7694
  188MOL0     H25365   2.511   8.898   2.236  0.6941 -0.6077  1.9518
  188MOL0     H25366   3.414   8.171   1.947  0.0097  1.1818  4.6631
  188MOL0     H25367   3.221   8.053   1.977  1.1609  1.2744  0.6602
  188MOL0     H25368   2.637   8.056   1.695 -1.7878 -1.2567  0.7382
  188MOL0     H25369   2.465   7.953   1.783  0.8897  0.7861 -0.4561
  188MOL0     H25370   2.314   7.915   1.938  3.4506  0.2775 -4.8881
  188MOL0     H25371   2.343   7.748   1.900  0.9549 -2.2076  1.7979
  188MOL0     H25372   2.186   7.854   2.151 -4.1087  1.3390 -2.2105
  188MOL0     H25373   2.247   7.690   2.142 -3.1929 -1.2255 -2.5179
  188MOL0     H25374   2.149   7.632   1.942 -2.8042 -0.2041  0.0989
  188MOL0     H25375   2.085   7.786   1.918  1.9246 -0.6194 -1.7250
  188MOL0     H25376   2.019   7.618   2.157 -1.1886  0.4093  0.0551
  188MOL0     H25377   1.905   7.618   2.013 -1.2264  0.3037  1.0645
  188MOL0     H25378   1.825   7.961   2.248 -1.3744 -2.6842  1.1577
  188MOL0     H25379   2.685   7.819   2.127 -2.3866  1.8539  1.1629
  188MOL0     H25380   2.884   7.957   2.046 -0.8237 -1.2844  2.8438
  189MOL0     O25381   2.064   0.746   1.537  0.2135 -0.1123 -0.6264
  189MOL0     C25382   2.134   0.789   1.444  0.0718 -0.5282 -0.7172
  189MOL0     O25383   2.080   0.854   1.334 -0.1113 -0.5101 -0.1810
  189MOL0     C25384   1.948   0.887   1.324  0.8733  1.1581  0.2012
  189MOL0     C25385   1.846   0.784   1.294  0.2911 -0.2167  0.2865
  189MOL0     C25386   1.711   0.819   1.301 -0.6766  0.7539 -0.8302
  189MOL0     C25387   1.666   0.946   1.336  0.1137  0.3139 -0.0754
  189MOL0     O25388   1.528   0.955   1.352  0.2657 -0.0012 -0.1360
  189MOL0     C25389   1.466   1.088   1.349 -0.3529 -0.3297  0.0041
  189MOL0     C25390   1.421   1.127   1.211 -0.2373 -0.2059 -0.5229
  189MOL0     C25391   1.538   1.130   1.110 -0.4527  0.4208 -0.4108
  189MOL0     C25392   1.493   1.226   0.991  0.5459  0.5530 -0.5036
  189MOL0     C25393   1.421   1.137   0.896  0.3534  0.0109  0.7529
  189MOL0     C25394   1.356   1.219   0.783 -0.5770  0.0338  0.1877
  189MOL0     C25395   1.329   1.130   0.660 -0.1896  0.4485 -0.0319
  189MOL0     C25396   1.244   1.006   0.710  1.0430  0.1142  0.0145
  189MOL0     N25397   1.198   0.929   0.598 -1.0604  0.4859  0.0142
  189MOL0     C25398   1.084   0.970   0.531  0.9756  0.7914  0.2102
  189MOL0     C25399   1.059   0.864   0.441  0.1173  0.5063 -0.3739
  189MOL0     C25400   0.954   0.855   0.341  0.2767  0.2594  1.0060
  189MOL0     C25401   0.813   0.865   0.398 -1.0284  0.3246  0.0388
  189MOL0     C25402   0.720   0.784   0.303 -0.0200  0.0229  0.1963
  189MOL0     C25403   0.576   0.779   0.358 -0.9280 -0.5189  1.0489
  189MOL0     O25404   0.523   0.910   0.341 -0.2199  0.1079  0.1328
  189MOL0     C25405   0.384   0.922   0.348 -0.3072 -0.7151 -0.4341
  189MOL0     C25406   0.332   1.042   0.297 -0.3982 -0.3924  0.6813
  189MOL0     C25407   0.194   1.063   0.293  0.0934 -0.3955  0.0432
  189MOL0     C25408   0.149   1.191   0.219  0.2740  0.5556  0.0526
  189MOL0     C25409   0.110   0.954   0.335  0.8046  0.4093 -0.5066
  189MOL0     C25410  -0.036   0.957   0.333 -0.3217  1.2375  0.6488
  189MOL0     O25411  -0.094   0.915   0.450 -0.0661 -0.5673 -0.5417
  189MOL0     C25412  -0.228   0.908   0.455  0.3992 -0.6097 -0.3392
  189MOL0     C25413  -0.286   0.806   0.528  0.2842  0.1043  1.0774
  189MOL0     C25414  -0.427   0.809   0.550  0.5086 -0.1009 -0.0716
  189MOL0     C25415  -0.511   0.922   0.516  0.2385 -0.1281 -1.1781
  189MOL0     O25416  -0.646   0.940   0.534  0.8875  0.2935  0.0702
  189MOL0     C25417  -0.729   0.834   0.599 -0.8587 -0.9716  0.6747
  189MOL0     C25418  -0.875   0.892   0.615  0.5707  0.1351  1.1523
  189MOL0     C25419  -0.966   0.797   0.697 -0.7824  0.3968 -0.0914
  189MOL0     C25420  -1.110   0.854   0.707 -0.4097  0.3075 -0.2581
  189MOL0     C25421  -1.196   0.759   0.800 -1.2782  0.4401  0.1240
  189MOL0     C25422  -1.341   0.807   0.830  0.9674  0.9391  0.1520
  189MOL0     C25423  -1.405   0.691   0.917 -0.5537  0.2971 -0.1926
  189MOL0     C25424  -1.552   0.693   0.891  0.3488 -0.4013  0.1818
  189MOL0    Cl25425  -1.642   0.572   0.978  0.0126  0.4107 -0.3886
  189MOL0     C25426  -0.447   1.021   0.455 -0.5386 -0.4629 -0.1631
  189MOL0     C25427  -0.310   1.017   0.422  0.3444  0.5484  0.0721
  189MOL0     O25428  -0.096   0.986   0.227 -0.2581  0.0840 -0.2309
  189MOL0     C25429   0.164   0.836   0.392 -1.1245 -0.4095 -0.1379
  189MOL0     C25430   0.301   0.822   0.405 -0.3305  0.1586 -0.7535
  189MOL0     N25431   1.159   0.768   0.462  0.1372 -0.0424 -0.0105
  189MOL0     N25432   1.249   0.815   0.545  0.1850 -0.4940  0.2831
  189MOL0     C25433   1.764   1.050   1.355 -0.4823  1.0821  0.4441
  189MOL0     C25434   1.899   1.025   1.335 -0.5564 -0.0677 -0.4418
  189MOL0     C25435   2.280   0.752   1.445  0.1224  0.8186 -0.4678
  189MOL0     C25436   2.361   0.733   1.564  0.9264  0.2883 -0.8110
  189MOL0     C25437   2.501   0.733   1.570 -0.2383 -0.4553  0.3384
  189MOL0     C25438   2.575   0.751   1.450 -0.6228  0.2899 -0.5416
  189MOL0     O25439   2.718   0.767   1.464 -0.0520  0.3856  0.3558
  189MOL0     C25440   2.798   0.807   1.349 -0.1570  0.1071 -0.5475
  189MOL0     C25441   2.951   0.801   1.374  0.8540  1.1777  0.0253
  189MOL0     C25442   2.998   0.688   1.468 -0.2479 -0.5946 -0.1879
  189MOL0     C25443   2.987   0.726   1.620  0.7551 -0.4581 -0.3380
  189MOL0     C25444   3.079   0.822   1.666  0.5320 -0.5161  0.8117
  189MOL0     C25445   3.161   0.901   1.706 -0.5461  0.0814  0.8362
  189MOL0     C25446   2.497   0.778   1.340 -1.0350 -0.7757  0.0693
  189MOL0     C25447   2.358   0.778   1.334 -0.9232 -0.2786  0.3344
  189MOL0     H25448   1.877   0.681   1.280  2.0486  0.1261  1.3202
  189MOL0     H25449   1.642   0.738   1.281 -0.7261  0.4958  0.3167
  189MOL0     H25450   1.368   1.079   1.396 -0.8656 -0.0689 -0.9847
  189MOL0     H25451   1.525   1.170   1.392 -0.4326 -0.3237  0.1021
  189MOL0     H25452   1.347   1.056   1.174 -2.9115  2.7320 -1.2165
  189MOL0     H25453   1.360   1.218   1.211  0.3615  0.2315  1.2603
  189MOL0     H25454   1.621   1.184   1.157  1.2569  1.3573 -4.1297
  189MOL0     H25455   1.581   1.034   1.081 -1.6649 -1.2121  2.6840
  189MOL0     H25456   1.422   1.307   1.014  0.3191  1.0303 -2.6689
  189MOL0     H25457   1.576   1.281   0.945  1.0164  2.1904  2.1119
  189MOL0     H25458   1.492   1.064   0.856  1.0082  1.5637 -1.0817
  189MOL0     H25459   1.336   1.081   0.936 -2.4783  0.5699 -3.6706
  189MOL0     H25460   1.264   1.269   0.813  1.0518  2.2241  1.8254
  189MOL0     H25461   1.425   1.301   0.759  1.0783 -1.0147  1.2151
  189MOL0     H25462   1.279   1.192   0.586  0.5555  0.7045 -0.3301
  189MOL0     H25463   1.422   1.096   0.614 -2.5588 -1.9859 -3.4663
  189MOL0     H25464   1.147   1.038   0.750  0.1167  2.4422 -3.6630
  189MOL0     H25465   1.283   0.938   0.787  0.9308 -0.3696 -0.3521
  189MOL0     H25466   1.020   1.057   0.544 -1.7942 -1.0506 -0.2679
  189MOL0     H25467   0.967   0.936   0.269  0.6636  0.4651  1.3016
  189MOL0     H25468   0.971   0.763   0.284 -0.0723 -1.7648  3.9363
  189MOL0     H25469   0.797   0.971   0.418  4.6684  1.2035  1.5826
  189MOL0     H25470   0.801   0.831   0.501 -0.5696 -1.8963 -0.5787
  189MOL0     H25471   0.760   0.683   0.290  2.2807  0.8756  0.1779
  189MOL0     H25472   0.714   0.843   0.212 -1.6793 -1.0937 -0.4593
  189MOL0     H25473   0.582   0.750   0.463 -0.2865 -1.1859  0.8380
  189MOL0     H25474   0.515   0.711   0.299 -1.2903  2.1224 -1.9154
  189MOL0     H25475   0.403   1.110   0.252  0.3691  0.9235  3.5984
  189MOL0     H25476   0.164   1.188   0.111  1.1580 -2.3568  0.1602
  189MOL0     H25477   0.041   1.194   0.240  0.5469  1.0448  1.5194
  189MOL0     H25478   0.199   1.273   0.271  2.4987  0.1076 -1.2563
  189MOL0     H25479  -0.229   0.720   0.561 -1.0875 -1.3819 -0.2500
  189MOL0     H25480  -0.467   0.725   0.606  0.3335  1.6280  2.5246
  189MOL0     H25481  -0.737   0.742   0.540 -3.2827  0.7115 -1.8643
  189MOL0     H25482  -0.684   0.807   0.695 -2.6749 -1.7450  1.3387
  189MOL0     H25483  -0.878   0.987   0.670 -1.6858  1.2376 -0.6719
  189MOL0     H25484  -0.913   0.923   0.517 -1.1350  4.0005  2.7911
  189MOL0     H25485  -0.927   0.773   0.796  2.6299 -2.8623 -1.9482
  189MOL0     H25486  -0.954   0.696   0.656 -1.1010 -0.8540  2.6860
  189MOL0     H25487  -1.106   0.952   0.756  0.0156  0.0731  0.1855
  189MOL0     H25488  -1.154   0.870   0.608  1.1299  1.1622 -0.8449
  189MOL0     H25489  -1.146   0.760   0.897 -2.4210  0.4854  0.7403
  189MOL0     H25490  -1.200   0.656   0.762 -1.6887  0.1473  0.9290
  189MOL0     H25491  -1.354   0.907   0.873 -3.1492  0.4453  0.5290
  189MOL0     H25492  -1.394   0.823   0.736  1.1144  1.6900  0.1882
  189MOL0     H25493  -1.382   0.700   1.023 -0.9786  0.8736 -0.1426
  189MOL0     H25494  -1.368   0.597   0.874  0.5298  0.9745 -0.8000
  189MOL0     H25495  -1.573   0.673   0.786 -0.9271  0.0060  0.3437
  189MOL0     H25496  -1.591   0.792   0.914  0.7593 -0.3468  0.6618
  189MOL0     H25497  -0.502   1.109   0.422  1.0139  0.0710 -1.4931
  189MOL0     H25498  -0.257   1.102   0.381 -0.9301  1.4655  0.2637
  189MOL0     H25499   0.099   0.752   0.417 -2.1135 -0.5760 -2.9042
  189MOL0     H25500   0.345   0.733   0.450 -0.2891 -0.3605 -1.7791
  189MOL0     H25501   1.748   1.152   1.387  1.5936  1.3826  0.6244
  189MOL0     H25502   1.965   1.105   1.367 -4.3820  2.7469  1.0742
  189MOL0     H25503   2.312   0.702   1.656  0.5835 -0.5939 -1.2772
  189MOL0     H25504   2.548   0.704   1.663  0.2927  1.0792  0.5790
  189MOL0     H25505   2.765   0.739   1.269 -0.2189 -1.3148  0.6439
  189MOL0     H25506   2.772   0.908   1.315  2.7453  0.7043 -1.2589
  189MOL0     H25507   2.983   0.896   1.417 -2.8660  2.6448 -0.0810
  189MOL0     H25508   3.003   0.785   1.279 -1.3734  0.2290 -1.1133
  189MOL0     H25509   3.097   0.652   1.438 -1.0590 -2.2594 -1.0619
  189MOL0     H25510   2.934   0.602   1.443 -0.5140 -0.4175 -0.1169
  189MOL0     H25511   2.983   0.636   1.683  0.9144 -0.0137  0.3095
  189MOL0     H25512   2.885   0.766   1.622  1.2104  0.7575 -0.7692
  189MOL0     H25513   3.239   0.962   1.747 -0.4575  0.0520  0.7154
  189MOL0     H25514   2.549   0.799   1.248 -2.3908 -0.1130 -0.5843
  189MOL0     H25515   2.314   0.785   1.235  1.7678  0.8363 -0.8940
  190MOL0     O25516   0.665   2.411   7.183 -0.8141  0.3341  0.0023
  190MOL0     C25517   0.744   2.365   7.100  0.0026  0.4111  0.3257
  190MOL0     O25518   0.726   2.246   7.024 -0.0377  0.3870 -0.5438
  190MOL0     C25519   0.612   2.176   7.044 -0.3183  0.1847 -0.0948
  190MOL0     C25520   0.575   2.134   7.175  0.5284 -1.0574 -0.1599
  190MOL0     C25521   0.467   2.050   7.190  0.7888  0.2869  0.2748
  190MOL0     C25522   0.394   2.006   7.073 -0.1427 -0.4473 -1.3153
  190MOL0     O25523   0.281   1.920   7.079 -0.8784  0.8730 -0.3097
  190MOL0     C25524   0.256   1.846   7.199  0.3484 -0.7376  0.7023
  190MOL0     C25525   0.153   1.736   7.183  0.2342 -0.4254 -0.1782
  190MOL0     C25526   0.002   1.773   7.203 -0.7756 -0.3670  0.9170
  190MOL0     C25527  -0.082   1.646   7.226 -0.0172 -0.3238 -0.2173
  190MOL0     C25528  -0.227   1.682   7.253  0.2055  0.6226 -0.6266
  190MOL0     C25529  -0.310   1.565   7.314 -0.4095 -0.9406 -0.8093
  190MOL0     C25530  -0.397   1.517   7.199 -0.6014  0.9848  0.8898
  190MOL0     C25531  -0.461   1.383   7.226  0.0611  0.7553 -0.2233
  190MOL0     N25532  -0.513   1.304   7.102  0.5003 -0.9224 -1.0603
  190MOL0     C25533  -0.606   1.350   7.015  0.0177 -1.0191  0.1116
  190MOL0     C25534  -0.607   1.260   6.918  0.7167  0.1926  0.2723
  190MOL0     C25535  -0.710   1.261   6.810  0.3222 -0.3309  1.4558
  190MOL0     C25536  -0.662   1.308   6.670  0.1956  0.3889  0.2445
  190MOL0     C25537  -0.781   1.302   6.573  0.4283  0.9698 -0.5201
  190MOL0     C25538  -0.756   1.359   6.434 -0.8761 -0.2153 -0.7073
  190MOL0     O25539  -0.883   1.352   6.362 -0.4722  0.0940 -0.4108
  190MOL0     C25540  -0.883   1.350   6.228 -0.3439  0.4304 -0.3327
  190MOL0     C25541  -0.998   1.392   6.174 -0.2795  0.5074  0.6280
  190MOL0     C25542  -1.019   1.416   6.037  0.4184 -0.2346 -0.5980
  190MOL0     C25543  -1.152   1.475   5.994 -0.0016  0.5108 -0.4613
  190MOL0     C25544  -0.917   1.399   5.954 -0.0042 -0.1937 -0.6837
  190MOL0     C25545  -0.925   1.432   5.804 -0.5815  0.3761  0.0562
  190MOL0     O25546  -1.009   1.524   5.748 -0.4161 -0.4200 -0.0394
  190MOL0     C25547  -0.980   1.571   5.622 -0.3821  0.1403 -0.2074
  190MOL0     C25548  -1.045   1.528   5.507 -0.3715  0.1504 -0.1901
  190MOL0     C25549  -1.012   1.580   5.380 -0.0144  0.1890 -0.6408
  190MOL0     C25550  -0.906   1.669   5.364  0.0620  0.2520  0.5563
  190MOL0     O25551  -0.873   1.708   5.241 -0.5731 -1.1204  0.4892
  190MOL0     C25552  -0.898   1.844   5.226  0.6381 -0.0868  0.3034
  190MOL0     C25553  -1.033   1.862   5.152 -0.2929 -0.2050 -0.1792
  190MOL0     C25554  -1.061   2.002   5.100 -0.3056 -0.2907  0.4164
  190MOL0     C25555  -1.198   2.009   5.033  0.8547  0.3416 -0.2906
  190MOL0     C25556  -1.323   2.007   5.124  0.3942 -0.1849 -0.5535
  190MOL0     C25557  -1.457   2.017   5.042  0.0871  0.5916 -0.0836
  190MOL0     C25558  -1.579   2.039   5.136 -0.5485  0.2058  0.1484
  190MOL0     C25559  -1.709   2.063   5.051 -0.1152 -0.5927  0.4099
  190MOL0    Cl25560  -1.708   2.221   4.956 -0.2890 -0.1431  0.1985
  190MOL0     C25561  -0.836   1.704   5.474 -0.2770 -0.4084  0.1643
  190MOL0     C25562  -0.871   1.654   5.598 -0.1954 -0.5938 -0.4623
  190MOL0     O25563  -0.843   1.364   5.739 -0.1287 -0.6180  0.4556
  190MOL0     C25564  -0.796   1.349   6.007 -0.9277 -0.1022  0.0594
  190MOL0     C25565  -0.778   1.319   6.137 -0.7018 -0.0061 -0.0502
  190MOL0     N25566  -0.523   1.158   6.949 -0.5204  0.3177 -0.2103
  190MOL0     N25567  -0.467   1.183   7.064 -0.5305 -0.3249 -0.1021
  190MOL0     C25568   0.436   2.052   6.948  0.3605 -0.0031 -0.5658
  190MOL0     C25569   0.546   2.135   6.926 -0.6408  0.2192 -0.6217
  190MOL0     C25570   0.865   2.446   7.072  0.4919  0.4508 -0.3168
  190MOL0     C25571   0.880   2.569   7.147 -0.0140  0.1134  0.7662
  190MOL0     C25572   0.978   2.655   7.118  1.1404 -0.3792  0.2949
  190MOL0     C25573   1.077   2.618   7.027  0.4999 -0.0892 -0.1732
  190MOL0     O25574   1.183   2.705   7.023 -0.2996 -0.1483 -0.8086
  190MOL0     C25575   1.317   2.675   6.979 -0.2733 -0.2395 -0.3287
  190MOL0     C25576   1.337   2.730   6.836 -0.0819 -0.3720 -0.1164
  190MOL0     C25577   1.477   2.707   6.777  0.5820  0.0855 -0.2770
  190MOL0     C25578   1.588   2.808   6.814 -1.3948 -0.6927 -0.0274
  190MOL0     C25579   1.668   2.862   6.703 -0.6416 -0.2583  0.0943
  190MOL0     C25580   1.745   2.932   6.640  0.8983 -0.3615  1.0042
  190MOL0     C25581   1.069   2.503   6.947 -0.1574  0.4170 -0.0393
  190MOL0     C25582   0.963   2.409   6.980  0.3890 -0.3450  0.4430
  190MOL0     H25583   0.624   2.159   7.268  2.3333  0.6500 -1.4934
  190MOL0     H25584   0.446   2.012   7.290 -1.1930  0.2716 -0.1035
  190MOL0     H25585   0.348   1.802   7.240  1.0456 -1.2069 -1.2863
  190MOL0     H25586   0.209   1.921   7.264  1.8354  1.1821 -0.3071
  190MOL0     H25587   0.169   1.684   7.088  0.4467  0.7789 -0.8075
  190MOL0     H25588   0.183   1.663   7.259 -1.3742  0.0621  0.9829
  190MOL0     H25589  -0.012   1.829   7.296 -1.4617 -1.2981  1.3939
  190MOL0     H25590  -0.045   1.817   7.114 -1.2891  2.0206  2.2884
  190MOL0     H25591  -0.069   1.581   7.139  1.5791 -0.5469  0.1631
  190MOL0     H25592  -0.047   1.600   7.319  1.3938  0.0212 -0.5562
  190MOL0     H25593  -0.221   1.757   7.333 -0.5183  2.9348 -2.6502
  190MOL0     H25594  -0.276   1.714   7.161 -1.5804 -1.3775 -0.4540
  190MOL0     H25595  -0.246   1.489   7.359  0.9845  0.7673  0.2002
  190MOL0     H25596  -0.378   1.601   7.392  0.7297 -1.4912  0.4719
  190MOL0     H25597  -0.468   1.597   7.176  1.1925  2.4819  0.2850
  190MOL0     H25598  -0.325   1.496   7.119  0.8717 -0.1382  2.4342
  190MOL0     H25599  -0.534   1.406   7.304  1.5774  1.5927  1.0197
  190MOL0     H25600  -0.384   1.324   7.277  0.2281  1.0714 -0.1075
  190MOL0     H25601  -0.666   1.441   7.016  0.2349 -0.7456 -2.5255
  190MOL0     H25602  -0.753   1.161   6.797  1.2079 -0.5357 -0.1573
  190MOL0     H25603  -0.789   1.332   6.838  0.2812  1.9715 -3.4510
  190MOL0     H25604  -0.576   1.254   6.630 -0.1945  0.3131 -0.5131
  190MOL0     H25605  -0.633   1.412   6.691  0.7748  0.3915 -0.5298
  190MOL0     H25606  -0.855   1.373   6.610 -1.1940  0.6986 -2.9640
  190MOL0     H25607  -0.834   1.206   6.567  0.5958  0.9280 -1.8559
  190MOL0     H25608  -0.674   1.303   6.386  0.2542  1.5431 -0.9270
  190MOL0     H25609  -0.730   1.465   6.431 -2.4723  0.2949  1.3088
  190MOL0     H25610  -1.079   1.413   6.243 -0.4475 -0.5915  0.7953
  190MOL0     H25611  -1.223   1.471   6.077  0.0616  1.5712 -0.3460
  190MOL0     H25612  -1.160   1.573   5.947 -1.0092 -0.9869 -3.7942
  190MOL0     H25613  -1.187   1.401   5.921 -2.2597 -4.0196  4.5404
  190MOL0     H25614  -1.129   1.459   5.503  2.1778 -3.1761 -0.7973
  190MOL0     H25615  -1.069   1.555   5.291  0.3952  0.4414 -0.9738
  190MOL0     H25616  -0.912   1.899   5.320 -1.3482 -2.0078  1.2122
  190MOL0     H25617  -0.827   1.900   5.164  1.5716 -0.0932  1.3324
  190MOL0     H25618  -1.027   1.793   5.067 -0.5911 -0.6291  0.1367
  190MOL0     H25619  -1.110   1.831   5.224 -1.1152  2.2502  0.0851
  190MOL0     H25620  -0.990   2.023   5.019 -0.5509 -0.2197  0.2154
  190MOL0     H25621  -1.061   2.082   5.175  0.9730 -0.8625  1.0368
  190MOL0     H25622  -1.197   2.100   4.972 -1.3782  1.0524  0.6549
  190MOL0     H25623  -1.213   1.917   4.975 -2.5273  0.1290  0.6993
  190MOL0     H25624  -1.308   2.095   5.186  3.3442  1.2567 -3.0279
  190MOL0     H25625  -1.326   1.915   5.182  2.1014 -1.6362 -2.6107
  190MOL0     H25626  -1.448   2.107   4.980 -0.1328  0.3266 -0.5106
  190MOL0     H25627  -1.471   1.935   4.971 -2.5275  0.9152 -0.0440
  190MOL0     H25628  -1.554   2.129   5.192  2.6153  0.2405 -1.0857
  190MOL0     H25629  -1.583   1.954   5.205  1.6479 -0.3637 -0.3203
  190MOL0     H25630  -1.782   2.062   5.132 -0.5788  0.4780  0.0111
  190MOL0     H25631  -1.736   1.981   4.983  0.2859  0.0030 -0.4844
  190MOL0     H25632  -0.743   1.758   5.461 -0.9635  1.2741  1.7698
  190MOL0     H25633  -0.807   1.685   5.680  0.4400  0.6346 -1.3871
  190MOL0     H25634  -0.720   1.337   5.931  0.4513 -2.2522  1.6571
  190MOL0     H25635  -0.677   1.285   6.158  1.2910  3.0942 -3.5333
  190MOL0     H25636   0.391   2.008   6.859  0.3419  0.5481 -0.8339
  190MOL0     H25637   0.579   2.168   6.828  0.7544  0.3018 -0.1403
  190MOL0     H25638   0.807   2.590   7.225 -2.1881 -2.4590 -0.3946
  190MOL0     H25639   0.975   2.752   7.166  1.9101 -1.5509  2.8738
  190MOL0     H25640   1.400   2.714   7.038 -0.8782  3.4325 -1.6643
  190MOL0     H25641   1.329   2.566   6.972 -2.1292 -0.6614  1.9694
  190MOL0     H25642   1.319   2.838   6.833 -2.3900 -0.7167 -0.7073
  190MOL0     H25643   1.256   2.686   6.777 -2.0012  0.7391  1.5516
  190MOL0     H25644   1.478   2.702   6.667 -2.3095 -3.0270 -0.3500
  190MOL0     H25645   1.497   2.601   6.799 -1.4708 -1.3970 -4.4412
  190MOL0     H25646   1.657   2.776   6.893 -2.8775 -1.2904  1.0694
  190MOL0     H25647   1.546   2.897   6.861 -0.8722 -0.7173  0.5034
  190MOL0     H25648   1.812   3.003   6.597  0.2550 -0.2824  0.1262
  190MOL0     H25649   1.147   2.477   6.876 -1.6480  1.2170 -2.0639
  190MOL0     H25650   0.944   2.320   6.922 -3.9539  0.9465 -0.4739
  191MOL0     O25651  10.977   8.151   8.775 -0.6105  0.8487  0.4565
  191MOL0     C25652  11.048   8.088   8.697 -0.1312 -0.3668  0.2300
  191MOL0     O25653  10.994   8.024   8.583 -0.5951 -0.0211  0.3156
  191MOL0     C25654  10.854   8.027   8.571 -0.2407 -0.0655 -0.3678
  191MOL0     C25655  10.769   7.946   8.650  0.4446  0.9354  0.0207
  191MOL0     C25656  10.634   7.954   8.613  0.1813 -0.8494 -0.2415
  191MOL0     C25657  10.578   8.044   8.526  0.1262  0.7872  0.0365
  191MOL0     O25658  10.441   8.044   8.522 -0.8566 -0.4807  0.2465
  191MOL0     C25659  10.359   8.055   8.650  0.4525 -0.0813  1.0317
  191MOL0     C25660  10.211   8.094   8.615  0.0224 -0.5559 -0.2326
  191MOL0     C25661  10.201   8.235   8.558  0.7460 -0.6678  0.6104
  191MOL0     C25662  10.050   8.269   8.525  0.9598 -0.1575  0.1552
  191MOL0     C25663   9.951   8.235   8.631  0.7904 -0.5917 -0.3046
  191MOL0     C25664   9.815   8.295   8.588 -0.1479  0.2665 -0.1424
  191MOL0     C25665   9.698   8.232   8.673 -0.7284 -0.3750 -0.1985
  191MOL0     C25666   9.556   8.288   8.615 -0.2283  0.4458  0.1369
  191MOL0     N25667   9.534   8.431   8.645 -0.5746  0.2134  0.4016
  191MOL0     C25668   9.445   8.478   8.728 -1.3220 -0.0125 -0.1669
  191MOL0     C25669   9.453   8.615   8.728  0.2534  0.4215 -0.0782
  191MOL0     C25670   9.370   8.716   8.803 -0.0318 -0.3824 -0.2049
  191MOL0     C25671   9.223   8.726   8.751 -0.5483  0.8830 -0.4362
  191MOL0     C25672   9.150   8.851   8.785 -0.3302  0.8986 -0.4735
  191MOL0     C25673   9.007   8.850   8.741 -0.4140  1.1049  0.0030
  191MOL0     O25674   8.928   8.755   8.822  0.1393  0.0864  0.0583
  191MOL0     C25675   8.790   8.778   8.821 -0.1635 -0.4697  0.0365
  191MOL0     C25676   8.724   8.845   8.718  0.1756 -0.5693 -1.1788
  191MOL0     C25677   8.585   8.862   8.725  0.6408  0.6328  0.4295
  191MOL0     C25678   8.525   8.922   8.595  0.1329 -0.3729 -0.2261
  191MOL0     C25679   8.510   8.808   8.838  1.0192 -0.2562 -0.2173
  191MOL0     C25680   8.356   8.793   8.848  0.3266 -0.2559 -0.0391
  191MOL0     O25681   8.283   8.823   8.748  0.1393 -0.4856  0.6560
  191MOL0     C25682   8.154   8.786   8.732 -0.3605  0.7342 -0.3660
  191MOL0     C25683   8.122   8.664   8.686  1.0305 -0.0892  0.6780
  191MOL0     C25684   7.991   8.630   8.664  0.5190  0.5021 -0.3138
  191MOL0     C25685   7.884   8.721   8.702 -0.0095  0.8719 -0.5356
  191MOL0     O25686   7.751   8.677   8.681  0.1413 -0.1452  0.6180
  191MOL0     C25687   7.636   8.755   8.708  0.4870 -0.9033  0.9359
  191MOL0     C25688   7.602   8.863   8.609  0.2020  0.7031  0.4834
  191MOL0     C25689   7.576   8.804   8.470  0.5033 -0.1805  1.0775
  191MOL0     C25690   7.452   8.709   8.460 -0.4682 -0.2286  0.0033
  191MOL0     C25691   7.405   8.677   8.316  0.0038  0.0640 -0.2318
  191MOL0     C25692   7.476   8.559   8.245  1.0159 -0.3680  0.0881
  191MOL0     C25693   7.419   8.426   8.296 -0.6765  0.0734 -0.3446
  191MOL0     C25694   7.519   8.308   8.303  0.7465  0.1958 -0.0406
  191MOL0    Cl25695   7.624   8.275   8.165 -0.1744  0.0802  0.0552
  191MOL0     C25696   7.919   8.846   8.754  0.0450 -0.0561 -0.6712
  191MOL0     C25697   8.056   8.873   8.766  0.7338 -0.2082 -0.1111
  191MOL0     O25698   8.307   8.744   8.960  0.8555  0.0691 -0.1657
  191MOL0     C25699   8.576   8.741   8.940 -0.5301  0.5643 -0.0524
  191MOL0     C25700   8.715   8.726   8.918  0.2201 -0.3381 -0.3855
  191MOL0     N25701   9.548   8.647   8.630 -0.5399 -0.0673 -0.2788
  191MOL0     N25702   9.599   8.530   8.590  0.3034  0.1417  0.1225
  191MOL0     C25703  10.664   8.129   8.452 -0.3689  0.2997 -1.1375
  191MOL0     C25704  10.800   8.118   8.474 -0.6096 -0.5454  0.1919
  191MOL0     C25705  11.194   8.079   8.716 -0.4003 -0.2186 -0.3088
  191MOL0     C25706  11.262   8.143   8.826 -0.2958 -1.1544  0.3456
  191MOL0     C25707  11.394   8.133   8.845 -0.5717 -1.0089  0.9440
  191MOL0     C25708  11.469   8.051   8.763  0.0812 -0.5077  0.6713
  191MOL0     O25709  11.605   8.023   8.776  0.0758 -0.0855 -0.2786
  191MOL0     C25710  11.693   8.087   8.869 -0.2909  1.1422 -0.0511
  191MOL0     C25711  11.832   8.064   8.815 -0.0511  0.6580  0.1239
  191MOL0     C25712  11.836   8.055   8.661 -1.0176 -0.3762 -0.0985
  191MOL0     C25713  11.979   8.038   8.610  0.1890 -0.3585 -0.9459
  191MOL0     C25714  12.018   7.907   8.567  0.1268  0.5377 -0.1192
  191MOL0     C25715  12.077   7.805   8.537  0.6165 -0.3215 -1.2922
  191MOL0     C25716  11.406   7.998   8.650  0.3397  0.2394 -0.1757
  191MOL0     C25717  11.273   8.024   8.618  0.3016 -0.4050 -0.1427
  191MOL0     H25718  10.789   7.869   8.724 -3.9756  0.1284  0.6713
  191MOL0     H25719  10.553   7.903   8.663 -1.0750  1.2815 -0.0152
  191MOL0     H25720  10.368   7.954   8.691  2.6620 -0.4199 -0.1219
  191MOL0     H25721  10.390   8.116   8.735 -2.8105  2.3981  0.6454
  191MOL0     H25722  10.177   8.024   8.538 -1.0363  1.0101 -1.2461
  191MOL0     H25723  10.152   8.088   8.707  1.2454  2.5636  0.9259
  191MOL0     H25724  10.250   8.298   8.633 -0.6527 -0.8837  1.7436
  191MOL0     H25725  10.263   8.240   8.468  1.2789  0.8810  1.0314
  191MOL0     H25726  10.030   8.371   8.491 -2.1010 -1.4066 -2.3604
  191MOL0     H25727  10.030   8.213   8.433  1.7708  2.5139 -1.7990
  191MOL0     H25728   9.934   8.127   8.646  1.4575 -0.5084  1.3056
  191MOL0     H25729   9.972   8.278   8.729 -0.7167 -2.3153  0.8595
  191MOL0     H25730   9.813   8.399   8.622 -2.4436  0.6530 -1.2870
  191MOL0     H25731   9.793   8.304   8.481 -2.6452  0.2854  0.3161
  191MOL0     H25732   9.703   8.123   8.671  0.0145 -0.3345 -0.8467
  191MOL0     H25733   9.696   8.261   8.779 -2.4883 -2.4300  0.3935
  191MOL0     H25734   9.474   8.237   8.667 -1.7198  2.2621 -0.3256
  191MOL0     H25735   9.548   8.263   8.509  1.9447 -1.7274  0.4028
  191MOL0     H25736   9.389   8.410   8.791  1.0911 -0.1177  2.0098
  191MOL0     H25737   9.373   8.688   8.909 -0.0435 -0.2676 -0.1744
  191MOL0     H25738   9.415   8.814   8.785  1.7723 -1.0108  0.6850
  191MOL0     H25739   9.167   8.640   8.788  1.5789  0.1165  1.1967
  191MOL0     H25740   9.222   8.717   8.642 -2.1087 -1.1770 -0.3137
  191MOL0     H25741   9.208   8.924   8.728 -0.0098 -0.0873 -1.4203
  191MOL0     H25742   9.145   8.883   8.890 -0.4797  0.7492 -0.4346
  191MOL0     H25743   9.004   8.818   8.636  1.6669 -4.3427  1.2318
  191MOL0     H25744   8.971   8.951   8.720  0.1392  1.1822 -0.6108
  191MOL0     H25745   8.758   8.882   8.621 -1.3229  1.0622 -1.1449
  191MOL0     H25746   8.586   9.006   8.561 -1.0591 -0.0544 -1.6857
  191MOL0     H25747   8.515   8.844   8.518  0.6447 -0.4986 -0.1667
  191MOL0     H25748   8.421   8.952   8.614 -0.4383 -0.9296 -2.2262
  191MOL0     H25749   8.190   8.583   8.663 -2.1383 -2.3825 -1.4615
  191MOL0     H25750   7.966   8.536   8.616  0.9821 -0.6299  1.5247
  191MOL0     H25751   7.552   8.685   8.702 -1.1751  1.1254 -1.9300
  191MOL0     H25752   7.644   8.805   8.806 -2.7830  3.1713 -0.5554
  191MOL0     H25753   7.518   8.927   8.638  0.7841  0.9594  1.6952
  191MOL0     H25754   7.685   8.934   8.599  0.0222  0.7318 -1.1226
  191MOL0     H25755   7.666   8.750   8.439 -0.0596 -1.2208  1.2093
  191MOL0     H25756   7.575   8.882   8.394  2.4437 -0.1622  1.0255
  191MOL0     H25757   7.474   8.620   8.519  0.1346 -1.6448 -2.2478
  191MOL0     H25758   7.367   8.761   8.507 -0.7822 -1.1119  0.4370
  191MOL0     H25759   7.431   8.763   8.254  2.7563 -1.3238 -1.2100
  191MOL0     H25760   7.297   8.661   8.305  0.4519 -5.4956  0.6136
  191MOL0     H25761   7.442   8.567   8.141  2.5313  1.7837 -0.3009
  191MOL0     H25762   7.584   8.562   8.259  0.7892  0.4879  1.9803
  191MOL0     H25763   7.347   8.405   8.216 -1.3317 -1.5758  0.6426
  191MOL0     H25764   7.376   8.426   8.397  0.4528 -2.7147  0.2174
  191MOL0     H25765   7.468   8.215   8.328  3.8204 -1.9940 -1.2197
  191MOL0     H25766   7.581   8.326   8.391 -1.5413  1.4963  1.3789
  191MOL0     H25767   7.839   8.904   8.800 -1.0865 -1.1944 -1.1352
  191MOL0     H25768   8.088   8.968   8.805  0.2070 -1.0466  2.5536
  191MOL0     H25769   8.519   8.695   9.020  0.8412 -2.7147 -0.7747
  191MOL0     H25770   8.770   8.676   8.996 -1.3695 -2.4287 -0.5255
  191MOL0     H25771  10.610   8.195   8.384 -0.0784  1.3198 -0.4027
  191MOL0     H25772  10.880   8.173   8.426 -0.0937  0.8909  2.5557
  191MOL0     H25773  11.204   8.196   8.901  2.2876  1.4080  0.6779
  191MOL0     H25774  11.439   8.164   8.939  0.2307  1.5247 -0.1951
  191MOL0     H25775  11.667   8.193   8.866  2.5505  1.9759  1.5707
  191MOL0     H25776  11.678   8.043   8.968 -2.4398  1.8550 -0.0145
  191MOL0     H25777  11.876   7.974   8.859 -3.2627 -0.7215  0.8614
  191MOL0     H25778  11.887   8.154   8.843  2.0619  0.4468 -2.8767
  191MOL0     H25779  11.780   8.135   8.611  1.4611  0.1917 -2.1804
  191MOL0     H25780  11.791   7.962   8.625 -1.6201  0.0571 -0.4646
  191MOL0     H25781  12.046   8.068   8.691 -1.8514  0.5026  0.5334
  191MOL0     H25782  11.991   8.116   8.534  1.4141  1.7680  1.3021
  191MOL0     H25783  12.131   7.717   8.509 -0.2616 -1.5157  0.5527
  191MOL0     H25784  11.471   7.945   8.581  4.2660  1.3309  2.3502
  191MOL0     H25785  11.228   7.977   8.531 -4.2281  1.5478  0.8983
  192MOL0     O25786   5.654   2.415   6.281  0.3969 -0.5078  0.3849
  192MOL0     C25787   5.555   2.496   6.275 -0.5802  0.2052  0.2028
  192MOL0     O25788   5.431   2.462   6.304  0.0710 -0.0846  0.0958
  192MOL0     C25789   5.391   2.334   6.288  0.3756 -0.1547  0.4805
  192MOL0     C25790   5.295   2.286   6.378 -0.3805 -0.1633  0.3852
  192MOL0     C25791   5.235   2.160   6.356 -0.3689 -0.1965  0.0083
  192MOL0     C25792   5.247   2.095   6.236  1.0412 -0.5461 -0.1482
  192MOL0     O25793   5.168   1.991   6.200  0.3790 -0.7333  0.5689
  192MOL0     C25794   5.023   2.000   6.219  0.7183  0.3151 -0.4310
  192MOL0     C25795   4.973   1.861   6.253  1.0202  0.0552  0.1235
  192MOL0     C25796   4.828   1.826   6.265 -0.5320 -0.1093  0.9960
  192MOL0     C25797   4.739   1.883   6.151 -0.4196  0.5645  0.3300
  192MOL0     C25798   4.586   1.854   6.183 -0.3053  0.3880 -0.1151
  192MOL0     C25799   4.506   1.865   6.059 -0.8280  0.3749 -0.1760
  192MOL0     C25800   4.362   1.801   6.063 -0.4626 -0.7201 -0.8317
  192MOL0     C25801   4.321   1.745   5.929  0.1130 -0.9560  0.7472
  192MOL0     N25802   4.186   1.687   5.924  0.7341  0.0288  0.1884
  192MOL0     C25803   4.072   1.755   5.925 -0.4747  0.2463 -0.1404
  192MOL0     C25804   3.978   1.669   5.949  0.5983  0.0275  1.0694
  192MOL0     C25805   3.832   1.715   5.941 -0.0905 -0.0293 -0.0994
  192MOL0     C25806   3.737   1.593   5.988 -0.9017  0.0441 -0.5187
  192MOL0     C25807   3.583   1.617   5.944  1.6950  0.4812 -0.5426
  192MOL0     C25808   3.503   1.700   6.047 -0.1902 -0.6546 -0.2273
  192MOL0     O25809   3.524   1.841   5.996  0.4087  0.4298  0.2252
  192MOL0     C25810   3.434   1.886   5.901 -0.4084 -0.5709 -0.3974
  192MOL0     C25811   3.442   2.023   5.887  0.2437  0.4357 -0.0694
  192MOL0     C25812   3.354   2.096   5.801 -0.2285 -0.1207 -0.6559
  192MOL0     C25813   3.363   2.245   5.795 -0.6642  0.3423  0.2485
  192MOL0     C25814   3.263   2.027   5.712 -0.0031 -1.2693  0.5506
  192MOL0     C25815   3.179   2.083   5.604  0.7684 -0.4945  0.6792
  192MOL0     O25816   3.153   2.006   5.491 -0.0380  1.0473  0.2404
  192MOL0     C25817   3.103   2.077   5.382 -0.5092 -0.1135 -0.7221
  192MOL0     C25818   2.985   2.034   5.324 -0.3497  0.4457  0.2263
  192MOL0     C25819   2.934   2.094   5.212  0.1824  0.7897  0.3915
  192MOL0     C25820   2.994   2.209   5.167  1.0947 -0.0013 -0.0870
  192MOL0     O25821   2.953   2.280   5.059  0.1377  0.0818  0.7018
  192MOL0     C25822   2.880   2.215   4.961 -0.1919 -0.2064 -0.1655
  192MOL0     C25823   2.894   2.285   4.825 -0.4109 -0.1711  0.1460
  192MOL0     C25824   2.812   2.419   4.809  0.1099 -0.5875 -1.0294
  192MOL0     C25825   2.790   2.464   4.669  0.7810 -0.4809  0.1358
  192MOL0     C25826   2.742   2.617   4.663 -0.3020  0.7427 -0.3528
  192MOL0     C25827   2.676   2.644   4.528 -0.2294  0.3771 -0.1963
  192MOL0     C25828   2.765   2.632   4.406  1.1316  0.2134 -0.5648
  192MOL0     C25829   2.917   2.673   4.419 -0.4626  0.1696  0.0345
  192MOL0    Cl25830   2.995   2.651   4.245  0.1343 -0.2962  0.3925
  192MOL0     C25831   3.102   2.253   5.235 -0.1092  0.1210  0.4248
  192MOL0     C25832   3.165   2.193   5.342  0.1492 -0.3925 -0.0573
  192MOL0     O25833   3.125   2.186   5.629  0.2341 -0.2793 -0.0564
  192MOL0     C25834   3.258   1.888   5.735 -0.1086 -0.2922 -0.0939
  192MOL0     C25835   3.341   1.816   5.823 -0.6534  0.8876  0.2653
  192MOL0     N25836   4.035   1.543   5.975 -0.7084 -0.1139  0.2713
  192MOL0     N25837   4.167   1.562   5.961 -0.1528 -0.1649 -0.6147
  192MOL0     C25838   5.349   2.143   6.147  0.6703  0.1978  0.2167
  192MOL0     C25839   5.423   2.259   6.176 -0.5797 -0.1416 -0.6391
  192MOL0     C25840   5.581   2.639   6.248 -0.4313 -0.0437  0.2584
  192MOL0     C25841   5.708   2.688   6.241 -0.1608  0.1804 -0.5043
  192MOL0     C25842   5.732   2.825   6.201  0.0545 -0.7217  0.1744
  192MOL0     C25843   5.628   2.917   6.190  0.7956 -0.7288  0.0422
  192MOL0     O25844   5.660   3.046   6.159  0.1278  0.1500  0.4644
  192MOL0     C25845   5.545   3.136   6.149 -0.8341 -0.5621  0.7981
  192MOL0     C25846   5.609   3.261   6.096  0.1628  0.4520  0.0222
  192MOL0     C25847   5.503   3.366   6.079  0.2805  0.7396 -0.9955
  192MOL0     C25848   5.573   3.492   6.027 -0.7174  0.3821 -0.6117
  192MOL0     C25849   5.483   3.600   5.984  0.0779 -0.8114  0.5946
  192MOL0     C25850   5.396   3.663   5.934  0.1238 -0.7445  0.6117
  192MOL0     C25851   5.494   2.871   6.215 -0.4771 -0.3385  0.1861
  192MOL0     C25852   5.475   2.735   6.231 -0.3031 -0.0332 -0.1929
  192MOL0     H25853   5.275   2.354   6.460 -1.4480  0.1571 -0.1181
  192MOL0     H25854   5.169   2.117   6.430 -1.6906  2.2463  0.3571
  192MOL0     H25855   5.002   2.080   6.292  7.0030  3.1537 -1.0446
  192MOL0     H25856   4.972   2.035   6.129  2.2922  1.2923 -0.9863
  192MOL0     H25857   5.000   1.804   6.163  2.4593 -1.0691  1.2349
  192MOL0     H25858   5.027   1.816   6.337  0.3567 -0.0494  0.5010
  192MOL0     H25859   4.814   1.718   6.270  2.4648 -0.5143  3.1002
  192MOL0     H25860   4.786   1.878   6.352 -0.6055  0.3665  0.6845
  192MOL0     H25861   4.760   1.989   6.138  1.1937  0.1480 -0.7117
  192MOL0     H25862   4.763   1.820   6.065 -1.9312 -1.3307  1.1997
  192MOL0     H25863   4.586   1.748   6.207 -0.6110 -0.3842 -3.1662
  192MOL0     H25864   4.543   1.921   6.259 -1.0063 -0.1046 -0.0728
  192MOL0     H25865   4.494   1.973   6.048  0.9892  0.6451  0.1760
  192MOL0     H25866   4.561   1.816   5.977 -1.1911  0.7842 -0.6714
  192MOL0     H25867   4.354   1.711   6.124 -2.2264 -0.0955 -0.0587
  192MOL0     H25868   4.293   1.867   6.118  2.4047  0.4018  1.6890
  192MOL0     H25869   4.395   1.674   5.890 -0.2589 -0.2411 -1.3867
  192MOL0     H25870   4.311   1.828   5.859  0.4972  0.9187  2.8045
  192MOL0     H25871   4.074   1.862   5.904  0.8388  0.1943 -0.3448
  192MOL0     H25872   3.813   1.804   6.002  0.6738 -0.6470  1.0641
  192MOL0     H25873   3.802   1.727   5.836 -1.7461 -0.2929  0.3074
  192MOL0     H25874   3.741   1.575   6.096  2.8219 -1.5321 -0.7622
  192MOL0     H25875   3.770   1.498   5.943  0.1819 -0.0803  0.4973
  192MOL0     H25876   3.538   1.517   5.948  1.1032  0.7161 -1.0891
  192MOL0     H25877   3.577   1.650   5.840  2.0249 -0.5797 -0.9070
  192MOL0     H25878   3.544   1.679   6.146  0.9993 -1.8826 -0.9305
  192MOL0     H25879   3.397   1.675   6.049 -0.7711  1.6829  0.3970
  192MOL0     H25880   3.505   2.085   5.950 -1.5793 -0.0126  2.3609
  192MOL0     H25881   3.416   2.287   5.881  1.9462 -2.3462  0.1259
  192MOL0     H25882   3.431   2.278   5.716 -1.2505 -0.2160 -0.4960
  192MOL0     H25883   3.263   2.288   5.788 -1.9133 -2.5627 -1.5485
  192MOL0     H25884   2.929   1.946   5.354  1.1933 -0.5042  0.4463
  192MOL0     H25885   2.855   2.042   5.158  0.9176 -1.8457  1.6574
  192MOL0     H25886   2.909   2.110   4.947 -0.3255 -0.1836 -0.6416
  192MOL0     H25887   2.774   2.212   4.990 -0.8619 -2.1139 -2.4730
  192MOL0     H25888   3.001   2.306   4.818 -0.8867  2.2836 -0.6193
  192MOL0     H25889   2.868   2.219   4.741 -1.1245  1.2480 -0.7907
  192MOL0     H25890   2.866   2.495   4.866 -0.6269 -0.6642 -0.2097
  192MOL0     H25891   2.715   2.419   4.859  0.6990  0.6521  0.1888
  192MOL0     H25892   2.880   2.453   4.607  1.2289 -1.8298  0.9786
  192MOL0     H25893   2.712   2.404   4.622  0.1639 -0.7936  1.5033
  192MOL0     H25894   2.819   2.684   4.702 -0.8389 -0.7616  3.8150
  192MOL0     H25895   2.665   2.627   4.741  1.6947  2.3955  1.5234
  192MOL0     H25896   2.593   2.573   4.522 -1.4441  1.6860  0.4295
  192MOL0     H25897   2.635   2.745   4.538 -1.4930 -0.0857 -0.4620
  192MOL0     H25898   2.706   2.682   4.329  0.9575  0.4259 -0.2920
  192MOL0     H25899   2.750   2.528   4.374 -1.3137  0.0654  0.7688
  192MOL0     H25900   2.985   2.622   4.487  1.7653  2.6723 -0.1705
  192MOL0     H25901   2.928   2.777   4.452 -2.0001 -0.3297  2.3575
  192MOL0     H25902   3.144   2.345   5.195 -0.5738 -0.0133 -0.4050
  192MOL0     H25903   3.258   2.226   5.388  0.4585  1.7084 -2.0448
  192MOL0     H25904   3.189   1.826   5.678 -0.4007  0.6443 -0.7841
  192MOL0     H25905   3.325   1.709   5.827  4.6306 -0.1413  0.9624
  192MOL0     H25906   5.362   2.095   6.051  1.1022  4.8712 -2.3580
  192MOL0     H25907   5.482   2.306   6.097 -1.0686  0.2950 -0.7547
  192MOL0     H25908   5.795   2.623   6.241 -0.6884 -0.5519 -1.6185
  192MOL0     H25909   5.833   2.856   6.179  0.0471 -0.0762  0.9874
  192MOL0     H25910   5.467   3.097   6.082 -2.3095  1.0930  1.4943
  192MOL0     H25911   5.497   3.150   6.246 -0.3391  0.4956  0.9086
  192MOL0     H25912   5.640   3.237   5.994 -1.3963  0.7580 -0.5468
  192MOL0     H25913   5.699   3.288   6.153 -0.7667  3.3844  0.2614
  192MOL0     H25914   5.452   3.372   6.176 -1.4634 -1.6891 -1.6551
  192MOL0     H25915   5.423   3.318   6.022 -0.6268 -2.3000  2.4748
  192MOL0     H25916   5.632   3.468   5.937  1.5212  0.6748  0.7069
  192MOL0     H25917   5.644   3.536   6.097 -2.2475 -0.2465  1.4132
  192MOL0     H25918   5.320   3.728   5.895  1.9165  1.5890  0.7444
  192MOL0     H25919   5.405   2.933   6.209  0.0530  0.4051 -0.0541
  192MOL0     H25920   5.376   2.696   6.248  0.5798 -1.4590  2.0810
  193MOL0     O25921   1.458   5.288   3.300 -0.6538 -0.4592 -0.1560
  193MOL0     C25922   1.527   5.218   3.229 -0.3644  1.0807 -0.3248
  193MOL0     O25923   1.495   5.187   3.101 -0.1410 -0.5931  0.7496
  193MOL0     C25924   1.378   5.229   3.041 -0.5417  0.6739  0.4495
  193MOL0     C25925   1.302   5.127   2.981 -0.1542 -0.5573  0.3614
  193MOL0     C25926   1.177   5.168   2.924  0.6098 -0.3410  0.1963
  193MOL0     C25927   1.139   5.298   2.898  0.1942  0.2397 -0.0164
  193MOL0     O25928   1.039   5.336   2.825  0.7771 -0.1195  0.5943
  193MOL0     C25929   0.912   5.292   2.885  0.4486  0.2083  0.5081
  193MOL0     C25930   0.838   5.227   2.770  0.0205 -0.1371 -0.1666
  193MOL0     C25931   0.690   5.237   2.789  0.5463 -0.0584 -0.0092
  193MOL0     C25932   0.656   5.139   2.905  0.3056 -0.6599  0.3077
  193MOL0     C25933   0.494   5.131   2.918  0.3801  0.9881 -0.0075
  193MOL0     C25934   0.476   5.045   3.038  0.6079  0.1759 -0.0936
  193MOL0     C25935   0.325   5.030   3.045 -0.4926  0.4774  0.2949
  193MOL0     C25936   0.314   4.944   3.169 -0.6077  0.4289 -0.6209
  193MOL0     N25937   0.174   4.906   3.186 -0.1432  0.4269 -0.4951
  193MOL0     C25938   0.131   4.776   3.178  0.0717  0.5054  0.2709
  193MOL0     C25939   0.006   4.765   3.217 -0.3356 -0.6532 -0.0821
  193MOL0     C25940  -0.073   4.645   3.194 -0.8105 -0.2659  0.0888
  193MOL0     C25941  -0.121   4.640   3.049 -0.6199  0.3677 -0.0990
  193MOL0     C25942  -0.197   4.511   3.025 -0.6943 -0.2474  0.4313
  193MOL0     C25943  -0.260   4.495   2.891  0.7665 -0.7955  0.2119
  193MOL0     O25944  -0.338   4.376   2.875 -0.1669 -0.8657  0.0155
  193MOL0     C25945  -0.473   4.371   2.881 -0.4077  0.5610 -0.5710
  193MOL0     C25946  -0.544   4.440   2.983 -0.5108  0.2917  0.4418
  193MOL0     C25947  -0.685   4.429   3.001  0.2148  0.3393 -0.2582
  193MOL0     C25948  -0.753   4.499   3.122  0.2913  0.8642 -0.2648
  193MOL0     C25949  -0.750   4.344   2.908  0.1737 -0.2294 -0.1227
  193MOL0     C25950  -0.897   4.305   2.912 -0.4201 -0.6292 -0.1128
  193MOL0     O25951  -0.927   4.185   2.875  0.1781  0.1491 -0.4631
  193MOL0     C25952  -1.062   4.152   2.860  0.6681  0.6814 -0.5117
  193MOL0     C25953  -1.134   4.200   2.747  0.6234 -0.2558 -0.4700
  193MOL0     C25954  -1.273   4.162   2.728  0.0870  0.1104 -0.8035
  193MOL0     C25955  -1.329   4.079   2.823  0.5445  0.0520  0.0760
  193MOL0     O25956  -1.463   4.034   2.820 -0.3178 -0.4501  0.8104
  193MOL0     C25957  -1.541   4.073   2.711  0.1563  0.1633  1.2770
  193MOL0     C25958  -1.682   4.022   2.721  0.3570 -0.2287 -0.3407
  193MOL0     C25959  -1.755   4.097   2.832  0.9353  0.0867  1.0320
  193MOL0     C25960  -1.880   4.008   2.875  0.3211 -0.0704 -0.1028
  193MOL0     C25961  -1.975   4.084   2.973 -0.5422 -0.1300 -0.4526
  193MOL0     C25962  -2.105   4.006   3.007  0.3977  0.3863  1.1875
  193MOL0     C25963  -2.200   4.095   3.083 -2.0452  0.0283  0.3855
  193MOL0     C25964  -2.289   4.181   2.989 -0.5734 -0.0643  0.0754
  193MOL0    Cl25965  -2.372   4.309   3.082  0.1209  0.0323 -0.7653
  193MOL0     C25966  -1.262   4.038   2.937 -0.5487  0.0841 -0.2656
  193MOL0     C25967  -1.127   4.069   2.950  1.1854 -0.3366 -0.2247
  193MOL0     O25968  -0.969   4.381   2.975 -0.6341  1.4614 -0.5047
  193MOL0     C25969  -0.679   4.280   2.810 -0.9716  0.3308 -0.9519
  193MOL0     C25970  -0.543   4.277   2.803 -0.4362 -0.7151  0.2935
  193MOL0     N25971  -0.025   4.901   3.246 -0.1227  0.5054 -1.0182
  193MOL0     N25972   0.076   4.983   3.234 -0.3915 -0.0822  0.0586
  193MOL0     C25973   1.216   5.404   2.953 -1.0976  0.1162 -0.7473
  193MOL0     C25974   1.341   5.362   3.015 -0.0344 -0.1630 -0.3874
  193MOL0     C25975   1.660   5.175   3.271  0.3628 -0.2681 -0.5665
  193MOL0     C25976   1.719   5.220   3.390 -0.3690  0.5634  1.1416
  193MOL0     C25977   1.849   5.182   3.418 -0.5861  0.0101  0.2508
  193MOL0     C25978   1.924   5.097   3.336 -0.7400  0.7752  0.4852
  193MOL0     O25979   2.051   5.055   3.360 -1.0468  0.3245  0.1962
  193MOL0     C25980   2.126   5.111   3.466 -0.2983  0.1091  0.8824
  193MOL0     C25981   2.283   5.081   3.450  0.3895 -0.1361  0.3982
  193MOL0     C25982   2.374   5.127   3.565  0.2706  0.1002  0.2047
  193MOL0     C25983   2.500   5.193   3.506 -0.6164 -0.0363 -0.4523
  193MOL0     C25984   2.463   5.322   3.438  0.5982  0.9227  0.6353
  193MOL0     C25985   2.440   5.423   3.360  0.9730 -0.1762 -0.0803
  193MOL0     C25986   1.866   5.067   3.221  1.2787 -0.7559  1.0898
  193MOL0     C25987   1.740   5.095   3.189  1.5328 -0.0846 -0.0600
  193MOL0     H25988   1.340   5.026   2.995  0.1259 -0.4539  0.3529
  193MOL0     H25989   1.110   5.090   2.892 -0.3396  0.6281 -0.2405
  193MOL0     H25990   0.926   5.218   2.965 -1.0100 -0.0577  0.5481
  193MOL0     H25991   0.857   5.372   2.934  0.7550  1.9956 -1.9079
  193MOL0     H25992   0.859   5.279   2.676 -0.0310 -1.1285 -0.7409
  193MOL0     H25993   0.866   5.121   2.766  1.1433  0.1834 -1.9111
  193MOL0     H25994   0.661   5.337   2.822 -0.8420 -0.2222 -0.6730
  193MOL0     H25995   0.632   5.203   2.703 -0.3206 -1.5332  1.1115
  193MOL0     H25996   0.689   5.038   2.879 -2.0617 -1.0839 -1.4011
  193MOL0     H25997   0.709   5.177   2.993  1.6356  1.0139 -1.1142
  193MOL0     H25998   0.452   5.231   2.929  1.3022  1.4818 -0.7631
  193MOL0     H25999   0.442   5.081   2.836 -2.6425  0.4519  2.1024
  193MOL0     H26000   0.524   4.947   3.025  0.5642  0.2962 -1.3154
  193MOL0     H26001   0.520   5.094   3.125  2.2539  1.0106 -1.3347
  193MOL0     H26002   0.271   5.124   3.059  0.3009  0.6890  2.1529
  193MOL0     H26003   0.284   4.974   2.960 -2.5857 -0.6249  1.9619
  193MOL0     H26004   0.356   4.984   3.262  0.0421  1.1016 -1.1908
  193MOL0     H26005   0.363   4.847   3.150  0.5339  0.1559  3.0303
  193MOL0     H26006   0.199   4.701   3.138  1.8317  1.6372  1.0198
  193MOL0     H26007  -0.018   4.553   3.213  1.5134  0.7089 -1.4446
  193MOL0     H26008  -0.148   4.662   3.272  0.3638  4.1663  0.5486
  193MOL0     H26009  -0.028   4.627   2.992 -1.6734  2.1880 -2.4542
  193MOL0     H26010  -0.179   4.728   3.019  1.6597  3.2510  3.1953
  193MOL0     H26011  -0.284   4.514   3.090 -1.6084 -1.7094 -0.6780
  193MOL0     H26012  -0.129   4.428   3.046 -1.1420 -0.1070  2.6370
  193MOL0     H26013  -0.184   4.483   2.813  1.2683 -0.6978  0.6770
  193MOL0     H26014  -0.319   4.584   2.867 -0.1678 -1.7554 -1.1253
  193MOL0     H26015  -0.497   4.503   3.058 -0.9274 -0.8835  1.7272
  193MOL0     H26016  -0.784   4.423   3.194  2.2131 -0.2380 -0.5224
  193MOL0     H26017  -0.685   4.571   3.169 -0.2797  0.6711  0.8806
  193MOL0     H26018  -0.845   4.557   3.112 -0.0186  0.6878  1.2378
  193MOL0     H26019  -1.090   4.260   2.668  0.1190 -2.0710 -2.2379
  193MOL0     H26020  -1.336   4.196   2.647 -0.3528  1.6774  0.1519
  193MOL0     H26021  -1.533   4.180   2.689 -1.1871 -0.1250 -0.9129
  193MOL0     H26022  -1.497   4.034   2.619 -3.3241  0.8500 -0.8896
  193MOL0     H26023  -1.728   4.041   2.624  1.7506  0.0624 -0.9772
  193MOL0     H26024  -1.679   3.915   2.745  1.2977 -0.1549 -0.0987
  193MOL0     H26025  -1.799   4.185   2.784 -3.7393 -2.1893  0.5680
  193MOL0     H26026  -1.691   4.134   2.912  3.5784 -2.9263  0.5219
  193MOL0     H26027  -1.932   3.975   2.785  0.4752  0.8698 -0.5461
  193MOL0     H26028  -1.837   3.922   2.927  1.2229  0.5528  0.2212
  193MOL0     H26029  -2.005   4.175   2.919 -1.6178  0.2656  0.7567
  193MOL0     H26030  -1.922   4.113   3.064  2.1054  0.1727 -1.9743
  193MOL0     H26031  -2.149   3.965   2.915 -3.8144  2.9470  1.8047
  193MOL0     H26032  -2.097   3.917   3.071 -1.9120 -0.7108  0.0585
  193MOL0     H26033  -2.132   4.153   3.145 -1.3890  0.2793 -0.5438
  193MOL0     H26034  -2.257   4.017   3.134 -2.4287  0.2782  0.3412
  193MOL0     H26035  -2.372   4.123   2.946  1.1660 -0.5536 -2.8768
  193MOL0     H26036  -2.222   4.215   2.910  1.9807 -1.7396  1.3685
  193MOL0     H26037  -1.326   3.985   3.008  1.0742  1.3930  2.3300
  193MOL0     H26038  -1.072   4.040   3.039 -0.6486  1.1015  1.4744
  193MOL0     H26039  -0.735   4.212   2.748 -3.0689 -1.8717  2.9545
  193MOL0     H26040  -0.481   4.212   2.742  0.9936  0.3305  0.5966
  193MOL0     H26041   1.194   5.509   2.939  0.2878  0.3938 -0.9673
  193MOL0     H26042   1.406   5.433   3.065 -2.7804  1.2902  1.3575
  193MOL0     H26043   1.671   5.291   3.456 -0.2920  0.5791  1.1813
  193MOL0     H26044   1.884   5.226   3.511  1.3266  0.8605 -0.8219
  193MOL0     H26045   2.110   5.217   3.447  0.9518 -0.2120 -2.5881
  193MOL0     H26046   2.087   5.076   3.563 -0.5167  1.1864  1.1917
  193MOL0     H26047   2.310   5.129   3.356 -2.6595  0.5694 -0.2378
  193MOL0     H26048   2.290   4.972   3.440  1.4218 -0.1429  1.0687
  193MOL0     H26049   2.397   5.036   3.621 -0.8117 -0.1977  0.1862
  193MOL0     H26050   2.315   5.194   3.627 -0.3846  0.2137 -0.5198
  193MOL0     H26051   2.544   5.126   3.432  0.2764 -3.7878  3.1101
  193MOL0     H26052   2.580   5.215   3.577 -1.8431  0.2884  0.8708
  193MOL0     H26053   2.412   5.513   3.311  1.1720  0.2321  0.5441
  193MOL0     H26054   1.915   5.011   3.143 -1.8273  0.9610 -2.4394
  193MOL0     H26055   1.712   5.054   3.093 -1.2597  2.8992 -0.7034
  194MOL0     O26056   1.463   4.394   1.030  0.4541 -0.3228 -0.3530
  194MOL0     C26057   1.376   4.319   1.001  0.3393  0.8354  0.8535
  194MOL0     O26058   1.259   4.304   1.067 -0.1008 -0.3020 -0.1097
  194MOL0     C26059   1.232   4.395   1.169  0.4618  0.2454 -0.2509
  194MOL0     C26060   1.264   4.364   1.300  0.8726  0.3415  0.2407
  194MOL0     C26061   1.239   4.462   1.394  0.0853  1.0447 -0.4079
  194MOL0     C26062   1.174   4.583   1.359 -0.3231 -0.3251 -0.1818
  194MOL0     O26063   1.135   4.670   1.449 -0.5914 -0.7075  0.2697
  194MOL0     C26064   1.206   4.666   1.573 -0.1073 -0.4446  0.2105
  194MOL0     C26065   1.166   4.797   1.657 -0.8717  0.2683  1.0381
  194MOL0     C26066   1.276   4.828   1.768  1.3245  0.3229  0.1806
  194MOL0     C26067   1.223   4.941   1.855 -0.0034 -0.9346 -0.2543
  194MOL0     C26068   1.295   4.944   1.994 -0.0695  0.7898  0.3473
  194MOL0     C26069   1.430   5.012   1.986 -0.4388 -0.8017 -0.4501
  194MOL0     C26070   1.417   5.166   1.985 -0.3260 -0.3971  0.7344
  194MOL0     C26071   1.554   5.237   1.960 -0.3431  0.7850 -0.6642
  194MOL0     N26072   1.617   5.211   1.828  0.3576  0.3130 -0.1006
  194MOL0     C26073   1.743   5.237   1.795 -1.3166  0.1385 -0.5886
  194MOL0     C26074   1.754   5.234   1.664 -0.7942  0.0441  0.0155
  194MOL0     C26075   1.885   5.248   1.594  0.5276  0.3978  0.7409
  194MOL0     C26076   1.975   5.129   1.614 -0.4514  0.2705  0.5204
  194MOL0     C26077   1.923   5.003   1.557  0.0455  0.6467 -0.2009
  194MOL0     C26078   1.882   5.010   1.406 -0.5585  0.3394 -0.7674
  194MOL0     O26079   1.977   5.087   1.339  0.1548 -0.1289 -1.0170
  194MOL0     C26080   1.954   5.109   1.204  0.5109  0.1050  0.1688
  194MOL0     C26081   1.842   5.063   1.124  0.0290  0.6940 -0.4337
  194MOL0     C26082   1.821   5.098   0.991  0.1100 -0.3632 -0.1011
  194MOL0     C26083   1.677   5.078   0.957 -0.4671 -0.0085 -0.3343
  194MOL0     C26084   1.920   5.160   0.920  0.7231  0.1673  0.6300
  194MOL0     C26085   1.908   5.219   0.775 -1.4013 -0.2401  0.5022
  194MOL0     O26086   1.826   5.153   0.685 -0.3622 -0.1908  0.2381
  194MOL0     C26087   1.800   5.182   0.556 -0.4898 -0.1476  0.3020
  194MOL0     C26088   1.881   5.256   0.473 -0.4693  0.3048  0.3674
  194MOL0     C26089   1.853   5.285   0.343 -0.5333 -0.7367 -0.3388
  194MOL0     C26090   1.723   5.250   0.290  1.6777  0.4191  0.1846
  194MOL0     O26091   1.674   5.278   0.160 -0.5458 -0.1696 -0.2675
  194MOL0     C26092   1.771   5.297   0.051 -0.7160  0.1718 -0.0235
  194MOL0     C26093   1.693   5.349  -0.064  0.1888  0.4672 -1.8519
  194MOL0     C26094   1.569   5.265  -0.113 -0.6627 -1.2774 -0.5628
  194MOL0     C26095   1.446   5.290  -0.031  0.0872  0.1167  0.5876
  194MOL0     C26096   1.325   5.245  -0.116  0.2997 -0.1324 -0.4502
  194MOL0     C26097   1.196   5.265  -0.040 -0.4684 -0.0901  0.7023
  194MOL0     C26098   1.080   5.221  -0.126  0.2121  0.2939  0.1175
  194MOL0     C26099   0.941   5.284  -0.081  0.0248 -0.9487  0.0091
  194MOL0    Cl26100   0.804   5.180  -0.123 -0.1080  0.2163 -0.3511
  194MOL0     C26101   1.642   5.163   0.364 -0.2120 -0.2533  0.0880
  194MOL0     C26102   1.683   5.126   0.499  0.2394 -0.4590 -0.9059
  194MOL0     O26103   1.974   5.324   0.750 -0.3580  0.3857 -0.2574
  194MOL0     C26104   2.037   5.199   0.993  0.2623  0.2897  0.0874
  194MOL0     C26105   2.058   5.169   1.130 -0.1437  0.5766  0.3164
  194MOL0     N26106   1.640   5.196   1.612  0.5818 -0.5703 -0.1580
  194MOL0     N26107   1.561   5.177   1.714  0.8939 -0.0043  0.6163
  194MOL0     C26108   1.151   4.618   1.222 -0.7777 -0.1470 -0.5551
  194MOL0     C26109   1.182   4.520   1.130 -0.6510  0.8332 -0.7494
  194MOL0     C26110   1.392   4.256   0.876 -0.4448  0.2681  0.7099
  194MOL0     C26111   1.502   4.278   0.794  0.8437  0.6153  0.1655
  194MOL0     C26112   1.527   4.211   0.672 -0.2586 -0.0797  0.0353
  194MOL0     C26113   1.430   4.113   0.618 -0.4581  0.3927 -1.3220
  194MOL0     O26114   1.451   4.027   0.516 -0.8255  0.2563 -0.3528
  194MOL0     C26115   1.554   4.064   0.418 -0.7193  0.3109 -0.5395
  194MOL0     C26116   1.550   3.954   0.315 -0.2903  0.0939 -0.2187
  194MOL0     C26117   1.416   3.942   0.249 -0.7482  0.4336  0.0831
  194MOL0     C26118   1.414   3.851   0.122 -0.1149  0.8533  0.0084
  194MOL0     C26119   1.279   3.839   0.071  0.0279 -0.1809 -0.4593
  194MOL0     C26120   1.162   3.833   0.033 -0.0122 -0.6963 -0.0220
  194MOL0     C26121   1.323   4.087   0.707  0.5202 -0.9318  0.0915
  194MOL0     C26122   1.298   4.166   0.817 -0.7979  0.7125  0.5853
  194MOL0     H26123   1.310   4.271   1.332 -0.0932  0.2347  1.4130
  194MOL0     H26124   1.257   4.431   1.496  2.2355  0.3729 -0.9464
  194MOL0     H26125   1.170   4.579   1.628 -0.5116 -0.4595 -0.0779
  194MOL0     H26126   1.315   4.663   1.561  0.0089  1.5531  0.3038
  194MOL0     H26127   1.164   4.884   1.590 -0.1435  0.1129  0.8076
  194MOL0     H26128   1.064   4.780   1.691 -0.8262 -2.8728 -0.0286
  194MOL0     H26129   1.285   4.735   1.825 -0.8982  0.2471  0.4886
  194MOL0     H26130   1.372   4.844   1.719  0.6823  2.5294 -0.4688
  194MOL0     H26131   1.239   5.037   1.807 -1.0914  0.6105  2.2372
  194MOL0     H26132   1.113   4.941   1.858  0.0127 -1.0166  0.7823
  194MOL0     H26133   1.224   5.009   2.045  0.1236 -0.4057  2.2245
  194MOL0     H26134   1.304   4.843   2.034  0.3632  0.5536 -0.3356
  194MOL0     H26135   1.484   4.982   2.076  0.2233  4.2994  1.1629
  194MOL0     H26136   1.469   4.981   1.889 -0.3979 -1.9884 -0.0688
  194MOL0     H26137   1.348   5.197   1.906 -0.0187  0.6883  0.8727
  194MOL0     H26138   1.394   5.200   2.087  0.3710  0.3513  0.6496
  194MOL0     H26139   1.631   5.188   2.021  1.4082  0.0223 -3.2945
  194MOL0     H26140   1.551   5.343   1.987  3.7125  0.7758  0.4583
  194MOL0     H26141   1.821   5.261   1.866 -0.4330 -0.0727 -1.4629
  194MOL0     H26142   1.857   5.255   1.489 -2.9574 -2.1519  1.3063
  194MOL0     H26143   1.926   5.345   1.623  2.1253 -0.4177  1.3365
  194MOL0     H26144   2.008   5.123   1.718  0.3480 -0.3611  0.2397
  194MOL0     H26145   2.062   5.161   1.555 -2.8253 -0.2008 -3.5442
  194MOL0     H26146   1.839   4.966   1.617  0.2700 -0.7949 -0.7260
  194MOL0     H26147   2.007   4.932   1.558  1.6449  2.4208 -1.2354
  194MOL0     H26148   1.783   5.056   1.407 -1.5293 -1.5757  1.4227
  194MOL0     H26149   1.873   4.911   1.360  3.3656 -1.0195  0.9413
  194MOL0     H26150   1.767   5.012   1.184  1.0979 -0.7602 -0.2580
  194MOL0     H26151   1.644   4.974   0.970  1.5454 -0.3232  5.3710
  194MOL0     H26152   1.610   5.138   1.019  0.8991 -0.0368  1.2301
  194MOL0     H26153   1.664   5.110   0.854  0.1940  3.1890  0.4691
  194MOL0     H26154   1.981   5.283   0.505  0.2601 -2.8685  1.1258
  194MOL0     H26155   1.929   5.336   0.284 -1.9930  1.3477 -0.5142
  194MOL0     H26156   1.851   5.362   0.087  1.3998 -2.6902  0.7395
  194MOL0     H26157   1.821   5.202   0.029 -1.4722  0.0867 -1.5105
  194MOL0     H26158   1.673   5.453  -0.036  0.9143  0.5163 -1.5029
  194MOL0     H26159   1.762   5.353  -0.148  1.5252  0.6224 -0.7771
  194MOL0     H26160   1.594   5.159  -0.107  1.4981 -0.8270 -0.7604
  194MOL0     H26161   1.553   5.277  -0.220 -1.1430 -2.3733 -0.6243
  194MOL0     H26162   1.454   5.234   0.063 -0.7272  0.3344  0.7925
  194MOL0     H26163   1.430   5.397  -0.015 -0.6590  0.0357  0.4334
  194MOL0     H26164   1.342   5.142  -0.147 -1.2303 -0.8707  1.0193
  194MOL0     H26165   1.320   5.308  -0.206 -1.0831  0.0968 -0.2369
  194MOL0     H26166   1.189   5.209   0.054  2.5763 -1.5219  0.2044
  194MOL0     H26167   1.184   5.369  -0.007 -1.2981 -0.7634  2.6496
  194MOL0     H26168   1.083   5.113  -0.113 -0.6918  0.3079  0.4670
  194MOL0     H26169   1.099   5.244  -0.231 -0.6179 -2.7641 -0.7876
  194MOL0     H26170   0.943   5.388  -0.116  3.3174  0.6640  4.0176
  194MOL0     H26171   0.942   5.294   0.028 -2.9194 -0.6135  0.0876
  194MOL0     H26172   1.551   5.120   0.324 -0.2729 -1.8546  1.7704
  194MOL0     H26173   1.612   5.069   0.557 -1.2232  1.3467 -0.8466
  194MOL0     H26174   2.122   5.247   0.946  1.2000 -0.9726  0.4253
  194MOL0     H26175   2.149   5.208   1.176  0.6541 -1.9776  1.0744
  194MOL0     H26176   1.111   4.710   1.182  0.0811  0.1755 -0.6894
  194MOL0     H26177   1.183   4.535   1.022 -0.9385 -0.5415 -0.9566
  194MOL0     H26178   1.586   4.340   0.826  1.1187 -0.7880  2.3523
  194MOL0     H26179   1.615   4.241   0.616 -0.6223 -1.9594 -1.6841
  194MOL0     H26180   1.554   4.161   0.367  0.9504 -0.4080 -2.0363
  194MOL0     H26181   1.656   4.064   0.458  0.3197  1.2064 -3.0231
  194MOL0     H26182   1.573   3.865   0.375  0.9069  1.6735  1.7928
  194MOL0     H26183   1.629   3.964   0.240 -2.6354 -3.0868 -3.4312
  194MOL0     H26184   1.381   4.038   0.211 -1.5002 -0.0496 -0.4752
  194MOL0     H26185   1.335   3.896   0.307 -1.7732 -0.2265 -1.7845
  194MOL0     H26186   1.437   3.751   0.160 -1.5974  0.5843  0.2773
  194MOL0     H26187   1.481   3.885   0.043 -1.5612  0.6085 -1.3651
  194MOL0     H26188   1.057   3.829   0.015 -0.3759  0.9961  1.3660
  194MOL0     H26189   1.252   4.010   0.677 -1.3947  0.8539 -0.1385
  194MOL0     H26190   1.219   4.136   0.885 -1.0996  2.3122  0.9799
  195MOL0     O26191  10.137   0.198   5.483 -0.0878 -0.1468 -0.9906
  195MOL0     C26192  10.226   0.182   5.399  0.6917  0.7494 -0.0442
  195MOL0     O26193  10.194   0.178   5.264 -0.0638 -1.1741  0.1804
  195MOL0     C26194  10.067   0.176   5.216 -0.0816  1.1607  0.1592
  195MOL0     C26195  10.039   0.249   5.103  0.9440 -0.7695  0.8547
  195MOL0     C26196   9.908   0.250   5.050  0.5191  0.0136  0.0099
  195MOL0     C26197   9.809   0.165   5.103 -0.3714  0.1350 -0.2590
  195MOL0     O26198   9.681   0.144   5.060  0.2337 -0.3004 -0.9351
  195MOL0     C26199   9.632   0.233   4.965  0.3340 -0.3023 -0.8228
  195MOL0     C26200   9.477   0.220   4.946  0.7037 -0.0740  0.1492
  195MOL0     C26201   9.393   0.301   5.042  0.3284  0.1494  0.1358
  195MOL0     C26202   9.250   0.250   5.045  0.0700 -0.4257 -0.4705
  195MOL0     C26203   9.184   0.314   5.169 -0.0483 -0.5330  0.1303
  195MOL0     C26204   9.035   0.293   5.165  0.2217  0.2489  0.7780
  195MOL0     C26205   8.980   0.150   5.149 -0.3146  1.1026  0.7756
  195MOL0     C26206   8.837   0.107   5.186  0.3621  0.1051  0.0707
  195MOL0     N26207   8.812   0.076   5.334 -0.4099  0.6020 -0.8764
  195MOL0     C26208   8.908   0.008   5.417  0.5974 -0.0914  0.3973
  195MOL0     C26209   8.839  -0.004   5.532 -0.4817  0.0563  0.0339
  195MOL0     C26210   8.893  -0.061   5.657 -1.1556 -0.3088  0.4607
  195MOL0     C26211   8.853  -0.213   5.677 -0.1647 -0.5316  0.3965
  195MOL0     C26212   8.872  -0.300   5.549  0.0797 -0.1902  0.5096
  195MOL0     C26213   8.884  -0.450   5.579  0.1366 -0.5785 -0.2059
  195MOL0     O26214   9.005  -0.474   5.652  0.1589 -0.9800 -0.2936
  195MOL0     C26215   9.047  -0.601   5.650  0.0366 -0.5395 -0.4339
  195MOL0     C26216   8.971  -0.713   5.625 -0.4976 -0.7402  0.6630
  195MOL0     C26217   9.025  -0.833   5.628 -0.8084  0.6307 -0.6023
  195MOL0     C26218   8.935  -0.954   5.609 -0.1449  0.3799 -0.0249
  195MOL0     C26219   9.171  -0.843   5.665  0.6593  0.2392 -0.4505
  195MOL0     C26220   9.248  -0.976   5.672  1.3408  0.6748 -0.0152
  195MOL0     O26221   9.178  -1.097   5.696 -0.3804 -0.5039  0.1784
  195MOL0     C26222   9.261  -1.204   5.753  0.4792 -0.3616  0.3596
  195MOL0     C26223   9.311  -1.307   5.670 -0.5276  0.1524 -0.3235
  195MOL0     C26224   9.396  -1.409   5.730  0.1203  0.4947 -0.1164
  195MOL0     C26225   9.434  -1.406   5.866 -0.6911  0.8124  0.2539
  195MOL0     O26226   9.516  -1.500   5.937  0.5396 -0.4986 -0.6316
  195MOL0     C26227   9.551  -1.615   5.868  0.0448  0.0856 -0.7911
  195MOL0     C26228   9.652  -1.701   5.958 -0.1084  0.3729  0.6128
  195MOL0     C26229   9.702  -1.828   5.875 -0.0222 -0.1483 -0.2216
  195MOL0     C26230   9.782  -1.922   5.972 -0.9043 -0.2695 -0.1667
  195MOL0     C26231   9.848  -2.039   5.894  0.4816  0.4755  0.0988
  195MOL0     C26232   9.947  -2.114   5.988 -0.5864 -0.4993  0.2750
  195MOL0     C26233  10.096  -2.085   5.982 -0.5307  0.4884 -0.7065
  195MOL0     C26234  10.181  -2.172   5.888 -0.0636 -0.2867  0.4400
  195MOL0    Cl26235  10.114  -2.138   5.731 -0.3289 -0.5605  0.0342
  195MOL0     C26236   9.392  -1.302   5.945  0.7377  0.6538 -0.0610
  195MOL0     C26237   9.315  -1.198   5.882 -0.7814  0.2684  0.3641
  195MOL0     O26238   9.364  -0.973   5.647 -0.0727 -0.0837 -0.3081
  195MOL0     C26239   9.239  -0.731   5.694 -0.6142  1.0953  0.1117
  195MOL0     C26240   9.182  -0.615   5.682 -0.9727  0.1184  0.3408
  195MOL0     N26241   8.714   0.055   5.524 -0.2960 -0.2148  0.6631
  195MOL0     N26242   8.702   0.106   5.410 -0.7908  0.3318  0.0255
  195MOL0     C26243   9.845   0.074   5.199 -0.1757 -0.0605  0.0414
  195MOL0     C26244   9.973   0.078   5.263 -1.3206 -1.4964 -0.0260
  195MOL0     C26245  10.369   0.162   5.450  0.1115 -0.4426 -0.2775
  195MOL0     C26246  10.389   0.124   5.581  0.3206  1.1265 -1.2971
  195MOL0     C26247  10.517   0.113   5.639  0.3130 -0.2740 -0.7124
  195MOL0     C26248  10.632   0.148   5.554  0.9670  0.1714 -1.2306
  195MOL0     O26249  10.754   0.137   5.611  0.2993 -0.1110  0.3728
  195MOL0     C26250  10.872   0.127   5.528 -0.4221 -0.1344  0.3548
  195MOL0     C26251  10.990   0.138   5.618 -0.1590  0.0029  0.1379
  195MOL0     C26252  10.969   0.269   5.704 -0.0742  0.3351 -0.3595
  195MOL0     C26253  11.092   0.323   5.783 -0.1817  0.3258 -1.4486
  195MOL0     C26254  11.050   0.443   5.850  0.4441  0.0042 -0.0594
  195MOL0     C26255  11.027   0.556   5.892  0.5143  0.7169  0.7238
  195MOL0     C26256  10.609   0.168   5.416 -0.5129  0.2720  0.8091
  195MOL0     C26257  10.478   0.168   5.367 -0.3485  0.1455 -0.1074
  195MOL0     H26258  10.112   0.319   5.063  0.5239 -0.5229  0.5109
  195MOL0     H26259   9.881   0.311   4.964  0.4784 -1.2472 -0.9118
  195MOL0     H26260   9.641   0.334   5.007 -1.8265 -0.6474  0.6797
  195MOL0     H26261   9.680   0.215   4.868  1.0193 -2.0043 -0.2042
  195MOL0     H26262   9.449   0.238   4.842 -2.0934  3.3693  1.3077
  195MOL0     H26263   9.457   0.115   4.969 -0.1045 -0.6367 -2.7800
  195MOL0     H26264   9.436   0.295   5.142  0.5150 -0.2419  0.0362
  195MOL0     H26265   9.399   0.405   5.007 -1.6703  0.9792  2.0076
  195MOL0     H26266   9.199   0.262   4.949 -0.6633  1.1149  0.0694
  195MOL0     H26267   9.246   0.142   5.062 -1.7800 -0.5770 -1.5827
  195MOL0     H26268   9.227   0.258   5.253  0.6363  0.1150  0.2149
  195MOL0     H26269   9.216   0.416   5.189 -1.7541 -0.2960  1.8917
  195MOL0     H26270   8.998   0.329   5.261 -1.7198 -2.8031  1.2954
  195MOL0     H26271   8.982   0.343   5.083 -2.9355 -5.6253 -1.3572
  195MOL0     H26272   8.988   0.121   5.044  0.2319  0.4870  0.9853
  195MOL0     H26273   9.046   0.091   5.213 -0.8576  0.6681  0.9422
  195MOL0     H26274   8.810   0.025   5.118 -2.4657  1.7450 -0.9547
  195MOL0     H26275   8.760   0.182   5.162  0.6290  1.0589  2.0546
  195MOL0     H26276   9.013  -0.020   5.407  0.9888  1.5664 -0.5247
  195MOL0     H26277   9.002  -0.052   5.658 -1.1941  0.4818 -0.5515
  195MOL0     H26278   8.859  -0.004   5.744  1.9374  0.9006  1.0223
  195MOL0     H26279   8.750  -0.225   5.711 -0.0776  0.8314  1.2102
  195MOL0     H26280   8.913  -0.264   5.754 -0.9069  2.4139  3.1376
  195MOL0     H26281   8.961  -0.268   5.496 -1.6901  2.3876 -1.1496
  195MOL0     H26282   8.790  -0.284   5.479  0.0155  2.6424  1.1281
  195MOL0     H26283   8.875  -0.503   5.484 -1.1516 -2.2616  0.7947
  195MOL0     H26284   8.807  -0.482   5.650 -1.6433  1.7070 -0.9877
  195MOL0     H26285   8.865  -0.699   5.608 -0.4221 -0.7246  0.2078
  195MOL0     H26286   8.831  -0.933   5.585 -0.7538 -3.1266 -0.9732
  195MOL0     H26287   8.967  -1.004   5.517  1.0819  0.1864  0.4802
  195MOL0     H26288   8.931  -1.021   5.695  1.4755  0.9220  0.5235
  195MOL0     H26289   9.272  -1.316   5.569  0.2303 -1.2924 -0.5199
  195MOL0     H26290   9.417  -1.506   5.685 -0.1674  0.0892  0.5900
  195MOL0     H26291   9.456  -1.661   5.838  0.0769  1.4201 -3.2357
  195MOL0     H26292   9.596  -1.586   5.772 -0.4833 -0.0034 -1.0703
  195MOL0     H26293   9.742  -1.642   5.975 -0.5090  1.3762 -0.5851
  195MOL0     H26294   9.606  -1.728   6.053  2.4105  1.4464  2.2254
  195MOL0     H26295   9.759  -1.794   5.788 -3.5803 -0.8107 -3.0900
  195MOL0     H26296   9.614  -1.873   5.828  1.5895 -3.3446 -0.4475
  195MOL0     H26297   9.853  -1.861   6.027 -0.8437 -0.9715  0.5567
  195MOL0     H26298   9.722  -1.966   6.053  1.7505  0.4814  2.3723
  195MOL0     H26299   9.896  -1.997   5.805  0.0493 -0.1860 -0.4592
  195MOL0     H26300   9.770  -2.109   5.863 -0.5748  0.1189  3.2728
  195MOL0     H26301   9.923  -2.086   6.091 -3.0395  1.3836 -0.7108
  195MOL0     H26302   9.917  -2.218   5.974 -4.4362  0.5377 -0.3203
  195MOL0     H26303  10.136  -2.114   6.079 -2.4795  1.6052  0.4915
  195MOL0     H26304  10.120  -1.980   5.962  1.6050  0.1202 -0.3009
  195MOL0     H26305  10.180  -2.281   5.894 -2.7877 -0.5851 -2.4582
  195MOL0     H26306  10.283  -2.140   5.907  0.7905 -2.1731 -0.6540
  195MOL0     H26307   9.443  -1.296   6.041  0.5240  0.8114  0.0441
  195MOL0     H26308   9.282  -1.119   5.949 -0.8352  2.0657 -1.6721
  195MOL0     H26309   9.342  -0.731   5.727 -1.1098  0.3414  1.8268
  195MOL0     H26310   9.232  -0.523   5.710 -1.9345 -0.3350  4.0935
  195MOL0     H26311   9.768   0.002   5.228 -1.8462  1.6903  0.1425
  195MOL0     H26312   9.995   0.007   5.342 -1.4005  0.9480  2.3570
  195MOL0     H26313  10.303   0.107   5.645  0.2625  0.6561 -1.5037
  195MOL0     H26314  10.536   0.086   5.742  0.3277 -2.1314 -1.1585
  195MOL0     H26315  10.858   0.028   5.486  0.5471 -0.5905  1.0612
  195MOL0     H26316  10.876   0.206   5.452 -3.0799 -1.7954 -1.6968
  195MOL0     H26317  11.082   0.133   5.559 -1.5273  2.3352 -2.4061
  195MOL0     H26318  11.005   0.047   5.677 -3.0670  0.4258  1.7123
  195MOL0     H26319  10.883   0.254   5.769 -0.1548 -0.6836 -0.6760
  195MOL0     H26320  10.933   0.355   5.646  0.7478  1.7137  1.0928
  195MOL0     H26321  11.170   0.342   5.709  2.5537 -0.9221  0.9161
  195MOL0     H26322  11.136   0.252   5.854  1.1517  0.1342 -2.4220
  195MOL0     H26323  11.000   0.657   5.914 -1.9464  1.4061 -4.1012
  195MOL0     H26324  10.689   0.171   5.343 -3.1200 -2.7645 -2.5274
  195MOL0     H26325  10.464   0.192   5.262  0.8412  1.6285  0.0356
  196MOL0     O26326   6.694   1.099   1.367 -0.1341 -0.3673 -0.7965
  196MOL0     C26327   6.787   1.174   1.330  0.1460  1.1407  0.2424
  196MOL0     O26328   6.799   1.306   1.303  0.0501 -0.8588 -0.1616
  196MOL0     C26329   6.683   1.377   1.317 -0.4226 -0.3832 -0.3219
  196MOL0     C26330   6.642   1.456   1.210  0.2134 -0.2150 -0.0529
  196MOL0     C26331   6.532   1.543   1.224 -1.1391  0.3961  0.0369
  196MOL0     C26332   6.473   1.568   1.345 -0.1389 -0.6470  0.2845
  196MOL0     O26333   6.362   1.650   1.344  0.0862 -0.5631 -0.2155
  196MOL0     C26334   6.305   1.686   1.473  0.4887 -0.3899  0.0904
  196MOL0     C26335   6.228   1.818   1.454  0.5021 -0.6220 -0.1422
  196MOL0     C26336   6.155   1.858   1.592 -0.3210  0.7403 -1.1113
  196MOL0     C26337   6.107   2.000   1.606  0.5510  0.7718 -0.2029
  196MOL0     C26338   5.972   2.001   1.670  0.5827  0.4010  0.7169
  196MOL0     C26339   5.953   1.950   1.818 -0.6745  0.4664  0.7242
  196MOL0     C26340   6.005   2.041   1.926  0.4860 -1.0556  0.8204
  196MOL0     C26341   5.920   2.173   1.950  0.0096  0.0234 -1.2352
  196MOL0     N26342   5.785   2.153   2.008 -0.4600 -0.4518 -0.9470
  196MOL0     C26343   5.672   2.213   1.956  0.0886  0.4733 -0.0033
  196MOL0     C26344   5.569   2.158   2.018 -0.2189  0.0923 -0.1842
  196MOL0     C26345   5.419   2.180   2.007 -0.3412 -0.5424  0.2292
  196MOL0     C26346   5.322   2.079   2.058 -0.3495  0.0328 -0.0567
  196MOL0     C26347   5.182   2.126   2.049  0.9785 -0.6800 -0.5508
  196MOL0     C26348   5.083   2.010   2.091 -0.6827 -0.7068  0.4425
  196MOL0     O26349   5.083   1.990   2.235  0.6919  0.0272 -0.4733
  196MOL0     C26350   4.969   1.931   2.291  0.4247  0.0832  0.0859
  196MOL0     C26351   4.950   1.943   2.433 -0.7290  0.1667 -0.3670
  196MOL0     C26352   4.841   1.887   2.499 -1.1625  0.5628 -0.1565
  196MOL0     C26353   4.808   1.913   2.641  0.4917 -0.5573  0.0809
  196MOL0     C26354   4.743   1.822   2.426 -0.1719  0.4022 -0.8435
  196MOL0     C26355   4.626   1.752   2.476  0.1296  0.1519 -0.4756
  196MOL0     O26356   4.498   1.776   2.439 -0.5994  0.0378  0.3703
  196MOL0     C26357   4.466   1.862   2.335 -0.2157  0.5348 -0.0618
  196MOL0     C26358   4.441   1.810   2.215 -0.5852  0.5126 -0.1378
  196MOL0     C26359   4.425   1.890   2.098 -0.2531  0.4136 -0.6837
  196MOL0     C26360   4.402   2.027   2.119  1.0529 -0.7661 -0.8954
  196MOL0     O26361   4.374   2.100   2.001  0.4786 -0.2428 -0.5736
  196MOL0     C26362   4.474   2.199   1.980  0.1312 -0.0808  0.2353
  196MOL0     C26363   4.464   2.284   1.851  0.0728 -0.5187  0.5433
  196MOL0     C26364   4.537   2.414   1.839 -0.0032 -0.2272 -0.8788
  196MOL0     C26365   4.626   2.424   1.712 -1.0993 -0.5708 -0.0657
  196MOL0     C26366   4.700   2.563   1.696  0.5070 -0.3879 -0.5277
  196MOL0     C26367   4.617   2.690   1.688  0.7908  0.2427 -0.0445
  196MOL0     C26368   4.489   2.659   1.601 -0.1713  0.5036  0.7652
  196MOL0     C26369   4.446   2.792   1.546 -0.7964 -1.4768 -0.0971
  196MOL0    Cl26370   4.535   2.835   1.396 -0.3544 -0.0313  0.0709
  196MOL0     C26371   4.398   2.074   2.249  0.3622 -0.4948  0.6067
  196MOL0     C26372   4.436   1.995   2.359 -0.2244  0.6801 -0.7614
  196MOL0     O26373   4.658   1.672   2.558  0.3753  0.4000  0.6489
  196MOL0     C26374   4.757   1.814   2.285 -1.2303  0.4884 -0.2016
  196MOL0     C26375   4.878   1.862   2.220  0.0881  0.3402  0.1029
  196MOL0     N26376   5.614   2.084   2.124 -0.6773  0.0354  0.1950
  196MOL0     N26377   5.742   2.075   2.111  0.0086  0.1872  0.2992
  196MOL0     C26378   6.530   1.506   1.453  0.1088  0.1541  0.2437
  196MOL0     C26379   6.634   1.405   1.439 -0.0251  0.3031 -0.2229
  196MOL0     C26380   6.911   1.102   1.290  0.8303  0.4526 -0.3968
  196MOL0     C26381   7.003   1.178   1.211  0.0456 -0.1432  0.1589
  196MOL0     C26382   7.133   1.128   1.190 -0.3552 -0.1245  0.9072
  196MOL0     C26383   7.165   0.998   1.233  0.2117 -0.5605 -0.2159
  196MOL0     O26384   7.286   0.942   1.207  1.1402  0.0049  0.1147
  196MOL0     C26385   7.388   0.970   1.312  0.2853 -0.2656  0.4476
  196MOL0     C26386   7.518   0.934   1.253 -0.3428  0.3793 -0.0950
  196MOL0     C26387   7.617   0.983   1.359 -0.1102 -0.2784 -0.4241
  196MOL0     C26388   7.767   0.946   1.330  0.3092  0.4104 -0.1782
  196MOL0     C26389   7.774   0.808   1.297  0.6216  0.3888  0.0248
  196MOL0     C26390   7.781   0.694   1.259  0.9255  0.1416  0.5119
  196MOL0     C26391   7.074   0.927   1.307  0.5330 -0.3323  0.6467
  196MOL0     C26392   6.947   0.977   1.331  0.6671 -0.2246  0.1754
  196MOL0     H26393   6.688   1.437   1.113  0.7767 -0.6613  0.2972
  196MOL0     H26394   6.507   1.606   1.140  0.4434  4.0927  2.0583
  196MOL0     H26395   6.225   1.616   1.499  0.1679  0.0965  0.4347
  196MOL0     H26396   6.385   1.685   1.547  1.7590 -0.6595 -1.2463
  196MOL0     H26397   6.291   1.903   1.424 -0.1759 -1.5050 -4.8492
  196MOL0     H26398   6.154   1.806   1.374 -0.9337  1.9129  0.6792
  196MOL0     H26399   6.086   1.780   1.622  1.4110 -0.6347 -0.5284
  196MOL0     H26400   6.230   1.865   1.672 -3.1198  0.0610  1.7968
  196MOL0     H26401   6.165   2.070   1.667 -1.2013  1.4322  0.7562
  196MOL0     H26402   6.108   2.039   1.503 -1.7681  1.0996 -0.1534
  196MOL0     H26403   5.929   2.101   1.670  1.3051  0.8403  4.0414
  196MOL0     H26404   5.914   1.926   1.615 -0.1305 -0.5289  2.6585
  196MOL0     H26405   5.845   1.933   1.832 -1.2565  1.8031 -1.5871
  196MOL0     H26406   6.004   1.854   1.828 -1.2555  0.2702  2.0270
  196MOL0     H26407   6.001   1.995   2.026  2.1205 -0.8911  0.9865
  196MOL0     H26408   6.107   2.066   1.895  0.1645 -2.6885 -1.8466
  196MOL0     H26409   5.905   2.226   1.855  1.5213  1.1992 -0.8542
  196MOL0     H26410   5.966   2.243   2.019 -1.8205  0.2190 -0.1330
  196MOL0     H26411   5.666   2.288   1.878  2.9629  0.0855 -0.7096
  196MOL0     H26412   5.395   2.275   2.055  1.3921 -1.4419  3.1273
  196MOL0     H26413   5.403   2.207   1.902 -1.0282  2.1954  0.9719
  196MOL0     H26414   5.345   2.047   2.161 -0.2841 -0.3617 -0.1945
  196MOL0     H26415   5.332   1.989   1.997 -0.8957  1.0235 -1.6744
  196MOL0     H26416   5.167   2.143   1.942  3.8833  0.4821 -0.8839
  196MOL0     H26417   5.160   2.219   2.101  1.9002 -0.9731  0.4056
  196MOL0     H26418   5.111   1.913   2.049  1.8851 -1.4992  3.6167
  196MOL0     H26419   4.981   2.038   2.062 -0.0949  1.1996  0.0450
  196MOL0     H26420   5.015   2.007   2.493 -0.4610  1.1416 -1.6541
  196MOL0     H26421   4.876   1.985   2.687  0.9714  0.9232 -2.6914
  196MOL0     H26422   4.702   1.938   2.653  0.2928 -0.8867 -0.9185
  196MOL0     H26423   4.828   1.820   2.695 -1.4127 -0.2242  1.4432
  196MOL0     H26424   4.453   1.703   2.204  2.3643  0.6077  1.2569
  196MOL0     H26425   4.418   1.845   2.000 -0.5455  0.7886 -0.8376
  196MOL0     H26426   4.461   2.275   2.058  2.6000 -1.2538  1.9281
  196MOL0     H26427   4.575   2.159   1.994  0.2854  0.7624  1.7616
  196MOL0     H26428   4.500   2.211   1.778 -0.2191 -2.0729  1.8991
  196MOL0     H26429   4.360   2.313   1.831 -0.3988 -0.3168  2.9598
  196MOL0     H26430   4.609   2.419   1.921  1.6148  0.3564 -2.2756
  196MOL0     H26431   4.479   2.505   1.853  1.8362  0.5382  3.4785
  196MOL0     H26432   4.707   2.351   1.720  0.7262  1.4774  1.3256
  196MOL0     H26433   4.578   2.398   1.617  0.2434  0.5675 -1.0992
  196MOL0     H26434   4.765   2.561   1.608  1.4259  0.9741  0.0875
  196MOL0     H26435   4.763   2.560   1.786 -0.6465 -3.5479  0.3261
  196MOL0     H26436   4.586   2.728   1.786  0.0189  1.1277 -0.6188
  196MOL0     H26437   4.675   2.776   1.654 -0.7767  1.3771  0.0840
  196MOL0     H26438   4.415   2.623   1.674 -0.0875  0.4890  0.8443
  196MOL0     H26439   4.503   2.587   1.520  0.4535  1.7879 -0.3101
  196MOL0     H26440   4.457   2.869   1.623  0.3698 -2.6180  0.9500
  196MOL0     H26441   4.342   2.796   1.514 -0.3278  1.3793 -1.5436
  196MOL0     H26442   4.360   2.173   2.268  1.1113 -0.6744  3.4641
  196MOL0     H26443   4.418   2.025   2.462 -0.0732 -0.9595 -0.2307
  196MOL0     H26444   4.688   1.756   2.225 -1.5056  0.7155 -0.1046
  196MOL0     H26445   4.877   1.840   2.114 -0.5312  7.6190 -1.9353
  196MOL0     H26446   6.491   1.509   1.554 -2.6861 -4.0895 -0.4358
  196MOL0     H26447   6.665   1.352   1.529 -3.3724 -1.8954 -0.1801
  196MOL0     H26448   6.990   1.278   1.173 -0.7091  0.5191  2.0455
  196MOL0     H26449   7.200   1.190   1.132 -0.3698 -3.3873 -3.0558
  196MOL0     H26450   7.386   1.079   1.327 -1.4327 -0.2776  0.5268
  196MOL0     H26451   7.354   0.924   1.405 -2.1472  2.0472  0.8672
  196MOL0     H26452   7.548   0.973   1.155 -0.6310 -3.0555 -1.6819
  196MOL0     H26453   7.518   0.826   1.239 -4.1106  0.2231  0.1487
  196MOL0     H26454   7.591   0.947   1.459  1.8902 -0.2585  0.1440
  196MOL0     H26455   7.610   1.092   1.361  0.3202 -0.2545 -0.2792
  196MOL0     H26456   7.829   0.956   1.420 -2.2466 -1.8559  1.9985
  196MOL0     H26457   7.821   1.002   1.253 -1.3353 -0.0463 -1.7198
  196MOL0     H26458   7.809   0.596   1.225  2.9976 -0.1351  2.6996
  196MOL0     H26459   7.106   0.840   1.364 -0.8172 -0.4624  1.2370
  196MOL0     H26460   6.870   0.933   1.394  1.2724 -0.9252  0.4434
  197MOL0     O26461   8.626   2.312   6.515 -0.0118 -0.4924 -0.1892
  197MOL0     C26462   8.717   2.385   6.481  0.1358 -0.9052 -0.0560
  197MOL0     O26463   8.706   2.505   6.413 -0.0769 -0.5470 -0.4584
  197MOL0     C26464   8.577   2.565   6.394  0.0735  0.8544  0.7862
  197MOL0     C26465   8.536   2.611   6.271  0.6799 -0.8405 -0.3381
  197MOL0     C26466   8.406   2.662   6.260  0.3345 -0.3214  0.4543
  197MOL0     C26467   8.311   2.665   6.361 -1.0919  0.1474  0.1119
  197MOL0     O26468   8.189   2.713   6.342  0.1842 -0.3509  0.6438
  197MOL0     C26469   8.138   2.792   6.451 -0.5672  1.7033  0.8120
  197MOL0     C26470   8.036   2.885   6.400  1.1870  0.1066 -0.2034
  197MOL0     C26471   7.969   2.971   6.512 -0.7699 -0.2505  1.4996
  197MOL0     C26472   7.833   3.030   6.488 -0.3488  0.1285 -0.3989
  197MOL0     C26473   7.828   3.142   6.387 -0.1519  0.0111 -0.0183
  197MOL0     C26474   7.703   3.227   6.393  0.6686 -0.1268 -0.4527
  197MOL0     C26475   7.578   3.154   6.328  0.1902 -0.4963 -0.7730
  197MOL0     C26476   7.441   3.221   6.359 -0.4523 -0.3703  0.2796
  197MOL0     N26477   7.407   3.209   6.499  0.2079  0.1963 -0.1874
  197MOL0     C26478   7.454   3.116   6.586 -0.4823 -1.1092  1.0513
  197MOL0     C26479   7.374   3.123   6.697 -0.6451 -0.6761  0.2613
  197MOL0     C26480   7.364   3.043   6.819  0.5048 -0.2184  0.1825
  197MOL0     C26481   7.500   3.052   6.901  0.8304  0.8480  0.1089
  197MOL0     C26482   7.611   2.952   6.862 -0.6201  0.9877  0.6764
  197MOL0     C26483   7.726   2.953   6.964 -1.5007 -0.6021 -0.0167
  197MOL0     O26484   7.844   2.906   6.907  0.9228 -0.6043 -0.4866
  197MOL0     C26485   7.953   2.879   6.983 -0.0605  0.0628  1.0679
  197MOL0     C26486   7.946   2.846   7.119 -0.1481 -0.5239  0.7190
  197MOL0     C26487   8.059   2.835   7.201 -0.3195  0.4869  0.1877
  197MOL0     C26488   8.037   2.809   7.345  0.4921  0.0613 -0.2047
  197MOL0     C26489   8.182   2.817   7.135 -0.3817 -0.2100 -0.1063
  197MOL0     C26490   8.307   2.764   7.191 -0.4204 -0.2376  0.1914
  197MOL0     O26491   8.421   2.823   7.146 -0.3537  0.1887 -0.4995
  197MOL0     C26492   8.543   2.805   7.202 -1.2992 -0.3645 -0.0737
  197MOL0     C26493   8.580   2.709   7.289 -0.1817  0.0297  0.1408
  197MOL0     C26494   8.716   2.690   7.322  0.4864  0.1509 -0.3915
  197MOL0     C26495   8.815   2.772   7.252  0.5162  0.3028  0.3163
  197MOL0     O26496   8.950   2.752   7.262  0.0947 -0.1206  0.3753
  197MOL0     C26497   8.987   2.612   7.253  0.2152  0.2690 -0.3666
  197MOL0     C26498   9.124   2.610   7.307  0.5471  0.1287 -0.3804
  197MOL0     C26499   9.192   2.496   7.243 -0.4053  1.6723  0.2494
  197MOL0     C26500   9.343   2.491   7.283 -0.5421 -0.1879  0.2198
  197MOL0     C26501   9.422   2.374   7.207  0.1046 -0.5980 -0.4515
  197MOL0     C26502   9.572   2.363   7.245  0.2176  0.0882 -0.4119
  197MOL0     C26503   9.671   2.479   7.204  1.2923 -0.1584 -0.8666
  197MOL0     C26504   9.797   2.465   7.281 -0.4069  0.2618  0.5587
  197MOL0    Cl26505   9.918   2.393   7.178 -0.2085  0.1002  0.1265
  197MOL0     C26506   8.770   2.874   7.175 -0.1389  0.0654 -0.1992
  197MOL0     C26507   8.637   2.891   7.146  0.4939 -0.3502  0.2009
  197MOL0     O26508   8.296   2.677   7.273 -0.0871  0.6553 -0.2265
  197MOL0     C26509   8.189   2.836   6.995  0.1182  0.4245  0.6276
  197MOL0     C26510   8.077   2.862   6.925 -0.2065  0.4971  0.2515
  197MOL0     N26511   7.303   3.248   6.673  0.0206  0.4903 -0.2659
  197MOL0     N26512   7.321   3.292   6.560  0.0661  0.0634 -0.0972
  197MOL0     C26513   8.359   2.600   6.480  0.3958 -0.1477  0.3293
  197MOL0     C26514   8.493   2.557   6.496  0.6004 -0.8974  0.5880
  197MOL0     C26515   8.850   2.327   6.507  0.6706 -0.0900  0.2319
  197MOL0     C26516   8.872   2.221   6.604  0.4168 -0.3869  0.4881
  197MOL0     C26517   8.998   2.178   6.629  0.2047 -0.3604  0.5904
  197MOL0     C26518   9.108   2.222   6.553 -0.1923 -0.3423  0.5332
  197MOL0     O26519   9.228   2.178   6.579 -0.4076 -0.5264  0.3877
  197MOL0     C26520   9.246   2.045   6.528  0.1161 -0.3042  0.1843
  197MOL0     C26521   9.324   1.958   6.622 -0.1028 -0.1221 -0.2965
  197MOL0     C26522   9.466   2.026   6.654 -0.4859  0.7735  1.2529
  197MOL0     C26523   9.558   1.984   6.528  0.0864 -0.2404  0.4186
  197MOL0     C26524   9.615   1.849   6.534  0.5049  0.9504  0.1657
  197MOL0     C26525   9.667   1.736   6.525 -0.1678 -0.1343  0.6385
  197MOL0     C26526   9.088   2.324   6.454 -1.0665  0.2847  0.2466
  197MOL0     C26527   8.962   2.383   6.446  0.2371 -0.7739 -0.0164
  197MOL0     H26528   8.598   2.615   6.183  0.9644  0.7710 -0.0960
  197MOL0     H26529   8.374   2.698   6.162  1.3038  1.7722  0.8400
  197MOL0     H26530   8.093   2.726   6.525  1.5061 -2.3672 -1.2443
  197MOL0     H26531   8.218   2.848   6.500  0.2522  1.1341  0.1543
  197MOL0     H26532   8.088   2.947   6.327 -0.9166  1.4934 -0.6329
  197MOL0     H26533   7.962   2.823   6.349  1.2574 -0.6381  0.5762
  197MOL0     H26534   7.968   2.907   6.601 -0.5128 -1.1840  0.8484
  197MOL0     H26535   8.040   3.052   6.526 -0.4370 -0.4411  0.9497
  197MOL0     H26536   7.761   2.954   6.455  0.3272 -0.0886 -1.4012
  197MOL0     H26537   7.801   3.059   6.589 -0.7371 -1.0383 -0.1638
  197MOL0     H26538   7.913   3.208   6.411  0.0931 -0.3700  0.1786
  197MOL0     H26539   7.849   3.107   6.285  0.4105 -0.7784  0.3546
  197MOL0     H26540   7.692   3.264   6.495  1.1973  2.2613 -1.1917
  197MOL0     H26541   7.721   3.313   6.329 -0.8867  0.3168 -0.3326
  197MOL0     H26542   7.596   3.159   6.220  0.2985  2.2682 -0.6969
  197MOL0     H26543   7.568   3.047   6.347 -2.6926 -0.1546  0.1893
  197MOL0     H26544   7.370   3.166   6.297  0.2938  0.6680 -1.5879
  197MOL0     H26545   7.431   3.324   6.323  0.0281 -1.1368 -2.2379
  197MOL0     H26546   7.514   3.027   6.568  0.0657 -0.7892  1.2413
  197MOL0     H26547   7.290   3.094   6.881  0.7035  3.5941 -2.3354
  197MOL0     H26548   7.328   2.943   6.797 -3.4990  0.9466  0.7219
  197MOL0     H26549   7.480   3.040   7.008  1.0589  0.5184  0.1177
  197MOL0     H26550   7.547   3.150   6.889  1.2571  0.6894  0.4331
  197MOL0     H26551   7.645   2.967   6.759  1.5039 -0.1754  1.1488
  197MOL0     H26552   7.565   2.853   6.860  2.7600 -0.7430 -2.1313
  197MOL0     H26553   7.706   2.925   7.068 -0.8709 -1.9875 -0.2390
  197MOL0     H26554   7.752   3.059   6.964  0.9694 -1.1548 -0.0896
  197MOL0     H26555   7.849   2.833   7.167  0.2875 -1.6613  1.3271
  197MOL0     H26556   7.932   2.837   7.357  0.1909 -0.2718 -1.7676
  197MOL0     H26557   8.053   2.703   7.369  2.7133  0.7687  1.8119
  197MOL0     H26558   8.101   2.867   7.411  0.0530  0.0979  0.1908
  197MOL0     H26559   8.515   2.640   7.344  0.3407 -0.3644  0.2674
  197MOL0     H26560   8.741   2.615   7.397  3.2278  2.8428  1.6150
  197MOL0     H26561   8.926   2.540   7.308  1.6091  0.9518  2.2242
  197MOL0     H26562   8.979   2.571   7.152 -1.3994 -0.8702  0.1804
  197MOL0     H26563   9.174   2.707   7.295 -1.3414  1.2855  0.6935
  197MOL0     H26564   9.113   2.587   7.413 -0.9167  0.1334 -0.5112
  197MOL0     H26565   9.192   2.490   7.134 -0.3602  0.0023  0.3169
  197MOL0     H26566   9.138   2.407   7.277  1.1495  0.7751  0.4398
  197MOL0     H26567   9.390   2.588   7.268  1.9665 -1.4994 -1.2282
  197MOL0     H26568   9.357   2.472   7.390  1.1080 -0.6392 -0.0397
  197MOL0     H26569   9.407   2.382   7.099 -3.4741 -0.6614 -0.0990
  197MOL0     H26570   9.379   2.279   7.239  0.1202  0.3681  2.7943
  197MOL0     H26571   9.571   2.344   7.353  0.3892  0.8717 -0.2627
  197MOL0     H26572   9.621   2.281   7.192  3.2456  0.4845  1.5219
  197MOL0     H26573   9.628   2.573   7.239  1.6202 -0.0673 -0.7008
  197MOL0     H26574   9.683   2.481   7.096 -1.1236 -0.5745 -1.1927
  197MOL0     H26575   9.785   2.402   7.370 -1.9013 -1.7678 -0.9790
  197MOL0     H26576   9.834   2.557   7.327  1.3970 -0.0457 -0.2011
  197MOL0     H26577   8.847   2.930   7.122  1.1740 -0.5405  1.0041
  197MOL0     H26578   8.603   2.972   7.082 -0.1804 -0.5726  0.2606
  197MOL0     H26579   8.284   2.810   6.948 -0.1025  1.4834 -0.4557
  197MOL0     H26580   8.088   2.882   6.819 -1.9896  1.0807  0.1410
  197MOL0     H26581   8.299   2.590   6.570 -2.0847  0.9727 -1.0883
  197MOL0     H26582   8.523   2.523   6.595 -3.1533 -0.6566  1.9761
  197MOL0     H26583   8.792   2.185   6.666 -2.3553  4.3981  0.2062
  197MOL0     H26584   9.028   2.110   6.707  0.1951 -0.1625  0.7687
  197MOL0     H26585   9.152   1.990   6.520  0.2054 -0.4131 -0.1339
  197MOL0     H26586   9.295   2.047   6.430  0.5143  0.2302  0.3885
  197MOL0     H26587   9.329   1.865   6.564  0.4039  0.1617 -0.7213
  197MOL0     H26588   9.269   1.938   6.714 -1.2623 -1.1551 -1.1722
  197MOL0     H26589   9.512   1.988   6.746  0.4968 -1.4003 -0.0521
  197MOL0     H26590   9.459   2.135   6.655 -0.6982  0.7709  0.5963
  197MOL0     H26591   9.638   2.059   6.522 -0.2434  0.1543  0.8633
  197MOL0     H26592   9.510   1.993   6.431  1.7110  0.3617 -0.3737
  197MOL0     H26593   9.700   1.635   6.518 -4.5320 -2.3063  5.0662
  197MOL0     H26594   9.165   2.368   6.391  0.9528 -1.6105  1.2658
  197MOL0     H26595   8.949   2.471   6.385  1.5538  0.6568  1.6646
  198MOL0     O26596   9.140   2.582   5.407 -0.5379 -0.0822 -0.2217
  198MOL0     C26597   9.161   2.703   5.394  0.0526  0.5594 -0.0297
  198MOL0     O26598   9.231   2.755   5.287  0.3799 -0.0443 -0.0170
  198MOL0     C26599   9.268   2.673   5.181  0.4117  0.5591 -0.0823
  198MOL0     C26600   9.168   2.637   5.088  0.4213 -1.1686 -0.8890
  198MOL0     C26601   9.201   2.527   5.004 -0.5209  0.2812  1.6477
  198MOL0     C26602   9.331   2.473   4.999  0.3037  0.3489  1.4717
  198MOL0     O26603   9.368   2.378   4.907  0.2298  0.0895  0.7187
  198MOL0     C26604   9.271   2.275   4.866  0.1827 -0.5100  0.0205
  198MOL0     C26605   9.355   2.163   4.800  0.2042  1.5258 -0.0996
  198MOL0     C26606   9.247   2.060   4.751  0.6428  0.3018 -0.4323
  198MOL0     C26607   9.311   1.957   4.647  0.7091 -0.3823 -0.3946
  198MOL0     C26608   9.214   1.842   4.617  0.4747  0.8113 -0.5312
  198MOL0     C26609   9.233   1.779   4.475  0.2623  0.0910 -1.0975
  198MOL0     C26610   9.111   1.712   4.419 -0.1091  0.1797 -0.6420
  198MOL0     C26611   9.132   1.665   4.271  0.4834  0.5883 -0.4819
  198MOL0     N26612   9.164   1.771   4.173 -0.7437 -0.1129  0.8199
  198MOL0     C26613   9.066   1.818   4.088  0.2791 -0.5299  0.2387
  198MOL0     C26614   9.131   1.918   4.024 -0.2934  0.8425  0.1580
  198MOL0     C26615   9.085   2.009   3.918  0.2562 -1.3756 -0.1151
  198MOL0     C26616   8.965   2.094   3.964  0.5318  0.8443  0.8052
  198MOL0     C26617   8.891   2.100   3.824  0.4735 -0.3668 -0.1957
  198MOL0     C26618   8.772   2.201   3.848 -0.9166  0.6403  0.1940
  198MOL0     O26619   8.694   2.194   3.727 -0.8081 -0.1442 -0.4567
  198MOL0     C26620   8.557   2.177   3.730  0.6865 -0.2565  0.5343
  198MOL0     C26621   8.496   2.072   3.794  1.0880  0.0240 -0.2252
  198MOL0     C26622   8.353   2.061   3.802 -0.4527  0.2833 -0.9516
  198MOL0     C26623   8.313   1.929   3.860  0.6545 -0.2459  0.0434
  198MOL0     C26624   8.264   2.149   3.734  0.0673 -0.3769 -0.8976
  198MOL0     C26625   8.122   2.133   3.744 -0.6140 -0.4604  1.1380
  198MOL0     O26626   8.072   2.105   3.867  0.4769 -0.0742 -0.0937
  198MOL0     C26627   7.942   2.128   3.884 -0.3228  0.0116 -0.2595
  198MOL0     C26628   7.838   2.048   3.829  0.1944 -0.0373 -0.7765
  198MOL0     C26629   7.703   2.068   3.870 -0.2794 -0.6943 -0.4247
  198MOL0     C26630   7.672   2.175   3.953  0.1454 -0.3631  0.8757
  198MOL0     O26631   7.548   2.202   4.004 -0.4328  0.6158  0.2296
  198MOL0     C26632   7.443   2.102   3.986  0.4387  0.8150 -0.4657
  198MOL0     C26633   7.315   2.139   4.059 -0.6747 -0.2777 -0.6521
  198MOL0     C26634   7.226   2.224   3.965 -0.0481  0.5801  0.0374
  198MOL0     C26635   7.082   2.235   4.027 -0.6831  1.1032  0.6588
  198MOL0     C26636   7.014   2.361   3.980 -0.4469 -0.0710  0.3314
  198MOL0     C26637   6.868   2.336   4.016 -0.1978 -0.3327 -0.1248
  198MOL0     C26638   6.792   2.467   3.974  0.4219  0.8520  1.2116
  198MOL0     C26639   6.634   2.472   3.993  1.2219 -0.0850 -0.3836
  198MOL0    Cl26640   6.558   2.638   3.960 -0.5065 -0.1623 -0.1678
  198MOL0     C26641   7.774   2.256   4.004  0.0143 -0.6812  0.1879
  198MOL0     C26642   7.909   2.231   3.968  0.6976  0.0558  0.1901
  198MOL0     O26643   8.056   2.172   3.647  0.3470  0.8870  0.3766
  198MOL0     C26644   8.321   2.250   3.654 -0.1699 -0.4791 -0.1283
  198MOL0     C26645   8.467   2.264   3.660  0.4514 -0.6188  0.0299
  198MOL0     N26646   9.257   1.926   4.067 -0.6229 -0.1882 -0.2511
  198MOL0     N26647   9.291   1.830   4.141 -0.0747  0.2144  0.4321
  198MOL0     C26648   9.420   2.514   5.087 -1.1321  0.2050 -0.3488
  198MOL0     C26649   9.393   2.612   5.185  0.4591 -0.8399  0.1433
  198MOL0     C26650   9.126   2.791   5.508  0.4103 -0.0204 -0.8510
  198MOL0     C26651   9.179   2.925   5.511 -1.1415 -0.3941  0.3271
  198MOL0     C26652   9.152   3.020   5.619  0.3210  0.2720  0.6224
  198MOL0     C26653   9.065   2.987   5.725  0.2339  0.4813  0.1461
  198MOL0     O26654   9.046   3.085   5.818 -0.5362 -0.7300 -0.6734
  198MOL0     C26655   8.967   3.063   5.937 -0.5293  0.1309 -0.1847
  198MOL0     C26656   9.048   2.985   6.039  0.3094  0.6973 -0.5020
  198MOL0     C26657   9.176   3.070   6.082 -0.0166  0.0952  0.8341
  198MOL0     C26658   9.303   3.057   6.006 -0.5000 -0.2668 -0.0361
  198MOL0     C26659   9.350   2.918   6.021  0.8619  0.0817 -0.4127
  198MOL0     C26660   9.388   2.810   6.050  0.4109  0.2134  0.1899
  198MOL0     C26661   9.011   2.852   5.725 -0.2892  0.5653  0.5568
  198MOL0     C26662   9.043   2.759   5.623  0.1608 -0.7511  0.4332
  198MOL0     H26663   9.067   2.677   5.095  0.7759 -0.3408 -0.1992
  198MOL0     H26664   9.119   2.485   4.948  0.9270 -0.4277 -0.0288
  198MOL0     H26665   9.218   2.228   4.951 -0.7640  2.2372  1.0526
  198MOL0     H26666   9.192   2.317   4.803  1.6878  1.1593 -0.8091
  198MOL0     H26667   9.389   2.221   4.713 -0.9465  6.4282  2.3446
  198MOL0     H26668   9.429   2.114   4.863  0.1834 -0.3805 -1.4762
  198MOL0     H26669   9.206   2.013   4.840  3.7575  1.6155  1.8908
  198MOL0     H26670   9.161   2.112   4.708 -0.1528  0.1364  0.9057
  198MOL0     H26671   9.335   2.015   4.557 -1.3831  1.2234 -0.0076
  198MOL0     H26672   9.400   1.906   4.685  0.4292 -0.5425  0.0531
  198MOL0     H26673   9.199   1.763   4.692  0.3235 -0.2296 -1.6212
  198MOL0     H26674   9.116   1.891   4.609 -0.9942 -2.0740 -2.4221
  198MOL0     H26675   9.269   1.860   4.411 -1.3724  0.7983 -1.1601
  198MOL0     H26676   9.312   1.704   4.485 -0.8273 -0.9781 -0.1242
  198MOL0     H26677   9.096   1.625   4.483  0.2118 -0.4323 -1.3710
  198MOL0     H26678   9.028   1.783   4.419  0.1061  0.4534 -1.5657
  198MOL0     H26679   9.044   1.610   4.236  1.1085 -0.4316 -0.4756
  198MOL0     H26680   9.214   1.593   4.272  1.3579  1.5644 -0.6241
  198MOL0     H26681   8.967   1.773   4.095 -0.1101  0.5364  4.9139
  198MOL0     H26682   9.166   2.073   3.882  1.7385 -2.7428  0.6634
  198MOL0     H26683   9.055   1.945   3.835 -4.3959 -1.3585  1.3081
  198MOL0     H26684   8.984   2.199   3.988  2.0492  1.4212 -2.3449
  198MOL0     H26685   8.910   2.035   4.038 -1.6806 -1.2992 -2.2349
  198MOL0     H26686   8.863   1.997   3.801 -0.5711 -0.7477  2.4576
  198MOL0     H26687   8.954   2.138   3.744  0.8231 -3.9040 -1.7853
  198MOL0     H26688   8.811   2.302   3.860 -2.6457  1.3409  0.3207
  198MOL0     H26689   8.710   2.173   3.933  2.1443 -1.1552  1.9962
  198MOL0     H26690   8.560   2.007   3.853  1.5444  1.1077  0.4890
  198MOL0     H26691   8.273   1.952   3.959 -0.4274  1.4965 -0.7572
  198MOL0     H26692   8.240   1.877   3.797 -0.2185  1.7369 -0.6680
  198MOL0     H26693   8.399   1.861   3.867 -0.2927 -1.7183 -1.7674
  198MOL0     H26694   7.850   1.963   3.763 -2.2313 -0.3338 -0.8989
  198MOL0     H26695   7.624   2.006   3.829 -1.9397  1.4737 -0.7218
  198MOL0     H26696   7.411   2.098   3.882 -2.5208  0.8367  0.3490
  198MOL0     H26697   7.476   2.007   4.029 -0.2091  0.3804 -0.9004
  198MOL0     H26698   7.244   2.057   4.072  0.0323 -0.8413 -0.3166
  198MOL0     H26699   7.325   2.184   4.158  1.8896 -0.6551 -0.6745
  198MOL0     H26700   7.223   2.183   3.864  0.9342  0.4704  0.0375
  198MOL0     H26701   7.278   2.320   3.951  3.9739 -1.4788 -0.8277
  198MOL0     H26702   7.034   2.141   3.997  1.0375  0.3056  0.2809
  198MOL0     H26703   7.092   2.233   4.136  2.7275 -0.0473  0.4377
  198MOL0     H26704   7.035   2.370   3.873  0.4972 -1.1581  0.4018
  198MOL0     H26705   7.053   2.454   4.020  3.2046 -0.1678 -2.5326
  198MOL0     H26706   6.819   2.245   3.981 -0.8725 -0.3458  0.8310
  198MOL0     H26707   6.871   2.340   4.125 -1.9168  1.0218 -0.0891
  198MOL0     H26708   6.816   2.504   3.874 -3.4084 -1.6998 -0.8861
  198MOL0     H26709   6.842   2.538   4.041  3.4724 -1.4858  1.6140
  198MOL0     H26710   6.619   2.437   4.096  0.2544 -2.0523 -1.1438
  198MOL0     H26711   6.583   2.406   3.923 -0.5323  2.3498 -1.5465
  198MOL0     H26712   7.754   2.337   4.073  0.4008  0.7265 -1.2831
  198MOL0     H26713   7.991   2.292   4.004  1.8632 -2.3075  1.7838
  198MOL0     H26714   8.259   2.328   3.610 -0.1075 -0.9744 -1.1248
  198MOL0     H26715   8.519   2.332   3.594 -1.3031  2.3294  1.4982
  198MOL0     H26716   9.523   2.480   5.083  0.7660  4.9612  0.7762
  198MOL0     H26717   9.468   2.623   5.263  0.7792 -1.8812 -0.0010
  198MOL0     H26718   9.237   2.967   5.429 -2.3552  1.2761  0.2750
  198MOL0     H26719   9.191   3.121   5.612 -0.4941  0.6256  1.0141
  198MOL0     H26720   8.947   3.156   5.990  2.6295 -1.5081  4.5241
  198MOL0     H26721   8.868   3.038   5.899  0.3433 -1.4877 -1.5167
  198MOL0     H26722   9.080   2.893   5.990  1.9686  1.9538 -1.9256
  198MOL0     H26723   8.988   2.957   6.126 -0.0622 -0.3255 -1.0816
  198MOL0     H26724   9.185   3.034   6.185 -0.5538 -1.6804  0.2999
  198MOL0     H26725   9.147   3.176   6.086 -1.7837 -0.2422 -1.1699
  198MOL0     H26726   9.378   3.125   6.047  0.3863 -0.7097 -0.8689
  198MOL0     H26727   9.292   3.064   5.897 -0.8366 -1.3786 -0.0897
  198MOL0     H26728   9.430   2.718   6.086 -0.3006 -1.3123 -2.6192
  198MOL0     H26729   8.947   2.814   5.804  0.1525  1.5858  1.4329
  198MOL0     H26730   9.000   2.660   5.621  0.4526 -0.8742  0.2439
  199MOL0     O26731   0.972   9.920   4.777  0.3536  0.1054 -0.3573
  199MOL0     C26732   0.968  10.046   4.785 -0.8643 -0.2328 -0.4914
  199MOL0     O26733   1.008  10.118   4.891 -0.1614 -0.1968 -0.2153
  199MOL0     C26734   1.075  10.051   4.983  0.3814  0.9217 -0.9284
  199MOL0     C26735   1.209  10.076   5.011  0.2376  0.1673 -1.0003
  199MOL0     C26736   1.284  10.007   5.115  0.0745  0.5197 -0.1477
  199MOL0     C26737   1.222   9.918   5.197 -0.2414  0.8775 -0.7050
  199MOL0     O26738   1.286   9.853   5.304 -0.7822  0.4160  0.5396
  199MOL0     C26739   1.361   9.934   5.397 -0.1410 -0.2624  0.0605
  199MOL0     C26740   1.519   9.933   5.371 -0.2435  0.0787 -1.0416
  199MOL0     C26741   1.585  10.043   5.465 -0.8566 -0.4788 -0.1120
  199MOL0     C26742   1.736  10.045   5.463  0.3567 -0.0413 -0.4386
  199MOL0     C26743   1.790   9.958   5.576  0.7795 -0.1170  0.4131
  199MOL0     C26744   1.942   9.933   5.552 -0.4011  0.6972  0.6637
  199MOL0     C26745   2.004   9.821   5.645 -0.4271 -0.0674 -0.0492
  199MOL0     C26746   2.024   9.875   5.785  0.3882  0.7594 -0.0126
  199MOL0     N26747   2.087   9.780   5.871  0.4138 -0.0423 -0.2433
  199MOL0     C26748   2.126   9.810   6.002  0.1450 -0.2343  0.0171
  199MOL0     C26749   2.204   9.704   6.041 -0.2875 -0.1935  1.1618
  199MOL0     C26750   2.272   9.675   6.175  0.1537 -0.4721 -0.0583
  199MOL0     C26751   2.156   9.647   6.278 -0.6926  0.3441  0.0478
  199MOL0     C26752   2.069   9.518   6.249  0.1729  0.1642 -0.2433
  199MOL0     C26753   1.960   9.518   6.146  0.0106 -0.5752 -0.5037
  199MOL0     O26754   1.876   9.640   6.146  0.1427 -0.2853  0.4659
  199MOL0     C26755   1.789   9.640   6.032  0.1573  0.1120  0.2378
  199MOL0     C26756   1.699   9.746   6.014  0.7681  0.0406  0.6985
  199MOL0     C26757   1.601   9.755   5.914 -0.6258 -0.2260  0.3342
  199MOL0     C26758   1.496   9.856   5.929 -0.0805  0.2803  0.3157
  199MOL0     C26759   1.603   9.655   5.814 -0.2938 -0.7828 -0.5626
  199MOL0     C26760   1.512   9.648   5.705  0.6154 -1.5278  0.1251
  199MOL0     O26761   1.498   9.527   5.639 -0.6392 -0.7064 -0.3080
  199MOL0     C26762   1.394   9.497   5.550  0.6848  0.9551  0.6203
  199MOL0     C26763   1.287   9.580   5.507 -0.4718 -0.5275  0.9451
  199MOL0     C26764   1.206   9.527   5.412 -0.0595  0.1792 -0.3121
  199MOL0     C26765   1.228   9.396   5.352  1.0030 -0.3952 -0.3254
  199MOL0     O26766   1.141   9.351   5.254 -0.6479 -0.0889  0.8631
  199MOL0     C26767   1.096   9.445   5.160 -0.7270  0.0110 -0.0045
  199MOL0     C26768   1.027   9.383   5.040  0.3403 -0.1606 -0.2154
  199MOL0     C26769   0.917   9.485   4.990 -0.9092 -0.2095  0.3340
  199MOL0     C26770   0.786   9.487   5.069  0.3404 -0.8399 -0.1058
  199MOL0     C26771   0.680   9.579   5.009  1.0899  0.1402 -0.2339
  199MOL0     C26772   0.643   9.570   4.859 -0.0872  0.0744 -0.2252
  199MOL0     C26773   0.510   9.649   4.829 -0.4459  0.4259  0.1057
  199MOL0     C26774   0.519   9.795   4.853  0.3235 -0.0072  0.2063
  199MOL0    Cl26775   0.646   9.873   4.770 -0.4690  0.0798 -0.2036
  199MOL0     C26776   1.334   9.311   5.399  0.8787 -0.4595 -1.2603
  199MOL0     C26777   1.418   9.362   5.495  0.1347 -0.0557  0.9856
  199MOL0     O26778   1.443   9.748   5.685  0.4513 -0.1854 -0.5482
  199MOL0     C26779   1.691   9.550   5.827 -0.5879 -0.4862 -0.3782
  199MOL0     C26780   1.790   9.551   5.923  0.6378  0.5981 -0.2129
  199MOL0     N26781   2.213   9.618   5.936 -0.2375  0.7301  0.3497
  199MOL0     N26782   2.138   9.660   5.843  0.2338  0.3177 -1.1424
  199MOL0     C26783   1.087   9.893   5.180  0.3331  0.1878  0.5794
  199MOL0     C26784   1.020   9.951   5.073  0.4535  0.7343 -0.0775
  199MOL0     C26785   0.908  10.114   4.664  0.2599  0.0574 -0.5020
  199MOL0     C26786   0.895  10.250   4.666 -0.7267  0.8338 -0.1350
  199MOL0     C26787   0.830  10.319   4.562 -0.0176 -0.0604 -0.1658
  199MOL0     C26788   0.765  10.253   4.457  0.1965  0.0777 -0.3713
  199MOL0     O26789   0.676  10.316   4.372  0.2709 -0.4129 -0.1614
  199MOL0     C26790   0.590  10.241   4.293  0.3608  0.0008  0.1732
  199MOL0     C26791   0.449  10.298   4.264  0.0780 -0.0271 -0.2291
  199MOL0     C26792   0.379  10.206   4.153 -0.3527  0.2965 -0.5169
  199MOL0     C26793   0.234  10.167   4.179  1.1032  0.6788  0.6981
  199MOL0     C26794   0.175  10.108   4.055  0.1831 -0.0883 -0.7424
  199MOL0     C26795   0.133  10.073   3.946  0.1619  0.0074  0.3500
  199MOL0     C26796   0.778  10.115   4.455 -0.7076 -0.9196 -0.5715
  199MOL0     C26797   0.852  10.046   4.554 -0.3502 -0.1121  0.6596
  199MOL0     H26798   1.251  10.165   4.966 -0.7694  0.3964 -1.5085
  199MOL0     H26799   1.390  10.028   5.126  0.4514 -0.6270 -1.4211
  199MOL0     H26800   1.320  10.035   5.391  0.7260  0.0227 -3.2948
  199MOL0     H26801   1.335   9.899   5.497 -1.6120  1.5019  0.3607
  199MOL0     H26802   1.564   9.834   5.385 -2.6503 -0.9425  0.1789
  199MOL0     H26803   1.537   9.953   5.265  1.1825  1.2160 -0.6207
  199MOL0     H26804   1.557  10.146   5.437 -1.1442 -0.2096  1.1094
  199MOL0     H26805   1.565  10.034   5.572 -0.3009  0.2801  0.0652
  199MOL0     H26806   1.780  10.016   5.367 -1.4514 -0.6554 -1.1393
  199MOL0     H26807   1.768  10.148   5.481 -0.3177 -0.1278  1.4811
  199MOL0     H26808   1.774  10.019   5.665 -1.1120  2.5488 -1.5729
  199MOL0     H26809   1.738   9.862   5.581 -1.8286  1.2271  1.1371
  199MOL0     H26810   1.961   9.899   5.450 -1.6461 -2.8372  1.4748
  199MOL0     H26811   2.004  10.023   5.559  0.8151 -0.0486 -0.2187
  199MOL0     H26812   1.937   9.734   5.641 -1.8245  0.9912 -0.6177
  199MOL0     H26813   2.100   9.786   5.605 -1.0715  0.7541 -2.4731
  199MOL0     H26814   1.926   9.905   5.822 -1.0896  0.7138 -3.4503
  199MOL0     H26815   2.091   9.962   5.778  0.0954  0.8647 -3.3649
  199MOL0     H26816   2.107   9.897   6.064  1.5214 -1.4788  2.3051
  199MOL0     H26817   2.345   9.595   6.169  0.0647 -0.4557 -2.2609
  199MOL0     H26818   2.333   9.760   6.207 -0.5723 -0.5054  1.5133
  199MOL0     H26819   2.098   9.736   6.301 -0.3620  0.8281 -0.9447
  199MOL0     H26820   2.198   9.622   6.377 -0.8292 -0.4117 -0.0781
  199MOL0     H26821   2.019   9.498   6.344  1.2815  1.8420  0.7389
  199MOL0     H26822   2.130   9.430   6.224  1.0844  0.2858  1.3690
  199MOL0     H26823   1.899   9.429   6.161 -0.7334 -0.1443 -0.8674
  199MOL0     H26824   2.005   9.509   6.047 -1.9811  0.7350 -1.6186
  199MOL0     H26825   1.692   9.826   6.087  0.3721 -1.2041  2.0800
  199MOL0     H26826   1.403   9.801   5.942 -0.9335  2.0153  2.0438
  199MOL0     H26827   1.518   9.907   6.024  3.0730 -0.2716  0.0053
  199MOL0     H26828   1.514   9.931   5.851  2.7215  0.8937  1.4060
  199MOL0     H26829   1.264   9.682   5.537  1.2520  1.4104 -3.5100
  199MOL0     H26830   1.127   9.594   5.380 -0.3910  2.2877  4.1659
  199MOL0     H26831   1.029   9.520   5.204  0.6783  0.6090  1.2071
  199MOL0     H26832   1.185   9.496   5.122 -0.6565  0.9172  1.3196
  199MOL0     H26833   1.107   9.378   4.966  1.0875  1.0012  0.4811
  199MOL0     H26834   0.980   9.288   5.066  0.7135 -1.0828 -2.6337
  199MOL0     H26835   0.913   9.457   4.884  4.1670 -3.2516  0.6235
  199MOL0     H26836   0.964   9.584   4.988 -2.8115  0.7356 -1.4618
  199MOL0     H26837   0.751   9.383   5.078 -1.0012 -0.3162  1.1233
  199MOL0     H26838   0.808   9.523   5.169  0.3385  1.6872 -0.9507
  199MOL0     H26839   0.688   9.683   5.042 -1.5753  0.4021 -0.1785
  199MOL0     H26840   0.597   9.553   5.076  1.6163  1.9842  1.2359
  199MOL0     H26841   0.725   9.611   4.799  1.1883  1.4858  2.3181
  199MOL0     H26842   0.627   9.463   4.840  0.1672  0.1422 -0.8775
  199MOL0     H26843   0.440   9.592   4.890 -0.1869  1.3723  1.3340
  199MOL0     H26844   0.482   9.633   4.724  0.0984 -1.3765  0.1988
  199MOL0     H26845   0.529   9.811   4.961 -0.7170  1.0947  0.1673
  199MOL0     H26846   0.427   9.838   4.812  1.5231  1.5806 -0.9827
  199MOL0     H26847   1.340   9.210   5.360  2.1456  0.5193 -3.8228
  199MOL0     H26848   1.511   9.314   5.522  1.0488  1.0734 -0.0352
  199MOL0     H26849   1.684   9.475   5.748 -3.3974  1.5476 -2.2635
  199MOL0     H26850   1.863   9.471   5.925 -0.4354 -0.4083  1.6075
  199MOL0     H26851   1.046   9.820   5.248  1.6135  0.7630  2.0348
  199MOL0     H26852   0.918   9.912   5.073  0.7657 -0.1038  0.2176
  199MOL0     H26853   0.915  10.312   4.753  1.0059  0.4186 -0.1918
  199MOL0     H26854   0.832  10.426   4.575  1.4982  0.0443 -0.9508
  199MOL0     H26855   0.629  10.229   4.192 -1.1577 -1.3744 -0.3041
  199MOL0     H26856   0.559  10.145   4.337 -5.1600  2.2489  2.1004
  199MOL0     H26857   0.446  10.405   4.240 -0.5380 -0.5164 -2.5300
  199MOL0     H26858   0.400  10.296   4.362  2.9717  1.8536  1.4075
  199MOL0     H26859   0.431  10.111   4.139 -1.3939 -0.8283  2.4597
  199MOL0     H26860   0.391  10.254   4.055 -0.7510  3.7135  0.9610
  199MOL0     H26861   0.179  10.257   4.209 -0.2856 -0.5089  1.8548
  199MOL0     H26862   0.216  10.093   4.257  0.0988 -0.8431 -0.9075
  199MOL0     H26863   0.090  10.050   3.851 -1.9573 -0.5358  1.3912
  199MOL0     H26864   0.740  10.060   4.370  2.9290 -2.0486 -1.6424
  199MOL0     H26865   0.867   9.939   4.544 -1.1512 -0.3342  1.6424
  200MOL0     O26866   7.568  10.457   2.687 -0.1197 -0.1161 -0.3183
  200MOL0     C26867   7.528  10.357   2.736 -0.2134 -0.3422  0.2662
  200MOL0     O26868   7.394  10.329   2.764  0.6272  0.0675 -0.1157
  200MOL0     C26869   7.292  10.417   2.737  0.3736 -0.9384  0.6654
  200MOL0     C26870   7.271  10.480   2.610 -0.7268  0.1765  0.2179
  200MOL0     C26871   7.144  10.527   2.582  0.5190 -1.3160  0.2235
  200MOL0     C26872   7.046  10.543   2.686 -0.0696  0.2611 -0.6785
  200MOL0     O26873   6.930  10.609   2.685  0.1453  0.1290  0.4163
  200MOL0     C26874   6.867  10.614   2.557 -0.4641  0.0273  0.5627
  200MOL0     C26875   6.742  10.705   2.568 -0.2641 -0.4526  0.7236
  200MOL0     C26876   6.652  10.679   2.689  0.9144  0.6904 -0.5257
  200MOL0     C26877   6.528  10.771   2.692  0.3622 -0.1779 -0.0748
  200MOL0     C26878   6.399  10.735   2.768 -0.1860  0.3857 -0.1185
  200MOL0     C26879   6.288  10.664   2.678 -0.4980  0.1156 -0.8989
  200MOL0     C26880   6.167  10.621   2.761 -0.2689 -0.0950  1.1033
  200MOL0     C26881   6.200  10.491   2.839 -0.2532 -0.5504 -0.3774
  200MOL0     N26882   6.086  10.450   2.921 -0.7004 -0.2299 -0.3565
  200MOL0     C26883   6.027  10.530   3.012 -0.0461  0.7566  0.4653
  200MOL0     C26884   5.911  10.471   3.040  0.4767 -0.0460  0.5928
  200MOL0     C26885   5.816  10.513   3.147 -0.0495 -0.1314  0.8262
  200MOL0     C26886   5.720  10.623   3.101 -0.5820 -0.0064  0.5684
  200MOL0     C26887   5.610  10.663   3.196  0.2156  0.6112 -0.2484
  200MOL0     C26888   5.527  10.533   3.234  1.7292  0.1129  0.3600
  200MOL0     O26889   5.402  10.581   3.296 -0.8853  0.1153 -0.0303
  200MOL0     C26890   5.324  10.496   3.372 -0.3402  0.7375 -0.9222
  200MOL0     C26891   5.339  10.357   3.375  0.0570  0.1707  0.2874
  200MOL0     C26892   5.265  10.271   3.445  0.1248  0.0115 -0.4033
  200MOL0     C26893   5.304  10.121   3.458  0.2345  0.2154  0.0577
  200MOL0     C26894   5.163  10.315   3.527  0.1146 -0.4225 -0.0381
  200MOL0     C26895   5.080  10.227   3.622 -1.2469 -0.1671  0.9179
  200MOL0     O26896   5.076  10.091   3.616  0.1839 -0.4731 -0.5180
  200MOL0     C26897   5.005  10.016   3.709 -0.0621  0.8404 -0.0601
  200MOL0     C26898   5.000  10.048   3.850 -0.6180  0.3142 -0.2692
  200MOL0     C26899   4.905   9.974   3.932  0.5083 -1.7227  0.1308
  200MOL0     C26900   4.830   9.874   3.887  0.2355  0.4730 -0.0372
  200MOL0     O26901   4.716   9.827   3.949  0.4217  0.1039 -0.4820
  200MOL0     C26902   4.688   9.681   3.941 -0.2821  0.1162  0.4389
  200MOL0     C26903   4.566   9.630   4.028  0.1433  0.6585 -0.5831
  200MOL0     C26904   4.605   9.640   4.182  0.7494  0.3336  0.0467
  200MOL0     C26905   4.480   9.612   4.264 -0.8470 -0.3885  0.1698
  200MOL0     C26906   4.540   9.573   4.405 -0.3807 -0.6808  0.3478
  200MOL0     C26907   4.435   9.493   4.479  0.3545  0.4723  0.5759
  200MOL0     C26908   4.493   9.444   4.614  0.2355  0.2426  0.2221
  200MOL0     C26909   4.414   9.345   4.699 -0.0111 -0.3299  0.4312
  200MOL0    Cl26910   4.502   9.332   4.854 -0.2707  0.4023 -0.1256
  200MOL0     C26911   4.870   9.819   3.760  0.6858 -0.7415  1.2327
  200MOL0     C26912   4.941   9.899   3.668  0.1098 -0.5697  0.2731
  200MOL0     O26913   5.000  10.291   3.685  0.7437  0.0268 -0.0851
  200MOL0     C26914   5.144  10.459   3.526 -0.4459 -0.7389  0.1891
  200MOL0     C26915   5.225  10.550   3.451  0.0459 -0.1662 -0.2324
  200MOL0     N26916   5.905  10.354   2.967  0.0135  0.4608  0.2183
  200MOL0     N26917   6.014  10.340   2.895 -0.1265  0.6084 -0.1420
  200MOL0     C26918   7.076  10.495   2.810  0.1653 -0.8435  0.5092
  200MOL0     C26919   7.192  10.429   2.833  0.3480 -0.2784 -0.1770
  200MOL0     C26920   7.630  10.259   2.759 -0.7593  0.0661 -0.2148
  200MOL0     C26921   7.613  10.162   2.859 -0.4079 -0.1679  0.3685
  200MOL0     C26922   7.710  10.069   2.895  0.1027  1.0066 -0.2575
  200MOL0     C26923   7.834  10.072   2.839  0.2948  0.1476 -0.1633
  200MOL0     O26924   7.927   9.988   2.880  0.0811  0.5988 -0.3013
  200MOL0     C26925   7.963   9.881   2.783 -0.2592  0.1640  0.5649
  200MOL0     C26926   8.079   9.802   2.832 -0.6862  0.1142  0.0928
  200MOL0     C26927   8.200   9.848   2.750  0.5027  0.3526 -0.4277
  200MOL0     C26928   8.324   9.778   2.813 -0.2067 -0.3476 -0.0966
  200MOL0     C26929   8.434   9.784   2.716 -0.5124 -0.3755 -0.0682
  200MOL0     C26930   8.524   9.783   2.635 -0.8060 -0.1423  0.2135
  200MOL0     C26931   7.861  10.167   2.742  0.1383  0.5269 -0.0327
  200MOL0     C26932   7.760  10.264   2.705  0.8103 -0.3691 -0.1560
  200MOL0     H26933   7.347  10.482   2.533 -2.7212  0.4052 -1.8285
  200MOL0     H26934   7.120  10.565   2.484  0.7702 -2.6972 -0.3955
  200MOL0     H26935   6.936  10.666   2.490 -0.1816  0.3450  1.0929
  200MOL0     H26936   6.848  10.517   2.511  1.6343  0.1033 -0.5640
  200MOL0     H26937   6.778  10.808   2.574 -1.1161 -0.2246  2.7429
  200MOL0     H26938   6.677  10.694   2.480 -2.3084  0.0881  2.0928
  200MOL0     H26939   6.608  10.580   2.670  1.4012  0.2715  0.4872
  200MOL0     H26940   6.708  10.666   2.782 -0.9356 -0.5256  0.4903
  200MOL0     H26941   6.561  10.868   2.731  2.4567 -2.3057  4.1931
  200MOL0     H26942   6.498  10.784   2.588 -1.8415 -3.1567  0.0496
  200MOL0     H26943   6.418  10.671   2.855  1.2319  1.8474  0.6843
  200MOL0     H26944   6.350  10.819   2.818  0.3321  0.0682  0.9453
  200MOL0     H26945   6.264  10.742   2.606 -1.7962  0.2806 -0.3204
  200MOL0     H26946   6.318  10.567   2.639  0.6618 -0.4948  1.3132
  200MOL0     H26947   6.135  10.704   2.824  0.7558  0.6119  0.7173
  200MOL0     H26948   6.082  10.590   2.698 -0.6066  2.5887  0.0959
  200MOL0     H26949   6.283  10.524   2.902 -1.2594  1.4554 -0.0222
  200MOL0     H26950   6.236  10.408   2.778  1.5184 -1.3049  1.5689
  200MOL0     H26951   6.064  10.626   3.044 -0.2300  1.0264 -0.1094
  200MOL0     H26952   5.751  10.426   3.153 -1.2665 -0.1220 -5.4594
  200MOL0     H26953   5.873  10.535   3.238 -0.2021  0.4418  0.7886
  200MOL0     H26954   5.679  10.590   3.006  4.1991 -1.2306 -1.3539
  200MOL0     H26955   5.772  10.718   3.087 -2.6126  1.1592  0.4493
  200MOL0     H26956   5.539  10.722   3.136 -3.4306 -2.6834  0.4108
  200MOL0     H26957   5.649  10.711   3.286  0.9166 -0.1376 -0.1370
  200MOL0     H26958   5.577  10.475   3.312 -1.9019 -1.1232  2.0037
  200MOL0     H26959   5.504  10.468   3.149 -2.6932  0.1983  1.2284
  200MOL0     H26960   5.418  10.321   3.309 -2.5455 -2.5340 -1.6234
  200MOL0     H26961   5.325  10.093   3.561  1.2947 -3.4324 -0.9929
  200MOL0     H26962   5.227  10.051   3.423 -2.2760  2.4913  0.6644
  200MOL0     H26963   5.398  10.105   3.404  1.3732 -0.7452  2.1831
  200MOL0     H26964   5.060  10.124   3.899 -1.8942  0.2864  1.4113
  200MOL0     H26965   4.905  10.013   4.033 -2.7128  0.0462 -0.3985
  200MOL0     H26966   4.645   9.654   3.844 -3.2594  0.7475  1.4872
  200MOL0     H26967   4.770   9.612   3.961 -0.4058 -0.6157 -1.3623
  200MOL0     H26968   4.475   9.677   3.990 -0.5665  0.5010  0.8587
  200MOL0     H26969   4.556   9.524   4.004  0.7712  0.2850  0.6868
  200MOL0     H26970   4.645   9.741   4.196 -1.2633  1.2296 -0.3253
  200MOL0     H26971   4.678   9.559   4.194 -0.2809 -0.7279 -0.6060
  200MOL0     H26972   4.417   9.700   4.271 -0.9234 -0.4411  0.1403
  200MOL0     H26973   4.422   9.530   4.220  0.3834 -0.7969 -0.7659
  200MOL0     H26974   4.567   9.662   4.462 -4.5334  0.0140  1.6126
  200MOL0     H26975   4.627   9.507   4.394 -1.7013 -2.8577  1.9972
  200MOL0     H26976   4.343   9.552   4.489 -2.7742 -3.7570 -0.1636
  200MOL0     H26977   4.405   9.405   4.422 -1.1169 -0.4137  2.5834
  200MOL0     H26978   4.531   9.528   4.673  4.0334 -1.7212  0.9574
  200MOL0     H26979   4.591   9.395   4.602  1.1843  0.5118  4.8715
  200MOL0     H26980   4.403   9.251   4.644 -0.5864  0.7003 -1.3189
  200MOL0     H26981   4.317   9.393   4.714  0.6869  1.2682  0.0665
  200MOL0     H26982   4.827   9.729   3.718  1.1055  1.0126 -3.6615
  200MOL0     H26983   4.949   9.866   3.565 -0.6725 -0.7500  0.2633
  200MOL0     H26984   5.069  10.514   3.581 -1.5215  1.0230 -2.7999
  200MOL0     H26985   5.219  10.658   3.458 -0.4273  0.0316 -2.5548
  200MOL0     H26986   7.006  10.503   2.893  0.1639  1.0993  0.3785
  200MOL0     H26987   7.220  10.371   2.921  3.6365 -1.8495 -2.0822
  200MOL0     H26988   7.517  10.147   2.908 -1.3679 -1.1564 -1.6810
  200MOL0     H26989   7.690  10.002   2.978  0.3820  1.7488  0.4201
  200MOL0     H26990   7.877   9.813   2.777 -0.5005  0.5471 -0.6467
  200MOL0     H26991   7.971   9.922   2.682 -1.3667  1.8570  1.1218
  200MOL0     H26992   8.062   9.695   2.819  0.3707  0.1403 -2.0585
  200MOL0     H26993   8.100   9.809   2.939 -0.2764 -0.2261  0.0404
  200MOL0     H26994   8.208   9.957   2.751  0.4150  0.3558  0.3642
  200MOL0     H26995   8.192   9.827   2.643  2.3430 -3.0827 -0.0319
  200MOL0     H26996   8.300   9.674   2.835  0.9485 -0.8287 -0.9558
  200MOL0     H26997   8.341   9.839   2.902 -2.6307  0.6174 -0.2095
  200MOL0     H26998   8.613   9.786   2.574 -1.4410  0.2949 -0.7128
  200MOL0     H26999   7.957  10.171   2.691 -0.1951  0.1592 -0.6936
  200MOL0     H27000   7.778  10.346   2.635  0.0349 -0.3180 -0.2993
  201MOL0     O27001   2.215   0.182   9.789  0.2653  0.2491  0.4872
  201MOL0     C27002   2.260   0.241   9.881  0.5507  0.5450 -1.0882
  201MOL0     O27003   2.188   0.316   9.975  0.7662  0.4077  0.8522
  201MOL0     C27004   2.051   0.320   9.964  0.6824 -0.1722  0.1861
  201MOL0     C27005   1.971   0.360   9.855  0.2287 -0.2462  1.2120
  201MOL0     C27006   1.830   0.348   9.853  0.4705 -0.3686  0.7190
  201MOL0     C27007   1.759   0.312   9.968 -0.2432  0.7388 -0.4665
  201MOL0     O27008   1.625   0.325   9.966  0.4955  1.0392 -0.5907
  201MOL0     C27009   1.557   0.278  10.088 -0.4586 -0.0431  0.5919
  201MOL0     C27010   1.405   0.266  10.083 -0.4167  0.6956 -0.4679
  201MOL0     C27011   1.349   0.162   9.987 -0.1116  0.3176 -0.3636
  201MOL0     C27012   1.207   0.146   9.992 -0.3097 -0.7027  0.1866
  201MOL0     C27013   1.148   0.076  10.114 -0.0608 -0.6245 -0.5360
  201MOL0     C27014   1.002   0.060  10.103  0.1564  0.3414  0.2602
  201MOL0     C27015   0.924   0.191  10.130 -0.4331  0.0972  0.2791
  201MOL0     C27016   0.867   0.188  10.267  0.8986 -0.2836  0.2323
  201MOL0     N27017   0.804   0.308  10.306  0.1659  0.7912  0.9257
  201MOL0     C27018   0.680   0.367  10.276  0.0274  0.0091 -0.2736
  201MOL0     C27019   0.676   0.485  10.348  0.1588  0.1542 -0.2456
  201MOL0     C27020   0.544   0.571  10.367 -0.8380  0.2929 -0.9447
  201MOL0     C27021   0.452   0.519  10.487  0.3147 -0.9152  0.5928
  201MOL0     C27022   0.510   0.483  10.610 -0.3675 -0.3203 -0.3371
  201MOL0     C27023   0.569   0.608  10.686 -0.1065 -0.2653 -0.0327
  201MOL0     O27024   0.620   0.579  10.815  0.1811 -0.1790  0.3571
  201MOL0     C27025   0.707   0.670  10.865 -0.9532 -0.9122  0.3019
  201MOL0     C27026   0.667   0.767  10.964  0.1625  0.9796  0.2390
  201MOL0     C27027   0.756   0.873  11.012 -0.3359  0.2947  0.3329
  201MOL0     C27028   0.722   0.967  11.125  0.3038 -0.6847 -0.5901
  201MOL0     C27029   0.883   0.877  10.951 -0.5416  0.5933  0.6915
  201MOL0     C27030   0.985   0.969  10.989 -0.1043  0.5996  0.1745
  201MOL0     O27031   1.109   0.926  11.008  0.2897 -0.6957  0.1329
  201MOL0     C27032   1.197   1.016  11.058 -0.4166 -0.6955  0.4962
  201MOL0     C27033   1.310   1.044  10.977 -0.8040  0.2091  0.1858
  201MOL0     C27034   1.419   1.118  11.025  1.3342  0.0292 -0.6003
  201MOL0     C27035   1.413   1.157  11.163  0.2725 -0.3051  1.0897
  201MOL0     O27036   1.514   1.237  11.205 -0.5216  0.0110 -0.2535
  201MOL0     C27037   1.598   1.195  11.307  0.0921 -0.7669  0.1172
  201MOL0     C27038   1.723   1.275  11.311 -0.4783  1.2701  0.0068
  201MOL0     C27039   1.796   1.240  11.437 -0.1353  1.0089 -0.5572
  201MOL0     C27040   1.925   1.333  11.457  0.1688  0.4532  0.3414
  201MOL0     C27041   1.994   1.313  11.589 -0.8712  0.0422 -0.8202
  201MOL0     C27042   2.007   1.164  11.630  0.3990  0.2133 -0.0589
  201MOL0     C27043   2.098   1.146  11.754 -0.4612  0.8107  0.1657
  201MOL0     C27044   2.195   1.024  11.756 -0.1940 -0.1502 -0.5909
  201MOL0    Cl27045   2.307   1.022  11.623 -0.2118  0.2825 -0.2708
  201MOL0     C27046   1.301   1.143  11.244  0.6811  0.3158  0.4262
  201MOL0     C27047   1.200   1.067  11.187  0.0740 -0.2264  0.1840
  201MOL0     O27048   0.950   1.083  10.991 -0.2012 -0.3307 -0.1846
  201MOL0     C27049   0.923   0.783  10.853 -0.0035  0.0052  0.7911
  201MOL0     C27050   0.834   0.687  10.813 -0.5176 -0.5029 -0.3305
  201MOL0     N27051   0.791   0.496  10.421 -0.1565 -0.6258  0.8572
  201MOL0     N27052   0.862   0.388  10.400  0.1056 -0.4352 -0.5991
  201MOL0     C27053   1.844   0.286  10.078 -0.2358  1.0449  0.2246
  201MOL0     C27054   1.984   0.280  10.074  0.5981 -0.7941 -0.9862
  201MOL0     C27055   2.405   0.226   9.897  0.1102 -0.4081 -0.6654
  201MOL0     C27056   2.477   0.167   9.795  0.3292 -0.1820 -0.2928
  201MOL0     C27057   2.616   0.150   9.801  0.9538 -0.2224  0.6635
  201MOL0     C27058   2.691   0.205   9.907  0.3971  0.3120 -0.1496
  201MOL0     O27059   2.829   0.211   9.913 -0.4978  0.0431 -0.5212
  201MOL0     C27060   2.914   0.188   9.802  0.3821 -0.1478 -0.1554
  201MOL0     C27061   3.040   0.267   9.834 -0.6937  0.0781  0.5712
  201MOL0     C27062   3.007   0.416   9.824 -0.5103 -0.0956  0.3098
  201MOL0     C27063   3.130   0.495   9.865  0.1541  0.0566  0.0149
  201MOL0     C27064   3.246   0.476   9.774 -0.3787  0.5594  0.1141
  201MOL0     C27065   3.352   0.460   9.711 -0.3632 -0.9387 -0.5321
  201MOL0     C27066   2.623   0.258  10.013 -0.2338  0.4261  0.1173
  201MOL0     C27067   2.482   0.271  10.004  0.9446 -0.7988  0.4153
  201MOL0     H27068   2.013   0.405   9.765 -2.1160  1.6576  0.9813
  201MOL0     H27069   1.771   0.371   9.764  1.0191 -0.9036  0.2070
  201MOL0     H27070   1.591   0.181  10.123  0.6957  0.4139  0.7797
  201MOL0     H27071   1.566   0.367  10.151  1.7165  2.8789 -3.4185
  201MOL0     H27072   1.374   0.234  10.182  0.3189  1.0809 -0.1060
  201MOL0     H27073   1.359   0.365  10.072 -0.2062  1.0221  1.3201
  201MOL0     H27074   1.372   0.190   9.884 -0.5339 -1.1224 -0.8671
  201MOL0     H27075   1.392   0.062   9.997  0.7609  0.4471 -2.3562
  201MOL0     H27076   1.163   0.246   9.983 -1.9115 -1.2409  1.4477
  201MOL0     H27077   1.171   0.082   9.910 -0.1353 -0.3693 -0.1520
  201MOL0     H27078   1.187  -0.025  10.122  1.4262 -0.1857 -1.6032
  201MOL0     H27079   1.185   0.140  10.195  0.8444 -0.8282 -0.7823
  201MOL0     H27080   0.980   0.015  10.006 -0.2820 -0.8712  0.8893
  201MOL0     H27081   0.977  -0.003  10.189 -2.6676  2.1323  0.8961
  201MOL0     H27082   0.985   0.280  10.113  0.4357 -1.0144 -3.4839
  201MOL0     H27083   0.847   0.182  10.052  0.8610 -5.1792 -0.7333
  201MOL0     H27084   0.954   0.163  10.328  1.0016 -1.1761 -0.2617
  201MOL0     H27085   0.790   0.112  10.282 -0.6581  1.2965  0.6647
  201MOL0     H27086   0.602   0.320  10.217 -1.7343  1.5180  0.7412
  201MOL0     H27087   0.587   0.669  10.390  0.5546  0.0443 -2.3205
  201MOL0     H27088   0.491   0.559  10.272  1.2315 -1.5993 -1.9702
  201MOL0     H27089   0.397   0.433  10.447  0.5290 -0.8610  0.1817
  201MOL0     H27090   0.390   0.608  10.497  2.7001  1.1584 -1.7873
  201MOL0     H27091   0.585   0.405  10.594  1.8634  1.7779 -0.7623
  201MOL0     H27092   0.432   0.444  10.676  1.3625 -1.1788  1.2994
  201MOL0     H27093   0.488   0.679  10.700  0.1176 -0.5232  3.2496
  201MOL0     H27094   0.653   0.643  10.625  0.6322 -0.1214  1.0347
  201MOL0     H27095   0.573   0.749  11.014  0.1977 -0.5697 -0.2149
  201MOL0     H27096   0.810   0.982  11.189  0.8735  2.0902 -1.8782
  201MOL0     H27097   0.685   1.063  11.088 -2.6571 -1.8363 -0.8959
  201MOL0     H27098   0.639   0.924  11.183  1.2941 -1.2625  0.4550
  201MOL0     H27099   1.316   1.012  10.874  0.4157 -0.7735  0.5334
  201MOL0     H27100   1.499   1.136  10.953  0.5564 -1.1490 -1.8129
  201MOL0     H27101   1.539   1.196  11.400 -2.0636  1.4836 -1.1358
  201MOL0     H27102   1.607   1.088  11.288 -4.3404 -2.0950  3.7215
  201MOL0     H27103   1.794   1.254  11.230  1.8674 -1.2492  2.4665
  201MOL0     H27104   1.697   1.381  11.313 -2.7439  0.7566  0.5527
  201MOL0     H27105   1.815   1.132  11.438  0.7431  1.1143 -2.3791
  201MOL0     H27106   1.725   1.274  11.513 -1.3381 -3.0526  0.3759
  201MOL0     H27107   1.996   1.317  11.376 -0.2298  1.5996 -0.2555
  201MOL0     H27108   1.892   1.437  11.456  1.5795  0.9149 -0.6363
  201MOL0     H27109   1.930   1.356  11.666  1.8411  0.5329  1.3483
  201MOL0     H27110   2.093   1.359  11.578 -0.6231 -0.5690 -1.1873
  201MOL0     H27111   1.911   1.117  11.654  1.4471 -1.4870  1.0559
  201MOL0     H27112   2.065   1.114  11.552  1.4260  2.1478 -0.5966
  201MOL0     H27113   2.035   1.138  11.843  0.9906  0.2282  1.1704
  201MOL0     H27114   2.163   1.233  11.760  0.9535 -0.3265  3.3220
  201MOL0     H27115   2.138   0.931  11.767 -1.5988  0.7792  0.3020
  201MOL0     H27116   2.261   1.030  11.843 -0.8355  0.0896 -0.1191
  201MOL0     H27117   1.295   1.178  11.346 -1.3704 -2.3715  1.3318
  201MOL0     H27118   1.107   1.043  11.238 -2.8264  2.4708 -3.3201
  201MOL0     H27119   1.019   0.787  10.802 -0.3847 -0.2144  0.0559
  201MOL0     H27120   0.857   0.617  10.733 -1.3924  1.5791 -2.5288
  201MOL0     H27121   1.806   0.249  10.173 -1.5161  0.9936 -0.2936
  201MOL0     H27122   2.038   0.240  10.159  0.8464  2.4797  0.5588
  201MOL0     H27123   2.436   0.137   9.699  3.4743 -3.9055 -0.7417
  201MOL0     H27124   2.659   0.110   9.710  1.1724 -0.8274  1.0283
  201MOL0     H27125   2.936   0.082   9.787  3.6025  0.7422 -2.8394
  201MOL0     H27126   2.876   0.232   9.709  1.9714 -1.1359 -1.3204
  201MOL0     H27127   3.127   0.248   9.770  0.3088  1.0607  1.5874
  201MOL0     H27128   3.064   0.248   9.939 -2.3758 -2.8434  0.5326
  201MOL0     H27129   2.926   0.449   9.889 -1.8586 -0.3618 -1.1830
  201MOL0     H27130   2.984   0.451   9.723  2.5859 -2.5824 -1.4679
  201MOL0     H27131   3.145   0.459   9.967 -1.4609  0.2351  0.3507
  201MOL0     H27132   3.107   0.602   9.861  0.4974  0.1267 -0.0942
  201MOL0     H27133   3.437   0.441   9.649 -1.5917  2.2511 -3.5539
  201MOL0     H27134   2.669   0.304  10.100 -0.8973 -0.2666  0.8457
  201MOL0     H27135   2.443   0.332  10.085  0.6479  2.4093 -1.9519
  202MOL0     O27136   1.161   8.596   4.124  0.1361 -0.1057 -0.3130
  202MOL0     C27137   1.185   8.694   4.055 -0.2358  0.1915 -0.5481
  202MOL0     O27138   1.084   8.751   3.976  0.2233 -0.1835 -0.4012
  202MOL0     C27139   0.957   8.706   3.974  0.2770 -0.0494  0.6940
  202MOL0     C27140   0.857   8.810   3.958 -0.3638  0.7433  0.7301
  202MOL0     C27141   0.723   8.768   3.939 -0.5284  0.0374 -0.0244
  202MOL0     C27142   0.695   8.631   3.923  0.4486 -0.0804  0.1652
  202MOL0     O27143   0.566   8.586   3.894  0.2609 -0.2593  0.5927
  202MOL0     C27144   0.515   8.464   3.950  0.1089 -1.0670  0.1214
  202MOL0     C27145   0.367   8.487   3.983 -0.0278  0.2943 -0.1523
  202MOL0     C27146   0.285   8.422   3.870  0.1966 -0.8471 -0.0207
  202MOL0     C27147   0.152   8.501   3.846  0.5060  0.9192 -0.0472
  202MOL0     C27148   0.052   8.423   3.760 -0.6850  0.2527  1.2995
  202MOL0     C27149  -0.081   8.497   3.752  1.3843 -0.1572  0.6859
  202MOL0     C27150  -0.198   8.416   3.684 -0.4126  0.0485 -0.8334
  202MOL0     C27151  -0.307   8.507   3.613 -0.2210  0.4574  0.1256
  202MOL0     N27152  -0.416   8.405   3.570 -0.8253 -0.1868  0.5043
  202MOL0     C27153  -0.464   8.398   3.436  0.1367  0.7603  0.7048
  202MOL0     C27154  -0.579   8.327   3.442 -1.1594  0.1600 -1.5614
  202MOL0     C27155  -0.675   8.312   3.312  0.9740  0.2967 -0.8269
  202MOL0     C27156  -0.822   8.310   3.371  1.3963  0.4763 -0.3009
  202MOL0     C27157  -0.879   8.181   3.419  0.2126  0.3526  0.2947
  202MOL0     C27158  -1.013   8.216   3.495  0.4526  0.1727 -0.0507
  202MOL0     O27159  -1.102   8.294   3.415 -0.1513  0.1653 -0.1850
  202MOL0     C27160  -1.187   8.239   3.321  0.2926 -0.5445 -0.5180
  202MOL0     C27161  -1.221   8.107   3.301 -0.8801  1.6003 -0.6005
  202MOL0     C27162  -1.322   8.055   3.220  0.1947 -0.3318 -0.5429
  202MOL0     C27163  -1.339   7.910   3.197 -0.6244 -0.9425  0.4633
  202MOL0     C27164  -1.403   8.158   3.148  0.1812  0.5388 -0.1053
  202MOL0     C27165  -1.513   8.115   3.049 -0.9514 -0.6419 -0.7537
  202MOL0     O27166  -1.527   8.198   2.938  0.1643 -0.4610  0.8541
  202MOL0     C27167  -1.632   8.189   2.841 -0.5069  0.8265 -0.2363
  202MOL0     C27168  -1.599   8.172   2.708  0.9441 -0.3168  1.0841
  202MOL0     C27169  -1.711   8.146   2.621  0.3494 -0.2504  0.3678
  202MOL0     C27170  -1.842   8.144   2.668  0.3964  0.0801 -0.3024
  202MOL0     O27171  -1.959   8.123   2.590 -0.0814 -0.6498  0.1461
  202MOL0     C27172  -1.952   8.075   2.454 -0.4863 -0.0587 -0.2019
  202MOL0     C27173  -2.104   8.064   2.409  0.3046 -0.8451  0.0749
  202MOL0     C27174  -2.139   8.009   2.273  0.2946 -0.2187 -0.2792
  202MOL0     C27175  -2.293   7.999   2.251 -0.3422  0.1869  0.5507
  202MOL0     C27176  -2.327   7.948   2.103 -0.3999  0.1507  0.7082
  202MOL0     C27177  -2.474   7.923   2.086  0.4449 -0.3814 -0.2540
  202MOL0     C27178  -2.513   7.856   1.943  0.2853  0.4356 -0.4781
  202MOL0     C27179  -2.665   7.820   1.925 -0.2168  0.0247  0.0995
  202MOL0    Cl27180  -2.675   7.702   1.781  0.2880  0.2442 -0.5121
  202MOL0     C27181  -1.867   8.172   2.801 -0.0087  0.6134 -0.3421
  202MOL0     C27182  -1.760   8.189   2.891  0.2618 -0.0187 -0.7202
  202MOL0     O27183  -1.578   8.022   3.080  0.2450 -0.0328  0.3530
  202MOL0     C27184  -1.365   8.297   3.157 -0.1396 -0.0410  0.0436
  202MOL0     C27185  -1.258   8.325   3.244  0.6963 -0.6958  0.8458
  202MOL0     N27186  -0.598   8.281   3.570 -0.1417  0.8340  0.5465
  202MOL0     N27187  -0.498   8.327   3.647 -0.6708  0.1682 -0.2758
  202MOL0     C27188   0.795   8.536   3.922 -0.5795 -0.1407  0.0160
  202MOL0     C27189   0.928   8.567   3.958 -0.6669  0.3920 -1.4630
  202MOL0     C27190   1.326   8.752   4.046  0.0861 -0.0012  0.8547
  202MOL0     C27191   1.354   8.872   3.972  0.4611 -0.1175  1.2637
  202MOL0     C27192   1.458   8.956   4.001 -0.0423  0.5245  0.5024
  202MOL0     C27193   1.563   8.908   4.079 -0.0586  0.6403 -1.0352
  202MOL0     O27194   1.672   8.992   4.082 -0.2056  0.3612  0.1580
  202MOL0     C27195   1.790   8.949   4.148 -0.8802  0.0340  0.6480
  202MOL0     C27196   1.873   9.072   4.174  0.1334  0.4826  0.5475
  202MOL0     C27197   2.004   9.041   4.255 -0.3745 -0.3576 -0.1826
  202MOL0     C27198   2.076   9.174   4.266 -0.2960 -0.0584 -0.1320
  202MOL0     C27199   2.198   9.184   4.347  0.1616  0.5434  0.3002
  202MOL0     C27200   2.304   9.207   4.394 -0.5956 -0.1971  0.3715
  202MOL0     C27201   1.553   8.780   4.139  0.2665  0.4386  0.0219
  202MOL0     C27202   1.425   8.711   4.136 -0.5464 -0.4310 -0.2369
  202MOL0     H27203   0.889   8.913   3.967 -2.3530  1.2165  3.4790
  202MOL0     H27204   0.642   8.840   3.937  0.0843  0.7428  0.2420
  202MOL0     H27205   0.527   8.381   3.880 -3.4554 -3.6374  2.2351
  202MOL0     H27206   0.574   8.432   4.037 -1.3779 -1.9045  0.8635
  202MOL0     H27207   0.336   8.427   4.069 -0.4970  0.6897 -0.0406
  202MOL0     H27208   0.351   8.594   3.999  0.7771  0.4227 -0.1597
  202MOL0     H27209   0.342   8.412   3.777  0.4632  1.8337 -0.2292
  202MOL0     H27210   0.256   8.323   3.906  1.8549 -0.5020  2.4672
  202MOL0     H27211   0.106   8.528   3.942 -0.4929  1.6631 -0.7099
  202MOL0     H27212   0.182   8.593   3.793 -0.7474  0.6039 -1.3478
  202MOL0     H27213   0.101   8.409   3.663 -0.6710 -0.6417  1.4249
  202MOL0     H27214   0.037   8.321   3.796 -0.1498  0.3412  1.7852
  202MOL0     H27215  -0.116   8.527   3.851  1.6002 -1.8031  1.2971
  202MOL0     H27216  -0.070   8.584   3.687 -2.0205  0.3318  0.6156
  202MOL0     H27217  -0.156   8.345   3.613 -2.6978 -3.2954  0.8525
  202MOL0     H27218  -0.242   8.353   3.762  1.1217  0.1414  0.1552
  202MOL0     H27219  -0.266   8.563   3.529  1.6898  1.3804  1.5910
  202MOL0     H27220  -0.355   8.572   3.687 -0.5605 -2.2847  2.5236
  202MOL0     H27221  -0.427   8.435   3.342  0.6701 -1.9354 -0.2315
  202MOL0     H27222  -0.645   8.393   3.245 -2.2631  0.8572 -1.7901
  202MOL0     H27223  -0.657   8.224   3.250 -0.9515 -1.2559  0.7140
  202MOL0     H27224  -0.885   8.334   3.285 -1.1861 -1.2557  0.9875
  202MOL0     H27225  -0.835   8.392   3.442  3.1126  0.7520 -0.2569
  202MOL0     H27226  -0.812   8.120   3.481 -0.1850 -0.8517 -0.4159
  202MOL0     H27227  -0.894   8.112   3.335 -1.1316 -0.0073  0.8032
  202MOL0     H27228  -0.996   8.273   3.587 -1.1940  0.9362 -0.1898
  202MOL0     H27229  -1.065   8.123   3.521 -0.9327  1.1262  0.7318
  202MOL0     H27230  -1.173   8.026   3.356  1.3484  4.0141  1.2684
  202MOL0     H27231  -1.358   7.893   3.090  0.7793  1.0635 -0.1741
  202MOL0     H27232  -1.255   7.844   3.223  1.2468 -0.6109 -3.8282
  202MOL0     H27233  -1.429   7.873   3.246 -3.7216  1.9699 -2.4654
  202MOL0     H27234  -1.500   8.203   2.677 -0.2914 -0.3524 -3.6084
  202MOL0     H27235  -1.685   8.121   2.519 -4.2307 -0.1864 -1.0234
  202MOL0     H27236  -1.907   8.143   2.380 -2.3755 -2.8614 -4.3280
  202MOL0     H27237  -1.899   7.979   2.452 -0.1815  0.1203 -1.0250
  202MOL0     H27238  -2.153   8.009   2.490  1.8442  1.6829  2.9185
  202MOL0     H27239  -2.152   8.161   2.422  0.6844 -0.5528 -0.6498
  202MOL0     H27240  -2.106   7.905   2.271 -0.5573 -0.5461  1.1095
  202MOL0     H27241  -2.093   8.066   2.192 -1.0100  0.3570 -0.6510
  202MOL0     H27242  -2.345   7.928   2.315 -1.2775 -1.4114 -1.8244
  202MOL0     H27243  -2.336   8.099   2.266 -1.1464 -0.0817  0.1038
  202MOL0     H27244  -2.260   7.864   2.082 -1.4571 -0.1781 -1.6005
  202MOL0     H27245  -2.301   8.029   2.034  0.7491  0.1879  1.1626
  202MOL0     H27246  -2.515   7.851   2.158 -1.2059 -2.1470 -2.7718
  202MOL0     H27247  -2.535   8.010   2.111  2.8166  1.1737  0.4368
  202MOL0     H27248  -2.458   7.761   1.935  0.4797  0.3654  1.2904
  202MOL0     H27249  -2.472   7.924   1.868  1.6383  2.7815  2.2164
  202MOL0     H27250  -2.729   7.907   1.907 -0.5714  0.1058  1.6323
  202MOL0     H27251  -2.708   7.779   2.016 -2.2414 -0.5773 -1.0789
  202MOL0     H27252  -1.969   8.161   2.836  0.2105 -2.7125 -0.4129
  202MOL0     H27253  -1.783   8.206   2.995 -1.0733 -1.2809 -0.7709
  202MOL0     H27254  -1.409   8.367   3.086 -0.9352 -2.0166 -1.5183
  202MOL0     H27255  -1.215   8.424   3.250 -0.6629 -0.0451  0.2956
  202MOL0     H27256   0.778   8.434   3.890 -0.1220 -0.1118 -0.3417
  202MOL0     H27257   0.996   8.484   3.974 -1.8033  0.0090  2.4056
  202MOL0     H27258   1.285   8.905   3.895  1.1771 -2.1317 -0.3346
  202MOL0     H27259   1.468   9.053   3.955  1.5423  0.5027  0.7287
  202MOL0     H27260   1.780   8.901   4.246  3.5738  1.4836  2.0324
  202MOL0     H27261   1.838   8.880   4.078  1.0712  2.5927 -0.6620
  202MOL0     H27262   1.810   9.141   4.229  0.5620 -0.1748  1.9015
  202MOL0     H27263   1.899   9.118   4.078 -1.1606 -1.7145 -0.9697
  202MOL0     H27264   2.049   8.962   4.194  0.5679 -0.8595  1.1236
  202MOL0     H27265   1.973   8.990   4.347 -2.4003 -3.0538 -2.1872
  202MOL0     H27266   2.009   9.248   4.310  0.2170 -0.6378  1.6870
  202MOL0     H27267   2.099   9.205   4.164 -0.0838 -1.6840 -0.6121
  202MOL0     H27268   2.403   9.233   4.428 -0.3340 -1.8403  0.9189
  202MOL0     H27269   1.624   8.738   4.209  0.8198 -1.6241 -1.6810
  202MOL0     H27270   1.404   8.627   4.201  2.1923 -0.6549  0.4716
  203MOL0     O27271   9.445  10.275  10.029 -0.4482 -1.0056 -0.6056
  203MOL0     C27272   9.493  10.216   9.932 -0.0730 -0.2936 -0.3432
  203MOL0     O27273   9.421  10.135   9.848 -0.3185  0.2773 -0.0270
  203MOL0     C27274   9.291  10.102   9.866  0.0738  0.3772 -0.1223
  203MOL0     C27275   9.246  10.017   9.767  0.0110 -0.3618  0.9847
  203MOL0     C27276   9.120   9.952   9.777  0.2779 -0.5387 -0.1170
  203MOL0     C27277   9.028   9.977   9.878  0.0720  0.0192  0.1002
  203MOL0     O27278   8.906   9.915   9.885  0.9810  0.1337 -0.4675
  203MOL0     C27279   8.875   9.799   9.804 -0.9670  0.7892  0.0305
  203MOL0     C27280   8.745   9.743   9.852  0.3670 -0.1181 -0.3064
  203MOL0     C27281   8.622   9.831   9.810 -1.1339 -0.0316 -0.4176
  203MOL0     C27282   8.625   9.892   9.674  0.1819  0.1314  0.3572
  203MOL0     C27283   8.493   9.925   9.616 -0.0661  0.1493  0.4188
  203MOL0     C27284   8.509  10.033   9.502  0.4509  0.1822 -0.3270
  203MOL0     C27285   8.385  10.111   9.454 -0.4324 -0.2255  0.2151
  203MOL0     C27286   8.271  10.007   9.406 -0.0566 -0.8228  0.6439
  203MOL0     N27287   8.155  10.069   9.360  0.3437  0.2412 -0.0798
  203MOL0     C27288   8.133  10.129   9.241 -0.3666 -0.5140 -0.4326
  203MOL0     C27289   8.003  10.171   9.245 -0.8358  0.5613  1.4571
  203MOL0     C27290   7.921  10.230   9.136 -0.2674 -0.1282  0.3303
  203MOL0     C27291   7.896  10.381   9.160  0.4955 -0.5485  0.3515
  203MOL0     C27292   8.018  10.460   9.146 -0.3626  0.2143 -0.2830
  203MOL0     C27293   8.003  10.604   9.188 -0.5773 -0.1019 -0.3070
  203MOL0     O27294   7.921  10.687   9.105 -0.4269 -0.6578  0.7259
  203MOL0     C27295   7.816  10.752   9.163 -0.8707 -0.4020  0.1474
  203MOL0     C27296   7.724  10.794   9.063 -0.7444  0.1116 -0.4363
  203MOL0     C27297   7.610  10.873   9.107 -0.2306 -0.1436 -0.9636
  203MOL0     C27298   7.527  10.916   8.995  0.4568 -0.3411  0.3094
  203MOL0     C27299   7.589  10.917   9.246 -0.7977  0.9303  0.3363
  203MOL0     C27300   7.480  11.011   9.297  0.4807 -0.0476  0.5782
  203MOL0     O27301   7.499  11.057   9.420  0.5084 -0.3372 -0.0220
  203MOL0     C27302   7.388  11.081   9.508 -0.6625  1.3200  0.9261
  203MOL0     C27303   7.395  11.184   9.597 -0.0063 -0.6321 -0.2539
  203MOL0     C27304   7.289  11.212   9.681  0.7146 -0.0274 -1.0528
  203MOL0     C27305   7.168  11.142   9.679  0.6375 -0.0714  0.5145
  203MOL0     O27306   7.076  11.137   9.784 -0.7975 -1.0962 -0.7498
  203MOL0     C27307   7.069  11.265   9.858 -0.1368  0.2421 -0.5819
  203MOL0     C27308   6.937  11.280   9.942 -0.3862  0.6089  0.7113
  203MOL0     C27309   6.828  11.276   9.843 -0.5940  1.0423  0.3377
  203MOL0     C27310   6.689  11.240   9.898 -0.2037 -0.4340  0.7428
  203MOL0     C27311   6.642  11.318  10.020 -0.8126 -0.3346  0.0676
  203MOL0     C27312   6.656  11.472  10.003  0.4527 -0.0318 -0.1701
  203MOL0     C27313   6.537  11.529  10.076  0.1651  0.0275  0.4426
  203MOL0     C27314   6.400  11.528   9.984 -0.0670 -0.0755  0.1019
  203MOL0    Cl27315   6.246  11.572  10.089 -0.5626  0.0807 -0.3082
  203MOL0     C27316   7.153  11.049   9.573  0.3661 -0.0413  0.5170
  203MOL0     C27317   7.261  11.015   9.491 -1.0047 -0.2851  0.5488
  203MOL0     O27318   7.382  11.032   9.231 -0.1647 -0.1054  0.4124
  203MOL0     C27319   7.694  10.884   9.337  0.1635 -0.4385  0.1095
  203MOL0     C27320   7.786  10.787   9.303 -0.5295 -0.1081  0.3709
  203MOL0     N27321   7.949  10.149   9.370  0.1946  0.3832 -0.3308
  203MOL0     N27322   8.041  10.089   9.440  0.2578  0.0334 -0.4716
  203MOL0     C27323   9.060  10.077   9.966  0.6504  0.3929 -0.0984
  203MOL0     C27324   9.192  10.131   9.966  0.0016 -1.2875  0.1090
  203MOL0     C27325   9.639  10.253   9.898  0.8534  0.4359  0.2434
  203MOL0     C27326   9.688  10.196   9.776 -0.0389 -0.2885  0.2101
  203MOL0     C27327   9.817  10.235   9.725 -0.6453 -0.5045  0.4439
  203MOL0     C27328   9.888  10.335   9.798  0.1394 -1.0583 -0.2392
  203MOL0     O27329  10.007  10.382   9.738 -0.3786 -0.0079 -0.3899
  203MOL0     C27330  10.100  10.463   9.806  0.2887  0.8103  0.0488
  203MOL0     C27331  10.242  10.423   9.769 -0.7136  0.2328 -0.6122
  203MOL0     C27332  10.289  10.288   9.826 -0.3139 -1.1038 -0.3721
  203MOL0     C27333  10.357  10.294   9.966 -1.6823 -0.2075  0.1691
  203MOL0     C27334  10.256  10.295  10.068 -0.8493  0.1740  0.7121
  203MOL0     C27335  10.166  10.300  10.150 -0.6057 -0.7925 -0.0686
  203MOL0     C27336   9.836  10.393   9.911 -0.2006  0.4371 -0.9598
  203MOL0     C27337   9.717  10.347   9.962  0.4878 -0.4231 -0.2317
  203MOL0     H27338   9.320   9.992   9.691 -0.3835 -1.0145  0.8108
  203MOL0     H27339   9.095   9.876   9.704 -1.1023  0.9263 -1.2514
  203MOL0     H27340   8.886   9.834   9.701  0.4095 -0.1893 -0.1826
  203MOL0     H27341   8.951   9.721   9.817  0.5599  1.5752 -3.3038
  203MOL0     H27342   8.747   9.646   9.802  1.9219  0.2844 -1.0797
  203MOL0     H27343   8.745   9.724   9.959  1.7789  2.4031  0.2024
  203MOL0     H27344   8.538   9.761   9.814 -1.4781  0.3833 -0.2935
  203MOL0     H27345   8.600   9.904   9.889 -0.8581 -0.6082  0.2049
  203MOL0     H27346   8.693   9.978   9.675  2.2575 -1.4059  1.9278
  203MOL0     H27347   8.671   9.818   9.607  0.6825 -0.3588  1.2284
  203MOL0     H27348   8.439   9.839   9.577  0.1406  1.0832 -2.1267
  203MOL0     H27349   8.434   9.964   9.699  1.5297 -0.1851  1.7741
  203MOL0     H27350   8.591  10.103   9.516  1.4539 -0.1588 -3.6383
  203MOL0     H27351   8.550   9.979   9.416 -1.2178 -0.2130 -0.9137
  203MOL0     H27352   8.351  10.180   9.531  2.8448  2.7229 -0.7593
  203MOL0     H27353   8.410  10.181   9.374 -0.8239 -0.4984 -0.1503
  203MOL0     H27354   8.248   9.946   9.495 -2.1334  1.7588  2.0183
  203MOL0     H27355   8.308   9.948   9.322 -1.4897 -0.9780  0.0907
  203MOL0     H27356   8.199  10.140   9.156 -0.5584  3.1727 -0.2599
  203MOL0     H27357   7.969  10.210   9.039 -0.8221  2.3125 -0.5293
  203MOL0     H27358   7.821  10.186   9.129 -1.3944  2.3233  0.1117
  203MOL0     H27359   7.860  10.401   9.261 -3.0783  0.8786 -1.0408
  203MOL0     H27360   7.815  10.412   9.094  1.9135 -1.8873 -2.1794
  203MOL0     H27361   8.056  10.465   9.044  1.4417  0.4601  0.3526
  203MOL0     H27362   8.094  10.410   9.207 -1.5473  1.8707  2.7657
  203MOL0     H27363   8.101  10.651   9.198  1.4487 -3.5472 -2.0436
  203MOL0     H27364   7.979  10.608   9.295 -0.5937  2.5874 -0.3563
  203MOL0     H27365   7.731  10.777   8.956 -0.0446 -2.6657 -0.0478
  203MOL0     H27366   7.428  10.880   9.024  1.3186 -3.0125  0.2650
  203MOL0     H27367   7.528  11.025   8.989  1.2118 -0.3367  0.3847
  203MOL0     H27368   7.547  10.865   8.900 -1.2351  0.3927 -0.4719
  203MOL0     H27369   7.499  11.213   9.613  0.3999 -1.7302 -0.7769
  203MOL0     H27370   7.319  11.284   9.758 -0.1023  0.7016 -1.3993
  203MOL0     H27371   7.156  11.270   9.925  0.7790 -1.3980 -1.5903
  203MOL0     H27372   7.083  11.349   9.788  2.3931  2.0930  1.8884
  203MOL0     H27373   6.937  11.191  10.005  2.4640 -0.7011 -0.9191
  203MOL0     H27374   6.929  11.370  10.005 -1.2748 -1.3304  3.5451
  203MOL0     H27375   6.840  11.205   9.761 -2.8321  2.1957 -1.0857
  203MOL0     H27376   6.837  11.376   9.800  0.6837  1.4931  1.5544
  203MOL0     H27377   6.632  11.260   9.807  1.8526  0.3768 -0.4427
  203MOL0     H27378   6.698  11.132   9.915  0.6823 -0.2933  1.2554
  203MOL0     H27379   6.689  11.282  10.112 -1.9954 -1.0632  0.4143
  203MOL0     H27380   6.536  11.292  10.031 -0.5047 -2.1886 -0.8407
  203MOL0     H27381   6.750  11.497  10.055 -1.3036 -0.2814  3.4420
  203MOL0     H27382   6.654  11.519   9.904  0.2539  0.0146 -0.1450
  203MOL0     H27383   6.557  11.632  10.108 -2.4453  0.5856  0.5720
  203MOL0     H27384   6.516  11.468  10.165 -1.2999 -0.6281 -0.3149
  203MOL0     H27385   6.391  11.431   9.933  0.5324 -0.4719  0.7239
  203MOL0     H27386   6.420  11.588   9.895 -0.0807  0.2031  0.2860
  203MOL0     H27387   7.064  10.988   9.566  0.7280 -0.5202  0.0860
  203MOL0     H27388   7.237  10.943   9.413 -2.6027 -0.2364  0.9662
  203MOL0     H27389   7.682  10.926   9.436 -2.3926  0.7475 -0.6171
  203MOL0     H27390   7.855  10.743   9.374 -1.8841 -2.6246  0.2678
  203MOL0     H27391   8.996  10.089  10.053 -0.1405 -2.9432 -0.0595
  203MOL0     H27392   9.235  10.186  10.049 -2.6167  0.4087  0.4715
  203MOL0     H27393   9.636  10.128   9.711  0.8561  0.4684 -1.3723
  203MOL0     H27394   9.874  10.203   9.639  2.3206  2.5977  1.0145
  203MOL0     H27395  10.090  10.564   9.765  1.7805  0.7660 -0.5179
  203MOL0     H27396  10.084  10.463   9.914 -4.8166 -1.7776 -0.4300
  203MOL0     H27397  10.318  10.496   9.798 -1.4401  1.1838 -1.0580
  203MOL0     H27398  10.237  10.411   9.660 -0.2103 -2.9070 -0.3999
  203MOL0     H27399  10.360  10.240   9.757  0.0760 -0.5558 -0.3636
  203MOL0     H27400  10.213  10.212   9.843  0.3820 -1.7602 -0.1311
  203MOL0     H27401  10.424  10.381   9.966 -1.6163 -0.1798  2.9318
  203MOL0     H27402  10.425  10.207   9.970 -0.0394  1.0555  1.0257
  203MOL0     H27403  10.085  10.292  10.220  1.7089 -4.1616  2.6067
  203MOL0     H27404   9.898  10.470   9.955  1.0645 -1.3042  0.4347
  203MOL0     H27405   9.687  10.410  10.044 -1.9343 -0.5807 -0.9141
  204MOL0     O27406   8.368   9.330  10.491 -0.1465 -0.6808 -0.0645
  204MOL0     C27407   8.415   9.432  10.533 -0.1597  1.3506  0.4734
  204MOL0     O27408   8.342   9.532  10.578 -0.3399 -0.4445  0.4748
  204MOL0     C27409   8.216   9.515  10.625  0.0677  0.8509  0.5017
  204MOL0     C27410   8.188   9.483  10.760  0.0494 -0.9522  0.1397
  204MOL0     C27411   8.056   9.463  10.797 -0.1931 -0.0187 -0.3648
  204MOL0     C27412   7.952   9.469  10.707 -0.6446 -0.1162 -0.2618
  204MOL0     O27413   7.823   9.474  10.753  0.2633  0.4386 -0.2357
  204MOL0     C27414   7.744   9.587  10.723  0.2819  0.1577 -0.3464
  204MOL0     C27415   7.790   9.710  10.803  0.1406  1.1434 -0.4946
  204MOL0     C27416   7.726   9.834  10.742 -0.9491 -1.1577 -0.2031
  204MOL0     C27417   7.576   9.849  10.770  0.2952 -0.1999  0.5178
  204MOL0     C27418   7.507   9.924  10.654 -0.3317 -0.0254 -0.3632
  204MOL0     C27419   7.359   9.937  10.691 -0.5179  0.3427  0.3431
  204MOL0     C27420   7.288   9.973  10.555 -0.5055 -0.4934  0.6615
  204MOL0     C27421   7.141   9.995  10.570  0.8116  0.2592  0.4143
  204MOL0     N27422   7.088  10.120  10.614 -0.0487  0.0841 -0.1063
  204MOL0     C27423   7.098  10.240  10.546 -0.2888  0.8110 -0.1912
  204MOL0     C27424   7.049  10.335  10.632  0.5109 -0.4368 -0.1715
  204MOL0     C27425   7.037  10.482  10.594  0.0144  0.7837  0.0974
  204MOL0     C27426   6.944  10.511  10.478  0.0952  1.0199  0.1890
  204MOL0     C27427   6.798  10.459  10.493 -0.9243 -0.0859  0.1450
  204MOL0     C27428   6.734  10.480  10.628  0.3478 -1.2294 -0.0213
  204MOL0     O27429   6.599  10.441  10.617 -0.3112 -0.3620 -0.9207
  204MOL0     C27430   6.522  10.415  10.720 -0.3203 -0.0367 -0.5724
  204MOL0     C27431   6.560  10.448  10.852  0.6294  0.3389 -0.2141
  204MOL0     C27432   6.467  10.423  10.962  1.1860  0.1727  0.5216
  204MOL0     C27433   6.517  10.464  11.096 -0.6556  0.0057  0.0046
  204MOL0     C27434   6.342  10.363  10.937  0.5469 -0.2542 -0.2934
  204MOL0     C27435   6.236  10.338  11.033 -0.7619 -0.7244  0.3737
  204MOL0     O27436   6.151  10.236  11.014  0.1582  0.5421 -0.6668
  204MOL0     C27437   6.017  10.257  11.055 -0.3126 -0.2939 -0.2908
  204MOL0     C27438   5.934  10.156  11.105  0.4092  0.1996  0.6243
  204MOL0     C27439   5.804  10.172  11.122 -0.4694 -0.2031 -0.1184
  204MOL0     C27440   5.748  10.299  11.094 -0.2286  0.0219  0.1730
  204MOL0     O27441   5.613  10.325  11.109  0.0963 -0.5850 -0.3181
  204MOL0     C27442   5.538  10.272  11.213  0.1584 -0.7613 -0.6960
  204MOL0     C27443   5.390  10.267  11.177  0.2466 -1.2259  0.2042
  204MOL0     C27444   5.324  10.400  11.135 -0.1637  0.4841  0.3015
  204MOL0     C27445   5.302  10.481  11.266 -0.0691 -0.1885  0.7124
  204MOL0     C27446   5.273  10.628  11.245 -0.1031  0.1374 -0.5523
  204MOL0     C27447   5.241  10.692  11.382  0.7587  0.1657 -0.1230
  204MOL0     C27448   5.361  10.707  11.477 -0.3845  0.6795  0.3488
  204MOL0     C27449   5.338  10.778  11.610 -1.1229 -0.2258  0.9009
  204MOL0    Cl27450   5.468  10.882  11.661 -0.0097  0.4282  0.0788
  204MOL0     C27451   5.830  10.393  11.042  0.3046 -1.0887 -0.2847
  204MOL0     C27452   5.961  10.382  11.027  0.8645 -0.1144  1.0319
  204MOL0     O27453   6.221  10.423  11.120 -0.4972  0.3862  0.3074
  204MOL0     C27454   6.314  10.320  10.808 -0.2362  0.1313 -0.0971
  204MOL0     C27455   6.409  10.348  10.701  0.3243 -0.7068 -0.4434
  204MOL0     N27456   7.018  10.273  10.745 -0.0312  0.2627  0.6730
  204MOL0     N27457   7.032  10.142  10.735  0.3501  0.0035  0.7037
  204MOL0     C27458   7.972   9.492  10.568  0.0330  0.9680  0.0227
  204MOL0     C27459   8.107   9.520  10.532 -0.2208  0.1115 -0.0009
  204MOL0     C27460   8.560   9.441  10.530  0.1121  0.3233  0.6870
  204MOL0     C27461   8.632   9.556  10.531  0.2876  0.5550 -0.7745
  204MOL0     C27462   8.772   9.552  10.509  0.1395 -0.3706 -1.1234
  204MOL0     C27463   8.846   9.441  10.492 -0.1155  0.1998 -0.5373
  204MOL0     O27464   8.978   9.450  10.485 -0.2906  0.0348  0.5637
  204MOL0     C27465   9.063   9.338  10.468  0.1188 -0.4948 -0.5091
  204MOL0     C27466   9.209   9.386  10.437 -0.3243  0.5618 -1.2825
  204MOL0     C27467   9.313   9.275  10.476 -0.4651  0.4804 -0.3890
  204MOL0     C27468   9.441   9.282  10.386  0.7912  0.5781 -0.5900
  204MOL0     C27469   9.543   9.214  10.463  0.4114 -0.0807 -0.5638
  204MOL0     C27470   9.626   9.159  10.527 -0.3124  0.0356 -0.0059
  204MOL0     C27471   8.772   9.321  10.500 -1.1833  0.3506 -0.5756
  204MOL0     C27472   8.634   9.321  10.513 -0.6223  0.0968 -0.5395
  204MOL0     H27473   8.272   9.480  10.828  1.7518  2.6724 -1.5399
  204MOL0     H27474   8.043   9.446  10.903 -2.5021  0.2704 -0.5661
  204MOL0     H27475   7.739   9.616  10.618 -2.7601  0.7325 -0.1375
  204MOL0     H27476   7.640   9.570  10.752  0.0177  3.6222  1.2537
  204MOL0     H27477   7.760   9.695  10.908 -2.3307 -0.8406 -1.3891
  204MOL0     H27478   7.898   9.717  10.813  0.4040 -0.8265 -1.5700
  204MOL0     H27479   7.784   9.923  10.768 -2.6001  0.9614 -3.1489
  204MOL0     H27480   7.743   9.826  10.634  3.7693 -0.0532  0.2265
  204MOL0     H27481   7.541   9.746  10.784 -0.0239  0.0203  1.3774
  204MOL0     H27482   7.561   9.912  10.858 -3.3216  1.9869 -1.4267
  204MOL0     H27483   7.554  10.022  10.639  2.2048 -1.4616 -2.8339
  204MOL0     H27484   7.523   9.871  10.560 -0.1415  0.7627 -0.7870
  204MOL0     H27485   7.322   9.847  10.741  1.9888  0.7293  3.2116
  204MOL0     H27486   7.340  10.017  10.763 -1.1300 -0.4230  1.0519
  204MOL0     H27487   7.335  10.059  10.506 -0.4763 -1.0640 -0.3379
  204MOL0     H27488   7.312   9.899  10.478  1.4220 -0.1844  0.9131
  204MOL0     H27489   7.086   9.914  10.619  1.3987 -0.3311  0.1180
  204MOL0     H27490   7.095   9.976  10.472 -2.0918  1.0529  1.5356
  204MOL0     H27491   7.142  10.253  10.447 -3.5487  2.2127 -1.6186
  204MOL0     H27492   7.001  10.526  10.687 -0.4380 -1.2561  0.9512
  204MOL0     H27493   7.134  10.531  10.582 -0.4434  1.5896 -0.3854
  204MOL0     H27494   6.988  10.465  10.389 -1.9352  1.6151 -1.2038
  204MOL0     H27495   6.936  10.619  10.466  1.4711  0.9542 -1.7875
  204MOL0     H27496   6.813  10.352  10.476  1.9423  0.2374  0.1796
  204MOL0     H27497   6.745  10.513  10.414 -1.2090  1.5607  1.4111
  204MOL0     H27498   6.757  10.579  10.669  1.5988 -0.6193 -2.0527
  204MOL0     H27499   6.795  10.418  10.695  0.0591 -2.4430 -0.8617
  204MOL0     H27500   6.648  10.509  10.863  1.2871 -0.4362 -1.0202
  204MOL0     H27501   6.463  10.549  11.137  1.1939  0.3833  1.7918
  204MOL0     H27502   6.527  10.384  11.169  2.6366  1.2158  1.0516
  204MOL0     H27503   6.618  10.507  11.098 -1.0060  0.8038  0.9057
  204MOL0     H27504   5.975  10.060  11.134 -1.8487 -0.7592  0.9070
  204MOL0     H27505   5.744  10.085  11.147  1.8463 -1.5069  1.2980
  204MOL0     H27506   5.574  10.172  11.240  0.6436 -0.9079 -1.8004
  204MOL0     H27507   5.554  10.333  11.302  1.2936 -0.3794 -1.1447
  204MOL0     H27508   5.373  10.201  11.092  0.3322  1.5873 -2.1469
  204MOL0     H27509   5.339  10.226  11.265 -0.8802  0.0266  0.1614
  204MOL0     H27510   5.230  10.379  11.082  0.6842  0.2394 -1.1534
  204MOL0     H27511   5.391  10.455  11.069  2.8698 -1.5463  1.4539
  204MOL0     H27512   5.219  10.430  11.316  1.0754 -1.0448  1.8188
  204MOL0     H27513   5.392  10.465  11.327  0.7103  1.3373  0.0385
  204MOL0     H27514   5.190  10.652  11.178 -0.4407  2.3266  0.5624
  204MOL0     H27515   5.360  10.681  11.204  0.7868 -1.5640 -0.9430
  204MOL0     H27516   5.220  10.798  11.364 -0.4543 -0.4282 -2.4979
  204MOL0     H27517   5.157  10.646  11.436  0.6511 -0.0175 -0.4445
  204MOL0     H27518   5.439  10.752  11.415  0.5365 -2.2465 -0.7542
  204MOL0     H27519   5.382  10.601  11.492 -1.0365  0.0403 -2.6628
  204MOL0     H27520   5.321  10.697  11.681 -1.0054  0.3589  1.6021
  204MOL0     H27521   5.252  10.846  11.605 -0.0209  1.1936  0.4284
  204MOL0     H27522   5.772  10.481  11.021 -0.7488 -1.5927  0.4601
  204MOL0     H27523   6.010  10.464  10.977 -2.1345  0.0799 -1.8898
  204MOL0     H27524   6.223  10.268  10.784  0.5801 -2.6382  2.2211
  204MOL0     H27525   6.398  10.299  10.605  1.8480 -2.3734  0.1701
  204MOL0     H27526   7.893   9.494  10.494 -1.9864 -1.2055  1.9389
  204MOL0     H27527   8.134   9.514  10.427  3.1723  0.2089  0.7645
  204MOL0     H27528   8.574   9.647  10.533  0.0791  0.4352 -1.1923
  204MOL0     H27529   8.827   9.646  10.511 -1.1699  0.4190 -1.2147
  204MOL0     H27530   9.063   9.281  10.561  1.1586 -0.2874 -0.3634
  204MOL0     H27531   9.036   9.273  10.384  3.6502 -1.3042 -1.1776
  204MOL0     H27532   9.233   9.474  10.497  0.9941  0.7400 -2.0378
  204MOL0     H27533   9.224   9.409  10.331  1.8734  0.2207 -1.0922
  204MOL0     H27534   9.272   9.174  10.467  0.4248  0.2313 -1.9998
  204MOL0     H27535   9.342   9.294  10.580 -2.3726 -1.2455  0.5397
  204MOL0     H27536   9.479   9.378  10.351  2.6502  0.0969  0.0257
  204MOL0     H27537   9.401   9.225  10.301  1.4142 -0.2148 -0.3698
  204MOL0     H27538   9.709   9.125  10.587 -0.4484  1.9772  1.3667
  204MOL0     H27539   8.823   9.225  10.508  0.1816  1.2001  1.7796
  204MOL0     H27540   8.581   9.226  10.513 -1.4013  0.5131  0.3062
  205MOL0     O27541   5.117   8.288   1.711 -0.2491 -0.2271  0.4018
  205MOL0     C27542   5.198   8.286   1.802 -0.4967 -0.2327  0.0889
  205MOL0     O27543   5.173   8.263   1.931  0.3678 -0.6088  0.3673
  205MOL0     C27544   5.046   8.253   1.980 -0.9330 -0.3547 -1.2898
  205MOL0     C27545   4.930   8.325   1.926 -0.9353 -0.0539  0.7270
  205MOL0     C27546   4.806   8.301   1.989  0.0299  0.4405  0.5092
  205MOL0     C27547   4.792   8.209   2.096 -0.6868 -0.4426  0.3512
  205MOL0     O27548   4.679   8.190   2.170 -0.5053 -0.3344 -0.0662
  205MOL0     C27549   4.545   8.209   2.120 -0.2497 -0.1137  0.2374
  205MOL0     C27550   4.454   8.164   2.229 -0.4530  0.6793 -0.5671
  205MOL0     C27551   4.308   8.195   2.199  0.1216 -0.9251  0.2486
  205MOL0     C27552   4.276   8.342   2.207  1.0682 -0.2010  0.1508
  205MOL0     C27553   4.138   8.369   2.265  0.5855  0.7289  0.2129
  205MOL0     C27554   4.021   8.341   2.162  0.2857  0.2908 -0.1558
  205MOL0     C27555   3.884   8.342   2.234 -0.0658  0.3844  0.0286
  205MOL0     C27556   3.779   8.289   2.139 -0.0928 -0.3291  0.2738
  205MOL0     N27557   3.644   8.277   2.197 -0.3610  0.5088 -0.1156
  205MOL0     C27558   3.561   8.369   2.268  0.1253  0.4520  0.5424
  205MOL0     C27559   3.439   8.314   2.290 -0.4172 -0.6130  0.8029
  205MOL0     C27560   3.328   8.382   2.357  0.5055  0.2392 -0.1399
  205MOL0     C27561   3.208   8.383   2.261  0.2990 -0.2613  0.0617
  205MOL0     C27562   3.123   8.257   2.280 -1.3319  0.0959  0.8884
  205MOL0     C27563   3.050   8.264   2.413  0.6331  0.6409 -0.0976
  205MOL0     O27564   2.936   8.173   2.420 -0.3367  0.0369 -0.0108
  205MOL0     C27565   2.813   8.209   2.367 -0.3146  0.1304  0.2853
  205MOL0     C27566   2.710   8.118   2.377 -0.5926  0.8487  0.5609
  205MOL0     C27567   2.580   8.138   2.327 -0.5252  0.1204  0.1560
  205MOL0     C27568   2.474   8.032   2.367 -0.5761  0.1134 -0.1512
  205MOL0     C27569   2.552   8.266   2.266  0.3538  0.6079  0.2349
  205MOL0     C27570   2.418   8.300   2.210 -0.2634  0.4272 -0.3977
  205MOL0     O27571   2.332   8.196   2.184 -0.1667 -0.8138 -0.6431
  205MOL0     C27572   2.205   8.226   2.133  0.4050  0.3399  0.1325
  205MOL0     C27573   2.168   8.191   2.002 -0.0625 -0.4737  0.6064
  205MOL0     C27574   2.033   8.198   1.977  0.0072  0.4941 -0.5297
  205MOL0     C27575   1.935   8.252   2.061  0.1360 -0.4396  0.4778
  205MOL0     O27576   1.810   8.254   2.010 -0.1863  0.7025 -1.1572
  205MOL0     C27577   1.710   8.195   2.099 -0.0483 -0.2610  0.3295
  205MOL0     C27578   1.579   8.232   2.038  0.4168 -0.5482  0.5048
  205MOL0     C27579   1.540   8.384   2.063  0.6608 -0.3579  0.8555
  205MOL0     C27580   1.408   8.426   1.994 -0.1524  0.1525  0.3416
  205MOL0     C27581   1.371   8.574   2.012  0.3225  0.2657 -0.2784
  205MOL0     C27582   1.374   8.639   2.144 -0.2949 -0.4351  0.6195
  205MOL0     C27583   1.331   8.788   2.142  0.1599  0.3584 -0.0374
  205MOL0     C27584   1.420   8.872   2.231 -0.2540 -0.3264 -0.2425
  205MOL0    Cl27585   1.573   8.901   2.141 -0.3116  0.0982 -0.4933
  205MOL0     C27586   1.973   8.288   2.192  0.7037  0.1334  0.7172
  205MOL0     C27587   2.104   8.269   2.228 -0.9717  0.7145  0.3507
  205MOL0     O27588   2.401   8.417   2.187  0.5863  0.3659 -0.3785
  205MOL0     C27589   2.651   8.363   2.257 -0.5956 -0.0798  0.6373
  205MOL0     C27590   2.782   8.336   2.317 -0.3259 -0.3755  0.9547
  205MOL0     N27591   3.448   8.187   2.248  0.0896  0.5452  0.1980
  205MOL0     N27592   3.559   8.170   2.180  0.2310 -0.1564  0.5282
  205MOL0     C27593   4.902   8.139   2.144 -0.6813 -0.2222 -0.3904
  205MOL0     C27594   5.030   8.164   2.089  0.3414 -0.4152  0.0378
  205MOL0     C27595   5.342   8.294   1.756  0.2023 -0.5553 -0.5445
  205MOL0     C27596   5.443   8.317   1.861 -0.1385  0.3427 -0.0174
  205MOL0     C27597   5.584   8.321   1.828  0.8941 -0.6475 -0.1300
  205MOL0     C27598   5.623   8.299   1.690  1.2642  0.4737 -1.1618
  205MOL0     O27599   5.755   8.282   1.654 -0.0780  1.1534 -0.7784
  205MOL0     C27600   5.790   8.141   1.667  0.4626 -0.5510  0.0200
  205MOL0     C27601   5.793   8.078   1.530 -0.3384  0.9880  0.9851
  205MOL0     C27602   5.915   8.123   1.438  0.7538  0.7863 -0.3868
  205MOL0     C27603   6.065   8.112   1.487  0.4584  0.1871  0.4250
  205MOL0     C27604   6.075   7.978   1.554 -0.6144 -0.9371 -0.1005
  205MOL0     C27605   6.069   7.871   1.613  0.7475 -0.3683  0.0085
  205MOL0     C27606   5.515   8.275   1.592 -0.0921 -0.1794  0.3657
  205MOL0     C27607   5.378   8.277   1.629 -0.0824  0.1341  1.0635
  205MOL0     H27608   4.933   8.396   1.843  1.2140 -1.7405 -0.7723
  205MOL0     H27609   4.720   8.360   1.958 -2.2477 -0.5506  4.3345
  205MOL0     H27610   4.539   8.317   2.102 -1.3118 -0.0644  0.8212
  205MOL0     H27611   4.543   8.142   2.033 -1.5282 -0.2952  0.3930
  205MOL0     H27612   4.453   8.057   2.252 -1.5652  1.0197  1.1236
  205MOL0     H27613   4.481   8.210   2.324  0.7410 -1.6041  0.2831
  205MOL0     H27614   4.279   8.171   2.096 -2.0644  2.2361  0.0124
  205MOL0     H27615   4.240   8.153   2.274 -1.2699  3.8291  2.0010
  205MOL0     H27616   4.354   8.397   2.261 -0.4736  2.2362  0.0411
  205MOL0     H27617   4.275   8.366   2.100 -0.6484 -1.5059 -0.1632
  205MOL0     H27618   4.119   8.313   2.357 -3.9469 -1.6335 -1.8307
  205MOL0     H27619   4.135   8.475   2.293 -0.1757  0.9012 -0.4847
  205MOL0     H27620   4.021   8.421   2.087 -2.8419  1.3088  0.7547
  205MOL0     H27621   4.031   8.241   2.117 -0.1194 -0.4580  1.3643
  205MOL0     H27622   3.886   8.283   2.327 -0.8730 -0.7696 -0.6625
  205MOL0     H27623   3.865   8.443   2.272 -0.6079 -0.4297  2.0942
  205MOL0     H27624   3.812   8.190   2.106  1.6115  0.4285 -0.3772
  205MOL0     H27625   3.768   8.355   2.053  0.5060 -1.2652 -0.5440
  205MOL0     H27626   3.587   8.468   2.303  4.9913 -0.7420  1.1326
  205MOL0     H27627   3.299   8.335   2.451 -0.5707  2.3570  0.6529
  205MOL0     H27628   3.366   8.480   2.386  2.3686  0.0891 -1.8274
  205MOL0     H27629   3.248   8.392   2.160 -0.1477 -1.0787 -0.1926
  205MOL0     H27630   3.151   8.474   2.284  0.4383 -0.1975  0.1571
  205MOL0     H27631   3.188   8.170   2.280 -0.9700  0.3241  2.5604
  205MOL0     H27632   3.052   8.253   2.197  0.0105 -1.4599 -0.2380
  205MOL0     H27633   3.025   8.369   2.428 -4.2240 -0.3714  0.5028
  205MOL0     H27634   3.113   8.230   2.496  1.0172 -1.6699 -1.2477
  205MOL0     H27635   2.733   8.028   2.434  3.2473  0.6465 -1.0104
  205MOL0     H27636   2.454   7.979   2.273 -0.9146 -1.2020  0.6287
  205MOL0     H27637   2.513   7.958   2.438 -0.8901  0.9210  0.9001
  205MOL0     H27638   2.373   8.066   2.394 -1.5535 -0.2738 -2.9782
  205MOL0     H27639   2.240   8.144   1.935  0.3096  0.4065  0.3692
  205MOL0     H27640   2.004   8.171   1.876  3.0361  1.3824 -1.7695
  205MOL0     H27641   1.721   8.087   2.090  0.3273 -0.1111 -1.3640
  205MOL0     H27642   1.720   8.223   2.204 -0.6167  0.7458  0.1304
  205MOL0     H27643   1.581   8.209   1.931  2.4612 -2.3995  0.8646
  205MOL0     H27644   1.506   8.171   2.094 -0.9829 -0.3122 -0.9958
  205MOL0     H27645   1.617   8.456   2.036  0.3527 -0.0131  0.8916
  205MOL0     H27646   1.523   8.399   2.170 -1.2512  1.4556  0.3569
  205MOL0     H27647   1.407   8.396   1.889 -1.3524  1.6661 -0.1176
  205MOL0     H27648   1.327   8.366   2.037  0.0709 -0.9307 -0.7063
  205MOL0     H27649   1.277   8.585   1.958  0.8085 -3.0257 -2.0369
  205MOL0     H27650   1.449   8.627   1.955 -0.6221  1.3085 -0.6355
  205MOL0     H27651   1.308   8.578   2.207 -2.7345 -0.2910 -1.6289
  205MOL0     H27652   1.478   8.633   2.179  1.0550 -2.4975 -3.2213
  205MOL0     H27653   1.228   8.788   2.178 -0.6035 -1.4076 -2.0216
  205MOL0     H27654   1.332   8.826   2.039 -2.4603 -1.3293 -0.7735
  205MOL0     H27655   1.431   8.814   2.323 -0.9601  0.3868  0.3011
  205MOL0     H27656   1.383   8.974   2.243  0.9738  0.0659  0.4143
  205MOL0     H27657   1.902   8.319   2.268 -1.4880 -3.3281  0.3517
  205MOL0     H27658   2.129   8.281   2.333  2.3909  3.6378 -0.5679
  205MOL0     H27659   2.640   8.464   2.220  3.2924  1.0565  2.1037
  205MOL0     H27660   2.853   8.419   2.328 -1.5300  0.9161 -0.5350
  205MOL0     H27661   4.884   8.072   2.227 -0.7286 -0.3074 -0.4693
  205MOL0     H27662   5.120   8.111   2.119 -0.1480 -1.1581  0.2226
  205MOL0     H27663   5.421   8.338   1.965 -0.4687  2.7354 -0.5101
  205MOL0     H27664   5.663   8.335   1.902  2.2022 -0.6662 -1.4685
  205MOL0     H27665   5.886   8.132   1.719  0.0214  1.2400  1.2334
  205MOL0     H27666   5.719   8.080   1.723 -1.6303  0.9683 -0.8614
  205MOL0     H27667   5.700   8.100   1.477 -0.9960 -3.5788 -0.1932
  205MOL0     H27668   5.800   7.969   1.540 -0.6213  0.8699  0.0063
  205MOL0     H27669   5.891   8.222   1.398 -4.4838 -1.2853 -3.3625
  205MOL0     H27670   5.903   8.052   1.356 -0.6073 -1.2800  1.4506
  205MOL0     H27671   6.081   8.192   1.560  2.2689 -0.5780  0.9407
  205MOL0     H27672   6.138   8.115   1.406  0.7370  1.0071  0.6981
  205MOL0     H27673   6.066   7.783   1.674  0.4538  1.0731  2.2268
  205MOL0     H27674   5.534   8.261   1.486  0.8127 -2.9196  0.8329
  205MOL0     H27675   5.308   8.264   1.547 -0.4054  1.4064  1.1246
  206MOL0     O27676   3.817   6.035   1.823 -0.2329 -0.1996 -0.4730
  206MOL0     C27677   3.867   6.029   1.933 -0.4744  0.4017  0.3033
  206MOL0     O27678   3.803   5.994   2.043 -0.5964 -0.2814 -0.0314
  206MOL0     C27679   3.667   6.000   2.065  0.9027 -0.3552 -0.4794
  206MOL0     C27680   3.583   6.115   2.033 -0.1592  0.6585 -0.5579
  206MOL0     C27681   3.445   6.104   2.056 -0.1321 -0.9347  0.0686
  206MOL0     C27682   3.385   5.986   2.103 -0.2869 -1.1187 -0.2818
  206MOL0     O27683   3.250   5.958   2.113 -0.1627 -0.2619  0.0586
  206MOL0     C27684   3.164   6.079   2.097 -0.0417  0.5032  0.1337
  206MOL0     C27685   3.137   6.096   1.944 -0.2768  0.4853  0.3684
  206MOL0     C27686   3.001   6.038   1.879 -1.0413 -0.1358  0.6711
  206MOL0     C27687   2.995   5.889   1.876  0.8197  0.2607  0.8477
  206MOL0     C27688   2.858   5.829   1.837 -0.2483  0.1717  0.5826
  206MOL0     C27689   2.869   5.690   1.776 -0.3334 -0.3015 -0.2510
  206MOL0     C27690   2.725   5.635   1.749 -0.0140 -0.2600  0.1491
  206MOL0     C27691   2.720   5.513   1.668 -0.0632  0.7147 -0.3015
  206MOL0     N27692   2.589   5.466   1.620  0.6467  0.5466  0.2012
  206MOL0     C27693   2.471   5.497   1.677  0.8741 -0.9970  0.0687
  206MOL0     C27694   2.379   5.436   1.599 -0.0542  0.1459 -0.0560
  206MOL0     C27695   2.231   5.457   1.618 -0.6344  0.1464 -1.1640
  206MOL0     C27696   2.163   5.525   1.505 -0.0093 -0.1842 -0.0477
  206MOL0     C27697   2.172   5.679   1.527  0.4246  0.2300 -1.0259
  206MOL0     C27698   2.082   5.738   1.409 -0.3328 -0.6399  0.3077
  206MOL0     O27699   2.089   5.880   1.414  0.0016 -0.0555 -0.1373
  206MOL0     C27700   2.010   5.936   1.323  0.3023  0.2496 -0.1843
  206MOL0     C27701   2.055   5.987   1.196  0.4478 -0.5290  1.2597
  206MOL0     C27702   1.976   6.078   1.119 -0.1577  0.4773 -0.4384
  206MOL0     C27703   2.027   6.124   0.978 -0.0518  0.3604 -0.8345
  206MOL0     C27704   1.852   6.122   1.176 -0.0763 -0.4815  0.9433
  206MOL0     C27705   1.753   6.213   1.103  0.1549 -0.0910  0.2146
  206MOL0     O27706   1.633   6.231   1.169 -0.1108 -0.4644 -1.3445
  206MOL0     C27707   1.524   6.270   1.095 -0.0350 -1.3240 -0.5249
  206MOL0     C27708   1.480   6.214   0.979 -0.4356  0.0075  0.3968
  206MOL0     C27709   1.352   6.245   0.925 -0.2420 -0.0115 -0.6213
  206MOL0     C27710   1.262   6.332   0.991  0.3979  0.2827 -0.0236
  206MOL0     O27711   1.123   6.347   0.971  0.1195  0.1692 -0.2744
  206MOL0     C27712   1.060   6.314   0.849  0.3036  0.6442 -0.1731
  206MOL0     C27713   0.912   6.270   0.877  0.4849  0.0560  1.2787
  206MOL0     C27714   0.834   6.387   0.945 -1.1715 -0.2735  1.2975
  206MOL0     C27715   0.687   6.379   0.935  0.1574  0.0621  0.1115
  206MOL0     C27716   0.617   6.457   1.048 -0.1150 -1.3261  1.4856
  206MOL0     C27717   0.631   6.608   1.022 -0.0148 -0.3228  0.0694
  206MOL0     C27718   0.571   6.691   1.146 -0.0790 -0.0513  0.0668
  206MOL0     C27719   0.482   6.811   1.115 -0.5532  0.0400 -0.3654
  206MOL0    Cl27720   0.354   6.747   1.025  0.4487  0.0782  0.1616
  206MOL0     C27721   1.304   6.385   1.111  0.0656 -0.7591 -0.4155
  206MOL0     C27722   1.434   6.351   1.161  0.0005 -0.4987 -0.0585
  206MOL0     O27723   1.772   6.256   0.991 -0.5479 -0.1340  0.1367
  206MOL0     C27724   1.801   6.048   1.285  0.2633 -0.0235  0.2976
  206MOL0     C27725   1.877   5.959   1.364  0.0137  0.0043 -0.0116
  206MOL0     N27726   2.446   5.389   1.483  0.6245 -1.2342  0.3983
  206MOL0     N27727   2.575   5.397   1.503 -0.6810 -0.4023 -0.9691
  206MOL0     C27728   3.467   5.891   2.155  0.9413  0.4885 -0.3224
  206MOL0     C27729   3.604   5.892   2.128 -0.5801 -0.1818  0.1565
  206MOL0     C27730   4.018   6.028   1.937  0.4531 -1.1144  0.5448
  206MOL0     C27731   4.094   6.040   1.814 -0.4514  0.3391 -0.0792
  206MOL0     C27732   4.233   6.052   1.830  0.2260  0.1223  1.0871
  206MOL0     C27733   4.299   6.046   1.955 -0.2791  0.1815 -0.4919
  206MOL0     O27734   4.434   6.050   1.977 -0.1231  0.4199  0.1015
  206MOL0     C27735   4.505   6.073   1.852  0.8710 -0.1941 -0.7787
  206MOL0     C27736   4.655   6.047   1.872 -0.3889 -0.0173 -0.8949
  206MOL0     C27737   4.752   6.147   1.801 -0.3473 -0.1875  0.1810
  206MOL0     C27738   4.731   6.135   1.646  0.2323  0.0797 -0.4477
  206MOL0     C27739   4.823   6.225   1.584 -0.0846 -0.1358 -0.0049
  206MOL0     C27740   4.898   6.310   1.545 -0.1108 -0.5585  0.7775
  206MOL0     C27741   4.221   6.028   2.063  0.9023 -0.4036  0.5687
  206MOL0     C27742   4.082   6.025   2.061  0.5298  0.3444  0.2614
  206MOL0     H27743   3.628   6.192   1.971  0.4174  0.8599  0.0976
  206MOL0     H27744   3.374   6.169   2.008  1.5070  0.2236 -0.9061
  206MOL0     H27745   3.072   6.053   2.150 -0.6080  2.7947  0.3535
  206MOL0     H27746   3.212   6.168   2.138 -0.1753  0.6042  0.0709
  206MOL0     H27747   3.126   6.204   1.939  0.8402  0.5626 -1.2324
  206MOL0     H27748   3.226   6.078   1.883 -0.0043  0.5896  0.7364
  206MOL0     H27749   2.911   6.067   1.934 -1.5219  0.7464 -0.5418
  206MOL0     H27750   2.997   6.066   1.774  2.0585 -0.1061  0.4666
  206MOL0     H27751   3.061   5.849   1.799 -2.6102 -0.7686 -1.7807
  206MOL0     H27752   3.028   5.861   1.977 -0.9631 -1.0987  1.0990
  206MOL0     H27753   2.797   5.820   1.927  0.9876  1.1382  1.5466
  206MOL0     H27754   2.814   5.905   1.772  0.1086 -0.4537 -0.4143
  206MOL0     H27755   2.928   5.680   1.684 -1.3346 -2.2830 -0.7382
  206MOL0     H27756   2.912   5.627   1.854 -1.4604 -0.3409  0.3552
  206MOL0     H27757   2.664   5.622   1.839  1.6895  1.2012  1.6155
  206MOL0     H27758   2.674   5.719   1.701  1.5689  0.0366 -1.1151
  206MOL0     H27759   2.775   5.431   1.715 -2.3503 -0.3279  0.6972
  206MOL0     H27760   2.765   5.540   1.572 -1.8430  3.2819 -0.5168
  206MOL0     H27761   2.460   5.555   1.768 -0.8048 -0.8000 -0.2108
  206MOL0     H27762   2.190   5.356   1.625  0.9366 -0.4487 -0.2255
  206MOL0     H27763   2.203   5.505   1.712 -0.4372  0.6569 -1.3599
  206MOL0     H27764   2.057   5.498   1.503 -0.4179  1.3713 -0.6126
  206MOL0     H27765   2.196   5.492   1.406 -0.0665 -2.3760  0.6154
  206MOL0     H27766   2.277   5.707   1.525  0.1853  1.2601 -0.2425
  206MOL0     H27767   2.130   5.693   1.627  0.1553 -1.9467 -0.7765
  206MOL0     H27768   1.981   5.699   1.426  0.8778 -3.6358  1.3030
  206MOL0     H27769   2.127   5.701   1.317  1.2099  1.9900 -0.0967
  206MOL0     H27770   2.159   5.977   1.166  0.7784  0.7800  1.9168
  206MOL0     H27771   2.122   6.077   0.949 -0.6976 -1.5580  0.0116
  206MOL0     H27772   1.956   6.099   0.899  0.1125 -0.6321 -0.6874
  206MOL0     H27773   2.051   6.230   0.962 -0.1448 -0.0838 -4.8673
  206MOL0     H27774   1.539   6.141   0.925  3.7433  3.2121  0.1233
  206MOL0     H27775   1.321   6.190   0.836 -0.4653  0.8027 -1.0539
  206MOL0     H27776   1.064   6.395   0.775 -5.3317 -1.5996 -3.5985
  206MOL0     H27777   1.102   6.227   0.799 -0.4592  1.0812 -1.6364
  206MOL0     H27778   0.852   6.249   0.789 -3.8878  1.2075  3.6839
  206MOL0     H27779   0.909   6.179   0.937  1.7894 -0.6781  0.2548
  206MOL0     H27780   0.872   6.477   0.896  1.7089 -1.2868  1.4504
  206MOL0     H27781   0.865   6.395   1.050 -2.0440  2.5462  1.4102
  206MOL0     H27782   0.660   6.402   0.831  1.4265  2.7668  0.2966
  206MOL0     H27783   0.663   6.273   0.949  3.8005 -0.8139  0.9943
  206MOL0     H27784   0.658   6.425   1.144  2.5255  1.8711  1.6024
  206MOL0     H27785   0.511   6.435   1.036 -0.1956 -0.2548 -0.0824
  206MOL0     H27786   0.736   6.635   1.012  0.4256 -1.6046  0.9697
  206MOL0     H27787   0.579   6.641   0.931 -0.2989 -0.4806  0.1706
  206MOL0     H27788   0.654   6.724   1.209 -1.0108 -0.7646  1.7364
  206MOL0     H27789   0.515   6.623   1.212  0.1747 -2.4228 -1.9861
  206MOL0     H27790   0.546   6.867   1.046  2.4545 -1.5237  0.9511
  206MOL0     H27791   0.461   6.868   1.206 -1.6704 -0.6347 -0.1969
  206MOL0     H27792   1.244   6.438   1.184  0.5726 -2.0016  0.9611
  206MOL0     H27793   1.457   6.381   1.263  5.6789 -1.2867 -0.8123
  206MOL0     H27794   1.694   6.055   1.306  0.1164 -0.7619 -0.1663
  206MOL0     H27795   1.839   5.916   1.456 -1.6350 -0.1991 -0.7467
  206MOL0     H27796   3.419   5.801   2.193  0.6011  1.3447  1.3509
  206MOL0     H27797   3.660   5.801   2.151  2.8628  1.9001  0.7928
  206MOL0     H27798   4.052   6.043   1.715  1.2259  0.3797 -0.8268
  206MOL0     H27799   4.280   6.058   1.732  0.4012 -2.3156  0.9502
  206MOL0     H27800   4.470   6.012   1.769 -2.6314 -0.4059  0.6626
  206MOL0     H27801   4.497   6.175   1.813  2.0582 -0.3045 -1.3527
  206MOL0     H27802   4.686   5.944   1.850 -0.6930 -1.1314  3.0688
  206MOL0     H27803   4.673   6.062   1.979  0.5117  1.7275 -1.2493
  206MOL0     H27804   4.851   6.114   1.833 -0.2211 -1.2617 -1.2060
  206MOL0     H27805   4.744   6.252   1.831  2.4958  0.6951 -1.7189
  206MOL0     H27806   4.631   6.161   1.609 -1.3509 -0.5488  2.9718
  206MOL0     H27807   4.760   6.033   1.622  3.0646  0.9476 -1.1059
  206MOL0     H27808   4.968   6.380   1.506 -2.8000  1.9606  0.0742
  206MOL0     H27809   4.258   6.001   2.161  0.2759 -0.3634  0.8192
  206MOL0     H27810   4.025   6.014   2.152  0.8688 -0.0184  0.4314
  207MOL0     O27811   2.825   7.863   1.473  0.0248  0.1732  0.6608
  207MOL0     C27812   2.901   7.866   1.378 -0.8062  0.1858  0.9439
  207MOL0     O27813   2.887   7.793   1.261  0.6129  0.4796  0.3557
  207MOL0     C27814   2.804   7.682   1.247 -0.4135 -0.3359  0.3624
  207MOL0     C27815   2.831   7.611   1.128 -0.4501  0.1370  0.1841
  207MOL0     C27816   2.774   7.486   1.093 -0.4623 -0.1601  0.0924
  207MOL0     C27817   2.681   7.437   1.182  1.7228 -0.0078 -0.2811
  207MOL0     O27818   2.585   7.333   1.153 -0.8845 -0.3860 -0.4727
  207MOL0     C27819   2.553   7.299   1.021  0.4935  0.3047  0.2005
  207MOL0     C27820   2.460   7.178   1.032 -0.7888  0.3328  0.0754
  207MOL0     C27821   2.323   7.216   1.090  0.0562 -0.1630 -0.6145
  207MOL0     C27822   2.256   7.094   1.148  0.2720  0.0244 -0.4564
  207MOL0     C27823   2.117   7.131   1.194  0.6936  0.7464 -0.6995
  207MOL0     C27824   2.035   7.006   1.232 -0.0470  0.3528  0.3593
  207MOL0     C27825   1.880   7.018   1.261 -0.4494 -0.1237  0.3339
  207MOL0     C27826   1.831   6.926   1.372  0.4812 -0.9068  0.4060
  207MOL0     N27827   1.683   6.904   1.371 -0.2396  0.6465 -0.1178
  207MOL0     C27828   1.623   6.796   1.302  0.1910  0.1555 -0.3178
  207MOL0     C27829   1.495   6.829   1.296 -0.8868  0.4421 -0.3745
  207MOL0     C27830   1.406   6.730   1.216 -0.1559  0.4002 -0.4744
  207MOL0     C27831   1.388   6.794   1.089  0.4553  0.2112 -0.8936
  207MOL0     C27832   1.323   6.700   0.984 -0.4843 -0.6217 -0.4197
  207MOL0     C27833   1.276   6.761   0.859 -0.4618 -0.1420  0.5633
  207MOL0     O27834   1.149   6.821   0.885 -0.2187 -0.2596  1.0692
  207MOL0     C27835   1.070   6.861   0.775 -0.1713 -0.3043 -0.3683
  207MOL0     C27836   0.932   6.841   0.792 -0.0076 -0.5108  0.1295
  207MOL0     C27837   0.836   6.871   0.693 -0.8462 -0.3748  0.2038
  207MOL0     C27838   0.685   6.860   0.710  0.2757 -0.1310 -0.1070
  207MOL0     C27839   0.888   6.918   0.570 -0.9333 -0.1440 -0.5688
  207MOL0     C27840   0.803   6.952   0.452  0.3573  0.2376 -0.3400
  207MOL0     O27841   0.692   7.022   0.482  0.3453 -0.3502 -0.0224
  207MOL0     C27842   0.623   7.100   0.398  0.2632 -1.0779  0.5102
  207MOL0     C27843   0.524   7.183   0.456 -0.3137 -0.0420 -0.3445
  207MOL0     C27844   0.450   7.278   0.384  0.1953  1.5595  0.2543
  207MOL0     C27845   0.462   7.293   0.243 -0.6218 -0.6845  0.0504
  207MOL0     O27846   0.393   7.392   0.187  0.8303  0.1390 -0.1372
  207MOL0     C27847   0.387   7.397   0.044 -0.0528  0.3693  0.4259
  207MOL0     C27848   0.288   7.487  -0.024 -0.3123 -0.4207 -0.1276
  207MOL0     C27849   0.147   7.436  -0.035 -0.1532  0.1939 -0.0611
  207MOL0     C27850   0.074   7.508  -0.157  0.9114  1.1022  0.1055
  207MOL0     C27851   0.079   7.657  -0.151 -0.6500 -1.5952  0.5061
  207MOL0     C27852   0.036   7.722  -0.283 -0.9971 -0.9790 -0.5868
  207MOL0     C27853  -0.108   7.711  -0.301  0.6318  0.0870  0.2598
  207MOL0     C27854  -0.153   7.738  -0.449 -0.3941  0.7108 -0.4084
  207MOL0    Cl27855  -0.319   7.663  -0.472 -0.3785  0.0828  0.3182
  207MOL0     C27856   0.564   7.215   0.190 -0.2495 -0.9504  0.6022
  207MOL0     C27857   0.643   7.126   0.264  0.0671 -0.3513 -0.1010
  207MOL0     O27858   0.839   6.922   0.341 -0.5136 -0.2623 -0.1290
  207MOL0     C27859   1.025   6.921   0.547 -0.4764  0.5960  0.1755
  207MOL0     C27860   1.120   6.902   0.654 -0.8708  0.3533 -0.2294
  207MOL0     N27861   1.471   6.942   1.375 -0.4880  0.0618 -0.0160
  207MOL0     N27862   1.586   6.991   1.413  0.2157 -0.2679 -0.2048
  207MOL0     C27863   2.658   7.501   1.306  0.0935 -0.7919  0.2853
  207MOL0     C27864   2.717   7.621   1.339  0.1850  0.3499 -0.4726
  207MOL0     C27865   3.006   7.965   1.374 -0.9454 -1.2001 -0.6595
  207MOL0     C27866   3.052   8.025   1.255 -0.3191  0.1947  0.4062
  207MOL0     C27867   3.142   8.129   1.262 -0.2380 -0.2909 -0.9002
  207MOL0     C27868   3.184   8.184   1.384 -0.2838  0.0569 -0.9048
  207MOL0     O27869   3.286   8.278   1.384  0.3867  0.1782 -0.1335
  207MOL0     C27870   3.239   8.413   1.415  0.3866 -0.2968 -0.1636
  207MOL0     C27871   3.355   8.510   1.438  0.4107 -0.2251  1.1982
  207MOL0     C27872   3.425   8.559   1.311  0.9701 -0.5148  1.1611
  207MOL0     C27873   3.523   8.671   1.334 -0.4513 -0.3632  0.7695
  207MOL0     C27874   3.464   8.799   1.316 -0.4492  0.4252  0.0920
  207MOL0     C27875   3.417   8.914   1.312 -0.2003 -0.2351  0.2036
  207MOL0     C27876   3.141   8.130   1.503 -0.6917 -0.3508 -0.8813
  207MOL0     C27877   3.057   8.019   1.491 -0.7843 -0.1912 -0.2435
  207MOL0     H27878   2.912   7.650   1.067  1.6518 -1.1934  1.9960
  207MOL0     H27879   2.804   7.428   1.006  4.2980 -0.6039  1.7295
  207MOL0     H27880   2.493   7.379   0.975  0.6242  2.0131  2.7843
  207MOL0     H27881   2.635   7.283   0.951 -2.0027  0.2840 -2.9789
  207MOL0     H27882   2.449   7.144   0.928  0.8232 -0.6527  0.1851
  207MOL0     H27883   2.512   7.097   1.084 -0.6851  0.5901  0.3764
  207MOL0     H27884   2.331   7.294   1.167  0.7809  0.2162 -1.0605
  207MOL0     H27885   2.261   7.260   1.012  0.7560  1.1819 -0.4539
  207MOL0     H27886   2.254   7.023   1.064  0.9171  1.2044 -1.5107
  207MOL0     H27887   2.310   7.047   1.231  2.2208  0.4033 -1.4413
  207MOL0     H27888   2.122   7.197   1.281 -1.6110  1.4118 -1.0030
  207MOL0     H27889   2.063   7.176   1.110  0.7574 -0.5129 -1.4375
  207MOL0     H27890   2.044   6.939   1.146 -1.4274  0.0002  0.4624
  207MOL0     H27891   2.086   6.966   1.321 -2.9679  1.9118  2.9397
  207MOL0     H27892   1.869   7.125   1.282  0.6535 -0.0637  0.7042
  207MOL0     H27893   1.836   6.988   1.166 -0.2857 -0.8754  0.4933
  207MOL0     H27894   1.858   6.962   1.471  0.9581  3.4759 -1.0811
  207MOL0     H27895   1.884   6.831   1.367  1.9377 -0.1092  0.1087
  207MOL0     H27896   1.677   6.709   1.268  2.0480  2.3779 -3.5263
  207MOL0     H27897   1.455   6.632   1.209 -0.5654  0.0376  1.3406
  207MOL0     H27898   1.315   6.718   1.275  1.8580  0.8682  2.9813
  207MOL0     H27899   1.488   6.830   1.063  0.4168  3.1951  2.3811
  207MOL0     H27900   1.324   6.882   1.098  0.8238  0.3218  1.0379
  207MOL0     H27901   1.242   6.638   1.023 -1.7981  1.7126  0.7735
  207MOL0     H27902   1.399   6.630   0.948  0.6658  1.2634 -1.8848
  207MOL0     H27903   1.263   6.674   0.794  3.5664  0.5266 -1.4367
  207MOL0     H27904   1.341   6.833   0.808 -1.8217 -0.5668 -1.9352
  207MOL0     H27905   0.910   6.792   0.887  3.1836  0.0553  1.2701
  207MOL0     H27906   0.634   6.957   0.706  1.3657  0.5860  1.8032
  207MOL0     H27907   0.640   6.801   0.630 -2.2921  3.1312 -1.3028
  207MOL0     H27908   0.678   6.815   0.810 -0.9682 -3.6899 -1.6474
  207MOL0     H27909   0.502   7.183   0.562  0.1498  1.1049 -0.2300
  207MOL0     H27910   0.388   7.344   0.444 -2.3675  1.4248 -2.0441
  207MOL0     H27911   0.490   7.425   0.021 -0.7149  1.9627 -0.8580
  207MOL0     H27912   0.384   7.294   0.008 -1.3343  0.6961 -0.4897
  207MOL0     H27913   0.290   7.581   0.032  3.4481  0.9779 -2.2868
  207MOL0     H27914   0.322   7.487  -0.128  2.3189 -3.3775  0.5867
  207MOL0     H27915   0.108   7.459   0.065  3.2940  2.1917  0.9895
  207MOL0     H27916   0.147   7.329  -0.056  0.7656  0.4503 -1.4463
  207MOL0     H27917   0.115   7.471  -0.252 -4.4358 -0.0970 -2.0980
  207MOL0     H27918  -0.030   7.475  -0.157  0.8248  1.1474 -2.4480
  207MOL0     H27919   0.182   7.692  -0.141 -0.8934  0.2925 -2.4320
  207MOL0     H27920   0.019   7.699  -0.070 -0.5770 -2.6144  1.1112
  207MOL0     H27921   0.055   7.829  -0.273 -3.4020 -0.5858  0.4130
  207MOL0     H27922   0.092   7.690  -0.372  0.7351 -0.9435  0.4336
  207MOL0     H27923  -0.164   7.774  -0.231 -1.9826  0.6732 -2.2042
  207MOL0     H27924  -0.144   7.610  -0.280 -0.8086 -0.0661 -2.4913
  207MOL0     H27925  -0.082   7.689  -0.516 -0.3815 -2.4369  1.7280
  207MOL0     H27926  -0.149   7.847  -0.461  0.8807  1.2380  3.3913
  207MOL0     H27927   0.579   7.221   0.082  1.6124  0.6347  0.8882
  207MOL0     H27928   0.710   7.065   0.204 -1.2160 -0.6274 -1.3130
  207MOL0     H27929   1.076   6.931   0.451  2.3417  1.7473  1.6582
  207MOL0     H27930   1.226   6.908   0.633 -0.3948 -0.7614  1.6302
  207MOL0     H27931   2.576   7.461   1.365 -0.9619  1.2904  0.3163
  207MOL0     H27932   2.687   7.659   1.436  0.0761 -1.9309  0.4441
  207MOL0     H27933   3.023   7.989   1.157 -0.5628 -1.2196  0.9779
  207MOL0     H27934   3.169   8.171   1.166 -0.8762 -1.2383 -1.5071
  207MOL0     H27935   3.171   8.436   1.332  2.8208  0.1096 -2.1584
  207MOL0     H27936   3.178   8.407   1.506 -0.7568 -0.6577 -0.9244
  207MOL0     H27937   3.421   8.457   1.507  0.1098 -3.1997 -0.6069
  207MOL0     H27938   3.305   8.600   1.476  0.7293  1.1592 -1.3821
  207MOL0     H27939   3.345   8.570   1.237 -0.3992 -4.5763  1.7659
  207MOL0     H27940   3.483   8.469   1.287 -0.2647 -1.6848  2.3395
  207MOL0     H27941   3.609   8.650   1.269 -0.2810 -0.9481  1.1730
  207MOL0     H27942   3.550   8.674   1.440 -0.8664  2.8646  0.9019
  207MOL0     H27943   3.368   9.009   1.311 -2.5063 -1.3422 -0.1700
  207MOL0     H27944   3.189   8.163   1.594 -2.3750 -1.5673  0.5289
  207MOL0     H27945   3.031   7.972   1.586  1.6425  2.0615  1.6875
  208MOL0     O27946   6.527   4.558   5.482  0.1182 -0.2164 -1.0202
  208MOL0     C27947   6.473   4.580   5.595 -0.5371 -0.6679  0.5444
  208MOL0     O27948   6.346   4.599   5.603  1.5572 -0.5659 -1.4950
  208MOL0     C27949   6.255   4.611   5.503  1.0587 -0.2637  0.7616
  208MOL0     C27950   6.245   4.734   5.442  0.8697 -0.6191  0.2541
  208MOL0     C27951   6.192   4.747   5.314  1.3170 -0.4398 -0.5729
  208MOL0     C27952   6.118   4.635   5.261  0.4341 -0.2029 -0.3971
  208MOL0     O27953   6.043   4.646   5.150  0.1158 -0.4179 -0.9889
  208MOL0     C27954   5.930   4.730   5.173  0.8498  0.4700 -0.0350
  208MOL0     C27955   5.819   4.657   5.256 -0.2140 -0.7488 -0.3811
  208MOL0     C27956   5.695   4.739   5.265 -0.2304 -0.5095 -0.4624
  208MOL0     C27957   5.589   4.696   5.158 -0.0310 -0.0198  0.2425
  208MOL0     C27958   5.475   4.789   5.150  0.7576 -0.0588  0.4408
  208MOL0     C27959   5.385   4.773   5.029  0.4893  0.4679  0.3422
  208MOL0     C27960   5.238   4.756   5.076  0.4799 -1.0139 -0.2265
  208MOL0     C27961   5.195   4.617   5.120 -0.3291 -0.0373  0.2619
  208MOL0     N27962   5.073   4.613   5.185  0.3867  0.4218  0.7574
  208MOL0     C27963   4.940   4.646   5.135  0.1629  0.3226 -0.1626
  208MOL0     C27964   4.862   4.638   5.252 -0.5075  0.5163  0.2353
  208MOL0     C27965   4.723   4.701   5.280 -0.4188  0.0460  0.3950
  208MOL0     C27966   4.613   4.640   5.189 -0.7682  0.5160 -0.8454
  208MOL0     C27967   4.581   4.489   5.215  0.4563 -0.2880  0.4480
  208MOL0     C27968   4.487   4.459   5.326  0.0228 -0.3400  0.4801
  208MOL0     O27969   4.353   4.520   5.301  0.1603 -0.2047 -0.6550
  208MOL0     C27970   4.265   4.465   5.213 -0.2170  0.5629  0.6767
  208MOL0     C27971   4.206   4.555   5.123  0.1910 -0.0699  1.1838
  208MOL0     C27972   4.118   4.514   5.021 -0.3782  0.3466  0.3525
  208MOL0     C27973   4.067   4.622   4.928  0.3546  0.0545 -0.0377
  208MOL0     C27974   4.088   4.371   5.013 -0.8646  0.3528 -0.2582
  208MOL0     C27975   4.006   4.319   4.898  0.0092  0.2827 -1.0352
  208MOL0     O27976   4.029   4.186   4.869 -0.5031 -0.5391  0.6299
  208MOL0     C27977   3.980   4.151   4.751  0.5233 -0.3752  0.6652
  208MOL0     C27978   3.871   4.063   4.757  0.3730  0.5600  0.1684
  208MOL0     C27979   3.813   4.022   4.634  0.2277 -0.6947 -0.0641
  208MOL0     C27980   3.870   4.047   4.509 -0.1251 -0.9333  0.8694
  208MOL0     O27981   3.829   3.992   4.391  0.6993  0.3836 -0.1629
  208MOL0     C27982   3.701   4.019   4.342 -0.0773 -0.8520  0.3244
  208MOL0     C27983   3.699   4.176   4.296  0.1680 -0.0504 -1.2293
  208MOL0     C27984   3.577   4.225   4.222  0.9243 -0.7171 -0.0169
  208MOL0     C27985   3.562   4.185   4.076 -1.1686 -0.4559  0.5082
  208MOL0     C27986   3.426   4.223   4.017  0.2651  0.6314  0.3307
  208MOL0     C27987   3.395   4.140   3.890  0.5176  0.3449  0.1860
  208MOL0     C27988   3.247   4.148   3.846  0.2839 -0.1410 -0.0977
  208MOL0     C27989   3.214   4.066   3.726  0.0385 -0.5311 -0.2628
  208MOL0    Cl27990   3.341   4.087   3.604 -0.1761 -0.3566  0.5273
  208MOL0     C27991   3.985   4.132   4.510  0.5143 -0.5948 -0.0960
  208MOL0     C27992   4.032   4.188   4.623  0.5016 -0.3999 -0.0789
  208MOL0     O27993   3.910   4.388   4.856  0.2362  0.3460 -0.2174
  208MOL0     C27994   4.146   4.283   5.102  0.3215 -0.3847 -0.1429
  208MOL0     C27995   4.238   4.331   5.202 -0.0126  1.0013  0.0399
  208MOL0     N27996   4.936   4.586   5.356  0.1725 -0.3601  0.0526
  208MOL0     N27997   5.059   4.580   5.315 -0.4615 -0.0683  0.1990
  208MOL0     C27998   6.102   4.517   5.345  0.8061  0.1303 -0.3274
  208MOL0     C27999   6.181   4.501   5.463  0.3977 -0.0392 -0.9896
  208MOL0     C28000   6.569   4.588   5.711 -0.7157 -0.5512 -0.3370
  208MOL0     C28001   6.706   4.582   5.689 -0.1916  0.0782  0.5596
  208MOL0     C28002   6.798   4.574   5.794 -0.3882  0.8235  0.5600
  208MOL0     C28003   6.762   4.567   5.925  0.3842 -0.3090  0.2000
  208MOL0     O28004   6.851   4.548   6.028  0.1116  0.4043  0.3148
  208MOL0     C28005   6.937   4.435   6.013  1.3514  0.2037  0.4387
  208MOL0     C28006   6.858   4.297   5.997 -0.5601  0.2453  0.5101
  208MOL0     C28007   6.968   4.187   5.986 -0.1455  0.0073 -0.3784
  208MOL0     C28008   6.912   4.048   5.977 -0.2769 -0.1092  0.1073
  208MOL0     C28009   6.833   4.014   5.855 -0.3954  0.1019 -0.1930
  208MOL0     C28010   6.780   4.010   5.739 -0.6811  0.0892 -0.3900
  208MOL0     C28011   6.625   4.585   5.945  0.6557 -0.8366  1.1446
  208MOL0     C28012   6.530   4.592   5.842  0.0238  0.3471 -0.2490
  208MOL0     H28013   6.306   4.817   5.476  1.7308  0.3391 -3.1446
  208MOL0     H28014   6.211   4.836   5.254  0.4992  0.1382  0.0089
  208MOL0     H28015   5.950   4.827   5.220 -0.9699  0.5957  0.5754
  208MOL0     H28016   5.882   4.762   5.080 -0.0909 -0.5741  0.0708
  208MOL0     H28017   5.789   4.560   5.215 -2.7616 -0.1911  0.0135
  208MOL0     H28018   5.853   4.637   5.358 -1.5707 -1.5236 -0.0579
  208MOL0     H28019   5.651   4.723   5.364 -2.2681 -2.7888 -1.6166
  208MOL0     H28020   5.720   4.844   5.246  3.1248 -0.9053  1.0609
  208MOL0     H28021   5.629   4.685   5.056 -0.5790 -1.2153  0.1443
  208MOL0     H28022   5.561   4.593   5.184  0.4254 -0.4047 -0.7365
  208MOL0     H28023   5.415   4.792   5.241  1.9241  2.0447  1.1894
  208MOL0     H28024   5.521   4.888   5.149 -0.8782  0.7480 -0.7251
  208MOL0     H28025   5.401   4.860   4.964  0.5121  1.5183  1.6979
  208MOL0     H28026   5.414   4.688   4.967  0.6613  1.0553 -0.3982
  208MOL0     H28027   5.217   4.824   5.159 -0.5427 -1.0890 -0.4094
  208MOL0     H28028   5.172   4.782   4.992  3.3670  1.3131 -1.9560
  208MOL0     H28029   5.279   4.595   5.186  0.8535  1.9011 -0.5148
  208MOL0     H28030   5.199   4.554   5.031  1.7401  1.6288 -0.9064
  208MOL0     H28031   4.905   4.681   5.039  0.7988 -0.7400 -0.7975
  208MOL0     H28032   4.706   4.688   5.387  0.1835  0.0637  0.4991
  208MOL0     H28033   4.730   4.809   5.260 -0.7060  0.0928  0.5429
  208MOL0     H28034   4.642   4.655   5.084 -1.0802  2.7346 -0.6720
  208MOL0     H28035   4.522   4.698   5.209  0.0708  1.5561  0.0710
  208MOL0     H28036   4.670   4.431   5.240 -0.4255 -0.3403  3.9297
  208MOL0     H28037   4.520   4.450   5.133 -1.0703 -3.4910  2.9051
  208MOL0     H28038   4.531   4.506   5.414 -0.9904  1.2835  0.1568
  208MOL0     H28039   4.472   4.353   5.347 -1.0437 -0.2938  0.0668
  208MOL0     H28040   4.237   4.659   5.124  2.3681 -0.6773  1.0383
  208MOL0     H28041   4.058   4.587   4.825 -1.1624 -1.8729  0.6987
  208MOL0     H28042   3.971   4.656   4.967  0.3998 -1.8198  1.8966
  208MOL0     H28043   4.133   4.709   4.919 -0.8793  0.9175 -0.9558
  208MOL0     H28044   3.824   4.035   4.851  1.7733  1.7779  1.2833
  208MOL0     H28045   3.726   3.958   4.624  0.0200 -0.5859  0.9434
  208MOL0     H28046   3.676   3.949   4.262 -1.3904 -0.6882  0.5714
  208MOL0     H28047   3.621   4.007   4.415 -1.9583  1.0933 -1.3087
  208MOL0     H28048   3.711   4.234   4.388 -0.4992 -0.1858 -1.0531
  208MOL0     H28049   3.785   4.180   4.228  0.0736  0.9841 -1.3050
  208MOL0     H28050   3.568   4.334   4.223 -1.5535 -0.7103  4.4879
  208MOL0     H28051   3.491   4.198   4.284 -1.8713  2.0950 -2.3230
  208MOL0     H28052   3.639   4.236   4.016 -0.1866 -3.0710 -0.6252
  208MOL0     H28053   3.575   4.077   4.064 -2.0830 -0.3898 -1.6274
  208MOL0     H28054   3.419   4.330   3.994 -2.2376  0.5283  0.3905
  208MOL0     H28055   3.347   4.199   4.089  1.3589 -1.8412  0.7907
  208MOL0     H28056   3.453   4.174   3.803 -2.4465 -1.6278 -2.8134
  208MOL0     H28057   3.427   4.037   3.909 -1.9248  0.0307  3.4705
  208MOL0     H28058   3.217   4.253   3.837 -1.8952 -0.3573  3.1028
  208MOL0     H28059   3.198   4.093   3.927 -1.2339 -1.7583 -1.9899
  208MOL0     H28060   3.124   4.115   3.688  0.3344  1.0287  0.9718
  208MOL0     H28061   3.186   3.961   3.742 -1.4929 -0.4575 -2.0743
  208MOL0     H28062   4.038   4.151   4.417 -1.1439 -0.5816 -1.0662
  208MOL0     H28063   4.124   4.246   4.618 -0.4967  1.2101 -0.3096
  208MOL0     H28064   4.119   4.178   5.096 -1.4707  0.0625 -0.6772
  208MOL0     H28065   4.286   4.264   5.273 -2.1526 -0.3657  0.2866
  208MOL0     H28066   6.033   4.437   5.319  0.3987  0.0491  0.9355
  208MOL0     H28067   6.186   4.411   5.522  1.4091  1.3981  1.2754
  208MOL0     H28068   6.742   4.571   5.587 -3.1920  2.1614 -0.8758
  208MOL0     H28069   6.903   4.572   5.770 -0.2949  1.0400  0.9499
  208MOL0     H28070   6.997   4.464   5.925  0.1242  3.0897  0.4527
  208MOL0     H28071   6.999   4.419   6.101 -2.1160  0.0409  3.0306
  208MOL0     H28072   6.807   4.284   5.901 -1.1759 -1.8334  1.0636
  208MOL0     H28073   6.793   4.282   6.084  0.2730  0.0241  1.1144
  208MOL0     H28074   7.030   4.202   6.075  0.2441  1.0087 -0.8037
  208MOL0     H28075   7.035   4.211   5.903  3.2967  0.6097  2.3274
  208MOL0     H28076   6.865   4.021   6.072  0.7581  0.8320  0.9026
  208MOL0     H28077   6.994   3.975   5.973 -0.6880 -0.5466 -0.7684
  208MOL0     H28078   6.759   4.003   5.635 -1.4023  2.7730 -0.5028
  208MOL0     H28079   6.580   4.590   6.043 -0.1230  0.8233  0.7455
  208MOL0     H28080   6.424   4.598   5.863  0.1758 -2.8462  2.1517
  209MOL0     O28081   0.925   1.592   9.661  1.2168 -0.0588 -0.1859
  209MOL0     C28082   0.924   1.713   9.643 -0.9431 -0.1955  0.3533
  209MOL0     O28083   0.813   1.787   9.624  0.3173 -0.1584 -0.2552
  209MOL0     C28084   0.684   1.726   9.611 -1.0950 -0.5394 -0.9038
  209MOL0     C28085   0.614   1.706   9.730  0.0091  0.5474 -0.9637
  209MOL0     C28086   0.495   1.616   9.723 -0.6453 -0.5934 -0.4039
  209MOL0     C28087   0.467   1.545   9.600  0.1461  0.4514  0.4437
  209MOL0     O28088   0.368   1.451   9.608  0.0856 -0.5037  1.2528
  209MOL0     C28089   0.351   1.359   9.502 -0.1170  1.2973 -0.3119
  209MOL0     C28090   0.224   1.284   9.522 -0.4060  0.3129 -0.5453
  209MOL0     C28091   0.168   1.208   9.390  0.2216 -0.2157 -0.3955
  209MOL0     C28092   0.072   1.285   9.296 -0.6814 -0.2413 -0.9915
  209MOL0     C28093   0.006   1.207   9.178  0.6288  0.8358  0.9599
  209MOL0     C28094  -0.089   1.279   9.075  0.0418 -0.9498 -0.1511
  209MOL0     C28095  -0.230   1.296   9.146 -0.0594 -0.9357 -0.8872
  209MOL0     C28096  -0.315   1.179   9.182  0.5351  0.2212 -0.4434
  209MOL0     N28097  -0.449   1.221   9.215  0.2893  0.6020  0.1640
  209MOL0     C28098  -0.481   1.303   9.322  0.0795 -0.0984 -0.3495
  209MOL0     C28099  -0.621   1.315   9.307 -0.3899  0.4392  0.4460
  209MOL0     C28100  -0.719   1.388   9.398  0.0824  1.0086  0.2202
  209MOL0     C28101  -0.836   1.439   9.324  1.0036 -0.2150  0.0919
  209MOL0     C28102  -0.936   1.494   9.426  0.0741 -0.0604 -0.1959
  209MOL0     C28103  -1.054   1.573   9.364 -0.9822 -0.8468  0.0724
  209MOL0     O28104  -1.151   1.484   9.306 -0.5138 -0.1730 -0.6192
  209MOL0     C28105  -1.255   1.538   9.230 -0.4575  0.7275 -0.2494
  209MOL0     C28106  -1.255   1.674   9.193  0.4467  0.5876  0.3831
  209MOL0     C28107  -1.374   1.731   9.133  0.0890  0.9835  0.6003
  209MOL0     C28108  -1.380   1.872   9.103 -0.3006 -0.7971  0.7466
  209MOL0     C28109  -1.482   1.645   9.108  0.0535 -0.4219  0.6150
  209MOL0     C28110  -1.605   1.704   9.046  0.5462 -0.6167  0.3408
  209MOL0     O28111  -1.662   1.807   9.119  0.6357  0.1411  0.7364
  209MOL0     C28112  -1.761   1.875   9.064  0.1043 -1.0565 -0.2418
  209MOL0     C28113  -1.769   1.915   8.927 -0.0510 -0.3471  0.8519
  209MOL0     C28114  -1.865   2.002   8.881  0.2536  0.4860 -0.1457
  209MOL0     C28115  -1.964   2.053   8.972 -0.5203  0.3770  0.6287
  209MOL0     O28116  -2.056   2.127   8.914  0.3046 -0.3858  0.5548
  209MOL0     C28117  -2.169   2.142   8.998  1.0672 -0.6067  0.0283
  209MOL0     C28118  -2.277   2.221   8.925  0.8581  0.2363 -0.3661
  209MOL0     C28119  -2.410   2.244   9.009  0.1450  0.5861 -0.2658
  209MOL0     C28120  -2.489   2.376   8.977 -0.1362 -0.0003  0.4831
  209MOL0     C28121  -2.588   2.426   9.086 -0.0982 -0.2274 -0.0840
  209MOL0     C28122  -2.702   2.338   9.117 -0.0962  0.2639  0.9473
  209MOL0     C28123  -2.790   2.399   9.222 -0.3912  0.0961 -0.0937
  209MOL0     C28124  -2.900   2.307   9.286  0.6660  0.6739  0.5181
  209MOL0    Cl28125  -2.807   2.177   9.367  0.0448 -0.0385 -0.0055
  209MOL0     C28126  -1.943   2.030   9.112  0.5205 -0.6161  0.6488
  209MOL0     C28127  -1.854   1.931   9.157  0.3139  0.7808  0.1295
  209MOL0     O28128  -1.645   1.649   8.950 -0.3487  1.4447  0.1782
  209MOL0     C28129  -1.464   1.502   9.122 -0.4976 -0.2202  0.2190
  209MOL0     C28130  -1.351   1.455   9.187 -0.1510  0.0637  0.1522
  209MOL0     N28131  -0.657   1.245   9.194 -0.2059 -0.0320  0.3186
  209MOL0     N28132  -0.558   1.191   9.138 -0.0069  0.1017  0.0702
  209MOL0     C28133   0.535   1.571   9.482 -0.4528  0.5140 -0.2506
  209MOL0     C28134   0.637   1.663   9.493 -0.9193 -0.1320 -0.1075
  209MOL0     C28135   1.063   1.783   9.658 -1.0279  0.0818 -0.2588
  209MOL0     C28136   1.079   1.920   9.692 -0.1120 -0.8095  0.0765
  209MOL0     C28137   1.214   1.970   9.697  0.9837  0.8090 -0.0471
  209MOL0     C28138   1.324   1.887   9.679  0.2511  0.2532  0.0186
  209MOL0     O28139   1.453   1.934   9.663  0.4499  0.0776  0.1379
  209MOL0     C28140   1.468   2.071   9.616 -0.0666  0.8135  0.4964
  209MOL0     C28141   1.522   2.169   9.727 -0.3456  0.2103  0.1029
  209MOL0     C28142   1.517   2.319   9.688  0.7850  0.5516  0.5206
  209MOL0     C28143   1.560   2.404   9.796  0.0281  0.5797 -0.8122
  209MOL0     C28144   1.515   2.543   9.770  0.7174 -0.0350  0.4779
  209MOL0     C28145   1.464   2.656   9.781 -0.2548 -0.5179 -0.2303
  209MOL0     C28146   1.297   1.755   9.638  0.1650 -0.5712  1.0795
  209MOL0     C28147   1.174   1.703   9.634  0.4494  0.2764  0.1823
  209MOL0     H28148   0.644   1.755   9.822 -1.8591  0.6608 -0.3887
  209MOL0     H28149   0.431   1.603   9.809 -1.8439  5.2323 -0.0341
  209MOL0     H28150   0.348   1.409   9.404  1.0559  1.3179 -0.3509
  209MOL0     H28151   0.431   1.284   9.501 -2.2240 -1.1266 -1.9251
  209MOL0     H28152   0.250   1.213   9.601  0.9543 -0.2338 -1.4483
  209MOL0     H28153   0.145   1.351   9.558 -0.0302  1.1231 -1.2007
  209MOL0     H28154   0.249   1.175   9.324  1.4380 -0.8968  1.3605
  209MOL0     H28155   0.126   1.117   9.434  3.1064 -2.4987 -2.0127
  209MOL0     H28156  -0.009   1.318   9.362 -2.5844 -1.7983 -2.4197
  209MOL0     H28157   0.117   1.375   9.253 -1.6009  1.2741  1.0541
  209MOL0     H28158   0.088   1.175   9.114 -0.3481 -2.3979  1.1400
  209MOL0     H28159  -0.038   1.112   9.210  0.7989  1.5166  3.4243
  209MOL0     H28160  -0.046   1.376   9.052 -1.7323 -0.1642 -0.3191
  209MOL0     H28161  -0.111   1.216   8.988 -0.9118 -0.9293  0.0575
  209MOL0     H28162  -0.213   1.374   9.221  1.1383 -1.5642 -0.4863
  209MOL0     H28163  -0.298   1.350   9.078  0.3126 -0.5938 -0.9898
  209MOL0     H28164  -0.268   1.127   9.266  1.0303  3.2499  1.2922
  209MOL0     H28165  -0.323   1.111   9.097  0.5552 -2.9461  1.8906
  209MOL0     H28166  -0.429   1.336   9.411 -1.2688 -1.9500  1.2172
  209MOL0     H28167  -0.761   1.312   9.464 -0.3360 -0.1475 -1.3327
  209MOL0     H28168  -0.670   1.462   9.462 -1.9077  1.3124  1.4674
  209MOL0     H28169  -0.893   1.364   9.268 -1.2470  0.2699  1.6006
  209MOL0     H28170  -0.797   1.517   9.258 -0.5247 -0.1173 -0.7413
  209MOL0     H28171  -0.884   1.563   9.493 -0.0094  0.1802 -0.3758
  209MOL0     H28172  -0.989   1.416   9.481 -3.6092  2.0215 -0.4529
  209MOL0     H28173  -1.011   1.644   9.292  2.0192 -1.6723  0.9016
  209MOL0     H28174  -1.098   1.625   9.449 -3.2399  1.8835 -2.5420
  209MOL0     H28175  -1.178   1.747   9.216  1.1692  0.7770 -2.2973
  209MOL0     H28176  -1.420   1.894   9.004  2.3050  3.0994  0.3413
  209MOL0     H28177  -1.439   1.934   9.172 -0.1856  0.8927 -0.6151
  209MOL0     H28178  -1.279   1.912   9.113  0.8476 -3.6270  1.6657
  209MOL0     H28179  -1.697   1.874   8.856 -0.3894 -4.3338  2.5394
  209MOL0     H28180  -1.879   2.029   8.777 -0.8883 -1.3075 -0.5099
  209MOL0     H28181  -2.210   2.045   9.030 -2.8120  0.3374 -1.4861
  209MOL0     H28182  -2.149   2.196   9.090 -2.3631 -2.9635  2.3966
  209MOL0     H28183  -2.244   2.314   8.878  2.3025 -0.0966 -0.0597
  209MOL0     H28184  -2.305   2.154   8.842 -3.0218 -2.0174  2.4402
  209MOL0     H28185  -2.388   2.250   9.116 -2.0277 -2.3685  0.4872
  209MOL0     H28186  -2.485   2.164   9.000 -1.1059  1.8057 -1.1791
  209MOL0     H28187  -2.425   2.462   8.958 -2.9203  1.7564 -1.8914
  209MOL0     H28188  -2.539   2.360   8.881  1.5621 -0.0114 -0.4336
  209MOL0     H28189  -2.625   2.524   9.054  1.1697  0.2863 -0.0494
  209MOL0     H28190  -2.536   2.431   9.182 -1.5207 -2.0153  0.8277
  209MOL0     H28191  -2.769   2.327   9.031  0.5296 -3.2622  0.7767
  209MOL0     H28192  -2.662   2.242   9.151  0.4778  0.5932  1.2269
  209MOL0     H28193  -2.830   2.490   9.176  1.4336 -0.0909 -2.2022
  209MOL0     H28194  -2.729   2.439   9.303 -0.0115  1.6764 -1.1037
  209MOL0     H28195  -2.964   2.255   9.214  0.3143  0.8427  0.7023
  209MOL0     H28196  -2.962   2.366   9.355  0.3402  1.9931 -0.8442
  209MOL0     H28197  -2.023   2.068   9.175 -1.4019 -3.1141 -0.0962
  209MOL0     H28198  -1.850   1.899   9.261 -0.5684 -1.1593 -0.3855
  209MOL0     H28199  -1.539   1.436   9.079 -1.9571  0.3094  1.8263
  209MOL0     H28200  -1.341   1.350   9.208  5.4082 -0.6076 -3.5979
  209MOL0     H28201   0.500   1.523   9.392 -0.5831 -1.8811  1.0041
  209MOL0     H28202   0.704   1.670   9.409  1.1351 -1.9965  1.2555
  209MOL0     H28203   0.990   1.979   9.710  0.4805  0.0527  0.2603
  209MOL0     H28204   1.233   2.071   9.731 -2.8651  0.4322  4.3297
  209MOL0     H28205   1.529   2.067   9.525 -1.3908 -3.4396 -0.4563
  209MOL0     H28206   1.371   2.110   9.585 -1.8420 -1.4598  2.7558
  209MOL0     H28207   1.625   2.140   9.747 -0.5752  0.2646  1.4492
  209MOL0     H28208   1.459   2.147   9.814 -0.3055 -0.5946 -0.0645
  209MOL0     H28209   1.412   2.339   9.662  0.8583 -0.3903 -0.5550
  209MOL0     H28210   1.580   2.335   9.600 -2.4959 -2.9031 -2.8409
  209MOL0     H28211   1.669   2.397   9.803  0.0443  1.6739  0.4919
  209MOL0     H28212   1.520   2.360   9.888  0.5526  0.3928 -0.6702
  209MOL0     H28213   1.424   2.753   9.803 -1.7755 -1.3491  0.8637
  209MOL0     H28214   1.382   1.694   9.610 -0.2357 -1.7244  2.2551
  209MOL0     H28215   1.167   1.597   9.614  2.4977  0.2891 -0.8670
  210MOL0     O28216   2.649   2.405   3.405  0.1662 -0.3637  0.2779
  210MOL0     C28217   2.733   2.359   3.328  0.2770 -0.6976  0.6245
  210MOL0     O28218   2.705   2.303   3.205 -0.5956  0.0743  0.3432
  210MOL0     C28219   2.577   2.299   3.170  0.3076  0.0336  0.0315
  210MOL0     C28220   2.483   2.238   3.257 -0.2742  0.6529  0.3264
  210MOL0     C28221   2.348   2.267   3.242 -0.3161  0.0603 -0.0372
  210MOL0     C28222   2.307   2.352   3.138  0.4837  0.1365  0.1821
  210MOL0     O28223   2.172   2.390   3.118 -0.3372 -0.0538  0.0810
  210MOL0     C28224   2.107   2.295   3.030  0.6997 -1.0611 -0.6413
  210MOL0     C28225   1.950   2.319   3.030 -0.2662  0.0067  0.3885
  210MOL0     C28226   1.925   2.450   2.951  0.9449  0.6487 -0.9152
  210MOL0     C28227   1.781   2.498   2.970 -0.0837 -0.8582 -0.6145
  210MOL0     C28228   1.766   2.626   2.888 -1.0365  0.4045  0.1874
  210MOL0     C28229   1.677   2.743   2.924  1.0007 -0.2854 -0.0477
  210MOL0     C28230   1.719   2.815   3.051  0.6177 -0.6042 -0.2138
  210MOL0     C28231   1.595   2.830   3.144 -0.8609  0.1565  0.3135
  210MOL0     N28232   1.475   2.898   3.090 -1.1303  0.0413 -1.0775
  210MOL0     C28233   1.346   2.842   3.117  0.2693 -0.1256 -0.3277
  210MOL0     C28234   1.251   2.932   3.073 -0.0474 -0.3579 -0.1503
  210MOL0     C28235   1.103   2.923   3.099  0.3861 -0.2854  0.5731
  210MOL0     C28236   1.006   2.975   2.984  0.3842  0.3115  0.2023
  210MOL0     C28237   0.982   2.862   2.869  0.2048  0.9334  0.0533
  210MOL0     C28238   1.116   2.786   2.832  0.9977 -0.5765 -0.6096
  210MOL0     O28239   1.093   2.703   2.712  0.2214  0.4102  0.3890
  210MOL0     C28240   1.047   2.570   2.729  0.6786 -0.6983 -0.2604
  210MOL0     C28241   0.989   2.511   2.622 -0.3068 -0.0003  0.4289
  210MOL0     C28242   0.966   2.372   2.623 -0.4645  0.7433  0.9564
  210MOL0     C28243   0.929   2.318   2.486 -0.2675 -0.4231  0.7084
  210MOL0     C28244   1.002   2.289   2.732 -0.2492  0.8194 -0.6263
  210MOL0     C28245   0.997   2.143   2.734 -0.0652  0.0290 -0.8207
  210MOL0     O28246   0.905   2.078   2.662  0.0820 -0.7368  0.0055
  210MOL0     C28247   0.899   1.940   2.664 -0.2276  0.0377 -0.3338
  210MOL0     C28248   1.007   1.873   2.591 -0.0249  0.3347  0.1067
  210MOL0     C28249   0.999   1.738   2.569  0.2253 -0.3039 -0.1430
  210MOL0     C28250   0.885   1.672   2.599 -0.5121  0.5642 -0.0048
  210MOL0     O28251   0.896   1.540   2.567 -0.3140  0.8985 -0.9550
  210MOL0     C28252   0.816   1.443   2.636  0.3284 -0.3980 -0.2406
  210MOL0     C28253   0.860   1.294   2.640  0.3592 -0.2872  0.3806
  210MOL0     C28254   0.773   1.199   2.721  0.2881 -0.6976  0.0408
  210MOL0     C28255   0.835   1.061   2.712 -0.4936  0.9029  0.0198
  210MOL0     C28256   0.750   0.976   2.809 -0.2748  0.3587  0.0787
  210MOL0     C28257   0.821   0.867   2.895 -0.2763 -0.0456  0.1685
  210MOL0     C28258   0.722   0.773   2.963 -0.1521 -0.6086 -0.0643
  210MOL0     C28259   0.724   0.628   2.928  0.1322 -0.2246 -0.3735
  210MOL0    Cl28260   0.571   0.563   3.004  0.0163  0.1433 -0.0558
  210MOL0     C28261   0.778   1.728   2.664  0.0654  0.3288 -0.8930
  210MOL0     C28262   0.781   1.869   2.688 -0.0964 -0.0523  0.6106
  210MOL0     O28263   1.078   2.087   2.811 -0.3803 -0.4772  0.4765
  210MOL0     C28264   1.073   2.355   2.845 -0.0168  0.0729 -0.5261
  210MOL0     C28265   1.088   2.492   2.842 -0.4237 -0.1233 -0.3646
  210MOL0     N28266   1.322   3.032   3.003 -0.0533 -0.6577  0.5620
  210MOL0     N28267   1.455   3.005   3.015 -0.6192 -0.7065  0.9312
  210MOL0     C28268   2.399   2.418   3.057 -0.1622 -0.2492  0.0162
  210MOL0     C28269   2.533   2.391   3.074 -0.1082 -0.4463  0.2187
  210MOL0     C28270   2.876   2.359   3.356 -0.5898 -0.2408 -0.1513
  210MOL0     C28271   2.976   2.299   3.279 -0.0559  0.6139  0.2997
  210MOL0     C28272   3.106   2.291   3.325 -0.0801  0.1800 -0.0649
  210MOL0     C28273   3.139   2.345   3.449 -0.6266 -0.2255 -0.1113
  210MOL0     O28274   3.269   2.338   3.493  0.1013 -0.6443 -0.4241
  210MOL0     C28275   3.301   2.229   3.578  0.6351 -0.1359 -0.2865
  210MOL0     C28276   3.426   2.234   3.661 -0.2516  0.0058 -0.5239
  210MOL0     C28277   3.552   2.270   3.575  1.3758  0.9322 -0.0348
  210MOL0     C28278   3.662   2.348   3.653 -0.9083 -0.1990 -0.7156
  210MOL0     C28279   3.756   2.390   3.548 -0.8265  0.1520  0.6607
  210MOL0     C28280   3.836   2.405   3.463 -0.3295 -0.6451  0.2156
  210MOL0     C28281   3.051   2.412   3.527 -0.5847 -0.0994  0.6395
  210MOL0     C28282   2.919   2.421   3.480 -0.1619  0.3934  0.1597
  210MOL0     H28283   2.520   2.176   3.338 -0.8185  1.0876  0.9131
  210MOL0     H28284   2.278   2.209   3.301 -0.2801 -2.5424 -2.3494
  210MOL0     H28285   2.157   2.291   2.933  0.1474  2.2302 -1.1540
  210MOL0     H28286   2.114   2.200   3.084  0.3379 -0.5904  0.2538
  210MOL0     H28287   1.899   2.239   2.975 -0.4838  2.3681 -3.1481
  210MOL0     H28288   1.896   2.323   3.125 -4.1674  0.1801 -1.6335
  210MOL0     H28289   1.986   2.533   2.989 -1.5182  2.4108 -0.5324
  210MOL0     H28290   1.944   2.432   2.845 -2.3299 -1.2791 -1.2848
  210MOL0     H28291   1.713   2.424   2.927  0.6752 -1.4787 -0.7831
  210MOL0     H28292   1.754   2.515   3.074  0.9633 -0.9188 -0.3188
  210MOL0     H28293   1.864   2.670   2.867 -0.5709 -1.0031 -0.8040
  210MOL0     H28294   1.738   2.583   2.791 -1.4085  2.7297 -0.7846
  210MOL0     H28295   1.695   2.817   2.846 -0.7388 -0.4820 -0.6697
  210MOL0     H28296   1.575   2.703   2.926  0.1901  1.6834  0.8706
  210MOL0     H28297   1.798   2.766   3.107  0.0968 -1.0566  0.1429
  210MOL0     H28298   1.752   2.917   3.031  0.0577  0.2227  2.6223
  210MOL0     H28299   1.626   2.877   3.238  0.4621 -0.2605  0.1064
  210MOL0     H28300   1.571   2.727   3.171 -0.5623  0.1054  0.3960
  210MOL0     H28301   1.323   2.753   3.175  0.2877  0.4977  0.6663
  210MOL0     H28302   1.078   2.823   3.135  1.5667 -0.6031  0.5396
  210MOL0     H28303   1.077   2.989   3.183 -1.0087  0.2774 -0.2506
  210MOL0     H28304   1.050   3.063   2.936 -2.5797  0.9439 -1.5949
  210MOL0     H28305   0.905   2.993   3.021  0.5011  0.6412  0.3666
  210MOL0     H28306   0.929   2.900   2.781  1.2465  2.4085  0.0318
  210MOL0     H28307   0.919   2.785   2.915  0.2326 -0.9497 -2.8288
  210MOL0     H28308   1.161   2.726   2.913 -0.1346  2.3310  2.4040
  210MOL0     H28309   1.178   2.872   2.806 -1.0807  1.9943  2.1616
  210MOL0     H28310   0.966   2.574   2.537  0.1314  0.1036  0.3837
  210MOL0     H28311   0.905   2.398   2.415 -1.7779 -1.9685 -0.5830
  210MOL0     H28312   1.012   2.268   2.436 -0.5803 -0.6959  0.4621
  210MOL0     H28313   0.847   2.247   2.497  0.6179 -1.5660  0.1738
  210MOL0     H28314   1.089   1.930   2.547  0.6837 -0.7180  0.0336
  210MOL0     H28315   1.082   1.681   2.526 -1.0746 -1.7355 -0.8634
  210MOL0     H28316   0.810   1.469   2.743  0.5383 -4.3431  0.8724
  210MOL0     H28317   0.719   1.429   2.588  1.4250 -2.1167 -2.0460
  210MOL0     H28318   0.865   1.265   2.535  1.4947  4.2535 -1.0485
  210MOL0     H28319   0.965   1.305   2.671 -0.2380  1.5158  1.9602
  210MOL0     H28320   0.670   1.195   2.685 -0.1240  0.7796  0.9449
  210MOL0     H28321   0.768   1.230   2.826  2.1589  3.5882 -0.8959
  210MOL0     H28322   0.836   1.016   2.612  1.9479  0.8449 -0.0021
  210MOL0     H28323   0.940   1.073   2.741 -0.7312  2.0601  0.4376
  210MOL0     H28324   0.672   0.936   2.743 -0.3190  1.1557 -0.3661
  210MOL0     H28325   0.702   1.049   2.875 -0.8079 -0.3187  0.4548
  210MOL0     H28326   0.896   0.813   2.836 -1.7011 -1.8184 -0.1375
  210MOL0     H28327   0.875   0.918   2.975  0.7221 -2.4077  1.1100
  210MOL0     H28328   0.621   0.810   2.943 -0.0269 -0.0573  0.3093
  210MOL0     H28329   0.748   0.778   3.069  1.2532  1.0237 -0.4373
  210MOL0     H28330   0.811   0.584   2.976 -1.2392 -1.0557  1.4561
  210MOL0     H28331   0.719   0.610   2.820  0.5717  0.5118 -0.5256
  210MOL0     H28332   0.690   1.669   2.686 -1.0727  1.9923 -0.7511
  210MOL0     H28333   0.697   1.924   2.730  1.3622  1.9942  1.0225
  210MOL0     H28334   1.107   2.297   2.930 -0.6168  2.9005  1.8284
  210MOL0     H28335   1.148   2.528   2.925 -0.0018 -1.8306  0.1027
  210MOL0     H28336   2.365   2.483   2.977 -0.0506  1.2262  1.1333
  210MOL0     H28337   2.607   2.449   3.020  0.9163 -0.7448  1.2653
  210MOL0     H28338   2.950   2.242   3.190 -2.2442 -0.7187  1.7100
  210MOL0     H28339   3.176   2.224   3.276 -2.8402 -1.8680 -1.5065
  210MOL0     H28340   3.215   2.221   3.645  1.5072 -2.7947  0.6373
  210MOL0     H28341   3.294   2.136   3.521  3.1749 -1.3476  1.2325
  210MOL0     H28342   3.445   2.144   3.720 -1.2912  0.6244  0.7901
  210MOL0     H28343   3.421   2.323   3.723 -0.8516  0.5584 -1.3347
  210MOL0     H28344   3.522   2.329   3.488  2.5045 -0.4308 -1.4149
  210MOL0     H28345   3.597   2.182   3.527 -0.2369  0.4967 -0.8044
  210MOL0     H28346   3.723   2.281   3.715  0.0383  1.0096 -0.3174
  210MOL0     H28347   3.631   2.437   3.708 -1.6712 -0.4237 -0.7677
  210MOL0     H28348   3.903   2.429   3.383  0.0235  3.1728  1.4799
  210MOL0     H28349   3.088   2.473   3.609 -1.3128 -0.0582  0.9404
  210MOL0     H28350   2.847   2.468   3.546  0.6563 -1.8547  2.8443
  211MOL0     O28351   6.871   0.013   1.056  0.6178 -0.3506 -0.1312
  211MOL0     C28352   6.921   0.070   1.151  0.0109 -0.3383 -0.1548
  211MOL0     O28353   6.857   0.118   1.262  0.7039  0.2242  0.1263
  211MOL0     C28354   6.721   0.099   1.282  1.3236 -0.2860  0.4493
  211MOL0     C28355   6.634   0.206   1.324 -1.0759 -1.0975  1.0802
  211MOL0     C28356   6.499   0.186   1.332  0.4594 -0.1474  0.4636
  211MOL0     C28357   6.430   0.071   1.303 -0.5331  0.6273 -0.5413
  211MOL0     O28358   6.295   0.055   1.325  0.2943 -0.4778 -0.1858
  211MOL0     C28359   6.227  -0.070   1.298  0.5918  0.8482 -0.3115
  211MOL0     C28360   6.072  -0.050   1.323  0.6349 -0.2726  0.0045
  211MOL0     C28361   6.027   0.085   1.275 -0.2720 -0.5094  0.6399
  211MOL0     C28362   6.031   0.123   1.134  0.0289  0.7463 -0.4756
  211MOL0     C28363   5.956   0.250   1.104 -0.0639  0.4736 -0.7280
  211MOL0     C28364   5.946   0.261   0.958  0.2444 -1.2455  0.2741
  211MOL0     C28365   5.860   0.167   0.875  0.3004 -0.5943  0.9518
  211MOL0     C28366   5.912   0.109   0.741 -0.1699  0.0476  0.3661
  211MOL0     N28367   5.798   0.038   0.674 -1.5610  0.2358 -0.3480
  211MOL0     C28368   5.812   0.037   0.539 -1.0244  0.5410 -0.2778
  211MOL0     C28369   5.712  -0.044   0.503 -1.6589  0.1152  0.4197
  211MOL0     C28370   5.691  -0.066   0.357 -0.5179 -0.2308  0.3247
  211MOL0     C28371   5.555  -0.133   0.334  0.5195 -0.0026  0.7134
  211MOL0     C28372   5.453  -0.020   0.358  0.0757 -0.5163 -0.2264
  211MOL0     C28373   5.315  -0.078   0.328  0.5498 -0.1991 -0.2810
  211MOL0     O28374   5.290  -0.186   0.413 -0.1107 -0.1211 -0.5867
  211MOL0     C28375   5.178  -0.255   0.406 -0.0005 -0.1258  0.2130
  211MOL0     C28376   5.094  -0.253   0.290  0.5867 -0.3349 -0.7735
  211MOL0     C28377   4.960  -0.299   0.302 -0.2026 -0.7232  0.0649
  211MOL0     C28378   4.888  -0.266   0.173 -0.0919 -0.1234 -0.9190
  211MOL0     C28379   4.915  -0.369   0.416  1.0362 -0.2803 -0.3483
  211MOL0     C28380   4.775  -0.415   0.451 -0.6991  0.0646 -0.0584
  211MOL0     O28381   4.751  -0.424   0.587  0.6265 -0.2842  0.2968
  211MOL0     C28382   4.623  -0.431   0.646  0.0145  1.4061  0.6928
  211MOL0     C28383   4.540  -0.321   0.637 -0.3218  0.2405  0.0054
  211MOL0     C28384   4.415  -0.330   0.706  0.5475 -0.7488  0.6461
  211MOL0     C28385   4.369  -0.443   0.766 -0.0494  0.7706 -0.6985
  211MOL0     O28386   4.248  -0.450   0.837 -0.1350 -1.1463 -0.2488
  211MOL0     C28387   4.144  -0.377   0.766 -0.6943  0.5295  0.3760
  211MOL0     C28388   4.005  -0.421   0.810  0.0942  1.1010 -0.4767
  211MOL0     C28389   3.897  -0.326   0.756  0.3669  0.4035 -0.5188
  211MOL0     C28390   3.766  -0.342   0.835 -0.1420  0.3572 -0.3635
  211MOL0     C28391   3.672  -0.231   0.825  0.1294  0.3795  0.3721
  211MOL0     C28392   3.531  -0.256   0.868 -0.1611  0.7625  0.3139
  211MOL0     C28393   3.458  -0.118   0.871 -0.3082  0.0989 -0.8044
  211MOL0     C28394   3.339  -0.121   0.966  0.6429 -0.0513  0.6021
  211MOL0    Cl28395   3.226  -0.248   0.919  0.5545  0.1670  0.0617
  211MOL0     C28396   4.455  -0.555   0.765 -0.1490 -0.3482 -0.4564
  211MOL0     C28397   4.580  -0.547   0.715 -0.3722  0.4535  0.0922
  211MOL0     O28398   4.685  -0.417   0.368  0.3712 -0.2106 -1.0165
  211MOL0     C28399   5.007  -0.372   0.527 -0.2070  0.0173 -0.0489
  211MOL0     C28400   5.135  -0.318   0.523 -0.0909  0.2161  0.1223
  211MOL0     N28401   5.645  -0.076   0.622  0.2156 -0.3199 -0.3185
  211MOL0     N28402   5.703  -0.039   0.724  0.2115  0.7012 -0.3141
  211MOL0     C28403   6.515  -0.035   1.262  1.0017 -0.4073 -0.3959
  211MOL0     C28404   6.655  -0.019   1.247 -0.0908 -0.0744  1.2632
  211MOL0     C28405   7.064   0.105   1.142 -0.2281  0.7052  0.2968
  211MOL0     C28406   7.152   0.098   1.252  0.7251  0.1738  0.3679
  211MOL0     C28407   7.287   0.139   1.233  0.6478 -0.2947 -0.2479
  211MOL0     C28408   7.333   0.183   1.118 -0.3015 -0.3187  0.7963
  211MOL0     O28409   7.472   0.208   1.124 -0.3336 -0.5756  0.1453
  211MOL0     C28410   7.535   0.262   1.007  0.4690  0.5001  0.7419
  211MOL0     C28411   7.677   0.285   1.035 -0.3933  0.0955  0.4922
  211MOL0     C28412   7.762   0.288   0.903  0.6815  0.6822 -0.0064
  211MOL0     C28413   7.909   0.301   0.929 -0.6192  0.5682 -0.5275
  211MOL0     C28414   7.990   0.275   0.814  0.2235  0.7518  0.7110
  211MOL0     C28415   8.062   0.259   0.720 -0.8609  0.7714  0.9058
  211MOL0     C28416   7.250   0.190   1.010  0.7815 -0.5681  0.3968
  211MOL0     C28417   7.116   0.146   1.018  0.1698 -0.0040 -0.4289
  211MOL0     H28418   6.681   0.301   1.349  2.1923 -1.8203 -1.6465
  211MOL0     H28419   6.457   0.276   1.376  2.2726  0.2514  1.4726
  211MOL0     H28420   6.246  -0.097   1.194  3.8883 -2.0018  0.8507
  211MOL0     H28421   6.270  -0.149   1.360 -1.3816  1.8907  2.6270
  211MOL0     H28422   6.017  -0.132   1.276 -0.8340  1.2248 -1.0217
  211MOL0     H28423   6.051  -0.063   1.429 -0.0362 -2.8548 -0.3712
  211MOL0     H28424   5.923   0.103   1.306 -0.2872  2.0219 -0.6492
  211MOL0     H28425   6.085   0.160   1.329 -0.1103 -1.2290  1.5028
  211MOL0     H28426   6.137   0.137   1.112  0.0110  0.4987 -0.7334
  211MOL0     H28427   5.995   0.031   1.087 -4.0798 -0.3499  3.9955
  211MOL0     H28428   5.855   0.267   1.143  0.0733  2.8858 -1.2822
  211MOL0     H28429   6.008   0.337   1.146  0.1812  0.1776 -0.4098
  211MOL0     H28430   5.907   0.361   0.939  0.4618 -1.1427  0.3534
  211MOL0     H28431   6.045   0.261   0.911  0.6078 -0.6828  1.0122
  211MOL0     H28432   5.815   0.091   0.940  0.8355 -1.3041  0.5178
  211MOL0     H28433   5.778   0.233   0.847  1.5097 -0.3188 -2.3995
  211MOL0     H28434   5.987   0.032   0.761 -1.4745 -2.4138 -3.1485
  211MOL0     H28435   5.954   0.185   0.675 -0.9567 -1.0784 -1.5063
  211MOL0     H28436   5.884   0.096   0.482  0.0152  0.8191  1.2679
  211MOL0     H28437   5.695   0.024   0.296 -4.8580 -0.8679 -1.3077
  211MOL0     H28438   5.777  -0.126   0.327  0.7416  1.0769  1.2208
  211MOL0     H28439   5.536  -0.218   0.400 -1.8356  0.9882  1.4521
  211MOL0     H28440   5.540  -0.167   0.232 -2.2750  1.1065  0.6443
  211MOL0     H28441   5.483   0.061   0.291  0.8836 -1.9264 -1.6451
  211MOL0     H28442   5.454   0.018   0.461 -0.1628  0.7331 -0.6727
  211MOL0     H28443   5.296  -0.106   0.224 -2.6908  1.0706 -0.1676
  211MOL0     H28444   5.243   0.002   0.346  1.7506  0.3237  2.8407
  211MOL0     H28445   5.116  -0.197   0.200 -0.5630  0.3539 -0.6506
  211MOL0     H28446   4.786  -0.304   0.168 -0.7939  1.7161 -1.3422
  211MOL0     H28447   4.879  -0.158   0.158 -0.4218  0.0215  0.2589
  211MOL0     H28448   4.938  -0.315   0.089 -0.2991 -0.7595 -0.6745
  211MOL0     H28449   4.563  -0.233   0.577 -0.0170  0.0384 -0.1807
  211MOL0     H28450   4.360  -0.236   0.715  0.7913 -0.5824  0.4248
  211MOL0     H28451   4.161  -0.271   0.786  1.6636  0.1178  0.8668
  211MOL0     H28452   4.155  -0.403   0.660  1.7246 -1.1786  0.9723
  211MOL0     H28453   3.989  -0.527   0.792  0.0421  1.0942 -0.3930
  211MOL0     H28454   4.004  -0.409   0.919 -0.1644  2.5551 -0.6215
  211MOL0     H28455   3.895  -0.348   0.649  0.6042  1.3633 -0.7281
  211MOL0     H28456   3.938  -0.225   0.767  0.2780  0.3082  0.8901
  211MOL0     H28457   3.711  -0.435   0.816  0.9105 -0.1248 -1.1379
  211MOL0     H28458   3.789  -0.350   0.942 -0.3458  1.1004 -0.2627
  211MOL0     H28459   3.677  -0.200   0.720  0.5392  0.4222  0.4027
  211MOL0     H28460   3.715  -0.144   0.876  0.2445 -0.4212  1.7023
  211MOL0     H28461   3.494  -0.330   0.797  1.0155 -2.0354  2.4550
  211MOL0     H28462   3.519  -0.298   0.968 -1.0880  0.1117 -0.0592
  211MOL0     H28463   3.419  -0.098   0.770 -3.6182 -0.0677  0.3039
  211MOL0     H28464   3.532  -0.041   0.893  1.8943 -2.3236  0.9142
  211MOL0     H28465   3.281  -0.028   0.962 -0.0540 -0.4152  1.9107
  211MOL0     H28466   3.383  -0.127   1.066  0.7433  0.1245  0.5694
  211MOL0     H28467   4.426  -0.648   0.812  2.3250 -0.9525  0.0213
  211MOL0     H28468   4.653  -0.627   0.724 -2.6857 -1.5791  2.2453
  211MOL0     H28469   4.986  -0.424   0.620 -1.4457  0.9021  0.1746
  211MOL0     H28470   5.207  -0.327   0.604  0.6053 -1.5153 -0.6247
  211MOL0     H28471   6.490  -0.140   1.275  1.3544 -0.6227 -1.4197
  211MOL0     H28472   6.709  -0.105   1.210 -1.6322 -0.5433 -0.0137
  211MOL0     H28473   7.127   0.053   1.347  0.4286 -2.9282 -1.0552
  211MOL0     H28474   7.362   0.131   1.311  0.8893 -1.3528 -0.5691
  211MOL0     H28475   7.514   0.196   0.923 -0.9361 -0.5097  1.8357
  211MOL0     H28476   7.494   0.361   0.981  0.1134  0.5972  1.6202
  211MOL0     H28477   7.717   0.204   1.097  2.6839 -1.2290 -2.8525
  211MOL0     H28478   7.692   0.381   1.085  5.7035  0.2067 -0.7920
  211MOL0     H28479   7.721   0.366   0.838 -0.7904 -1.1346 -1.3703
  211MOL0     H28480   7.751   0.196   0.844 -0.0809  2.1861 -2.3325
  211MOL0     H28481   7.936   0.223   1.002  1.0418  1.0236 -0.6198
  211MOL0     H28482   7.935   0.399   0.969  0.8272 -0.4443  1.1879
  211MOL0     H28483   8.115   0.257   0.627  2.2021  0.6614  2.5414
  211MOL0     H28484   7.290   0.214   0.912 -0.0160 -3.2889 -0.6654
  211MOL0     H28485   7.053   0.159   0.931 -0.4822 -1.5811 -0.2351
  212MOL0     O28486   2.757  10.971   2.177  0.8643  0.1973 -0.1942
  212MOL0     C28487   2.755  10.856   2.229 -0.3634 -0.3322 -0.5758
  212MOL0     O28488   2.655  10.796   2.291 -0.6484 -0.2405 -0.0374
  212MOL0     C28489   2.526  10.831   2.265  0.5891 -0.1526 -0.1353
  212MOL0     C28490   2.476  10.960   2.288  0.5896  0.4482  0.6385
  212MOL0     C28491   2.340  10.994   2.265 -0.1979  0.1170  0.0702
  212MOL0     C28492   2.252  10.889   2.211  0.0123  0.9085 -0.2363
  212MOL0     O28493   2.123  10.901   2.174 -0.2286 -0.1441  0.6411
  212MOL0     C28494   2.067  11.034   2.154 -0.2693 -0.3591  1.2552
  212MOL0     C28495   1.938  11.023   2.069  0.1023  0.8097  0.7955
  212MOL0     C28496   1.833  10.946   2.149 -0.3098  0.2475 -0.4548
  212MOL0     C28497   1.689  10.957   2.084 -0.3293  0.1991 -0.2812
  212MOL0     C28498   1.582  10.871   2.154  0.7097  0.8655 -0.8014
  212MOL0     C28499   1.433  10.909   2.119 -0.2210  1.0613  0.4225
  212MOL0     C28500   1.338  10.819   2.194  0.3723 -0.4004  0.1412
  212MOL0     C28501   1.208  10.795   2.112 -0.9906  0.0494  0.1156
  212MOL0     N28502   1.125  10.913   2.097  0.5038  0.2014  0.0245
  212MOL0     C28503   1.076  10.984   2.201  0.0064  1.2283 -0.7659
  212MOL0     C28504   0.994  11.073   2.148  0.1794  0.0713 -0.2150
  212MOL0     C28505   0.905  11.181   2.190  0.5618 -0.2014 -0.5271
  212MOL0     C28506   0.763  11.133   2.236  0.2644 -0.6648  0.3078
  212MOL0     C28507   0.665  11.246   2.266  0.4172 -0.0607 -1.1175
  212MOL0     C28508   0.695  11.331   2.392 -0.2229  0.5870  0.0447
  212MOL0     O28509   0.578  11.408   2.430 -0.4388 -0.2831  0.3158
  212MOL0     C28510   0.585  11.550   2.411  0.1636  0.3352 -0.7097
  212MOL0     C28511   0.491  11.625   2.490  0.7425  0.7199  0.4503
  212MOL0     C28512   0.475  11.766   2.482  0.0114  0.4739 -0.7061
  212MOL0     C28513   0.374  11.831   2.582  0.7729 -0.5151  0.7627
  212MOL0     C28514   0.555  11.838   2.388  0.0285  0.2916  0.0654
  212MOL0     C28515   0.557  11.987   2.375 -0.2421  1.1913 -0.0387
  212MOL0     O28516   0.590  12.062   2.487 -0.1388 -0.0037 -0.2011
  212MOL0     C28517   0.579  12.200   2.485 -0.1230  0.2811  0.3119
  212MOL0     C28518   0.487  12.275   2.563 -0.3635  0.2527  0.0587
  212MOL0     C28519   0.469  12.414   2.528 -0.1530 -0.5618 -0.7084
  212MOL0     C28520   0.555  12.481   2.448 -1.0639 -0.1609 -0.9564
  212MOL0     O28521   0.558  12.617   2.428 -1.0064  0.1931 -0.2857
  212MOL0     C28522   0.473  12.700   2.503 -0.0158  0.1578  0.4286
  212MOL0     C28523   0.345  12.721   2.417 -0.3659  0.8102  0.3230
  212MOL0     C28524   0.217  12.694   2.501  0.4416  0.4103 -0.2659
  212MOL0     C28525   0.189  12.819   2.582  0.1784 -0.2042 -0.9751
  212MOL0     C28526   0.072  12.799   2.684 -0.2246 -0.2486 -0.7666
  212MOL0     C28527  -0.022  12.908   2.682  0.8668 -0.0963 -0.1137
  212MOL0     C28528  -0.093  12.938   2.547 -0.3941 -0.3711  0.8203
  212MOL0     C28529  -0.133  12.816   2.462  0.5033 -0.5478  0.7271
  212MOL0    Cl28530  -0.266  12.741   2.560 -0.5546  0.2290  0.2972
  212MOL0     C28531   0.648  12.407   2.378  0.3585 -1.4592  0.9225
  212MOL0     C28532   0.662  12.273   2.396  0.1566 -0.5593 -0.1941
  212MOL0     O28533   0.535  12.033   2.260  0.6259 -0.2258 -0.3538
  212MOL0     C28534   0.650  11.769   2.319  0.2022 -0.1286 -0.7039
  212MOL0     C28535   0.658  11.625   2.319 -0.5754 -0.2768  0.0177
  212MOL0     N28536   0.990  11.060   2.006  0.0864  0.1224 -0.2299
  212MOL0     N28537   1.077  10.966   1.981  0.9816 -0.5293  0.8218
  212MOL0     C28538   2.305  10.758   2.181  1.3696  0.6993  0.0714
  212MOL0     C28539   2.442  10.735   2.203 -0.1278  0.4560  0.2690
  212MOL0     C28540   2.891  10.791   2.250 -0.2176  0.6630 -0.3400
  212MOL0     C28541   2.991  10.800   2.142 -0.4438  0.0176 -0.1500
  212MOL0     C28542   3.123  10.756   2.169 -0.3057 -0.8029 -0.2644
  212MOL0     C28543   3.157  10.695   2.299  0.9006 -0.5362  0.0250
  212MOL0     O28544   3.276  10.659   2.337 -0.6718 -0.3952 -0.8338
  212MOL0     C28545   3.389  10.725   2.272  0.5398 -0.1460 -0.7573
  212MOL0     C28546   3.509  10.754   2.360 -0.9359 -0.0133 -0.1145
  212MOL0     C28547   3.479  10.846   2.483 -0.4088  0.3128 -0.4197
  212MOL0     C28548   3.611  10.894   2.534  0.2805  0.3895  0.2848
  212MOL0     C28549   3.663  10.996   2.443 -0.1684  0.2043 -0.1507
  212MOL0     C28550   3.709  11.087   2.380 -0.5395 -0.2298 -1.1838
  212MOL0     C28551   3.063  10.704   2.401  0.5482  0.0742 -0.0541
  212MOL0     C28552   2.931  10.736   2.371  0.3800 -0.2482 -0.0089
  212MOL0     H28553   2.550  11.034   2.319  2.8767 -1.5187  0.1892
  212MOL0     H28554   2.296  11.093   2.271 -3.7913 -1.0672 -2.8712
  212MOL0     H28555   2.054  11.083   2.250 -1.0509 -1.1654  1.5776
  212MOL0     H28556   2.136  11.089   2.089 -1.4392  0.0203  0.3062
  212MOL0     H28557   1.901  11.123   2.044  0.2929  0.4385 -1.1416
  212MOL0     H28558   1.964  10.973   1.975 -2.3360  0.7754  0.0563
  212MOL0     H28559   1.870  10.844   2.156 -1.1113 -0.0830 -0.8244
  212MOL0     H28560   1.823  10.974   2.254 -3.3275 -1.4896 -0.1606
  212MOL0     H28561   1.649  11.058   2.099  0.3861 -0.0080  4.1059
  212MOL0     H28562   1.685  10.918   1.982  3.1916  0.1652 -0.5326
  212MOL0     H28563   1.593  10.762   2.143 -0.2339  0.6299  0.3233
  212MOL0     H28564   1.597  10.897   2.259  2.0647 -3.0174  0.1468
  212MOL0     H28565   1.433  11.013   2.155  4.2752  1.1589  0.7319
  212MOL0     H28566   1.410  10.914   2.012 -1.6071 -0.9592  0.5744
  212MOL0     H28567   1.384  10.721   2.211  0.3580 -0.8312 -2.1002
  212MOL0     H28568   1.312  10.860   2.292 -1.7137 -2.5246  0.5716
  212MOL0     H28569   1.149  10.727   2.174  1.0726 -0.7586  1.2991
  212MOL0     H28570   1.230  10.749   2.015 -2.7899 -0.5616 -0.0383
  212MOL0     H28571   1.100  10.964   2.305  1.0571 -0.2722 -1.2715
  212MOL0     H28572   0.952  11.245   2.266 -1.4893  0.2070  0.4804
  212MOL0     H28573   0.897  11.261   2.115  0.4244  2.9479  2.5957
  212MOL0     H28574   0.773  11.060   2.317  2.8234 -0.0403  0.6585
  212MOL0     H28575   0.722  11.066   2.159  0.4796  0.4936 -0.8448
  212MOL0     H28576   0.564  11.205   2.277  0.1789  0.5270 -1.0499
  212MOL0     H28577   0.653  11.311   2.179  2.7856  0.5434 -1.0518
  212MOL0     H28578   0.783  11.394   2.374  2.3077 -2.3832  1.0540
  212MOL0     H28579   0.717  11.262   2.474  1.4760 -3.9512 -3.7848
  212MOL0     H28580   0.438  11.560   2.560 -0.7279 -1.2328 -2.2551
  212MOL0     H28581   0.422  11.888   2.663  2.0626 -1.4586  0.6874
  212MOL0     H28582   0.296  11.890   2.533  0.4560 -2.1928 -0.8441
  212MOL0     H28583   0.317  11.756   2.637  0.5107 -0.9811 -0.1277
  212MOL0     H28584   0.435  12.228   2.647 -0.5697  2.7141  1.4029
  212MOL0     H28585   0.406  12.478   2.589  2.6973  0.9764  0.8805
  212MOL0     H28586   0.450  12.666   2.604 -0.0776  0.1355  0.4069
  212MOL0     H28587   0.527  12.795   2.511 -1.2559  0.6927  3.9492
  212MOL0     H28588   0.350  12.824   2.380 -0.0231  0.2392 -1.2818
  212MOL0     H28589   0.342  12.648   2.336  0.3400 -1.1240  1.9381
  212MOL0     H28590   0.227  12.608   2.568 -1.3112 -0.3558 -0.9361
  212MOL0     H28591   0.126  12.672   2.444 -0.8367  1.7095  1.1814
  212MOL0     H28592   0.284  12.842   2.632  1.0155 -2.3757 -1.4290
  212MOL0     H28593   0.179  12.904   2.515 -2.0067 -0.2521 -0.7692
  212MOL0     H28594   0.100  12.795   2.789 -3.4465 -0.4776  0.1931
  212MOL0     H28595   0.013  12.709   2.664 -0.1516 -0.9652  1.9471
  212MOL0     H28596  -0.096  12.885   2.759 -1.6661  0.0422 -2.3725
  212MOL0     H28597   0.023  13.006   2.700  2.8762  0.0171 -4.5320
  212MOL0     H28598  -0.034  12.999   2.478 -0.2883 -1.9519 -0.5462
  212MOL0     H28599  -0.184  12.991   2.577 -2.8656 -3.0513 -1.3592
  212MOL0     H28600  -0.049  12.748   2.441  0.2999 -0.2409 -1.3073
  212MOL0     H28601  -0.175  12.857   2.369 -1.1066  0.4408  1.8480
  212MOL0     H28602   0.717  12.459   2.311 -1.3365  1.8260  1.5151
  212MOL0     H28603   0.736  12.226   2.332 -0.4153 -0.9039 -0.6144
  212MOL0     H28604   0.716  11.826   2.255 -0.4585 -0.3026 -1.5684
  212MOL0     H28605   0.725  11.567   2.257 -1.8333 -1.6122 -0.1465
  212MOL0     H28606   2.226  10.698   2.138 -1.5479  1.2204  4.1252
  212MOL0     H28607   2.484  10.641   2.168 -2.2126 -0.2045 -0.6416
  212MOL0     H28608   2.965  10.825   2.040 -1.7580 -1.8314 -0.3277
  212MOL0     H28609   3.200  10.783   2.097  1.8585  0.4292  2.3302
  212MOL0     H28610   3.423  10.659   2.192 -2.4273 -2.3696 -0.3800
  212MOL0     H28611   3.356  10.822   2.234 -1.4621  0.7359  2.7971
  212MOL0     H28612   3.570  10.809   2.288 -0.0529 -0.9106 -0.0771
  212MOL0     H28613   3.548  10.654   2.382  0.6393  0.9567  1.8116
  212MOL0     H28614   3.420  10.786   2.553 -3.3295  1.7663 -1.5004
  212MOL0     H28615   3.414  10.928   2.453 -1.6928  0.4678  2.4320
  212MOL0     H28616   3.684  10.812   2.544 -0.3258 -0.0830  0.9746
  212MOL0     H28617   3.581  10.931   2.632  2.5646  1.5415  0.6231
  212MOL0     H28618   3.766  11.168   2.339  0.4979 -0.8037 -0.9171
  212MOL0     H28619   3.098  10.676   2.500  0.3303  0.2569  0.0745
  212MOL0     H28620   2.867  10.729   2.458  0.0024 -2.9191 -0.4027
  213MOL0     O28621  11.048   6.037   7.464  0.7967 -0.9661 -0.6625
  213MOL0     C28622  11.097   6.140   7.503  0.0476 -0.2361 -0.0618
  213MOL0     O28623  11.022   6.248   7.541 -0.6307  0.0279  0.2200
  213MOL0     C28624  10.889   6.260   7.556  1.1074 -0.0472  0.1437
  213MOL0     C28625  10.791   6.155   7.560 -0.4080 -0.2383  0.5476
  213MOL0     C28626  10.651   6.188   7.573 -0.6224  0.3973  0.2108
  213MOL0     C28627  10.606   6.317   7.585  0.3740 -1.1049 -0.2229
  213MOL0     O28628  10.471   6.352   7.621 -0.9382  0.5477  0.0164
  213MOL0     C28629  10.389   6.243   7.684  0.1140 -0.3838  0.2050
  213MOL0     C28630  10.264   6.300   7.757 -0.7995  0.2578  0.5699
  213MOL0     C28631  10.147   6.311   7.660 -0.4092 -0.3880  0.1594
  213MOL0     C28632  10.052   6.421   7.697  0.3328 -0.1757 -0.0347
  213MOL0     C28633   9.984   6.391   7.831 -0.1307 -0.0451  1.1342
  213MOL0     C28634   9.910   6.510   7.885 -0.3184 -0.0663  0.1298
  213MOL0     C28635   9.817   6.464   8.010 -0.1092  0.2641  0.6150
  213MOL0     C28636   9.783   6.589   8.091  0.1904 -0.3543 -0.7304
  213MOL0     N28637   9.690   6.559   8.199  0.4437 -0.1816 -0.3727
  213MOL0     C28638   9.724   6.492   8.315 -0.1529 -0.1385  0.3090
  213MOL0     C28639   9.610   6.498   8.391 -0.6691 -0.0919  0.5331
  213MOL0     C28640   9.604   6.479   8.536 -1.0781 -0.7446  0.1075
  213MOL0     C28641   9.630   6.609   8.620  0.6888  0.5524  1.4894
  213MOL0     C28642   9.754   6.678   8.580 -0.7275  0.2776 -0.3780
  213MOL0     C28643   9.892   6.612   8.610  0.7637  0.0645  0.7491
  213MOL0     O28644   9.893   6.531   8.726  0.5120 -0.0223  0.1958
  213MOL0     C28645  10.000   6.447   8.733  0.9209 -0.5015 -0.0276
  213MOL0     C28646   9.994   6.352   8.827 -0.4595 -0.2680  0.1296
  213MOL0     C28647  10.086   6.251   8.840  0.9488 -0.7344  0.2750
  213MOL0     C28648  10.045   6.144   8.939 -0.4430 -0.4524  0.9221
  213MOL0     C28649  10.208   6.250   8.767  0.9593  0.0782  1.4223
  213MOL0     C28650  10.312   6.139   8.772 -0.6591 -0.6636  0.6963
  213MOL0     O28651  10.442   6.179   8.767 -0.0369  0.1348  0.4437
  213MOL0     C28652  10.539   6.081   8.773 -0.2345 -0.4243  0.0981
  213MOL0     C28653  10.632   6.056   8.674 -0.2214 -0.0634  0.8805
  213MOL0     C28654  10.723   5.957   8.691  0.0532  0.1413  0.0415
  213MOL0     C28655  10.734   5.880   8.808  0.0519 -0.2195 -0.5139
  213MOL0     O28656  10.842   5.801   8.811 -0.1355  0.5963 -0.5366
  213MOL0     C28657  10.890   5.765   8.938 -0.6084  0.4438 -0.3175
  213MOL0     C28658  11.025   5.703   8.925 -0.1040 -0.1628  0.2020
  213MOL0     C28659  11.083   5.670   9.060  0.1653  0.0762  0.4598
  213MOL0     C28660  11.216   5.594   9.035  1.3565 -1.0760 -0.2677
  213MOL0     C28661  11.274   5.518   9.158  0.5988 -0.0319  1.4538
  213MOL0     C28662  11.378   5.435   9.107  1.1048 -0.8139  0.2070
  213MOL0     C28663  11.416   5.313   9.196  0.4378  0.6642 -0.0308
  213MOL0     C28664  11.322   5.202   9.208  1.0308  0.6714  0.3925
  213MOL0    Cl28665  11.399   5.071   9.307 -0.1084 -0.1072  0.1210
  213MOL0     C28666  10.638   5.897   8.915  0.4537  0.2270 -0.0862
  213MOL0     C28667  10.543   6.000   8.897 -0.2368  0.5392 -0.1538
  213MOL0     O28668  10.275   6.024   8.773 -0.4921  0.7638 -0.6579
  213MOL0     C28669  10.228   6.349   8.668  0.2484 -0.3998  0.4283
  213MOL0     C28670  10.119   6.445   8.649 -0.0196  0.1325 -0.2774
  213MOL0     N28671   9.507   6.548   8.307  0.5828  0.3524 -1.0772
  213MOL0     N28672   9.554   6.567   8.187  0.2352 -0.0129 -0.4091
  213MOL0     C28673  10.696   6.415   7.567  0.4461 -0.4064  0.0802
  213MOL0     C28674  10.828   6.388   7.556  1.1609 -0.7086  0.3591
  213MOL0     C28675  11.243   6.144   7.489 -0.8650  0.3763 -0.4237
  213MOL0     C28676  11.317   6.027   7.454 -0.9737 -0.6728  0.5965
  213MOL0     C28677  11.457   6.023   7.450  0.8811 -0.1719  0.0339
  213MOL0     C28678  11.519   6.149   7.467 -0.4999  0.2066 -0.2652
  213MOL0     O28679  11.657   6.155   7.448 -0.1486  0.3055  0.2305
  213MOL0     C28680  11.739   6.047   7.412 -0.0670  0.2915 -0.2689
  213MOL0     C28681  11.757   6.037   7.263  0.8910 -0.4164  0.0967
  213MOL0     C28682  11.842   6.144   7.187 -0.9275 -0.3551 -0.2740
  213MOL0     C28683  11.979   6.195   7.242  0.2532 -0.3522 -0.1740
  213MOL0     C28684  12.075   6.083   7.263  0.5613  0.0239  0.6524
  213MOL0     C28685  12.152   5.986   7.294  0.2030 -0.9158 -0.3202
  213MOL0     C28686  11.455   6.268   7.488 -0.1117 -0.0587 -0.9219
  213MOL0     C28687  11.317   6.263   7.490 -0.5819 -0.3611  1.1761
  213MOL0     H28688  10.815   6.049   7.563 -3.0723 -0.9267  0.1251
  213MOL0     H28689  10.581   6.105   7.576 -4.3985  3.2699 -0.7409
  213MOL0     H28690  10.345   6.179   7.607  0.1242 -0.2598  0.0983
  213MOL0     H28691  10.448   6.175   7.747  0.8101 -3.3069 -3.2603
  213MOL0     H28692  10.236   6.234   7.840  1.1323 -2.8411 -1.0377
  213MOL0     H28693  10.284   6.397   7.804 -3.6009  0.4032  1.6093
  213MOL0     H28694  10.199   6.340   7.567 -0.0140  2.2375  1.1018
  213MOL0     H28695  10.084   6.222   7.654 -3.1329  1.3887  0.5183
  213MOL0     H28696  10.111   6.513   7.695  3.7732 -2.2350 -0.7792
  213MOL0     H28697   9.968   6.417   7.627 -0.8102 -1.6467  1.3312
  213MOL0     H28698   9.911   6.310   7.821  2.9610 -3.4489  3.5000
  213MOL0     H28699  10.055   6.354   7.905 -0.1299 -1.9078  0.2475
  213MOL0     H28700   9.980   6.578   7.936 -1.5131  0.7188  0.7657
  213MOL0     H28701   9.863   6.578   7.814 -0.1097  0.8263  0.8270
  213MOL0     H28702   9.727   6.412   7.976 -0.5542  2.2954 -1.5592
  213MOL0     H28703   9.885   6.415   8.081  2.1775  0.2042 -1.4974
  213MOL0     H28704   9.733   6.661   8.026  1.3356  0.1269 -1.0995
  213MOL0     H28705   9.870   6.645   8.128  0.1354 -1.0388  0.4955
  213MOL0     H28706   9.822   6.455   8.342  0.7277  3.2336  2.3358
  213MOL0     H28707   9.510   6.424   8.548 -1.5384 -0.0870 -0.4366
  213MOL0     H28708   9.682   6.405   8.555  0.2609  0.4603 -0.5605
  213MOL0     H28709   9.623   6.579   8.725  3.3285 -0.2838  1.4938
  213MOL0     H28710   9.543   6.670   8.595  0.6469 -1.0784 -3.4680
  213MOL0     H28711   9.742   6.775   8.628 -2.7503 -1.0023  1.8986
  213MOL0     H28712   9.754   6.711   8.475 -0.5147 -1.5451 -0.9954
  213MOL0     H28713   9.966   6.692   8.616 -0.4010  1.2371 -0.0151
  213MOL0     H28714   9.917   6.542   8.529 -0.6014 -1.6160  1.7238
  213MOL0     H28715   9.908   6.371   8.890  0.2747  0.4482  0.9436
  213MOL0     H28716   9.975   6.180   9.015  2.4352  0.3752  3.4097
  213MOL0     H28717  10.009   6.070   8.867  0.2351 -0.1844  0.3011
  213MOL0     H28718  10.137   6.103   8.984  1.4100 -0.9670 -2.9702
  213MOL0     H28719  10.634   6.123   8.589  3.3693  1.1456  1.7415
  213MOL0     H28720  10.789   5.925   8.611 -3.5478  0.4559 -3.3651
  213MOL0     H28721  10.906   5.853   9.000  0.7278  0.3185 -0.4413
  213MOL0     H28722  10.825   5.692   8.986 -0.2423  0.1305 -0.2932
  213MOL0     H28723  11.020   5.617   8.857 -2.2339  1.1174 -1.3828
  213MOL0     H28724  11.088   5.783   8.884 -0.5759 -0.6170 -1.4921
  213MOL0     H28725  11.017   5.603   9.116 -2.6286  1.0447 -1.4195
  213MOL0     H28726  11.114   5.764   9.107  2.5980  0.2100 -1.1956
  213MOL0     H28727  11.198   5.522   8.955 -0.2031 -0.0399 -0.9187
  213MOL0     H28728  11.290   5.668   9.002  2.5610 -1.3847  1.6070
  213MOL0     H28729  11.202   5.449   9.204 -1.5355  0.0362 -1.4662
  213MOL0     H28730  11.309   5.589   9.232 -0.2535  1.1385  0.7776
  213MOL0     H28731  11.361   5.389   9.009 -1.5864  1.4605 -0.5507
  213MOL0     H28732  11.469   5.493   9.097 -0.7154  2.2795  0.2883
  213MOL0     H28733  11.428   5.363   9.293 -1.4809  1.8636 -0.3398
  213MOL0     H28734  11.509   5.273   9.155  0.2839 -0.9579  1.1006
  213MOL0     H28735  11.287   5.167   9.111  1.2346 -0.6212  0.7667
  213MOL0     H28736  11.236   5.244   9.259  0.7907 -0.2516  0.7715
  213MOL0     H28737  10.648   5.839   9.006 -3.4541  0.1756  0.4656
  213MOL0     H28738  10.479   6.019   8.982 -0.0887 -1.8133  0.5594
  213MOL0     H28739  10.322   6.353   8.614 -0.3084  0.4133 -0.5011
  213MOL0     H28740  10.125   6.504   8.558  1.9367 -0.7027 -0.7380
  213MOL0     H28741  10.657   6.515   7.582 -0.9847 -1.2985  3.0894
  213MOL0     H28742  10.895   6.473   7.559  3.2308 -2.2978  2.0516
  213MOL0     H28743  11.277   5.927   7.442  1.7503 -1.8287  0.4498
  213MOL0     H28744  11.514   5.934   7.426  0.2301  0.0805 -2.6918
  213MOL0     H28745  11.828   6.085   7.463  2.0029 -3.0456 -1.0403
  213MOL0     H28746  11.710   5.950   7.453 -2.1100  0.4660 -1.2105
  213MOL0     H28747  11.666   6.028   7.203 -0.4080 -1.4872  2.1044
  213MOL0     H28748  11.806   5.943   7.234  0.8931 -0.3220 -0.2077
  213MOL0     H28749  11.781   6.235   7.193  1.6144  1.3695  4.8502
  213MOL0     H28750  11.854   6.114   7.082 -0.8713  0.8129 -0.6094
  213MOL0     H28751  11.971   6.243   7.340  0.1344 -0.5950 -0.0634
  213MOL0     H28752  12.018   6.268   7.171  1.0110 -0.4499  0.1331
  213MOL0     H28753  12.213   5.899   7.310  0.6563 -0.2116  2.0818
  213MOL0     H28754  11.506   6.363   7.484  0.3077 -0.3131 -1.8675
  213MOL0     H28755  11.249   6.347   7.502 -0.4207 -0.0124 -0.1953
  214MOL0     O28756   6.876   2.164   5.458 -0.4603 -0.5547 -0.2347
  214MOL0     C28757   6.885   2.195   5.341  0.3660 -0.1792  0.3879
  214MOL0     O28758   6.773   2.247   5.268 -0.2192 -0.2280 -0.7535
  214MOL0     C28759   6.691   2.328   5.349 -0.9799 -0.1103 -0.1184
  214MOL0     C28760   6.557   2.306   5.354  0.7444  0.1257 -0.2195
  214MOL0     C28761   6.473   2.384   5.441 -0.4315  0.3550  0.3773
  214MOL0     C28762   6.526   2.489   5.520 -0.0932  0.2578  0.7662
  214MOL0     O28763   6.437   2.577   5.581 -0.0551  0.3743  0.0266
  214MOL0     C28764   6.472   2.621   5.714  1.0121  0.5234 -0.0208
  214MOL0     C28765   6.335   2.691   5.760 -0.3438  0.6836 -0.9362
  214MOL0     C28766   6.318   2.830   5.702  1.0657 -1.0860  0.1747
  214MOL0     C28767   6.171   2.871   5.748 -0.3575  0.4143 -1.0464
  214MOL0     C28768   6.140   3.013   5.688  0.2826 -0.8477 -1.1533
  214MOL0     C28769   5.994   3.044   5.683  0.0223 -0.0245  0.2866
  214MOL0     C28770   5.946   3.039   5.828  0.4651 -0.6209  0.7316
  214MOL0     C28771   5.803   3.090   5.860 -0.2225 -0.1605 -0.6339
  214MOL0     N28772   5.694   3.016   5.788 -0.3045 -0.0914 -0.2639
  214MOL0     C28773   5.635   2.903   5.848  0.2194 -0.3746 -0.2292
  214MOL0     C28774   5.531   2.893   5.764  0.4894 -0.0752  0.1229
  214MOL0     C28775   5.437   2.789   5.773  0.2249  0.5717 -1.1845
  214MOL0     C28776   5.296   2.855   5.756  0.1363  0.4300 -0.0277
  214MOL0     C28777   5.191   2.769   5.830 -0.2737  0.5269 -0.1199
  214MOL0     C28778   5.055   2.840   5.846  0.6124 -0.0443  0.1413
  214MOL0     O28779   4.958   2.776   5.934 -0.6357  0.0695  0.4188
  214MOL0     C28780   4.825   2.822   5.934 -0.1254 -0.6473  0.1928
  214MOL0     C28781   4.801   2.940   5.872  0.6788 -0.1563 -0.2843
  214MOL0     C28782   4.674   2.999   5.878  0.7373 -0.4736  0.4972
  214MOL0     C28783   4.662   3.149   5.831 -0.5428  0.5928  0.7840
  214MOL0     C28784   4.560   2.920   5.928 -0.4073  0.2287 -0.3549
  214MOL0     C28785   4.417   2.962   5.925 -0.4596 -0.1640  0.4333
  214MOL0     O28786   4.341   2.890   5.841 -0.5753 -0.0898  0.0137
  214MOL0     C28787   4.210   2.893   5.837  0.0111 -0.0162 -1.2536
  214MOL0     C28788   4.147   2.843   5.718  0.6115  0.2750  0.4496
  214MOL0     C28789   4.010   2.819   5.707  0.9317  0.5692 -0.4396
  214MOL0     C28790   3.937   2.837   5.823  0.7811  0.3077  0.3241
  214MOL0     O28791   3.801   2.819   5.817 -0.4587 -0.3780 -0.8019
  214MOL0     C28792   3.707   2.859   5.920 -0.1076 -0.3875 -0.4997
  214MOL0     C28793   3.565   2.812   5.883 -0.5336 -0.2246  1.0697
  214MOL0     C28794   3.504   2.861   5.754  0.5221 -0.4530 -0.1175
  214MOL0     C28795   3.409   2.768   5.686 -0.4482  0.1430 -0.1190
  214MOL0     C28796   3.344   2.845   5.565  0.3838  0.0747 -0.2414
  214MOL0     C28797   3.222   2.775   5.503  0.2349 -0.5834  0.0462
  214MOL0     C28798   3.225   2.621   5.489  0.3400  0.7204  0.0983
  214MOL0     C28799   3.099   2.553   5.444  0.4690  0.2175  0.1636
  214MOL0    Cl28800   3.049   2.647   5.310  0.1305 -0.5466  0.0155
  214MOL0     C28801   3.987   2.886   5.935 -0.1873 -1.0561 -0.8448
  214MOL0     C28802   4.125   2.919   5.949  0.0012  0.2713 -0.9084
  214MOL0     O28803   4.382   3.057   5.991 -0.1996  0.4473 -0.8279
  214MOL0     C28804   4.592   2.794   5.984 -0.5195 -0.1521 -0.1097
  214MOL0     C28805   4.727   2.746   5.991 -0.7768 -0.9515  0.1809
  214MOL0     N28806   5.535   2.985   5.658  0.2258 -1.4537 -0.6906
  214MOL0     N28807   5.642   3.058   5.673  0.0109  0.2692 -0.3528
  214MOL0     C28808   6.666   2.522   5.496  0.3549 -0.0623  0.4828
  214MOL0     C28809   6.739   2.436   5.416  0.6322 -0.1109  0.2273
  214MOL0     C28810   6.990   2.146   5.249 -0.0645  0.4444  0.9559
  214MOL0     C28811   7.120   2.127   5.302  0.1075  0.1383  0.7774
  214MOL0     C28812   7.227   2.088   5.218  0.1418  0.0957  0.3232
  214MOL0     C28813   7.204   2.078   5.082 -0.2489  0.6552  0.2150
  214MOL0     O28814   7.304   2.064   4.981 -0.1005  0.3919  0.1147
  214MOL0     C28815   7.424   1.996   5.011 -0.2839 -0.2075 -0.3245
  214MOL0     C28816   7.540   2.053   4.920 -0.2315 -0.2968 -0.0353
  214MOL0     C28817   7.643   1.959   4.852  0.2654  0.0839 -0.3770
  214MOL0     C28818   7.750   2.044   4.765  0.1624 -0.2954 -0.6944
  214MOL0     C28819   7.859   1.962   4.709 -0.9856 -0.0273 -0.4874
  214MOL0     C28820   7.962   1.899   4.669  0.2355  0.2276  0.4809
  214MOL0     C28821   7.072   2.097   5.024  0.5372 -0.5724 -0.4386
  214MOL0     C28822   6.969   2.135   5.112 -0.1346  0.8257 -1.2707
  214MOL0     H28823   6.511   2.231   5.289  0.6066  0.5182 -0.5795
  214MOL0     H28824   6.367   2.384   5.421 -0.8872  1.2518  2.5503
  214MOL0     H28825   6.507   2.541   5.779  1.6307  2.4555  2.1412
  214MOL0     H28826   6.554   2.693   5.711  1.2872  0.1933 -1.0529
  214MOL0     H28827   6.249   2.631   5.729 -0.7665  0.8282 -0.0757
  214MOL0     H28828   6.332   2.692   5.869  1.2058 -3.1638 -0.7009
  214MOL0     H28829   6.385   2.903   5.750 -0.0324 -1.4293  2.3147
  214MOL0     H28830   6.323   2.850   5.594  0.6072  0.4893  0.4145
  214MOL0     H28831   6.095   2.800   5.715  0.2006  1.1027 -4.2439
  214MOL0     H28832   6.170   2.874   5.857 -1.4997  0.3497 -1.0507
  214MOL0     H28833   6.186   3.087   5.754 -2.2507 -0.8078  0.7207
  214MOL0     H28834   6.184   3.028   5.589  1.4108 -0.7451 -0.6507
  214MOL0     H28835   5.983   3.147   5.648 -0.1363 -0.2044 -0.1984
  214MOL0     H28836   5.943   2.973   5.617 -2.7607  2.3431 -0.3192
  214MOL0     H28837   5.928   2.936   5.859  1.3913 -0.5374  1.6120
  214MOL0     H28838   6.015   3.096   5.892  0.3870  0.7752 -0.3864
  214MOL0     H28839   5.795   3.196   5.838 -0.1434 -0.0072  0.0563
  214MOL0     H28840   5.786   3.069   5.966  0.3591  0.0146 -0.5047
  214MOL0     H28841   5.653   2.858   5.944 -1.5584  0.3637  0.5028
  214MOL0     H28842   5.459   2.707   5.704  2.7943 -0.8833  1.1227
  214MOL0     H28843   5.437   2.754   5.877 -2.4637  1.4438 -0.8304
  214MOL0     H28844   5.271   2.851   5.650 -3.6132  0.8297  0.6853
  214MOL0     H28845   5.288   2.958   5.790 -1.7475  0.9331 -1.8375
  214MOL0     H28846   5.208   2.741   5.935 -2.2555 -3.3074 -0.6574
  214MOL0     H28847   5.183   2.681   5.766 -1.3229  0.1236  0.5394
  214MOL0     H28848   5.014   2.845   5.745 -1.6513 -0.1192  1.0023
  214MOL0     H28849   5.076   2.943   5.875 -0.4874  1.7539 -4.6246
  214MOL0     H28850   4.870   2.988   5.804  0.9084  2.4033  1.6336
  214MOL0     H28851   4.716   3.164   5.737 -0.8613  2.0438  0.8142
  214MOL0     H28852   4.557   3.169   5.810  0.3605  1.4629 -3.9080
  214MOL0     H28853   4.702   3.210   5.913 -0.3323 -0.6852  1.6743
  214MOL0     H28854   4.208   2.815   5.632 -2.2990 -3.1309 -0.7350
  214MOL0     H28855   3.965   2.781   5.615  0.9314  1.6950 -0.9186
  214MOL0     H28856   3.747   2.801   6.004  1.0998 -2.6122 -2.4813
  214MOL0     H28857   3.699   2.965   5.942 -3.9007 -0.5457 -0.5564
  214MOL0     H28858   3.575   2.704   5.868 -1.2286 -0.3233  1.2918
  214MOL0     H28859   3.500   2.842   5.966  0.3171  1.3790  1.1810
  214MOL0     H28860   3.589   2.864   5.685  1.5658 -0.1089  1.1523
  214MOL0     H28861   3.461   2.958   5.778 -0.0268 -0.0538 -2.4501
  214MOL0     H28862   3.462   2.674   5.668  2.1227  1.2012  1.3192
  214MOL0     H28863   3.333   2.735   5.759 -0.3962  0.4582  0.0818
  214MOL0     H28864   3.429   2.849   5.497  0.0716  0.3738 -0.6189
  214MOL0     H28865   3.302   2.944   5.584 -0.7429 -0.4053 -0.1183
  214MOL0     H28866   3.131   2.815   5.549 -1.9030  0.1093 -4.3256
  214MOL0     H28867   3.214   2.813   5.401 -2.2100 -0.5582  0.2009
  214MOL0     H28868   3.237   2.573   5.586 -2.5496 -1.0500 -0.3120
  214MOL0     H28869   3.319   2.593   5.441  0.4246 -1.4934  1.4472
  214MOL0     H28870   3.020   2.573   5.517 -0.8517  3.5825 -1.9570
  214MOL0     H28871   3.120   2.448   5.419 -0.0741 -0.5856  2.7757
  214MOL0     H28872   3.927   2.897   6.024  0.7953  1.6490 -0.4137
  214MOL0     H28873   4.174   2.951   6.041 -0.6672 -1.4798  0.0977
  214MOL0     H28874   4.510   2.729   6.014 -0.5080 -0.0248  0.2070
  214MOL0     H28875   4.757   2.649   6.028  5.3901 -0.3433 -2.1594
  214MOL0     H28876   6.724   2.600   5.544  1.3845 -1.0041  0.8160
  214MOL0     H28877   6.846   2.449   5.406  0.9466 -2.5120  0.0324
  214MOL0     H28878   7.146   2.137   5.407 -2.3019 -0.9333  1.5450
  214MOL0     H28879   7.328   2.070   5.255 -0.0855 -3.0988 -0.3260
  214MOL0     H28880   7.461   2.003   5.114  1.1385 -1.6102 -0.6867
  214MOL0     H28881   7.413   1.889   4.991  2.0808 -0.2608 -1.8726
  214MOL0     H28882   7.596   2.115   4.991  2.8974 -1.3689 -1.3842
  214MOL0     H28883   7.503   2.113   4.837  0.4020  0.4895  0.2353
  214MOL0     H28884   7.582   1.902   4.781 -2.9209  1.1454  1.2871
  214MOL0     H28885   7.694   1.894   4.923 -0.5374  1.5737  1.6559
  214MOL0     H28886   7.800   2.112   4.834  1.0196 -0.4150 -1.1894
  214MOL0     H28887   7.703   2.096   4.681 -0.2330 -0.9487 -0.8887
  214MOL0     H28888   8.053   1.845   4.653 -0.3814 -1.7977  3.0894
  214MOL0     H28889   7.066   2.091   4.916  1.7184 -1.7747 -0.4654
  214MOL0     H28890   6.875   2.155   5.061 -0.3303  2.1013 -0.4506
  215MOL0     O28891   5.205  10.463   6.252 -0.2985 -0.4210  0.3012
  215MOL0     C28892   5.162  10.538   6.168 -0.0462 -0.7440 -0.3381
  215MOL0     O28893   5.211  10.659   6.141  0.1088  0.8136 -0.5501
  215MOL0     C28894   5.300  10.723   6.225 -0.1638 -0.2383  0.1427
  215MOL0     C28895   5.438  10.737   6.186  0.4110  0.2336  0.3747
  215MOL0     C28896   5.535  10.804   6.253 -1.3352 -0.1647 -0.4405
  215MOL0     C28897   5.482  10.885   6.362 -0.6499  0.7409  0.7495
  215MOL0     O28898   5.566  10.966   6.427 -0.4204  0.4394 -0.2135
  215MOL0     C28899   5.508  11.090   6.479  0.5152 -0.0327  0.5787
  215MOL0     C28900   5.607  11.205   6.454 -0.0298 -0.4432  0.4896
  215MOL0     C28901   5.571  11.326   6.527  0.0493  0.2079 -0.3841
  215MOL0     C28902   5.449  11.387   6.467  0.0604 -0.1065 -0.0847
  215MOL0     C28903   5.446  11.538   6.486  0.1755  0.3394  0.3217
  215MOL0     C28904   5.441  11.575   6.633  0.4177 -0.5481  0.4797
  215MOL0     C28905   5.297  11.559   6.690  0.0992  0.3446  0.0660
  215MOL0     C28906   5.293  11.553   6.840 -0.3380 -0.1618  0.3462
  215MOL0     N28907   5.154  11.543   6.881  0.3123 -0.6629 -0.0754
  215MOL0     C28908   5.053  11.623   6.835 -0.8473  0.0362  0.1092
  215MOL0     C28909   4.940  11.554   6.866 -0.3047 -1.2843  0.4394
  215MOL0     C28910   4.798  11.586   6.816 -0.8688  0.8811  0.0677
  215MOL0     C28911   4.726  11.695   6.897 -0.1491 -0.0355  0.1238
  215MOL0     C28912   4.738  11.674   7.052  0.8359  0.6056 -0.9579
  215MOL0     C28913   4.658  11.558   7.098 -0.1094 -0.0296 -0.4115
  215MOL0     O28914   4.519  11.561   7.066  0.1160 -0.8743  0.8184
  215MOL0     C28915   4.446  11.482   7.139  0.8868  0.3596  0.0042
  215MOL0     C28916   4.489  11.378   7.221  0.0844  0.1958  0.4556
  215MOL0     C28917   4.400  11.310   7.302  0.2174  0.6875 -0.4688
  215MOL0     C28918   4.459  11.206   7.399  0.6015 -1.2247 -0.1606
  215MOL0     C28919   4.256  11.342   7.297 -0.3450  0.6172 -0.0144
  215MOL0     C28920   4.147  11.262   7.372 -0.3940 -0.4546 -0.6829
  215MOL0     O28921   4.018  11.289   7.332 -0.6526  0.2400 -0.0060
  215MOL0     C28922   3.910  11.236   7.392  0.6716 -0.5821  0.2686
  215MOL0     C28923   3.790  11.286   7.354  0.9314 -0.1836 -0.0281
  215MOL0     C28924   3.664  11.245   7.419  0.3904  0.6964 -1.6457
  215MOL0     C28925   3.667  11.136   7.523  0.1639  0.0607  0.5166
  215MOL0     O28926   3.555  11.084   7.580 -0.6652  0.2260 -0.0973
  215MOL0     C28927   3.430  11.108   7.521  0.4984  0.2049  0.0597
  215MOL0     C28928   3.334  10.997   7.564 -0.6187 -0.3989 -0.2307
  215MOL0     C28929   3.201  11.001   7.483 -0.2059  0.7429 -0.6510
  215MOL0     C28930   3.223  10.969   7.329 -0.0933 -0.8085 -0.2661
  215MOL0     C28931   3.091  10.942   7.251 -0.3138  0.4787 -0.8290
  215MOL0     C28932   2.987  11.057   7.257  0.2364  0.0742 -0.1569
  215MOL0     C28933   2.867  11.035   7.168  0.1045  0.6860  0.3542
  215MOL0     C28934   2.777  10.916   7.226  0.7552  0.7398 -0.1127
  215MOL0    Cl28935   2.640  10.931   7.114 -0.3897  0.4958 -0.2369
  215MOL0     C28936   3.798  11.087   7.554  1.3397  0.2051  0.6742
  215MOL0     C28937   3.906  11.133   7.483 -0.0072  0.1438  0.1739
  215MOL0     O28938   4.182  11.180   7.454 -0.8207  0.7794 -0.4650
  215MOL0     C28939   4.217  11.450   7.211  0.2063 -0.7874 -0.4696
  215MOL0     C28940   4.310  11.519   7.131 -0.3474 -0.0063 -0.8932
  215MOL0     N28941   4.967  11.448   6.934  0.9968  0.8207 -0.1937
  215MOL0     N28942   5.099  11.434   6.943  0.5805 -0.2914 -0.0505
  215MOL0     C28943   5.351  10.875   6.409 -0.5029 -0.8157  0.7991
  215MOL0     C28944   5.262  10.789   6.339  0.0869 -0.5823 -0.0890
  215MOL0     C28945   5.048  10.489   6.090 -0.6934  0.3791  0.3628
  215MOL0     C28946   5.006  10.361   6.082  0.5846  0.1355 -0.1322
  215MOL0     C28947   4.897  10.329   5.992  0.4375  0.2416  0.0081
  215MOL0     C28948   4.842  10.425   5.911  1.1070  0.2936  0.3697
  215MOL0     O28949   4.741  10.400   5.826  1.2887  0.1878  0.4927
  215MOL0     C28950   4.688  10.271   5.797  0.4136  0.3600 -1.1162
  215MOL0     C28951   4.568  10.298   5.707  0.5735  1.4130  0.2674
  215MOL0     C28952   4.597  10.385   5.578 -0.1313  0.0485 -0.2341
  215MOL0     C28953   4.469  10.410   5.499  0.2126 -0.7666 -0.8822
  215MOL0     C28954   4.358  10.474   5.568  1.5287  0.1306  0.0683
  215MOL0     C28955   4.274  10.537   5.633  0.2091 -0.2606  0.2401
  215MOL0     C28956   4.889  10.555   5.915  0.0163 -1.3646  0.0630
  215MOL0     C28957   4.990  10.583   6.003  0.4014  0.1101  0.6672
  215MOL0     H28958   5.456  10.703   6.084 -1.4651  2.6258 -0.8808
  215MOL0     H28959   5.640  10.804   6.227 -1.2767 -0.7193 -0.2185
  215MOL0     H28960   5.412  11.125   6.440  0.2911 -0.3625  0.8385
  215MOL0     H28961   5.496  11.071   6.586  0.0008  1.0960  0.7396
  215MOL0     H28962   5.709  11.178   6.484  0.7028  0.4848 -1.0147
  215MOL0     H28963   5.611  11.234   6.349  0.3017  1.7554  1.0690
  215MOL0     H28964   5.563  11.308   6.635  2.1035 -2.3370 -0.5588
  215MOL0     H28965   5.654  11.396   6.510 -1.9452  2.6518 -0.6182
  215MOL0     H28966   5.454  11.371   6.358  2.1608  0.9945 -0.2178
  215MOL0     H28967   5.361  11.334   6.504 -0.0325 -0.0735 -0.2562
  215MOL0     H28968   5.538  11.583   6.449  0.7923 -2.3055 -1.6666
  215MOL0     H28969   5.356  11.573   6.435  0.6349 -0.3036 -0.9863
  215MOL0     H28970   5.515  11.518   6.691  0.2824 -2.5305 -1.1703
  215MOL0     H28971   5.469  11.680   6.638  1.4799 -0.6817 -1.6842
  215MOL0     H28972   5.227  11.635   6.653 -2.8245 -0.2764  3.6816
  215MOL0     H28973   5.261  11.463   6.653 -2.4657  1.4739 -0.6572
  215MOL0     H28974   5.337  11.647   6.875  2.8328 -0.6743 -1.7552
  215MOL0     H28975   5.350  11.464   6.869 -0.5319 -0.8332 -1.2006
  215MOL0     H28976   5.064  11.713   6.775  0.4615  0.5288  1.0477
  215MOL0     H28977   4.829  11.612   6.715 -0.0452  0.7433  0.2845
  215MOL0     H28978   4.747  11.489   6.810 -0.7389  0.6830  1.5630
  215MOL0     H28979   4.622  11.705   6.864  0.0818 -1.4678 -1.1345
  215MOL0     H28980   4.787  11.786   6.889  1.4820 -1.1130 -0.1179
  215MOL0     H28981   4.690  11.759   7.101 -1.7448 -0.4979 -1.4097
  215MOL0     H28982   4.840  11.677   7.091  0.4737 -1.0225  0.2301
  215MOL0     H28983   4.673  11.565   7.207  0.0245 -2.8039 -0.1717
  215MOL0     H28984   4.712  11.469   7.066  3.6027  0.8790  2.6064
  215MOL0     H28985   4.590  11.341   7.211 -0.4233 -1.7121  1.7506
  215MOL0     H28986   4.429  11.105   7.369  0.7423 -1.2250 -0.3087
  215MOL0     H28987   4.568  11.216   7.393  0.8169 -0.5070  3.0978
  215MOL0     H28988   4.430  11.239   7.499  3.2133 -0.1595  0.3291
  215MOL0     H28989   3.781  11.359   7.275  2.1465 -2.1213 -2.0946
  215MOL0     H28990   3.572  11.296   7.396 -1.1701 -0.1588  2.0246
  215MOL0     H28991   3.381  11.205   7.534 -2.3834 -1.0955 -0.3239
  215MOL0     H28992   3.441  11.087   7.414 -1.5775  0.9309 -0.3392
  215MOL0     H28993   3.391  10.905   7.550 -2.1693 -1.2365 -1.3574
  215MOL0     H28994   3.310  11.006   7.671  0.3158 -0.1624 -0.0286
  215MOL0     H28995   3.145  11.094   7.500 -0.0887  1.2749 -2.8813
  215MOL0     H28996   3.147  10.920   7.532  0.8725 -0.9480 -2.1588
  215MOL0     H28997   3.273  11.055   7.283  2.4593 -1.6424  0.7783
  215MOL0     H28998   3.276  10.878   7.298 -3.3080 -1.9657 -3.0216
  215MOL0     H28999   3.033  10.861   7.295  1.2049 -0.7567 -1.0387
  215MOL0     H29000   3.108  10.914   7.147  0.9038  2.7721 -1.3204
  215MOL0     H29001   2.942  11.060   7.357  0.5731  3.2838  0.0031
  215MOL0     H29002   3.035  11.154   7.242 -0.3595  0.4316  0.2056
  215MOL0     H29003   2.895  11.011   7.065 -0.4739 -2.5455  0.8183
  215MOL0     H29004   2.808  11.127   7.173  2.2671  2.0620  1.8949
  215MOL0     H29005   2.736  10.932   7.327  0.3759  0.4579 -0.2207
  215MOL0     H29006   2.832  10.823   7.212 -0.5424 -0.3051  1.2788
  215MOL0     H29007   3.815  11.021   7.639  0.0789 -0.6071  0.3301
  215MOL0     H29008   3.996  11.081   7.514  1.0884  1.4240 -0.7410
  215MOL0     H29009   4.110  11.460   7.200 -0.0596 -3.0372 -0.3546
  215MOL0     H29010   4.270  11.603   7.075  0.7824 -0.0205 -1.7559
  215MOL0     H29011   5.322  10.931   6.497  1.4420  3.8243 -1.1754
  215MOL0     H29012   5.160  10.773   6.371  0.3248  1.3063  1.8588
  215MOL0     H29013   5.038  10.273   6.137 -3.6011 -0.8308  1.1474
  215MOL0     H29014   4.872  10.223   5.988 -1.9304  0.7089  1.0827
  215MOL0     H29015   4.771  10.224   5.743  3.9188  2.9113  1.5722
  215MOL0     H29016   4.655  10.220   5.888 -0.1131 -2.2698 -2.6677
  215MOL0     H29017   4.488  10.345   5.765  0.1316 -0.5635  1.3403
  215MOL0     H29018   4.521  10.202   5.684  2.9998  0.1660  0.2012
  215MOL0     H29019   4.665  10.327   5.515  1.3246 -0.9518  2.1180
  215MOL0     H29020   4.644  10.479   5.608 -1.6904  0.9818 -0.5664
  215MOL0     H29021   4.431  10.310   5.476 -0.7412 -0.2448 -1.6568
  215MOL0     H29022   4.486  10.444   5.396 -1.6576 -1.3178 -1.4138
  215MOL0     H29023   4.198  10.586   5.692  0.3392  3.1315 -2.0969
  215MOL0     H29024   4.859  10.639   5.853  1.3879 -0.3997  0.6592
  215MOL0     H29025   5.017  10.689   6.005 -0.7339  0.6060 -2.7829
  216MOL0     O29026   2.148   4.546   4.347  0.0903  0.0819 -0.0401
  216MOL0     C29027   2.070   4.601   4.274  0.1274 -0.3924 -0.4710
  216MOL0     O29028   2.071   4.729   4.241  0.4992  0.4058  0.1717
  216MOL0     C29029   2.176   4.804   4.277  0.2294 -0.4380  0.4995
  216MOL0     C29030   2.219   4.818   4.417  0.2028 -1.3132  0.5578
  216MOL0     C29031   2.335   4.883   4.452  0.5789 -0.3240 -0.9570
  216MOL0     C29032   2.403   4.954   4.359 -0.1864 -0.0889  0.5992
  216MOL0     O29033   2.509   5.036   4.400  0.1010  0.3353  0.5225
  216MOL0     C29034   2.634   4.985   4.339 -0.7627  0.0976 -1.2325
  216MOL0     C29035   2.755   5.040   4.408  0.1399 -0.4301 -0.1247
  216MOL0     C29036   2.773   5.189   4.402 -0.5560 -0.7451 -0.1670
  216MOL0     C29037   2.900   5.235   4.478  0.3280  0.0475 -0.3165
  216MOL0     C29038   2.902   5.386   4.485 -0.3795  0.0620  0.3046
  216MOL0     C29039   2.802   5.459   4.575  0.1614 -0.4123 -0.0235
  216MOL0     C29040   2.756   5.587   4.502  0.2065 -0.5928 -0.4639
  216MOL0     C29041   2.709   5.703   4.604 -0.0240 -0.4828 -0.9099
  216MOL0     N29042   2.679   5.821   4.521 -0.1746 -0.0317 -0.1269
  216MOL0     C29043   2.751   5.940   4.508 -0.5253  0.3847 -0.3117
  216MOL0     C29044   2.662   6.023   4.456  0.4210 -0.2491  0.6318
  216MOL0     C29045   2.687   6.161   4.425  0.2812 -0.2056 -0.2437
  216MOL0     C29046   2.681   6.202   4.275 -0.4529 -0.6097 -1.2255
  216MOL0     C29047   2.551   6.194   4.199 -0.2231  0.6350 -0.5325
  216MOL0     C29048   2.443   6.268   4.264  0.0081  0.5040  1.2061
  216MOL0     O29049   2.326   6.281   4.181 -0.2747 -0.4863  0.0871
  216MOL0     C29050   2.252   6.168   4.180  1.1055 -0.4989 -0.2286
  216MOL0     C29051   2.235   6.076   4.074 -0.0140 -0.4314  0.3950
  216MOL0     C29052   2.157   5.961   4.095  0.1991 -0.2212 -0.3042
  216MOL0     C29053   2.145   5.848   3.993 -1.0477 -0.1327 -0.1660
  216MOL0     C29054   2.085   5.932   4.216  0.6299  0.4096 -0.6603
  216MOL0     C29055   2.010   5.803   4.255  0.1318 -1.5660  0.3278
  216MOL0     O29056   1.900   5.811   4.335 -0.0224  0.1208 -0.4705
  216MOL0     C29057   1.816   5.706   4.344  0.5957  0.4951 -0.5068
  216MOL0     C29058   1.703   5.696   4.265  0.2620  1.0044  0.2762
  216MOL0     C29059   1.615   5.591   4.286 -0.2660 -0.0556 -0.0028
  216MOL0     C29060   1.633   5.503   4.391 -1.2117  0.0226 -0.3814
  216MOL0     O29061   1.529   5.416   4.398 -0.3351  0.0319  0.1047
  216MOL0     C29062   1.553   5.282   4.442 -0.1844  1.0011 -0.4784
  216MOL0     C29063   1.429   5.193   4.462 -0.3254 -0.6316 -0.0272
  216MOL0     C29064   1.346   5.188   4.339  0.2729 -0.1072  0.9792
  216MOL0     C29065   1.215   5.109   4.357  0.7075 -0.2538  0.0914
  216MOL0     C29066   1.128   5.140   4.236 -0.4823 -0.2640  0.6664
  216MOL0     C29067   1.084   5.021   4.159 -0.2030  0.0769 -0.1527
  216MOL0     C29068   1.016   5.070   4.027 -0.5431  0.1259  0.6801
  216MOL0     C29069   0.894   5.166   4.043 -0.3784  0.1828  0.4636
  216MOL0    Cl29070   0.846   5.217   3.869 -0.2169 -0.0853  0.1106
  216MOL0     C29071   1.737   5.523   4.485 -0.4404 -0.1088 -0.7106
  216MOL0     C29072   1.835   5.624   4.460  0.5264  1.1311  0.2814
  216MOL0     O29073   2.074   5.700   4.225 -0.1687  0.0463  0.5865
  216MOL0     C29074   2.091   6.035   4.313  0.6142  0.8519  0.2184
  216MOL0     C29075   2.180   6.144   4.299 -0.3131  0.4457  0.8160
  216MOL0     N29076   2.539   5.964   4.444  0.4346 -0.3081  0.2906
  216MOL0     N29077   2.550   5.846   4.487 -0.3312  0.1445  0.6811
  216MOL0     C29078   2.363   4.952   4.222 -0.8109  0.3104  0.2001
  216MOL0     C29079   2.253   4.875   4.183 -0.6345 -0.0517  0.2582
  216MOL0     C29080   1.955   4.520   4.219  0.7389  0.5085  0.4733
  216MOL0     C29081   1.873   4.577   4.114  1.2267 -0.5046  0.2317
  216MOL0     C29082   1.763   4.502   4.060 -0.9584  0.1562  0.2532
  216MOL0     C29083   1.728   4.365   4.106 -0.2962 -0.1080  0.9516
  216MOL0     O29084   1.627   4.284   4.060  0.0637  0.2721 -0.4798
  216MOL0     C29085   1.490   4.351   4.059 -0.3460  0.9744 -0.6413
  216MOL0     C29086   1.388   4.247   4.032 -0.2757 -0.1883 -0.8938
  216MOL0     C29087   1.248   4.319   4.003  0.5189 -0.0148 -0.1847
  216MOL0     C29088   1.149   4.234   3.926  0.3673  0.3543 -0.6215
  216MOL0     C29089   1.068   4.319   3.840 -0.8123 -0.8646 -0.5773
  216MOL0     C29090   0.993   4.394   3.772 -0.1118 -0.4278 -0.1356
  216MOL0     C29091   1.829   4.318   4.192 -0.3803 -0.4180 -0.7421
  216MOL0     C29092   1.933   4.386   4.253 -0.3750  0.2536 -0.2145
  216MOL0     H29093   2.158   4.781   4.499 -1.4585 -2.3475 -1.0436
  216MOL0     H29094   2.358   4.898   4.557 -1.6327  1.4613 -0.6603
  216MOL0     H29095   2.640   4.876   4.346  0.8806  0.2108  3.5604
  216MOL0     H29096   2.635   5.001   4.231  1.1523 -1.9717 -1.5918
  216MOL0     H29097   2.746   5.013   4.514 -1.4135 -0.3276 -0.2048
  216MOL0     H29098   2.848   4.999   4.368  2.0722  0.8774  2.6517
  216MOL0     H29099   2.783   5.235   4.303  1.0033  3.7642  1.8024
  216MOL0     H29100   2.689   5.245   4.443 -0.0036  3.6435 -4.1214
  216MOL0     H29101   2.904   5.193   4.578  2.2229  1.7502  0.3914
  216MOL0     H29102   2.991   5.204   4.425  0.4021  1.5403 -1.1064
  216MOL0     H29103   2.990   5.423   4.538  0.8570  0.6991 -2.0823
  216MOL0     H29104   2.924   5.427   4.386 -0.5448 -1.0908 -0.2266
  216MOL0     H29105   2.711   5.404   4.602 -0.3556  0.8200  0.8850
  216MOL0     H29106   2.849   5.487   4.670 -1.9276 -3.1512  1.9776
  216MOL0     H29107   2.834   5.634   4.442  1.3876 -0.4579  1.1123
  216MOL0     H29108   2.673   5.559   4.437 -0.2838 -2.3319  0.8266
  216MOL0     H29109   2.784   5.734   4.677 -1.3137 -2.9099  1.6413
  216MOL0     H29110   2.616   5.674   4.655  0.0600  0.0223 -0.4543
  216MOL0     H29111   2.856   5.952   4.532 -1.1124  0.3491  2.5130
  216MOL0     H29112   2.603   6.218   4.467 -1.1049 -2.6054  0.4537
  216MOL0     H29113   2.774   6.205   4.476 -1.9010  4.2007  0.2352
  216MOL0     H29114   2.757   6.145   4.221 -0.6474  1.1439 -3.4954
  216MOL0     H29115   2.710   6.306   4.261  1.2278 -0.9187 -0.2869
  216MOL0     H29116   2.535   6.086   4.191 -0.8421  0.5837  1.0956
  216MOL0     H29117   2.577   6.225   4.097  1.4955  2.0995  0.2826
  216MOL0     H29118   2.477   6.366   4.299 -0.6333  0.9521  0.5929
  216MOL0     H29119   2.419   6.218   4.358  2.8584 -2.6912  0.4215
  216MOL0     H29120   2.299   6.093   3.987  0.4088 -3.6688 -0.0683
  216MOL0     H29121   2.044   5.806   3.989 -0.6526 -1.1411  0.2914
  216MOL0     H29122   2.181   5.877   3.894 -0.5578  0.4347  0.1662
  216MOL0     H29123   2.205   5.765   4.030  0.0773  0.0723 -1.4470
  216MOL0     H29124   1.678   5.772   4.192 -0.4687  1.1381  0.6595
  216MOL0     H29125   1.535   5.568   4.216 -1.0231  0.4468  0.6834
  216MOL0     H29126   1.623   5.241   4.368  0.4346  2.1030 -0.5144
  216MOL0     H29127   1.601   5.285   4.540 -0.0875 -1.9063 -0.3378
  216MOL0     H29128   1.449   5.090   4.492 -1.2051 -1.2726 -1.5286
  216MOL0     H29129   1.360   5.237   4.535 -3.8246 -1.9705 -2.2472
  216MOL0     H29130   1.399   5.148   4.252 -0.9649 -0.6026  0.4317
  216MOL0     H29131   1.324   5.289   4.303 -0.3122 -0.7345 -0.5150
  216MOL0     H29132   1.233   5.001   4.357 -0.3814 -0.4588 -0.7667
  216MOL0     H29133   1.171   5.133   4.454 -0.0480  0.2099 -0.3542
  216MOL0     H29134   1.180   5.202   4.163 -4.3831  1.6679 -0.7145
  216MOL0     H29135   1.035   5.191   4.264 -1.1010 -0.3468 -1.1231
  216MOL0     H29136   1.173   4.959   4.143  0.3404 -0.1178  2.9503
  216MOL0     H29137   1.007   4.969   4.216  0.2818  0.7096  1.1104
  216MOL0     H29138   0.972   4.993   3.962 -0.5501 -0.1922  1.0569
  216MOL0     H29139   1.089   5.128   3.969 -1.6008  0.7167 -0.0956
  216MOL0     H29140   0.920   5.254   4.102  2.6911 -2.6578  3.7943
  216MOL0     H29141   0.819   5.104   4.093  1.3062 -5.6336 -3.2759
  216MOL0     H29142   1.745   5.463   4.575 -0.3486  0.0580 -0.6077
  216MOL0     H29143   1.912   5.638   4.535  1.7982 -2.2544 -0.2183
  216MOL0     H29144   2.040   6.003   4.404  0.1321 -1.4151 -0.7890
  216MOL0     H29145   2.191   6.213   4.382  1.3969  1.6466 -0.3403
  216MOL0     H29146   2.419   5.017   4.156  0.9121 -1.8870 -0.6399
  216MOL0     H29147   2.218   4.898   4.083 -0.8590 -0.9267  0.1303
  216MOL0     H29148   1.878   4.683   4.090  2.5230 -0.1352  1.8990
  216MOL0     H29149   1.695   4.543   3.986  0.3988  2.1516  0.0670
  216MOL0     H29150   1.472   4.398   4.156 -2.0049  0.0587 -0.4701
  216MOL0     H29151   1.483   4.427   3.981 -1.2783  0.6097 -0.9271
  216MOL0     H29152   1.377   4.187   4.123 -1.1832  0.3006 -0.6636
  216MOL0     H29153   1.409   4.180   3.949  0.3558 -1.1492  0.0213
  216MOL0     H29154   1.279   4.406   3.945 -2.6698  2.0411  0.9981
  216MOL0     H29155   1.205   4.357   4.096 -2.2472 -2.3170 -0.3953
  216MOL0     H29156   1.084   4.184   3.998 -0.5476  2.3373 -0.0087
  216MOL0     H29157   1.216   4.172   3.865  3.1309  2.1016  0.4505
  216MOL0     H29158   0.928   4.444   3.703 -0.4946 -1.3381 -0.4546
  216MOL0     H29159   1.812   4.214   4.221 -0.5967  0.0414  0.8350
  216MOL0     H29160   1.995   4.331   4.324 -1.9456 -0.8567  0.3682
  217MOL0     O29161   9.942   1.804   5.979 -0.2901 -0.3264  0.3168
  217MOL0     C29162   9.831   1.821   6.027 -1.2933 -0.3311 -0.3220
  217MOL0     O29163   9.807   1.858   6.160  0.3256 -0.4795 -0.4635
  217MOL0     C29164   9.905   1.853   6.257 -0.1893  0.2422  0.0275
  217MOL0     C29165   9.904   1.951   6.357  0.0797  0.9404  1.0026
  217MOL0     C29166   9.991   1.943   6.464  0.4852 -0.3705 -0.3360
  217MOL0     C29167  10.075   1.835   6.485  0.2086  0.6908  0.3798
  217MOL0     O29168  10.159   1.818   6.595 -0.2983  0.1994 -0.6116
  217MOL0     C29169  10.199   1.686   6.644  0.2581 -0.0621 -0.2387
  217MOL0     C29170  10.312   1.690   6.757  0.7342  0.0106  0.3508
  217MOL0     C29171  10.442   1.746   6.696  0.3692  0.8153  0.5126
  217MOL0     C29172  10.556   1.732   6.799 -0.0050 -0.7731  0.2297
  217MOL0     C29173  10.695   1.765   6.731  0.6472 -0.3233 -0.1715
  217MOL0     C29174  10.792   1.760   6.842  0.4073  0.0872  0.4213
  217MOL0     C29175  10.936   1.772   6.786 -0.5656 -0.7415  0.3620
  217MOL0     C29176  11.046   1.741   6.890  0.2940  0.2090 -1.0885
  217MOL0     N29177  11.179   1.783   6.855  0.6300 -0.2225  0.2970
  217MOL0     C29178  11.240   1.910   6.854 -0.1768 -0.2388 -0.5887
  217MOL0     C29179  11.372   1.898   6.843 -0.0498 -0.0950  0.4328
  217MOL0     C29180  11.475   1.998   6.867  0.2918 -0.0499 -0.1098
  217MOL0     C29181  11.443   2.128   6.798 -0.2561  0.1073 -0.0379
  217MOL0     C29182  11.553   2.232   6.800  1.1399  1.2157 -0.0186
  217MOL0     C29183  11.611   2.292   6.923 -0.1998  0.6389  0.0205
  217MOL0     O29184  11.513   2.373   6.999 -0.2694 -0.6200  0.1752
  217MOL0     C29185  11.539   2.439   7.118  0.3036  0.2970 -0.0915
  217MOL0     C29186  11.662   2.425   7.189  0.1451 -0.5652  0.8305
  217MOL0     C29187  11.684   2.476   7.312 -0.0454  0.4292  0.2295
  217MOL0     C29188  11.819   2.437   7.383  0.3064  0.1938 -0.1897
  217MOL0     C29189  11.590   2.568   7.359  0.5537  0.8646 -1.0390
  217MOL0     C29190  11.611   2.657   7.478  0.2770  0.8405 -0.6365
  217MOL0     O29191  11.509   2.691   7.559  0.0592  0.5462  0.1293
  217MOL0     C29192  11.516   2.790   7.655 -0.5651  0.3136  0.9181
  217MOL0     C29193  11.430   2.783   7.765 -0.3211  0.4606  0.5238
  217MOL0     C29194  11.437   2.880   7.866  0.2509  0.7808  0.1931
  217MOL0     C29195  11.518   2.986   7.860  0.3096  0.3276 -0.5325
  217MOL0     O29196  11.511   3.073   7.967 -0.6904 -0.6230  0.4159
  217MOL0     C29197  11.445   3.192   7.923  0.0229  1.0227 -0.7220
  217MOL0     C29198  11.385   3.254   8.040 -0.0183  0.3492  0.2130
  217MOL0     C29199  11.314   3.156   8.133 -0.0647 -0.0386 -0.2482
  217MOL0     C29200  11.243   3.243   8.243 -0.0387 -0.3561 -0.4885
  217MOL0     C29201  11.148   3.166   8.320 -0.0721 -0.0975 -0.7578
  217MOL0     C29202  11.017   3.121   8.267  0.7430  0.4931 -0.4877
  217MOL0     C29203  10.949   3.038   8.364  0.0127 -0.1752  0.1030
  217MOL0     C29204  10.824   2.982   8.291  0.8491  0.5884  0.0416
  217MOL0    Cl29205  10.733   2.861   8.399 -0.3731 -0.1886  0.6095
  217MOL0     C29206  11.610   2.987   7.756 -0.9596  0.4671 -1.4346
  217MOL0     C29207  11.619   2.890   7.661  0.7593  0.4137  0.3212
  217MOL0     O29208  11.727   2.689   7.489  0.3759 -0.3820  0.4751
  217MOL0     C29209  11.469   2.583   7.294 -0.0204 -0.4270 -0.2238
  217MOL0     C29210  11.434   2.512   7.178 -0.4832 -0.1708 -0.3167
  217MOL0     N29211  11.394   1.761   6.830 -0.1336  0.3241 -0.0935
  217MOL0     N29212  11.277   1.700   6.825  0.4590 -0.4299 -0.3867
  217MOL0     C29213  10.073   1.738   6.388 -0.1594  0.2350  0.3458
  217MOL0     C29214   9.995   1.746   6.271  0.0888 -0.0962 -0.1730
  217MOL0     C29215   9.717   1.800   5.942 -0.9168 -0.2352  0.3263
  217MOL0     C29216   9.588   1.783   6.002 -0.6944 -0.6008 -0.4908
  217MOL0     C29217   9.474   1.756   5.913 -0.1112  0.5883  0.1219
  217MOL0     C29218   9.501   1.733   5.777  0.1323 -0.1661 -0.9394
  217MOL0     O29219   9.389   1.689   5.698  0.7050 -0.1210 -0.0949
  217MOL0     C29220   9.406   1.560   5.627 -0.0116 -0.2395  1.1887
  217MOL0     C29221   9.324   1.447   5.699 -0.2091 -0.0757  0.1130
  217MOL0     C29222   9.171   1.473   5.704 -0.5300  0.4333  0.3186
  217MOL0     C29223   9.110   1.469   5.837  0.2118  0.2853  0.2456
  217MOL0     C29224   9.132   1.349   5.910  0.2600 -0.3463 -0.7191
  217MOL0     C29225   9.136   1.250   5.975  1.1087  1.1309  0.3186
  217MOL0     C29226   9.623   1.752   5.726 -0.3459  1.8266  0.1101
  217MOL0     C29227   9.733   1.770   5.805  0.0689  0.7081  0.6910
  217MOL0     H29228   9.842   2.041   6.351  0.0463  1.0828  2.7943
  217MOL0     H29229  10.011   2.028   6.530  0.8347 -0.5561 -0.1988
  217MOL0     H29230  10.104   1.641   6.675 -1.9101  2.3678 -2.8931
  217MOL0     H29231  10.237   1.615   6.570 -0.5143 -2.4173  1.4683
  217MOL0     H29232  10.266   1.745   6.840  2.2876  2.6767 -0.4042
  217MOL0     H29233  10.325   1.589   6.795  0.7249 -0.3313 -0.5299
  217MOL0     H29234  10.476   1.694   6.606  0.5996 -1.3161  1.7610
  217MOL0     H29235  10.421   1.848   6.662 -4.9083 -0.8595 -2.4517
  217MOL0     H29236  10.541   1.798   6.885  2.1958  1.9026 -1.2629
  217MOL0     H29237  10.569   1.627   6.825 -0.6696 -1.0727 -0.5948
  217MOL0     H29238  10.717   1.693   6.652 -0.2807  1.5719 -2.2503
  217MOL0     H29239  10.694   1.858   6.674 -0.5610 -0.6169 -0.6474
  217MOL0     H29240  10.764   1.837   6.915  0.3593 -1.8939  2.6104
  217MOL0     H29241  10.794   1.672   6.906 -1.1573 -0.3307 -0.0577
  217MOL0     H29242  10.953   1.715   6.694 -0.2352  1.4144 -0.9931
  217MOL0     H29243  10.948   1.874   6.747  1.9469 -1.3149 -0.5484
  217MOL0     H29244  11.046   1.632   6.893 -0.0192  0.2227 -0.4463
  217MOL0     H29245  11.032   1.785   6.989  3.5374 -0.6501 -0.1097
  217MOL0     H29246  11.194   2.007   6.870  0.3733  0.0800 -0.8927
  217MOL0     H29247  11.493   2.033   6.969  0.1732  1.8803 -0.6982
  217MOL0     H29248  11.566   1.953   6.827 -0.1231 -1.2307  0.2317
  217MOL0     H29249  11.353   2.163   6.849  0.7847  1.3435  1.0491
  217MOL0     H29250  11.419   2.109   6.693  0.8166  1.2606 -0.5252
  217MOL0     H29251  11.517   2.322   6.749 -2.3360  0.4431  0.7997
  217MOL0     H29252  11.638   2.189   6.746  0.7986 -0.5437  0.7480
  217MOL0     H29253  11.697   2.353   6.894  0.1637 -0.1980 -0.7208
  217MOL0     H29254  11.648   2.215   6.991 -3.8669 -1.9296 -0.5856
  217MOL0     H29255  11.746   2.368   7.150 -0.4980 -1.8375  1.2533
  217MOL0     H29256  11.886   2.523   7.385 -0.5417  0.9009  2.0501
  217MOL0     H29257  11.787   2.419   7.487 -0.6863  0.3684 -0.4529
  217MOL0     H29258  11.854   2.338   7.354 -0.9500 -1.7729  4.0504
  217MOL0     H29259  11.355   2.705   7.767 -2.2457  2.2247  2.0813
  217MOL0     H29260  11.372   2.855   7.950  0.1944 -2.1932 -0.6045
  217MOL0     H29261  11.522   3.262   7.889  1.6121  1.5903  3.4088
  217MOL0     H29262  11.376   3.175   7.841 -0.8409  3.5538 -0.5904
  217MOL0     H29263  11.462   3.306   8.097 -0.9717 -0.5060  2.3922
  217MOL0     H29264  11.313   3.329   8.009 -0.4474 -0.0619  0.2086
  217MOL0     H29265  11.375   3.082   8.185 -1.5167 -2.2117 -1.4803
  217MOL0     H29266  11.244   3.092   8.079  2.0230 -3.1107  0.4364
  217MOL0     H29267  11.320   3.266   8.317  3.1257 -0.0626 -3.5987
  217MOL0     H29268  11.196   3.328   8.193  1.0511  1.5146  1.4924
  217MOL0     H29269  11.145   3.200   8.424 -1.0091 -3.8685  0.5962
  217MOL0     H29270  11.205   3.074   8.333 -1.9945 -1.0364  2.0980
  217MOL0     H29271  10.956   3.211   8.248  0.7786  0.4852 -0.6397
  217MOL0     H29272  11.020   3.079   8.167 -0.1352 -1.0038  0.0856
  217MOL0     H29273  10.923   3.098   8.452  1.1839  1.2823 -0.5098
  217MOL0     H29274  11.019   2.962   8.401 -3.6920 -2.8260  2.3795
  217MOL0     H29275  10.849   2.930   8.198  2.9710 -0.1351  0.9465
  217MOL0     H29276  10.764   3.069   8.265 -0.0665  0.1745  0.7036
  217MOL0     H29277  11.689   3.060   7.768  0.0166 -0.7772 -0.0369
  217MOL0     H29278  11.702   2.892   7.591  1.0818 -0.9535  0.6334
  217MOL0     H29279  11.391   2.652   7.326  0.2123  0.6525 -1.8596
  217MOL0     H29280  11.335   2.524   7.135  0.5116  1.1686 -2.3897
  217MOL0     H29281  10.135   1.650   6.400  0.5847  0.0204 -3.5681
  217MOL0     H29282   9.989   1.674   6.190 -0.3323  1.0032 -1.1467
  217MOL0     H29283   9.577   1.796   6.109 -1.3342 -1.1929 -0.4756
  217MOL0     H29284   9.373   1.751   5.951  0.1224  1.4329  0.8898
  217MOL0     H29285   9.363   1.574   5.527 -0.4178 -0.1395  1.3725
  217MOL0     H29286   9.510   1.528   5.624  0.2723  0.6262  1.4844
  217MOL0     H29287   9.366   1.429   5.798  0.2338  3.6754  0.7678
  217MOL0     H29288   9.341   1.361   5.634  2.3664  0.7616 -0.4534
  217MOL0     H29289   9.112   1.404   5.643 -1.1216  1.1377  0.0758
  217MOL0     H29290   9.136   1.570   5.667 -2.3085 -0.8773 -1.7064
  217MOL0     H29291   9.003   1.464   5.815  0.5652 -1.9585 -1.2545
  217MOL0     H29292   9.148   1.556   5.892 -0.7082 -0.2749  1.8569
  217MOL0     H29293   9.131   1.157   6.028  4.6408  0.8024  0.3141
  217MOL0     H29294   9.648   1.750   5.620  1.3619 -4.0026  0.2347
  217MOL0     H29295   9.833   1.779   5.764  0.1933 -0.5242  0.6833
  218MOL0     O29296   8.917   8.160   0.054 -0.5601 -0.0244  0.3694
  218MOL0     C29297   8.940   8.078  -0.039  0.1582 -0.2784 -0.9377
  218MOL0     O29298   8.853   7.980  -0.071  0.4518 -0.3351  0.2623
  218MOL0     C29299   8.727   7.988  -0.020  0.0790 -0.1556 -0.2461
  218MOL0     C29300   8.672   7.916   0.095  0.0810  0.1768 -0.1611
  218MOL0     C29301   8.545   7.942   0.142  1.0869 -0.6533  0.1276
  218MOL0     C29302   8.461   8.050   0.091 -0.0420 -0.5632  0.0393
  218MOL0     O29303   8.338   8.061   0.151  0.3970  0.4603  0.1314
  218MOL0     C29304   8.238   8.146   0.078  0.4191  0.4270 -0.2777
  218MOL0     C29305   8.110   8.162   0.160  0.3847 -0.6279 -0.8616
  218MOL0     C29306   7.986   8.226   0.091 -1.5313 -0.3460  0.2819
  218MOL0     C29307   7.879   8.268   0.183  0.2703  0.8002 -0.6343
  218MOL0     C29308   7.768   8.344   0.104 -0.2945  0.1291  0.2238
  218MOL0     C29309   7.645   8.362   0.192 -0.2645 -0.6517  0.0660
  218MOL0     C29310   7.540   8.447   0.127  0.3102  1.0070 -0.1015
  218MOL0     C29311   7.416   8.437   0.208  0.0015  0.4826  0.4883
  218MOL0     N29312   7.296   8.502   0.148 -0.2884 -0.2871  0.4453
  218MOL0     C29313   7.278   8.557   0.021  0.7691 -0.5716  0.4017
  218MOL0     C29314   7.144   8.584   0.008 -0.3958 -0.7875  0.0844
  218MOL0     C29315   7.090   8.654  -0.117  0.9393  0.0118  0.1801
  218MOL0     C29316   7.031   8.544  -0.221 -0.7890 -1.0088 -0.6568
  218MOL0     C29317   6.966   8.609  -0.347  0.1062  0.4271  0.7054
  218MOL0     C29318   6.919   8.500  -0.444  0.3962 -0.4330 -0.0956
  218MOL0     O29319   6.804   8.449  -0.367  0.0144  0.0685 -0.5262
  218MOL0     C29320   6.712   8.378  -0.435  0.4384 -0.4035  0.4045
  218MOL0     C29321   6.577   8.405  -0.415 -0.9806 -0.0725  1.1852
  218MOL0     C29322   6.468   8.341  -0.469  0.3903 -0.1896  0.1385
  218MOL0     C29323   6.331   8.393  -0.440 -0.5257  0.2705 -0.3345
  218MOL0     C29324   6.500   8.228  -0.559  0.0256 -0.4962 -0.0277
  218MOL0     C29325   6.397   8.148  -0.637  0.4325  0.2859 -0.1730
  218MOL0     O29326   6.447   8.087  -0.744  0.1822  0.3930 -0.4860
  218MOL0     C29327   6.362   8.004  -0.806 -0.3811  0.3062  0.3120
  218MOL0     C29328   6.409   7.869  -0.813 -0.5031  0.3136 -0.3942
  218MOL0     C29329   6.353   7.782  -0.901 -0.2968  0.4616 -0.0226
  218MOL0     C29330   6.251   7.814  -0.987  0.6072  0.0823 -0.2565
  218MOL0     O29331   6.198   7.714  -1.069 -0.2763  0.2477 -0.6297
  218MOL0     C29332   6.081   7.734  -1.144  0.1514 -0.3518  0.4913
  218MOL0     C29333   6.031   7.592  -1.179  0.2314  0.1501 -1.3427
  218MOL0     C29334   5.965   7.594  -1.315 -0.2381  0.7155  0.5821
  218MOL0     C29335   6.067   7.561  -1.429  0.0765  0.3593  0.0122
  218MOL0     C29336   5.990   7.553  -1.569 -0.3533  0.3300 -0.2569
  218MOL0     C29337   6.079   7.517  -1.688 -0.1766 -0.8000 -0.2200
  218MOL0     C29338   5.983   7.475  -1.806  0.1885  0.0480  0.5725
  218MOL0     C29339   6.072   7.417  -1.922 -0.0863 -0.2768  0.5696
  218MOL0    Cl29340   5.977   7.344  -2.054  0.4280 -0.2236 -0.0904
  218MOL0     C29341   6.206   7.946  -0.981  0.0115 -0.7895 -0.1412
  218MOL0     C29342   6.263   8.046  -0.896  0.3446 -0.0141 -0.0726
  218MOL0     O29343   6.276   8.159  -0.605 -0.6888  0.6749 -0.2456
  218MOL0     C29344   6.636   8.197  -0.575  0.5537  0.4507  0.6203
  218MOL0     C29345   6.740   8.271  -0.522 -0.1241 -0.1205 -0.4911
  218MOL0     N29346   7.084   8.535   0.117  0.9645 -0.2660  0.0159
  218MOL0     N29347   7.171   8.501   0.202 -0.2252 -0.2531 -0.0460
  218MOL0     C29348   8.505   8.116  -0.021 -0.8570 -0.6557  1.1404
  218MOL0     C29349   8.636   8.087  -0.069  0.4509 -0.0068 -0.8530
  218MOL0     C29350   9.068   8.085  -0.109  0.0493  0.2140 -0.0217
  218MOL0     C29351   9.074   8.028  -0.245 -0.2017 -0.2974 -0.5184
  218MOL0     C29352   9.189   8.053  -0.325  0.5349 -0.9705 -0.2932
  218MOL0     C29353   9.303   8.114  -0.268 -0.8087  0.3237  0.4499
  218MOL0     O29354   9.417   8.130  -0.341 -0.3217 -0.0274  1.1278
  218MOL0     C29355   9.437   8.093  -0.475  0.3613  0.9687  0.5446
  218MOL0     C29356   9.583   8.110  -0.529  0.8115  0.2663  0.3026
  218MOL0     C29357   9.666   7.979  -0.497  0.3308  0.2827  0.2146
  218MOL0     C29358   9.810   8.012  -0.500  0.2317  0.0323 -0.4932
  218MOL0     C29359   9.881   7.890  -0.450  0.8183 -0.4985  0.0407
  218MOL0     C29360   9.925   7.785  -0.423  0.3205  0.7906  0.3869
  218MOL0     C29361   9.297   8.158  -0.139  0.4635  0.4210  0.0016
  218MOL0     C29362   9.184   8.141  -0.053  1.3670 -0.6669 -0.2015
  218MOL0     H29363   8.728   7.838   0.146  2.5657  1.8640 -0.1394
  218MOL0     H29364   8.509   7.881   0.224 -1.8608  2.9731  1.7929
  218MOL0     H29365   8.272   8.246   0.049 -1.1435  0.3730 -2.5766
  218MOL0     H29366   8.218   8.102  -0.020 -0.9727 -0.0827  0.2129
  218MOL0     H29367   8.066   8.067   0.193 -0.3190  0.5897  1.9568
  218MOL0     H29368   8.131   8.200   0.260 -0.5810 -0.2486 -0.7923
  218MOL0     H29369   8.030   8.306   0.030  1.0618 -0.3399  2.0231
  218MOL0     H29370   7.947   8.158   0.015 -2.3633  0.4751 -0.0449
  218MOL0     H29371   7.837   8.176   0.225  0.0092 -0.1567 -2.8457
  218MOL0     H29372   7.922   8.326   0.265  2.7485 -1.5527 -0.1431
  218MOL0     H29373   7.805   8.447   0.101 -1.8248  0.7026  0.3146
  218MOL0     H29374   7.748   8.303   0.004 -2.2172  2.6927 -0.5354
  218MOL0     H29375   7.600   8.266   0.221 -1.0868 -0.6785 -1.2319
  218MOL0     H29376   7.672   8.406   0.289  1.6498 -1.4746 -0.0382
  218MOL0     H29377   7.565   8.554   0.135 -0.7515  1.1468  1.8148
  218MOL0     H29378   7.519   8.419   0.023 -2.3237  0.4007  0.5172
  218MOL0     H29379   7.429   8.490   0.303 -3.4280  1.2466  0.6805
  218MOL0     H29380   7.388   8.333   0.229 -0.0785  0.1785 -1.0338
  218MOL0     H29381   7.354   8.585  -0.051  1.0336 -1.4019  0.3471
  218MOL0     H29382   7.015   8.721  -0.075  0.0968 -0.3416 -0.7234
  218MOL0     H29383   7.166   8.720  -0.159 -2.2716  4.7458  1.1127
  218MOL0     H29384   6.963   8.478  -0.166  0.0345 -2.8541 -1.7579
  218MOL0     H29385   7.117   8.489  -0.262 -0.4286  0.9888 -2.7592
  218MOL0     H29386   7.041   8.667  -0.402 -0.5230  0.3824 -0.2131
  218MOL0     H29387   6.881   8.677  -0.334  1.2169  2.1687 -0.7257
  218MOL0     H29388   6.986   8.416  -0.463  2.0115  0.9743 -0.9917
  218MOL0     H29389   6.895   8.547  -0.540 -2.2909 -0.6595  0.4064
  218MOL0     H29390   6.556   8.498  -0.362 -1.2233  1.0664 -0.8230
  218MOL0     H29391   6.319   8.469  -0.363 -5.7016 -0.6132  0.1468
  218MOL0     H29392   6.303   8.436  -0.537 -3.9610  0.2319  0.4950
  218MOL0     H29393   6.265   8.312  -0.407  2.0247 -1.0753  1.8181
  218MOL0     H29394   6.494   7.835  -0.754  1.4429  4.6653 -0.3000
  218MOL0     H29395   6.392   7.681  -0.903  1.2089  1.0259 -1.2914
  218MOL0     H29396   6.004   7.788  -1.088 -0.0927 -2.3416  2.2209
  218MOL0     H29397   6.098   7.786  -1.239  0.0277 -0.6470  0.3048
  218MOL0     H29398   6.107   7.514  -1.189 -0.4020 -0.2034 -4.0503
  218MOL0     H29399   5.955   7.560  -1.108 -0.6597  1.9432 -1.4170
  218MOL0     H29400   5.925   7.693  -1.340  0.0794  0.8374  0.5586
  218MOL0     H29401   5.881   7.524  -1.324  1.1792 -0.8280 -1.6284
  218MOL0     H29402   6.129   7.651  -1.435  0.2298  0.3999  1.7725
  218MOL0     H29403   6.122   7.470  -1.404  0.0261  0.1759 -0.5241
  218MOL0     H29404   5.942   7.651  -1.581  1.9546  1.9396  2.4577
  218MOL0     H29405   5.907   7.483  -1.577 -0.3565 -0.0675  2.4598
  218MOL0     H29406   6.142   7.602  -1.715 -0.6596 -0.3181  0.1549
  218MOL0     H29407   6.156   7.445  -1.658  0.6013  0.6794  1.4672
  218MOL0     H29408   5.924   7.562  -1.834  0.7855  0.2358 -0.1101
  218MOL0     H29409   5.932   7.384  -1.772  2.7470 -3.2943 -3.4859
  218MOL0     H29410   6.145   7.344  -1.886  0.0335 -1.6788 -2.2220
  218MOL0     H29411   6.130   7.488  -1.981  0.1345 -1.7360 -1.0734
  218MOL0     H29412   6.125   7.977  -1.046 -0.5180  0.4599  1.0617
  218MOL0     H29413   6.221   8.145  -0.889  2.0698  0.8712 -1.4291
  218MOL0     H29414   6.664   8.111  -0.634 -2.9522 -0.5239  0.1869
  218MOL0     H29415   6.847   8.262  -0.540  0.0560  0.6465  0.1615
  218MOL0     H29416   8.448   8.194  -0.071  3.4848  1.6497 -0.8010
  218MOL0     H29417   8.669   8.145  -0.155 -0.5325  0.2834 -1.0575
  218MOL0     H29418   8.985   7.985  -0.290 -0.2871  0.6071 -1.2428
  218MOL0     H29419   9.181   8.002  -0.421  2.2542 -3.2128  0.6548
  218MOL0     H29420   9.404   7.988  -0.482  2.3055  0.3545 -0.0866
  218MOL0     H29421   9.384   8.148  -0.553  1.6700 -0.5454 -1.5149
  218MOL0     H29422   9.631   8.201  -0.492 -0.0909  0.0851  1.9927
  218MOL0     H29423   9.572   8.113  -0.638 -1.2638 -1.4781  0.4053
  218MOL0     H29424   9.640   7.910  -0.578 -0.6041  2.9342 -1.8750
  218MOL0     H29425   9.641   7.937  -0.399  1.6007  1.9573  1.2928
  218MOL0     H29426   9.836   8.091  -0.429  0.2312  1.5283 -2.0953
  218MOL0     H29427   9.832   8.039  -0.604  1.7890  0.2200 -0.1350
  218MOL0     H29428   9.951   7.682  -0.410  0.5039  1.0645  2.6421
  218MOL0     H29429   9.383   8.206  -0.093 -0.7803  1.9512  0.8235
  218MOL0     H29430   9.187   8.176   0.049 -0.9587 -2.0524  0.4298
  219MOL0     O29431   7.560  10.280  10.464 -0.4587 -0.2891 -0.7533
  219MOL0     C29432   7.657  10.297  10.391 -0.8855 -0.3779 -0.7832
  219MOL0     O29433   7.653  10.351  10.260 -0.9290  1.0090 -0.1832
  219MOL0     C29434   7.545  10.390  10.181  0.4611  0.0664 -1.0795
  219MOL0     C29435   7.574  10.402  10.050  0.5136  0.8281 -0.0520
  219MOL0     C29436   7.476  10.451   9.962  0.2851 -0.6154  1.0599
  219MOL0     C29437   7.344  10.479  10.006 -0.3438 -0.5101  0.7059
  219MOL0     O29438   7.235  10.527   9.925 -0.4696 -0.3375  0.1568
  219MOL0     C29439   7.269  10.550   9.783 -0.4264 -0.2504 -0.9595
  219MOL0     C29440   7.144  10.572   9.697  0.7552 -0.0878  0.3450
  219MOL0     C29441   7.037  10.668   9.771  0.0591 -0.3163  0.1204
  219MOL0     C29442   6.903  10.678   9.693 -0.5226  0.0197  0.6815
  219MOL0     C29443   6.803  10.794   9.750  0.2169  0.5362  0.9055
  219MOL0     C29444   6.681  10.805   9.662 -0.4327 -0.1181  0.1132
  219MOL0     C29445   6.593  10.928   9.696  0.4833  0.1655 -0.5355
  219MOL0     C29446   6.521  10.911   9.836  0.7411  0.7420  0.6553
  219MOL0     N29447   6.400  10.985   9.838  0.3139  0.2651  1.2058
  219MOL0     C29448   6.296  10.963   9.754 -0.2578  0.9586 -0.0984
  219MOL0     C29449   6.193  11.022   9.819 -1.0600  0.0458  0.1022
  219MOL0     C29450   6.065  11.032   9.752  0.5790  0.0850 -0.7990
  219MOL0     C29451   6.055  11.153   9.659 -0.0539  0.0085  0.4183
  219MOL0     C29452   6.048  11.288   9.732  0.0758  0.6737  0.6061
  219MOL0     C29453   5.927  11.301   9.823 -0.6030 -0.0630  0.2923
  219MOL0     O29454   5.802  11.334   9.765  0.2445 -0.3329 -0.5308
  219MOL0     C29455   5.698  11.300   9.844  0.0495 -0.2000  1.5125
  219MOL0     C29456   5.704  11.315   9.982  0.8496 -0.2424 -0.9652
  219MOL0     C29457   5.592  11.271  10.054 -0.5670 -0.1447  0.3773
  219MOL0     C29458   5.618  11.272  10.199 -0.2756 -0.2574 -0.5495
  219MOL0     C29459   5.479  11.219   9.991  0.4399 -0.0107  0.5695
  219MOL0     C29460   5.361  11.165  10.050 -0.0792 -0.4287 -0.1357
  219MOL0     O29461   5.264  11.113   9.968 -0.0671  0.5003 -0.7647
  219MOL0     C29462   5.152  11.077  10.037  0.1801  0.1554  0.4349
  219MOL0     C29463   5.080  11.180  10.087  0.4057 -0.2739 -0.1341
  219MOL0     C29464   4.970  11.155  10.170  1.0878  0.4814 -0.7567
  219MOL0     C29465   4.942  11.018  10.212 -0.1326 -0.9896 -0.1668
  219MOL0     O29466   4.835  10.985  10.293 -0.3973  0.3623 -0.0738
  219MOL0     C29467   4.732  11.076  10.336  1.0012  0.7378 -0.2878
  219MOL0     C29468   4.605  10.999  10.399  0.8164 -0.4978 -0.0073
  219MOL0     C29469   4.518  10.929  10.290  0.3434  0.2044 -0.0395
  219MOL0     C29470   4.403  10.841  10.352 -0.8141  0.1406 -0.0006
  219MOL0     C29471   4.323  10.774  10.237 -0.3087 -0.0955  0.3236
  219MOL0     C29472   4.193  10.704  10.282 -0.3745  0.2401 -0.2205
  219MOL0     C29473   4.072  10.796  10.314  0.3782  0.5789 -0.7853
  219MOL0     C29474   3.939  10.727  10.317 -0.3109  0.7182 -0.6616
  219MOL0    Cl29475   3.943  10.549  10.369 -0.5273  0.0100 -0.3175
  219MOL0     C29476   5.018  10.917  10.157  0.1722 -0.3308 -1.2637
  219MOL0     C29477   5.123  10.946  10.071 -0.1193 -0.6233  0.0094
  219MOL0     O29478   5.358  11.150  10.176 -0.5983 -0.7530 -0.7628
  219MOL0     C29479   5.479  11.210   9.848 -0.5850  0.0778  0.7266
  219MOL0     C29480   5.583  11.260   9.773 -0.4432 -0.4650 -0.2312
  219MOL0     N29481   6.235  11.083   9.933 -0.6997  0.5362 -0.2763
  219MOL0     N29482   6.365  11.065   9.942 -0.4598  0.3597 -0.3576
  219MOL0     C29483   7.319  10.468  10.134 -0.6947  0.5111 -0.1343
  219MOL0     C29484   7.406  10.415  10.225 -0.1708  0.2585 -0.0397
  219MOL0     C29485   7.789  10.247  10.440 -0.2025  0.7764  0.2445
  219MOL0     C29486   7.798  10.189  10.573 -1.0239 -0.3567  0.3015
  219MOL0     C29487   7.927  10.143  10.613  0.3834  0.3013  0.1142
  219MOL0     C29488   8.041  10.138  10.526 -0.1990 -0.8366 -0.2475
  219MOL0     O29489   8.150  10.078  10.580  0.1579  0.0860  0.5243
  219MOL0     C29490   8.268  10.150  10.560  0.1838  0.4887  0.3584
  219MOL0     C29491   8.291  10.249  10.674 -0.0704  0.0075 -1.1697
  219MOL0     C29492   8.437  10.320  10.688  0.3337 -0.1994  0.0730
  219MOL0     C29493   8.559  10.228  10.651  0.6147 -0.0101 -0.2994
  219MOL0     C29494   8.662  10.269  10.746 -1.0999  1.7901 -0.0807
  219MOL0     C29495   8.758  10.293  10.818 -0.5792  0.0644 -0.4644
  219MOL0     C29496   8.019  10.172  10.392  0.6501  0.4481 -0.5425
  219MOL0     C29497   7.900  10.228  10.345  0.0487  0.0568 -0.5622
  219MOL0     H29498   7.665  10.369  10.000  2.1523  1.1562  2.5131
  219MOL0     H29499   7.507  10.464   9.859 -0.7106  0.4382  0.8666
  219MOL0     H29500   7.331  10.640   9.771 -0.8660 -0.0239 -1.5962
  219MOL0     H29501   7.330  10.473   9.736  0.8976  0.2524 -0.1296
  219MOL0     H29502   7.174  10.623   9.605 -3.9293 -0.5418 -1.7352
  219MOL0     H29503   7.092  10.480   9.670  0.1337 -0.6606  3.2180
  219MOL0     H29504   7.016  10.630   9.871 -2.5048  0.9173  0.1116
  219MOL0     H29505   7.072  10.769   9.792  1.1084 -0.8776  1.1958
  219MOL0     H29506   6.924  10.697   9.588  0.3343 -2.3873  0.3580
  219MOL0     H29507   6.851  10.582   9.690 -0.7774  0.1896 -0.7111
  219MOL0     H29508   6.758  10.777   9.848 -2.4483 -1.0183 -0.4751
  219MOL0     H29509   6.864  10.884   9.746  1.6596 -0.4286 -1.8461
  219MOL0     H29510   6.709  10.814   9.556 -1.2227 -2.5624 -0.3715
  219MOL0     H29511   6.617  10.716   9.667  0.5022 -0.7546  1.5877
  219MOL0     H29512   6.656  11.017   9.695  0.3800  0.2422 -0.2549
  219MOL0     H29513   6.522  10.943   9.615  0.7834 -0.7189 -0.9763
  219MOL0     H29514   6.579  10.924   9.928  3.0120 -2.4963 -0.1402
  219MOL0     H29515   6.508  10.804   9.857  1.5008  0.3191 -0.9006
  219MOL0     H29516   6.305  10.924   9.653  2.2742  1.8504 -0.3082
  219MOL0     H29517   6.045  10.938   9.699  0.1547 -1.2926  1.6612
  219MOL0     H29518   5.984  11.041   9.825  1.0762  3.7331 -0.5172
  219MOL0     H29519   5.972  11.143   9.588 -1.0142  2.8388  1.0110
  219MOL0     H29520   6.147  11.168   9.602 -0.2113  0.4157  0.2667
  219MOL0     H29521   6.043  11.366   9.656  0.7475 -1.0820 -1.3296
  219MOL0     H29522   6.134  11.300   9.798  0.6196  4.1066 -0.5255
  219MOL0     H29523   5.963  11.387   9.880  1.6184  0.0965 -1.2129
  219MOL0     H29524   5.918  11.215   9.890 -2.4442  1.0232  1.5325
  219MOL0     H29525   5.778  11.376  10.032 -1.4439  1.0493  1.0511
  219MOL0     H29526   5.692  11.348  10.226 -1.2166  0.1167  1.1159
  219MOL0     H29527   5.525  11.294  10.252  1.7305  0.3080  2.9959
  219MOL0     H29528   5.641  11.175  10.243 -1.1294  0.7195  2.2432
  219MOL0     H29529   5.110  11.283  10.075  3.3426 -1.2614 -2.3116
  219MOL0     H29530   4.921  11.238  10.220 -1.3801 -0.5832 -1.2725
  219MOL0     H29531   4.772  11.154  10.401 -0.0179  0.7298  0.3680
  219MOL0     H29532   4.709  11.126  10.241  2.7453 -0.0615 -1.1925
  219MOL0     H29533   4.643  10.935  10.480  2.5853 -1.4977 -1.5518
  219MOL0     H29534   4.548  11.075  10.454  1.0714  1.8157 -2.7246
  219MOL0     H29535   4.577  10.870  10.219 -0.7166  0.0061 -0.7761
  219MOL0     H29536   4.461  10.999  10.228 -0.2564  0.0675  0.3538
  219MOL0     H29537   4.446  10.763  10.416  0.8238 -1.3237 -2.6564
  219MOL0     H29538   4.332  10.909  10.399  0.1929  1.9427 -0.9657
  219MOL0     H29539   4.385  10.696  10.192  1.6534  2.4856 -1.7784
  219MOL0     H29540   4.282  10.856  10.178 -1.0782 -0.6748  0.0501
  219MOL0     H29541   4.174  10.636  10.198 -2.5116 -1.0310  1.2001
  219MOL0     H29542   4.217  10.637  10.365 -1.0282 -0.5208 -0.6294
  219MOL0     H29543   4.069  10.883  10.247 -1.0874  1.6157  0.5545
  219MOL0     H29544   4.098  10.839  10.411  0.8340 -1.6114  0.1346
  219MOL0     H29545   3.901  10.723  10.215  0.5587 -3.1407 -1.0030
  219MOL0     H29546   3.864  10.770  10.384 -0.3870 -0.1202 -0.1838
  219MOL0     H29547   4.996  10.814  10.185 -0.8285  0.1087 -0.3702
  219MOL0     H29548   5.178  10.862  10.030 -0.8977 -0.1872 -2.0222
  219MOL0     H29549   5.391  11.165   9.803 -1.2224 -0.1069  2.1311
  219MOL0     H29550   5.582  11.268   9.664 -0.7870 -3.8167 -0.5923
  219MOL0     H29551   7.218  10.488  10.168 -0.7532 -1.6303  1.1277
  219MOL0     H29552   7.380  10.404  10.330 -0.2384 -1.8740 -0.2360
  219MOL0     H29553   7.720  10.186  10.648  1.5131  1.1120  3.2139
  219MOL0     H29554   7.933  10.101  10.713 -2.3758 -2.7742 -0.8615
  219MOL0     H29555   8.346  10.074  10.560  0.1862  0.4892  0.5002
  219MOL0     H29556   8.281  10.201  10.465  0.6962 -0.8031 -0.2866
  219MOL0     H29557   8.288  10.194  10.768  0.9417  1.4590 -0.2507
  219MOL0     H29558   8.215  10.327  10.673  0.1121  0.2350  0.5179
  219MOL0     H29559   8.452  10.386  10.774  3.6852  2.4508 -2.2603
  219MOL0     H29560   8.424  10.393  10.608  0.6757  2.4903  2.3328
  219MOL0     H29561   8.587  10.228  10.545  0.2897 -2.0933 -0.4140
  219MOL0     H29562   8.531  10.124  10.668 -1.1204  0.5042  0.2283
  219MOL0     H29563   8.840  10.303  10.886 -0.6381 -0.0489 -0.3771
  219MOL0     H29564   8.096  10.151  10.319  3.0749 -0.8189  2.2078
  219MOL0     H29565   7.866  10.249  10.244 -0.6004 -0.5208 -0.4740
  220MOL0     O29566   2.063   2.702   7.224 -0.6030 -0.3067 -0.1027
  220MOL0     C29567   2.157   2.782   7.249 -0.1738  1.0903 -0.1262
  220MOL0     O29568   2.144   2.886   7.326  0.5054 -0.4706 -0.2576
  220MOL0     C29569   2.038   2.892   7.417 -0.2380  0.5271 -0.0212
  220MOL0     C29570   1.954   2.787   7.472  0.4973  1.2830 -0.9734
  220MOL0     C29571   1.843   2.822   7.563  0.4488 -0.5340 -0.0630
  220MOL0     C29572   1.828   2.958   7.599  0.4743  0.9881  0.4126
  220MOL0     O29573   1.731   2.968   7.685 -1.0454 -0.3488  0.2596
  220MOL0     C29574   1.681   3.098   7.727 -0.7392  0.7140  0.0015
  220MOL0     C29575   1.589   3.078   7.854 -0.6841 -0.6120 -0.1514
  220MOL0     C29576   1.458   3.026   7.797 -0.4384 -0.3283 -0.2922
  220MOL0     C29577   1.370   2.976   7.907  0.3415 -0.2420 -0.3928
  220MOL0     C29578   1.232   2.963   7.861 -0.6932  0.4083  0.5148
  220MOL0     C29579   1.128   2.971   7.977  0.5918  1.2217 -0.1977
  220MOL0     C29580   0.990   3.032   7.936 -0.0693 -0.2905 -0.4167
  220MOL0     C29581   0.891   3.049   8.067  0.4326 -0.2613  0.4753
  220MOL0     N29582   0.744   3.029   8.040 -0.0315  0.2873  0.4093
  220MOL0     C29583   0.661   2.916   8.056 -0.2891  0.3280 -1.1183
  220MOL0     C29584   0.532   2.954   8.034  0.2847  0.2399 -1.4904
  220MOL0     C29585   0.413   2.856   8.008 -0.2948 -0.7247  0.5027
  220MOL0     C29586   0.403   2.722   8.088  0.6251  0.8030  0.1629
  220MOL0     C29587   0.278   2.641   8.027  0.9485 -0.0199 -0.7551
  220MOL0     C29588   0.214   2.539   8.121  0.2093  0.2659 -0.3465
  220MOL0     O29589   0.119   2.458   8.061  0.2034 -0.1142  0.1547
  220MOL0     C29590  -0.015   2.495   8.048  0.4128 -1.1683  0.0597
  220MOL0     C29591  -0.066   2.632   8.084  0.3912 -0.0789 -0.0916
  220MOL0     C29592  -0.200   2.668   8.065 -0.0504  0.3209 -0.2045
  220MOL0     C29593  -0.258   2.803   8.115 -0.5554  0.0926 -0.2891
  220MOL0     C29594  -0.279   2.569   7.989  0.0093 -0.9248 -0.2915
  220MOL0     C29595  -0.412   2.606   7.944  0.1141 -0.8104 -0.0260
  220MOL0     O29596  -0.510   2.657   8.030 -0.1775 -0.4063  0.0495
  220MOL0     C29597  -0.631   2.696   7.976 -0.4759 -0.6880  0.3589
  220MOL0     C29598  -0.670   2.732   7.840 -0.2322  0.0440  0.0063
  220MOL0     C29599  -0.807   2.760   7.812  0.3067  0.5261  0.4169
  220MOL0     C29600  -0.904   2.759   7.909  0.2118 -0.8892  0.7772
  220MOL0     O29601  -1.034   2.790   7.872 -0.0429  0.5437  0.8073
  220MOL0     C29602  -1.077   2.908   7.938 -0.3900  0.3850  0.5548
  220MOL0     C29603  -1.221   2.929   7.907 -0.1942 -0.5973  0.4490
  220MOL0     C29604  -1.304   2.803   7.894  0.0660  0.5571 -0.0414
  220MOL0     C29605  -1.288   2.704   8.006 -0.6340  0.5003 -0.1246
  220MOL0     C29606  -1.399   2.715   8.113  1.6409 -0.0901 -1.0318
  220MOL0     C29607  -1.378   2.612   8.228 -0.1871 -0.2177  0.4411
  220MOL0     C29608  -1.228   2.592   8.263 -0.6607  0.7775  0.4809
  220MOL0     C29609  -1.209   2.497   8.385  0.9550 -0.0118  0.0685
  220MOL0    Cl29610  -1.033   2.509   8.418 -0.2454  0.4679 -0.0454
  220MOL0     C29611  -0.865   2.732   8.043 -0.1515  0.5472  0.3007
  220MOL0     C29612  -0.728   2.708   8.081 -0.4411  0.1253 -0.1822
  220MOL0     O29613  -0.424   2.591   7.825  0.1189 -0.6602  0.4429
  220MOL0     C29614  -0.227   2.441   7.960 -0.0156 -0.5146  0.2960
  220MOL0     C29615  -0.096   2.412   7.981 -0.5237  0.0540  1.0189
  220MOL0     N29616   0.534   3.087   8.005 -0.1230 -0.2215 -0.3087
  220MOL0     N29617   0.659   3.133   8.010  0.7142 -0.6203 -0.6260
  220MOL0     C29618   1.908   3.058   7.546  0.0967  0.6596  0.2547
  220MOL0     C29619   2.001   3.023   7.451  0.0836  0.1482  0.4647
  220MOL0     C29620   2.287   2.769   7.170  0.7840  0.5077  0.7293
  220MOL0     C29621   2.390   2.851   7.194 -0.0576  0.2940  1.1041
  220MOL0     C29622   2.505   2.843   7.113  0.3134 -0.0377 -0.6104
  220MOL0     C29623   2.522   2.746   7.026  0.2241 -0.5642  0.2575
  220MOL0     O29624   2.634   2.741   6.951 -0.3550  0.1576 -0.5635
  220MOL0     C29625   2.759   2.798   7.002  0.1100  0.0653 -0.5726
  220MOL0     C29626   2.873   2.764   6.916  0.5109  0.4455  0.2824
  220MOL0     C29627   2.839   2.797   6.767  0.3297  1.3548 -0.4068
  220MOL0     C29628   2.971   2.837   6.699 -0.2944 -0.0463  0.2758
  220MOL0     C29629   3.067   2.730   6.701  0.7726  0.5957 -0.5113
  220MOL0     C29630   3.154   2.644   6.676  0.2763  0.3300 -0.1266
  220MOL0     C29631   2.411   2.664   6.993  0.9624 -0.1885  0.3192
  220MOL0     C29632   2.301   2.666   7.075  0.7494 -0.8093  0.6887
  220MOL0     H29633   1.987   2.687   7.449  1.2036  0.8286  1.7121
  220MOL0     H29634   1.781   2.746   7.611  0.6434 -0.1680  0.7861
  220MOL0     H29635   1.757   3.162   7.773 -1.2201 -1.0383  3.5921
  220MOL0     H29636   1.634   3.164   7.653  1.5535  1.6520 -0.7070
  220MOL0     H29637   1.630   3.002   7.921  1.2352  1.7498  1.5029
  220MOL0     H29638   1.580   3.169   7.914  1.6784  0.6539 -1.5510
  220MOL0     H29639   1.418   3.114   7.746  0.7470 -0.5308 -1.6743
  220MOL0     H29640   1.471   2.952   7.717  1.3050 -0.9689  0.5362
  220MOL0     H29641   1.401   2.880   7.951 -0.7221 -0.9301 -1.0947
  220MOL0     H29642   1.379   3.052   7.986 -2.0857  1.4072 -1.5842
  220MOL0     H29643   1.214   3.051   7.800 -0.4533  1.5394  2.0144
  220MOL0     H29644   1.224   2.879   7.791 -2.4634  0.2876  0.8196
  220MOL0     H29645   1.117   2.872   8.022  0.1396  1.2531 -0.2404
  220MOL0     H29646   1.162   3.038   8.056 -0.6365  0.5465  0.9358
  220MOL0     H29647   0.996   3.128   7.885  1.5304 -0.5749 -0.8194
  220MOL0     H29648   0.934   2.965   7.869 -1.8476 -1.5995  2.2062
  220MOL0     H29649   0.905   3.151   8.103 -0.4814 -0.4001  1.2506
  220MOL0     H29650   0.920   2.982   8.148 -0.9507 -0.8134  0.5390
  220MOL0     H29651   0.700   2.821   8.091 -2.0276  0.3387  1.0488
  220MOL0     H29652   0.327   2.919   8.030 -0.6844 -1.4727  1.1835
  220MOL0     H29653   0.400   2.836   7.902  0.8875 -0.2474  0.2516
  220MOL0     H29654   0.376   2.752   8.189  0.7180  0.0747  0.4103
  220MOL0     H29655   0.488   2.653   8.087  1.7321  2.0620  1.7496
  220MOL0     H29656   0.314   2.586   7.939  2.1865 -0.0839 -0.2227
  220MOL0     H29657   0.201   2.715   8.001  1.8751  0.8614 -1.0643
  220MOL0     H29658   0.182   2.585   8.214  0.6943  0.7119 -0.3942
  220MOL0     H29659   0.298   2.472   8.144 -0.9537 -2.3076 -2.8590
  220MOL0     H29660   0.002   2.692   8.144  0.8760 -0.4197 -0.2896
  220MOL0     H29661  -0.344   2.780   8.179 -1.0886 -1.7510 -1.5737
  220MOL0     H29662  -0.181   2.848   8.178  0.9946  0.1110 -2.1194
  220MOL0     H29663  -0.282   2.871   8.032 -0.8335  0.7508  0.3170
  220MOL0     H29664  -0.597   2.738   7.760 -0.8747  0.4669 -0.5606
  220MOL0     H29665  -0.842   2.778   7.711 -0.8462  1.7988  1.0091
  220MOL0     H29666  -1.066   2.903   8.047  0.8417  0.4036  0.4514
  220MOL0     H29667  -1.017   2.997   7.916 -0.6024  0.7157  1.2595
  220MOL0     H29668  -1.261   3.001   7.979 -2.2033 -0.7656 -0.4391
  220MOL0     H29669  -1.224   2.977   7.809  1.3132 -2.9138 -0.8319
  220MOL0     H29670  -1.285   2.750   7.801 -5.9920  1.1989 -2.0796
  220MOL0     H29671  -1.410   2.831   7.887 -0.4171 -1.3176 -1.0151
  220MOL0     H29672  -1.293   2.599   7.976 -3.5003  0.5731 -0.2133
  220MOL0     H29673  -1.194   2.728   8.055  0.9048 -2.1102 -1.5486
  220MOL0     H29674  -1.492   2.701   8.056  0.6792 -1.5720  0.8016
  220MOL0     H29675  -1.392   2.816   8.155  0.9680  0.0407 -1.2289
  220MOL0     H29676  -1.437   2.648   8.313  0.4038  1.3584  0.2348
  220MOL0     H29677  -1.426   2.520   8.195 -1.6884  1.4724 -2.4446
  220MOL0     H29678  -1.181   2.689   8.282  0.0604  0.4704  0.2670
  220MOL0     H29679  -1.184   2.535   8.181  1.6961  1.6437  1.0625
  220MOL0     H29680  -1.244   2.396   8.362 -1.1259  0.9450 -1.2320
  220MOL0     H29681  -1.257   2.538   8.474  2.8216  2.4776  0.0153
  220MOL0     H29682  -0.942   2.719   8.119  1.5008  0.5187  2.0494
  220MOL0     H29683  -0.720   2.675   8.184 -0.4549  0.8324  0.0556
  220MOL0     H29684  -0.286   2.363   7.913  1.2105 -0.7435 -0.9088
  220MOL0     H29685  -0.043   2.323   7.948  0.1632  1.3247 -1.5776
  220MOL0     H29686   1.902   3.161   7.580 -2.9242  1.0209 -0.9917
  220MOL0     H29687   2.057   3.107   7.411  1.6839 -0.2182  1.8075
  220MOL0     H29688   2.374   2.941   7.253 -0.8497 -0.5001  2.1375
  220MOL0     H29689   2.576   2.924   7.120  2.7889 -1.8586 -2.6625
  220MOL0     H29690   2.749   2.906   7.000 -1.2881  0.1405  2.8872
  220MOL0     H29691   2.783   2.770   7.105 -1.7099 -1.9708 -0.6105
  220MOL0     H29692   2.925   2.669   6.934  2.8702  2.0647  2.7436
  220MOL0     H29693   2.954   2.829   6.951  0.9069 -0.4437  1.0919
  220MOL0     H29694   2.769   2.880   6.756 -0.2517  0.5511 -3.9589
  220MOL0     H29695   2.800   2.703   6.727  1.6463  0.3759  0.5354
  220MOL0     H29696   3.006   2.931   6.742  1.3327  1.0766 -3.1673
  220MOL0     H29697   2.953   2.868   6.595 -0.2461 -1.4293 -0.1738
  220MOL0     H29698   3.233   2.573   6.668  1.8625  1.5564  2.9107
  220MOL0     H29699   2.416   2.592   6.912  2.4519  0.3444 -0.0861
  220MOL0     H29700   2.221   2.598   7.048  1.0401 -1.3988  1.2839
  221MOL0     O29701   0.364  10.714   7.460  0.9954 -0.3132 -0.5781
  221MOL0     C29702   0.453  10.780   7.400 -0.1707 -0.0621 -0.1498
  221MOL0     O29703   0.427  10.866   7.299 -0.3727 -0.8008 -0.8008
  221MOL0     C29704   0.301  10.914   7.274  0.2677  0.5604 -0.2793
  221MOL0     C29705   0.203  10.932   7.374 -0.4333  0.2795  0.0223
  221MOL0     C29706   0.075  10.980   7.351  0.1375 -0.1443 -0.0132
  221MOL0     C29707   0.046  11.010   7.218 -0.6542  0.7595  0.4513
  221MOL0     O29708  -0.054  11.093   7.184 -0.4611  0.1182  0.3104
  221MOL0     C29709  -0.146  11.143   7.278  0.8965  0.6262  0.3960
  221MOL0     C29710  -0.295  11.145   7.224 -1.4826 -0.5064  0.1116
  221MOL0     C29711  -0.332  11.250   7.123 -0.2575 -0.0962  0.8513
  221MOL0     C29712  -0.442  11.211   7.025  0.1926 -0.0072  0.0410
  221MOL0     C29713  -0.510  11.345   6.964  0.1748 -0.3699 -0.4473
  221MOL0     C29714  -0.615  11.312   6.849  0.0633 -0.5368 -0.9712
  221MOL0     C29715  -0.654  11.433   6.765 -0.4951  0.1238  0.3938
  221MOL0     C29716  -0.770  11.401   6.667 -0.4565  0.4639 -0.0383
  221MOL0     N29717  -0.813  11.521   6.605 -0.3715 -0.0829 -0.3567
  221MOL0     C29718  -0.919  11.608   6.639 -0.3859 -0.2873 -0.9835
  221MOL0     C29719  -0.941  11.683   6.532 -0.0054  0.4499  0.9304
  221MOL0     C29720  -1.042  11.796   6.528 -0.4856 -0.0626  0.8998
  221MOL0     C29721  -1.179  11.753   6.469  0.0409 -0.9447  0.0741
  221MOL0     C29722  -1.268  11.877   6.490  0.7537  0.9353  0.6608
  221MOL0     C29723  -1.418  11.846   6.451  0.0490 -0.2586 -0.4969
  221MOL0     O29724  -1.463  11.751   6.549  0.2459 -0.0756  0.0385
  221MOL0     C29725  -1.586  11.748   6.600  0.5195 -0.3869  0.1531
  221MOL0     C29726  -1.684  11.848   6.574 -0.0587 -0.5008  0.6089
  221MOL0     C29727  -1.809  11.837   6.638 -0.2410 -0.2729 -0.4131
  221MOL0     C29728  -1.914  11.942   6.599 -1.1426 -0.0090  0.7901
  221MOL0     C29729  -1.831  11.745   6.748  0.3401  0.0426  0.8612
  221MOL0     C29730  -1.949  11.749   6.832  0.7600  0.0852 -0.0724
  221MOL0     O29731  -1.932  11.702   6.956 -0.4288  0.5514 -0.3033
  221MOL0     C29732  -2.039  11.714   7.047 -0.9380 -0.1367 -0.0417
  221MOL0     C29733  -2.092  11.605   7.112 -0.3341 -0.5254 -0.5998
  221MOL0     C29734  -2.178  11.617   7.223  0.4138  0.5793 -0.7181
  221MOL0     C29735  -2.216  11.745   7.271 -0.4769 -0.1182  0.7664
  221MOL0     O29736  -2.279  11.766   7.398 -0.0079 -0.3985  0.0685
  221MOL0     C29737  -2.199  11.711   7.507 -0.8382  0.6973  0.5480
  221MOL0     C29738  -2.282  11.676   7.627  0.2243  1.2143 -1.1039
  221MOL0     C29739  -2.203  11.634   7.750 -0.0793  1.2741  0.4984
  221MOL0     C29740  -2.158  11.492   7.723 -0.4223  0.5581 -0.2152
  221MOL0     C29741  -2.060  11.414   7.823  0.1187  0.2021 -0.2197
  221MOL0     C29742  -2.072  11.484   7.963  0.3534  0.7356  0.4612
  221MOL0     C29743  -1.991  11.418   8.063  0.0769  0.8413 -0.1807
  221MOL0     C29744  -1.998  11.493   8.195  1.1344  0.0142 -0.1641
  221MOL0    Cl29745  -1.896  11.415   8.308 -0.1304  0.1498 -0.0366
  221MOL0     C29746  -2.158  11.858   7.212 -0.6706  0.3241 -0.4009
  221MOL0     C29747  -2.076  11.838   7.101 -0.1325 -1.2522 -0.2427
  221MOL0     O29748  -2.057  11.778   6.788 -0.0868  0.3967 -0.5197
  221MOL0     C29749  -1.722  11.654   6.776 -0.1201 -0.2318  0.4621
  221MOL0     C29750  -1.606  11.657   6.701  0.1009 -0.6930 -0.2617
  221MOL0     N29751  -0.868  11.641   6.432  0.1044 -0.4312  0.3661
  221MOL0     N29752  -0.790  11.548   6.472 -0.0520  0.7768  0.3412
  221MOL0     C29753   0.145  10.988   7.112  0.6958 -0.7243 -0.4199
  221MOL0     C29754   0.275  10.945   7.146 -0.0624 -0.4197 -0.0514
  221MOL0     C29755   0.599  10.751   7.421  0.3694 -0.3809  0.2682
  221MOL0     C29756   0.630  10.666   7.525  0.0632  0.1731  0.4789
  221MOL0     C29757   0.766  10.631   7.550  0.5499  1.1734 -0.4332
  221MOL0     C29758   0.867  10.686   7.468 -1.0326 -0.1757  0.4566
  221MOL0     O29759   0.995  10.636   7.484 -0.5059 -0.0431  0.2363
  221MOL0     C29760   1.077  10.720   7.565  0.2585 -0.9701  0.2325
  221MOL0     C29761   1.225  10.690   7.547  0.5238 -0.2207 -0.4067
  221MOL0     C29762   1.284  10.733   7.414  0.2556 -0.0335 -0.8315
  221MOL0     C29763   1.439  10.756   7.429 -0.2503 -0.2850 -0.0912
  221MOL0     C29764   1.502  10.697   7.312 -0.5476  0.0380 -0.3971
  221MOL0     C29765   1.545  10.644   7.211  0.5444 -0.1408 -0.3685
  221MOL0     C29766   0.833  10.784   7.372 -0.3661  0.7210 -0.3458
  221MOL0     C29767   0.703  10.808   7.340  0.7289  0.3491  1.1445
  221MOL0     H29768   0.230  10.889   7.470 -6.3346 -1.6959  1.2196
  221MOL0     H29769   0.007  11.003   7.432 -2.6989 -1.1524 -1.9843
  221MOL0     H29770  -0.143  11.093   7.375  1.2658 -0.8607 -0.3595
  221MOL0     H29771  -0.124  11.246   7.309 -1.3925  0.7634  1.8365
  221MOL0     H29772  -0.304  11.044   7.183  1.7128 -1.1715  0.7732
  221MOL0     H29773  -0.365  11.152   7.308  0.5981  1.2238  1.8084
  221MOL0     H29774  -0.367  11.342   7.171  0.2862  0.3398  0.4156
  221MOL0     H29775  -0.240  11.271   7.067 -0.3643 -1.3469  0.1766
  221MOL0     H29776  -0.404  11.159   6.937  0.4341  1.9882 -1.1041
  221MOL0     H29777  -0.513  11.143   7.073 -1.4105  1.7734  0.2953
  221MOL0     H29778  -0.564  11.407   7.037 -0.4217 -0.5299 -0.7437
  221MOL0     H29779  -0.432  11.402   6.913  0.5535 -0.0655  0.4431
  221MOL0     H29780  -0.570  11.243   6.778 -1.8004  0.2084 -2.9978
  221MOL0     H29781  -0.703  11.264   6.893 -1.2263  3.7606  1.7709
  221MOL0     H29782  -0.690  11.514   6.829 -2.6224 -0.5354  0.1078
  221MOL0     H29783  -0.568  11.462   6.704 -2.2311  0.7458 -1.8762
  221MOL0     H29784  -0.856  11.351   6.713 -2.5328  1.6904 -2.3355
  221MOL0     H29785  -0.737  11.330   6.591  2.0557 -1.1060  2.3377
  221MOL0     H29786  -0.961  11.612   6.739  0.6347 -0.6821 -0.5263
  221MOL0     H29787  -1.054  11.817   6.634 -1.8317  2.1321  0.3714
  221MOL0     H29788  -1.025  11.892   6.478 -2.0262 -0.4111 -0.4048
  221MOL0     H29789  -1.221  11.666   6.521 -0.3475  0.0229  1.4511
  221MOL0     H29790  -1.163  11.722   6.365 -2.1966 -1.1553 -0.2555
  221MOL0     H29791  -1.224  11.955   6.426 -3.0259  0.0350 -3.5926
  221MOL0     H29792  -1.266  11.913   6.593  2.1373 -2.0922  1.7950
  221MOL0     H29793  -1.425  11.802   6.351  0.5758 -0.1103 -0.6036
  221MOL0     H29794  -1.469  11.943   6.449 -0.7314 -0.5924  1.2217
  221MOL0     H29795  -1.692  11.905   6.481 -0.0944 -0.9839  0.3163
  221MOL0     H29796  -1.975  11.897   6.520 -2.1371  0.9008  1.0197
  221MOL0     H29797  -1.979  11.985   6.675  0.5361  1.9808  1.1699
  221MOL0     H29798  -1.848  12.017   6.554  1.8869 -1.7532  1.9741
  221MOL0     H29799  -2.051  11.509   7.082 -4.6593 -2.7144 -0.2595
  221MOL0     H29800  -2.222  11.534   7.276  2.7406 -0.0913  0.3188
  221MOL0     H29801  -2.147  11.618   7.481 -0.2341  0.9919  0.6670
  221MOL0     H29802  -2.122  11.782   7.539  1.9223 -1.7979 -0.0752
  221MOL0     H29803  -2.356  11.748   7.661  0.6665  0.4380  1.7774
  221MOL0     H29804  -2.356  11.604   7.590 -2.3589  1.7372  2.5296
  221MOL0     H29805  -2.269  11.638   7.837  1.3192  1.1052  1.6185
  221MOL0     H29806  -2.116  11.699   7.765  3.3739 -2.5535 -0.9132
  221MOL0     H29807  -2.251  11.443   7.690 -0.2861  1.1165 -1.5082
  221MOL0     H29808  -2.090  11.492   7.637  1.0148 -4.1231  0.6452
  221MOL0     H29809  -1.955  11.419   7.794  1.2088 -1.0292  3.0306
  221MOL0     H29810  -2.087  11.308   7.825  0.3958  0.0726 -2.0007
  221MOL0     H29811  -2.041  11.587   7.945 -1.7813  1.6999  1.9256
  221MOL0     H29812  -2.179  11.490   7.986  0.8620 -0.6039  3.6097
  221MOL0     H29813  -1.885  11.422   8.036  0.1896 -2.2990 -0.5725
  221MOL0     H29814  -2.016  11.312   8.075 -1.3472  1.0277 -1.3052
  221MOL0     H29815  -2.094  11.524   8.238  2.0487  1.7096  0.7459
  221MOL0     H29816  -1.958  11.593   8.178  2.0927 -0.1670  0.8978
  221MOL0     H29817  -2.182  11.954   7.257  0.5854 -0.2568  1.6381
  221MOL0     H29818  -2.043  11.932   7.058 -3.4431 -0.5358 -1.4876
  221MOL0     H29819  -1.733  11.589   6.862  0.1602  1.0295  1.4941
  221MOL0     H29820  -1.532  11.578   6.711 -0.0784 -0.5330  3.6242
  221MOL0     H29821   0.115  11.031   7.017  1.5676  1.7085  0.3262
  221MOL0     H29822   0.362  10.935   7.082 -0.1015  2.9779 -0.8244
  221MOL0     H29823   0.552  10.616   7.582 -1.5567 -0.0993 -1.8282
  221MOL0     H29824   0.792  10.562   7.630 -0.4183 -1.9845 -2.6643
  221MOL0     H29825   1.063  10.828   7.551  1.9180 -1.0193 -2.5032
  221MOL0     H29826   1.051  10.699   7.669  1.9535 -0.6430  0.7497
  221MOL0     H29827   1.226  10.582   7.564 -3.3291 -0.1136  1.6264
  221MOL0     H29828   1.281  10.735   7.630  0.9690 -1.4599 -0.0239
  221MOL0     H29829   1.232  10.828   7.398  2.1600  2.1278  3.9889
  221MOL0     H29830   1.261  10.654   7.342  0.1898 -0.3233 -0.4967
  221MOL0     H29831   1.483  10.699   7.511 -0.9079 -0.6163  0.0330
  221MOL0     H29832   1.466  10.862   7.437 -0.7999  0.0554 -2.0631
  221MOL0     H29833   1.581  10.609   7.116 -0.3670  0.4300 -0.9548
  221MOL0     H29834   0.918  10.827   7.319 -0.5946 -1.3638 -2.5717
  221MOL0     H29835   0.692  10.880   7.260 -2.1387  0.2039  1.2968
  222MOL0     O29836   4.884   3.371   0.757 -0.1844  0.3059 -0.1005
  222MOL0     C29837   4.981   3.370   0.680 -0.6399  0.9687  0.2684
  222MOL0     O29838   4.978   3.363   0.541  0.0374 -0.0308  0.0122
  222MOL0     C29839   4.860   3.379   0.473  0.2661  0.1499 -0.7599
  222MOL0     C29840   4.731   3.335   0.515  0.7437 -0.4485 -0.0072
  222MOL0     C29841   4.621   3.362   0.434  0.1086 -0.8640 -1.2073
  222MOL0     C29842   4.631   3.427   0.309  0.1458 -0.3567  0.1002
  222MOL0     O29843   4.527   3.451   0.232  0.6994 -0.4939 -0.5423
  222MOL0     C29844   4.509   3.592   0.199  0.0050  0.7738 -0.3808
  222MOL0     C29845   4.427   3.603   0.068 -0.7818 -0.9673 -0.4574
  222MOL0     C29846   4.288   3.534   0.081 -0.3982 -0.1708  0.3055
  222MOL0     C29847   4.204   3.541  -0.049  0.3253  0.3135  1.1014
  222MOL0     C29848   4.238   3.422  -0.141 -0.4801 -0.5287 -0.0221
  222MOL0     C29849   4.159   3.293  -0.125 -0.4162  0.2679 -0.3230
  222MOL0     C29850   4.237   3.186  -0.207  1.1286 -0.9571  0.0059
  222MOL0     C29851   4.159   3.050  -0.206  0.3053  0.0270 -0.5749
  222MOL0     N29852   4.044   3.027  -0.296  0.1698 -0.5733 -0.6337
  222MOL0     C29853   4.029   3.087  -0.417  0.6551 -0.3268  0.0258
  222MOL0     C29854   3.922   3.020  -0.468  0.1525 -0.2996 -0.6260
  222MOL0     C29855   3.865   3.041  -0.605 -0.2488  0.3005 -0.6270
  222MOL0     C29856   3.712   3.015  -0.604 -0.5599 -0.1477  0.1921
  222MOL0     C29857   3.639   3.144  -0.551  0.4478 -0.7621 -0.2177
  222MOL0     C29858   3.495   3.128  -0.561  0.1145  0.3625 -0.0644
  222MOL0     O29859   3.464   3.108  -0.707 -0.9822 -0.7188  0.2519
  222MOL0     C29860   3.326   3.116  -0.728 -0.0981  0.3870 -0.2580
  222MOL0     C29861   3.249   2.999  -0.707  0.5790  0.9449 -0.3795
  222MOL0     C29862   3.110   3.009  -0.730 -0.4054  0.6620 -0.1591
  222MOL0     C29863   3.044   2.878  -0.715 -0.4901  0.0765 -0.1555
  222MOL0     C29864   3.046   3.129  -0.772 -0.5276  0.1993  0.4627
  222MOL0     C29865   2.904   3.145  -0.806  0.4801 -0.7566 -0.0778
  222MOL0     O29866   2.853   3.262  -0.838  0.6871  0.0274 -0.0338
  222MOL0     C29867   2.721   3.263  -0.875 -0.3566 -0.0150 -0.5427
  222MOL0     C29868   2.623   3.259  -0.777  0.7502  0.1949  0.9312
  222MOL0     C29869   2.489   3.272  -0.814  0.6582 -0.4521 -0.4505
  222MOL0     C29870   2.457   3.284  -0.954  0.8122  0.0804 -0.2958
  222MOL0     O29871   2.326   3.285  -1.004  0.7971  0.7349  0.1548
  222MOL0     C29872   2.229   3.346  -0.931  0.5203 -0.4715  0.5294
  222MOL0     C29873   2.233   3.505  -0.936 -0.1395  1.3990  0.5712
  222MOL0     C29874   2.125   3.564  -0.848  0.3068 -0.3801  0.8572
  222MOL0     C29875   2.118   3.710  -0.869 -0.2534 -0.0146  0.0270
  222MOL0     C29876   1.991   3.768  -0.805  0.4311 -1.0173  0.2258
  222MOL0     C29877   1.966   3.919  -0.839  0.3832 -0.8828 -0.5326
  222MOL0     C29878   1.860   3.991  -0.761  0.4767  0.5625 -0.6349
  222MOL0     C29879   1.729   3.922  -0.766 -0.1255 -1.2268  0.1526
  222MOL0    Cl29880   1.613   3.994  -0.657 -0.0471 -0.1082  0.0457
  222MOL0     C29881   2.555   3.273  -1.046 -0.5409 -0.4923  0.2264
  222MOL0     C29882   2.685   3.259  -1.010  0.2129  0.2291 -0.5667
  222MOL0     O29883   2.839   3.045  -0.782 -0.1080 -0.3806  0.0687
  222MOL0     C29884   3.131   3.240  -0.776  0.4786 -0.6299  0.9689
  222MOL0     C29885   3.268   3.234  -0.758  0.1784 -0.9351 -0.1057
  222MOL0     N29886   3.872   2.924  -0.379  0.6359  0.3543 -0.1925
  222MOL0     N29887   3.951   2.925  -0.278  0.4680  0.2688  1.2867
  222MOL0     C29888   4.764   3.452   0.263 -0.9237 -0.2519 -0.2516
  222MOL0     C29889   4.876   3.431   0.346 -0.7380 -0.3789  0.7325
  222MOL0     C29890   5.128   3.354   0.734  0.1188  0.5250  0.4376
  222MOL0     C29891   5.149   3.310   0.876  1.1276  0.0120  0.4369
  222MOL0     C29892   5.274   3.303   0.930  1.0046 -0.8054 -0.5074
  222MOL0     C29893   5.390   3.329   0.851 -0.4520 -0.1895  0.9669
  222MOL0     O29894   5.519   3.320   0.892 -0.1424  0.1021  0.0962
  222MOL0     C29895   5.546   3.231   1.011 -0.6287 -0.4297  0.5905
  222MOL0     C29896   5.700   3.215   1.024  0.7060 -0.5913  0.0296
  222MOL0     C29897   5.753   3.352   1.077  1.0076 -0.6703 -0.3255
  222MOL0     C29898   5.898   3.347   1.121  0.1898  0.2105 -0.3872
  222MOL0     C29899   5.996   3.384   1.021 -0.0428 -0.0107 -0.5882
  222MOL0     C29900   6.083   3.420   0.947  0.2249 -0.2816  1.3282
  222MOL0     C29901   5.367   3.365   0.718 -0.1851  1.1889 -0.8736
  222MOL0     C29902   5.241   3.374   0.665  0.2937 -0.1614  0.0089
  222MOL0     H29903   4.717   3.284   0.610  1.4298 -1.3793 -0.3918
  222MOL0     H29904   4.521   3.337   0.469 -0.3758 -0.9226 -2.5557
  222MOL0     H29905   4.466   3.642   0.287 -0.8330 -2.0314  0.9298
  222MOL0     H29906   4.603   3.645   0.180  2.0347 -1.5899  2.2080
  222MOL0     H29907   4.428   3.703   0.025  0.7960 -1.7296 -2.3378
  222MOL0     H29908   4.484   3.544  -0.004  1.3447 -1.6820  1.6712
  222MOL0     H29909   4.304   3.430   0.112  1.6541  0.7058  2.4671
  222MOL0     H29910   4.243   3.578   0.171  0.6143 -0.4437  0.9653
  222MOL0     H29911   4.097   3.527  -0.028  0.5026 -2.3735  0.6079
  222MOL0     H29912   4.217   3.638  -0.096  0.0446 -0.5673 -0.8806
  222MOL0     H29913   4.212   3.462  -0.240  0.3178 -0.4680 -0.2107
  222MOL0     H29914   4.344   3.402  -0.128 -0.3028 -0.7489 -1.6464
  222MOL0     H29915   4.178   3.248  -0.028  2.4596  0.5422 -0.6776
  222MOL0     H29916   4.050   3.302  -0.135 -0.9580 -1.8428  2.5590
  222MOL0     H29917   4.254   3.223  -0.309  0.5325 -1.6262 -0.3427
  222MOL0     H29918   4.336   3.179  -0.163  0.3133  0.1643  2.1883
  222MOL0     H29919   4.120   3.037  -0.104 -1.2391  0.6579 -1.0540
  222MOL0     H29920   4.227   2.968  -0.232 -1.5978 -1.2552 -1.7862
  222MOL0     H29921   4.075   3.176  -0.459 -1.7942  1.4881  0.9522
  222MOL0     H29922   3.880   3.145  -0.632 -1.6472  0.7854  0.3548
  222MOL0     H29923   3.914   2.976  -0.678  0.9587  1.2241 -0.6524
  222MOL0     H29924   3.682   2.925  -0.551  0.0071 -1.1854 -1.1982
  222MOL0     H29925   3.685   2.986  -0.705  1.1436 -1.7160  0.1208
  222MOL0     H29926   3.673   3.231  -0.607  0.1036  0.2886  1.1555
  222MOL0     H29927   3.666   3.170  -0.449 -0.2418 -0.6447 -0.0609
  222MOL0     H29928   3.439   3.213  -0.523 -1.4281 -1.1196  1.1754
  222MOL0     H29929   3.451   3.044  -0.506 -0.7888 -0.0476 -1.3613
  222MOL0     H29930   3.294   2.913  -0.658 -1.3530  1.9384  3.5209
  222MOL0     H29931   3.000   2.834  -0.804 -2.5828  0.2782  0.7252
  222MOL0     H29932   3.110   2.799  -0.675 -1.9786  0.5960  3.8328
  222MOL0     H29933   2.961   2.881  -0.644  1.4826 -0.6904  2.3690
  222MOL0     H29934   2.644   3.249  -0.671 -0.0265 -0.6696  1.0171
  222MOL0     H29935   2.410   3.269  -0.740  1.2928  0.3883  0.2897
  222MOL0     H29936   2.127   3.328  -0.967  0.3905  1.3531 -0.1052
  222MOL0     H29937   2.228   3.291  -0.836 -1.0668 -2.0288 -0.3217
  222MOL0     H29938   2.330   3.534  -0.896 -0.0252  1.5324  0.1922
  222MOL0     H29939   2.224   3.555  -1.032 -0.9009  3.3360  1.6021
  222MOL0     H29940   2.137   3.542  -0.741 -1.2182 -2.0487  0.7382
  222MOL0     H29941   2.029   3.525  -0.882  0.5794  0.5378 -1.0607
  222MOL0     H29942   2.203   3.760  -0.822  0.3063 -0.0096 -0.9556
  222MOL0     H29943   2.124   3.722  -0.977 -0.8205 -2.9417 -0.4203
  222MOL0     H29944   1.995   3.764  -0.696  0.0823  0.8297  0.3434
  222MOL0     H29945   1.905   3.706  -0.832 -0.3754 -0.7320  1.9586
  222MOL0     H29946   2.057   3.976  -0.822  0.4711 -1.4830  1.1015
  222MOL0     H29947   1.930   3.927  -0.943  2.7250 -0.5525 -1.3727
  222MOL0     H29948   1.844   4.095  -0.791 -3.8598  0.5687  1.0195
  222MOL0     H29949   1.898   3.985  -0.658 -2.7745 -4.0272  0.5812
  222MOL0     H29950   1.737   3.818  -0.733 -0.1422 -1.4297 -0.4781
  222MOL0     H29951   1.685   3.931  -0.865 -0.4165 -0.5221  0.3399
  222MOL0     H29952   2.522   3.253  -1.148 -1.0505  1.1112  0.0501
  222MOL0     H29953   2.769   3.250  -1.079 -0.3579  0.7493 -1.3457
  222MOL0     H29954   3.077   3.334  -0.779  0.9883 -0.2520  2.5818
  222MOL0     H29955   3.332   3.321  -0.750 -0.0902 -0.8243  1.0698
  222MOL0     H29956   4.787   3.494   0.166 -0.1806 -1.5467 -0.6678
  222MOL0     H29957   4.982   3.444   0.326 -0.5009 -1.4191  1.2990
  222MOL0     H29958   5.063   3.278   0.934 -1.5721  0.8262 -2.8282
  222MOL0     H29959   5.291   3.280   1.035  0.9409 -0.3582 -0.3992
  222MOL0     H29960   5.506   3.265   1.107 -0.9816 -2.0760  1.0575
  222MOL0     H29961   5.505   3.133   0.988  1.7204 -1.0106 -1.5103
  222MOL0     H29962   5.732   3.179   0.926 -0.7583 -1.8806 -0.0111
  222MOL0     H29963   5.725   3.141   1.101 -1.4621  0.6526  2.0743
  222MOL0     H29964   5.693   3.412   1.145  0.9355 -0.0064 -0.9584
  222MOL0     H29965   5.743   3.416   0.988 -1.0124  0.8559  0.9103
  222MOL0     H29966   5.915   3.245   1.158 -1.3984  0.6015  1.6118
  222MOL0     H29967   5.916   3.416   1.204 -0.3359 -0.8910  0.6794
  222MOL0     H29968   6.167   3.435   0.883  2.1317  1.4999  4.0269
  222MOL0     H29969   5.453   3.385   0.654 -0.4389 -1.7678 -2.3258
  222MOL0     H29970   5.226   3.401   0.560  2.2268  2.6773  0.3527
  223MOL0     O29971  10.241   7.703   7.358 -0.0754  0.1287 -0.5861
  223MOL0     C29972  10.158   7.718   7.452 -0.8958 -0.0133  0.2696
  223MOL0     O29973  10.189   7.750   7.582 -0.0036 -0.1800 -0.5069
  223MOL0     C29974  10.321   7.749   7.620  0.3652  0.0238  1.1040
  223MOL0     C29975  10.359   7.833   7.722  0.1228  1.1630  0.4939
  223MOL0     C29976  10.489   7.832   7.770 -0.8438 -0.1247  0.3895
  223MOL0     C29977  10.589   7.741   7.707  0.1759 -0.4922 -0.4564
  223MOL0     O29978  10.720   7.741   7.753 -0.4495 -0.4011 -0.5956
  223MOL0     C29979  10.830   7.679   7.679  0.7737  0.2671 -0.5869
  223MOL0     C29980  10.859   7.758   7.552 -0.7399  0.5861 -0.5401
  223MOL0     C29981  10.999   7.796   7.526 -0.3457  0.4793 -0.1063
  223MOL0     C29982  11.097   7.674   7.508 -0.9703  0.3066 -0.6319
  223MOL0     C29983  11.241   7.719   7.481  0.0644 -0.4649 -0.2599
  223MOL0     C29984  11.335   7.602   7.501 -0.1559 -0.1841 -0.5823
  223MOL0     C29985  11.473   7.646   7.440  0.2881  0.0291 -0.6267
  223MOL0     C29986  11.535   7.769   7.496 -0.3810 -0.2138  0.0404
  223MOL0     N29987  11.680   7.774   7.455  0.9725  0.4905 -0.2039
  223MOL0     C29988  11.767   7.690   7.509 -0.4619 -0.0353  0.8619
  223MOL0     C29989  11.878   7.710   7.437  0.1113  0.2487 -0.4210
  223MOL0     C29990  11.995   7.627   7.468 -0.6423 -0.3631  0.3929
  223MOL0     C29991  12.046   7.540   7.353  0.4774  0.1747  0.2608
  223MOL0     C29992  12.073   7.617   7.220 -0.4717 -0.1633  0.7211
  223MOL0     C29993  12.138   7.535   7.113  0.5522 -1.0271 -0.1321
  223MOL0     O29994  12.273   7.502   7.147 -0.1581 -0.0539 -0.3150
  223MOL0     C29995  12.352   7.430   7.057 -0.3735 -0.1713 -0.1433
  223MOL0     C29996  12.479   7.407   7.096 -0.3728  0.2931 -0.1535
  223MOL0     C29997  12.576   7.327   7.020 -0.1871  0.4778  0.3030
  223MOL0     C29998  12.709   7.305   7.083 -0.3490 -0.7387 -0.7944
  223MOL0     C29999  12.541   7.279   6.892 -0.8323  0.7534 -0.7734
  223MOL0     C30000  12.636   7.207   6.801  0.1920 -0.2280  0.4523
  223MOL0     O30001  12.570   7.143   6.704  0.1348 -0.0434  0.5289
  223MOL0     C30002  12.617   7.020   6.669  0.6230 -0.0182 -0.3912
  223MOL0     C30003  12.671   6.927   6.768 -0.2643 -0.5256  0.0119
  223MOL0     C30004  12.732   6.804   6.740 -0.4774  0.5430  0.2675
  223MOL0     C30005  12.742   6.762   6.608  0.3950  0.1056 -0.9818
  223MOL0     O30006  12.782   6.639   6.586  0.1122 -0.2222  0.0329
  223MOL0     C30007  12.858   6.618   6.471 -0.3599  0.4932 -0.8158
  223MOL0     C30008  12.759   6.552   6.376  0.0897 -0.0660  0.7610
  223MOL0     C30009  12.831   6.505   6.250 -0.2635 -0.1414 -0.6106
  223MOL0     C30010  12.908   6.378   6.269 -0.6783  0.3385 -0.5141
  223MOL0     C30011  12.955   6.340   6.129  0.8757  0.3592 -0.1237
  223MOL0     C30012  13.047   6.215   6.117 -0.0707  0.5556 -0.9506
  223MOL0     C30013  13.031   6.146   5.986 -1.3531  0.2958  0.0402
  223MOL0     C30014  13.136   6.029   5.993  0.1129 -0.1082 -0.4853
  223MOL0    Cl30015  13.298   6.110   5.978  0.1864  0.3164 -0.1621
  223MOL0     C30016  12.701   6.860   6.506 -0.6196  0.5096 -0.8012
  223MOL0     C30017  12.639   6.985   6.540 -0.8179 -0.1733  0.7579
  223MOL0     O30018  12.755   7.238   6.794 -0.3352  0.3460  0.2723
  223MOL0     C30019  12.395   7.287   6.866 -0.2423 -0.9182  0.1760
  223MOL0     C30020  12.306   7.367   6.937 -0.5561  0.7347 -0.1290
  223MOL0     N30021  11.848   7.805   7.334  0.5066  1.2268  0.0936
  223MOL0     N30022  11.724   7.839   7.350 -0.3817 -0.4600  0.4851
  223MOL0     C30023  10.545   7.653   7.618 -0.2731  0.4234 -0.2107
  223MOL0     C30024  10.416   7.655   7.577 -0.8675  0.4471  0.0952
  223MOL0     C30025  10.018   7.697   7.412  0.9877 -0.0184  0.7588
  223MOL0     C30026   9.920   7.683   7.517 -0.0362  0.3917 -0.0595
  223MOL0     C30027   9.788   7.664   7.488  0.4661  0.6839  0.3364
  223MOL0     C30028   9.744   7.662   7.352 -0.0142  0.2483  0.0266
  223MOL0     O30029   9.610   7.637   7.317 -0.5556 -0.4022  0.6108
  223MOL0     C30030   9.528   7.752   7.342  0.2486  0.1307 -0.2992
  223MOL0     C30031   9.483   7.811   7.205  0.3387  0.6591 -0.5561
  223MOL0     C30032   9.409   7.705   7.115  0.1426  1.4653 -0.7121
  223MOL0     C30033   9.282   7.635   7.180 -0.3221 -0.5454 -0.6549
  223MOL0     C30034   9.212   7.555   7.074 -0.2064 -0.1076 -0.6995
  223MOL0     C30035   9.166   7.478   6.991 -0.4754 -0.7093  0.6004
  223MOL0     C30036   9.838   7.679   7.245 -0.0142 -0.3725 -0.5424
  223MOL0     C30037   9.972   7.696   7.273 -0.4603  0.2746 -0.4040
  223MOL0     H30038  10.285   7.895   7.771 -0.3336  0.9159  0.1320
  223MOL0     H30039  10.524   7.892   7.853 -1.2828 -0.3985  0.7729
  223MOL0     H30040  10.924   7.691   7.733  0.6638 -0.8598 -0.1245
  223MOL0     H30041  10.809   7.573   7.663  0.8939 -0.2574  2.3544
  223MOL0     H30042  10.823   7.707   7.461 -2.3532  1.5770 -0.5082
  223MOL0     H30043  10.803   7.852   7.556  0.4656  1.2689  2.8126
  223MOL0     H30044  11.007   7.847   7.430  0.7191 -1.6876 -1.2468
  223MOL0     H30045  11.042   7.860   7.604  0.9816 -0.2584 -0.1929
  223MOL0     H30046  11.098   7.603   7.591 -2.4249 -0.8258 -1.5325
  223MOL0     H30047  11.070   7.617   7.418 -0.0314 -0.1743 -0.6315
  223MOL0     H30048  11.257   7.751   7.378  2.0743 -0.2950  0.0614
  223MOL0     H30049  11.276   7.797   7.551  1.5198 -1.5358  0.2689
  223MOL0     H30050  11.357   7.580   7.606  0.6778 -1.5350 -1.0118
  223MOL0     H30051  11.297   7.513   7.449 -3.2659  0.9700 -0.4941
  223MOL0     H30052  11.538   7.560   7.457  0.3422  0.2005  0.0733
  223MOL0     H30053  11.465   7.651   7.331 -0.2914 -0.2277 -0.5989
  223MOL0     H30054  11.517   7.764   7.603 -0.3933 -1.1924  0.0004
  223MOL0     H30055  11.489   7.863   7.462 -1.0439 -0.1682  1.0224
  223MOL0     H30056  11.745   7.633   7.598 -1.3511 -1.0162  0.0478
  223MOL0     H30057  12.075   7.700   7.482  1.2682 -1.3853 -3.7498
  223MOL0     H30058  11.971   7.566   7.556  0.9957 -1.1652  0.3053
  223MOL0     H30059  11.967   7.466   7.335  0.9629  0.0150 -1.3610
  223MOL0     H30060  12.135   7.490   7.392  2.0641  1.7204 -1.2215
  223MOL0     H30061  12.149   7.694   7.237 -0.7380  0.0866  0.7722
  223MOL0     H30062  11.978   7.654   7.182 -1.2557  2.9206  4.9806
  223MOL0     H30063  12.133   7.604   7.028  0.5536  4.0953  3.5366
  223MOL0     H30064  12.073   7.449   7.093 -0.7425 -0.2940  0.7757
  223MOL0     H30065  12.508   7.439   7.196  1.8445  0.7613 -0.8874
  223MOL0     H30066  12.752   7.205   7.067  3.6733  0.0785  2.9553
  223MOL0     H30067  12.786   7.378   7.057  3.6388 -2.8122  3.5102
  223MOL0     H30068  12.712   7.303   7.192 -2.0633  1.6432 -0.6405
  223MOL0     H30069  12.667   6.963   6.871 -0.7802 -0.4574 -0.0269
  223MOL0     H30070  12.770   6.739   6.819 -2.1339 -0.4093  0.3272
  223MOL0     H30071  12.897   6.708   6.424 -0.0801  0.9267  0.2111
  223MOL0     H30072  12.946   6.554   6.482  2.4873  4.0817 -0.8838
  223MOL0     H30073  12.714   6.463   6.420  2.0242 -1.0142  0.9233
  223MOL0     H30074  12.683   6.620   6.337  0.0023 -0.0607  0.9392
  223MOL0     H30075  12.898   6.581   6.209 -2.1740  1.2081 -1.3400
  223MOL0     H30076  12.759   6.498   6.168  1.0242 -0.0859 -1.7695
  223MOL0     H30077  12.990   6.397   6.339 -0.7691 -0.4084 -0.1938
  223MOL0     H30078  12.850   6.295   6.309 -2.0532  0.2725 -2.5243
  223MOL0     H30079  13.007   6.423   6.080  0.1195  0.5243 -0.6685
  223MOL0     H30080  12.863   6.332   6.072  1.6729 -3.6041 -1.1421
  223MOL0     H30081  13.150   6.227   6.153  0.1453 -3.4607  0.3013
  223MOL0     H30082  13.005   6.138   6.182 -1.8561  1.1110 -1.4074
  223MOL0     H30083  13.058   6.210   5.901  1.4944 -4.0262 -2.7740
  223MOL0     H30084  12.937   6.092   5.972 -1.7279  1.0623 -0.4397
  223MOL0     H30085  13.119   5.961   5.908 -2.1200  0.4334 -0.5565
  223MOL0     H30086  13.133   5.978   6.089 -3.1560 -0.3137 -0.5789
  223MOL0     H30087  12.716   6.822   6.405 -0.7587 -0.1794 -0.5723
  223MOL0     H30088  12.613   7.045   6.454  0.7318  0.8926  0.9903
  223MOL0     H30089  12.362   7.235   6.777  0.8038  0.7568 -1.2413
  223MOL0     H30090  12.206   7.390   6.903 -0.0782 -0.3937 -2.5128
  223MOL0     H30091  10.613   7.572   7.593  2.5167  1.7701  2.4616
  223MOL0     H30092  10.396   7.588   7.494  1.6785 -1.6937  1.0544
  223MOL0     H30093   9.956   7.668   7.618  2.6596 -0.9142 -1.1116
  223MOL0     H30094   9.709   7.640   7.559 -0.1366  1.1914 -0.1568
  223MOL0     H30095   9.439   7.725   7.399 -1.0514  1.9078 -1.3855
  223MOL0     H30096   9.574   7.826   7.408 -3.2093  1.5774  0.7016
  223MOL0     H30097   9.578   7.830   7.153  1.4610  0.1433  1.2076
  223MOL0     H30098   9.417   7.897   7.215  0.8432  1.0840 -0.8312
  223MOL0     H30099   9.476   7.622   7.091  0.6552  1.6973 -0.1300
  223MOL0     H30100   9.374   7.760   7.028 -0.6111  0.3627 -1.1322
  223MOL0     H30101   9.221   7.710   7.230  0.0262  0.7245 -2.0393
  223MOL0     H30102   9.308   7.574   7.266  0.9989 -0.2761 -0.8408
  223MOL0     H30103   9.128   7.404   6.923  0.2846 -0.3507 -0.2395
  223MOL0     H30104   9.793   7.671   7.147 -0.8538 -5.4585 -0.0311
  223MOL0     H30105  10.041   7.698   7.189 -2.2987 -0.9833 -2.0069
  224MOL0     O30106  10.556   7.294   7.607 -0.1154  0.8879  0.3590
  224MOL0     C30107  10.581   7.266   7.489 -0.7627 -0.7504  0.3543
  224MOL0     O30108  10.485   7.244   7.393  0.7962 -0.5201 -0.1195
  224MOL0     C30109  10.358   7.270   7.416 -0.7527  0.5656 -0.3364
  224MOL0     C30110  10.287   7.223   7.529  0.2764 -0.1318 -0.7630
  224MOL0     C30111  10.160   7.260   7.555 -0.0037 -0.4794 -0.1609
  224MOL0     C30112  10.089   7.310   7.445  0.8505 -0.2559 -0.1048
  224MOL0     O30113   9.953   7.339   7.438  0.0200 -0.5540 -0.3926
  224MOL0     C30114   9.877   7.305   7.558 -0.1981 -0.2980  0.3996
  224MOL0     C30115   9.737   7.289   7.506 -0.2679 -0.7810 -0.0337
  224MOL0     C30116   9.654   7.250   7.632  0.1202  0.6098  0.4375
  224MOL0     C30117   9.587   7.376   7.701  0.4825 -0.0910  0.5196
  224MOL0     C30118   9.493   7.358   7.823 -0.2443  0.0564  0.0512
  224MOL0     C30119   9.493   7.224   7.891 -0.1521 -0.4891 -0.1240
  224MOL0     C30120   9.384   7.213   7.992 -0.3833 -0.8739  0.9244
  224MOL0     C30121   9.376   7.320   8.095 -0.0534  0.2753 -0.2716
  224MOL0     N30122   9.289   7.302   8.217 -0.8876 -0.4667  1.1334
  224MOL0     C30123   9.192   7.210   8.243  0.5710  0.2744  0.2087
  224MOL0     C30124   9.132   7.247   8.361  0.9334  0.3107 -0.7107
  224MOL0     C30125   9.013   7.182   8.432 -0.5849  1.0130 -0.1553
  224MOL0     C30126   8.896   7.195   8.339 -0.1157  1.0815  0.5366
  224MOL0     C30127   8.761   7.169   8.410  0.4951  0.2308  0.1886
  224MOL0     C30128   8.644   7.251   8.363  1.0086  0.5652  0.2792
  224MOL0     O30129   8.618   7.219   8.226 -0.5685  0.3008 -0.2617
  224MOL0     C30130   8.488   7.207   8.203 -0.0289 -0.0270 -0.4607
  224MOL0     C30131   8.440   7.087   8.137 -0.0459 -0.6965  0.5596
  224MOL0     C30132   8.299   7.072   8.116 -0.1165  0.6045 -0.1496
  224MOL0     C30133   8.253   6.951   8.039  0.1559  0.2885  0.7926
  224MOL0     C30134   8.205   7.167   8.160  0.5610 -0.0496  0.0056
  224MOL0     C30135   8.062   7.144   8.143  0.0079 -0.8596 -0.9254
  224MOL0     O30136   8.026   7.120   8.012 -0.2373 -0.3308 -0.0608
  224MOL0     C30137   7.889   7.133   7.983  0.6265 -0.2625  0.1334
  224MOL0     C30138   7.803   7.043   8.039  0.6669 -0.0725  0.0283
  224MOL0     C30139   7.660   7.064   8.034  0.1614 -0.6260  0.8198
  224MOL0     C30140   7.613   7.180   7.964  0.4102  0.1749  0.0031
  224MOL0     O30141   7.476   7.208   7.964 -0.3211  0.0145 -0.2927
  224MOL0     C30142   7.441   7.347   7.974 -0.4516 -0.5196  0.1769
  224MOL0     C30143   7.298   7.365   8.018 -0.2791 -0.9800  0.5777
  224MOL0     C30144   7.247   7.516   8.021 -0.2033 -0.8647 -0.3032
  224MOL0     C30145   7.095   7.514   8.058  0.0111  0.0233  0.1206
  224MOL0     C30146   7.040   7.662   8.051  0.2174  0.5155 -0.3531
  224MOL0     C30147   6.887   7.667   8.082 -1.0864 -0.1269 -0.9488
  224MOL0     C30148   6.851   7.605   8.219 -0.0540  0.2392 -0.4893
  224MOL0     C30149   6.697   7.638   8.245 -0.9147  0.1420  0.0979
  224MOL0    Cl30150   6.589   7.547   8.141  0.4166  0.5118  0.3015
  224MOL0     C30151   7.702   7.269   7.908 -1.0260  0.3130 -0.8046
  224MOL0     C30152   7.836   7.245   7.917  0.0382  0.8303  0.2326
  224MOL0     O30153   7.991   7.191   8.232 -0.2278  0.3010  0.5443
  224MOL0     C30154   8.255   7.282   8.217 -0.6589 -0.2615  0.6067
  224MOL0     C30155   8.392   7.308   8.245  0.1400 -0.4510  0.0159
  224MOL0     N30156   9.195   7.357   8.412 -0.4592 -0.7672 -0.3455
  224MOL0     N30157   9.276   7.396   8.322 -0.3326  0.4580 -0.2235
  224MOL0     C30158  10.158   7.358   7.327 -0.2652 -0.8560 -1.3019
  224MOL0     C30159  10.290   7.333   7.317 -0.8452 -0.6471  0.0517
  224MOL0     C30160  10.720   7.276   7.451  0.1678  0.4361  0.0770
  224MOL0     C30161  10.828   7.304   7.536 -0.0591 -0.3136  0.9020
  224MOL0     C30162  10.955   7.326   7.494  0.0601 -0.7544  0.4243
  224MOL0     C30163  10.984   7.342   7.359  0.3294 -0.1100 -0.1402
  224MOL0     O30164  11.115   7.369   7.319 -0.1478  1.0714 -0.5442
  224MOL0     C30165  11.154   7.278   7.211  0.6107 -0.5566 -0.4666
  224MOL0     C30166  11.304   7.273   7.192 -0.3510  0.0251 -0.1057
  224MOL0     C30167  11.378   7.212   7.307 -0.8610 -0.0527 -0.5982
  224MOL0     C30168  11.530   7.194   7.296  0.6944 -0.5284  0.0657
  224MOL0     C30169  11.615   7.311   7.307 -0.5460  0.2331 -0.3228
  224MOL0     C30170  11.683   7.407   7.310 -0.2021 -0.4505 -0.1573
  224MOL0     C30171  10.877   7.312   7.272  0.2300  0.2273  0.0854
  224MOL0     C30172  10.748   7.281   7.313 -0.7994 -0.7114 -0.2993
  224MOL0     H30173  10.340   7.164   7.603 -0.0615  2.1668  1.4474
  224MOL0     H30174  10.111   7.220   7.644 -1.8209 -0.2700 -1.0249
  224MOL0     H30175   9.907   7.213   7.610 -1.8660 -1.2734 -0.2821
  224MOL0     H30176   9.875   7.388   7.630  1.4669  0.2993 -0.1909
  224MOL0     H30177   9.702   7.387   7.473 -3.8736 -2.7857 -2.8661
  224MOL0     H30178   9.731   7.220   7.422 -0.3193 -2.4825  1.3056
  224MOL0     H30179   9.574   7.187   7.593  0.4304  1.9680 -2.6942
  224MOL0     H30180   9.718   7.193   7.699  1.4637  0.8746 -0.5673
  224MOL0     H30181   9.674   7.428   7.743 -0.2889  1.6414  0.0324
  224MOL0     H30182   9.534   7.438   7.628 -1.3920 -0.9469  1.0889
  224MOL0     H30183   9.519   7.441   7.889  1.2991  1.2574 -1.9599
  224MOL0     H30184   9.390   7.384   7.795  0.4574  1.1724 -1.6172
  224MOL0     H30185   9.470   7.152   7.813 -1.5317  2.7971 -3.0098
  224MOL0     H30186   9.593   7.205   7.933  0.8685 -0.4677 -2.3834
  224MOL0     H30187   9.289   7.215   7.938  0.2029 -1.0624 -0.1473
  224MOL0     H30188   9.387   7.115   8.040  1.7565 -0.0943  2.5436
  224MOL0     H30189   9.349   7.418   8.054  0.1682  0.6022  0.3605
  224MOL0     H30190   9.479   7.332   8.130 -0.9533  1.3265  2.2485
  224MOL0     H30191   9.165   7.123   8.183  1.9375  0.5514 -0.8582
  224MOL0     H30192   9.031   7.080   8.466 -0.5821  1.0927  0.0833
  224MOL0     H30193   8.993   7.254   8.512 -4.2159  2.0715 -1.7933
  224MOL0     H30194   8.914   7.125   8.257  2.0249 -0.2018  1.9922
  224MOL0     H30195   8.898   7.294   8.293  3.1902  0.5830 -0.6512
  224MOL0     H30196   8.759   7.200   8.515 -3.8703  1.0800  0.0243
  224MOL0     H30197   8.730   7.064   8.411 -3.1399  1.1699  0.5599
  224MOL0     H30198   8.663   7.358   8.357  2.3051  0.4515  1.6509
  224MOL0     H30199   8.561   7.224   8.429  0.0623  1.5368 -0.4819
  224MOL0     H30200   8.510   7.015   8.095  0.1506  1.0789 -2.4206
  224MOL0     H30201   8.228   6.972   7.934  1.2708 -0.6557  0.3124
  224MOL0     H30202   8.324   6.868   8.048 -0.4665 -0.1703  1.6698
  224MOL0     H30203   8.160   6.913   8.083  0.4889 -0.0720  1.1962
  224MOL0     H30204   7.846   6.951   8.078 -0.7409 -1.0187 -0.5535
  224MOL0     H30205   7.593   6.990   8.077 -2.0504  0.8278  0.0619
  224MOL0     H30206   7.499   7.410   8.043 -0.4339  1.4296 -1.5048
  224MOL0     H30207   7.451   7.383   7.871 -0.8869  0.6219  0.5124
  224MOL0     H30208   7.232   7.295   7.965  0.9803 -2.1954  0.5696
  224MOL0     H30209   7.298   7.328   8.121  2.0681  0.1352  1.0414
  224MOL0     H30210   7.269   7.574   7.931  2.4226  0.0568  0.8310
  224MOL0     H30211   7.305   7.552   8.107  2.7130 -3.5715 -0.9471
  224MOL0     H30212   7.040   7.437   8.002 -1.3097 -0.7042  2.3235
  224MOL0     H30213   7.081   7.465   8.154 -1.2399  3.2805  1.7619
  224MOL0     H30214   7.065   7.705   7.954  1.7904  1.0031  0.2419
  224MOL0     H30215   7.094   7.731   8.116 -0.5452  0.0335  0.8274
  224MOL0     H30216   6.861   7.772   8.075  1.5753  0.8215  1.3367
  224MOL0     H30217   6.842   7.604   8.004 -0.8485 -0.3735 -0.8905
  224MOL0     H30218   6.915   7.656   8.292  1.1429 -0.4132 -1.0578
  224MOL0     H30219   6.870   7.497   8.221  0.6255  0.3396 -1.2125
  224MOL0     H30220   6.697   7.747   8.237  3.2441  0.2475 -0.7449
  224MOL0     H30221   6.681   7.615   8.351  0.8032  0.5697  0.4786
  224MOL0     H30222   7.669   7.354   7.850 -3.2892  1.5405  2.0196
  224MOL0     H30223   7.907   7.317   7.877  1.5440  0.3958  1.9826
  224MOL0     H30224   8.180   7.356   8.243 -0.9683  0.1084 -1.2157
  224MOL0     H30225   8.428   7.394   8.300  4.5005 -0.9739 -1.5962
  224MOL0     H30226  10.109   7.426   7.258  0.2486 -0.6224 -1.4374
  224MOL0     H30227  10.358   7.361   7.237 -0.5919 -1.4674 -0.0302
  224MOL0     H30228  10.804   7.300   7.642  2.0938 -2.8401  1.3973
  224MOL0     H30229  11.039   7.317   7.562  0.2242 -0.9251  0.2024
  224MOL0     H30230  11.116   7.175   7.221 -0.9347 -0.2277 -2.3620
  224MOL0     H30231  11.107   7.322   7.123  0.7813  0.6487  0.0242
  224MOL0     H30232  11.350   7.372   7.180 -0.8411  0.4852  1.5797
  224MOL0     H30233  11.326   7.215   7.101 -0.7844  0.1100 -0.2627
  224MOL0     H30234  11.333   7.113   7.312 -0.9775 -0.0638 -1.6595
  224MOL0     H30235  11.352   7.259   7.403  1.8201  0.5277 -0.0670
  224MOL0     H30236  11.545   7.136   7.205 -1.9567  1.2303 -1.6234
  224MOL0     H30237  11.560   7.120   7.371 -3.4784 -1.8318  0.7052
  224MOL0     H30238  11.744   7.493   7.329  0.3204 -1.2464  2.0515
  224MOL0     H30239  10.894   7.327   7.166  2.2708  1.9865  0.5910
  224MOL0     H30240  10.673   7.274   7.235 -0.3889  1.2192 -0.9184
  225MOL0     O30241   4.939   6.260   2.626 -0.5939 -0.1548  0.1705
  225MOL0     C30242   5.003   6.220   2.521  0.9437 -0.1763 -0.2546
  225MOL0     O30243   4.939   6.137   2.423  0.0071 -0.4553 -0.0387
  225MOL0     C30244   4.815   6.078   2.462  0.1818  0.0545  0.2268
  225MOL0     C30245   4.706   6.063   2.370 -0.6488  0.4591 -0.2263
  225MOL0     C30246   4.588   6.006   2.415 -0.4580 -0.2477  0.5646
  225MOL0     C30247   4.575   5.945   2.536 -0.8176  0.0854  0.6096
  225MOL0     O30248   4.455   5.885   2.575 -0.0159  0.3321  0.3680
  225MOL0     C30249   4.359   5.977   2.635 -0.6162  0.2609 -0.4390
  225MOL0     C30250   4.232   5.926   2.679  0.1940  0.1259 -0.0692
  225MOL0     C30251   4.154   5.839   2.581 -0.2841 -0.0086  0.1671
  225MOL0     C30252   4.107   5.896   2.449  0.1262 -0.2460  0.2201
  225MOL0     C30253   3.989   5.817   2.375  0.4027 -0.0211  0.0090
  225MOL0     C30254   3.852   5.825   2.452 -0.9312 -0.6215  0.4164
  225MOL0     C30255   3.793   5.961   2.449  0.5934 -0.6898 -1.5563
  225MOL0     C30256   3.678   5.982   2.552  0.6415  0.1101  0.2492
  225MOL0     N30257   3.570   5.877   2.554 -0.8275 -0.0068 -0.7905
  225MOL0     C30258   3.451   5.910   2.493 -0.8107 -1.0865  0.7003
  225MOL0     C30259   3.373   5.800   2.514  0.2747 -0.3072 -0.0655
  225MOL0     C30260   3.247   5.800   2.440  0.0861  0.8285  0.3572
  225MOL0     C30261   3.213   5.661   2.378  0.2034  0.2921  0.1904
  225MOL0     C30262   3.083   5.654   2.295 -0.2535 -0.2059  0.1503
  225MOL0     C30263   3.064   5.529   2.204 -0.2987 -0.4726 -0.5216
  225MOL0     O30264   3.162   5.522   2.104 -0.0208 -0.5294 -0.0579
  225MOL0     C30265   3.136   5.461   1.981  0.4239  0.5411 -1.5340
  225MOL0     C30266   3.192   5.505   1.867 -0.6439 -1.2408 -0.3320
  225MOL0     C30267   3.153   5.460   1.742 -0.3769 -0.0614  0.6647
  225MOL0     C30268   3.212   5.547   1.631  0.4182  0.5254  1.0973
  225MOL0     C30269   3.075   5.342   1.726  0.4727  0.2755  0.0947
  225MOL0     C30270   3.028   5.285   1.596 -0.2615  0.6670  0.6492
  225MOL0     O30271   2.997   5.146   1.608  0.8317  0.2717 -0.5127
  225MOL0     C30272   2.959   5.078   1.497 -0.5478  0.1724 -1.3098
  225MOL0     C30273   2.854   5.123   1.413  0.3863 -0.3158 -0.4670
  225MOL0     C30274   2.788   5.040   1.321 -0.7476  0.2895  0.9753
  225MOL0     C30275   2.839   4.911   1.286 -0.1990  0.7090  0.7036
  225MOL0     O30276   2.783   4.842   1.182 -0.3784 -0.2834 -0.9660
  225MOL0     C30277   2.826   4.708   1.167  0.1244  0.4746 -0.0130
  225MOL0     C30278   2.743   4.641   1.061 -0.5115 -0.2582  0.6907
  225MOL0     C30279   2.751   4.713   0.933 -0.2318 -0.0265  0.4507
  225MOL0     C30280   2.761   4.620   0.809 -0.4190 -0.7814  0.2794
  225MOL0     C30281   2.624   4.576   0.753 -0.1070  0.6457 -0.0811
  225MOL0     C30282   2.617   4.541   0.602 -0.3249 -0.0550 -0.1434
  225MOL0     C30283   2.696   4.414   0.556 -1.0591  0.1152  0.2753
  225MOL0     C30284   2.664   4.380   0.410  0.3990 -0.4948 -0.0267
  225MOL0    Cl30285   2.738   4.512   0.305  0.3185  0.1931 -0.2470
  225MOL0     C30286   2.950   4.871   1.358  0.5854 -0.4369 -0.4258
  225MOL0     C30287   3.010   4.951   1.465 -1.1351 -0.5518  0.8177
  225MOL0     O30288   3.029   5.353   1.490  0.0154 -0.0027 -0.3765
  225MOL0     C30289   3.041   5.283   1.843 -0.9107 -0.8243  0.2771
  225MOL0     C30290   3.067   5.336   1.968 -0.4242  0.5559  0.1409
  225MOL0     N30291   3.446   5.710   2.597 -0.5426  0.1583  0.6186
  225MOL0     N30292   3.561   5.764   2.636 -0.2505 -0.0184 -0.8959
  225MOL0     C30293   4.685   5.938   2.622 -0.1549  0.5132  0.4799
  225MOL0     C30294   4.803   6.006   2.587 -1.1268  0.8133  0.4535
  225MOL0     C30295   5.134   6.281   2.480  0.0727  0.6815 -0.7679
  225MOL0     C30296   5.204   6.223   2.365 -0.8658 -1.4311  0.6696
  225MOL0     C30297   5.336   6.262   2.333 -0.4120 -0.0751  0.8299
  225MOL0     C30298   5.402   6.370   2.408 -0.2298  0.1553 -0.6048
  225MOL0     O30299   5.535   6.424   2.390  0.6257  0.2419  0.2211
  225MOL0     C30300   5.593   6.402   2.262 -1.0955  0.0506 -0.0218
  225MOL0     C30301   5.530   6.501   2.159 -0.6973 -1.2735 -0.3049
  225MOL0     C30302   5.556   6.639   2.209  0.2775  1.1782 -0.8038
  225MOL0     C30303   5.459   6.738   2.155 -0.0836  0.4109 -0.5765
  225MOL0     C30304   5.444   6.734   2.004  0.1731 -0.0900 -0.4463
  225MOL0     C30305   5.430   6.736   1.883 -0.9047  0.3755 -0.0903
  225MOL0     C30306   5.334   6.414   2.528 -0.8817 -0.1903  0.8062
  225MOL0     C30307   5.210   6.359   2.566 -0.9988 -0.5952 -0.1746
  225MOL0     H30308   4.706   6.098   2.267 -0.4764  0.0821 -0.3545
  225MOL0     H30309   4.506   6.021   2.345 -0.3665  3.2719  1.0440
  225MOL0     H30310   4.409   6.027   2.718 -2.6808  2.3192 -0.3091
  225MOL0     H30311   4.339   6.057   2.563 -0.9151  1.4072  0.8748
  225MOL0     H30312   4.255   5.864   2.766  1.9801 -0.8984 -1.2129
  225MOL0     H30313   4.182   6.016   2.718  0.8251  0.0239  1.0011
  225MOL0     H30314   4.222   5.759   2.551  0.7274  1.0454 -0.4303
  225MOL0     H30315   4.075   5.791   2.641  0.3615 -0.3006  0.7971
  225MOL0     H30316   4.085   6.003   2.455  4.6823  0.9169 -0.3204
  225MOL0     H30317   4.189   5.900   2.377  0.6876  1.3951  0.9117
  225MOL0     H30318   3.968   5.868   2.281 -4.3378 -0.2234  0.7023
  225MOL0     H30319   4.018   5.712   2.364 -1.2829 -0.7476  1.8540
  225MOL0     H30320   3.781   5.754   2.410 -0.4514 -2.7408  2.9073
  225MOL0     H30321   3.863   5.783   2.553  2.6387 -2.7086 -0.6404
  225MOL0     H30322   3.871   6.036   2.466  0.4180 -0.7223 -0.5413
  225MOL0     H30323   3.751   5.978   2.349  0.7689  0.3359 -1.4631
  225MOL0     H30324   3.633   6.081   2.535  0.7780  0.2214  0.5168
  225MOL0     H30325   3.717   5.982   2.654 -0.7805 -0.9814  0.8255
  225MOL0     H30326   3.426   5.996   2.432  2.2573 -0.2981  0.4344
  225MOL0     H30327   3.167   5.834   2.507 -1.2344  0.9434 -1.2106
  225MOL0     H30328   3.253   5.880   2.365  1.6765 -1.2870 -1.9151
  225MOL0     H30329   3.212   5.586   2.458 -1.0180  0.8846  0.7584
  225MOL0     H30330   3.297   5.633   2.313 -0.9722 -3.4164  0.0189
  225MOL0     H30331   3.083   5.740   2.228  3.3435  1.5171  2.0735
  225MOL0     H30332   2.993   5.647   2.356 -0.3222 -2.3464 -0.1106
  225MOL0     H30333   2.963   5.544   2.164  0.8877  1.5677 -3.0333
  225MOL0     H30334   3.075   5.435   2.260 -0.0978 -1.4901 -2.1856
  225MOL0     H30335   3.256   5.592   1.863  0.0866 -1.5524  2.6223
  225MOL0     H30336   3.128   5.561   1.562 -1.5157  0.9252  3.3867
  225MOL0     H30337   3.254   5.644   1.660  1.5201  1.1919 -2.2755
  225MOL0     H30338   3.293   5.497   1.577  1.4342 -0.2594  3.2675
  225MOL0     H30339   2.814   5.223   1.428 -1.7852 -0.8036 -2.3581
  225MOL0     H30340   2.699   5.082   1.276 -0.8054 -0.3564  0.4667
  225MOL0     H30341   2.933   4.719   1.143  0.2388  0.1192  0.3183
  225MOL0     H30342   2.801   4.655   1.260  1.3749  0.1889  0.1795
  225MOL0     H30343   2.775   4.537   1.052  1.3521  0.3532 -0.1435
  225MOL0     H30344   2.636   4.635   1.082 -0.9812  1.0530 -1.0572
  225MOL0     H30345   2.850   4.760   0.929  1.6698 -3.5323  1.2873
  225MOL0     H30346   2.671   4.785   0.922 -1.4307 -1.3222  0.4334
  225MOL0     H30347   2.809   4.678   0.730 -1.3819  0.4406  0.5686
  225MOL0     H30348   2.836   4.540   0.820  0.7782  0.0170 -1.5574
  225MOL0     H30349   2.549   4.655   0.762 -0.5602  0.0127  2.7415
  225MOL0     H30350   2.594   4.489   0.813  1.2911 -2.1428 -3.0764
  225MOL0     H30351   2.511   4.521   0.585 -0.5641  0.8781  0.2040
  225MOL0     H30352   2.659   4.623   0.543  2.2003 -0.1901  1.3073
  225MOL0     H30353   2.681   4.339   0.634  1.1658  1.6220  2.3163
  225MOL0     H30354   2.804   4.433   0.557 -0.4243 -2.6489 -2.2428
  225MOL0     H30355   2.555   4.380   0.396  0.2833 -1.5408  0.7446
  225MOL0     H30356   2.706   4.285   0.375  1.3841  0.5855 -1.9195
  225MOL0     H30357   3.001   4.776   1.347  0.2807 -0.7867  1.0103
  225MOL0     H30358   3.102   4.914   1.509  1.5430 -0.8010 -4.2293
  225MOL0     H30359   2.982   5.193   1.850 -0.8236 -1.0378 -1.3639
  225MOL0     H30360   3.033   5.273   2.049  3.7236 -1.3947  0.5878
  225MOL0     H30361   4.669   5.881   2.714  1.7751  1.6267  1.5743
  225MOL0     H30362   4.889   6.002   2.653  1.3735 -0.2951 -2.5906
  225MOL0     H30363   5.170   6.136   2.310 -0.1465 -0.8643 -0.7215
  225MOL0     H30364   5.378   6.225   2.241  2.0663 -0.2723  1.9516
  225MOL0     H30365   5.701   6.411   2.250 -0.8748 -0.5707  1.2691
  225MOL0     H30366   5.574   6.296   2.240  2.8182 -0.7138 -0.4946
  225MOL0     H30367   5.422   6.486   2.160 -0.9651  0.4186 -1.0245
  225MOL0     H30368   5.583   6.484   2.065  0.5596 -0.2579  0.1883
  225MOL0     H30369   5.655   6.676   2.181  0.2388  1.3874 -0.6692
  225MOL0     H30370   5.559   6.642   2.318 -1.3948  1.4126 -0.7445
  225MOL0     H30371   5.492   6.839   2.182 -3.2249  1.3018  0.3935
  225MOL0     H30372   5.364   6.713   2.202 -0.3163 -1.4777 -1.9220
  225MOL0     H30373   5.421   6.745   1.777  2.7205  0.2405 -0.5340
  225MOL0     H30374   5.400   6.464   2.598  1.4027  0.9268 -1.9719
  225MOL0     H30375   5.164   6.382   2.662 -0.2871  1.1027 -0.2092
  226MOL0     O30376   5.755   1.369   8.674  0.6156 -0.1250  0.7397
  226MOL0     C30377   5.802   1.261   8.711  0.2373  1.0528 -0.0652
  226MOL0     O30378   5.740   1.139   8.736 -0.4751  0.4987 -0.2219
  226MOL0     C30379   5.606   1.133   8.721 -1.3087 -0.0600  0.6110
  226MOL0     C30380   5.548   1.042   8.636  0.6456 -0.0160 -0.5124
  226MOL0     C30381   5.411   1.025   8.635  0.7051  0.4247 -0.0409
  226MOL0     C30382   5.328   1.107   8.707  0.0152 -0.5155  0.3431
  226MOL0     O30383   5.192   1.098   8.708  0.3331  0.5022 -0.1310
  226MOL0     C30384   5.127   0.977   8.672 -0.0029  0.6610  1.0045
  226MOL0     C30385   4.973   0.986   8.704 -0.1846 -1.0485 -0.1772
  226MOL0     C30386   4.907   1.101   8.622 -0.3515 -0.1611 -0.5029
  226MOL0     C30387   4.760   1.117   8.670 -0.0763  0.6779 -0.5485
  226MOL0     C30388   4.671   1.210   8.570 -0.2001 -0.4189  0.2274
  226MOL0     C30389   4.666   1.146   8.424 -0.0015  0.5933  0.7449
  226MOL0     C30390   4.545   1.194   8.340 -0.2238 -0.1927  0.0091
  226MOL0     C30391   4.572   1.145   8.197 -0.1874  0.6841 -0.5616
  226MOL0     N30392   4.517   1.005   8.194  0.0390 -0.8319  0.5319
  226MOL0     C30393   4.587   0.897   8.222 -0.2130  0.6049  0.8593
  226MOL0     C30394   4.499   0.794   8.215  0.4576  0.4680  0.1298
  226MOL0     C30395   4.532   0.659   8.277  0.3253 -0.0584  0.0189
  226MOL0     C30396   4.520   0.545   8.174  0.5560 -0.6177  0.2162
  226MOL0     C30397   4.378   0.500   8.129 -0.0014 -0.2057  0.3248
  226MOL0     C30398   4.409   0.378   8.043  0.0959 -0.0111  0.2224
  226MOL0     O30399   4.288   0.332   7.975 -1.1119  0.1009 -0.2419
  226MOL0     C30400   4.185   0.275   8.041  0.2906 -0.2267 -0.6913
  226MOL0     C30401   4.052   0.296   7.997  0.5480  0.0918  0.4277
  226MOL0     C30402   3.943   0.234   8.064 -0.2363  0.1427  0.0954
  226MOL0     C30403   3.810   0.277   8.020  0.4742  0.6139  0.5578
  226MOL0     C30404   3.965   0.172   8.186 -0.6669 -0.2463 -0.6172
  226MOL0     C30405   3.856   0.119   8.281 -0.0365  0.1624  0.5257
  226MOL0     O30406   3.904   0.047   8.385  0.3961  0.2996  0.1132
  226MOL0     C30407   3.820   0.005   8.487  0.8863 -0.3095  1.0794
  226MOL0     C30408   3.747  -0.113   8.462 -0.0710 -0.5215  0.7977
  226MOL0     C30409   3.668  -0.165   8.562 -0.2756 -0.2682  0.1204
  226MOL0     C30410   3.639  -0.082   8.676  0.0177  0.9832 -0.9307
  226MOL0     O30411   3.568  -0.124   8.786  0.5376  0.1456 -0.1100
  226MOL0     C30412   3.525  -0.262   8.802  0.2103 -0.1906  0.5168
  226MOL0     C30413   3.444  -0.278   8.928 -0.1319  0.0685 -0.6189
  226MOL0     C30414   3.520  -0.221   9.059 -0.3592 -0.3016 -0.8455
  226MOL0     C30415   3.431  -0.246   9.183 -0.0454 -0.4660  0.7962
  226MOL0     C30416   3.500  -0.177   9.304 -0.1627  1.7416  0.5552
  226MOL0     C30417   3.401  -0.176   9.426  0.0913  0.1433  0.1193
  226MOL0     C30418   3.467  -0.084   9.524 -0.3773 -0.0471  0.1642
  226MOL0     C30419   3.392  -0.085   9.656  0.0370 -0.0281 -0.1564
  226MOL0    Cl30420   3.235   0.013   9.638 -0.1969 -0.1193 -0.4695
  226MOL0     C30421   3.714   0.032   8.690 -0.9020  0.6607 -0.7464
  226MOL0     C30422   3.785   0.086   8.591 -0.1532 -1.0000  0.6673
  226MOL0     O30423   3.742   0.160   8.277 -0.0661 -0.3863 -0.4469
  226MOL0     C30424   4.096   0.149   8.236  0.0524 -0.5936  0.7705
  226MOL0     C30425   4.201   0.190   8.151 -0.1225  0.0045 -0.0992
  226MOL0     N30426   4.389   0.842   8.141 -0.3789  0.9073 -0.1582
  226MOL0     N30427   4.401   0.970   8.142  0.4795 -0.4653 -0.3172
  226MOL0     C30428   5.385   1.213   8.781 -0.1127 -0.0803  0.3962
  226MOL0     C30429   5.527   1.224   8.793  0.7806 -0.2231  1.0006
  226MOL0     C30430   5.955   1.261   8.711  0.3058  0.6342 -0.0807
  226MOL0     C30431   6.025   1.142   8.754  0.2429 -0.5037 -0.7788
  226MOL0     C30432   6.167   1.146   8.767 -0.1092 -0.5041  0.0763
  226MOL0     C30433   6.236   1.264   8.722  0.2329  0.5404 -0.5572
  226MOL0     O30434   6.366   1.268   8.718 -0.2722  0.5629  0.5832
  226MOL0     C30435   6.450   1.185   8.801 -0.5649  0.2569  0.3274
  226MOL0     C30436   6.592   1.254   8.810  0.9679 -0.1252  0.7705
  226MOL0     C30437   6.678   1.178   8.915  0.2975  0.3651 -0.1544
  226MOL0     C30438   6.804   1.258   8.944 -0.1149  0.5045 -0.0367
  226MOL0     C30439   6.908   1.170   8.987 -0.3462  0.5124  0.1518
  226MOL0     C30440   6.994   1.089   9.017 -0.3268  0.0496 -0.6302
  226MOL0     C30441   6.170   1.372   8.677 -0.1141  0.3901  0.2811
  226MOL0     C30442   6.034   1.366   8.664 -0.7472 -1.2889 -0.3941
  226MOL0     H30443   5.613   0.975   8.580  1.7467  0.7471 -0.1720
  226MOL0     H30444   5.374   0.951   8.565 -0.6539  0.5053  0.5778
  226MOL0     H30445   5.140   0.950   8.567  1.5621  2.1436  0.7748
  226MOL0     H30446   5.163   0.896   8.737  1.0570  1.3588  1.3105
  226MOL0     H30447   4.921   0.894   8.675 -0.2098 -0.8486 -0.7952
  226MOL0     H30448   4.949   1.004   8.809 -4.0029  1.0780 -1.2211
  226MOL0     H30449   4.963   1.189   8.655  2.1272 -1.6406 -0.4875
  226MOL0     H30450   4.917   1.081   8.514  0.5525 -1.5521 -0.1981
  226MOL0     H30451   4.713   1.019   8.678  1.8698 -0.1764  1.9575
  226MOL0     H30452   4.757   1.143   8.777  0.5624 -2.5700  0.3640
  226MOL0     H30453   4.565   1.212   8.600 -0.7227 -0.4438 -1.4921
  226MOL0     H30454   4.703   1.314   8.561 -2.7253  0.4742  0.6650
  226MOL0     H30455   4.757   1.179   8.374 -0.4611 -1.1045 -1.3826
  226MOL0     H30456   4.668   1.037   8.431 -0.3818  0.4551 -1.0002
  226MOL0     H30457   4.450   1.151   8.374  1.5066 -4.0050  0.5662
  226MOL0     H30458   4.539   1.303   8.347 -0.8389 -0.3336  2.3964
  226MOL0     H30459   4.677   1.147   8.169 -0.1133  0.5139 -0.2881
  226MOL0     H30460   4.511   1.214   8.137 -1.9935 -1.0886 -0.8706
  226MOL0     H30461   4.692   0.902   8.249 -0.0238  2.0517 -0.0408
  226MOL0     H30462   4.626   0.656   8.332 -1.6098 -3.1078  3.6137
  226MOL0     H30463   4.459   0.640   8.356 -0.9328 -1.3273 -1.3798
  226MOL0     H30464   4.576   0.459   8.213  1.7164  0.2491  0.5250
  226MOL0     H30465   4.571   0.588   8.087 -1.4702  3.5553  0.8216
  226MOL0     H30466   4.337   0.579   8.067 -1.9605 -0.6853  0.9603
  226MOL0     H30467   4.309   0.477   8.211 -0.3940  1.4702  0.4881
  226MOL0     H30468   4.462   0.303   8.103  1.3014  1.8709  1.6059
  226MOL0     H30469   4.485   0.416   7.975 -0.7829 -0.1179 -0.8500
  226MOL0     H30470   4.037   0.347   7.903  1.8980 -1.6942 -0.8344
  226MOL0     H30471   3.785   0.377   8.059 -2.4616  2.1654 -4.3788
  226MOL0     H30472   3.796   0.294   7.913 -0.3492 -0.5312  0.4706
  226MOL0     H30473   3.739   0.201   8.055  2.9741 -1.0889  2.2476
  226MOL0     H30474   3.754  -0.183   8.379 -2.2883 -2.1902  1.9015
  226MOL0     H30475   3.621  -0.261   8.547  0.9525 -0.4242 -3.8631
  226MOL0     H30476   3.463  -0.293   8.717 -1.7494 -0.2937  1.9062
  226MOL0     H30477   3.607  -0.333   8.814 -1.2593 -1.9126  0.7591
  226MOL0     H30478   3.356  -0.214   8.926  0.6741  1.4047  1.9282
  226MOL0     H30479   3.414  -0.383   8.937 -3.5795  0.9244 -0.7215
  226MOL0     H30480   3.549  -0.117   9.041 -0.5945  0.5228  2.6861
  226MOL0     H30481   3.621  -0.262   9.070  0.4363  1.9997  1.6249
  226MOL0     H30482   3.332  -0.201   9.164  0.7203  1.3102  0.7737
  226MOL0     H30483   3.421  -0.351   9.209  0.2272 -0.1959  2.0709
  226MOL0     H30484   3.533  -0.079   9.270  1.5936  0.4275 -1.8784
  226MOL0     H30485   3.590  -0.235   9.326  0.1123  2.0698  0.3101
  226MOL0     H30486   3.303  -0.140   9.394 -0.4068 -0.5035  0.8859
  226MOL0     H30487   3.386  -0.280   9.454  0.6772 -0.2475 -0.9469
  226MOL0     H30488   3.489   0.016   9.484  0.7069 -1.3354 -2.7100
  226MOL0     H30489   3.568  -0.123   9.538  0.9161  2.2504 -2.0198
  226MOL0     H30490   3.461  -0.040   9.729  0.3254  0.8111 -0.9155
  226MOL0     H30491   3.377  -0.189   9.685 -2.2737 -0.8312 -3.5464
  226MOL0     H30492   3.694   0.082   8.785 -2.0220  1.1170 -1.2091
  226MOL0     H30493   3.823   0.188   8.585 -0.7160 -0.5733  3.1844
  226MOL0     H30494   4.113   0.095   8.329 -2.9654 -1.1268  1.1064
  226MOL0     H30495   4.302   0.155   8.169  0.0174 -1.0847 -2.5454
  226MOL0     H30496   5.334   1.302   8.816 -0.2954  0.0754 -0.2511
  226MOL0     H30497   5.562   1.308   8.851  1.4406  0.6494 -0.6207
  226MOL0     H30498   5.976   1.047   8.772 -1.8213  0.4255 -1.1151
  226MOL0     H30499   6.235   1.068   8.801  1.4972  0.5870 -0.5001
  226MOL0     H30500   6.416   1.185   8.905  2.5601  0.7374  1.4351
  226MOL0     H30501   6.466   1.084   8.761 -0.6881 -0.3674  1.8089
  226MOL0     H30502   6.585   1.362   8.824  0.5435  0.1161 -1.1053
  226MOL0     H30503   6.639   1.246   8.712  2.7557  3.4222  1.1651
  226MOL0     H30504   6.697   1.074   8.887 -0.4355 -0.4438  2.0960
  226MOL0     H30505   6.616   1.167   9.004  1.9428 -0.0201  1.0009
  226MOL0     H30506   6.779   1.328   9.024 -2.8795 -0.4486  0.0450
  226MOL0     H30507   6.839   1.312   8.856 -0.7502  1.6925  0.4103
  226MOL0     H30508   7.057   1.009   9.051  0.4997  2.1259  3.3925
  226MOL0     H30509   6.220   1.466   8.656  0.9446  0.7324  3.5866
  226MOL0     H30510   5.986   1.454   8.621  0.2255 -0.3631  0.3620
  227MOL0     O30511   5.162   9.613   7.991 -0.5633  0.0020  0.9942
  227MOL0     C30512   5.196   9.536   8.080  0.0539 -0.1747  0.2621
  227MOL0     O30513   5.143   9.539   8.199 -0.0029 -0.0729 -0.2299
  227MOL0     C30514   5.032   9.621   8.218 -0.2059  0.5583  0.4864
  227MOL0     C30515   5.042   9.747   8.291  0.6985 -0.4830 -0.0678
  227MOL0     C30516   4.923   9.816   8.333  0.2110 -0.7261 -0.3707
  227MOL0     C30517   4.798   9.757   8.326  0.1983  0.2791  0.5920
  227MOL0     O30518   4.702   9.836   8.360 -0.8656 -0.3508 -0.2136
  227MOL0     C30519   4.625   9.888   8.248  0.9230  0.5313 -0.6203
  227MOL0     C30520   4.496   9.955   8.295 -0.8089 -0.6298 -0.6731
  227MOL0     C30521   4.401   9.851   8.360  0.1969 -0.3890 -0.7894
  227MOL0     C30522   4.428   9.839   8.518 -0.2288  0.5636  0.0941
  227MOL0     C30523   4.319   9.749   8.574 -0.1159 -0.7890  0.7491
  227MOL0     C30524   4.344   9.709   8.721 -0.4761 -0.0110 -0.7585
  227MOL0     C30525   4.220   9.639   8.766  0.7685 -0.2034 -1.7995
  227MOL0     C30526   4.246   9.572   8.907 -0.6603  0.0120  0.5765
  227MOL0     N30527   4.113   9.526   8.952  0.4632  1.4373 -0.6820
  227MOL0     C30528   4.010   9.589   9.012 -0.2425 -0.9264 -0.0729
  227MOL0     C30529   3.911   9.493   9.029 -0.0634 -1.1973 -0.0693
  227MOL0     C30530   3.772   9.490   9.074  0.0272 -0.1844 -0.1630
  227MOL0     C30531   3.670   9.556   8.979 -0.1906 -0.0399 -1.2605
  227MOL0     C30532   3.695   9.521   8.828  0.2863  0.0175 -0.6523
  227MOL0     C30533   3.661   9.369   8.794  0.4251  0.3650 -0.9215
  227MOL0     O30534   3.512   9.352   8.797 -0.3395  0.0707 -0.9176
  227MOL0     C30535   3.456   9.231   8.747 -0.1400  0.6272 -0.4076
  227MOL0     C30536   3.318   9.223   8.739  0.5236  0.4258 -0.6874
  227MOL0     C30537   3.246   9.111   8.704 -0.0452  0.6094 -0.0619
  227MOL0     C30538   3.093   9.132   8.693  0.7281 -0.5672 -0.5966
  227MOL0     C30539   3.315   8.985   8.685 -0.5377  0.3284  0.1795
  227MOL0     C30540   3.255   8.853   8.660  0.7614  0.5660 -0.3237
  227MOL0     O30541   3.329   8.754   8.606 -0.0616  0.0699  0.5296
  227MOL0     C30542   3.290   8.623   8.611  0.1846 -0.5561  0.7852
  227MOL0     C30543   3.342   8.536   8.708  0.1710 -0.3288  0.8699
  227MOL0     C30544   3.314   8.395   8.705 -0.2477 -0.3184 -1.3309
  227MOL0     C30545   3.228   8.337   8.613  0.6910  0.3738  0.7231
  227MOL0     O30546   3.175   8.209   8.608 -0.0604  0.0134  0.3359
  227MOL0     C30547   3.147   8.148   8.735  0.8602  0.9114 -0.0146
  227MOL0     C30548   3.042   8.042   8.686 -0.0140  1.0316 -0.3019
  227MOL0     C30549   2.911   8.090   8.621 -0.3335 -0.6739  0.3572
  227MOL0     C30550   2.820   7.979   8.606 -0.6444  0.3364  0.9102
  227MOL0     C30551   2.688   8.015   8.546 -0.1057  0.1463  0.1603
  227MOL0     C30552   2.685   8.066   8.400  0.4426  0.8253 -0.6847
  227MOL0     C30553   2.579   7.991   8.318 -0.3582 -0.3374 -0.5955
  227MOL0     C30554   2.485   8.079   8.223  0.1366 -0.2130 -0.3315
  227MOL0    Cl30555   2.403   8.206   8.321  0.2266  0.0875 -0.1754
  227MOL0     C30556   3.165   8.433   8.516  0.6441 -0.1799 -0.0940
  227MOL0     C30557   3.203   8.566   8.512 -0.2351 -0.0517 -1.2895
  227MOL0     O30558   3.132   8.842   8.682  0.3944 -0.1237  0.4093
  227MOL0     C30559   3.457   8.989   8.699 -0.2871  0.0225  0.0261
  227MOL0     C30560   3.525   9.113   8.719  0.0112 -0.0623  0.8012
  227MOL0     N30561   3.976   9.374   9.008 -0.7689 -0.7564 -0.6488
  227MOL0     N30562   4.095   9.394   8.963  0.1322 -0.0968 -0.6236
  227MOL0     C30563   4.783   9.637   8.258 -0.3676 -0.2263 -0.1100
  227MOL0     C30564   4.899   9.570   8.208 -0.2374 -0.9411  0.5203
  227MOL0     C30565   5.311   9.450   8.064 -1.0534 -0.2232  0.2550
  227MOL0     C30566   5.374   9.423   7.938 -0.5843 -1.5055  0.6569
  227MOL0     C30567   5.482   9.350   7.926 -0.0155  0.8331  0.3293
  227MOL0     C30568   5.533   9.282   8.040 -0.3799  0.5163  0.0738
  227MOL0     O30569   5.647   9.201   8.024 -0.4555 -0.2816  0.1955
  227MOL0     C30570   5.680   9.099   8.115 -0.2564  0.3751 -0.1110
  227MOL0     C30571   5.779   8.994   8.056  0.0237 -0.6375  0.0941
  227MOL0     C30572   5.927   9.063   8.037  0.0497  0.0695  0.5515
  227MOL0     C30573   6.004   8.971   7.954 -0.2322 -0.1877 -0.6049
  227MOL0     C30574   6.043   8.839   8.017 -0.4011 -0.3779 -0.0231
  227MOL0     C30575   6.081   8.734   8.062  0.4881  0.2611  1.1712
  227MOL0     C30576   5.469   9.289   8.167  0.7750 -1.0256 -1.2260
  227MOL0     C30577   5.358   9.374   8.177  0.4016  0.6385  0.6427
  227MOL0     H30578   5.132   9.791   8.334  0.0039  0.8427  0.0962
  227MOL0     H30579   4.936   9.911   8.384  0.2614 -0.7112 -0.4118
  227MOL0     H30580   4.688   9.958   8.192  2.3675 -1.6250 -1.8355
  227MOL0     H30581   4.589   9.814   8.176  1.6192  1.2120 -1.7055
  227MOL0     H30582   4.513  10.036   8.367  0.2489 -0.3353 -1.2361
  227MOL0     H30583   4.438   9.993   8.210 -4.9716  0.3516  2.2789
  227MOL0     H30584   4.297   9.881   8.341  0.3170 -0.2824 -1.3074
  227MOL0     H30585   4.414   9.753   8.314  2.0180  0.3707 -2.0259
  227MOL0     H30586   4.526   9.794   8.533  0.0333  1.3277  0.7573
  227MOL0     H30587   4.429   9.939   8.563 -0.5679  2.2416 -3.3069
  227MOL0     H30588   4.230   9.808   8.551  2.4765  3.8332  1.2082
  227MOL0     H30589   4.320   9.661   8.510  0.3977  0.0110 -0.3778
  227MOL0     H30590   4.434   9.647   8.723  0.7371  1.6630 -1.1528
  227MOL0     H30591   4.358   9.792   8.792  0.5350 -0.0292 -0.9246
  227MOL0     H30592   4.141   9.712   8.787 -0.2312 -2.3943  3.7501
  227MOL0     H30593   4.191   9.566   8.690  1.9245 -1.4592 -1.0845
  227MOL0     H30594   4.292   9.636   8.982 -1.5428 -0.4568  1.5485
  227MOL0     H30595   4.313   9.486   8.897  2.2175  2.2959 -1.8637
  227MOL0     H30596   4.016   9.696   9.031  0.1419 -1.2070  1.5174
  227MOL0     H30597   3.750   9.383   9.080 -0.2094 -0.1780 -0.8202
  227MOL0     H30598   3.765   9.523   9.178  0.8731  1.7612 -0.6901
  227MOL0     H30599   3.665   9.664   8.999  1.0247 -0.3514  1.1197
  227MOL0     H30600   3.573   9.523   9.017 -0.6224  2.5682  0.1325
  227MOL0     H30601   3.802   9.514   8.803  0.3037  1.0839 -0.9157
  227MOL0     H30602   3.647   9.591   8.759  1.4702 -0.4142 -1.9761
  227MOL0     H30603   3.720   9.304   8.859 -0.9090  1.3178  1.4012
  227MOL0     H30604   3.698   9.357   8.692 -2.2247  0.6084 -2.0035
  227MOL0     H30605   3.260   9.307   8.775  1.2588  0.0041  1.6653
  227MOL0     H30606   3.037   9.121   8.787  1.1738 -2.4024 -0.5153
  227MOL0     H30607   3.085   9.237   8.663  2.3891  0.1776  1.3946
  227MOL0     H30608   3.048   9.085   8.605 -1.2303  0.1417 -0.0346
  227MOL0     H30609   3.402   8.587   8.782 -1.0531 -0.5455  2.0407
  227MOL0     H30610   3.334   8.326   8.786 -0.9514 -0.2562 -1.0959
  227MOL0     H30611   3.242   8.112   8.774 -0.3196 -1.4563  0.8469
  227MOL0     H30612   3.107   8.225   8.802 -1.5989  1.8074 -2.2818
  227MOL0     H30613   3.095   7.965   8.629  0.1612  2.7116 -2.5561
  227MOL0     H30614   3.025   7.998   8.785  1.1583  1.0208 -0.0887
  227MOL0     H30615   2.940   8.127   8.522 -2.1160 -1.2386 -0.4276
  227MOL0     H30616   2.863   8.176   8.668 -0.5855 -0.6108 -0.0112
  227MOL0     H30617   2.867   7.903   8.542 -1.8869 -0.1975  0.6038
  227MOL0     H30618   2.793   7.936   8.703 -0.8275  0.8965  1.1082
  227MOL0     H30619   2.632   8.080   8.615  1.2423  0.5420  0.9254
  227MOL0     H30620   2.631   7.922   8.557  1.3311 -0.8086 -0.3075
  227MOL0     H30621   2.650   8.170   8.401 -0.7463  0.4390  0.1148
  227MOL0     H30622   2.787   8.067   8.363  0.8622 -0.8419  0.3318
  227MOL0     H30623   2.529   7.925   8.390  0.7719  1.3769  1.8859
  227MOL0     H30624   2.639   7.923   8.257  2.4901 -0.0091  1.6361
  227MOL0     H30625   2.421   8.005   8.174  0.9928  0.0734 -1.9532
  227MOL0     H30626   2.542   8.121   8.140  2.2998 -2.6430 -0.2101
  227MOL0     H30627   3.091   8.398   8.444 -2.0865  1.0013  1.9603
  227MOL0     H30628   3.181   8.637   8.432 -0.5720 -1.0154 -2.0700
  227MOL0     H30629   3.520   8.900   8.691 -0.2155  0.1098 -0.3728
  227MOL0     H30630   3.632   9.095   8.726  0.0602 -2.2329 -2.7494
  227MOL0     H30631   4.683   9.599   8.243 -1.2459  0.5009  3.2894
  227MOL0     H30632   4.874   9.490   8.139  2.6077 -1.4027 -0.0983
  227MOL0     H30633   5.334   9.476   7.852  2.8004 -2.5092 -1.7643
  227MOL0     H30634   5.517   9.328   7.826 -2.7904  1.0668 -0.7814
  227MOL0     H30635   5.717   9.143   8.209 -1.4143  0.8201  0.1566
  227MOL0     H30636   5.586   9.049   8.139 -0.5722 -0.4798 -2.8600
  227MOL0     H30637   5.742   8.945   7.965 -2.9583  1.3502  0.0981
  227MOL0     H30638   5.786   8.925   8.140 -2.0866  1.1495  1.8274
  227MOL0     H30639   5.980   9.077   8.132  0.4617  1.1608  0.1727
  227MOL0     H30640   5.909   9.162   7.995  1.2476 -0.4888 -1.3985
  227MOL0     H30641   6.096   9.016   7.913  0.0778  1.1701  1.3970
  227MOL0     H30642   5.944   8.948   7.866  1.3331 -2.1043 -1.2356
  227MOL0     H30643   6.119   8.638   8.094 -0.6045 -1.3912 -2.0991
  227MOL0     H30644   5.497   9.225   8.250 -0.6847  0.4843  0.5341
  227MOL0     H30645   5.299   9.373   8.268  0.7618 -1.9611  0.9231
  228MOL0     O30646   2.757   4.721   4.767 -0.1921 -0.8977 -0.0679
  228MOL0     C30647   2.812   4.711   4.654  0.9117  0.6602 -0.5661
  228MOL0     O30648   2.763   4.624   4.561 -0.5942 -0.4724 -0.9881
  228MOL0     C30649   2.655   4.548   4.604 -0.6657  0.2031  0.0876
  228MOL0     C30650   2.537   4.584   4.536  0.1501  0.4350 -0.5295
  228MOL0     C30651   2.425   4.498   4.562  0.4367 -0.9186 -1.3210
  228MOL0     C30652   2.435   4.389   4.650 -0.7085  0.2938  0.3331
  228MOL0     O30653   2.319   4.327   4.701 -0.3540  0.6908 -0.8064
  228MOL0     C30654   2.210   4.310   4.604  0.1267  1.1875 -0.4443
  228MOL0     C30655   2.123   4.215   4.675  0.9179  0.2731  0.9502
  228MOL0     C30656   1.997   4.193   4.588 -0.3187  0.9647 -0.0719
  228MOL0     C30657   1.876   4.143   4.671  0.3640 -0.1512 -0.1483
  228MOL0     C30658   1.765   4.084   4.578 -0.1347  0.2346  0.1638
  228MOL0     C30659   1.623   4.061   4.637  0.0214 -0.1981  0.2089
  228MOL0     C30660   1.619   3.966   4.760 -0.1476 -0.4468  0.3035
  228MOL0     C30661   1.673   3.829   4.747 -0.5469  0.9756 -0.1926
  228MOL0     N30662   1.584   3.748   4.660 -1.2590  0.1161 -0.1555
  228MOL0     C30663   1.472   3.673   4.696  0.0624 -1.2565 -0.8709
  228MOL0     C30664   1.431   3.602   4.592  0.8050 -0.5741  0.4421
  228MOL0     C30665   1.324   3.495   4.585 -0.2868 -0.4847  1.2332
  228MOL0     C30666   1.189   3.548   4.647 -0.3303 -0.3477  0.2905
  228MOL0     C30667   1.079   3.442   4.614 -0.4433 -0.7121  1.0214
  228MOL0     C30668   0.939   3.498   4.618  0.4155  1.0331 -0.8285
  228MOL0     O30669   0.899   3.500   4.761 -0.1453 -0.9288 -0.7174
  228MOL0     C30670   0.768   3.542   4.785  0.1216 -0.0908  0.1733
  228MOL0     C30671   0.722   3.533   4.919  1.2271  0.2243  0.7528
  228MOL0     C30672   0.589   3.550   4.947  0.1668 -0.7054  0.3311
  228MOL0     C30673   0.553   3.558   5.092  0.4014 -0.6448 -0.4263
  228MOL0     C30674   0.495   3.584   4.847 -0.4597 -0.3236 -0.1086
  228MOL0     C30675   0.350   3.598   4.871 -0.9713 -0.6442  0.2158
  228MOL0     O30676   0.275   3.666   4.774  0.6498  0.3876 -0.4036
  228MOL0     C30677   0.155   3.726   4.816 -0.1043  0.0021  0.4138
  228MOL0     C30678   0.140   3.865   4.827  0.0024 -0.4281  0.9057
  228MOL0     C30679   0.010   3.915   4.866  0.5729  0.3145  0.3210
  228MOL0     C30680  -0.113   3.841   4.875 -0.0209  0.3003  0.3871
  228MOL0     O30681  -0.240   3.882   4.921  0.0060  0.4931 -0.4112
  228MOL0     C30682  -0.244   4.005   4.983  0.1269 -0.1026  0.2425
  228MOL0     C30683  -0.381   4.034   5.033 -0.1790 -0.4972  0.7449
  228MOL0     C30684  -0.487   3.942   4.967  0.2659 -0.6854 -0.0621
  228MOL0     C30685  -0.623   3.969   5.036 -0.5260 -0.0435  0.4156
  228MOL0     C30686  -0.693   4.090   4.990 -0.6861  0.0381 -0.4230
  228MOL0     C30687  -0.699   4.107   4.835 -0.6416 -0.1816 -0.5675
  228MOL0     C30688  -0.806   4.204   4.791 -0.8425 -0.4988 -0.4423
  228MOL0     C30689  -0.776   4.268   4.647 -0.0162  0.4179 -0.3312
  228MOL0    Cl30690  -0.768   4.145   4.521  0.3457  0.2153 -0.1639
  228MOL0     C30691  -0.097   3.702   4.853 -0.1894  0.7112 -0.7760
  228MOL0     C30692   0.031   3.653   4.832  0.4488  0.5877 -0.1763
  228MOL0     O30693   0.304   3.542   4.971  0.1723 -0.2464  0.1236
  228MOL0     C30694   0.545   3.606   4.718  0.3465  0.0334  0.0013
  228MOL0     C30695   0.675   3.584   4.686 -0.1459 -0.3729 -0.5875
  228MOL0     N30696   1.515   3.640   4.487 -0.0554 -0.1549  0.7510
  228MOL0     N30697   1.602   3.714   4.528  0.0642  0.0587 -0.3002
  228MOL0     C30698   2.549   4.359   4.714 -0.1846  0.1580  0.0480
  228MOL0     C30699   2.669   4.435   4.682  0.6666  0.2938 -0.4921
  228MOL0     C30700   2.931   4.789   4.617  0.8120 -0.1356 -0.0919
  228MOL0     C30701   2.998   4.869   4.712  0.0331  0.0855 -0.4017
  228MOL0     C30702   3.101   4.948   4.661 -0.4916 -0.5675 -0.1453
  228MOL0     C30703   3.146   4.943   4.529 -0.9054 -0.8042 -0.4091
  228MOL0     O30704   3.246   5.030   4.478 -0.8384 -0.0375 -0.6017
  228MOL0     C30705   3.283   5.145   4.554 -0.6681 -0.6665 -0.2343
  228MOL0     C30706   3.369   5.243   4.462  0.2641  0.2922  0.0888
  228MOL0     C30707   3.489   5.162   4.408 -0.2047  0.3587 -0.3747
  228MOL0     C30708   3.602   5.128   4.510  0.6682 -1.1251  0.0702
  228MOL0     C30709   3.678   5.250   4.539  0.9617  0.3128 -0.1336
  228MOL0     C30710   3.738   5.352   4.567  0.3328  0.2774  0.2397
  228MOL0     C30711   3.073   4.863   4.436 -1.1788  0.2494 -0.0329
  228MOL0     C30712   2.968   4.790   4.477  0.3809  0.1084 -0.0223
  228MOL0     H30713   2.517   4.666   4.468 -0.3429 -0.2247 -1.1977
  228MOL0     H30714   2.331   4.524   4.513  0.9301  0.8216 -1.4062
  228MOL0     H30715   2.154   4.402   4.589 -0.8707  1.0864  2.1882
  228MOL0     H30716   2.245   4.290   4.502  1.0577 -1.2473  0.2825
  228MOL0     H30717   2.159   4.112   4.683  2.5185  0.8228  1.0415
  228MOL0     H30718   2.096   4.269   4.766 -1.0950  1.6398 -0.3817
  228MOL0     H30719   1.967   4.281   4.530 -0.2270  1.2872  0.3599
  228MOL0     H30720   2.030   4.122   4.511  3.8786  4.0306 -1.5183
  228MOL0     H30721   1.904   4.061   4.739  1.4483  0.6331  0.3848
  228MOL0     H30722   1.833   4.226   4.727 -0.3475  0.0136 -0.9202
  228MOL0     H30723   1.763   4.154   4.494  3.5337 -1.8899 -1.9764
  228MOL0     H30724   1.810   3.995   4.532  1.2460  0.3523  1.2226
  228MOL0     H30725   1.589   4.159   4.670  2.4724  0.2495  1.6389
  228MOL0     H30726   1.572   4.020   4.549  1.5245 -3.0865  0.5475
  228MOL0     H30727   1.676   4.018   4.837 -1.2086  0.4818  0.4957
  228MOL0     H30728   1.517   3.959   4.801  0.3412 -0.7034  1.5203
  228MOL0     H30729   1.676   3.777   4.843  1.4861  1.0348 -0.1814
  228MOL0     H30730   1.774   3.846   4.707 -0.2088  0.9722  0.6467
  228MOL0     H30731   1.436   3.661   4.798  0.1097  4.4331  0.1691
  228MOL0     H30732   1.307   3.466   4.481 -1.5394  0.4465  1.1556
  228MOL0     H30733   1.347   3.401   4.635  0.8247 -1.6243 -1.2780
  228MOL0     H30734   1.156   3.643   4.606  2.9132  3.4925  5.2834
  228MOL0     H30735   1.196   3.579   4.752 -0.5987  3.4799 -0.6714
  228MOL0     H30736   1.088   3.364   4.691 -1.4186 -0.8252  1.0380
  228MOL0     H30737   1.097   3.395   4.517  1.7398 -0.8783  1.4646
  228MOL0     H30738   0.862   3.430   4.581 -2.6875  2.8620  1.7310
  228MOL0     H30739   0.937   3.594   4.565 -2.6156 -0.5080 -3.8676
  228MOL0     H30740   0.776   3.496   5.006  2.2272  1.5409  0.7237
  228MOL0     H30741   0.639   3.565   5.160 -0.4744  2.3993  0.5403
  228MOL0     H30742   0.483   3.642   5.106 -1.4246 -2.0568 -0.6657
  228MOL0     H30743   0.482   3.482   5.126 -1.3668  0.6587 -1.0035
  228MOL0     H30744   0.230   3.923   4.839  0.2305 -0.6961  0.5114
  228MOL0     H30745   0.004   4.014   4.910 -1.9787 -0.6155  2.3202
  228MOL0     H30746  -0.166   4.011   5.060 -1.2768 -0.9526  1.8061
  228MOL0     H30747  -0.221   4.080   4.906 -2.4697 -0.7841 -1.3132
  228MOL0     H30748  -0.372   4.013   5.140  3.4802  1.0461  0.8730
  228MOL0     H30749  -0.399   4.140   5.013  3.0018  0.2422  1.2693
  228MOL0     H30750  -0.465   3.837   4.986  0.0910 -0.9605 -1.2940
  228MOL0     H30751  -0.488   3.959   4.859 -0.5559 -0.6763 -0.0587
  228MOL0     H30752  -0.696   3.891   5.012  2.2022 -2.2696 -1.3076
  228MOL0     H30753  -0.612   3.977   5.145  1.1408 -1.2960  0.3707
  228MOL0     H30754  -0.634   4.176   5.021 -0.8202 -0.8143  2.4524
  228MOL0     H30755  -0.794   4.088   5.032  0.8741 -4.5053  4.1323
  228MOL0     H30756  -0.611   4.156   4.791 -1.7211 -0.9368 -3.8539
  228MOL0     H30757  -0.717   4.012   4.782 -1.4617 -0.2200 -0.2306
  228MOL0     H30758  -0.824   4.289   4.858 -5.9506 -0.9810 -0.8232
  228MOL0     H30759  -0.900   4.149   4.797 -1.1855  0.1202  0.0051
  228MOL0     H30760  -0.677   4.313   4.653  2.0687 -3.7962  1.1980
  228MOL0     H30761  -0.861   4.334   4.627  1.2049  2.1836  0.0442
  228MOL0     H30762  -0.180   3.633   4.840  0.8527 -0.5248 -1.1018
  228MOL0     H30763   0.031   3.546   4.812  1.9561  0.6463 -0.6286
  228MOL0     H30764   0.484   3.632   4.632  0.2603 -0.4108 -0.0763
  228MOL0     H30765   0.698   3.602   4.581 -1.1280  4.2209 -0.2586
  228MOL0     H30766   2.550   4.277   4.786 -0.6725 -1.3779 -1.6164
  228MOL0     H30767   2.768   4.401   4.712 -0.2603 -0.4419  2.0625
  228MOL0     H30768   2.979   4.850   4.818  0.3864  1.0086 -0.1683
  228MOL0     H30769   3.140   5.021   4.731 -0.6871 -1.5920  1.0783
  228MOL0     H30770   3.189   5.192   4.583  1.4964  2.7121  2.0982
  228MOL0     H30771   3.338   5.122   4.646 -4.4760 -0.6695  2.2396
  228MOL0     H30772   3.399   5.332   4.518 -2.4308  2.0896 -1.0766
  228MOL0     H30773   3.309   5.274   4.375  2.1033 -1.0025 -1.7344
  228MOL0     H30774   3.529   5.215   4.321 -0.8695 -2.0090 -2.2417
  228MOL0     H30775   3.461   5.064   4.367 -1.2246 -0.2944  1.7565
  228MOL0     H30776   3.662   5.050   4.463  0.6608 -0.4186 -1.1746
  228MOL0     H30777   3.555   5.096   4.603 -0.9756  2.5358  0.7087
  228MOL0     H30778   3.790   5.445   4.573 -0.8753  1.4424 -3.8171
  228MOL0     H30779   3.107   4.850   4.334  2.6236  0.8286  1.0265
  228MOL0     H30780   2.912   4.734   4.402  1.0822  1.5856 -1.7122
  229MOL0     O30781   2.385   1.047   2.144  0.6144 -1.2100  0.6579
  229MOL0     C30782   2.330   1.019   2.254 -0.7057  0.1615 -0.2901
  229MOL0     O30783   2.210   0.976   2.278 -0.1904  0.6712  0.7310
  229MOL0     C30784   2.128   0.942   2.173 -0.4955 -0.8465 -0.5484
  229MOL0     C30785   1.993   0.957   2.210 -0.8356 -0.3478  0.4032
  229MOL0     C30786   1.899   0.907   2.120  0.5963 -0.2276  0.1728
  229MOL0     C30787   1.928   0.860   1.992 -0.1844 -0.0499 -0.8207
  229MOL0     O30788   1.825   0.814   1.917  0.2969 -0.4651  0.2046
  229MOL0     C30789   1.846   0.785   1.776  0.9287 -0.4710 -0.8483
  229MOL0     C30790   1.713   0.732   1.719  0.4377  0.4143  1.0224
  229MOL0     C30791   1.622   0.846   1.694  0.4267 -1.1082  0.3254
  229MOL0     C30792   1.542   0.898   1.820  0.2530 -0.3123  0.2160
  229MOL0     C30793   1.430   0.991   1.774  0.7421 -0.4294 -0.9515
  229MOL0     C30794   1.350   1.033   1.898  0.4720 -0.3235 -0.6581
  229MOL0     C30795   1.280   1.169   1.887  0.3519  0.1944 -0.0444
  229MOL0     C30796   1.137   1.164   1.831 -0.8925 -0.6452 -0.1027
  229MOL0     N30797   1.133   1.120   1.689  1.3996 -0.1514  0.7628
  229MOL0     C30798   1.067   1.004   1.661 -0.7815 -0.2130  0.8149
  229MOL0     C30799   1.034   1.012   1.530  1.0334 -0.0161 -1.1525
  229MOL0     C30800   0.941   0.916   1.445  0.2565  0.1205 -0.1596
  229MOL0     C30801   0.980   0.765   1.453 -0.6392 -0.6666 -0.4321
  229MOL0     C30802   1.094   0.746   1.345  0.4849 -0.0531 -0.2805
  229MOL0     C30803   1.224   0.715   1.413  0.5386 -0.0161 -0.2839
  229MOL0     O30804   1.231   0.609   1.508 -0.6582  0.2526  0.0633
  229MOL0     C30805   1.353   0.537   1.516  0.6932 -0.3715 -0.2081
  229MOL0     C30806   1.353   0.458   1.626 -0.3619  0.8624 -0.3830
  229MOL0     C30807   1.465   0.390   1.664 -0.0793  0.9050 -0.4472
  229MOL0     C30808   1.446   0.304   1.785 -0.0708  0.1588 -0.4403
  229MOL0     C30809   1.584   0.394   1.581 -0.2366 -1.0765  0.0157
  229MOL0     C30810   1.705   0.327   1.622  0.0222  0.2275 -0.1817
  229MOL0     O30811   1.786   0.382   1.716 -0.4799  1.2480  0.2875
  229MOL0     C30812   1.927   0.363   1.705 -0.2856 -0.2204  0.3101
  229MOL0     C30813   1.990   0.251   1.749 -0.2922  0.1350 -0.6145
  229MOL0     C30814   2.129   0.230   1.727  0.2376 -0.0020 -1.5145
  229MOL0     C30815   2.208   0.325   1.655 -0.4248 -1.0838  0.7567
  229MOL0     O30816   2.340   0.294   1.647 -0.0379  0.3131 -0.1811
  229MOL0     C30817   2.423   0.370   1.557 -0.6794  0.7044  0.0562
  229MOL0     C30818   2.551   0.295   1.528 -0.1338  0.6461 -0.2835
  229MOL0     C30819   2.641   0.259   1.647 -0.1406  0.1145 -0.4359
  229MOL0     C30820   2.690   0.392   1.704 -0.2125 -0.3212 -0.7960
  229MOL0     C30821   2.823   0.379   1.785  0.0036  0.0199  0.8603
  229MOL0     C30822   2.937   0.296   1.717  0.1496  0.9634 -0.3045
  229MOL0     C30823   2.957   0.319   1.559 -0.3223  0.5296 -0.5078
  229MOL0     C30824   3.031   0.211   1.488  0.5774 -0.7808  1.0469
  229MOL0    Cl30825   2.940   0.065   1.489 -0.2575  0.0884  0.0380
  229MOL0     C30826   2.143   0.446   1.617  0.6944  0.3557 -0.1440
  229MOL0     C30827   2.000   0.464   1.633 -0.6280 -0.4154 -0.3478
  229MOL0     O30828   1.731   0.227   1.553 -0.4101 -0.2990  0.1685
  229MOL0     C30829   1.584   0.462   1.462  0.6092 -0.9978  0.5077
  229MOL0     C30830   1.467   0.531   1.428  0.0632  0.1077 -0.3723
  229MOL0     N30831   1.087   1.132   1.481  0.0170  0.2216 -0.2104
  229MOL0     N30832   1.145   1.199   1.576  0.1578  0.7822 -0.2549
  229MOL0     C30833   2.068   0.858   1.946 -0.6024  0.0864 -0.5332
  229MOL0     C30834   2.164   0.897   2.047 -0.5578 -0.4645  0.9134
  229MOL0     C30835   2.423   1.053   2.366  0.4936 -0.4083  0.3623
  229MOL0     C30836   2.547   1.132   2.356  0.6753 -0.2609  0.1567
  229MOL0     C30837   2.639   1.158   2.461  0.4120  0.1041 -0.2296
  229MOL0     C30838   2.615   1.112   2.586  0.4749  0.0021 -0.1188
  229MOL0     O30839   2.704   1.160   2.676 -0.2378  1.0520 -0.7112
  229MOL0     C30840   2.681   1.134   2.817  0.5835 -0.2088 -0.7072
  229MOL0     C30841   2.739   0.995   2.843 -0.5040 -0.4674  0.5338
  229MOL0     C30842   2.896   0.995   2.818  0.5127 -0.1390  1.0715
  229MOL0     C30843   2.967   0.874   2.875 -0.6524  0.4638 -0.2085
  229MOL0     C30844   3.109   0.883   2.860 -0.0230 -0.0899 -0.0247
  229MOL0     C30845   3.230   0.896   2.849  0.5678  0.1689  0.6009
  229MOL0     C30846   2.498   1.040   2.603 -0.6972  0.1277 -0.1526
  229MOL0     C30847   2.404   1.014   2.497  0.3932 -0.1919 -0.2261
  229MOL0     H30848   1.973   0.988   2.312  0.5369  0.3135  0.5032
  229MOL0     H30849   1.795   0.903   2.150 -0.3969 -0.0411 -2.9050
  229MOL0     H30850   1.879   0.871   1.717 -2.2112  1.2027 -0.4033
  229MOL0     H30851   1.917   0.702   1.777 -0.3827 -1.6500  1.0034
  229MOL0     H30852   1.736   0.685   1.623  0.9822 -1.5601  2.0646
  229MOL0     H30853   1.674   0.653   1.784  1.4090 -0.2539  0.8058
  229MOL0     H30854   1.663   0.931   1.638  1.1055 -0.5416  1.6542
  229MOL0     H30855   1.543   0.807   1.628  0.7906 -0.3853 -0.5627
  229MOL0     H30856   1.503   0.819   1.884  0.6412  0.1253  1.0249
  229MOL0     H30857   1.613   0.957   1.880  0.0057  2.3673 -1.9130
  229MOL0     H30858   1.462   1.085   1.728 -0.2436 -1.0658 -3.1232
  229MOL0     H30859   1.368   0.937   1.700  2.9437 -2.6019 -1.3495
  229MOL0     H30860   1.278   0.954   1.921 -0.8597  0.4337 -2.0335
  229MOL0     H30861   1.428   1.036   1.975 -1.0089 -2.1400  1.0371
  229MOL0     H30862   1.272   1.212   1.988  3.6702  0.2422  0.3155
  229MOL0     H30863   1.340   1.244   1.834  0.6215 -0.8118 -1.1867
  229MOL0     H30864   1.104   1.267   1.847  2.2955  0.5574 -0.5516
  229MOL0     H30865   1.084   1.107   1.907  0.6667 -1.2578  0.5711
  229MOL0     H30866   1.043   0.923   1.728 -1.4888  0.2031  1.0706
  229MOL0     H30867   0.839   0.925   1.484  1.4465 -1.0198  3.6569
  229MOL0     H30868   0.935   0.942   1.339  0.0909 -3.2308 -1.0645
  229MOL0     H30869   0.894   0.713   1.409 -2.4319  1.5481  0.2887
  229MOL0     H30870   1.002   0.745   1.558  0.2952  2.1327 -0.0136
  229MOL0     H30871   1.100   0.824   1.269  2.4188 -1.1537 -1.3276
  229MOL0     H30872   1.065   0.656   1.290  0.6422 -0.0934 -0.2987
  229MOL0     H30873   1.267   0.808   1.450 -2.0035  1.7448 -1.4941
  229MOL0     H30874   1.284   0.685   1.327  0.1955 -0.6560 -0.3096
  229MOL0     H30875   1.267   0.446   1.692  1.2708 -3.0292  1.3576
  229MOL0     H30876   1.360   0.239   1.766 -2.4435  3.1944 -0.9014
  229MOL0     H30877   1.537   0.246   1.804  0.1077 -0.8925 -3.8394
  229MOL0     H30878   1.415   0.365   1.870 -4.9042 -0.4041 -1.4848
  229MOL0     H30879   1.920   0.180   1.791 -0.2593  1.2119  1.3443
  229MOL0     H30880   2.194   0.146   1.747  1.4150  0.8436 -1.6684
  229MOL0     H30881   2.368   0.380   1.463 -0.0485 -1.4119 -0.6032
  229MOL0     H30882   2.453   0.469   1.592 -0.9037  0.2224  1.6611
  229MOL0     H30883   2.506   0.209   1.479 -1.0026 -1.4822  3.7702
  229MOL0     H30884   2.604   0.345   1.446  0.7885  2.5776  1.3809
  229MOL0     H30885   2.723   0.196   1.611  1.0575  1.0090  0.6372
  229MOL0     H30886   2.582   0.200   1.717  1.4326 -0.0038  0.8312
  229MOL0     H30887   2.711   0.463   1.623  0.2910  1.4982  0.8485
  229MOL0     H30888   2.613   0.435   1.769  2.5093  1.0907  1.7351
  229MOL0     H30889   2.804   0.336   1.884  0.7505  3.4189  2.6026
  229MOL0     H30890   2.860   0.480   1.804  0.4508  0.2062 -0.8811
  229MOL0     H30891   3.027   0.332   1.768 -0.5017 -0.8409  2.2937
  229MOL0     H30892   2.928   0.190   1.743 -1.1841  0.0523 -3.8761
  229MOL0     H30893   2.996   0.421   1.559 -1.0274  0.8860  2.1908
  229MOL0     H30894   2.860   0.323   1.508 -0.7769  0.2431  0.3112
  229MOL0     H30895   3.132   0.196   1.526  2.0397  0.9965 -1.7782
  229MOL0     H30896   3.042   0.249   1.385 -3.0412  2.1636  1.5292
  229MOL0     H30897   2.189   0.524   1.557 -0.1675  2.4396  1.7641
  229MOL0     H30898   1.946   0.549   1.591 -2.3142 -0.7260  1.0909
  229MOL0     H30899   1.673   0.452   1.401  1.2060  0.3783  1.1093
  229MOL0     H30900   1.465   0.597   1.342 -0.0961  0.4822 -0.0836
  229MOL0     H30901   2.102   0.842   1.844  0.5885 -2.3900  0.1588
  229MOL0     H30902   2.268   0.890   2.018 -0.2215  2.1045  1.2595
  229MOL0     H30903   2.566   1.176   2.259 -0.2681 -0.7072 -0.2533
  229MOL0     H30904   2.726   1.220   2.439  0.2805  1.1155  1.8238
  229MOL0     H30905   2.734   1.212   2.872 -0.0015 -1.0199  1.0560
  229MOL0     H30906   2.575   1.140   2.844  0.4855  1.7839 -1.3612
  229MOL0     H30907   2.685   0.918   2.788  0.5928 -1.6800  1.0778
  229MOL0     H30908   2.718   0.975   2.949 -1.4471 -2.8185 -0.0170
  229MOL0     H30909   2.948   1.083   2.857  2.0434  0.3090 -1.7291
  229MOL0     H30910   2.904   0.996   2.709 -2.7795  0.6979  0.7363
  229MOL0     H30911   2.936   0.797   2.803 -1.1334 -0.0730  0.5657
  229MOL0     H30912   2.935   0.839   2.973 -1.1745 -1.4549 -1.0079
  229MOL0     H30913   3.330   0.923   2.821 -0.8541  3.3403 -2.1448
  229MOL0     H30914   2.478   1.007   2.704 -2.0408 -1.7026 -0.9594
  229MOL0     H30915   2.326   0.943   2.521  0.1806 -0.4833 -1.6865
  230MOL0     O30916   5.356   1.290   3.336 -0.8174  0.2318  0.0502
  230MOL0     C30917   5.371   1.371   3.238 -1.0528  0.1432 -0.6230
  230MOL0     O30918   5.271   1.440   3.182 -0.1520 -0.2031  0.6971
  230MOL0     C30919   5.166   1.474   3.267  0.1747 -0.5245  0.0440
  230MOL0     C30920   5.179   1.599   3.343  0.1522  0.5113  0.9485
  230MOL0     C30921   5.070   1.642   3.416 -0.6056 -0.3827 -0.1094
  230MOL0     C30922   4.957   1.565   3.429  0.7317  0.2409 -0.1218
  230MOL0     O30923   4.857   1.626   3.505 -0.2605 -0.9240  0.6292
  230MOL0     C30924   4.730   1.615   3.445 -0.1083 -0.7358  0.7015
  230MOL0     C30925   4.628   1.711   3.511  0.1310 -0.1345 -0.3288
  230MOL0     C30926   4.518   1.765   3.419  0.8142  0.3728 -0.5298
  230MOL0     C30927   4.436   1.659   3.336 -0.5452 -0.1124  0.1339
  230MOL0     C30928   4.325   1.717   3.247 -0.5613  0.5974  0.3674
  230MOL0     C30929   4.204   1.754   3.322  0.1985  0.7184 -0.0903
  230MOL0     C30930   4.085   1.757   3.223  1.3849  0.1965  0.1295
  230MOL0     C30931   3.949   1.782   3.290  0.6187 -0.0810  0.1898
  230MOL0     N30932   3.920   1.927   3.283 -0.1720 -0.2870  0.7078
  230MOL0     C30933   3.888   1.973   3.155  1.0442  0.3667  0.6558
  230MOL0     C30934   3.894   2.102   3.178 -0.3967 -0.0071 -0.0167
  230MOL0     C30935   3.873   2.205   3.070 -0.0430 -0.6064  0.3771
  230MOL0     C30936   3.727   2.228   3.029 -0.5926 -0.0629  0.6159
  230MOL0     C30937   3.631   2.259   3.146 -0.3291 -0.3849  0.0104
  230MOL0     C30938   3.481   2.274   3.113 -0.1052 -0.4446  0.0907
  230MOL0     O30939   3.453   2.412   3.073  0.6570 -0.7832 -0.6320
  230MOL0     C30940   3.376   2.494   3.155 -0.5905  0.1973 -0.2085
  230MOL0     C30941   3.430   2.540   3.279  0.1319  0.5329  1.1971
  230MOL0     C30942   3.355   2.612   3.370  0.3709 -0.5751  1.1091
  230MOL0     C30943   3.424   2.644   3.502  0.9016 -1.0032  0.2542
  230MOL0     C30944   3.218   2.651   3.331  0.2553  0.3803 -0.6417
  230MOL0     C30945   3.115   2.720   3.416 -0.1037 -0.0738 -0.8510
  230MOL0     O30946   2.984   2.720   3.373 -0.3514 -0.1162  0.0660
  230MOL0     C30947   2.907   2.835   3.378  0.5071 -0.0844  1.0816
  230MOL0     C30948   2.961   2.972   3.374  0.2160  0.9361  0.0278
  230MOL0     C30949   2.876   3.075   3.353  0.2836  0.0134  0.0226
  230MOL0     C30950   2.734   3.056   3.331  0.1215  0.3293 -0.0111
  230MOL0     O30951   2.653   3.167   3.300  0.1872  0.1719  0.8786
  230MOL0     C30952   2.556   3.146   3.198  0.6122  0.2339  0.9790
  230MOL0     C30953   2.599   3.170   3.049  0.3346 -0.1872  0.4547
  230MOL0     C30954   2.664   3.054   2.972  0.7267 -0.1574  0.5051
  230MOL0     C30955   2.565   2.936   2.956 -0.8190 -0.6304  0.2476
  230MOL0     C30956   2.644   2.833   2.875 -0.4724  0.5951 -0.2253
  230MOL0     C30957   2.762   2.779   2.944 -0.4713  0.3375 -0.3506
  230MOL0     C30958   2.824   2.675   2.849  0.0996  0.7580  0.1448
  230MOL0     C30959   2.943   2.611   2.894 -0.1943  0.1339 -0.1394
  230MOL0    Cl30960   2.903   2.484   3.019 -0.2161 -0.5036 -0.3833
  230MOL0     C30961   2.685   2.927   3.339 -0.7379  0.1207 -0.7249
  230MOL0     C30962   2.765   2.817   3.364 -0.2420 -1.2363 -0.8226
  230MOL0     O30963   3.149   2.770   3.527 -0.8667  0.2785 -0.4895
  230MOL0     C30964   3.174   2.604   3.204  1.1036 -0.1547 -0.3934
  230MOL0     C30965   3.247   2.525   3.119 -0.3366  0.2748  0.4059
  230MOL0     N30966   3.932   2.131   3.310  0.5737 -0.3826  0.2311
  230MOL0     N30967   3.953   2.017   3.373 -0.2212 -0.1814 -0.2966
  230MOL0     C30968   4.946   1.441   3.361 -1.1203 -0.4974 -0.3023
  230MOL0     C30969   5.052   1.396   3.283  0.1055  0.0538 -0.7840
  230MOL0     C30970   5.506   1.371   3.171 -0.4563  0.2760  0.5425
  230MOL0     C30971   5.595   1.262   3.185 -0.9304 -0.2197 -0.8198
  230MOL0     C30972   5.710   1.249   3.110  0.2211 -1.0823  0.2320
  230MOL0     C30973   5.754   1.366   3.030  1.3857  0.6553  0.8805
  230MOL0     O30974   5.867   1.370   2.955  0.0894 -0.0460 -0.6281
  230MOL0     C30975   5.959   1.256   2.954  0.5275  0.5555  0.1104
  230MOL0     C30976   6.088   1.282   2.888  0.4784 -0.1183 -0.7954
  230MOL0     C30977   6.179   1.163   2.909 -0.1065 -0.1587  0.6444
  230MOL0     C30978   6.311   1.201   2.847 -0.0663 -0.3943 -0.5879
  230MOL0     C30979   6.387   1.080   2.851  0.7050 -0.5886 -0.2218
  230MOL0     C30980   6.463   0.988   2.856 -0.2590  0.6813 -0.4860
  230MOL0     C30981   5.663   1.471   3.007  0.4002 -0.4643 -0.5735
  230MOL0     C30982   5.541   1.466   3.075 -0.2279 -0.0447 -0.8812
  230MOL0     H30983   5.273   1.654   3.346  0.2131  0.3867  1.6169
  230MOL0     H30984   5.074   1.735   3.473 -1.8946  0.1435 -0.8268
  230MOL0     H30985   4.726   1.629   3.336  1.5679  0.2987  0.7400
  230MOL0     H30986   4.693   1.513   3.459 -2.0797  0.0706  1.6786
  230MOL0     H30987   4.590   1.659   3.600  1.2420  1.8672  1.4116
  230MOL0     H30988   4.682   1.799   3.548  2.3492 -1.7427  0.5031
  230MOL0     H30989   4.447   1.815   3.486  1.5647  1.6440 -0.6591
  230MOL0     H30990   4.573   1.838   3.358  2.6734  1.9257  2.7281
  230MOL0     H30991   4.500   1.596   3.274 -1.5145 -3.2997  2.1449
  230MOL0     H30992   4.390   1.591   3.408  0.2318 -1.2152 -0.3919
  230MOL0     H30993   4.364   1.795   3.181 -0.6158 -1.5724 -2.4153
  230MOL0     H30994   4.296   1.634   3.182 -0.3762  0.2662  0.7063
  230MOL0     H30995   4.196   1.682   3.404 -0.6200  2.7919  1.7458
  230MOL0     H30996   4.223   1.851   3.367  1.0011  0.2657  0.5581
  230MOL0     H30997   4.109   1.816   3.135  1.2026 -0.4058 -0.3299
  230MOL0     H30998   4.083   1.664   3.166  1.1138  1.8969 -2.8024
  230MOL0     H30999   3.949   1.749   3.394 -0.2469 -0.3051  0.1302
  230MOL0     H31000   3.878   1.727   3.228 -0.7668  1.3639  0.4268
  230MOL0     H31001   3.857   1.912   3.071  2.2489  1.2643 -0.4902
  230MOL0     H31002   3.915   2.303   3.094  1.9145 -1.4313  0.5076
  230MOL0     H31003   3.919   2.168   2.978 -1.5508 -0.9319 -0.2781
  230MOL0     H31004   3.686   2.147   2.967 -1.6151  2.2533 -1.9378
  230MOL0     H31005   3.714   2.317   2.967 -1.1129 -0.3162  0.3459
  230MOL0     H31006   3.666   2.352   3.190  0.3557 -0.5301 -0.2066
  230MOL0     H31007   3.647   2.177   3.216  0.1291  1.2062  1.8342
  230MOL0     H31008   3.419   2.259   3.201 -0.6461 -2.1559 -0.5455
  230MOL0     H31009   3.437   2.217   3.031 -0.4509  1.8254 -1.4151
  230MOL0     H31010   3.533   2.517   3.304  0.6656  0.8970 -0.5313
  230MOL0     H31011   3.355   2.642   3.587  0.4702 -2.1255 -0.1088
  230MOL0     H31012   3.501   2.570   3.524  1.3892 -1.3534 -2.3222
  230MOL0     H31013   3.457   2.748   3.493 -1.6318 -0.0767  0.6665
  230MOL0     H31014   3.068   2.984   3.361  0.1400  1.0942 -0.4738
  230MOL0     H31015   2.925   3.172   3.356 -0.6402  0.5020  3.0084
  230MOL0     H31016   2.504   3.050   3.210  1.7304 -0.2836  1.9454
  230MOL0     H31017   2.479   3.222   3.216  0.5080  0.2002  0.6861
  230MOL0     H31018   2.514   3.211   2.994 -0.6253 -1.2721  1.0731
  230MOL0     H31019   2.668   3.254   3.051  1.2170 -0.8839  2.7305
  230MOL0     H31020   2.751   3.021   3.030 -1.8750 -3.6899  2.8323
  230MOL0     H31021   2.696   3.090   2.873 -0.7542  1.0175  0.4279
  230MOL0     H31022   2.533   2.898   3.054  0.7844  4.1065  2.9205
  230MOL0     H31023   2.481   2.965   2.892 -0.2779 -3.2368 -1.8012
  230MOL0     H31024   2.677   2.876   2.780  3.3791  0.2050  0.8058
  230MOL0     H31025   2.579   2.751   2.843  2.0269 -1.3803 -0.4999
  230MOL0     H31026   2.841   2.849   2.974 -0.5437  0.0775  0.4817
  230MOL0     H31027   2.732   2.726   3.035  0.5414  0.8101  0.2761
  230MOL0     H31028   2.851   2.721   2.753  3.1872 -1.1073 -0.0508
  230MOL0     H31029   2.749   2.596   2.836 -0.0295  0.6884  1.2246
  230MOL0     H31030   3.012   2.678   2.945  1.2595  0.4097 -2.3440
  230MOL0     H31031   2.993   2.554   2.816  0.3428  1.4608 -0.8061
  230MOL0     H31032   2.578   2.915   3.322 -0.2833 -0.8976 -3.3794
  230MOL0     H31033   2.723   2.718   3.377  1.3324 -1.5886  3.0483
  230MOL0     H31034   3.071   2.623   3.176  0.7758 -0.7845  0.3710
  230MOL0     H31035   3.195   2.496   3.028 -3.5595  1.0637  1.8617
  230MOL0     H31036   4.857   1.379   3.361 -1.5041  0.0550 -0.4764
  230MOL0     H31037   5.059   1.305   3.224 -1.4320  0.9291 -2.4212
  230MOL0     H31038   5.570   1.178   3.250 -0.5081  1.2044  1.2932
  230MOL0     H31039   5.775   1.162   3.119 -0.2922 -1.3825  1.1156
  230MOL0     H31040   5.977   1.234   3.060  0.8207 -0.7755 -0.1998
  230MOL0     H31041   5.908   1.169   2.915  1.9005 -3.0325  5.2331
  230MOL0     H31042   6.127   1.367   2.945 -0.0913  0.5165 -1.3457
  230MOL0     H31043   6.065   1.296   2.782 -0.0963 -2.2267 -0.9935
  230MOL0     H31044   6.139   1.075   2.858 -3.5013 -0.2974  3.1670
  230MOL0     H31045   6.187   1.143   3.016  2.0787 -0.8253  0.4036
  230MOL0     H31046   6.355   1.283   2.906 -0.8498 -2.5938  3.4526
  230MOL0     H31047   6.304   1.222   2.740  0.3790 -0.5594 -0.6536
  230MOL0     H31048   6.524   0.900   2.867  0.4780  1.0537 -1.3930
  230MOL0     H31049   5.690   1.546   2.933 -0.6919 -0.7100 -1.2398
  230MOL0     H31050   5.473   1.548   3.055 -0.8146 -0.4112 -0.4197
  231MOL0     O31051   7.614   0.557   5.998 -0.3166  0.3315 -0.8556
  231MOL0     C31052   7.592   0.493   5.895 -0.3718 -0.5960 -1.1965
  231MOL0     O31053   7.639   0.371   5.866 -0.9257 -0.8239 -0.3866
  231MOL0     C31054   7.746   0.332   5.945 -0.4101  0.3171  0.8393
  231MOL0     C31055   7.723   0.287   6.075 -0.9046  0.6218  0.4553
  231MOL0     C31056   7.828   0.279   6.176 -0.0015  0.1290  0.6551
  231MOL0     C31057   7.960   0.311   6.138 -0.7466 -0.0292  0.3794
  231MOL0     O31058   8.074   0.282   6.220  0.2465 -0.4699  0.5561
  231MOL0     C31059   8.055   0.323   6.351  0.1422  0.1772 -0.2080
  231MOL0     C31060   8.189   0.359   6.419 -0.5551 -0.3183 -0.8498
  231MOL0     C31061   8.278   0.236   6.423 -0.1870  0.0845 -0.9163
  231MOL0     C31062   8.412   0.272   6.472  0.2133 -0.0009 -0.3211
  231MOL0     C31063   8.499   0.141   6.460  0.2359 -0.4026  0.2632
  231MOL0     C31064   8.652   0.165   6.426  0.0169 -0.4178 -0.4964
  231MOL0     C31065   8.734   0.037   6.419  0.3694 -0.2597 -0.1990
  231MOL0     C31066   8.849   0.064   6.324  0.5000 -0.6062 -0.2104
  231MOL0     N31067   8.809   0.101   6.184 -0.4025  0.0300 -0.4874
  231MOL0     C31068   8.725   0.018   6.111 -0.5268  0.3197  0.4011
  231MOL0     C31069   8.725   0.075   5.987  0.0909  0.1501 -0.2121
  231MOL0     C31070   8.620   0.036   5.887 -0.3626  0.0348 -0.7066
  231MOL0     C31071   8.479   0.007   5.946 -0.2033 -0.4147 -0.5203
  231MOL0     C31072   8.383  -0.002   5.829 -0.0016  0.5269 -0.4352
  231MOL0     C31073   8.239   0.009   5.876 -0.8952  0.5180 -0.2057
  231MOL0     O31074   8.150   0.021   5.773 -0.0220 -0.2195  0.9165
  231MOL0     C31075   8.017   0.018   5.810 -0.3278 -0.5571  0.2102
  231MOL0     C31076   7.953  -0.028   5.926 -0.2130 -0.6133 -0.7906
  231MOL0     C31077   7.815  -0.042   5.948 -0.9161  0.6234 -0.2474
  231MOL0     C31078   7.776  -0.096   6.077 -0.2289  0.3617 -0.2821
  231MOL0     C31079   7.735   0.009   5.842  0.2265 -0.9576 -0.0927
  231MOL0     C31080   7.589   0.006   5.858  0.4880  0.2277  0.5175
  231MOL0     O31081   7.519   0.078   5.757 -0.2532  0.3326  0.1194
  231MOL0     C31082   7.392   0.115   5.775  0.7010 -1.0749 -0.1659
  231MOL0     C31083   7.303   0.119   5.668 -0.1318 -0.3372 -0.2420
  231MOL0     C31084   7.175   0.176   5.683 -0.6164  0.9776 -0.6725
  231MOL0     C31085   7.130   0.232   5.807 -0.2866 -0.1827  0.2345
  231MOL0     O31086   7.006   0.289   5.800 -0.5783  0.0265  0.2354
  231MOL0     C31087   6.919   0.240   5.909 -1.3731 -0.4310  0.4209
  231MOL0     C31088   6.825   0.355   5.924 -0.2624 -0.1365  1.3438
  231MOL0     C31089   6.896   0.465   5.991  0.1651 -0.4093  0.3272
  231MOL0     C31090   6.792   0.564   6.055  0.2603 -0.7452  0.1410
  231MOL0     C31091   6.852   0.682   6.139 -0.5509 -0.1044 -0.7072
  231MOL0     C31092   6.933   0.632   6.263 -0.0233  0.3065  0.3511
  231MOL0     C31093   6.865   0.525   6.347  0.1547 -0.7401  0.8818
  231MOL0     C31094   6.916   0.525   6.485  0.4635 -0.1696  0.1396
  231MOL0    Cl31095   6.839   0.416   6.591 -0.0272  0.2062 -0.1193
  231MOL0     C31096   7.228   0.244   5.911 -0.2171 -0.7925 -1.1194
  231MOL0     C31097   7.354   0.183   5.893 -0.0941  0.1966  0.5857
  231MOL0     O31098   7.534  -0.060   5.945 -0.1901  1.2940 -0.9391
  231MOL0     C31099   7.796   0.057   5.726 -0.3939 -0.6340 -0.1278
  231MOL0     C31100   7.931   0.053   5.709 -1.3198  0.5007  0.0226
  231MOL0     N31101   8.812   0.184   5.984 -0.3391 -0.2616  0.5635
  231MOL0     N31102   8.871   0.196   6.104  0.0076  0.4780  0.0775
  231MOL0     C31103   7.985   0.342   6.002 -0.2006 -0.1081 -0.2400
  231MOL0     C31104   7.882   0.363   5.905 -0.1768  0.0560 -0.8794
  231MOL0     C31105   7.494   0.555   5.807  1.1475 -0.1156  0.0502
  231MOL0     C31106   7.404   0.658   5.846  0.4213  0.6819  0.0121
  231MOL0     C31107   7.288   0.685   5.772  1.0645  0.6184  0.3582
  231MOL0     C31108   7.271   0.633   5.642 -0.1907 -0.2184  0.0840
  231MOL0     O31109   7.158   0.685   5.576  0.0256 -0.0150  1.0519
  231MOL0     C31110   7.089   0.616   5.467  0.7881  0.2930  0.5465
  231MOL0     C31111   6.994   0.521   5.531  0.0601  0.6220  0.8739
  231MOL0     C31112   6.903   0.456   5.424 -0.3306  0.5476  0.3187
  231MOL0     C31113   6.786   0.383   5.488  0.2438  0.1746 -0.6762
  231MOL0     C31114   6.819   0.245   5.518 -0.7047  1.3119  0.3673
  231MOL0     C31115   6.831   0.126   5.546  0.2021  0.7750  0.4910
  231MOL0     C31116   7.368   0.534   5.597 -0.3734 -0.3964  0.6214
  231MOL0     C31117   7.478   0.497   5.676 -0.9562 -0.0812  0.3789
  231MOL0     H31118   7.622   0.259   6.100 -0.4751 -1.7058 -0.1711
  231MOL0     H31119   7.803   0.260   6.280 -0.8006 -1.3261  0.2337
  231MOL0     H31120   7.984   0.406   6.353 -1.9512 -1.5157 -1.1169
  231MOL0     H31121   8.008   0.241   6.405  1.3012 -1.8898 -2.1979
  231MOL0     H31122   8.244   0.434   6.360 -3.5947  2.5563 -0.3601
  231MOL0     H31123   8.171   0.395   6.520  0.6336  1.4631 -1.2204
  231MOL0     H31124   8.234   0.168   6.497  0.0657 -1.0231 -1.7617
  231MOL0     H31125   8.276   0.184   6.327  0.1078 -0.3917 -0.6692
  231MOL0     H31126   8.444   0.360   6.415 -1.8257 -0.9000 -3.0629
  231MOL0     H31127   8.416   0.301   6.577  2.7248  0.8267 -0.5685
  231MOL0     H31128   8.482   0.089   6.554  4.2514  1.2609  2.1380
  231MOL0     H31129   8.455   0.075   6.384  1.4704 -0.7627 -0.1631
  231MOL0     H31130   8.666   0.227   6.337 -0.0033  0.0566 -0.1719
  231MOL0     H31131   8.696   0.230   6.502 -0.2904  0.2457 -0.8783
  231MOL0     H31132   8.774   0.017   6.519 -0.7441  1.0099  0.5347
  231MOL0     H31133   8.674  -0.049   6.388 -0.5358 -2.4674  6.1141
  231MOL0     H31134   8.910  -0.026   6.331 -1.0133 -1.5509  2.1924
  231MOL0     H31135   8.908   0.147   6.364 -1.6048  1.1289 -0.5227
  231MOL0     H31136   8.675  -0.077   6.130 -1.2030  0.2730 -1.4019
  231MOL0     H31137   8.617   0.116   5.811 -1.7625 -1.4415 -2.3118
  231MOL0     H31138   8.658  -0.061   5.854 -1.4093 -1.4684  2.2087
  231MOL0     H31139   8.456   0.087   6.016 -2.3382  0.6508 -2.2927
  231MOL0     H31140   8.476  -0.087   6.002  1.7105 -0.0530  0.2726
  231MOL0     H31141   8.392  -0.091   5.766  1.7853  0.4967 -0.1887
  231MOL0     H31142   8.398   0.086   5.767  0.0794 -1.6528 -3.7578
  231MOL0     H31143   8.226   0.095   5.943  0.6414 -0.1259  0.9612
  231MOL0     H31144   8.219  -0.075   5.942  2.4851  0.9159  1.5368
  231MOL0     H31145   8.013  -0.071   6.005 -0.3209  1.5504  0.5612
  231MOL0     H31146   7.702  -0.177   6.069  0.7310 -0.7613  1.5079
  231MOL0     H31147   7.864  -0.145   6.120  1.2002  1.5343 -1.7542
  231MOL0     H31148   7.738  -0.016   6.141 -1.2811  0.6767 -1.2618
  231MOL0     H31149   7.334   0.089   5.568  1.1808  1.2482 -0.3547
  231MOL0     H31150   7.114   0.182   5.593  1.2686  2.3350 -1.9492
  231MOL0     H31151   6.877   0.144   5.879  0.9476 -0.7647 -2.0860
  231MOL0     H31152   6.977   0.227   6.001  1.2364  0.1092 -1.0800
  231MOL0     H31153   6.776   0.385   5.831 -1.3837  0.5200  2.1283
  231MOL0     H31154   6.736   0.320   5.976 -2.3080  0.1910 -1.6877
  231MOL0     H31155   6.954   0.512   5.911  0.4780 -0.6376  0.4194
  231MOL0     H31156   6.960   0.426   6.071  0.8044  1.2384  0.6664
  231MOL0     H31157   6.740   0.615   5.973 -2.7096  0.3548  2.5349
  231MOL0     H31158   6.712   0.514   6.110 -0.5092  0.5872  0.2590
  231MOL0     H31159   6.772   0.747   6.173  0.4553  0.9447 -0.2714
  231MOL0     H31160   6.917   0.734   6.067 -0.8659  0.4201 -0.6150
  231MOL0     H31161   7.031   0.593   6.234  0.4970  0.8207  1.3736
  231MOL0     H31162   6.951   0.716   6.330  0.8990  1.5358 -1.3793
  231MOL0     H31163   6.883   0.435   6.288  1.5350  1.0474 -1.6184
  231MOL0     H31164   6.757   0.543   6.344  0.4933  1.4729 -0.9368
  231MOL0     H31165   6.919   0.625   6.528  2.8731 -0.4792  0.8685
  231MOL0     H31166   7.020   0.492   6.476  0.4127  0.1124 -1.9819
  231MOL0     H31167   7.207   0.301   6.000  3.1986 -0.9274 -0.0983
  231MOL0     H31168   7.428   0.208   5.969  2.2498  2.1553 -2.1110
  231MOL0     H31169   7.735   0.088   5.642  2.0068  1.0530 -1.3627
  231MOL0     H31170   7.968   0.107   5.622 -1.5504 -3.0622 -2.5173
  231MOL0     H31171   8.087   0.374   5.983  0.4605 -2.3261 -0.6150
  231MOL0     H31172   7.895   0.412   5.809  1.3340 -4.9708 -3.6382
  231MOL0     H31173   7.418   0.705   5.943  2.2118 -0.7214  0.4895
  231MOL0     H31174   7.206   0.744   5.813  0.5116  0.8368 -1.0024
  231MOL0     H31175   7.049   0.695   5.402 -0.1231 -0.5817  0.0093
  231MOL0     H31176   7.156   0.546   5.416  0.1477  0.4483 -0.5403
  231MOL0     H31177   6.936   0.568   5.611  0.5219  1.8605  0.5069
  231MOL0     H31178   7.055   0.446   5.583  0.2822  0.0419 -0.1870
  231MOL0     H31179   6.962   0.383   5.368 -0.0532  0.5356  0.6260
  231MOL0     H31180   6.872   0.537   5.357  2.1191  1.3382  0.0628
  231MOL0     H31181   6.702   0.400   5.419 -0.2483  0.4953 -0.0031
  231MOL0     H31182   6.764   0.428   5.585 -1.0517  1.5193 -1.5492
  231MOL0     H31183   6.841   0.029   5.591  0.3575  0.7898  0.4867
  231MOL0     H31184   7.354   0.497   5.496  1.8052 -1.0986  0.5323
  231MOL0     H31185   7.558   0.430   5.645 -1.0699 -0.2538  0.4620
  232MOL0     O31186   1.232   3.590   7.451  0.5303 -0.4050  0.2302
  232MOL0     C31187   1.193   3.513   7.542 -0.8484  0.6346  0.7918
  232MOL0     O31188   1.274   3.420   7.607  0.1895  0.2358  0.2302
  232MOL0     C31189   1.403   3.409   7.565  0.4826 -0.6733 -0.5146
  232MOL0     C31190   1.511   3.486   7.621  0.1792 -0.8415 -0.2360
  232MOL0     C31191   1.639   3.472   7.570 -0.0890 -0.1596 -0.1435
  232MOL0     C31192   1.666   3.393   7.459  0.6296 -0.3175  0.1948
  232MOL0     O31193   1.790   3.391   7.418  0.2746  0.4252  0.0030
  232MOL0     C31194   1.821   3.307   7.318 -0.1027  0.0516  0.5785
  232MOL0     C31195   1.954   3.339   7.256 -0.8146  0.5202 -0.0611
  232MOL0     C31196   1.967   3.479   7.203 -0.0074  0.2922  0.0819
  232MOL0     C31197   1.936   3.487   7.049  0.0797  0.8803 -0.8110
  232MOL0     C31198   1.784   3.497   7.009  0.1775  0.8435  0.5896
  232MOL0     C31199   1.698   3.589   7.094  0.0098  0.4093  0.4140
  232MOL0     C31200   1.555   3.612   7.045 -0.2625 -0.2399 -0.3616
  232MOL0     C31201   1.470   3.485   7.041 -0.6058 -0.0290  0.0843
  232MOL0     N31202   1.324   3.506   7.022 -0.2768 -0.1994  0.2372
  232MOL0     C31203   1.244   3.576   7.111 -0.3811  0.0906  0.9137
  232MOL0     C31204   1.124   3.592   7.045  0.4456  0.3088  0.3220
  232MOL0     C31205   1.014   3.663   7.113  0.2723  0.4427 -0.4483
  232MOL0     C31206   1.040   3.808   7.142 -0.4860 -1.2192 -0.6436
  232MOL0     C31207   0.916   3.903   7.155 -0.0116  0.2300  0.0254
  232MOL0     C31208   0.796   3.837   7.216 -0.0909  0.9711 -0.3780
  232MOL0     O31209   0.689   3.934   7.225 -0.4775  0.1487 -0.0417
  232MOL0     C31210   0.589   3.896   7.318 -0.4148  0.2602  0.0804
  232MOL0     C31211   0.629   3.909   7.456  0.1283  0.7156 -0.0387
  232MOL0     C31212   0.538   3.878   7.559 -1.0257 -0.0892 -0.2120
  232MOL0     C31213   0.590   3.886   7.701  0.4946  0.0307  0.1334
  232MOL0     C31214   0.414   3.817   7.524 -1.1055  0.5796  0.2538
  232MOL0     C31215   0.300   3.787   7.616 -0.3714  0.6490 -0.4080
  232MOL0     O31216   0.214   3.686   7.583  0.2180  1.0511 -0.2649
  232MOL0     C31217   0.095   3.681   7.656 -0.2368  0.9285 -0.3865
  232MOL0     C31218   0.081   3.674   7.797 -0.3408  0.1410  0.5405
  232MOL0     C31219  -0.051   3.651   7.861  0.1091  0.2991 -0.5700
  232MOL0     C31220  -0.165   3.638   7.779 -0.4295  0.6438  0.6450
  232MOL0     O31221  -0.284   3.617   7.838 -0.0072  0.5529  1.1535
  232MOL0     C31222  -0.395   3.567   7.766  0.1938  0.3854  0.1461
  232MOL0     C31223  -0.374   3.425   7.697  0.1170 -0.5590  0.3062
  232MOL0     C31224  -0.309   3.321   7.794 -0.6427 -0.6244  0.6126
  232MOL0     C31225  -0.354   3.178   7.794  0.0793 -0.9696 -1.0800
  232MOL0     C31226  -0.329   3.106   7.660 -0.7405 -0.3111 -0.3127
  232MOL0     C31227  -0.353   2.955   7.679  0.5224  0.2992 -0.8460
  232MOL0     C31228  -0.314   2.894   7.551 -0.2118 -0.3042 -0.3436
  232MOL0     C31229  -0.360   2.757   7.503  0.2935  0.2001 -0.1331
  232MOL0    Cl31230  -0.538   2.760   7.459 -0.1557 -0.3436  0.1347
  232MOL0     C31231  -0.140   3.656   7.641  0.3290  0.3523  0.4626
  232MOL0     C31232  -0.017   3.674   7.578 -0.5248  0.7651 -0.1714
  232MOL0     O31233   0.288   3.852   7.719 -0.0482  0.0828 -0.5086
  232MOL0     C31234   0.386   3.793   7.384  0.3326  0.4003 -0.0778
  232MOL0     C31235   0.470   3.832   7.284 -0.4500 -0.3396 -0.1238
  232MOL0     N31236   1.136   3.526   6.922  0.0214  0.1989 -0.5602
  232MOL0     N31237   1.257   3.482   6.907 -0.0386 -0.4501  0.7209
  232MOL0     C31238   1.559   3.320   7.402 -0.1538  1.0722 -0.0679
  232MOL0     C31239   1.428   3.324   7.457 -0.5766 -0.0752  0.1026
  232MOL0     C31240   1.045   3.511   7.576 -0.0607 -0.2462  0.3348
  232MOL0     C31241   0.945   3.581   7.504 -0.3044 -0.5919  0.0071
  232MOL0     C31242   0.811   3.582   7.548 -0.2830  0.4796 -0.0786
  232MOL0     C31243   0.777   3.489   7.643  0.6127 -0.0203 -0.6545
  232MOL0     O31244   0.639   3.475   7.676  0.1182 -0.5843 -0.8639
  232MOL0     C31245   0.603   3.476   7.816  0.4022  0.2225  0.2073
  232MOL0     C31246   0.456   3.520   7.834  0.1862  0.5739 -0.0519
  232MOL0     C31247   0.357   3.405   7.795  0.1222 -0.5845 -0.7496
  232MOL0     C31248   0.342   3.357   7.647  0.0587 -0.7619  0.1861
  232MOL0     C31249   0.201   3.310   7.610 -0.6224 -0.1166 -0.1764
  232MOL0     C31250   0.083   3.308   7.587 -0.7086  0.0871 -0.6496
  232MOL0     C31251   0.867   3.413   7.715  0.3781 -0.4118 -1.0565
  232MOL0     C31252   1.002   3.423   7.682  0.2746 -0.0831 -0.1305
  232MOL0     H31253   1.499   3.556   7.702 -1.6691  0.8052 -1.8230
  232MOL0     H31254   1.729   3.511   7.616  1.7771 -0.7426 -3.0816
  232MOL0     H31255   1.819   3.205   7.357 -1.8016  0.2403  1.0853
  232MOL0     H31256   1.750   3.316   7.236 -3.7745  0.2756  3.5241
  232MOL0     H31257   2.018   3.338   7.345  1.4898  0.6911 -1.6581
  232MOL0     H31258   1.985   3.262   7.185  1.2868  0.1738  1.1330
  232MOL0     H31259   1.919   3.553   7.268 -2.4436 -2.2309  1.3873
  232MOL0     H31260   2.071   3.509   7.214  0.5614 -2.2422  2.7971
  232MOL0     H31261   1.986   3.579   7.018 -0.7834  1.3688 -0.7730
  232MOL0     H31262   1.984   3.404   6.995  0.7510  0.2684  0.6909
  232MOL0     H31263   1.784   3.527   6.904  1.2487 -1.0389 -0.0037
  232MOL0     H31264   1.744   3.395   7.013  2.9164 -0.2662  3.3226
  232MOL0     H31265   1.689   3.558   7.198  0.9238  1.5915  0.8733
  232MOL0     H31266   1.757   3.682   7.096 -0.6064  0.8157 -0.1470
  232MOL0     H31267   1.506   3.686   7.108 -2.6577 -0.3091 -2.0322
  232MOL0     H31268   1.563   3.660   6.946 -2.7369  2.2241  0.5258
  232MOL0     H31269   1.488   3.417   7.125 -3.8689 -1.6324 -0.3536
  232MOL0     H31270   1.518   3.429   6.960  2.6151 -0.6798  2.2565
  232MOL0     H31271   1.284   3.610   7.206  3.7869 -0.1552 -0.5368
  232MOL0     H31272   0.923   3.640   7.055  0.2050  1.1098 -0.6129
  232MOL0     H31273   0.999   3.616   7.210 -0.0765 -0.8079 -1.0833
  232MOL0     H31274   1.113   3.851   7.073 -1.9634 -0.8202 -2.0311
  232MOL0     H31275   1.092   3.811   7.238 -0.1877  0.7549 -0.8297
  232MOL0     H31276   0.894   3.934   7.052  0.9645  2.4174  0.4275
  232MOL0     H31277   0.947   3.989   7.214  1.0482  0.3152 -0.6175
  232MOL0     H31278   0.826   3.788   7.310 -0.3250 -0.3756 -0.9742
  232MOL0     H31279   0.759   3.750   7.160 -1.3440  0.5289  1.0372
  232MOL0     H31280   0.728   3.939   7.488  0.9950 -1.8531 -0.0535
  232MOL0     H31281   0.518   3.931   7.770  1.4762  1.7771  0.0718
  232MOL0     H31282   0.627   3.788   7.732  1.0522  0.5503  1.1539
  232MOL0     H31283   0.686   3.937   7.710  1.5773 -1.9844  0.6911
  232MOL0     H31284   0.173   3.664   7.853  0.4970 -3.4966 -1.1738
  232MOL0     H31285  -0.060   3.644   7.969 -2.1286 -0.8562 -0.7591
  232MOL0     H31286  -0.479   3.550   7.833  1.7956 -1.8136  1.7704
  232MOL0     H31287  -0.425   3.639   7.689  0.6664 -0.5047 -0.9081
  232MOL0     H31288  -0.472   3.389   7.664 -1.5080  0.6807  3.3397
  232MOL0     H31289  -0.318   3.437   7.604 -0.6943 -2.4881 -0.4872
  232MOL0     H31290  -0.322   3.361   7.895 -2.4279  2.5123 -0.7052
  232MOL0     H31291  -0.203   3.328   7.770 -0.0258 -1.9683  2.6774
  232MOL0     H31292  -0.318   3.123   7.882 -0.3356  0.1724 -0.1779
  232MOL0     H31293  -0.461   3.185   7.817  0.3904  2.4955 -0.1340
  232MOL0     H31294  -0.223   3.114   7.635 -0.3529  0.6373  1.4367
  232MOL0     H31295  -0.391   3.143   7.578 -0.7766 -0.0280 -0.1575
  232MOL0     H31296  -0.302   2.907   7.763 -0.1671  1.8491  0.5095
  232MOL0     H31297  -0.462   2.940   7.681  0.1730  2.1965 -2.3935
  232MOL0     H31298  -0.206   2.902   7.536 -0.1732  2.0274  0.7372
  232MOL0     H31299  -0.353   2.955   7.468  0.9384 -2.0602 -2.2809
  232MOL0     H31300  -0.346   2.680   7.579  1.3876 -0.5430 -1.0414
  232MOL0     H31301  -0.299   2.728   7.416  0.1363  1.4854 -0.6964
  232MOL0     H31302  -0.221   3.665   7.569 -0.4396 -1.9868  0.9420
  232MOL0     H31303  -0.007   3.701   7.473 -1.0494  1.4237 -0.0589
  232MOL0     H31304   0.297   3.737   7.359  0.0969 -1.1892  3.7416
  232MOL0     H31305   0.453   3.802   7.181 -0.1964  1.1691 -0.6374
  232MOL0     H31306   1.576   3.257   7.316  7.4889  1.9093  0.2173
  232MOL0     H31307   1.340   3.272   7.420  0.0650 -0.0741 -1.4988
  232MOL0     H31308   0.973   3.658   7.433  1.9074  0.9820  2.4085
  232MOL0     H31309   0.726   3.633   7.503 -1.1414 -0.3496  0.5722
  232MOL0     H31310   0.619   3.373   7.849 -4.4069 -0.4852  1.0492
  232MOL0     H31311   0.665   3.551   7.866 -1.1807  1.1239  0.9027
  232MOL0     H31312   0.448   3.603   7.762 -2.6003  1.5841  1.2560
  232MOL0     H31313   0.441   3.551   7.938  1.6926 -1.5603  0.8729
  232MOL0     H31314   0.261   3.451   7.818  1.2287  0.5965  1.9105
  232MOL0     H31315   0.360   3.322   7.867 -0.0096 -1.4413 -1.6962
  232MOL0     H31316   0.414   3.279   7.620 -0.5921 -2.3182  2.6113
  232MOL0     H31317   0.363   3.446   7.586 -0.9805 -0.6544 -0.0344
  232MOL0     H31318  -0.022   3.307   7.566 -0.7263  0.5001 -0.5840
  232MOL0     H31319   0.837   3.340   7.790 -3.0695  1.6627 -0.1965
  232MOL0     H31320   1.076   3.365   7.737  1.4054 -1.0324 -2.4663
  233MOL0     O31321   4.097   7.296   4.208 -0.2222 -0.9344  0.5379
  233MOL0     C31322   4.053   7.331   4.318  0.1283  0.1616  1.2968
  233MOL0     O31323   4.120   7.337   4.434  0.8219  0.2818 -0.3483
  233MOL0     C31324   4.252   7.312   4.456 -0.3358  0.3527  0.2585
  233MOL0     C31325   4.343   7.419   4.489  0.1262  1.0224 -0.1508
  233MOL0     C31326   4.473   7.389   4.514 -0.2480  0.1512  0.6475
  233MOL0     C31327   4.512   7.256   4.504 -0.4648 -0.2088  0.3077
  233MOL0     O31328   4.644   7.228   4.531  0.5781  0.4680  0.3464
  233MOL0     C31329   4.733   7.275   4.424  1.3831  1.1593  0.2000
  233MOL0     C31330   4.853   7.192   4.411  0.1226 -0.6670  0.8216
  233MOL0     C31331   4.830   7.039   4.391 -0.6304 -0.7345 -0.2681
  233MOL0     C31332   4.787   6.992   4.248 -0.6279  0.0226  0.0392
  233MOL0     C31333   4.647   7.032   4.211  0.0815 -0.6733 -0.0982
  233MOL0     C31334   4.606   6.960   4.088  1.1623 -0.4441  0.9813
  233MOL0     C31335   4.479   7.013   4.013 -0.4930 -0.3438  0.1056
  233MOL0     C31336   4.355   7.009   4.103 -0.2762  0.1759  0.2743
  233MOL0     N31337   4.234   7.003   4.028  0.4386  0.2592  0.2404
  233MOL0     C31338   4.156   7.110   3.985 -0.0713  0.3057  0.7884
  233MOL0     C31339   4.048   7.056   3.917 -0.6585 -0.2781  0.4971
  233MOL0     C31340   3.952   7.142   3.844  0.1836  0.7675  1.0504
  233MOL0     C31341   3.797   7.105   3.856 -0.1768 -0.4164 -0.3178
  233MOL0     C31342   3.766   6.957   3.853  0.1238  0.0102  0.1394
  233MOL0     C31343   3.612   6.930   3.824 -1.1885  0.4043 -0.2866
  233MOL0     O31344   3.537   6.986   3.928 -0.0144  0.3240 -0.8082
  233MOL0     C31345   3.403   6.981   3.932 -0.0755 -0.3896 -0.0314
  233MOL0     C31346   3.325   6.901   3.849 -0.7675  0.0452 -1.1667
  233MOL0     C31347   3.181   6.900   3.855 -0.8154 -0.6412  0.2323
  233MOL0     C31348   3.110   6.806   3.761  0.4608 -0.8799 -0.3493
  233MOL0     C31349   3.125   7.005   3.930 -1.0246  0.7320 -0.1219
  233MOL0     C31350   2.986   7.033   3.907 -0.4462 -0.8970 -0.7922
  233MOL0     O31351   2.908   7.010   4.020  0.3415 -0.0276 -0.1754
  233MOL0     C31352   2.780   7.052   4.021 -0.4837 -0.2244  0.7777
  233MOL0     C31353   2.686   6.950   4.027  0.0331  1.0006 -0.6628
  233MOL0     C31354   2.553   6.988   4.041  1.0291  0.4189 -0.1262
  233MOL0     C31355   2.504   7.117   4.026  0.2227 -0.3053 -0.8092
  233MOL0     O31356   2.366   7.130   4.025 -0.4592  0.6495  0.0920
  233MOL0     C31357   2.322   7.261   3.998  0.2345  0.0434  0.2662
  233MOL0     C31358   2.336   7.359   4.118  0.5821  0.2419  0.0866
  233MOL0     C31359   2.348   7.511   4.082  1.3348  0.2847  0.4918
  233MOL0     C31360   2.238   7.555   3.975  0.0333 -0.1823 -0.7852
  233MOL0     C31361   2.240   7.711   3.971  0.8060 -0.6092 -0.0461
  233MOL0     C31362   2.100   7.775   3.942  0.0891  0.3017 -0.1323
  233MOL0     C31363   2.059   7.766   3.793  0.2858  0.2855  0.0073
  233MOL0     C31364   1.947   7.871   3.768 -0.3864 -0.4874  0.0125
  233MOL0    Cl31365   1.792   7.843   3.849 -0.3596 -0.2114  0.2653
  233MOL0     C31366   2.595   7.214   4.011  0.2470  0.1063 -0.0501
  233MOL0     C31367   2.740   7.189   3.996 -0.4950  0.3075  0.4343
  233MOL0     O31368   2.945   7.082   3.806 -0.2411 -0.1899  0.5880
  233MOL0     C31369   3.208   7.096   4.003 -0.0988  0.1933  0.2882
  233MOL0     C31370   3.345   7.079   4.007 -0.3454 -0.8311 -0.0146
  233MOL0     N31371   4.072   6.917   3.905 -1.1003  0.1870  0.1361
  233MOL0     N31372   4.179   6.889   3.970 -1.3048  0.6503  0.6591
  233MOL0     C31373   4.424   7.151   4.476  0.6604  0.4816  0.0460
  233MOL0     C31374   4.294   7.180   4.450 -0.0747 -0.0024 -0.1864
  233MOL0     C31375   3.909   7.359   4.324 -0.5869  0.3913 -0.0434
  233MOL0     C31376   3.829   7.347   4.211  1.4277 -0.1272  0.0525
  233MOL0     C31377   3.690   7.366   4.218  1.0643 -0.5453  0.3091
  233MOL0     C31378   3.623   7.396   4.333  0.4535 -0.0418 -0.7188
  233MOL0     O31379   3.482   7.397   4.341 -0.5521 -0.2029  0.7854
  233MOL0     C31380   3.403   7.394   4.460 -0.2216  0.1337  0.1045
  233MOL0     C31381   3.358   7.255   4.463  0.8000 -0.4039 -0.0164
  233MOL0     C31382   3.242   7.219   4.371 -0.5178  0.1079  0.4507
  233MOL0     C31383   3.154   7.111   4.426 -0.3002  0.7546 -0.3559
  233MOL0     C31384   3.069   7.165   4.536  0.0229 -0.2441  0.6786
  233MOL0     C31385   3.020   7.196   4.649  0.2803  0.6694 -0.0156
  233MOL0     C31386   3.701   7.403   4.449 -1.3238 -0.4374 -0.2686
  233MOL0     C31387   3.844   7.391   4.441  0.0463  0.2483 -0.3789
  233MOL0     H31388   4.307   7.521   4.489 -3.9101 -0.2415  0.4111
  233MOL0     H31389   4.537   7.473   4.539 -0.6749  1.4608 -2.2943
  233MOL0     H31390   4.680   7.278   4.328  3.4499 -1.2060 -1.1513
  233MOL0     H31391   4.766   7.375   4.453  0.9088  1.6369 -0.8718
  233MOL0     H31392   4.921   7.219   4.329 -1.1245  0.6032  0.1731
  233MOL0     H31393   4.904   7.204   4.507 -2.3913  1.2461  2.0395
  233MOL0     H31394   4.915   6.975   4.412 -1.0899 -0.4495  2.8667
  233MOL0     H31395   4.748   7.004   4.455  0.6588  2.2625  3.3758
  233MOL0     H31396   4.859   7.024   4.172  1.3414 -1.7014  1.0685
  233MOL0     H31397   4.799   6.884   4.263  0.2115  0.1522  0.3436
  233MOL0     H31398   4.580   7.017   4.296 -1.4182 -0.6681 -1.2393
  233MOL0     H31399   4.624   7.138   4.199 -4.1771 -1.4098 -0.1268
  233MOL0     H31400   4.692   6.953   4.021  0.6715  0.1257  0.2712
  233MOL0     H31401   4.586   6.857   4.118 -2.0185 -0.2560 -0.1540
  233MOL0     H31402   4.493   7.113   3.970 -3.1473 -0.0977 -0.3432
  233MOL0     H31403   4.457   6.943   3.932 -0.8726  1.1812 -1.1533
  233MOL0     H31404   4.353   7.098   4.166  0.7807 -1.7366  3.2478
  233MOL0     H31405   4.346   6.918   4.164 -0.3101 -1.1463 -1.6253
  233MOL0     H31406   4.178   7.214   4.006  6.3105 -0.8652  1.9772
  233MOL0     H31407   3.971   7.243   3.882 -0.2612  0.0283  3.4247
  233MOL0     H31408   3.972   7.149   3.737 -3.1796  0.3009  0.2780
  233MOL0     H31409   3.736   7.150   3.777 -0.4202 -2.6587 -1.4963
  233MOL0     H31410   3.759   7.145   3.950 -0.0423 -0.2135 -0.3497
  233MOL0     H31411   3.807   6.922   3.948  2.1323  0.2166 -0.5992
  233MOL0     H31412   3.829   6.909   3.778  0.6163 -0.7149  0.9969
  233MOL0     H31413   3.596   6.821   3.828 -1.1776  0.3864  3.6224
  233MOL0     H31414   3.602   6.981   3.728  0.4662 -0.1488 -0.7926
  233MOL0     H31415   3.374   6.830   3.782 -3.6407 -1.1759 -2.1369
  233MOL0     H31416   3.096   6.865   3.669  1.3151  0.5683  0.4055
  233MOL0     H31417   3.167   6.714   3.746 -0.6758 -1.4691 -1.1544
  233MOL0     H31418   3.008   6.798   3.800 -0.3092  0.5202 -1.9249
  233MOL0     H31419   2.718   6.852   4.058 -0.3135  0.8915 -0.6421
  233MOL0     H31420   2.483   6.905   4.046  0.9347  0.4262 -1.1441
  233MOL0     H31421   2.350   7.290   3.897  0.1918  0.2143  0.3020
  233MOL0     H31422   2.217   7.244   3.970  0.4985  0.4360 -1.0283
  233MOL0     H31423   2.251   7.341   4.185  1.6772 -0.8105  1.2344
  233MOL0     H31424   2.427   7.325   4.167  2.3188  1.7617 -1.9380
  233MOL0     H31425   2.446   7.534   4.038  0.7386  0.5945 -0.7205
  233MOL0     H31426   2.342   7.571   4.174 -0.5744  0.0103  0.5885
  233MOL0     H31427   2.258   7.510   3.877 -1.1486 -1.2756 -0.5578
  233MOL0     H31428   2.144   7.516   4.015  0.8809  1.4159  3.1908
  233MOL0     H31429   2.313   7.746   3.897  0.8696 -2.4127 -0.8734
  233MOL0     H31430   2.265   7.760   4.066  1.6239 -1.0651 -0.0162
  233MOL0     H31431   2.032   7.710   3.997  3.0407 -0.7205  2.6022
  233MOL0     H31432   2.101   7.876   3.982  2.1282  0.5667 -0.7215
  233MOL0     H31433   2.021   7.667   3.764  1.3432  0.0461 -0.5989
  233MOL0     H31434   2.144   7.798   3.732 -0.7642 -0.0024 -1.6714
  233MOL0     H31435   1.929   7.872   3.660 -0.0417  0.8571 -0.0500
  233MOL0     H31436   1.989   7.967   3.799 -0.9327  1.0045 -3.3830
  233MOL0     H31437   2.570   7.319   3.998 -2.3051 -0.6416 -2.0944
  233MOL0     H31438   2.806   7.274   3.982  0.1936 -0.5094 -1.5636
  233MOL0     H31439   3.161   7.173   4.064  2.1465 -0.8339  3.5905
  233MOL0     H31440   3.405   7.150   4.062  0.0398 -1.0659 -0.1292
  233MOL0     H31441   4.467   7.053   4.461  0.8433  1.0326 -4.2971
  233MOL0     H31442   4.230   7.098   4.422 -0.6231 -0.4289  2.0853
  233MOL0     H31443   3.873   7.328   4.114  1.2163  4.6853 -1.2492
  233MOL0     H31444   3.626   7.345   4.133 -1.3283 -2.0106  2.3416
  233MOL0     H31445   3.470   7.425   4.541  1.0804  1.2492 -1.3400
  233MOL0     H31446   3.319   7.464   4.450 -0.2632 -0.0460 -0.8250
  233MOL0     H31447   3.327   7.228   4.564 -0.6399 -0.9455 -0.5735
  233MOL0     H31448   3.434   7.178   4.444 -1.0660 -2.4827  0.5316
  233MOL0     H31449   3.282   7.187   4.275 -1.6994 -0.3769  0.1069
  233MOL0     H31450   3.187   7.310   4.346  1.3487  0.7650 -1.5193
  233MOL0     H31451   3.225   7.054   4.487  0.3982  0.6418 -1.2526
  233MOL0     H31452   3.104   7.050   4.350  1.6517 -1.9944  0.3828
  233MOL0     H31453   2.968   7.231   4.735  2.3434  0.5542  1.3531
  233MOL0     H31454   3.671   7.424   4.551 -0.5669  4.0424 -0.7690
  233MOL0     H31455   3.906   7.399   4.529  2.1140  0.6938 -1.7850
  234MOL0     O31456   7.600   6.767   8.321  0.9093  0.4539 -0.7599
  234MOL0     C31457   7.683   6.716   8.251 -0.2684 -0.2893  0.4893
  234MOL0     O31458   7.657   6.627   8.158  0.3858  0.3405  0.2407
  234MOL0     C31459   7.548   6.543   8.160  0.5872 -0.5365  0.1455
  234MOL0     C31460   7.513   6.481   8.045 -0.0497  0.1424  1.0428
  234MOL0     C31461   7.428   6.372   8.039 -0.4304 -0.6129  0.2147
  234MOL0     C31462   7.346   6.337   8.147  1.1063 -0.3313  0.4066
  234MOL0     O31463   7.257   6.234   8.140  0.3576 -0.0249 -0.3878
  234MOL0     C31464   7.121   6.276   8.126  0.0390 -0.1457 -0.7205
  234MOL0     C31465   7.076   6.262   7.977 -0.1940  0.1106 -0.9690
  234MOL0     C31466   6.935   6.297   7.958  0.3157 -0.8355 -0.0642
  234MOL0     C31467   6.921   6.452   7.966 -0.0869 -0.0488 -0.8926
  234MOL0     C31468   6.783   6.500   7.916  0.1710 -0.0039 -0.5439
  234MOL0     C31469   6.664   6.435   7.979  0.6936  0.2180 -1.2343
  234MOL0     C31470   6.528   6.482   7.939  0.5625 -0.1294 -0.0848
  234MOL0     C31471   6.497   6.416   7.800 -0.2417 -0.2530 -0.4004
  234MOL0     N31472   6.363   6.478   7.766 -0.5659 -0.9428  0.1356
  234MOL0     C31473   6.351   6.590   7.680 -0.4549 -0.3992 -0.0774
  234MOL0     C31474   6.219   6.605   7.669  0.5483 -0.1092  0.1235
  234MOL0     C31475   6.161   6.720   7.590  0.0778  0.0445 -0.7942
  234MOL0     C31476   6.038   6.674   7.512 -0.9863 -0.2515  0.2663
  234MOL0     C31477   6.008   6.774   7.407  0.5689 -0.9944  2.0543
  234MOL0     C31478   5.871   6.753   7.332 -0.3311 -0.1221 -0.7866
  234MOL0     O31479   5.867   6.853   7.230  0.3727 -0.3037 -0.5847
  234MOL0     C31480   5.753   6.866   7.152 -0.1251 -0.5112  0.2838
  234MOL0     C31481   5.657   6.763   7.132  0.3237 -0.4740 -0.6368
  234MOL0     C31482   5.538   6.789   7.056 -0.7653 -0.7310  1.3183
  234MOL0     C31483   5.459   6.668   7.019  0.6965  0.8929  0.4922
  234MOL0     C31484   5.522   6.909   6.991  0.3608  1.2454 -0.1432
  234MOL0     C31485   5.387   6.941   6.926 -0.0225 -0.5982  0.4202
  234MOL0     O31486   5.265   6.889   6.968 -0.6577  1.1013 -0.3092
  234MOL0     C31487   5.141   6.902   6.913 -0.5073 -0.4789 -0.6556
  234MOL0     C31488   5.038   6.969   6.981  0.0482 -0.6820  0.1870
  234MOL0     C31489   4.909   6.976   6.921 -0.1837 -0.2190  0.7893
  234MOL0     C31490   4.875   6.903   6.806  0.5256  0.3703 -0.0910
  234MOL0     O31491   4.749   6.907   6.744 -0.2972 -0.0603 -0.6952
  234MOL0     C31492   4.670   7.017   6.789  0.1891 -0.2470  0.2993
  234MOL0     C31493   4.540   7.035   6.706  0.6977 -0.3010 -0.7844
  234MOL0     C31494   4.560   7.065   6.558  0.4819  1.0302  0.1296
  234MOL0     C31495   4.421   7.064   6.466 -0.7784  0.8202 -1.1235
  234MOL0     C31496   4.440   7.095   6.323 -0.3274 -0.8473 -0.4001
  234MOL0     C31497   4.479   6.972   6.247 -0.2311 -0.1198  0.0278
  234MOL0     C31498   4.506   7.000   6.094 -0.4538 -0.0171 -0.8741
  234MOL0     C31499   4.484   6.881   6.009  0.1357 -0.5074  1.1119
  234MOL0    Cl31500   4.513   6.921   5.847  0.2492  0.1538  0.5438
  234MOL0     C31501   4.980   6.837   6.734  0.2595 -0.3668  0.3679
  234MOL0     C31502   5.108   6.832   6.792 -0.6237  0.4104  0.4534
  234MOL0     O31503   5.393   7.020   6.833 -0.3061 -0.1071  0.1694
  234MOL0     C31504   5.622   7.006   7.009  0.0013 -0.1769 -0.8936
  234MOL0     C31505   5.737   6.988   7.083  0.4172  0.5295  0.3854
  234MOL0     N31506   6.148   6.511   7.742 -0.4064 -0.2946 -0.2905
  234MOL0     N31507   6.240   6.439   7.797 -0.7273 -0.1376  0.0586
  234MOL0     C31508   7.358   6.418   8.260 -0.9478  0.5212  0.4704
  234MOL0     C31509   7.463   6.518   8.269 -0.4840  0.4805 -0.5735
  234MOL0     C31510   7.824   6.758   8.268 -0.4994  0.4139  0.0516
  234MOL0     C31511   7.933   6.686   8.211  1.0205  0.5569 -0.3228
  234MOL0     C31512   8.063   6.726   8.235 -0.0733 -0.2672  0.3239
  234MOL0     C31513   8.093   6.829   8.325 -0.3436  1.1425 -1.2201
  234MOL0     O31514   8.224   6.859   8.353 -0.0535 -0.5241  0.2933
  234MOL0     C31515   8.260   6.908   8.478 -0.0235 -0.4498 -0.1541
  234MOL0     C31516   8.394   6.852   8.521 -0.0294  0.0080  0.4113
  234MOL0     C31517   8.499   6.822   8.408  0.2477  0.1787 -0.3058
  234MOL0     C31518   8.630   6.767   8.462  0.0801 -0.6766 -0.5638
  234MOL0     C31519   8.625   6.623   8.509  0.1712 -0.2905  0.1260
  234MOL0     C31520   8.639   6.513   8.553 -0.0298  0.1714 -0.3064
  234MOL0     C31521   7.990   6.901   8.382 -0.3456  0.0170 -0.4547
  234MOL0     C31522   7.854   6.863   8.357 -0.3189 -0.2080 -0.1754
  234MOL0     H31523   7.568   6.507   7.955 -1.6617  0.1990  0.0286
  234MOL0     H31524   7.424   6.314   7.948 -1.6841 -0.8904  0.4283
  234MOL0     H31525   7.068   6.198   8.181  1.3003 -0.3813  0.2130
  234MOL0     H31526   7.104   6.372   8.175  1.9671  0.1306 -0.4938
  234MOL0     H31527   7.143   6.320   7.913  2.9253 -0.5698  1.4100
  234MOL0     H31528   7.093   6.157   7.952  0.3508 -0.3806  1.2137
  234MOL0     H31529   6.900   6.275   7.857 -0.3692 -1.3980  0.2905
  234MOL0     H31530   6.866   6.250   8.028  1.5561  0.6829  2.3051
  234MOL0     H31531   6.948   6.496   8.062  2.4200 -1.6101 -0.7734
  234MOL0     H31532   6.999   6.487   7.897  0.7980 -3.0129 -1.5739
  234MOL0     H31533   6.773   6.608   7.932 -4.2121 -0.1457 -0.9360
  234MOL0     H31534   6.773   6.473   7.810 -0.4971 -0.6460 -0.3322
  234MOL0     H31535   6.663   6.326   7.965 -0.0979  0.2224 -1.2264
  234MOL0     H31536   6.666   6.458   8.086 -1.9037  1.7479 -1.4403
  234MOL0     H31537   6.460   6.460   8.022  1.0839 -1.5873 -0.0170
  234MOL0     H31538   6.524   6.590   7.924  2.5419 -0.3161 -2.7488
  234MOL0     H31539   6.489   6.308   7.809 -0.6303 -0.0112  4.0554
  234MOL0     H31540   6.565   6.444   7.718  2.4408 -2.0172  1.0940
  234MOL0     H31541   6.428   6.643   7.624 -0.4728 -2.1951 -1.9314
  234MOL0     H31542   6.140   6.801   7.661 -0.0725  2.0939 -3.0713
  234MOL0     H31543   6.240   6.760   7.526 -0.7595  0.9324 -1.3021
  234MOL0     H31544   5.956   6.683   7.584 -0.9640  1.6390  0.0995
  234MOL0     H31545   6.045   6.571   7.475  2.6394 -2.0003  4.8324
  234MOL0     H31546   6.088   6.773   7.333 -0.4863 -3.3045  0.8386
  234MOL0     H31547   6.012   6.879   7.436 -1.3592 -0.3764  0.2726
  234MOL0     H31548   5.789   6.771   7.402  0.7319  0.8595  0.2364
  234MOL0     H31549   5.870   6.654   7.286  0.0327  0.1888 -1.4762
  234MOL0     H31550   5.672   6.670   7.186  0.8827  0.9960  1.8966
  234MOL0     H31551   5.516   6.577   7.037 -0.8940 -0.3476 -0.4953
  234MOL0     H31552   5.365   6.675   7.075  0.6159  0.4528  0.4118
  234MOL0     H31553   5.418   6.652   6.919 -0.5592 -1.4105  1.3066
  234MOL0     H31554   5.045   7.009   7.082 -0.2271 -0.2813  0.0484
  234MOL0     H31555   4.831   7.032   6.972 -1.8156 -0.9146 -0.8163
  234MOL0     H31556   4.634   6.999   6.891  0.8277 -4.2192 -0.0192
  234MOL0     H31557   4.734   7.106   6.796 -1.6264  1.1848 -0.5891
  234MOL0     H31558   4.476   6.946   6.716 -2.0473  1.4246 -1.9263
  234MOL0     H31559   4.476   7.121   6.728  2.2707  1.2996 -2.1997
  234MOL0     H31560   4.635   7.002   6.509  2.5116  1.6894  2.2337
  234MOL0     H31561   4.615   7.159   6.547  0.1642  1.2558  0.4610
  234MOL0     H31562   4.380   6.964   6.481  2.2744 -0.3924  0.0824
  234MOL0     H31563   4.345   7.137   6.493 -4.9817 -2.9302 -1.6747
  234MOL0     H31564   4.522   7.167   6.317 -0.4358 -0.7768 -1.1440
  234MOL0     H31565   4.350   7.136   6.277  0.7373  0.4403 -1.3785
  234MOL0     H31566   4.565   6.920   6.289 -1.1486 -2.2139 -0.5596
  234MOL0     H31567   4.393   6.906   6.243 -1.1085  1.0297 -0.9764
  234MOL0     H31568   4.594   7.063   6.079  1.4940 -1.6064  2.5571
  234MOL0     H31569   4.424   7.063   6.059  0.0171 -0.1011 -2.2117
  234MOL0     H31570   4.386   6.834   6.024 -0.3753  0.5994  1.3952
  234MOL0     H31571   4.558   6.803   6.024  0.8271 -0.3546 -1.1461
  234MOL0     H31572   4.951   6.787   6.642  0.6618 -1.2946  0.7400
  234MOL0     H31573   5.189   6.788   6.735 -0.9639  1.1182 -0.6277
  234MOL0     H31574   5.619   7.105   6.964  3.3181  1.2685  1.6737
  234MOL0     H31575   5.819   7.058   7.096  0.7245  0.1032  0.7800
  234MOL0     H31576   7.295   6.410   8.348 -0.9372  0.9224  0.5155
  234MOL0     H31577   7.479   6.580   8.356  0.4414  3.0050 -2.4413
  234MOL0     H31578   7.916   6.602   8.144  4.6523 -2.2735  1.9138
  234MOL0     H31579   8.142   6.672   8.185 -0.0896  0.8296 -0.9345
  234MOL0     H31580   8.268   7.016   8.473 -2.2831 -0.2692 -1.1329
  234MOL0     H31581   8.191   6.871   8.556 -0.2716 -1.7296 -0.9426
  234MOL0     H31582   8.373   6.760   8.577  0.0322 -1.9452 -2.5516
  234MOL0     H31583   8.441   6.917   8.596 -0.7505 -0.4151  1.2408
  234MOL0     H31584   8.521   6.913   8.350 -4.0550  0.4440 -1.8482
  234MOL0     H31585   8.442   6.762   8.337 -0.4933  0.2525  0.2134
  234MOL0     H31586   8.647   6.813   8.559 -0.8460  0.4678 -0.9201
  234MOL0     H31587   8.710   6.798   8.394  1.0326  1.5717  1.4453
  234MOL0     H31588   8.630   6.415   8.596  0.0555  0.5241  0.5380
  234MOL0     H31589   8.013   6.985   8.447  1.7189  0.5469 -1.7660
  234MOL0     H31590   7.779   6.926   8.403 -1.4101  0.7536 -3.0530
  235MOL0     O31591   6.943   7.939   7.666  0.1500  0.1972  0.0178
  235MOL0     C31592   6.890   8.050   7.660 -0.3906 -0.9530  0.2061
  235MOL0     O31593   6.772   8.089   7.727 -0.7512 -0.0892 -0.3637
  235MOL0     C31594   6.697   8.009   7.811  0.6016  0.1986  0.7354
  235MOL0     C31595   6.678   7.871   7.782  0.4415 -0.2792  0.2356
  235MOL0     C31596   6.595   7.791   7.863 -0.7280  0.9379 -0.2034
  235MOL0     C31597   6.520   7.845   7.970 -0.2675 -0.2839 -0.5366
  235MOL0     O31598   6.421   7.767   8.029  0.2990  0.3249  0.2385
  235MOL0     C31599   6.299   7.818   8.088 -0.1030  0.0076 -0.1826
  235MOL0     C31600   6.191   7.855   7.989  0.7032  1.5643 -0.8276
  235MOL0     C31601   6.119   7.727   7.945 -0.3628 -0.7432 -0.3876
  235MOL0     C31602   6.054   7.752   7.803  0.5702  0.0071 -0.6237
  235MOL0     C31603   5.941   7.858   7.797  0.7139  0.3493  0.2658
  235MOL0     C31604   5.864   7.848   7.663  0.7341  0.3518 -0.2952
  235MOL0     C31605   5.750   7.952   7.681 -0.1367  0.8914  0.6589
  235MOL0     C31606   5.633   7.895   7.610 -0.6102  0.1093  0.1176
  235MOL0     N31607   5.635   7.881   7.462  0.3337 -0.1253  1.1462
  235MOL0     C31608   5.540   7.933   7.377 -0.5074 -0.2664 -0.2493
  235MOL0     C31609   5.574   7.892   7.255 -0.9285  0.0185 -1.0558
  235MOL0     C31610   5.505   7.910   7.129  0.4437 -0.3548  0.0797
  235MOL0     C31611   5.423   7.780   7.090 -0.8457  0.3870  0.2283
  235MOL0     C31612   5.362   7.798   6.950 -0.3946  0.3479 -0.7889
  235MOL0     C31613   5.293   7.669   6.908  1.7059 -0.2065  0.3563
  235MOL0     O31614   5.195   7.705   6.809 -0.4117  1.0459  0.6320
  235MOL0     C31615   5.148   7.606   6.731  0.6544 -0.5605 -0.0543
  235MOL0     C31616   5.174   7.467   6.748  0.1454  0.0013 -0.0066
  235MOL0     C31617   5.122   7.362   6.665 -0.0131 -0.6413 -1.2383
  235MOL0     C31618   5.161   7.220   6.710 -0.3352 -0.1341  0.7848
  235MOL0     C31619   5.051   7.389   6.552  0.8138 -0.4683  0.9876
  235MOL0     C31620   5.029   7.298   6.436 -0.4328 -0.0801 -0.0132
  235MOL0     O31621   5.065   7.165   6.451  0.5683 -0.1426 -0.4886
  235MOL0     C31622   5.030   7.083   6.347 -0.6098 -0.7827  0.0175
  235MOL0     C31623   5.132   7.059   6.248  0.2538  0.5635  0.5265
  235MOL0     C31624   5.106   6.969   6.145 -0.4051 -0.0021  0.1128
  235MOL0     C31625   4.978   6.924   6.113  0.6861  0.4945 -1.0648
  235MOL0     O31626   4.956   6.876   5.984 -0.6052  0.3173 -0.4419
  235MOL0     C31627   4.843   6.779   5.972  0.3229 -0.5914 -0.1486
  235MOL0     C31628   4.842   6.742   5.826  0.9502 -0.2223  0.3440
  235MOL0     C31629   4.760   6.615   5.797  0.0639 -0.1463  0.0434
  235MOL0     C31630   4.722   6.627   5.651 -1.1856  0.4493  0.0233
  235MOL0     C31631   4.658   6.500   5.601 -0.0242  0.8059 -1.3307
  235MOL0     C31632   4.743   6.371   5.582  0.7264  0.0346  0.1641
  235MOL0     C31633   4.664   6.261   5.512  0.1411  0.1748  0.2205
  235MOL0     C31634   4.714   6.121   5.554  0.3400  0.2455 -0.5636
  235MOL0    Cl31635   4.667   6.075   5.719  0.2551  0.0900 -0.1041
  235MOL0     C31636   4.871   6.957   6.212 -0.6194 -0.3311 -0.0343
  235MOL0     C31637   4.899   7.040   6.325 -0.0863  0.5406 -0.0172
  235MOL0     O31638   5.005   7.354   6.327 -0.1236 -0.2746  0.6574
  235MOL0     C31639   5.016   7.519   6.536  0.0467  0.9230 -1.2811
  235MOL0     C31640   5.062   7.621   6.620  0.3968  0.0891 -0.0242
  235MOL0     N31641   5.699   7.825   7.266  0.2435  0.3043 -0.2763
  235MOL0     N31642   5.733   7.815   7.391  0.6887  0.0215 -0.0349
  235MOL0     C31643   6.540   7.988   7.997 -0.1333 -0.1506  0.5988
  235MOL0     C31644   6.638   8.057   7.925  0.2543 -0.1363 -0.0688
  235MOL0     C31645   6.961   8.155   7.579 -0.6763  0.6624 -0.1878
  235MOL0     C31646   7.081   8.124   7.510  0.4978  0.2763 -1.2043
  235MOL0     C31647   7.164   8.231   7.462 -0.5805  0.0901 -0.5294
  235MOL0     C31648   7.127   8.366   7.475  0.1507  0.3005 -1.4857
  235MOL0     O31649   7.201   8.464   7.414 -0.6876 -0.6259 -0.7385
  235MOL0     C31650   7.173   8.603   7.465 -0.0368 -0.5075 -0.2897
  235MOL0     C31651   7.245   8.701   7.367  0.5898  0.1669 -0.0797
  235MOL0     C31652   7.216   8.852   7.408  0.3522 -0.5105 -0.3465
  235MOL0     C31653   7.311   8.964   7.357 -0.1266  0.2711 -0.1597
  235MOL0     C31654   7.350   8.930   7.216 -0.4966 -0.3861  0.2767
  235MOL0     C31655   7.366   8.923   7.094  0.0383 -0.4528 -0.1156
  235MOL0     C31656   7.010   8.387   7.545  0.1473 -0.6465 -0.2400
  235MOL0     C31657   6.924   8.289   7.588 -0.6383 -0.6311  0.0739
  235MOL0     H31658   6.716   7.818   7.696  1.6401  0.3997  0.3284
  235MOL0     H31659   6.572   7.688   7.839 -2.5092  1.8051 -2.5010
  235MOL0     H31660   6.262   7.737   8.151  4.7288 -0.1772  2.9329
  235MOL0     H31661   6.323   7.905   8.149 -1.0372  0.2451 -0.1375
  235MOL0     H31662   6.129   7.923   8.048 -0.5812 -0.7370  0.6506
  235MOL0     H31663   6.222   7.915   7.903 -2.5089  0.6459 -2.8146
  235MOL0     H31664   6.193   7.647   7.947  0.0111 -0.3968 -0.3760
  235MOL0     H31665   6.043   7.701   8.020  1.3312 -2.3123  0.8785
  235MOL0     H31666   6.130   7.779   7.729  0.3972  2.4803  0.0346
  235MOL0     H31667   6.032   7.648   7.776  0.4757  0.0504 -0.7109
  235MOL0     H31668   5.880   7.845   7.887 -0.6665 -1.0905 -0.8296
  235MOL0     H31669   5.993   7.953   7.812  3.4936 -1.0753  0.3210
  235MOL0     H31670   5.922   7.883   7.576  0.2196  4.0463  0.6761
  235MOL0     H31671   5.831   7.745   7.648  0.3180 -0.0942  3.1024
  235MOL0     H31672   5.725   7.952   7.787 -2.1049 -0.9414  0.2554
  235MOL0     H31673   5.781   8.050   7.644  0.8528  0.3778  0.0867
  235MOL0     H31674   5.544   7.955   7.633 -2.7880 -2.7438 -0.3246
  235MOL0     H31675   5.613   7.796   7.654  0.1610  0.7376  1.9944
  235MOL0     H31676   5.447   7.979   7.409  0.0584 -0.4365  1.7430
  235MOL0     H31677   5.430   7.988   7.142 -1.4363 -2.3125  1.9441
  235MOL0     H31678   5.563   7.945   7.044 -0.2058 -1.7816 -1.0093
  235MOL0     H31679   5.349   7.746   7.164 -1.6130 -0.9168 -1.0985
  235MOL0     H31680   5.500   7.703   7.083 -0.2373  0.8289  1.6406
  235MOL0     H31681   5.436   7.818   6.873 -0.3848  0.9892 -0.6216
  235MOL0     H31682   5.287   7.878   6.953 -0.0935  0.6156  1.6999
  235MOL0     H31683   5.240   7.613   6.986  0.6405 -3.3333 -2.3896
  235MOL0     H31684   5.366   7.593   6.878 -1.2677 -3.3320  0.4187
  235MOL0     H31685   5.245   7.440   6.825  1.1309  0.2326 -0.8165
  235MOL0     H31686   5.218   7.175   6.628 -3.8147  0.9864 -2.5474
  235MOL0     H31687   5.206   7.222   6.810  1.4567 -0.4701  0.0209
  235MOL0     H31688   5.078   7.149   6.706  2.0514 -3.0635 -2.2583
  235MOL0     H31689   5.228   7.103   6.273  1.4767 -3.0190  2.9772
  235MOL0     H31690   5.190   6.949   6.080  0.1259  2.2710  0.0302
  235MOL0     H31691   4.850   6.684   6.025 -1.4450 -1.2203 -0.9628
  235MOL0     H31692   4.752   6.833   6.002  0.0967 -1.2747  0.4176
  235MOL0     H31693   4.806   6.825   5.765  0.7116  1.3486  2.5428
  235MOL0     H31694   4.946   6.723   5.796  1.5155  1.5310  1.0748
  235MOL0     H31695   4.673   6.628   5.862  1.0034 -2.5269  1.9235
  235MOL0     H31696   4.802   6.516   5.816 -0.1009  0.1048  1.8764
  235MOL0     H31697   4.654   6.710   5.633  1.0103  2.1661 -0.8852
  235MOL0     H31698   4.811   6.643   5.589 -0.4079 -2.3459  0.2451
  235MOL0     H31699   4.619   6.521   5.500 -1.1412 -2.1858 -1.6223
  235MOL0     H31700   4.568   6.490   5.663 -0.1923 -0.1520 -1.7058
  235MOL0     H31701   4.837   6.391   5.531  0.3021 -0.2882 -0.7703
  235MOL0     H31702   4.754   6.337   5.686 -1.6988  0.1241  0.5157
  235MOL0     H31703   4.665   6.282   5.404 -0.9658  0.2099  0.2048
  235MOL0     H31704   4.560   6.281   5.538 -0.2869 -0.8081 -0.6524
  235MOL0     H31705   4.821   6.115   5.533  0.6974  0.8562  0.9535
  235MOL0     H31706   4.667   6.046   5.489 -1.1064  0.4376  0.2265
  235MOL0     H31707   4.771   6.919   6.198  0.1591 -2.5858  0.1359
  235MOL0     H31708   4.823   7.066   6.398  1.5424  1.6676  1.3510
  235MOL0     H31709   4.951   7.549   6.454 -2.6424  2.0851  1.1013
  235MOL0     H31710   5.031   7.722   6.594  2.6966  1.1700  1.1121
  235MOL0     H31711   6.489   8.046   8.073  0.4214  1.5265 -0.2369
  235MOL0     H31712   6.651   8.162   7.949  1.1031  0.2669 -2.0786
  235MOL0     H31713   7.108   8.021   7.492  1.7146  0.1907  0.7654
  235MOL0     H31714   7.259   8.211   7.414  0.9366  1.7315  1.5969
  235MOL0     H31715   7.065   8.619   7.456 -0.6625 -3.6872  0.1745
  235MOL0     H31716   7.215   8.618   7.565 -2.6884 -1.8176  1.1238
  235MOL0     H31717   7.222   8.676   7.263  1.6739 -2.0426  0.1520
  235MOL0     H31718   7.353   8.686   7.379  0.4048 -1.6437 -0.2823
  235MOL0     H31719   7.220   8.863   7.517 -3.7316  3.8169 -0.3197
  235MOL0     H31720   7.114   8.883   7.385  1.1329  3.4679  0.8646
  235MOL0     H31721   7.404   8.970   7.415 -0.0558 -0.6765 -0.1583
  235MOL0     H31722   7.244   9.050   7.366 -1.4133 -0.9170  3.7664
  235MOL0     H31723   7.380   8.915   6.988 -0.4283 -1.8114 -0.0953
  235MOL0     H31724   6.972   8.488   7.561 -3.7935 -1.8239 -1.0436
  235MOL0     H31725   6.832   8.326   7.632  0.3046  2.5648 -0.4399
  236MOL0     O31726   5.888   6.557   9.363  0.5796  0.4384 -0.3144
  236MOL0     C31727   5.803   6.512   9.288 -0.3961 -0.1002  0.2818
  236MOL0     O31728   5.691   6.577   9.252  0.1239 -0.1148  0.0928
  236MOL0     C31729   5.648   6.685   9.328 -0.0184 -0.7994  0.7001
  236MOL0     C31730   5.722   6.812   9.319  0.4700  0.2051 -0.5185
  236MOL0     C31731   5.684   6.917   9.404 -0.2358 -0.2517 -0.1302
  236MOL0     C31732   5.568   6.902   9.484  0.5438  0.5135  0.8320
  236MOL0     O31733   5.521   6.984   9.577  0.5103 -0.9302 -1.2127
  236MOL0     C31734   5.588   7.103   9.595  0.3398 -0.4070 -0.5161
  236MOL0     C31735   5.547   7.206   9.489 -1.1325  0.4300 -0.1243
  236MOL0     C31736   5.395   7.213   9.454 -0.0575  0.4243 -0.8007
  236MOL0     C31737   5.358   7.296   9.339  0.0246 -0.9025  0.1893
  236MOL0     C31738   5.211   7.308   9.329 -0.2169  0.4961  0.3946
  236MOL0     C31739   5.149   7.435   9.383 -0.3437 -0.4393  0.3549
  236MOL0     C31740   4.997   7.442   9.337 -0.4407  0.4020  0.1404
  236MOL0     C31741   4.921   7.557   9.414 -0.3640  0.4816 -0.8914
  236MOL0     N31742   4.775   7.564   9.415 -0.0187  0.4002  1.1686
  236MOL0     C31743   4.692   7.546   9.304 -1.4467 -0.7706  0.3898
  236MOL0     C31744   4.566   7.539   9.346 -1.8219 -0.2051 -0.8116
  236MOL0     C31745   4.453   7.489   9.258  1.0043  0.0904 -0.5168
  236MOL0     C31746   4.355   7.599   9.209  0.3450  0.0824 -0.0156
  236MOL0     C31747   4.292   7.682   9.316 -0.3237 -0.2670  0.5355
  236MOL0     C31748   4.190   7.787   9.254  0.3515  0.6263 -0.7307
  236MOL0     O31749   4.102   7.723   9.161 -0.2420 -0.3395 -0.6140
  236MOL0     C31750   3.984   7.779   9.122 -0.2856  0.4091 -0.2005
  236MOL0     C31751   3.885   7.674   9.091  0.3219  0.3287  0.7569
  236MOL0     C31752   3.757   7.714   9.065  0.0860  0.4370  0.0563
  236MOL0     C31753   3.663   7.600   9.035  0.0031 -0.5077 -0.1336
  236MOL0     C31754   3.712   7.848   9.065 -0.1148 -0.8090  0.7671
  236MOL0     C31755   3.575   7.893   9.059  0.7147 -1.6857  0.4922
  236MOL0     O31756   3.550   8.020   9.002  0.1721  0.1730 -0.1785
  236MOL0     C31757   3.430   8.094   9.022  0.5006  0.6140 -0.4376
  236MOL0     C31758   3.301   8.034   9.033  0.1405 -0.2018  1.2433
  236MOL0     C31759   3.190   8.122   9.050  0.3495 -0.2914 -0.1331
  236MOL0     C31760   3.198   8.256   9.065 -0.1207  0.2727  0.9467
  236MOL0     O31761   3.083   8.334   9.089 -0.1785 -0.1871  0.6201
  236MOL0     C31762   3.069   8.449   9.009 -0.4202  0.2252  0.6553
  236MOL0     C31763   3.044   8.561   9.108  0.7345 -1.1431  0.1528
  236MOL0     C31764   3.071   8.697   9.060 -1.1547 -0.4182  0.3206
  236MOL0     C31765   3.016   8.811   9.144 -0.9586 -0.4016  0.3472
  236MOL0     C31766   3.033   8.948   9.071  0.3174  0.5095 -0.2320
  236MOL0     C31767   2.982   9.048   9.172 -0.9390  0.0928  0.1680
  236MOL0     C31768   3.006   9.187   9.124 -0.7554  0.1666 -0.1668
  236MOL0     C31769   2.905   9.234   9.022 -0.0175  0.4832  0.1701
  236MOL0    Cl31770   2.943   9.403   8.996  0.0827  0.3632 -0.2843
  236MOL0     C31771   3.322   8.307   9.059  0.3983 -1.0229  0.4552
  236MOL0     C31772   3.440   8.227   9.045 -0.3265 -1.1986  0.3047
  236MOL0     O31773   3.492   7.819   9.108  0.0398  0.4852  0.2636
  236MOL0     C31774   3.811   7.944   9.071 -0.4955 -1.0468  0.0948
  236MOL0     C31775   3.942   7.916   9.107 -0.9247  0.0081 -0.1127
  236MOL0     N31776   4.562   7.575   9.480  0.3722 -0.2551  0.0281
  236MOL0     N31777   4.684   7.587   9.520  0.4589 -0.1822  0.0701
  236MOL0     C31778   5.503   6.780   9.495  0.1089  0.4928 -0.1918
  236MOL0     C31779   5.544   6.670   9.415 -0.6202 -0.6515 -0.5384
  236MOL0     C31780   5.843   6.385   9.233  0.7268  0.6458 -0.3607
  236MOL0     C31781   5.770   6.336   9.131 -0.4827  0.0888 -0.2688
  236MOL0     C31782   5.795   6.207   9.074 -0.7923 -0.0465 -0.8026
  236MOL0     C31783   5.886   6.123   9.135 -0.5256  0.0192  0.6161
  236MOL0     O31784   5.921   5.998   9.078  0.5879 -0.1705  0.2630
  236MOL0     C31785   6.053   5.947   9.087 -0.8196  0.2321  0.2431
  236MOL0     C31786   6.071   5.852   9.210 -0.0446  0.2766 -0.1668
  236MOL0     C31787   6.214   5.796   9.238  0.3982 -0.5364 -0.4921
  236MOL0     C31788   6.271   5.738   9.096 -0.0915  0.5428  0.0102
  236MOL0     C31789   6.187   5.614   9.059 -0.7673  0.7687 -0.5026
  236MOL0     C31790   6.121   5.512   9.032 -0.2464  0.4618 -0.3159
  236MOL0     C31791   5.966   6.174   9.242  1.0856  0.9239 -0.4231
  236MOL0     C31792   5.933   6.301   9.296 -0.1870 -0.4064 -0.4658
  236MOL0     H31793   5.799   6.823   9.243 -1.8850 -1.7743 -3.3876
  236MOL0     H31794   5.729   7.014   9.386 -1.3652  0.5454  1.1518
  236MOL0     H31795   5.560   7.152   9.689  0.4167 -0.7414 -0.3176
  236MOL0     H31796   5.696   7.089   9.596  0.2941 -1.6269 -3.5026
  236MOL0     H31797   5.574   7.302   9.535  2.3908 -0.4977  0.0177
  236MOL0     H31798   5.614   7.201   9.403 -0.5817  0.7752  0.2729
  236MOL0     H31799   5.353   7.113   9.435  1.3107 -0.4000  0.2919
  236MOL0     H31800   5.344   7.256   9.540  2.1053  2.3213 -0.3713
  236MOL0     H31801   5.402   7.393   9.362 -2.8458  0.4945  0.1395
  236MOL0     H31802   5.402   7.258   9.247 -1.0421  0.8063 -1.0810
  236MOL0     H31803   5.194   7.309   9.221  3.4644 -1.0283 -0.3595
  236MOL0     H31804   5.167   7.217   9.370  1.1315  1.0959  3.3855
  236MOL0     H31805   5.141   7.409   9.489 -4.6384 -1.6917 -0.0791
  236MOL0     H31806   5.204   7.524   9.352 -0.7933 -0.5561 -0.8090
  236MOL0     H31807   4.989   7.461   9.229 -0.0691  3.3477  0.5473
  236MOL0     H31808   4.945   7.348   9.354  0.6726 -0.2724 -0.0903
  236MOL0     H31809   4.961   7.656   9.388  2.2258 -0.0716  0.6394
  236MOL0     H31810   4.941   7.554   9.521 -1.9708  2.2603 -0.4836
  236MOL0     H31811   4.716   7.528   9.200  1.1461 -2.8867  1.2395
  236MOL0     H31812   4.498   7.435   9.174  1.7045 -1.9326  1.0998
  236MOL0     H31813   4.403   7.411   9.315  2.7047 -2.0490 -1.7915
  236MOL0     H31814   4.270   7.550   9.160  0.5019 -0.0894 -0.1171
  236MOL0     H31815   4.399   7.662   9.131 -2.1699  0.5165 -1.1973
  236MOL0     H31816   4.369   7.738   9.370 -1.4558  1.0323  0.8656
  236MOL0     H31817   4.243   7.615   9.387  1.9291 -5.9079 -2.5354
  236MOL0     H31818   4.254   7.856   9.198  3.5684 -0.1540  1.7193
  236MOL0     H31819   4.139   7.850   9.327  1.2413  0.3487  0.1622
  236MOL0     H31820   3.931   7.576   9.086 -1.3855 -0.4819  0.3350
  236MOL0     H31821   3.703   7.498   9.028 -3.6418 -2.0139 -1.1437
  236MOL0     H31822   3.602   7.583   9.123  1.7707  2.5596  1.8876
  236MOL0     H31823   3.600   7.626   8.950 -0.4661  1.8212  0.8520
  236MOL0     H31824   3.291   7.926   9.020 -0.9822  0.2417 -3.2168
  236MOL0     H31825   3.091   8.078   9.049  0.0768 -0.2670 -5.7472
  236MOL0     H31826   3.154   8.473   8.946 -2.4564  0.6251 -2.1331
  236MOL0     H31827   2.975   8.437   8.954  0.5839  3.6382 -2.1146
  236MOL0     H31828   2.941   8.553   9.143 -0.6330 -1.2960 -3.5144
  236MOL0     H31829   3.116   8.549   9.190  1.7935 -0.1869 -0.6102
  236MOL0     H31830   3.057   8.710   8.952  2.1903  0.7473 -0.1086
  236MOL0     H31831   3.178   8.719   9.055 -1.2781 -0.0980 -1.8907
  236MOL0     H31832   2.910   8.789   9.160 -1.3752  1.2912  0.0720
  236MOL0     H31833   3.070   8.812   9.240  2.6830 -1.1809 -1.4965
  236MOL0     H31834   2.993   8.956   8.969  1.6092  3.7894 -0.6142
  236MOL0     H31835   3.139   8.970   9.060  0.2906  1.0285  0.4680
  236MOL0     H31836   2.877   9.032   9.196 -0.2918 -2.5712  1.6510
  236MOL0     H31837   3.047   9.033   9.259 -0.5547  1.4168  0.1269
  236MOL0     H31838   3.109   9.191   9.087 -1.1433  1.2743 -1.1530
  236MOL0     H31839   2.982   9.254   9.207  2.0927 -0.4790  1.3471
  236MOL0     H31840   2.805   9.212   9.061  0.1562  0.0791  0.3924
  236MOL0     H31841   2.901   9.182   8.926 -2.5518  1.0089 -0.0760
  236MOL0     H31842   3.331   8.414   9.078 -0.7609 -0.9906  0.9118
  236MOL0     H31843   3.537   8.276   9.052 -0.3717 -1.0866  0.1469
  236MOL0     H31844   3.784   8.049   9.059 -1.1240 -1.0550  1.2709
  236MOL0     H31845   4.007   8.001   9.123 -4.2252  2.1845  3.5471
  236MOL0     H31846   5.412   6.768   9.553  0.5559 -1.0999  0.2294
  236MOL0     H31847   5.491   6.576   9.420  0.3532 -1.2117 -0.5547
  236MOL0     H31848   5.698   6.409   9.094 -1.4564 -1.0732 -0.7777
  236MOL0     H31849   5.750   6.177   8.980 -0.5972  1.3595 -1.3727
  236MOL0     H31850   6.064   5.887   8.996 -2.6384 -1.2269  0.9290
  236MOL0     H31851   6.116   6.037   9.089 -2.0261  1.5186 -4.8169
  236MOL0     H31852   6.014   5.759   9.206  1.4140 -0.7536  1.3288
  236MOL0     H31853   6.022   5.899   9.295  0.5388  2.5628 -1.0169
  236MOL0     H31854   6.208   5.716   9.312 -2.0279 -1.0535 -1.1773
  236MOL0     H31855   6.282   5.874   9.274 -3.6813  3.1514  0.1213
  236MOL0     H31856   6.375   5.715   9.117 -0.3051 -0.5266 -0.0780
  236MOL0     H31857   6.262   5.802   9.007 -0.7888 -0.8021 -0.9126
  236MOL0     H31858   6.076   5.423   8.995 -0.3777  0.0109  0.8792
  236MOL0     H31859   6.037   6.118   9.302 -1.0626  0.8550  2.2383
  236MOL0     H31860   5.988   6.335   9.383 -1.8892  3.9797 -0.8259
  237MOL0     O31861   3.624   6.901   6.555  0.4396 -0.3973  0.3079
  237MOL0     C31862   3.631   6.779   6.580 -0.4992  0.0079  0.4458
  237MOL0     O31863   3.714   6.688   6.521  0.2836  0.5695  0.8504
  237MOL0     C31864   3.817   6.729   6.431  0.2719 -0.3396  0.6956
  237MOL0     C31865   3.878   6.849   6.449  0.7788 -1.0329  0.1535
  237MOL0     C31866   3.985   6.888   6.362  1.1510  0.3210 -1.0521
  237MOL0     C31867   4.016   6.805   6.255  1.1579 -0.4115 -0.2261
  237MOL0     O31868   4.118   6.831   6.170 -0.0461  0.0102 -0.3540
  237MOL0     C31869   4.121   6.961   6.111 -0.3661 -0.9780  0.0349
  237MOL0     C31870   4.030   6.952   5.991 -0.2635 -0.8625 -0.2672
  237MOL0     C31871   3.994   7.091   5.939  0.2018 -0.8368  0.5241
  237MOL0     C31872   4.122   7.165   5.881  1.0218 -0.7501 -0.8165
  237MOL0     C31873   4.091   7.282   5.786  0.2108 -0.4144  0.1011
  237MOL0     C31874   3.976   7.373   5.842 -0.2048  0.3114 -0.3721
  237MOL0     C31875   3.937   7.497   5.762 -1.1390 -0.3365 -0.2454
  237MOL0     C31876   3.803   7.550   5.811  0.6043  0.2293 -0.4545
  237MOL0     N31877   3.768   7.669   5.726 -0.1046  0.5672 -0.6967
  237MOL0     C31878   3.816   7.792   5.752 -0.4287 -0.7582 -0.2887
  237MOL0     C31879   3.751   7.871   5.664 -0.1439 -0.8470 -0.8365
  237MOL0     C31880   3.770   8.018   5.677  0.5385 -0.8639 -0.3465
  237MOL0     C31881   3.663   8.084   5.760  0.8249 -0.4641 -0.8896
  237MOL0     C31882   3.527   8.026   5.736 -0.4283  0.0288  0.8386
  237MOL0     C31883   3.425   8.094   5.827 -0.0079 -0.4426 -0.1386
  237MOL0     O31884   3.467   8.067   5.965 -0.0327  1.1546  0.5667
  237MOL0     C31885   3.417   8.163   6.051  0.3664 -0.8342  0.8640
  237MOL0     C31886   3.295   8.135   6.115  0.8843 -0.3201 -0.1156
  237MOL0     C31887   3.245   8.225   6.205  0.3510 -0.6154 -0.3210
  237MOL0     C31888   3.122   8.182   6.271  0.2637  0.5880 -0.2336
  237MOL0     C31889   3.315   8.344   6.238 -0.4086 -0.3550 -0.3563
  237MOL0     C31890   3.278   8.437   6.349  0.1768  1.0159 -0.2979
  237MOL0     O31891   3.339   8.556   6.345 -0.3951  0.0628  0.1549
  237MOL0     C31892   3.306   8.626   6.454  0.0964 -0.7478 -0.1035
  237MOL0     C31893   3.404   8.652   6.549 -0.2762 -0.0688  0.1600
  237MOL0     C31894   3.385   8.730   6.664 -0.3418 -0.5091 -0.9238
  237MOL0     C31895   3.249   8.790   6.690 -1.4107  0.2555  1.0204
  237MOL0     O31896   3.220   8.878   6.788  0.2971 -0.0065  0.1032
  237MOL0     C31897   3.316   8.934   6.871 -0.4258  0.1809  0.3304
  237MOL0     C31898   3.247   9.034   6.971 -0.3518 -0.5085 -0.2327
  237MOL0     C31899   3.142   9.119   6.876  0.2410 -0.3169 -0.1194
  237MOL0     C31900   3.095   9.250   6.923 -0.3320 -0.7174  1.0452
  237MOL0     C31901   3.033   9.246   7.068 -0.1902  0.5587 -0.7290
  237MOL0     C31902   3.025   9.396   7.114  0.2934  0.1833  0.1050
  237MOL0     C31903   3.004   9.397   7.267  0.6552 -0.3027  0.9335
  237MOL0     C31904   2.997   9.540   7.317 -0.5351 -0.0130 -0.0846
  237MOL0    Cl31905   3.161   9.610   7.346  0.2516 -0.0426 -0.1847
  237MOL0     C31906   3.159   8.767   6.590  0.1054 -0.6620 -0.5157
  237MOL0     C31907   3.179   8.687   6.476  0.0810 -1.9696  0.8437
  237MOL0     O31908   3.194   8.400   6.438 -0.4465  0.0698  0.9647
  237MOL0     C31909   3.426   8.379   6.164 -0.0022  0.2304  0.7828
  237MOL0     C31910   3.473   8.284   6.068  0.5496 -0.1560  0.3929
  237MOL0     N31911   3.656   7.801   5.588 -0.4894  0.1243 -0.2688
  237MOL0     N31912   3.672   7.679   5.630  0.1638  0.1244 -0.8037
  237MOL0     C31913   3.952   6.680   6.241  0.3937 -0.0164  0.2504
  237MOL0     C31914   3.849   6.652   6.333 -0.0615 -0.2014  0.1910
  237MOL0     C31915   3.523   6.725   6.653 -0.5205 -0.0881 -0.2297
  237MOL0     C31916   3.502   6.583   6.662  0.1719  0.3004  0.7329
  237MOL0     C31917   3.421   6.526   6.765  0.0886  0.6782  0.5021
  237MOL0     C31918   3.358   6.605   6.866 -0.1110 -0.2922  0.4688
  237MOL0     O31919   3.283   6.567   6.972  0.1523 -0.5303  0.2640
  237MOL0     C31920   3.281   6.432   7.006  0.4088 -0.0715  0.2996
  237MOL0     C31921   3.175   6.350   6.914 -0.3151  0.2744 -0.5846
  237MOL0     C31922   3.040   6.377   6.983 -1.5569 -0.4746 -0.6394
  237MOL0     C31923   2.922   6.325   6.908  0.4675  0.6735 -0.6163
  237MOL0     C31924   2.919   6.178   6.920 -0.8540 -0.2171 -1.3716
  237MOL0     C31925   2.942   6.057   6.922  0.9563 -0.1293 -0.3680
  237MOL0     C31926   3.385   6.746   6.856 -0.1819 -0.0023  0.7194
  237MOL0     C31927   3.458   6.803   6.754  0.6923 -0.2398  0.0680
  237MOL0     H31928   3.854   6.917   6.531 -2.6790 -1.5848 -0.2550
  237MOL0     H31929   4.041   6.980   6.380  1.5106  0.4754 -2.7407
  237MOL0     H31930   4.093   7.040   6.181  3.4935 -0.7915  1.6015
  237MOL0     H31931   4.220   6.997   6.080  0.2531 -2.7499 -0.1536
  237MOL0     H31932   4.074   6.896   5.908 -3.3806 -0.1076 -2.6067
  237MOL0     H31933   3.937   6.895   6.002 -1.5099  1.0184 -0.6734
  237MOL0     H31934   3.904   7.075   5.878  0.0746  0.0832  0.4580
  237MOL0     H31935   3.966   7.147   6.029 -0.0690  0.7052 -0.4717
  237MOL0     H31936   4.177   7.209   5.965 -0.6485  0.2415 -0.1902
  237MOL0     H31937   4.193   7.100   5.830  3.7214 -0.1426  1.8618
  237MOL0     H31938   4.183   7.338   5.769  1.3229 -1.8496  1.1210
  237MOL0     H31939   4.066   7.243   5.687  0.7733 -3.6081  1.0974
  237MOL0     H31940   3.879   7.325   5.856  0.9872 -2.7655 -1.8111
  237MOL0     H31941   3.999   7.402   5.945  1.1275  1.0467 -0.8519
  237MOL0     H31942   4.014   7.571   5.786 -2.4198  0.8442  0.3898
  237MOL0     H31943   3.933   7.483   5.654  2.2129 -3.7719 -0.1406
  237MOL0     H31944   3.811   7.574   5.917  0.5479  1.3971 -0.6989
  237MOL0     H31945   3.723   7.475   5.806  0.9355 -0.1151 -0.5771
  237MOL0     H31946   3.881   7.828   5.830 -1.4464 -0.8245  0.6268
  237MOL0     H31947   3.871   8.032   5.718  0.1035  3.3847 -0.2167
  237MOL0     H31948   3.777   8.052   5.573  1.2303  0.7172  0.1770
  237MOL0     H31949   3.663   8.191   5.739  0.9178  0.4227  3.0025
  237MOL0     H31950   3.690   8.077   5.865 -1.0512 -1.3384 -0.4168
  237MOL0     H31951   3.524   7.921   5.764  0.3978  0.7006  3.8501
  237MOL0     H31952   3.503   8.036   5.630  1.7139 -2.5534  0.0142
  237MOL0     H31953   3.322   8.060   5.810  0.2907 -2.1991  1.2923
  237MOL0     H31954   3.427   8.201   5.806 -3.3637 -0.2525 -0.0837
  237MOL0     H31955   3.265   8.032   6.103  1.2203 -0.5965  1.2773
  237MOL0     H31956   3.077   8.097   6.220  3.6593 -1.0294 -0.7771
  237MOL0     H31957   3.145   8.151   6.373  1.1779  1.3722 -0.1897
  237MOL0     H31958   3.047   8.262   6.276  0.2559  0.8570 -3.0414
  237MOL0     H31959   3.502   8.610   6.534  1.5712  1.4943  5.5017
  237MOL0     H31960   3.468   8.743   6.733 -1.8258 -0.4579  0.9228
  237MOL0     H31961   3.377   8.858   6.920 -1.4020 -0.0597  1.2129
  237MOL0     H31962   3.382   8.984   6.799  4.4584 -4.4857  0.9806
  237MOL0     H31963   3.207   8.964   7.045  2.1674 -1.8694 -0.0552
  237MOL0     H31964   3.317   9.092   7.032  0.8161 -2.3551  0.2872
  237MOL0     H31965   3.057   9.054   6.853  3.4053 -4.3364 -1.8492
  237MOL0     H31966   3.194   9.144   6.783 -1.6017  0.3736 -1.0137
  237MOL0     H31967   3.178   9.313   6.892 -0.4305 -1.3737 -0.6500
  237MOL0     H31968   3.017   9.282   6.853  0.6932  1.1624  0.6842
  237MOL0     H31969   3.100   9.183   7.128 -0.5494  1.1185  0.2770
  237MOL0     H31970   2.935   9.196   7.065  0.9379 -1.7419 -2.0071
  237MOL0     H31971   3.119   9.444   7.087  0.5828 -1.0316 -1.1797
  237MOL0     H31972   2.943   9.447   7.062 -0.1823 -0.4395  0.2180
  237MOL0     H31973   3.073   9.335   7.324 -1.1644 -3.2437  0.1245
  237MOL0     H31974   2.909   9.349   7.291  0.2322 -0.2320 -0.5161
  237MOL0     H31975   2.952   9.533   7.417  1.3828  0.7386  0.8964
  237MOL0     H31976   2.935   9.597   7.248 -3.1412 -2.4684  0.0609
  237MOL0     H31977   3.069   8.823   6.615  0.8834 -0.3627  1.8696
  237MOL0     H31978   3.113   8.678   6.390  0.2275 -1.8160  0.7145
  237MOL0     H31979   3.471   8.477   6.174 -0.1605  1.2071 -4.9282
  237MOL0     H31980   3.562   8.297   6.007  0.6140  0.4008  0.5940
  237MOL0     H31981   3.989   6.622   6.157  0.0797 -0.0494  0.1325
  237MOL0     H31982   3.804   6.554   6.338  0.1269 -0.3734 -1.2112
  237MOL0     H31983   3.549   6.519   6.588 -0.4596 -0.8012  1.2637
  237MOL0     H31984   3.399   6.420   6.774 -2.7803  1.2046  0.7048
  237MOL0     H31985   3.377   6.387   6.980 -0.7050 -2.6158  0.2623
  237MOL0     H31986   3.268   6.417   7.113 -4.7130 -4.7104 -0.5051
  237MOL0     H31987   3.191   6.243   6.893 -1.3835 -0.4004  1.7304
  237MOL0     H31988   3.176   6.392   6.813 -1.9842  1.6234 -0.0841
  237MOL0     H31989   3.030   6.486   6.992 -3.0998 -0.6129 -0.3545
  237MOL0     H31990   3.029   6.355   7.090  0.7443 -1.8823 -0.6240
  237MOL0     H31991   2.937   6.350   6.802  1.6578 -1.0889 -0.9010
  237MOL0     H31992   2.827   6.371   6.938  0.1775  0.2801 -0.9301
  237MOL0     H31993   2.979   5.956   6.917  2.2329  0.2434  0.9327
  237MOL0     H31994   3.328   6.808   6.925 -4.1433 -1.8999 -0.5651
  237MOL0     H31995   3.462   6.911   6.755  0.6375 -0.2155 -1.0262
  238MOL0     O31996   8.976   9.447   1.432 -0.3328  0.3583  0.1771
  238MOL0     C31997   8.900   9.385   1.515 -0.0966 -0.0367  0.1607
  238MOL0     O31998   8.940   9.330   1.629  0.6002  0.0013  0.0904
  238MOL0     C31999   9.078   9.323   1.657 -0.3534 -0.1456 -0.3632
  238MOL0     C32000   9.157   9.433   1.691  0.5224 -1.0100  0.8502
  238MOL0     C32001   9.298   9.419   1.718 -0.4761  0.2882 -0.8598
  238MOL0     C32002   9.353   9.287   1.723  0.2381 -1.0382 -0.3910
  238MOL0     O32003   9.482   9.265   1.757  0.0840  0.6175  0.6010
  238MOL0     C32004   9.545   9.371   1.833 -0.0594  0.0600 -1.6572
  238MOL0     C32005   9.683   9.312   1.850  0.0669 -0.2054 -0.7999
  238MOL0     C32006   9.768   9.419   1.917  0.2546  1.0925 -0.0159
  238MOL0     C32007   9.901   9.351   1.963  0.0928  0.3557  0.2033
  238MOL0     C32008  10.005   9.442   2.027  0.4975 -0.1774  0.3103
  238MOL0     C32009  10.147   9.382   2.034  0.5385  0.5923 -0.4688
  238MOL0     C32010  10.144   9.265   2.138 -0.5564 -0.1321 -0.2060
  238MOL0     C32011  10.286   9.198   2.150  0.6002 -0.2779  0.0648
  238MOL0     N32012  10.338   9.121   2.038  0.2071  0.0731  0.1993
  238MOL0     C32013  10.325   8.989   2.027  0.9933  0.2197  0.0700
  238MOL0     C32014  10.377   8.968   1.905  0.4154  0.7694 -0.4826
  238MOL0     C32015  10.417   8.826   1.874  0.2855 -0.8728 -0.5669
  238MOL0     C32016  10.386   8.788   1.727 -0.0889 -0.0756  0.0935
  238MOL0     C32017  10.442   8.652   1.689 -0.4767 -0.1984 -0.5478
  238MOL0     C32018  10.582   8.620   1.727  0.3419 -0.2030  0.2526
  238MOL0     O32019  10.659   8.740   1.685  0.1815 -0.0689 -0.1228
  238MOL0     C32020  10.766   8.787   1.764  0.6724 -0.6646  0.1741
  238MOL0     C32021  10.828   8.714   1.872  0.6807 -0.2388 -0.3560
  238MOL0     C32022  10.954   8.747   1.930  0.1480 -1.0483 -0.2876
  238MOL0     C32023  11.018   8.654   2.029  0.4471 -0.1932 -0.9323
  238MOL0     C32024  11.006   8.873   1.889  0.4229 -0.1615 -1.2529
  238MOL0     C32025  11.126   8.942   1.952 -0.0311  0.0956  0.4461
  238MOL0     O32026  11.136   9.074   1.948 -0.7734 -1.2014 -0.3540
  238MOL0     C32027  11.264   9.118   1.993  1.2256 -0.1112  0.0634
  238MOL0     C32028  11.281   9.143   2.131  0.5907  0.2864  0.2584
  238MOL0     C32029  11.400   9.187   2.179  0.0877  0.3792 -0.0333
  238MOL0     C32030  11.506   9.221   2.092  0.2866  0.6966 -0.2353
  238MOL0     O32031  11.620   9.291   2.130  0.0585 -0.0518  0.0664
  238MOL0     C32032  11.662   9.265   2.270  0.3867  0.6400  0.0494
  238MOL0     C32033  11.809   9.296   2.272  0.1780  0.0411  0.5899
  238MOL0     C32034  11.857   9.296   2.413 -0.2404 -1.1106 -0.1534
  238MOL0     C32035  12.014   9.332   2.415  0.1160 -0.8193 -0.6539
  238MOL0     C32036  12.083   9.321   2.558 -0.6633  0.4823 -0.2914
  238MOL0     C32037  11.989   9.364   2.676  0.0446 -0.0242  0.3423
  238MOL0     C32038  12.069   9.358   2.805  0.6207 -0.7413 -0.3201
  238MOL0     C32039  11.972   9.370   2.919  0.3064  0.7254 -0.5080
  238MOL0    Cl32040  11.851   9.508   2.908  0.2800  0.2312 -0.4258
  238MOL0     C32041  11.495   9.193   1.959 -0.2115  0.7094  0.3725
  238MOL0     C32042  11.376   9.138   1.910  1.0494 -0.9656  0.3570
  238MOL0     O32043  11.215   8.867   2.000 -0.4812  0.0304 -0.1737
  238MOL0     C32044  10.934   8.946   1.796  0.6657 -1.3310 -0.6351
  238MOL0     C32045  10.823   8.912   1.729  0.6053 -0.5219  0.5150
  238MOL0     N32046  10.414   9.080   1.841  0.8523 -0.1342  0.1196
  238MOL0     N32047  10.382   9.174   1.925  0.7369 -0.9004  0.1351
  238MOL0     C32048   9.275   9.177   1.696  0.0621 -0.3788 -0.2759
  238MOL0     C32049   9.141   9.190   1.662  0.8869 -0.5159 -0.4210
  238MOL0     C32050   8.762   9.354   1.471  0.1250 -0.2411 -0.1961
  238MOL0     C32051   8.733   9.344   1.335 -0.0024 -1.1503 -0.4407
  238MOL0     C32052   8.609   9.361   1.280  0.2069  0.5745  0.4599
  238MOL0     C32053   8.497   9.343   1.367 -0.0290 -0.2216 -0.8622
  238MOL0     O32054   8.368   9.342   1.331  0.3971 -0.1565 -0.6341
  238MOL0     C32055   8.331   9.308   1.192  0.5319 -0.2456  0.1910
  238MOL0     C32056   8.339   9.155   1.148 -0.6045 -0.2708 -0.3808
  238MOL0     C32057   8.484   9.108   1.125 -0.4326 -0.1849  0.2511
  238MOL0     C32058   8.501   8.964   1.062 -0.6978 -0.1644 -0.7788
  238MOL0     C32059   8.439   8.864   1.148  0.1354  0.1587 -0.0479
  238MOL0     C32060   8.369   8.780   1.203  0.3060 -0.6138 -0.9810
  238MOL0     C32061   8.524   9.334   1.504 -0.3143  0.5637 -1.0713
  238MOL0     C32062   8.652   9.344   1.558  0.8425 -0.0385  0.0319
  238MOL0     H32063   9.111   9.531   1.689  0.7670 -0.9007  0.3103
  238MOL0     H32064   9.354   9.510   1.734  0.9036 -0.3094 -2.1005
  238MOL0     H32065   9.547   9.466   1.780 -0.9884  0.8626 -0.3149
  238MOL0     H32066   9.497   9.385   1.930  1.0778  0.8438 -1.1773
  238MOL0     H32067   9.678   9.226   1.918  0.7966  0.1801 -0.2425
  238MOL0     H32068   9.736   9.280   1.760  2.5416 -1.0210  0.8220
  238MOL0     H32069   9.782   9.500   1.844  0.8728  0.0636 -1.0783
  238MOL0     H32070   9.712   9.468   1.998  1.8844  0.5345  1.5143
  238MOL0     H32071   9.870   9.280   2.040  0.5357 -1.5586 -1.2715
  238MOL0     H32072   9.953   9.296   1.883  0.4040 -0.0042  0.6469
  238MOL0     H32073  10.030   9.523   1.958  1.1398  0.3163  1.1083
  238MOL0     H32074   9.966   9.482   2.121 -0.1755 -1.0924  0.4371
  238MOL0     H32075  10.172   9.355   1.931 -1.3509 -0.5491 -0.6581
  238MOL0     H32076  10.218   9.462   2.060 -2.0333  2.2247  2.0704
  238MOL0     H32077  10.135   9.308   2.238 -0.5204 -0.4150 -0.0782
  238MOL0     H32078  10.076   9.180   2.122  0.2429 -0.6015 -1.2116
  238MOL0     H32079  10.283   9.138   2.242  0.2441  0.0423  0.2664
  238MOL0     H32080  10.347   9.289   2.158 -0.2845  0.4394 -0.9797
  238MOL0     H32081  10.295   8.918   2.104 -1.8173  4.2326  3.0740
  238MOL0     H32082  10.525   8.818   1.892  0.2274 -4.7115 -1.0868
  238MOL0     H32083  10.366   8.754   1.939 -0.0036 -0.8954 -0.8155
  238MOL0     H32084  10.428   8.863   1.661 -0.8749  0.8333  0.5968
  238MOL0     H32085  10.278   8.790   1.711 -0.0664  1.0042  0.0136
  238MOL0     H32086  10.442   8.659   1.580 -0.8803  2.5918 -0.4366
  238MOL0     H32087  10.375   8.570   1.717 -3.8682  1.5846 -2.7751
  238MOL0     H32088  10.617   8.523   1.689 -0.1474  0.6059 -2.5012
  238MOL0     H32089  10.583   8.615   1.836  1.1471  1.9322  0.3957
  238MOL0     H32090  10.797   8.612   1.895 -0.2527  0.1748  0.2503
  238MOL0     H32091  11.126   8.645   2.015  0.7973  1.1374  0.5865
  238MOL0     H32092  11.006   8.701   2.127  0.2482  2.0701 -1.9963
  238MOL0     H32093  10.973   8.554   2.019  2.7676 -1.1479 -2.7424
  238MOL0     H32094  11.199   9.130   2.200 -0.1603 -1.1401 -0.8589
  238MOL0     H32095  11.415   9.205   2.285  3.1523 -2.2336  0.1393
  238MOL0     H32096  11.605   9.326   2.341  0.0381  0.2170  0.1358
  238MOL0     H32097  11.651   9.163   2.308 -0.3047  0.9499  0.7211
  238MOL0     H32098  11.856   9.217   2.212  1.3797  2.0926 -1.3255
  238MOL0     H32099  11.824   9.393   2.225 -2.2816  0.7639  1.1884
  238MOL0     H32100  11.833   9.196   2.452  0.0016 -0.1860  2.6070
  238MOL0     H32101  11.809   9.371   2.476  1.3308 -1.1967  1.2272
  238MOL0     H32102  12.069   9.256   2.359  0.7741 -1.7870  1.2180
  238MOL0     H32103  12.026   9.437   2.390 -1.5783  0.1197  2.0397
  238MOL0     H32104  12.167   9.389   2.539 -1.0047  0.8881 -0.3823
  238MOL0     H32105  12.117   9.221   2.584  1.6468  1.6917  1.8462
  238MOL0     H32106  11.947   9.463   2.660 -0.1114 -0.4287 -2.0497
  238MOL0     H32107  11.909   9.290   2.681 -0.8056  0.8898  0.3817
  238MOL0     H32108  12.153   9.427   2.795  0.7537 -1.0400 -1.4314
  238MOL0     H32109  12.110   9.260   2.829  0.4054 -1.0842 -1.2836
  238MOL0     H32110  12.025   9.362   3.015  1.5970  1.3280 -1.1509
  238MOL0     H32111  11.911   9.279   2.912  1.8256 -0.5997  1.8647
  238MOL0     H32112  11.573   9.199   1.884  1.0575 -1.8548  1.3569
  238MOL0     H32113  11.365   9.122   1.803 -1.6668 -1.7534  0.6647
  238MOL0     H32114  10.972   9.045   1.773 -1.2824 -0.5220 -0.5368
  238MOL0     H32115  10.783   8.977   1.652 -0.2491 -1.6523 -0.0195
  238MOL0     H32116   9.326   9.081   1.695 -2.8650 -2.0673 -0.1350
  238MOL0     H32117   9.075   9.107   1.638 -1.2679  0.8237  0.5003
  238MOL0     H32118   8.819   9.348   1.268  1.5558  2.8972  1.4462
  238MOL0     H32119   8.592   9.371   1.173  0.6593 -2.2822  0.0625
  238MOL0     H32120   8.225   9.333   1.184 -0.1501 -1.9956  2.5416
  238MOL0     H32121   8.390   9.369   1.123 -1.4499  2.5113  0.7538
  238MOL0     H32122   8.281   9.137   1.057  0.1522 -1.3732 -0.6751
  238MOL0     H32123   8.289   9.102   1.229 -0.2542 -0.1034 -0.0516
  238MOL0     H32124   8.528   9.110   1.225 -3.2333  0.9136  1.5676
  238MOL0     H32125   8.546   9.169   1.058 -0.5345 -2.4263 -2.0506
  238MOL0     H32126   8.608   8.944   1.051 -1.1098 -1.1470 -3.8893
  238MOL0     H32127   8.447   8.962   0.967 -1.1636  1.8717 -0.5995
  238MOL0     H32128   8.308   8.706   1.249  0.7756 -2.2514 -2.8625
  238MOL0     H32129   8.446   9.303   1.572  0.0553  3.3463  0.7997
  238MOL0     H32130   8.682   9.344   1.662  2.8570  1.0575 -0.5072
  239MOL0     O32131   4.254   2.932   4.449  0.3141 -0.3799 -0.1262
  239MOL0     C32132   4.229   3.003   4.348  1.1094  1.3111 -0.6476
  239MOL0     O32133   4.324   3.056   4.272 -0.3994 -0.2508  0.0624
  239MOL0     C32134   4.443   3.089   4.319  0.5446  1.3018  0.4076
  239MOL0     C32135   4.466   3.161   4.436  0.4591  0.9449  0.5810
  239MOL0     C32136   4.594   3.192   4.474  0.5663  0.4455  0.7590
  239MOL0     C32137   4.702   3.163   4.394 -0.7357  0.1593  0.2496
  239MOL0     O32138   4.822   3.212   4.440 -0.1010  0.5529  0.2915
  239MOL0     C32139   4.942   3.157   4.384  0.6632  0.3826 -0.3284
  239MOL0     C32140   5.068   3.223   4.442  0.0159  0.4170  1.2511
  239MOL0     C32141   5.213   3.183   4.393 -0.1095 -0.0481  0.1628
  239MOL0     C32142   5.320   3.301   4.390 -0.2169 -0.0415 -0.0956
  239MOL0     C32143   5.442   3.232   4.333 -0.3456 -0.0833  0.5310
  239MOL0     C32144   5.559   3.328   4.328 -0.6500 -0.6430  0.3738
  239MOL0     C32145   5.682   3.254   4.261  0.4206 -1.0123 -0.1676
  239MOL0     C32146   5.750   3.141   4.335 -0.0344 -0.5438 -0.6128
  239MOL0     N32147   5.887   3.111   4.293 -0.3022  0.3333  0.5121
  239MOL0     C32148   5.934   3.052   4.179  0.2271 -1.5030 -0.7090
  239MOL0     C32149   6.059   3.010   4.199  1.0808 -0.4113 -0.1253
  239MOL0     C32150   6.141   2.929   4.114 -1.4497  0.8456 -0.2168
  239MOL0     C32151   6.243   3.016   4.039  0.1189 -0.0288  0.1954
  239MOL0     C32152   6.333   2.928   3.951 -0.7131  0.1906 -0.4558
  239MOL0     C32153   6.367   3.004   3.826  0.5569  0.0953  0.5587
  239MOL0     O32154   6.414   3.134   3.859 -0.3675  0.0880 -0.9137
  239MOL0     C32155   6.506   3.201   3.776  0.1988  0.6521  0.7020
  239MOL0     C32156   6.554   3.150   3.652  0.3231 -0.6799  0.2328
  239MOL0     C32157   6.662   3.210   3.582 -0.4389 -0.9494  0.2197
  239MOL0     C32158   6.686   3.148   3.452 -0.0880  0.4214  0.4865
  239MOL0     C32159   6.738   3.309   3.646 -0.5784 -0.6372  0.2070
  239MOL0     C32160   6.870   3.353   3.596  0.2120 -0.3383 -0.0036
  239MOL0     O32161   6.947   3.400   3.700  0.4766  0.4087 -0.6453
  239MOL0     C32162   7.078   3.408   3.675 -0.1400  0.5283  0.5524
  239MOL0     C32163   7.161   3.304   3.717 -0.5706 -0.1202  0.6580
  239MOL0     C32164   7.296   3.306   3.687 -0.1058 -0.1896 -0.5376
  239MOL0     C32165   7.349   3.409   3.600  0.2486  0.4994 -0.6076
  239MOL0     O32166   7.478   3.424   3.560  0.1345  0.2295  0.2439
  239MOL0     C32167   7.540   3.301   3.536 -0.1896  0.3883  0.1788
  239MOL0     C32168   7.643   3.317   3.417  0.2780  0.4677 -0.1759
  239MOL0     C32169   7.733   3.430   3.450 -0.1513 -0.7648  0.1364
  239MOL0     C32170   7.832   3.472   3.341  0.3319  0.2115  0.6065
  239MOL0     C32171   7.944   3.553   3.396 -0.2630 -0.5182 -0.2556
  239MOL0     C32172   8.032   3.615   3.288  0.7469  0.1075  0.3636
  239MOL0     C32173   8.115   3.723   3.341 -0.0543 -0.0433 -0.5772
  239MOL0     C32174   8.081   3.863   3.285  0.0287  1.1877  1.0415
  239MOL0    Cl32175   8.100   3.880   3.108  0.0419  0.3212  0.1978
  239MOL0     C32176   7.258   3.513   3.559 -0.1895  0.5604  0.4918
  239MOL0     C32177   7.124   3.512   3.589  0.6694  0.1242  0.9203
  239MOL0     O32178   6.901   3.346   3.479  0.6801  0.2835 -0.3795
  239MOL0     C32179   6.686   3.360   3.770 -0.2599 -0.3631  0.2509
  239MOL0     C32180   6.571   3.303   3.827 -0.7650  0.1096  0.1056
  239MOL0     N32181   6.079   3.044   4.332  0.6766 -0.3169 -0.6035
  239MOL0     N32182   5.984   3.120   4.384  0.0181  0.3502  0.9501
  239MOL0     C32183   4.683   3.084   4.279  0.3141  0.0721 -0.3725
  239MOL0     C32184   4.557   3.056   4.231  0.2642 -1.1267  0.9196
  239MOL0     C32185   4.091   3.020   4.296  0.0585  0.7194  0.2887
  239MOL0     C32186   3.972   2.969   4.355  0.2496 -0.4094 -0.1954
  239MOL0     C32187   3.836   2.998   4.325 -0.3551 -0.1748  0.2512
  239MOL0     C32188   3.818   3.093   4.222  0.1723 -0.5280 -0.4682
  239MOL0     O32189   3.683   3.125   4.200 -0.1081 -0.2567 -1.3612
  239MOL0     C32190   3.652   3.202   4.083  0.0964 -0.2375 -0.4404
  239MOL0     C32191   3.499   3.209   4.068 -0.2117 -0.0865 -0.2645
  239MOL0     C32192   3.432   3.263   4.192 -0.0366 -0.2555 -0.5069
  239MOL0     C32193   3.285   3.288   4.186 -0.0016  0.2964  0.0764
  239MOL0     C32194   3.229   3.340   4.310  0.9070 -0.1184  0.1101
  239MOL0     C32195   3.180   3.382   4.413 -0.2674 -0.0598 -0.8536
  239MOL0     C32196   3.933   3.143   4.150  0.0691 -0.2684 -0.8428
  239MOL0     C32197   4.066   3.106   4.192 -0.2832 -0.7264 -0.4492
  239MOL0     H32198   4.382   3.180   4.503  1.4530  1.9554  1.5903
  239MOL0     H32199   4.604   3.266   4.552 -1.1104  0.5061  0.9561
  239MOL0     H32200   4.945   3.048   4.387 -0.1810  0.2698 -2.0384
  239MOL0     H32201   4.942   3.183   4.278 -0.8261 -2.3516 -1.0834
  239MOL0     H32202   5.061   3.330   4.423  0.6750  0.0059 -1.8101
  239MOL0     H32203   5.057   3.222   4.551 -2.6309  0.8735  1.0594
  239MOL0     H32204   5.257   3.096   4.443  0.5530 -0.1221 -0.5200
  239MOL0     H32205   5.200   3.152   4.289  0.9284 -6.0913  1.4367
  239MOL0     H32206   5.290   3.390   4.334 -3.5233 -1.7579 -1.3574
  239MOL0     H32207   5.333   3.320   4.497 -0.6678 -0.0140 -0.0431
  239MOL0     H32208   5.468   3.139   4.384  0.0313 -1.5675 -2.2139
  239MOL0     H32209   5.419   3.205   4.230  0.0321 -0.8597  0.6431
  239MOL0     H32210   5.536   3.418   4.271 -2.9470 -1.5800 -0.3375
  239MOL0     H32211   5.592   3.354   4.429  2.7414  0.7111 -0.9566
  239MOL0     H32212   5.656   3.219   4.161 -0.1397  0.0883 -0.4206
  239MOL0     H32213   5.756   3.334   4.254 -0.7446 -0.0760 -3.6912
  239MOL0     H32214   5.694   3.047   4.329 -1.0832 -0.2043  2.2969
  239MOL0     H32215   5.761   3.159   4.443  1.8511  1.5266 -1.0665
  239MOL0     H32216   5.866   3.041   4.094 -0.5991  0.7260 -0.4099
  239MOL0     H32217   6.208   2.875   4.181  0.5619  0.9275 -2.0431
  239MOL0     H32218   6.096   2.846   4.059 -1.7477  0.0009  1.2456
  239MOL0     H32219   6.294   3.066   4.121 -0.3894  1.6019 -0.4386
  239MOL0     H32220   6.181   3.084   3.980  1.2728  1.0711  0.2064
  239MOL0     H32221   6.279   2.836   3.926 -1.8782  0.9340 -0.7173
  239MOL0     H32222   6.429   2.909   4.000 -2.2751 -0.0477  2.6965
  239MOL0     H32223   6.288   3.020   3.752 -0.5087  0.5694  1.7637
  239MOL0     H32224   6.443   2.949   3.769 -1.4087  1.0591 -3.3374
  239MOL0     H32225   6.507   3.058   3.621 -0.2632 -0.4270  0.3499
  239MOL0     H32226   6.728   3.224   3.385  0.3171  0.0723  0.3448
  239MOL0     H32227   6.763   3.071   3.451  0.3207  0.8181 -0.3832
  239MOL0     H32228   6.592   3.108   3.411 -3.0243  4.4324  2.5213
  239MOL0     H32229   7.130   3.222   3.781 -0.0070 -2.4407 -1.8948
  239MOL0     H32230   7.344   3.222   3.736 -3.0448 -1.6721 -0.0035
  239MOL0     H32231   7.600   3.261   3.618 -0.1127 -4.8383 -2.0512
  239MOL0     H32232   7.476   3.216   3.513  1.8567 -1.8588  2.2263
  239MOL0     H32233   7.713   3.233   3.410  0.0338  0.3712 -2.0610
  239MOL0     H32234   7.597   3.317   3.318 -3.0347 -0.4175  1.2326
  239MOL0     H32235   7.792   3.409   3.540 -0.6586 -0.5250  0.5356
  239MOL0     H32236   7.671   3.512   3.488 -2.6362 -2.9847  1.1968
  239MOL0     H32237   7.864   3.384   3.285  1.5480  0.8325  0.2879
  239MOL0     H32238   7.776   3.535   3.270  1.9248  0.2468 -0.6746
  239MOL0     H32239   8.017   3.499   3.457  1.6574  1.3729 -0.7573
  239MOL0     H32240   7.902   3.630   3.462  2.0068  0.6117 -0.0348
  239MOL0     H32241   8.087   3.534   3.238 -0.4954 -1.5162  1.5291
  239MOL0     H32242   7.963   3.657   3.215  0.1629 -1.3612  0.0337
  239MOL0     H32243   8.221   3.702   3.330  0.3126 -0.4905  2.8090
  239MOL0     H32244   8.096   3.720   3.448  0.0130 -2.6160 -0.5710
  239MOL0     H32245   8.138   3.947   3.326  0.9519  0.6006  0.9834
  239MOL0     H32246   7.976   3.882   3.309  0.1315  3.9626 -0.2788
  239MOL0     H32247   7.303   3.592   3.500  1.7861  0.3074  1.5424
  239MOL0     H32248   7.048   3.580   3.552 -0.0869  0.6592  3.3120
  239MOL0     H32249   6.731   3.431   3.839  1.3384 -3.4185  2.6438
  239MOL0     H32250   6.546   3.331   3.929  2.7781 -2.0799  1.7936
  239MOL0     H32251   4.768   3.051   4.219 -0.5901 -4.0875  0.2953
  239MOL0     H32252   4.531   3.021   4.132 -3.1589  2.3517  0.3183
  239MOL0     H32253   3.982   2.905   4.442  0.4275  0.4514  0.4327
  239MOL0     H32254   3.758   2.944   4.376 -0.6797 -1.5132 -1.5746
  239MOL0     H32255   3.695   3.302   4.097 -0.0235 -0.4093  1.3430
  239MOL0     H32256   3.700   3.157   3.996  0.5426  1.2586 -0.9972
  239MOL0     H32257   3.459   3.109   4.052  2.8653 -1.4749 -0.0468
  239MOL0     H32258   3.476   3.280   3.987  1.8681  1.9638  0.8142
  239MOL0     H32259   3.493   3.342   4.236  1.1820 -0.7136 -1.3014
  239MOL0     H32260   3.445   3.185   4.268 -1.1572 -1.0209 -1.0715
  239MOL0     H32261   3.227   3.199   4.160  1.5028 -0.7758  0.2828
  239MOL0     H32262   3.285   3.358   4.102  1.3670 -1.3374 -1.3484
  239MOL0     H32263   3.138   3.417   4.505  0.0628  2.2097 -1.4987
  239MOL0     H32264   3.921   3.223   4.077 -0.9672  2.0354  1.6517
  239MOL0     H32265   4.148   3.152   4.138  0.7887 -0.3765  1.4081
  240MOL0     O32266   6.645   4.800  10.252 -0.0330 -0.1070  0.4865
  240MOL0     C32267   6.622   4.916  10.284  0.2409 -0.1609 -0.2223
  240MOL0     O32268   6.716   5.008  10.318 -0.5330  0.1423  0.2817
  240MOL0     C32269   6.849   4.966  10.332 -0.4514  0.1424  0.1100
  240MOL0     C32270   6.932   4.951  10.224  0.5956  0.2999  0.0233
  240MOL0     C32271   7.055   4.890  10.246 -0.1401 -0.6814  0.5893
  240MOL0     C32272   7.113   4.880  10.374  0.6392 -0.3676  0.2034
  240MOL0     O32273   7.244   4.841  10.388 -0.0110  0.4790 -0.2120
  240MOL0     C32274   7.342   4.880  10.286 -0.2091  0.6576 -0.5956
  240MOL0     C32275   7.456   4.784  10.328  0.1333  0.7359 -0.2375
  240MOL0     C32276   7.592   4.837  10.284 -0.5506 -0.1967  0.0995
  240MOL0     C32277   7.704   4.732  10.290  0.1742  0.6720 -0.2598
  240MOL0     C32278   7.844   4.773  10.247 -0.2047 -0.4137  0.7531
  240MOL0     C32279   7.862   4.825  10.106  0.3671 -0.3941  1.0585
  240MOL0     C32280   8.011   4.829  10.056 -0.3820 -0.1768  0.3495
  240MOL0     C32281   8.098   4.902  10.156  0.0737 -0.7660 -0.2834
  240MOL0     N32282   8.238   4.907  10.103  0.9621 -0.8102 -0.3790
  240MOL0     C32283   8.279   5.009  10.020  0.5206  0.0829 -0.2541
  240MOL0     C32284   8.397   4.971   9.964  0.7283  0.4607  0.1116
  240MOL0     C32285   8.472   5.059   9.868  0.3607 -0.7730 -0.0779
  240MOL0     C32286   8.604   5.113   9.935  0.7036  0.6343  0.3419
  240MOL0     C32287   8.667   5.218   9.841  0.6015 -0.2777  0.3410
  240MOL0     C32288   8.806   5.265   9.875 -0.0655  0.3010 -0.3829
  240MOL0     O32289   8.802   5.322  10.011  0.5920 -0.5293 -0.0363
  240MOL0     C32290   8.922   5.382  10.048 -0.3328 -0.8524  0.0070
  240MOL0     C32291   8.975   5.497   9.987 -0.4033 -0.8112  0.4435
  240MOL0     C32292   9.108   5.542  10.017 -1.2215 -0.1805  0.5008
  240MOL0     C32293   9.159   5.660   9.926  0.0822  0.3867 -1.1129
  240MOL0     C32294   9.179   5.471  10.119  0.2685  0.1521  0.3687
  240MOL0     C32295   9.309   5.515  10.175 -0.5665  0.6233  0.2871
  240MOL0     O32296   9.346   5.461  10.296 -1.3728  0.4669 -0.4685
  240MOL0     C32297   9.467   5.471  10.352 -0.4884 -1.0699 -0.3121
  240MOL0     C32298   9.594   5.493  10.294  0.2400  0.2354 -0.7996
  240MOL0     C32299   9.708   5.515  10.365  0.8157  0.5947 -0.3319
  240MOL0     C32300   9.703   5.527  10.507 -0.1585  0.0877 -0.2367
  240MOL0     O32301   9.822   5.553  10.580 -0.4436 -0.5641  0.4443
  240MOL0     C32302   9.867   5.436  10.635  1.1492  0.1396  0.2372
  240MOL0     C32303   9.999   5.443  10.701 -0.4418 -0.4931 -0.4220
  240MOL0     C32304  10.092   5.533  10.620 -0.1463  0.1131 -0.9028
  240MOL0     C32305  10.161   5.472  10.493  0.8538  0.3501 -1.0635
  240MOL0     C32306  10.312   5.439  10.510  0.4314 -0.3184 -0.0646
  240MOL0     C32307  10.363   5.374  10.388  0.1458  0.2612  0.7507
  240MOL0     C32308  10.513   5.383  10.372 -0.1252 -0.4519  1.1988
  240MOL0     C32309  10.553   5.376  10.229 -0.3387  0.0434  0.0046
  240MOL0    Cl32310  10.493   5.510  10.133 -0.1537 -0.3021 -0.1730
  240MOL0     C32311   9.583   5.493  10.564 -0.2931 -0.9552 -0.6696
  240MOL0     C32312   9.472   5.483  10.492  0.6255  0.7346 -0.0708
  240MOL0     O32313   9.381   5.596  10.110 -0.0764  0.2939  0.0894
  240MOL0     C32314   9.121   5.356  10.177 -0.2131  0.3373 -0.2777
  240MOL0     C32315   8.995   5.308  10.142 -0.0254  0.2484  0.3184
  240MOL0     N32316   8.436   4.854  10.030 -0.5146 -0.5303  0.6540
  240MOL0     N32317   8.344   4.818  10.112  0.2574 -0.4487 -0.1727
  240MOL0     C32318   7.028   4.896  10.484 -0.6682 -0.4460  0.0680
  240MOL0     C32319   6.901   4.950  10.461  0.0541  0.1927  0.4987
  240MOL0     C32320   6.483   4.962  10.294  0.1905 -0.7162  0.7118
  240MOL0     C32321   6.379   4.877  10.277 -0.2351  0.1617 -0.2589
  240MOL0     C32322   6.246   4.919  10.266 -0.0779  0.9645  0.0370
  240MOL0     C32323   6.224   5.059  10.285  0.1756  0.2104 -0.0234
  240MOL0     O32324   6.109   5.129  10.274  0.8140  0.3236  0.4153
  240MOL0     C32325   5.989   5.067  10.318 -0.4720  0.4289  0.8535
  240MOL0     C32326   6.004   5.053  10.471  0.3451  0.1939 -0.3284
  240MOL0     C32327   6.062   5.196  10.531  0.0376  0.5593  0.2416
  240MOL0     C32328   6.025   5.202  10.675  0.2202 -0.2024 -0.0060
  240MOL0     C32329   5.887   5.233  10.687 -0.1034 -0.0797  0.6828
  240MOL0     C32330   5.767   5.256  10.701 -1.0591 -0.5319 -0.3907
  240MOL0     C32331   6.324   5.152  10.312 -0.8555  0.1836 -0.3094
  240MOL0     C32332   6.450   5.103  10.318  0.0984 -0.5447 -1.2692
  240MOL0     H32333   6.891   4.959  10.123  1.4283  0.7036 -0.2828
  240MOL0     H32334   7.108   4.860  10.156  2.9125 -0.2301  2.0716
  240MOL0     H32335   7.316   4.861  10.182  2.1629 -0.4650 -1.0389
  240MOL0     H32336   7.371   4.985  10.296  1.6888  0.1957 -0.9097
  240MOL0     H32337   7.458   4.773  10.436  1.1236  0.8701 -0.2343
  240MOL0     H32338   7.435   4.684  10.290  0.4444 -0.2986  2.1598
  240MOL0     H32339   7.584   4.878  10.183 -1.2260  0.7364  0.5063
  240MOL0     H32340   7.630   4.924  10.339  1.3468 -0.9561  0.0346
  240MOL0     H32341   7.711   4.706  10.395 -0.6257 -0.7140 -0.5333
  240MOL0     H32342   7.671   4.639  10.243  0.6876  1.3483 -2.0381
  240MOL0     H32343   7.860   4.855  10.318  1.2793  1.1058 -1.2161
  240MOL0     H32344   7.910   4.687  10.262 -1.8965 -1.6400  1.4389
  240MOL0     H32345   7.797   4.755  10.054  1.3651  0.8313 -2.0387
  240MOL0     H32346   7.814   4.923  10.117 -2.5654 -1.9294  3.6305
  240MOL0     H32347   8.044   4.725  10.062  1.1063 -0.0404 -3.2566
  240MOL0     H32348   8.021   4.878   9.959 -0.5136 -1.3284 -0.2653
  240MOL0     H32349   8.104   4.836  10.243  0.5563 -1.9088 -1.1570
  240MOL0     H32350   8.063   5.004  10.175 -1.6241 -1.8048  2.8353
  240MOL0     H32351   8.235   5.102   9.985  0.1257  0.5686  1.4164
  240MOL0     H32352   8.493   5.004   9.776 -1.2994  0.7822 -1.4483
  240MOL0     H32353   8.408   5.145   9.846 -1.9966 -1.7726  2.2182
  240MOL0     H32354   8.671   5.026   9.928  0.8599  0.6932  1.0356
  240MOL0     H32355   8.585   5.143  10.038  2.3036  1.4854  0.4234
  240MOL0     H32356   8.610   5.310   9.830  1.3967  0.5277  2.5172
  240MOL0     H32357   8.664   5.172   9.742 -0.3627 -2.5504  1.3299
  240MOL0     H32358   8.847   5.335   9.802 -1.2820 -0.4349 -1.8240
  240MOL0     H32359   8.878   5.182   9.880 -1.7997 -1.6389 -4.0142
  240MOL0     H32360   8.914   5.548   9.913 -1.3895  2.5171  3.2605
  240MOL0     H32361   9.109   5.673   9.830 -1.4230  0.5476 -0.3493
  240MOL0     H32362   9.150   5.753   9.983 -0.8594 -0.6558  0.5499
  240MOL0     H32363   9.262   5.641   9.897  0.9510  1.6095  0.9798
  240MOL0     H32364   9.612   5.487  10.187 -0.2368  2.6035 -1.0725
  240MOL0     H32365   9.810   5.537  10.333  0.5500  2.8858  0.1899
  240MOL0     H32366   9.798   5.411  10.716  0.6721 -0.5491 -0.3688
  240MOL0     H32367   9.866   5.351  10.566  1.1138 -0.5694  1.0953
  240MOL0     H32368   9.989   5.487  10.800 -3.0348 -2.9073  0.5082
  240MOL0     H32369  10.051   5.349  10.725  0.9843  0.5075  0.5939
  240MOL0     H32370  10.168   5.562  10.693 -0.3637 -0.3361 -0.4933
  240MOL0     H32371  10.032   5.621  10.593 -1.0015  0.0525  0.6612
  240MOL0     H32372  10.114   5.379  10.461  1.5261 -1.6576  3.1332
  240MOL0     H32373  10.154   5.546  10.413  0.8675  0.6300 -0.8095
  240MOL0     H32374  10.335   5.372  10.593  0.3734 -1.9495 -1.3277
  240MOL0     H32375  10.371   5.530  10.527  0.9700 -0.8423  0.9342
  240MOL0     H32376  10.335   5.268  10.381 -0.6539  0.5093  0.1603
  240MOL0     H32377  10.315   5.407  10.296  0.3170 -2.2230 -0.3204
  240MOL0     H32378  10.577   5.317  10.431  1.5980 -1.0656 -1.2240
  240MOL0     H32379  10.552   5.478  10.409 -1.2696  0.5582 -0.0840
  240MOL0     H32380  10.533   5.279  10.182 -0.8375  0.9249 -1.7146
  240MOL0     H32381  10.660   5.397  10.217 -0.6072  2.3861  1.1616
  240MOL0     H32382   9.574   5.495  10.672  0.6268  1.2854 -0.5856
  240MOL0     H32383   9.376   5.452  10.533  0.0306  0.1373 -1.8490
  240MOL0     H32384   9.166   5.301  10.259 -2.0381 -2.4407 -1.0057
  240MOL0     H32385   8.949   5.213  10.166  0.1274 -0.9816 -3.5730
  240MOL0     H32386   7.071   4.867  10.579 -2.4119 -3.0713  0.1463
  240MOL0     H32387   6.828   4.953  10.541  1.0621 -0.6848  1.4989
  240MOL0     H32388   6.385   4.770  10.260 -2.0004 -0.3079  1.7092
  240MOL0     H32389   6.170   4.844  10.247 -0.4474  0.5117  2.8868
  240MOL0     H32390   5.903   5.134  10.308  0.5490  1.6179 -0.3850
  240MOL0     H32391   5.955   4.978  10.265 -1.6616  0.6337  1.2531
  240MOL0     H32392   6.065   4.968  10.501 -0.5943 -0.9984 -1.6439
  240MOL0     H32393   5.902   5.030  10.503  0.1018  1.8060  0.1556
  240MOL0     H32394   6.032   5.284  10.473  1.5041  1.1836  0.3845
  240MOL0     H32395   6.172   5.195  10.532  0.0434  0.8801  0.1344
  240MOL0     H32396   6.085   5.279  10.724  0.0716 -0.2372  0.2326
  240MOL0     H32397   6.040   5.103  10.719 -1.7369 -0.8843 -0.7641
  240MOL0     H32398   5.665   5.285  10.715 -1.1105  0.2340 -2.0788
  240MOL0     H32399   6.306   5.255  10.342 -2.0585 -0.6738  2.2595
  240MOL0     H32400   6.523   5.181  10.340 -0.7683 -0.0899  0.0911
  241MOL0     O32401   6.520   0.099   1.673 -0.7553 -0.0884 -0.4415
  241MOL0     C32402   6.491  -0.010   1.625  0.6877 -1.7271 -0.5533
  241MOL0     O32403   6.362  -0.066   1.627  0.4695 -0.1554  1.1560
  241MOL0     C32404   6.268  -0.006   1.706 -0.0491  0.1682 -0.7201
  241MOL0     C32405   6.245   0.130   1.734  1.3080  0.1331  0.0615
  241MOL0     C32406   6.146   0.173   1.816  0.0522 -0.1104  0.2396
  241MOL0     C32407   6.063   0.077   1.880  0.4357 -0.5369  0.2500
  241MOL0     O32408   5.956   0.100   1.959 -0.2698 -0.7114 -0.5229
  241MOL0     C32409   5.899   0.236   1.969 -0.2409 -0.3555 -0.4415
  241MOL0     C32410   5.764   0.241   2.029 -0.0759 -0.1346  0.0888
  241MOL0     C32411   5.678   0.124   1.991 -0.3032  0.5156 -0.1225
  241MOL0     C32412   5.540   0.155   2.051 -0.2192  0.0435  0.1176
  241MOL0     C32413   5.423   0.057   2.008 -1.1466  0.1283 -0.0811
  241MOL0     C32414   5.449  -0.091   2.062  1.0150  0.3599 -0.2051
  241MOL0     C32415   5.355  -0.189   1.998  0.5852  0.5442 -0.0262
  241MOL0     C32416   5.367  -0.332   2.041  0.5617  0.1318 -0.2518
  241MOL0     N32417   5.247  -0.411   2.012  1.1790 -0.2185  0.1742
  241MOL0     C32418   5.137  -0.433   2.095  0.7819  0.2927 -0.1481
  241MOL0     C32419   5.043  -0.491   2.013  0.2215  0.0235  0.4303
  241MOL0     C32420   4.898  -0.515   2.051  0.2254  0.7503 -0.2414
  241MOL0     C32421   4.844  -0.628   1.961  0.1530  0.4306 -0.4185
  241MOL0     C32422   4.861  -0.766   2.036  0.1786 -0.2808 -0.0622
  241MOL0     C32423   4.792  -0.885   1.969  0.0152 -0.4586  0.1026
  241MOL0     O32424   4.650  -0.864   1.983 -0.1257 -0.7662 -0.4938
  241MOL0     C32425   4.589  -0.923   2.092  0.1081 -0.4394  0.6245
  241MOL0     C32426   4.448  -0.924   2.097  0.2865  0.1780  0.1189
  241MOL0     C32427   4.377  -0.988   2.195  0.2623  0.0816  0.3596
  241MOL0     C32428   4.221  -0.975   2.202 -0.5817 -0.3290 -0.8267
  241MOL0     C32429   4.443  -1.052   2.296  0.1476  0.3432 -0.7390
  241MOL0     C32430   4.373  -1.135   2.400  0.2613  0.2061 -0.1486
  241MOL0     O32431   4.262  -1.215   2.375  0.5763 -0.2212 -0.0820
  241MOL0     C32432   4.163  -1.249   2.464  1.0424 -0.6343  0.1832
  241MOL0     C32433   4.142  -1.189   2.592 -0.4095  0.4270  0.3283
  241MOL0     C32434   4.039  -1.227   2.669  0.5293  0.2267  0.2526
  241MOL0     C32435   3.945  -1.326   2.632 -0.4858  1.0237  1.0468
  241MOL0     O32436   3.845  -1.363   2.724  0.1313  0.2061 -0.0072
  241MOL0     C32437   3.725  -1.410   2.665 -0.1316 -0.7015  0.4105
  241MOL0     C32438   3.616  -1.449   2.758  0.3758 -0.1618 -0.1810
  241MOL0     C32439   3.552  -1.322   2.827 -0.3874 -0.1758  0.3856
  241MOL0     C32440   3.451  -1.373   2.928 -0.6864 -0.8417  0.4062
  241MOL0     C32441   3.350  -1.264   2.966 -0.1229 -0.0338 -0.9817
  241MOL0     C32442   3.251  -1.223   2.850  0.4090 -0.0567  0.5653
  241MOL0     C32443   3.174  -1.107   2.900  0.5675 -0.2904 -1.0441
  241MOL0     C32444   3.080  -1.051   2.798  0.5771  0.1733 -0.8786
  241MOL0    Cl32445   3.171  -0.968   2.676 -0.2178 -0.1527  0.0914
  241MOL0     C32446   3.963  -1.384   2.504  0.5205 -0.6952 -0.2601
  241MOL0     C32447   4.068  -1.349   2.424  0.0665 -0.5095 -0.7575
  241MOL0     O32448   4.432  -1.129   2.510  0.1064  0.3676  0.9645
  241MOL0     C32449   4.582  -1.045   2.294 -0.2412  0.1972  0.3890
  241MOL0     C32450   4.652  -0.977   2.198  0.0702  0.2197 -0.7290
  241MOL0     N32451   5.108  -0.514   1.893 -0.2536  0.3028 -0.1832
  241MOL0     N32452   5.225  -0.473   1.892 -0.0468  0.5178  0.1769
  241MOL0     C32453   6.087  -0.061   1.857 -0.5213  0.5170  0.4438
  241MOL0     C32454   6.194  -0.098   1.779 -0.7225  1.3644  0.8866
  241MOL0     C32455   6.608  -0.089   1.585 -0.5582  0.7753  0.3098
  241MOL0     C32456   6.736  -0.035   1.576  0.4451  0.7635 -0.3999
  241MOL0     C32457   6.842  -0.109   1.526 -0.0385  0.0427 -0.3100
  241MOL0     C32458   6.841  -0.248   1.507  0.5725  0.0478 -1.0263
  241MOL0     O32459   6.948  -0.321   1.471 -0.2307  0.4039  0.4122
  241MOL0     C32460   7.037  -0.351   1.575 -0.0523 -0.0379 -0.2571
  241MOL0     C32461   7.148  -0.450   1.534  0.4401 -1.0141 -0.6383
  241MOL0     C32462   7.229  -0.402   1.419 -0.6110  0.7156 -0.7231
  241MOL0     C32463   7.282  -0.259   1.448  0.8641  0.5818  0.0036
  241MOL0     C32464   7.363  -0.253   1.570  0.4272  0.4212 -0.3708
  241MOL0     C32465   7.411  -0.254   1.682  0.5956 -0.5976 -0.0193
  241MOL0     C32466   6.718  -0.309   1.536 -0.9430  1.0815  0.5779
  241MOL0     C32467   6.603  -0.230   1.576 -0.2117 -0.0406 -0.7750
  241MOL0     H32468   6.298   0.211   1.685  0.8548  0.2802 -0.1918
  241MOL0     H32469   6.130   0.277   1.844 -0.7528 -0.1394 -0.0813
  241MOL0     H32470   5.959   0.302   2.032  0.5705  0.2847 -1.8499
  241MOL0     H32471   5.903   0.286   1.872  2.8418 -2.3331 -1.4651
  241MOL0     H32472   5.766   0.244   2.139  3.1345 -2.4527  0.2296
  241MOL0     H32473   5.728   0.338   1.994  0.2645 -0.6500 -1.8007
  241MOL0     H32474   5.681   0.115   1.882 -1.1307  0.3816 -0.1455
  241MOL0     H32475   5.714   0.028   2.029  0.0484 -0.3929 -2.5982
  241MOL0     H32476   5.554   0.154   2.160 -2.1967  1.1928  0.4347
  241MOL0     H32477   5.526   0.260   2.021 -0.8056  0.2291  1.0085
  241MOL0     H32478   5.328   0.096   2.045  0.0292  1.2530  1.8703
  241MOL0     H32479   5.432   0.062   1.899  2.3285  3.1127  0.1608
  241MOL0     H32480   5.554  -0.113   2.044  1.1538  1.8365 -1.4392
  241MOL0     H32481   5.427  -0.088   2.170  0.6129  0.8180 -0.2935
  241MOL0     H32482   5.259  -0.150   2.033 -0.1736 -1.6516  0.5058
  241MOL0     H32483   5.365  -0.194   1.889  1.3267 -2.3596  0.0884
  241MOL0     H32484   5.396  -0.343   2.146 -1.0407  1.4756  0.3966
  241MOL0     H32485   5.443  -0.381   1.980 -2.0351 -1.7620 -2.2066
  241MOL0     H32486   5.119  -0.394   2.194 -0.5834 -0.1669 -0.1915
  241MOL0     H32487   4.893  -0.533   2.159  1.3031  0.8816 -0.1528
  241MOL0     H32488   4.831  -0.430   2.035 -2.8519 -1.7044 -1.3671
  241MOL0     H32489   4.886  -0.641   1.861  3.3629 -5.0902  1.1876
  241MOL0     H32490   4.737  -0.613   1.942  0.3344 -1.3435 -3.4444
  241MOL0     H32491   4.804  -0.767   2.129  0.1570 -3.2446  0.0066
  241MOL0     H32492   4.967  -0.784   2.058  0.7281  1.7929 -0.8062
  241MOL0     H32493   4.827  -0.977   2.017  2.2622 -1.1724 -2.6200
  241MOL0     H32494   4.819  -0.901   1.864  3.7753  2.4973  0.4287
  241MOL0     H32495   4.393  -0.862   2.027  0.4093  1.1346  0.8451
  241MOL0     H32496   4.186  -0.975   2.306  1.8948  2.2689  0.1428
  241MOL0     H32497   4.195  -0.880   2.153  0.0041 -0.1987 -0.8953
  241MOL0     H32498   4.174  -1.062   2.156  1.4435 -0.5086 -2.7445
  241MOL0     H32499   4.205  -1.107   2.625 -1.3520  2.1007 -1.7579
  241MOL0     H32500   4.024  -1.168   2.759  1.0615 -0.3595  0.7315
  241MOL0     H32501   3.682  -1.323   2.616  1.0327 -0.2631  0.1437
  241MOL0     H32502   3.756  -1.493   2.600 -1.3360 -1.8941  1.2892
  241MOL0     H32503   3.542  -1.508   2.704  2.2279  1.5124 -5.1214
  241MOL0     H32504   3.652  -1.509   2.842  2.4839  1.3001  0.0373
  241MOL0     H32505   3.507  -1.262   2.747  2.5280  0.9970 -0.5322
  241MOL0     H32506   3.625  -1.257   2.876 -0.9022  0.2619  0.5792
  241MOL0     H32507   3.407  -1.469   2.899  1.3548 -1.8697  0.4886
  241MOL0     H32508   3.500  -1.397   3.023 -1.8481 -2.9686  0.5245
  241MOL0     H32509   3.406  -1.173   2.989 -1.7888  1.3205 -1.9676
  241MOL0     H32510   3.293  -1.297   3.054 -2.2584  1.4969 -1.6978
  241MOL0     H32511   3.300  -1.181   2.761 -3.3070  1.4068 -0.9589
  241MOL0     H32512   3.182  -1.301   2.816 -0.8232  0.5601  1.6147
  241MOL0     H32513   3.229  -1.025   2.946  1.1953 -1.2692 -0.0270
  241MOL0     H32514   3.109  -1.149   2.977 -1.2353  3.9434  0.0167
  241MOL0     H32515   3.010  -0.981   2.844 -0.8663 -2.2328  0.8400
  241MOL0     H32516   3.010  -1.128   2.764 -0.4742 -0.2610  2.0155
  241MOL0     H32517   3.910  -1.472   2.470 -2.0613  0.2652  1.0256
  241MOL0     H32518   4.063  -1.406   2.332 -0.6517  1.2378 -1.8500
  241MOL0     H32519   4.629  -1.093   2.380  2.1551  2.3424  0.3720
  241MOL0     H32520   4.757  -0.971   2.227 -0.0777 -1.9070  0.4758
  241MOL0     H32521   6.031  -0.139   1.908 -0.2052  0.2299  0.3540
  241MOL0     H32522   6.203  -0.205   1.766 -2.5344  1.3246 -0.4217
  241MOL0     H32523   6.743   0.066   1.613  1.0954  0.8607 -0.7757
  241MOL0     H32524   6.936  -0.055   1.523  0.8540 -1.4568 -0.5295
  241MOL0     H32525   7.074  -0.257   1.617 -0.6388  1.9306 -3.7763
  241MOL0     H32526   6.981  -0.406   1.652  0.5306  1.8268  1.5856
  241MOL0     H32527   7.099  -0.546   1.514  0.0342 -1.1839  1.0318
  241MOL0     H32528   7.211  -0.474   1.620  1.5299 -0.7592 -1.3439
  241MOL0     H32529   7.164  -0.396   1.332  1.2072  0.5448 -2.1425
  241MOL0     H32530   7.307  -0.475   1.397  0.0514  0.4464  2.0818
  241MOL0     H32531   7.199  -0.187   1.446 -0.7666 -1.1949 -2.4607
  241MOL0     H32532   7.344  -0.235   1.361  1.9320 -1.7924  0.0424
  241MOL0     H32533   7.449  -0.242   1.782  0.8015  1.0662 -0.2660
  241MOL0     H32534   6.714  -0.416   1.521  1.7802  1.3416 -3.4076
  241MOL0     H32535   6.508  -0.273   1.602 -0.2971  1.1144  0.9682
  242MOL0     O32536   4.766   1.784   0.839  0.3792  0.9166 -0.3879
  242MOL0     C32537   4.702   1.791   0.948  0.6747 -0.3288  0.5889
  242MOL0     O32538   4.564   1.786   0.962 -0.5524  0.2679 -0.2325
  242MOL0     C32539   4.490   1.745   0.857  0.4855 -0.2006 -0.5725
  242MOL0     C32540   4.484   1.818   0.737  0.3340  0.6035  0.3546
  242MOL0     C32541   4.382   1.782   0.643  0.1941 -0.3706  0.0909
  242MOL0     C32542   4.297   1.671   0.662 -0.2064  0.9259  1.2836
  242MOL0     O32543   4.205   1.615   0.570 -0.7540  0.1184 -0.2825
  242MOL0     C32544   4.231   1.660   0.430  0.0600  0.7250 -0.1964
  242MOL0     C32545   4.148   1.577   0.332  0.0194  0.7098  0.1064
  242MOL0     C32546   4.001   1.571   0.383 -0.8251 -0.1880  0.8487
  242MOL0     C32547   3.907   1.522   0.262  0.6289  0.3603 -0.3310
  242MOL0     C32548   3.946   1.388   0.207  0.2940 -1.0128 -0.6601
  242MOL0     C32549   3.856   1.324   0.114 -0.3979 -0.9662  0.1757
  242MOL0     C32550   3.904   1.208   0.032 -0.0106  0.4831  0.0120
  242MOL0     C32551   3.798   1.125  -0.047 -0.8849 -0.5877  0.2426
  242MOL0     N32552   3.851   0.997  -0.093 -0.0146  0.1946 -0.3697
  242MOL0     C32553   3.860   0.883  -0.010 -0.6798  0.2510 -0.0121
  242MOL0     C32554   3.936   0.798  -0.081 -0.1368  0.0065 -0.9336
  242MOL0     C32555   3.970   0.659  -0.025 -0.5897 -1.0799 -0.0976
  242MOL0     C32556   4.008   0.667   0.119  0.1777  0.1768 -0.1919
  242MOL0     C32557   4.138   0.738   0.150  0.3647  0.3743  0.5088
  242MOL0     C32558   4.255   0.717   0.058 -0.6774 -0.0166 -0.4146
  242MOL0     O32559   4.374   0.775   0.130  0.0336 -0.4094 -0.4187
  242MOL0     C32560   4.491   0.761   0.067 -0.4187  0.5643  0.2278
  242MOL0     C32561   4.600   0.805   0.136  0.3591 -1.0146 -0.7609
  242MOL0     C32562   4.731   0.794   0.091  0.8020 -0.9242 -0.5695
  242MOL0     C32563   4.840   0.852   0.179 -0.0156 -0.2745  0.5137
  242MOL0     C32564   4.757   0.724  -0.026  0.2639 -0.0899 -0.6793
  242MOL0     C32565   4.888   0.726  -0.098 -0.0030 -0.5743  0.1574
  242MOL0     O32566   4.925   0.607  -0.144 -0.3319 -0.4948  0.7240
  242MOL0     C32567   5.055   0.585  -0.189  0.4006 -0.7364  0.0873
  242MOL0     C32568   5.171   0.629  -0.131 -0.1009 -0.7428  0.0999
  242MOL0     C32569   5.299   0.595  -0.169 -0.1833  1.2354  0.1656
  242MOL0     C32570   5.314   0.500  -0.276  1.1943 -0.2230 -0.4202
  242MOL0     O32571   5.434   0.459  -0.329 -0.1282  0.1242  0.0547
  242MOL0     C32572   5.509   0.570  -0.383 -0.2632  0.2226 -0.4360
  242MOL0     C32573   5.659   0.548  -0.362 -0.2605 -0.1216 -0.4737
  242MOL0     C32574   5.738   0.658  -0.426 -0.5091  0.2280  0.3010
  242MOL0     C32575   5.887   0.642  -0.415  0.2506 -0.5618  0.0059
  242MOL0     C32576   5.965   0.700  -0.532 -0.5244  0.7917  0.5188
  242MOL0     C32577   6.127   0.706  -0.493  0.7676 -0.3250  1.1263
  242MOL0     C32578   6.195   0.815  -0.576 -0.8819 -0.0826 -0.0528
  242MOL0     C32579   6.150   0.960  -0.553  0.5242  0.8745  0.1768
  242MOL0    Cl32580   6.265   1.077  -0.621  0.2022 -0.2563  0.2369
  242MOL0     C32581   5.196   0.458  -0.331  0.6959  0.3025  0.7716
  242MOL0     C32582   5.071   0.496  -0.293  1.0831  0.6445  0.8079
  242MOL0     O32583   4.952   0.834  -0.102 -0.4927  1.0452  0.3139
  242MOL0     C32584   4.643   0.665  -0.095 -0.8391 -0.7266 -0.3606
  242MOL0     C32585   4.509   0.687  -0.046 -0.1502 -0.4238 -0.5685
  242MOL0     N32586   3.978   0.852  -0.201 -0.1792  0.9156  0.1437
  242MOL0     N32587   3.914   0.965  -0.205  0.1803  0.2412 -0.9423
  242MOL0     C32588   4.314   1.589   0.773  0.1690 -0.5134 -0.3153
  242MOL0     C32589   4.401   1.638   0.870  0.1714  0.3253 -0.0031
  242MOL0     C32590   4.781   1.819   1.068  0.8927 -0.4151  0.3291
  242MOL0     C32591   4.921   1.814   1.061  0.5726 -0.2732 -0.4568
  242MOL0     C32592   4.999   1.829   1.180  0.3179  0.2952  0.2130
  242MOL0     C32593   4.940   1.851   1.299 -0.2673  0.3787  0.2922
  242MOL0     O32594   5.008   1.847   1.417 -0.0982 -0.4295  0.1970
  242MOL0     C32595   5.138   1.917   1.422 -0.0726  0.2781  0.4491
  242MOL0     C32596   5.192   1.874   1.555  0.2511 -0.5418 -0.2344
  242MOL0     C32597   5.328   1.944   1.579 -0.0102 -0.4255 -0.8712
  242MOL0     C32598   5.366   1.965   1.719  0.2594 -0.5196 -1.0518
  242MOL0     C32599   5.387   1.833   1.784 -0.4271 -0.1814 -0.4872
  242MOL0     C32600   5.424   1.732   1.843  0.0579 -0.6230 -0.4620
  242MOL0     C32601   4.797   1.864   1.298  0.1796  0.0445 -0.4348
  242MOL0     C32602   4.714   1.847   1.188  0.2114  0.1973  0.2291
  242MOL0     H32603   4.548   1.906   0.728  3.6579 -1.7716 -1.0235
  242MOL0     H32604   4.370   1.856   0.565  1.7153  1.5575  1.5981
  242MOL0     H32605   4.192   1.761   0.413  1.5334  1.3777  0.1388
  242MOL0     H32606   4.336   1.654   0.401 -0.0402  0.7794 -0.5822
  242MOL0     H32607   4.151   1.623   0.233  0.8241 -0.5253 -0.4699
  242MOL0     H32608   4.199   1.480   0.327  1.9070  1.1420  5.1401
  242MOL0     H32609   3.990   1.503   0.468 -1.0350 -0.6427  0.4624
  242MOL0     H32610   3.968   1.671   0.410 -2.1326 -0.7925  1.6170
  242MOL0     H32611   3.803   1.514   0.297  1.0239 -0.1279  0.7956
  242MOL0     H32612   3.913   1.594   0.180  1.1328 -1.0347 -1.5581
  242MOL0     H32613   4.040   1.396   0.151  2.9368 -3.1785  2.9427
  242MOL0     H32614   3.966   1.313   0.284 -0.4897 -1.0320 -0.4752
  242MOL0     H32615   3.780   1.290   0.185  1.4884 -1.5132  2.0710
  242MOL0     H32616   3.818   1.406   0.053  1.9887  1.7446  2.0640
  242MOL0     H32617   3.989   1.237  -0.031 -0.5111 -1.7528 -1.8197
  242MOL0     H32618   3.951   1.147   0.109 -0.0729  3.2265  2.3764
  242MOL0     H32619   3.755   1.180  -0.131 -2.5051 -0.2573  1.2486
  242MOL0     H32620   3.708   1.100   0.009 -0.8841 -0.9658  0.0783
  242MOL0     H32621   3.822   0.868   0.091 -0.4650 -0.8258 -0.0754
  242MOL0     H32622   3.876   0.602  -0.016  1.1194 -3.8568  1.8488
  242MOL0     H32623   4.032   0.601  -0.094 -0.6402  0.5613 -1.5963
  242MOL0     H32624   4.016   0.567   0.163 -0.3224  0.7028  1.1362
  242MOL0     H32625   3.933   0.710   0.186 -0.4346 -0.1264 -0.6622
  242MOL0     H32626   4.169   0.711   0.251  1.9125 -1.8053 -0.4713
  242MOL0     H32627   4.125   0.847   0.156 -0.1118  0.3738 -0.3533
  242MOL0     H32628   4.240   0.763  -0.040 -1.9053 -1.4744 -0.9504
  242MOL0     H32629   4.248   0.608   0.044 -3.1703  0.2974 -2.5146
  242MOL0     H32630   4.576   0.857   0.228 -0.0419 -0.3860 -1.2204
  242MOL0     H32631   4.815   0.846   0.286  1.0095  4.4640  1.2152
  242MOL0     H32632   4.927   0.790   0.154 -1.5625 -2.4607  0.1991
  242MOL0     H32633   4.859   0.950   0.135 -0.5934 -1.6676 -3.1691
  242MOL0     H32634   5.160   0.711  -0.061  0.0602 -0.5982 -0.0466
  242MOL0     H32635   5.392   0.634  -0.127  4.1722 -3.1965 -4.1021
  242MOL0     H32636   5.490   0.566  -0.491  0.1729 -1.3455 -0.4876
  242MOL0     H32637   5.480   0.664  -0.335 -3.5721 -1.4586  1.2117
  242MOL0     H32638   5.683   0.525  -0.258 -0.8642  2.3013  0.2579
  242MOL0     H32639   5.692   0.460  -0.417 -1.3996 -0.4510 -0.6680
  242MOL0     H32640   5.720   0.755  -0.378  1.0451  1.4788 -1.4786
  242MOL0     H32641   5.709   0.663  -0.531  1.2881  3.4229 -0.1837
  242MOL0     H32642   5.913   0.699  -0.326 -0.0310 -0.0405 -0.2401
  242MOL0     H32643   5.918   0.539  -0.398  2.1433 -0.2297 -1.0874
  242MOL0     H32644   5.939   0.805  -0.549 -0.8442  0.5368 -0.6523
  242MOL0     H32645   5.945   0.652  -0.628 -0.5843  0.1576  0.8430
  242MOL0     H32646   6.126   0.721  -0.385 -3.2954 -1.0850  1.3404
  242MOL0     H32647   6.154   0.605  -0.524  0.7671  0.5472 -2.0638
  242MOL0     H32648   6.189   0.785  -0.682  3.1771 -1.6303 -0.0268
  242MOL0     H32649   6.301   0.798  -0.555 -1.0593 -2.6213 -0.8486
  242MOL0     H32650   6.134   0.985  -0.447 -0.9267  0.5752  0.0451
  242MOL0     H32651   6.056   0.984  -0.603  0.6109  0.6365 -0.1032
  242MOL0     H32652   5.188   0.385  -0.411 -1.8003 -3.4796  4.0693
  242MOL0     H32653   4.980   0.464  -0.343 -0.9061  0.9908  3.8859
  242MOL0     H32654   4.668   0.593  -0.172  2.0825  0.1736 -0.3810
  242MOL0     H32655   4.439   0.629  -0.106 -0.7134  0.4737 -0.8102
  242MOL0     H32656   4.256   1.497   0.782 -1.3078  0.5344  1.4642
  242MOL0     H32657   4.408   1.578   0.960 -0.4874 -1.5697 -1.1422
  242MOL0     H32658   4.965   1.793   0.964  0.0212  2.9515 -1.5294
  242MOL0     H32659   5.105   1.831   1.159  0.4405 -0.5577  0.6693
  242MOL0     H32660   5.214   1.888   1.350 -0.3420  1.0229 -0.1382
  242MOL0     H32661   5.121   2.024   1.414 -1.8833 -0.0874 -1.4594
  242MOL0     H32662   5.190   1.765   1.556  0.1376 -0.5404 -0.2408
  242MOL0     H32663   5.120   1.902   1.632 -0.7392  1.0670 -1.6643
  242MOL0     H32664   5.316   2.042   1.531  0.4796 -0.0309 -0.2181
  242MOL0     H32665   5.402   1.885   1.524  0.1165  0.2055 -1.3905
  242MOL0     H32666   5.286   2.017   1.772  1.6967  1.1514 -0.4216
  242MOL0     H32667   5.459   2.021   1.727 -1.7204  2.8760  0.1725
  242MOL0     H32668   5.470   1.650   1.895  0.2408 -0.3548 -0.1963
  242MOL0     H32669   4.743   1.881   1.391 -1.9542 -1.1258 -1.3767
  242MOL0     H32670   4.608   1.857   1.206  0.3165 -0.3646  1.2022
  243MOL0     O32671   4.167   6.072   4.002 -0.8317  0.5842 -0.4376
  243MOL0     C32672   4.252   6.001   3.944  0.7515  0.2817 -0.2673
  243MOL0     O32673   4.222   5.882   3.870 -0.1559  0.2314  0.6254
  243MOL0     C32674   4.094   5.823   3.854 -0.1853 -0.3345 -0.3575
  243MOL0     C32675   4.047   5.776   3.733 -0.9931 -0.2205 -0.6567
  243MOL0     C32676   3.914   5.731   3.723  0.0352 -0.4264  0.3783
  243MOL0     C32677   3.823   5.737   3.832 -0.1563 -0.2401 -0.3342
  243MOL0     O32678   3.696   5.684   3.826  0.1292  0.4518  0.0486
  243MOL0     C32679   3.627   5.738   3.710  0.1192 -0.5431  0.2092
  243MOL0     C32680   3.623   5.620   3.612 -0.6188 -0.5248 -0.1176
  243MOL0     C32681   3.612   5.681   3.461  0.8919  0.6225 -0.1610
  243MOL0     C32682   3.472   5.674   3.401 -0.0753  0.8441  0.0609
  243MOL0     C32683   3.370   5.750   3.479 -0.1714  0.5123  0.0854
  243MOL0     C32684   3.248   5.793   3.400  0.7834  0.1919  0.1941
  243MOL0     C32685   3.139   5.853   3.499  0.0604 -1.0324 -0.3090
  243MOL0     C32686   3.051   5.960   3.426 -0.7942 -0.0385 -0.4820
  243MOL0     N32687   2.951   6.016   3.511 -0.6070  0.0787  0.1953
  243MOL0     C32688   2.821   5.968   3.537 -0.6857  1.1740  0.2733
  243MOL0     C32689   2.773   6.042   3.637  1.0275  0.1154  0.0181
  243MOL0     C32690   2.645   6.040   3.703  0.0377 -0.2871 -0.4770
  243MOL0     C32691   2.539   5.990   3.594 -0.5766  0.5010 -0.0874
  243MOL0     C32692   2.397   6.032   3.626  0.3597  0.9221 -0.0012
  243MOL0     C32693   2.320   6.041   3.500  0.3424  0.6691  0.1506
  243MOL0     O32694   2.185   6.104   3.515  0.3915 -0.0746 -0.2802
  243MOL0     C32695   2.100   6.059   3.610 -0.1618  0.4591 -0.8429
  243MOL0     C32696   2.021   6.133   3.700  0.7024 -0.1816 -0.4426
  243MOL0     C32697   1.921   6.078   3.777 -0.2268 -0.5155 -0.6859
  243MOL0     C32698   1.832   6.165   3.867 -0.4716  0.3740  0.0874
  243MOL0     C32699   1.897   5.942   3.765 -0.9274  0.1954  0.7690
  243MOL0     C32700   1.786   5.886   3.835 -1.0566 -0.2812  1.4605
  243MOL0     O32701   1.666   5.892   3.769 -0.3980 -0.5819  0.1351
  243MOL0     C32702   1.555   5.845   3.833  0.0934  1.0949  0.6631
  243MOL0     C32703   1.491   5.723   3.792  0.4591 -0.2954 -0.1258
  243MOL0     C32704   1.368   5.690   3.850  0.0135 -0.0964  0.7007
  243MOL0     C32705   1.309   5.775   3.947 -0.4143  0.2134 -0.3319
  243MOL0     O32706   1.191   5.747   4.014 -0.2450 -0.2956  0.2357
  243MOL0     C32707   1.097   5.648   3.966  0.4985 -0.6936 -0.4473
  243MOL0     C32708   1.005   5.614   4.073 -0.2354 -0.4397  0.0968
  243MOL0     C32709   1.085   5.547   4.183 -0.5444  0.3972  0.1533
  243MOL0     C32710   0.999   5.523   4.310 -1.2125 -0.9970 -0.1944
  243MOL0     C32711   1.084   5.462   4.420  0.2186  0.7232 -0.9887
  243MOL0     C32712   1.011   5.455   4.558  0.4172 -1.2837  0.2991
  243MOL0     C32713   1.069   5.348   4.646 -0.8214 -0.4195 -0.0936
  243MOL0     C32714   1.013   5.356   4.783 -0.0866 -0.3342 -0.8908
  243MOL0    Cl32715   1.107   5.474   4.876  0.3202  0.0487 -0.1737
  243MOL0     C32716   1.383   5.881   3.990 -0.9448 -0.4372 -0.4638
  243MOL0     C32717   1.501   5.922   3.928  0.1499  0.6120 -0.2057
  243MOL0     O32718   1.804   5.845   3.951  0.6054  0.4449  0.1229
  243MOL0     C32719   1.974   5.860   3.679  0.4921  0.4479  1.2247
  243MOL0     C32720   2.070   5.922   3.598 -0.1432 -0.5236 -1.1406
  243MOL0     N32721   2.875   6.129   3.674  0.8320  0.4201  0.3887
  243MOL0     N32722   2.975   6.119   3.591  0.7154  0.2533 -0.3845
  243MOL0     C32723   3.875   5.779   3.951  0.8637  0.9701  0.8920
  243MOL0     C32724   4.006   5.819   3.963  0.7600 -0.9080 -0.1442
  243MOL0     C32725   4.394   6.053   3.956  0.7461  0.8084 -0.9537
  243MOL0     C32726   4.420   6.174   4.030 -0.1679  0.2924 -0.0927
  243MOL0     C32727   4.553   6.223   4.023 -0.1117 -0.3275 -0.2765
  243MOL0     C32728   4.659   6.163   3.951  0.7184 -0.1541 -0.7294
  243MOL0     O32729   4.787   6.210   3.939 -0.5693 -0.3508 -0.0620
  243MOL0     C32730   4.824   6.327   4.015 -0.2276  0.4129  0.0345
  243MOL0     C32731   4.970   6.371   4.005  0.4125 -0.0961 -0.2152
  243MOL0     C32732   5.059   6.262   4.067  0.5148 -0.1311  0.2622
  243MOL0     C32733   5.201   6.315   4.053 -0.2104 -0.1739  0.2083
  243MOL0     C32734   5.221   6.410   4.153 -0.4311 -0.3419 -0.9595
  243MOL0     C32735   5.238   6.488   4.238  0.0262 -0.9119  0.5973
  243MOL0     C32736   4.628   6.036   3.901 -0.0597 -0.4765  0.5160
  243MOL0     C32737   4.500   5.981   3.899 -0.1502  0.0555 -0.3974
  243MOL0     H32738   4.108   5.780   3.643  2.2110 -1.0231  1.3120
  243MOL0     H32739   3.878   5.696   3.627  0.5017  0.4322 -0.1182
  243MOL0     H32740   3.520   5.755   3.726  0.0447 -0.4361 -0.3749
  243MOL0     H32741   3.668   5.831   3.670 -3.2713  0.7640 -0.5563
  243MOL0     H32742   3.716   5.562   3.621 -0.5910 -0.6372 -1.0456
  243MOL0     H32743   3.537   5.557   3.638 -3.3715  2.9259 -0.1291
  243MOL0     H32744   3.657   5.780   3.457 -2.1481  2.0789 -1.4329
  243MOL0     H32745   3.682   5.620   3.403  0.2607  1.4799 -1.8911
  243MOL0     H32746   3.464   5.702   3.295  0.1713  0.7740  0.0224
  243MOL0     H32747   3.435   5.572   3.414  0.8921  0.2691 -1.3911
  243MOL0     H32748   3.335   5.692   3.565 -0.5660  2.5627  1.3788
  243MOL0     H32749   3.419   5.842   3.512  0.5048  0.2860 -0.2703
  243MOL0     H32750   3.280   5.869   3.328 -0.9355  2.3261  1.5674
  243MOL0     H32751   3.197   5.709   3.353 -3.8008  2.3838  0.7531
  243MOL0     H32752   3.078   5.766   3.527 -2.0815  0.7565  0.9297
  243MOL0     H32753   3.188   5.895   3.587  0.4701 -1.5371 -0.2934
  243MOL0     H32754   3.006   5.915   3.337 -0.3272  0.5612 -1.0318
  243MOL0     H32755   3.121   6.039   3.397  1.9423 -1.5159  1.5231
  243MOL0     H32756   2.767   5.891   3.482  0.5016  1.8022 -1.9345
  243MOL0     H32757   2.644   5.969   3.786  0.4234 -1.4087 -1.3907
  243MOL0     H32758   2.624   6.138   3.747  0.5198 -0.6355  0.5607
  243MOL0     H32759   2.546   5.882   3.579  0.0807  0.5504 -0.1604
  243MOL0     H32760   2.554   6.042   3.499 -1.8091  1.0534  0.0024
  243MOL0     H32761   2.393   6.128   3.679 -1.0709  0.8257  0.1164
  243MOL0     H32762   2.362   5.949   3.687 -2.8950 -2.1352 -5.2719
  243MOL0     H32763   2.318   5.942   3.454 -2.5494 -0.0009  1.4631
  243MOL0     H32764   2.366   6.110   3.428 -4.1722  2.5432 -1.3795
  243MOL0     H32765   2.041   6.240   3.704  3.1838 -0.5227 -1.6025
  243MOL0     H32766   1.879   6.261   3.845  4.0415 -2.3503 -4.1647
  243MOL0     H32767   1.730   6.166   3.827 -0.5590  2.9718  0.2206
  243MOL0     H32768   1.835   6.140   3.973 -0.7466  0.5294  0.1356
  243MOL0     H32769   1.529   5.663   3.710 -0.9267 -2.9436  1.0423
  243MOL0     H32770   1.305   5.616   3.801  0.5733  0.7614 -1.3998
  243MOL0     H32771   1.041   5.694   3.884  1.8407 -0.4317 -1.2580
  243MOL0     H32772   1.152   5.562   3.927  0.9152 -0.3018 -0.7482
  243MOL0     H32773   0.946   5.700   4.105 -0.6837 -0.0932 -1.5408
  243MOL0     H32774   0.934   5.542   4.032 -0.2610  1.6937 -4.2767
  243MOL0     H32775   1.175   5.604   4.205  0.7409 -1.5624  0.2339
  243MOL0     H32776   1.127   5.450   4.155  0.6020  0.4348  1.6689
  243MOL0     H32777   0.946   5.614   4.339 -1.4006 -0.8721 -0.9139
  243MOL0     H32778   0.924   5.450   4.279 -3.2116  0.1726  1.6417
  243MOL0     H32779   1.173   5.523   4.442  0.5651 -0.3904  0.8747
  243MOL0     H32780   1.119   5.361   4.396 -1.7869 -0.4924  0.8607
  243MOL0     H32781   1.030   5.546   4.616  0.9659 -1.6803  0.7581
  243MOL0     H32782   0.903   5.446   4.545  0.3180 -0.3545  0.4733
  243MOL0     H32783   1.176   5.371   4.655 -1.0333  1.4394 -1.5367
  243MOL0     H32784   1.045   5.251   4.603 -3.0861  0.1763 -0.2752
  243MOL0     H32785   1.038   5.259   4.826  0.9724  0.5060  0.4782
  243MOL0     H32786   0.905   5.367   4.796  0.1564 -0.4271  2.0316
  243MOL0     H32787   1.346   5.955   4.060  2.5833 -0.1284  1.3059
  243MOL0     H32788   1.551   6.016   3.948  2.2584  0.4057 -3.6472
  243MOL0     H32789   1.941   5.759   3.657 -0.4751  0.4763  2.4653
  243MOL0     H32790   2.107   5.863   3.515 -2.3247 -1.4601 -1.5292
  243MOL0     H32791   3.804   5.758   4.031  0.9485 -3.5655  0.0451
  243MOL0     H32792   4.029   5.852   4.064 -2.0387 -0.3578  0.4162
  243MOL0     H32793   4.355   6.217   4.107 -3.2745 -1.4592 -1.5510
  243MOL0     H32794   4.573   6.320   4.067  2.1019  0.1049 -2.0305
  243MOL0     H32795   4.760   6.402   3.968 -0.4327 -0.4918 -1.1726
  243MOL0     H32796   4.801   6.318   4.122  4.5348  0.3101  1.2627
  243MOL0     H32797   4.984   6.471   4.047  1.4270  0.5901 -2.0295
  243MOL0     H32798   4.982   6.383   3.896  2.2658  1.6657  0.1311
  243MOL0     H32799   5.043   6.166   4.018 -0.4004 -0.4108  1.0950
  243MOL0     H32800   5.041   6.253   4.174  1.6832  0.0061  0.4851
  243MOL0     H32801   5.219   6.353   3.952  1.7885 -0.7965  0.2890
  243MOL0     H32802   5.263   6.226   4.070 -3.4980 -2.4155  1.4792
  243MOL0     H32803   5.272   6.564   4.306  3.3885 -1.9560  0.2164
  243MOL0     H32804   4.699   5.982   3.838  0.4699 -2.1071  2.4233
  243MOL0     H32805   4.484   5.880   3.861  2.3190 -1.3620  2.0383
  244MOL0     O32806  10.277  10.048   6.183 -0.1298  0.3368 -0.3072
  244MOL0     C32807  10.329  10.140   6.119  0.3531 -0.6805  0.5734
  244MOL0     O32808  10.284  10.183   5.998  0.4569 -0.6585  0.3501
  244MOL0     C32809  10.184  10.114   5.919  0.5803 -0.2051  0.1210
  244MOL0     C32810  10.147  10.174   5.798  0.0859  0.0404  1.1580
  244MOL0     C32811  10.048  10.115   5.707 -0.2926  0.1924 -0.3528
  244MOL0     C32812   9.975  10.003   5.749 -0.0329  0.0569 -0.6935
  244MOL0     O32813   9.865   9.952   5.685  0.1182 -0.2476  0.0531
  244MOL0     C32814   9.839   9.980   5.545  0.2210  0.0819  0.0846
  244MOL0     C32815   9.709  10.066   5.528  0.5552  0.0802  0.0319
  244MOL0     C32816   9.714  10.205   5.595 -0.0911 -1.3146  0.2140
  244MOL0     C32817   9.785  10.311   5.503  0.1264 -0.1289  0.1708
  244MOL0     C32818   9.797  10.453   5.567 -0.0920  0.3078  0.8124
  244MOL0     C32819   9.869  10.478   5.701 -0.2566  0.3158  0.2900
  244MOL0     C32820   9.881  10.625   5.754 -0.3816 -0.3432 -0.4679
  244MOL0     C32821   9.966  10.722   5.673  0.1936 -0.8131  0.4548
  244MOL0     N32822  10.104  10.693   5.684  0.1504  0.4672 -0.3646
  244MOL0     C32823  10.194  10.755   5.779  0.1303 -0.5895  0.6464
  244MOL0     C32824  10.301  10.684   5.763 -0.7556 -0.2782 -0.0465
  244MOL0     C32825  10.427  10.706   5.844 -0.9163  0.7586 -0.4066
  244MOL0     C32826  10.530  10.805   5.780  0.4310 -0.0986  0.2869
  244MOL0     C32827  10.635  10.845   5.878 -0.4472 -0.1307  0.7424
  244MOL0     C32828  10.734  10.734   5.929  0.3959 -0.4122  0.6310
  244MOL0     O32829  10.788  10.672   5.814  0.5691 -0.2842 -0.0405
  244MOL0     C32830  10.914  10.699   5.775 -0.1524  0.2669 -0.1880
  244MOL0     C32831  10.985  10.602   5.702 -0.2064 -0.2823 -0.8417
  244MOL0     C32832  11.109  10.630   5.645  0.6264  0.2820 -0.0912
  244MOL0     C32833  11.172  10.519   5.564 -0.0606  0.6121  0.6257
  244MOL0     C32834  11.176  10.750   5.674 -0.0117  0.4542  0.1286
  244MOL0     C32835  11.316  10.783   5.638 -0.2642 -0.6195 -0.4674
  244MOL0     O32836  11.332  10.892   5.545 -0.0723  1.2190 -0.2496
  244MOL0     C32837  11.448  10.955   5.559  0.2715 -0.1587  0.4035
  244MOL0     C32838  11.460  11.060   5.648  0.6109  0.1425 -0.3531
  244MOL0     C32839  11.576  11.117   5.681 -0.6977  0.0115 -0.1919
  244MOL0     C32840  11.693  11.088   5.612  0.7202 -0.3253 -0.1744
  244MOL0     O32841  11.814  11.132   5.664 -0.2744  0.0716  0.4357
  244MOL0     C32842  11.933  11.128   5.580 -0.8343 -0.0400 -0.4699
  244MOL0     C32843  12.057  11.144   5.669 -0.1839 -0.6348  0.7897
  244MOL0     C32844  12.103  11.295   5.698  0.0225 -0.2341 -0.2909
  244MOL0     C32845  12.206  11.290   5.820 -0.2468  0.1575 -0.8451
  244MOL0     C32846  12.308  11.397   5.802 -0.6709 -1.5605 -0.3741
  244MOL0     C32847  12.257  11.550   5.792  0.7920  0.6780 -0.0323
  244MOL0     C32848  12.369  11.654   5.791 -0.3046  0.5879 -0.9046
  244MOL0     C32849  12.460  11.660   5.915  0.8775 -0.4318  0.6142
  244MOL0    Cl32850  12.378  11.706   6.066 -0.2605  0.0856  0.0193
  244MOL0     C32851  11.679  11.000   5.494 -0.0924 -1.2294 -0.9036
  244MOL0     C32852  11.557  10.934   5.469  0.3930 -0.0328  0.1237
  244MOL0     O32853  11.404  10.712   5.676 -0.1283  0.1299 -0.3290
  244MOL0     C32854  11.105  10.841   5.754  0.1496  0.5678  0.4261
  244MOL0     C32855  10.977  10.822   5.800 -0.6104  0.2084 -0.4547
  244MOL0     N32856  10.281  10.588   5.664 -0.0395 -0.0317 -0.9648
  244MOL0     N32857  10.161  10.590   5.625  0.0781  0.3253  0.4086
  244MOL0     C32858  10.002   9.949   5.879 -0.2445 -0.1190  0.5851
  244MOL0     C32859  10.106  10.001   5.958 -0.0585 -0.6738 -0.6052
  244MOL0     C32860  10.441  10.216   6.170 -0.5073 -0.2672  0.0731
  244MOL0     C32861  10.502  10.171   6.288  0.4791 -1.1032  0.8072
  244MOL0     C32862  10.588  10.254   6.356 -0.4267 -0.8381 -0.0515
  244MOL0     C32863  10.642  10.369   6.298  0.2976 -0.1583 -0.1889
  244MOL0     O32864  10.727  10.449   6.365 -0.4555 -0.0612 -0.2028
  244MOL0     C32865  10.655  10.539   6.455 -0.2609  0.2207  0.8429
  244MOL0     C32866  10.741  10.567   6.573 -0.2996 -0.5793 -0.5403
  244MOL0     C32867  10.869  10.649   6.520 -0.3247  0.0297 -0.1214
  244MOL0     C32868  10.989  10.683   6.613  0.0064 -0.0137  0.0705
  244MOL0     C32869  11.105  10.714   6.533  0.1910  0.0054 -0.6288
  244MOL0     C32870  11.192  10.744   6.455 -0.4020 -0.6212 -0.6016
  244MOL0     C32871  10.591  10.406   6.169  0.0305 -0.4287 -0.9109
  244MOL0     C32872  10.486  10.336   6.110 -1.2272  0.8206  0.0862
  244MOL0     H32873  10.201  10.264   5.772  2.7249 -1.0382  2.4804
  244MOL0     H32874  10.010  10.180   5.628 -2.8319 -2.2700 -1.3433
  244MOL0     H32875   9.922  10.020   5.485 -1.2680  1.5974 -1.0465
  244MOL0     H32876   9.825   9.887   5.489  3.0889  0.5723 -1.6773
  244MOL0     H32877   9.696  10.088   5.422  1.8748 -2.0358 -0.6348
  244MOL0     H32878   9.619  10.018   5.566  1.3950  0.1776  2.3115
  244MOL0     H32879   9.609  10.231   5.615 -0.8083 -2.4818 -1.7025
  244MOL0     H32880   9.766  10.215   5.690  0.3061  1.1929 -0.2012
  244MOL0     H32881   9.886  10.273   5.483 -0.7022 -1.9756 -0.6960
  244MOL0     H32882   9.739  10.319   5.404 -0.2655  2.1863  0.4801
  244MOL0     H32883   9.835  10.517   5.487  1.4262 -2.6457 -1.0041
  244MOL0     H32884   9.696  10.492   5.584 -0.8146  0.9957 -3.8089
  244MOL0     H32885   9.819  10.421   5.780 -1.7547  1.9501  0.5809
  244MOL0     H32886   9.971  10.440   5.695 -0.2397  0.1369  1.3514
  244MOL0     H32887   9.777  10.658   5.746  0.1256  1.1071 -1.4533
  244MOL0     H32888   9.908  10.633   5.859 -1.2691 -0.8100 -0.1907
  244MOL0     H32889   9.943  10.826   5.694  1.7060  0.4581 -3.2299
  244MOL0     H32890   9.941  10.710   5.567  0.9256  1.4698 -0.0184
  244MOL0     H32891  10.177  10.836   5.849  2.4797 -0.4490  1.1413
  244MOL0     H32892  10.406  10.739   5.946  1.0988  1.6835 -0.2585
  244MOL0     H32893  10.478  10.610   5.854  0.4816  1.4984 -0.1940
  244MOL0     H32894  10.486  10.899   5.746  0.2139  0.2338  1.4454
  244MOL0     H32895  10.566  10.760   5.687 -0.3702 -0.2221  0.0240
  244MOL0     H32896  10.583  10.899   5.958 -1.0262 -2.1731  1.8215
  244MOL0     H32897  10.697  10.919   5.826  0.0745 -1.1499 -0.1213
  244MOL0     H32898  10.668  10.664   5.981 -0.5392  0.1620  0.2448
  244MOL0     H32899  10.812  10.761   6.000  0.8610 -0.3060  0.0900
  244MOL0     H32900  10.945  10.501   5.700 -1.9816  0.2901  1.8289
  244MOL0     H32901  11.099  10.446   5.527  1.2723 -0.0219 -0.8267
  244MOL0     H32902  11.225  10.538   5.470 -2.0923 -0.3732 -0.7984
  244MOL0     H32903  11.240  10.473   5.635  1.4161 -0.5077 -1.4269
  244MOL0     H32904  11.377  11.086   5.714  0.6421 -1.2303  0.2636
  244MOL0     H32905  11.589  11.181   5.768 -1.9884 -1.2413  0.9680
  244MOL0     H32906  11.953  11.029   5.536  0.6214  0.4613 -1.0251
  244MOL0     H32907  11.937  11.184   5.486  2.9666 -0.7739 -0.9324
  244MOL0     H32908  12.035  11.096   5.765  2.5712 -1.3768  1.1365
  244MOL0     H32909  12.144  11.088   5.634 -0.5445 -0.1385 -1.0164
  244MOL0     H32910  12.025  11.367   5.726  2.2423  1.3606  2.3302
  244MOL0     H32911  12.153  11.336   5.610 -0.1679 -1.2924 -0.9064
  244MOL0     H32912  12.147  11.311   5.910  1.2240  1.3562 -0.1206
  244MOL0     H32913  12.242  11.187   5.826  1.2952  0.6802 -0.7451
  244MOL0     H32914  12.349  11.375   5.703  0.6716  1.8190 -0.6751
  244MOL0     H32915  12.400  11.386   5.860 -0.7021 -0.4119 -0.0937
  244MOL0     H32916  12.196  11.561   5.701 -2.1529 -0.5664  1.6445
  244MOL0     H32917  12.186  11.569   5.873 -2.2742 -0.4462 -2.2524
  244MOL0     H32918  12.327  11.755   5.779 -0.8287  0.6146  0.8578
  244MOL0     H32919  12.429  11.625   5.705 -0.9258  0.5199 -1.3272
  244MOL0     H32920  12.545  11.723   5.889 -0.2876  0.4273 -1.3742
  244MOL0     H32921  12.509  11.566   5.944 -1.1726 -1.3249  1.3969
  244MOL0     H32922  11.762  10.996   5.424  1.5991  2.8537  0.5880
  244MOL0     H32923  11.544  10.875   5.379  3.0980  2.6836 -2.2806
  244MOL0     H32924  11.149  10.934   5.787  2.0260 -1.0113  2.7090
  244MOL0     H32925  10.940  10.902   5.863 -0.5555 -3.5205  5.0179
  244MOL0     H32926   9.951   9.865   5.925  0.7662  0.4326  2.8556
  244MOL0     H32927  10.118   9.955   6.055 -0.1661 -0.0955 -0.3101
  244MOL0     H32928  10.473  10.076   6.331 -4.6881  0.4430  1.4227
  244MOL0     H32929  10.617  10.227   6.457 -0.3747  0.1520  0.2174
  244MOL0     H32930  10.641  10.633   6.400  1.5196 -1.9959 -3.8554
  244MOL0     H32931  10.564  10.486   6.487  1.5058 -3.8105 -0.1934
  244MOL0     H32932  10.764  10.473   6.624  0.0785  0.8794  2.1514
  244MOL0     H32933  10.686  10.627   6.646  1.3321  1.0747 -0.6169
  244MOL0     H32934  10.834  10.743   6.477 -3.4835 -0.1696  1.7050
  244MOL0     H32935  10.916  10.588   6.442 -0.9948  0.1255 -0.6101
  244MOL0     H32936  11.009  10.598   6.679 -2.4168 -1.9703 -1.5503
  244MOL0     H32937  10.958  10.772   6.671 -0.3321 -1.6197  2.5163
  244MOL0     H32938  11.274  10.793   6.407  0.7125 -0.1381  1.6687
  244MOL0     H32939  10.643  10.497   6.140 -0.1302  0.2986  0.9392
  244MOL0     H32940  10.470  10.365   6.007  2.0157  2.0532 -0.1896
  245MOL0     O32941   9.759   4.837   7.116 -0.0706 -0.2075 -0.7058
  245MOL0     C32942   9.795   4.900   7.018 -0.1960  0.0258  0.4444
  245MOL0     O32943   9.714   4.986   6.943 -0.3935 -0.4259  0.2514
  245MOL0     C32944   9.584   5.019   6.976 -0.0084 -0.1121 -0.5037
  245MOL0     C32945   9.530   5.130   6.914 -0.2321  0.4972 -0.1471
  245MOL0     C32946   9.412   5.202   6.966 -0.7949 -0.0974  0.0036
  245MOL0     C32947   9.336   5.144   7.071 -0.3660  0.6215  0.0444
  245MOL0     O32948   9.217   5.202   7.109 -1.2306  0.9139  0.7441
  245MOL0     C32949   9.220   5.281   7.223 -0.7560  0.5899  1.3319
  245MOL0     C32950   9.099   5.359   7.235 -0.1992 -0.2526 -0.6949
  245MOL0     C32951   9.086   5.431   7.370 -0.2294  0.8215 -0.9970
  245MOL0     C32952   8.993   5.547   7.346 -0.1490  0.3279  0.0901
  245MOL0     C32953   8.964   5.606   7.496 -0.3276  0.0537  0.6363
  245MOL0     C32954   8.890   5.742   7.476  0.0816  0.0798  0.0715
  245MOL0     C32955   8.742   5.714   7.457 -0.9851 -0.1968  0.1854
  245MOL0     C32956   8.660   5.840   7.455  0.4278  0.3918 -0.1961
  245MOL0     N32957   8.517   5.838   7.490  0.3727  1.2393  0.1366
  245MOL0     C32958   8.461   5.821   7.614 -0.2550  0.9175  0.9182
  245MOL0     C32959   8.330   5.836   7.590  0.1288 -0.3240 -0.8316
  245MOL0     C32960   8.232   5.829   7.706  0.5418 -0.2700 -0.2178
  245MOL0     C32961   8.147   5.956   7.709  0.0535 -0.1756 -0.6439
  245MOL0     C32962   8.042   5.943   7.818  0.5143  0.5590  0.5185
  245MOL0     C32963   7.919   6.028   7.809 -1.3271 -0.4754 -0.9573
  245MOL0     O32964   7.831   5.992   7.705 -0.7540  0.8253  0.0540
  245MOL0     C32965   7.729   6.077   7.686 -0.8241  0.3109 -0.4552
  245MOL0     C32966   7.601   6.032   7.717 -0.5665 -0.8637 -0.3178
  245MOL0     C32967   7.496   6.128   7.720 -0.1107  0.3831  1.1285
  245MOL0     C32968   7.358   6.083   7.765  0.7886  0.2150  0.0705
  245MOL0     C32969   7.518   6.257   7.665 -0.1671  0.9863  0.2912
  245MOL0     C32970   7.407   6.357   7.637  0.4419  0.7568 -0.5164
  245MOL0     O32971   7.287   6.306   7.589  0.2561  0.1228 -0.3699
  245MOL0     C32972   7.173   6.389   7.567  0.4618  0.0423 -0.5894
  245MOL0     C32973   7.147   6.521   7.614 -0.0604 -0.4874 -0.2514
  245MOL0     C32974   7.021   6.584   7.593 -0.0884  1.0292  0.1702
  245MOL0     C32975   6.930   6.525   7.498 -0.5958 -0.9026  0.1925
  245MOL0     O32976   6.827   6.608   7.465 -0.4890  0.7165 -0.9067
  245MOL0     C32977   6.710   6.566   7.395 -0.1398  0.4094 -1.4498
  245MOL0     C32978   6.632   6.686   7.343  0.2300 -0.6399  0.2387
  245MOL0     C32979   6.540   6.634   7.227 -0.3646  0.0540 -0.4914
  245MOL0     C32980   6.416   6.724   7.205  0.1419  0.3030 -0.0582
  245MOL0     C32981   6.472   6.855   7.159 -0.4848 -0.2606 -0.2420
  245MOL0     C32982   6.373   6.934   7.078 -0.4509  0.3876  1.0575
  245MOL0     C32983   6.270   6.999   7.163 -0.4911 -0.1651  0.1052
  245MOL0     C32984   6.156   7.058   7.082 -0.0595 -0.4971  0.3309
  245MOL0    Cl32985   6.209   7.192   6.973 -0.2538 -0.2642 -0.1885
  245MOL0     C32986   6.953   6.389   7.458 -0.8226  0.0693 -0.3014
  245MOL0     C32987   7.070   6.324   7.492  0.6144  0.3570 -0.1450
  245MOL0     O32988   7.436   6.476   7.659 -0.1878 -0.1351  0.2233
  245MOL0     C32989   7.651   6.293   7.628  0.5972  0.0060  0.0110
  245MOL0     C32990   7.762   6.206   7.648  0.8927 -0.3761 -0.1715
  245MOL0     N32991   8.309   5.850   7.462 -0.4360  0.4205 -0.3694
  245MOL0     N32992   8.413   5.849   7.393 -0.5298 -0.1795  0.0180
  245MOL0     C32993   9.384   5.022   7.120 -0.0637 -0.2813 -0.0994
  245MOL0     C32994   9.504   4.968   7.084 -0.7195 -0.8130  0.2196
  245MOL0     C32995   9.918   4.860   6.956 -0.5433  0.1975 -0.6626
  245MOL0     C32996   9.967   4.923   6.832  0.2295  0.4810  0.6710
  245MOL0     C32997  10.072   4.869   6.770  0.1012  0.2166  0.7591
  245MOL0     C32998  10.153   4.780   6.831 -0.4340  0.3872  0.3719
  245MOL0     O32999  10.262   4.736   6.763  0.1943  0.0915 -0.1046
  245MOL0     C33000  10.350   4.648   6.831  0.6598  0.8053 -0.9742
  245MOL0     C33001  10.476   4.626   6.752  0.8252  0.1309 -0.7732
  245MOL0     C33002  10.598   4.577   6.834 -0.9858  0.5601 -0.7136
  245MOL0     C33003  10.653   4.683   6.931  0.0878 -0.1708 -0.4051
  245MOL0     C33004  10.755   4.613   7.012  0.4942 -0.4853 -0.2845
  245MOL0     C33005  10.824   4.559   7.089  0.7149  1.8496  0.0577
  245MOL0     C33006  10.116   4.723   6.950 -0.3076 -0.0613 -0.1602
  245MOL0     C33007  10.002   4.769   7.022 -0.9080 -0.0894  0.3250
  245MOL0     H33008   9.563   5.168   6.818 -3.7290  1.6046 -1.0886
  245MOL0     H33009   9.388   5.294   6.914  0.3099 -0.5694 -1.4208
  245MOL0     H33010   9.232   5.211   7.306 -1.6411  0.2245  1.1616
  245MOL0     H33011   9.314   5.337   7.224 -0.8158  0.7127  0.5493
  245MOL0     H33012   9.086   5.420   7.146 -1.4881  0.5918  0.0371
  245MOL0     H33013   9.015   5.290   7.242 -1.6240  1.5460  1.7443
  245MOL0     H33014   9.031   5.368   7.441  2.0149  1.0727  1.1284
  245MOL0     H33015   9.183   5.458   7.412  0.1397 -0.4410 -1.0102
  245MOL0     H33016   9.044   5.616   7.278 -1.9124 -0.1561 -1.7892
  245MOL0     H33017   8.897   5.519   7.304 -0.2367  1.8397 -0.8025
  245MOL0     H33018   8.896   5.542   7.554 -1.0171 -3.6334 -3.6506
  245MOL0     H33019   9.060   5.614   7.547 -1.0636 -1.2801  2.3330
  245MOL0     H33020   8.911   5.805   7.564 -0.1826 -3.6579  3.0762
  245MOL0     H33021   8.931   5.791   7.387 -0.3063  0.6624  0.2055
  245MOL0     H33022   8.712   5.660   7.367  0.3243  2.1566 -1.7672
  245MOL0     H33023   8.705   5.662   7.546  0.9973 -0.5805  0.8409
  245MOL0     H33024   8.673   5.898   7.363 -1.5297  1.9992  0.4684
  245MOL0     H33025   8.699   5.915   7.524  0.9414  1.2136 -1.3576
  245MOL0     H33026   8.511   5.796   7.707  2.6496  1.5824 -0.3639
  245MOL0     H33027   8.173   5.738   7.696  1.9251 -1.2140 -0.0701
  245MOL0     H33028   8.289   5.818   7.799 -0.1829 -1.3167  0.1167
  245MOL0     H33029   8.100   5.983   7.614 -1.8672  1.6872  0.7537
  245MOL0     H33030   8.213   6.037   7.740  0.0330  0.0122 -1.0944
  245MOL0     H33031   8.090   5.950   7.916  1.6030 -3.9632  0.5453
  245MOL0     H33032   8.009   5.839   7.807 -0.2425  0.8818 -0.3823
  245MOL0     H33033   7.930   6.136   7.824 -4.1948 -0.4548  2.0047
  245MOL0     H33034   7.863   6.012   7.901 -1.4330  4.0141 -0.0141
  245MOL0     H33035   7.592   5.934   7.762  3.3210 -1.4158 -0.4315
  245MOL0     H33036   7.308   6.175   7.795 -0.4491 -0.3091 -0.3412
  245MOL0     H33037   7.306   6.030   7.685  1.3121 -1.3791  0.7527
  245MOL0     H33038   7.373   6.016   7.850 -0.3126  1.5087  1.3311
  245MOL0     H33039   7.215   6.580   7.674  1.6897 -1.6640 -0.9844
  245MOL0     H33040   7.003   6.680   7.641 -1.0177  1.4672 -0.9878
  245MOL0     H33041   6.733   6.495   7.315  2.0028  0.4797 -0.9540
  245MOL0     H33042   6.647   6.513   7.467  0.8165  1.1820 -0.0093
  245MOL0     H33043   6.585   6.732   7.431 -2.8856  0.6572 -1.9043
  245MOL0     H33044   6.704   6.756   7.300  1.4001 -2.1085 -0.2880
  245MOL0     H33045   6.498   6.540   7.266  2.4785 -1.5956 -1.1598
  245MOL0     H33046   6.598   6.625   7.135 -1.1933 -0.0750 -1.0192
  245MOL0     H33047   6.340   6.684   7.137  0.6605  2.3223 -1.9317
  245MOL0     H33048   6.376   6.748   7.304 -0.3231  0.4920 -0.2867
  245MOL0     H33049   6.558   6.839   7.094 -0.9736  0.3533 -1.0554
  245MOL0     H33050   6.516   6.912   7.241  3.3339 -3.3012  0.1539
  245MOL0     H33051   6.430   7.015   7.029 -1.8741  0.2554 -0.9096
  245MOL0     H33052   6.335   6.864   7.003  0.5595  3.5741 -2.8128
  245MOL0     H33053   6.303   7.081   7.227 -0.2844 -1.1096  1.2447
  245MOL0     H33054   6.243   6.918   7.232  2.0445 -1.6150 -0.4721
  245MOL0     H33055   6.082   7.101   7.151  1.0387  1.9184  0.1078
  245MOL0     H33056   6.110   6.986   7.015  0.3270 -0.0149 -0.4714
  245MOL0     H33057   6.881   6.324   7.409  0.0598 -1.6641  0.6072
  245MOL0     H33058   7.076   6.218   7.468  0.5938  0.6136 -1.3453
  245MOL0     H33059   7.674   6.394   7.593  0.6700 -0.0407 -0.0764
  245MOL0     H33060   7.865   6.232   7.626  0.4252  1.5058 -0.3211
  245MOL0     H33061   9.331   4.983   7.206 -0.1253  1.9533  0.9474
  245MOL0     H33062   9.538   4.895   7.157  1.1994  0.0428  0.2519
  245MOL0     H33063   9.902   4.990   6.777  0.5877  1.0653  0.9520
  245MOL0     H33064  10.103   4.914   6.676  1.0177  3.1947  2.3640
  245MOL0     H33065  10.387   4.698   6.921  1.7124  0.3150 -1.1093
  245MOL0     H33066  10.310   4.549   6.854  0.5552  1.1737  0.4909
  245MOL0     H33067  10.508   4.714   6.696 -0.0912  2.0434  1.5694
  245MOL0     H33068  10.444   4.551   6.679 -0.8437 -0.6928  0.7380
  245MOL0     H33069  10.680   4.550   6.767  0.6239  0.6830  1.1115
  245MOL0     H33070  10.568   4.491   6.894  1.0189  1.2403  1.4013
  245MOL0     H33071  10.578   4.727   6.998 -0.6443 -1.6778 -0.1807
  245MOL0     H33072  10.683   4.776   6.882 -0.1206  0.4611  0.6283
  245MOL0     H33073  10.871   4.521   7.178  0.4953  0.3962 -0.4291
  245MOL0     H33074  10.169   4.641   6.998  0.3059 -0.3828 -1.3470
  245MOL0     H33075   9.987   4.731   7.122  0.2995 -4.1953 -0.8324
  246MOL0     O33076   0.233   5.866   7.733 -0.2418  0.3149 -0.4502
  246MOL0     C33077   0.291   5.962   7.787  0.2389  0.4586  0.7166
  246MOL0     O33078   0.233   6.035   7.887 -0.2976  0.1620 -0.6085
  246MOL0     C33079   0.096   6.026   7.922 -0.2058  0.0558 -1.1331
  246MOL0     C33080   0.002   6.032   7.828 -0.2601 -1.0283  0.3174
  246MOL0     C33081  -0.133   6.031   7.859 -0.3119 -0.4729 -0.0426
  246MOL0     C33082  -0.176   6.002   7.992 -0.6953  0.2103 -0.0044
  246MOL0     O33083  -0.306   5.999   8.030  0.3540 -0.5079  0.6211
  246MOL0     C33084  -0.399   5.956   7.938 -0.5128 -0.7130  1.0442
  246MOL0     C33085  -0.521   5.891   8.001  0.3842 -0.4946 -0.1936
  246MOL0     C33086  -0.631   5.972   8.068  0.6026 -0.0971  0.6885
  246MOL0     C33087  -0.696   5.896   8.186  0.4429  0.4459  0.2117
  246MOL0     C33088  -0.813   5.978   8.246 -0.2277 -0.4938 -0.0785
  246MOL0     C33089  -0.913   5.895   8.326  0.2795 -0.4319 -0.5103
  246MOL0     C33090  -1.053   5.959   8.341 -0.9091  0.1674 -0.0145
  246MOL0     C33091  -1.068   6.060   8.443 -0.0380  0.2107  0.0092
  246MOL0     N33092  -1.209   6.099   8.462  0.0594  0.2406  0.1658
  246MOL0     C33093  -1.310   6.016   8.513 -0.8415  0.9716 -0.4015
  246MOL0     C33094  -1.425   6.075   8.477  0.8368  0.0376 -0.3453
  246MOL0     C33095  -1.557   6.012   8.495 -1.2357  0.5962 -0.1152
  246MOL0     C33096  -1.627   6.102   8.606 -0.0552  0.3900 -0.4120
  246MOL0     C33097  -1.743   6.031   8.681 -0.5996 -0.2303  0.9097
  246MOL0     C33098  -1.825   6.122   8.769  0.7510 -0.8975 -0.6778
  246MOL0     O33099  -1.921   6.042   8.836  0.2473  0.4678 -0.0132
  246MOL0     C33100  -2.039   6.093   8.850  1.3407 -0.4800 -0.2693
  246MOL0     C33101  -2.138   6.034   8.771 -0.5581 -0.0110  0.5604
  246MOL0     C33102  -2.270   6.081   8.771  0.4672  0.2545 -0.9431
  246MOL0     C33103  -2.356   6.011   8.670  0.1496  0.2117 -0.9736
  246MOL0     C33104  -2.311   6.177   8.874 -0.4595  0.3407  0.7276
  246MOL0     C33105  -2.443   6.242   8.876  0.0109  0.2900 -0.3109
  246MOL0     O33106  -2.463   6.292   8.998 -0.0655 -0.5699 -0.2898
  246MOL0     C33107  -2.584   6.344   9.022 -0.6297  0.0365  0.1829
  246MOL0     C33108  -2.620   6.469   8.978  0.6446 -0.1989  0.4612
  246MOL0     C33109  -2.749   6.513   8.996 -0.4530  0.2559  0.9200
  246MOL0     C33110  -2.845   6.439   9.053  0.6247  0.6459 -0.4027
  246MOL0     O33111  -2.973   6.490   9.066 -0.3907 -0.5626 -0.1312
  246MOL0     C33112  -3.090   6.406   9.052  0.2851 -0.2929  0.2483
  246MOL0     C33113  -3.186   6.463   8.937  0.7461  0.0908 -0.3476
  246MOL0     C33114  -3.128   6.428   8.799 -0.4196 -0.8655 -0.6363
  246MOL0     C33115  -3.223   6.455   8.682 -0.0750 -0.0785  0.2479
  246MOL0     C33116  -3.158   6.381   8.564 -0.5710  0.2156 -0.8272
  246MOL0     C33117  -3.232   6.415   8.437 -0.1650 -0.7812  0.9651
  246MOL0     C33118  -3.162   6.369   8.308 -0.6985 -0.1148  0.0116
  246MOL0     C33119  -3.181   6.227   8.263  0.1509  0.7870  1.1445
  246MOL0    Cl33120  -3.352   6.198   8.195  0.1573  0.3160 -0.0107
  246MOL0     C33121  -2.816   6.309   9.092 -0.2266 -0.2223  0.6231
  246MOL0     C33122  -2.685   6.264   9.073 -0.8797  0.0574  0.2006
  246MOL0     O33123  -2.521   6.246   8.784 -0.6399 -0.5434  0.8118
  246MOL0     C33124  -2.212   6.227   8.962  0.1165 -0.5522  0.4734
  246MOL0     C33125  -2.075   6.192   8.941 -0.4626 -0.0227  0.4461
  246MOL0     N33126  -1.388   6.196   8.418  0.4447  0.7738 -0.0045
  246MOL0     N33127  -1.263   6.208   8.401  0.0084  0.7081 -0.1566
  246MOL0     C33128  -0.076   5.992   8.082  0.0109 -0.0034 -0.4604
  246MOL0     C33129   0.060   6.008   8.052  1.3189  0.4295 -0.4089
  246MOL0     C33130   0.435   5.954   7.780 -0.4076  0.3846 -0.3260
  246MOL0     C33131   0.502   5.867   7.691 -0.7576 -0.0119  0.1888
  246MOL0     C33132   0.647   5.868   7.697 -0.2090  0.0950  0.9296
  246MOL0     C33133   0.717   5.952   7.774 -0.7412 -0.7888 -0.6405
  246MOL0     O33134   0.857   5.961   7.787  0.6191 -0.1932  0.0981
  246MOL0     C33135   0.943   5.912   7.688 -0.0871 -1.1136 -0.7398
  246MOL0     C33136   1.079   5.964   7.706  0.1053  0.4237 -0.4254
  246MOL0     C33137   1.098   6.112   7.674 -0.4518 -0.3489 -0.7219
  246MOL0     C33138   1.243   6.163   7.678  0.5461 -0.0031 -0.6628
  246MOL0     C33139   1.284   6.173   7.816  0.7417 -0.2076  0.2393
  246MOL0     C33140   1.340   6.179   7.928 -0.6120  0.2819  0.1713
  246MOL0     C33141   0.648   6.040   7.858 -0.8834  1.1882 -0.5931
  246MOL0     C33142   0.511   6.038   7.861  0.6388 -0.3106 -0.4117
  246MOL0     H33143   0.040   6.048   7.727  2.0193  4.2299  1.6758
  246MOL0     H33144  -0.204   6.051   7.779  2.8250  2.3828 -2.4082
  246MOL0     H33145  -0.430   6.035   7.868  2.8903 -0.7573 -0.7836
  246MOL0     H33146  -0.351   5.891   7.864 -1.1565  1.1144 -1.1166
  246MOL0     H33147  -0.566   5.836   7.918  1.5356 -1.9940  0.1251
  246MOL0     H33148  -0.499   5.811   8.072 -1.3076  0.5494  1.5946
  246MOL0     H33149  -0.601   6.074   8.095 -0.6071  0.3038  0.5675
  246MOL0     H33150  -0.714   5.995   8.001  1.1341 -0.2040 -0.0119
  246MOL0     H33151  -0.727   5.793   8.167 -0.5085  0.4480  1.6612
  246MOL0     H33152  -0.624   5.880   8.267 -2.5229 -0.5368  2.8443
  246MOL0     H33153  -0.768   6.058   8.305 -0.0657 -0.2671 -0.4978
  246MOL0     H33154  -0.866   6.028   8.164 -0.6863 -0.1677  0.4134
  246MOL0     H33155  -0.926   5.796   8.280  0.7399 -0.7012 -0.0767
  246MOL0     H33156  -0.866   5.877   8.423  0.3310 -2.3123 -0.8417
  246MOL0     H33157  -1.075   6.002   8.243  0.1480  2.9507  0.8606
  246MOL0     H33158  -1.115   5.870   8.355  1.2068 -1.0842  2.0680
  246MOL0     H33159  -1.001   6.147   8.436  0.7009  0.1402  3.6938
  246MOL0     H33160  -1.039   6.010   8.536  1.2151  0.9364  0.0369
  246MOL0     H33161  -1.308   5.918   8.560  1.7606  1.8787  1.5908
  246MOL0     H33162  -1.609   6.009   8.399 -1.7908 -2.1026  0.1712
  246MOL0     H33163  -1.553   5.905   8.518 -1.6428  0.7304  0.6398
  246MOL0     H33164  -1.670   6.188   8.553 -0.3334  0.0546 -0.7349
  246MOL0     H33165  -1.563   6.140   8.687 -2.7946  2.9285  0.7510
  246MOL0     H33166  -1.700   5.957   8.749  0.8238  1.2239  1.6645
  246MOL0     H33167  -1.811   5.977   8.614 -0.5275 -1.5839  1.8867
  246MOL0     H33168  -1.872   6.205   8.715 -0.3950 -0.5108  0.8434
  246MOL0     H33169  -1.752   6.165   8.839 -0.4517  0.0371  0.0442
  246MOL0     H33170  -2.106   5.962   8.697 -1.1954  0.3913 -0.1196
  246MOL0     H33171  -2.334   6.059   8.574  1.0599  1.5104 -0.1533
  246MOL0     H33172  -2.318   5.909   8.671 -0.9419 -0.2675  1.7628
  246MOL0     H33173  -2.463   6.008   8.691  0.6892 -1.7031  2.0950
  246MOL0     H33174  -2.549   6.527   8.920  0.7557  0.2594  1.0528
  246MOL0     H33175  -2.770   6.613   8.959 -2.5695  1.3985  4.6261
  246MOL0     H33176  -3.064   6.301   9.033  2.5276  0.1184  0.7615
  246MOL0     H33177  -3.135   6.414   9.151  2.6129 -1.0415  1.4536
  246MOL0     H33178  -3.281   6.410   8.950  1.0219  0.1133  2.2298
  246MOL0     H33179  -3.196   6.571   8.946  0.8739  0.1943 -1.2978
  246MOL0     H33180  -3.096   6.325   8.809  1.1640 -0.3489 -0.1335
  246MOL0     H33181  -3.040   6.490   8.781 -0.1436 -1.2997 -0.7814
  246MOL0     H33182  -3.320   6.410   8.705 -0.9745  1.6108 -0.0699
  246MOL0     H33183  -3.237   6.562   8.663  1.6898  0.7309  3.0270
  246MOL0     H33184  -3.161   6.272   8.571  2.1963  0.1364  0.2781
  246MOL0     H33185  -3.054   6.411   8.551 -0.1556 -0.6322  0.4477
  246MOL0     H33186  -3.337   6.387   8.446 -0.0140 -2.1813 -0.9440
  246MOL0     H33187  -3.228   6.524   8.440  4.1750 -0.7506  0.6419
  246MOL0     H33188  -3.061   6.409   8.314 -0.3907 -0.6124 -1.4515
  246MOL0     H33189  -3.214   6.425   8.229  0.1692  1.4718  0.5199
  246MOL0     H33190  -3.182   6.150   8.340 -2.5980 -3.3676 -2.5071
  246MOL0     H33191  -3.106   6.200   8.188  1.5374  1.1496  2.3785
  246MOL0     H33192  -2.891   6.245   9.136  1.0488 -2.4925 -0.3534
  246MOL0     H33193  -2.668   6.162   9.104  1.6968  0.5683  0.6702
  246MOL0     H33194  -2.230   6.291   9.048 -1.9692  1.1804 -1.1395
  246MOL0     H33195  -2.009   6.236   9.015  1.6142  1.2470 -1.9931
  246MOL0     H33196  -0.100   5.978   8.187  4.0504  3.8032  1.2910
  246MOL0     H33197   0.124   5.991   8.138 -1.5823  0.9386  2.0301
  246MOL0     H33198   0.443   5.801   7.628 -2.3939  0.0653  1.5861
  246MOL0     H33199   0.697   5.802   7.625 -2.2829 -0.9650  0.3899
  246MOL0     H33200   0.949   5.803   7.700 -0.2533 -0.8439  2.8043
  246MOL0     H33201   0.917   5.936   7.585  2.0750 -2.2575 -1.6288
  246MOL0     H33202   1.137   5.907   7.632 -1.0890 -1.5010  0.0289
  246MOL0     H33203   1.119   5.936   7.804 -1.5724 -3.0474 -0.5590
  246MOL0     H33204   1.036   6.168   7.745  1.1158 -1.0804  1.3516
  246MOL0     H33205   1.075   6.128   7.568  4.6544 -1.5513 -2.3117
  246MOL0     H33206   1.252   6.259   7.627  1.1533  1.9663  2.8338
  246MOL0     H33207   1.314   6.094   7.633 -0.6255  0.0447 -2.7007
  246MOL0     H33208   1.383   6.190   8.025  0.4917 -0.2314 -0.2479
  246MOL0     H33209   0.705   6.096   7.933 -0.7635  0.9529 -0.5064
  246MOL0     H33210   0.470   6.100   7.941  1.8124 -0.7006  0.5069
  247MOL0     O33211   8.140   4.278   0.960  0.2600 -0.5544  0.6421
  247MOL0     C33212   8.178   4.190   0.886 -0.2788  0.7343  0.3174
  247MOL0     O33213   8.117   4.067   0.877 -0.2321 -0.1528  0.2802
  247MOL0     C33214   8.006   4.055   0.952  0.0741 -0.1573  0.3620
  247MOL0     C33215   8.000   3.950   1.045  0.9609  0.3375 -0.5904
  247MOL0     C33216   7.890   3.931   1.131  0.7050  0.8060 -0.0533
  247MOL0     C33217   7.773   4.010   1.113 -0.0824 -0.4928 -0.1340
  247MOL0     O33218   7.655   3.968   1.176  0.3153 -0.5505  0.1704
  247MOL0     C33219   7.537   3.978   1.104 -0.5725 -0.6899  0.0483
  247MOL0     C33220   7.428   3.881   1.151  0.1378  1.1121 -0.4427
  247MOL0     C33221   7.383   3.786   1.032  0.7688 -0.6514 -0.1600
  247MOL0     C33222   7.480   3.679   1.006  0.1767 -0.2709 -0.0457
  247MOL0     C33223   7.423   3.572   0.915  0.0157 -0.3875 -0.7455
  247MOL0     C33224   7.387   3.623   0.771 -0.2529  0.6602  0.2060
  247MOL0     C33225   7.501   3.672   0.685  0.4200 -0.1115  0.7542
  247MOL0     C33226   7.602   3.560   0.662 -0.4514 -0.2381  0.4541
  247MOL0     N33227   7.715   3.617   0.596 -0.1663  0.6487  1.2138
  247MOL0     C33228   7.818   3.687   0.658  0.4805  0.5518  0.4519
  247MOL0     C33229   7.894   3.720   0.552  0.3129 -0.0439 -0.5044
  247MOL0     C33230   8.022   3.794   0.536 -0.1015 -0.4217 -0.5804
  247MOL0     C33231   8.142   3.717   0.586  1.0025  0.1159  0.5585
  247MOL0     C33232   8.261   3.760   0.506  1.3107  0.4995 -0.2279
  247MOL0     C33233   8.384   3.712   0.580 -0.8869  0.0250  0.1601
  247MOL0     O33234   8.500   3.763   0.520 -0.0709 -0.4191 -0.2370
  247MOL0     C33235   8.553   3.718   0.402 -0.9227 -0.7272 -0.6803
  247MOL0     C33236   8.519   3.597   0.335 -0.8579 -0.7217  0.4145
  247MOL0     C33237   8.580   3.546   0.218  0.0957 -0.7361 -0.9726
  247MOL0     C33238   8.515   3.431   0.140  0.2712  0.2500  0.2543
  247MOL0     C33239   8.685   3.619   0.166  0.8069  0.1843 -0.3916
  247MOL0     C33240   8.769   3.589   0.046  0.5959 -0.0957  0.9464
  247MOL0     O33241   8.884   3.650   0.032 -0.4522  0.3747  0.4179
  247MOL0     C33242   8.956   3.659  -0.087 -0.9080 -0.1915  0.2144
  247MOL0     C33243   8.903   3.669  -0.209  1.1967  1.1737  0.3297
  247MOL0     C33244   8.993   3.683  -0.321 -0.3948  0.2123 -0.6359
  247MOL0     C33245   9.131   3.689  -0.304  0.4942  0.3325 -1.4534
  247MOL0     O33246   9.207   3.711  -0.415 -0.4111 -0.7950  0.5306
  247MOL0     C33247   9.307   3.618  -0.445 -0.1068  0.5010  0.2601
  247MOL0     C33248   9.294   3.588  -0.591 -0.3201  0.0225 -0.0334
  247MOL0     C33249   9.432   3.540  -0.659  0.3542 -0.2456 -0.5210
  247MOL0     C33250   9.483   3.407  -0.597 -0.6394 -0.1356  0.6524
  247MOL0     C33251   9.601   3.334  -0.676  0.6339  0.3059 -0.0690
  247MOL0     C33252   9.610   3.187  -0.636  0.4246  0.4807 -0.2575
  247MOL0     C33253   9.661   3.148  -0.499  0.1742 -0.5624 -0.8252
  247MOL0     C33254   9.779   3.220  -0.459 -0.2199 -0.7884  0.1396
  247MOL0    Cl33255   9.819   3.176  -0.297  0.0776  0.2962 -0.0549
  247MOL0     C33256   9.182   3.680  -0.176 -0.0250 -0.2205  0.9404
  247MOL0     C33257   9.095   3.668  -0.064 -1.0138  0.8999  0.4005
  247MOL0     O33258   8.724   3.507  -0.033 -0.9097 -0.3706 -0.7415
  247MOL0     C33259   8.722   3.740   0.240 -0.3691  0.1025  1.0535
  247MOL0     C33260   8.660   3.790   0.351  0.1125 -0.9821 -0.1947
  247MOL0     N33261   7.844   3.657   0.439  0.1433  0.2977 -0.0567
  247MOL0     N33262   7.729   3.606   0.461  0.3841  0.3853  0.4172
  247MOL0     C33263   7.782   4.125   1.030 -0.6470  0.8295  0.7444
  247MOL0     C33264   7.896   4.136   0.947 -0.1466  0.0232  0.3591
  247MOL0     C33265   8.310   4.194   0.830 -0.0315  0.4602  0.4458
  247MOL0     C33266   8.349   4.087   0.741  0.1489  0.6317  0.1798
  247MOL0     C33267   8.477   4.101   0.673  0.2466  0.0176 -0.2740
  247MOL0     C33268   8.564   4.202   0.697 -0.2262 -0.1799 -0.1266
  247MOL0     O33269   8.685   4.235   0.637  0.2003 -0.1260  0.1802
  247MOL0     C33270   8.716   4.144   0.526 -1.4900  0.1754 -0.5134
  247MOL0     C33271   8.828   4.191   0.440 -0.6222 -0.5712  0.2312
  247MOL0     C33272   8.966   4.177   0.517 -0.1652 -0.0404  0.0305
  247MOL0     C33273   9.077   4.152   0.419  0.0784  0.1289 -0.0177
  247MOL0     C33274   9.086   4.023   0.361 -0.1045  0.1913 -0.3376
  247MOL0     C33275   9.070   3.923   0.294 -0.0587 -0.1738 -0.1882
  247MOL0     C33276   8.516   4.306   0.780 -0.5972 -0.3156 -0.0388
  247MOL0     C33277   8.400   4.299   0.845  0.0428 -0.1725  0.0955
  247MOL0     H33278   8.096   3.899   1.054  2.5411  2.1388 -4.7726
  247MOL0     H33279   7.894   3.856   1.209 -1.2243  0.0334 -0.6189
  247MOL0     H33280   7.490   4.077   1.107 -1.4320 -1.0902  0.2096
  247MOL0     H33281   7.561   3.938   1.005 -0.6162 -3.5716  1.0967
  247MOL0     H33282   7.465   3.822   1.235 -2.1159  3.0999  2.1038
  247MOL0     H33283   7.348   3.943   1.193 -1.7921  0.1202 -2.4162
  247MOL0     H33284   7.292   3.740   1.071  0.5139  1.5740  2.0534
  247MOL0     H33285   7.366   3.842   0.939  1.5199  1.6142  1.0100
  247MOL0     H33286   7.559   3.728   0.949 -0.3828 -0.6465 -1.1808
  247MOL0     H33287   7.522   3.641   1.099  0.0507 -2.6923 -0.9264
  247MOL0     H33288   7.504   3.499   0.911  1.7179  1.4396 -1.4064
  247MOL0     H33289   7.333   3.525   0.954  0.4363 -0.2848  0.3731
  247MOL0     H33290   7.335   3.539   0.723  1.4560  0.1551 -0.8827
  247MOL0     H33291   7.312   3.700   0.789  0.7913  1.8236 -0.3138
  247MOL0     H33292   7.470   3.713   0.589  0.4065 -0.3071  0.6735
  247MOL0     H33293   7.548   3.759   0.731  1.2173  0.1727 -0.5430
  247MOL0     H33294   7.549   3.483   0.606 -2.1947  1.8420 -0.8908
  247MOL0     H33295   7.627   3.518   0.760 -4.2912 -0.1456  1.6302
  247MOL0     H33296   7.837   3.711   0.762 -1.7676  0.7610  0.8684
  247MOL0     H33297   8.027   3.822   0.431 -0.1342 -2.0418 -1.0295
  247MOL0     H33298   8.010   3.883   0.598  0.9887  1.2450 -2.6365
  247MOL0     H33299   8.123   3.610   0.573  1.6758 -0.0324  0.7286
  247MOL0     H33300   8.149   3.737   0.694 -2.0734 -0.9270  1.0384
  247MOL0     H33301   8.268   3.869   0.496  1.1872  0.5190 -0.1071
  247MOL0     H33302   8.246   3.712   0.409 -5.1529 -1.4766  1.2735
  247MOL0     H33303   8.390   3.604   0.595 -1.1101 -0.0907 -0.5534
  247MOL0     H33304   8.377   3.756   0.680  0.8460  0.2334  0.2111
  247MOL0     H33305   8.436   3.530   0.356  0.3023 -1.7846  1.7276
  247MOL0     H33306   8.482   3.476   0.046  1.3803  0.6870  0.0514
  247MOL0     H33307   8.588   3.353   0.117  0.6599  1.4583 -3.1438
  247MOL0     H33308   8.430   3.378   0.182  1.3511 -0.4177  1.7104
  247MOL0     H33309   8.795   3.658  -0.219  1.0854 -0.3642  2.5105
  247MOL0     H33310   8.964   3.683  -0.425  1.7752  1.5479 -1.3042
  247MOL0     H33311   9.407   3.656  -0.418  0.4103 -0.0999 -0.7780
  247MOL0     H33312   9.292   3.525  -0.389 -1.7425 -0.6037 -1.8911
  247MOL0     H33313   9.208   3.521  -0.608 -1.5620  1.5610 -0.0565
  247MOL0     H33314   9.260   3.679  -0.641  0.5129 -0.7704 -2.1941
  247MOL0     H33315   9.507   3.618  -0.642 -0.0621  0.6147 -2.3978
  247MOL0     H33316   9.427   3.528  -0.768 -3.8210 -0.9524 -0.4181
  247MOL0     H33317   9.521   3.430  -0.498  2.5594  2.3987 -0.9802
  247MOL0     H33318   9.407   3.330  -0.578 -0.2786 -0.3789  1.1321
  247MOL0     H33319   9.701   3.376  -0.666  1.4786 -1.5900 -0.2849
  247MOL0     H33320   9.573   3.336  -0.782 -1.9468 -1.7149  0.4564
  247MOL0     H33321   9.511   3.141  -0.647  0.6834 -0.1997  0.1864
  247MOL0     H33322   9.663   3.133  -0.714 -2.0784 -2.0255 -0.4213
  247MOL0     H33323   9.697   3.045  -0.499  0.1756 -0.5726  0.1403
  247MOL0     H33324   9.580   3.155  -0.425  1.0950 -2.8298  0.5062
  247MOL0     H33325   9.752   3.326  -0.463  1.3348 -0.3494 -4.5200
  247MOL0     H33326   9.865   3.202  -0.524 -0.0331  0.3446  0.0509
  247MOL0     H33327   9.290   3.688  -0.173  0.0572  0.8247 -1.9029
  247MOL0     H33328   9.129   3.646   0.036 -2.3947 -0.9222  0.5048
  247MOL0     H33329   8.800   3.807   0.205  1.3635 -1.8761  0.9185
  247MOL0     H33330   8.694   3.871   0.414  0.7978 -0.3249 -1.3649
  247MOL0     H33331   7.697   4.188   1.007 -1.7069 -1.2330 -1.4407
  247MOL0     H33332   7.891   4.222   0.881  0.8943  2.2503  2.9977
  247MOL0     H33333   8.273   4.014   0.718 -0.1155  0.1120  2.4377
  247MOL0     H33334   8.492   4.021   0.601 -2.5351  0.9500 -2.0336
  247MOL0     H33335   8.738   4.049   0.575 -0.4308  1.4124  1.5664
  247MOL0     H33336   8.624   4.152   0.467 -1.7325  1.0404 -0.0438
  247MOL0     H33337   8.816   4.296   0.411 -3.7551 -1.4638 -2.3556
  247MOL0     H33338   8.835   4.137   0.345 -2.2072  1.3704 -1.0844
  247MOL0     H33339   8.971   4.097   0.591  2.6003  0.8507  0.9263
  247MOL0     H33340   8.990   4.262   0.582  0.3930 -0.5263  0.4652
  247MOL0     H33341   9.175   4.160   0.468 -0.7036 -2.1389  2.1948
  247MOL0     H33342   9.061   4.226   0.341 -0.1608  0.5823  0.4525
  247MOL0     H33343   9.061   3.831   0.240 -1.5956  0.0996 -0.4564
  247MOL0     H33344   8.577   4.394   0.798  1.8783 -2.2878  1.8328
  247MOL0     H33345   8.366   4.388   0.898 -0.9967 -1.2050  1.2568
  248MOL0     O33346   9.995   7.570   5.936 -0.2177  0.6084  0.0670
  248MOL0     C33347   9.946   7.542   5.830  0.4173  0.1000  0.7944
  248MOL0     O33348  10.009   7.478   5.727 -0.0929  0.0626 -0.0553
  248MOL0     C33349  10.134   7.431   5.741 -0.1158  0.6209 -0.0341
  248MOL0     C33350  10.244   7.488   5.685 -0.5238  0.8448  0.3878
  248MOL0     C33351  10.383   7.447   5.716 -0.5717 -0.0592 -0.0643
  248MOL0     C33352  10.408   7.359   5.823 -0.4736  0.0220 -0.3886
  248MOL0     O33353  10.535   7.327   5.849 -0.1744  0.5710 -0.6178
  248MOL0     C33354  10.577   7.299   5.981 -0.1448 -0.4274  0.7563
  248MOL0     C33355  10.727   7.310   5.984 -0.4699 -1.2322  0.4194
  248MOL0     C33356  10.796   7.209   5.885  0.4451  0.3973 -0.0083
  248MOL0     C33357  10.908   7.137   5.961 -0.1067  0.7720 -0.5502
  248MOL0     C33358  10.965   7.029   5.869  0.1969  0.5463 -0.3442
  248MOL0     C33359  11.067   6.940   5.942 -0.1950  0.5660 -1.1642
  248MOL0     C33360  10.997   6.846   6.043  0.0825 -0.9258  0.0095
  248MOL0     C33361  10.876   6.768   5.995 -0.6163 -0.4137 -0.4791
  248MOL0     N33362  10.749   6.829   6.033 -0.5358  0.4067  0.4158
  248MOL0     C33363  10.679   6.776   6.141 -0.3883  0.3254  0.6407
  248MOL0     C33364  10.565   6.843   6.139  0.2091  0.3471  0.1813
  248MOL0     C33365  10.446   6.819   6.229  0.3333  0.5753  0.8944
  248MOL0     C33366  10.314   6.760   6.165 -0.9084 -0.4810 -0.3656
  248MOL0     C33367  10.189   6.785   6.245  0.4264 -0.4320  0.6231
  248MOL0     C33368  10.071   6.720   6.170  0.7985 -0.0230 -0.4012
  248MOL0     O33369   9.973   6.692   6.260  0.3762  0.7060 -0.2661
  248MOL0     C33370   9.852   6.633   6.230 -0.0640 -0.1918 -0.6001
  248MOL0     C33371   9.788   6.571   6.335 -0.2274  0.4079  0.1162
  248MOL0     C33372   9.663   6.517   6.322  0.6225 -1.2332 -0.3067
  248MOL0     C33373   9.605   6.477   6.447 -0.5129 -0.2627  0.3089
  248MOL0     C33374   9.604   6.508   6.188  0.1183 -0.0831 -0.6414
  248MOL0     C33375   9.489   6.415   6.156 -1.4827 -0.2494  0.3765
  248MOL0     O33376   9.450   6.407   6.021  0.6301  0.1508 -0.0804
  248MOL0     C33377   9.346   6.317   5.994 -0.2029 -0.2239 -0.6524
  248MOL0     C33378   9.361   6.246   5.870 -0.7497 -0.5189  0.1565
  248MOL0     C33379   9.254   6.172   5.821  0.0404 -0.2035  0.0565
  248MOL0     C33380   9.137   6.148   5.891 -1.1201  0.4233 -0.8422
  248MOL0     O33381   9.040   6.064   5.838  0.2202 -0.4073  0.5906
  248MOL0     C33382   9.069   5.979   5.730  0.0780 -0.2069 -0.5191
  248MOL0     C33383   9.030   6.035   5.586  0.0452 -0.0939 -1.1899
  248MOL0     C33384   8.931   6.153   5.599 -0.6822  0.4986 -0.4370
  248MOL0     C33385   8.802   6.114   5.665 -1.1918  0.4884  0.0113
  248MOL0     C33386   8.684   6.144   5.571 -0.9270 -0.9642  0.5496
  248MOL0     C33387   8.554   6.099   5.631  0.7670 -0.1002  0.4664
  248MOL0     C33388   8.436   6.152   5.545  0.4097  0.2228 -0.8334
  248MOL0     C33389   8.296   6.098   5.586  0.4969  0.9903 -0.4268
  248MOL0    Cl33390   8.182   6.168   5.477 -0.4719  0.0109  0.1600
  248MOL0     C33391   9.122   6.218   6.014 -0.2867  0.2658 -0.1216
  248MOL0     C33392   9.225   6.301   6.056 -0.5357 -0.4017  0.0026
  248MOL0     O33393   9.450   6.341   6.243 -0.5604  0.2877 -0.1493
  248MOL0     C33394   9.672   6.558   6.080 -0.2565 -0.5646  0.2290
  248MOL0     C33395   9.800   6.617   6.107  0.2021  0.1060 -0.0608
  248MOL0     N33396  10.554   6.920   6.024 -0.1930  0.0917 -0.0384
  248MOL0     N33397  10.662   6.907   5.960  0.0607 -0.6882  0.0380
  248MOL0     C33398  10.291   7.298   5.885  0.8876 -0.0759  0.1118
  248MOL0     C33399  10.159   7.335   5.840 -0.2653  0.5104  0.3610
  248MOL0     C33400   9.798   7.580   5.823  0.3156  0.4623  0.1667
  248MOL0     C33401   9.739   7.597   5.696  0.1569 -0.2985 -0.3970
  248MOL0     C33402   9.595   7.627   5.695 -0.9613  0.3323 -0.3783
  248MOL0     C33403   9.521   7.651   5.816  0.7765 -0.5371 -1.2935
  248MOL0     O33404   9.391   7.687   5.813 -0.5202  0.6455  0.1819
  248MOL0     C33405   9.300   7.584   5.788 -0.5859  0.1888  0.5076
  248MOL0     C33406   9.155   7.632   5.816  1.5280 -0.1656 -1.0307
  248MOL0     C33407   9.114   7.587   5.960  0.0246 -1.2077 -0.5036
  248MOL0     C33408   8.971   7.616   5.994 -0.5824 -0.1643  0.0752
  248MOL0     C33409   8.945   7.758   5.970  0.5966 -1.1234 -0.1758
  248MOL0     C33410   8.942   7.868   5.932  0.4893  0.0424  0.0514
  248MOL0     C33411   9.592   7.642   5.938  0.1150 -0.2145  0.5738
  248MOL0     C33412   9.729   7.607   5.939  0.4181  0.9770 -0.4354
  248MOL0     H33413  10.233   7.577   5.625  2.7612 -0.0760 -1.9285
  248MOL0     H33414  10.462   7.499   5.662  0.7922 -2.0452 -0.0928
  248MOL0     H33415  10.523   7.373   6.042 -2.8837  0.1257 -2.1025
  248MOL0     H33416  10.557   7.193   6.000  1.3697 -0.4250  2.7590
  248MOL0     H33417  10.758   7.411   5.956 -1.6491 -1.1876 -0.8106
  248MOL0     H33418  10.751   7.303   6.090 -1.0091 -2.8829  0.4580
  248MOL0     H33419  10.715   7.139   5.862  0.2324  1.1558 -1.7166
  248MOL0     H33420  10.821   7.249   5.787  0.5794 -3.5505 -1.7746
  248MOL0     H33421  10.980   7.207   6.004 -2.6343  1.6764  2.5125
  248MOL0     H33422  10.864   7.087   6.047 -1.8968  2.7177 -0.2602
  248MOL0     H33423  10.874   6.980   5.832 -2.2054  2.0156  2.9845
  248MOL0     H33424  11.025   7.078   5.792  2.6415  0.7432  1.5534
  248MOL0     H33425  11.129   6.888   5.869  1.2435  0.1177  0.3320
  248MOL0     H33426  11.123   7.011   6.003  0.1193 -0.4860 -0.1996
  248MOL0     H33427  11.073   6.782   6.087 -1.7819 -2.1747  1.5966
  248MOL0     H33428  10.960   6.913   6.122  0.3806  0.7901 -1.2406
  248MOL0     H33429  10.877   6.676   6.055 -0.2181 -0.6669 -0.8687
  248MOL0     H33430  10.884   6.762   5.886  2.3893 -0.9881 -0.3029
  248MOL0     H33431  10.717   6.707   6.215  1.4423  0.7688  0.1692
  248MOL0     H33432  10.470   6.770   6.324  1.0555  0.2991  0.5795
  248MOL0     H33433  10.429   6.923   6.255  1.9012  0.6431  1.7660
  248MOL0     H33434  10.336   6.656   6.137  3.2330 -0.5924  2.3692
  248MOL0     H33435  10.305   6.806   6.067  1.6848 -0.4057 -0.6543
  248MOL0     H33436  10.184   6.895   6.250 -0.9049 -0.4613  0.4965
  248MOL0     H33437  10.210   6.734   6.339  0.8589  1.2596  1.4897
  248MOL0     H33438  10.104   6.624   6.129 -3.0145 -1.9508  0.6116
  248MOL0     H33439  10.038   6.785   6.088  1.3228  1.8170  0.7813
  248MOL0     H33440   9.834   6.583   6.433  0.3381 -1.4025  0.1002
  248MOL0     H33441   9.651   6.526   6.533 -1.3765  1.0523  0.0518
  248MOL0     H33442   9.503   6.514   6.435  0.3633  1.6967 -1.8004
  248MOL0     H33443   9.607   6.367   6.454  2.0736 -0.3761 -0.9524
  248MOL0     H33444   9.450   6.281   5.819  0.4819 -2.2964  1.0080
  248MOL0     H33445   9.263   6.138   5.718 -2.2876 -3.2352  0.7304
  248MOL0     H33446   9.173   5.947   5.740 -0.4797 -1.3325  3.5841
  248MOL0     H33447   9.016   5.889   5.763  2.3927  0.3529  6.4452
  248MOL0     H33448   9.119   6.069   5.533  0.3522  1.2844  0.1320
  248MOL0     H33449   8.967   5.958   5.541 -2.5890  0.9854  0.4495
  248MOL0     H33450   8.916   6.181   5.495 -1.1994 -0.6515 -0.6906
  248MOL0     H33451   8.973   6.241   5.648 -2.1388  0.6276  0.6560
  248MOL0     H33452   8.795   6.008   5.690 -2.5252  0.3312 -0.9139
  248MOL0     H33453   8.794   6.178   5.753  0.7833  0.4898  0.2474
  248MOL0     H33454   8.706   6.089   5.479 -2.2127 -1.0787  0.2839
  248MOL0     H33455   8.678   6.250   5.546  0.1677 -0.7647  1.1046
  248MOL0     H33456   8.544   5.992   5.650 -0.4385  0.1916  1.6837
  248MOL0     H33457   8.552   6.142   5.732  3.1758 -0.4454  0.7218
  248MOL0     H33458   8.450   6.137   5.437 -0.5104 -1.2988 -0.7746
  248MOL0     H33459   8.442   6.259   5.567  0.7340  0.0230  0.0804
  248MOL0     H33460   8.274   6.109   5.693 -0.7203  0.0216 -0.5598
  248MOL0     H33461   8.301   5.989   5.575  2.7682  0.3540  4.1600
  248MOL0     H33462   9.026   6.216   6.066 -0.5943  0.6053 -0.6660
  248MOL0     H33463   9.206   6.366   6.141  1.9336 -1.0875  1.1744
  248MOL0     H33464   9.629   6.543   5.981  0.5835 -0.6515 -0.1309
  248MOL0     H33465   9.855   6.654   6.020  0.8069  1.3575  0.8221
  248MOL0     H33466  10.306   7.226   5.965  0.2987 -0.6909 -0.3163
  248MOL0     H33467  10.076   7.281   5.886 -0.0825  0.4064  0.5757
  248MOL0     H33468   9.796   7.579   5.606 -1.7783 -2.8028 -1.2419
  248MOL0     H33469   9.554   7.627   5.595 -1.8066  1.5048 -0.0493
  248MOL0     H33470   9.301   7.557   5.682  0.0575 -1.8493  0.9756
  248MOL0     H33471   9.335   7.499   5.847  0.1852 -1.2774 -1.9140
  248MOL0     H33472   9.075   7.596   5.751 -0.2550  1.6099  0.0748
  248MOL0     H33473   9.156   7.741   5.807 -0.7585  0.1608  1.5262
  248MOL0     H33474   9.180   7.618   6.041 -2.2021 -0.9352  1.3048
  248MOL0     H33475   9.115   7.479   5.980 -2.0026 -0.7129  3.0717
  248MOL0     H33476   8.959   7.590   6.100  2.2284 -1.0879  0.2492
  248MOL0     H33477   8.901   7.553   5.939  2.2513 -1.7513 -1.9542
  248MOL0     H33478   8.944   7.959   5.876 -1.6328 -0.2747 -0.6134
  248MOL0     H33479   9.551   7.661   6.037 -0.7223  1.3750 -0.0259
  248MOL0     H33480   9.764   7.599   6.041 -1.0794  0.6356  0.0804
  249MOL0     O33481   2.085   2.200   2.023 -0.2164  0.4772  0.7752
  249MOL0     C33482   2.092   2.264   2.124 -0.8683 -0.8195 -0.4296
  249MOL0     O33483   1.991   2.329   2.189  0.1711 -0.0188 -0.0536
  249MOL0     C33484   1.862   2.324   2.143 -0.0439 -0.9695  0.0077
  249MOL0     C33485   1.793   2.219   2.079 -0.3003  0.1760 -0.4986
  249MOL0     C33486   1.657   2.237   2.036  0.1124 -0.6163 -0.2154
  249MOL0     C33487   1.591   2.366   2.058  0.0370  0.1125 -1.1601
  249MOL0     O33488   1.474   2.389   1.998 -0.4607 -0.0896 -0.3123
  249MOL0     C33489   1.360   2.348   2.080 -0.2812 -0.1029 -0.4165
  249MOL0     C33490   1.343   2.199   2.103 -0.2338 -0.3898  0.0972
  249MOL0     C33491   1.208   2.171   2.176 -0.2936  0.0971  0.2855
  249MOL0     C33492   1.095   2.175   2.076  0.5819 -0.3564 -0.6767
  249MOL0     C33493   0.958   2.149   2.132  1.1170 -1.0072  0.7028
  249MOL0     C33494   0.936   2.011   2.201 -0.4480 -0.1059 -0.2011
  249MOL0     C33495   0.789   1.991   2.230 -0.1074  0.5107 -0.4739
  249MOL0     C33496   0.756   1.976   2.382  0.3753 -0.0013 -0.2462
  249MOL0     N33497   0.613   1.992   2.415  0.1171  0.5455  0.1424
  249MOL0     C33498   0.518   1.893   2.410  0.1792  0.2402  0.1725
  249MOL0     C33499   0.402   1.963   2.414  1.5498 -0.1481 -0.0685
  249MOL0     C33500   0.259   1.914   2.399 -0.6097 -0.9614 -0.0778
  249MOL0     C33501   0.239   1.824   2.529  0.2474 -0.1815 -0.0172
  249MOL0     C33502   0.271   1.883   2.662 -0.2721  0.7262  0.0362
  249MOL0     C33503   0.199   2.011   2.678  0.8755 -0.8627  0.2323
  249MOL0     O33504   0.195   2.067   2.810  0.8122  0.3381 -0.2173
  249MOL0     C33505   0.289   2.138   2.877  0.1774 -0.1669 -0.2602
  249MOL0     C33506   0.416   2.181   2.821 -0.3763  0.2633  0.0715
  249MOL0     C33507   0.510   2.254   2.902  0.0369  0.1727  0.1460
  249MOL0     C33508   0.645   2.276   2.843  0.2781  0.0669 -0.1912
  249MOL0     C33509   0.479   2.292   3.031  0.1335  0.2220  0.1113
  249MOL0     C33510   0.571   2.386   3.113  0.0931  0.4007 -0.1360
  249MOL0     O33511   0.646   2.485   3.051  0.3128  0.0290  0.0305
  249MOL0     C33512   0.720   2.570   3.128  0.1151  0.6026 -0.5122
  249MOL0     C33513   0.682   2.702   3.164  0.1577 -0.1514 -0.6776
  249MOL0     C33514   0.762   2.788   3.250 -0.4483  0.2306  1.0357
  249MOL0     C33515   0.884   2.726   3.298  0.0496 -0.4825 -0.4694
  249MOL0     O33516   0.959   2.815   3.379 -0.3500 -1.3466  0.1405
  249MOL0     C33517   1.063   2.755   3.461  0.3789  0.7036 -0.2816
  249MOL0     C33518   1.091   2.870   3.566 -0.0134 -0.3266 -0.4255
  249MOL0     C33519   1.243   2.875   3.590 -0.4974 -0.8094 -1.0262
  249MOL0     C33520   1.324   2.969   3.490  0.0443 -0.2996  0.2624
  249MOL0     C33521   1.469   2.942   3.513 -0.2832 -0.0837  0.4596
  249MOL0     C33522   1.572   3.040   3.455  0.4470 -0.1397 -0.1092
  249MOL0     C33523   1.582   3.174   3.528 -0.5006 -0.3077  0.3414
  249MOL0     C33524   1.710   3.250   3.491  0.6172 -0.2016  0.1874
  249MOL0    Cl33525   1.733   3.248   3.322  0.0049  0.2173  0.0008
  249MOL0     C33526   0.921   2.599   3.257 -0.7271 -0.1567  0.3607
  249MOL0     C33527   0.842   2.522   3.173  0.1824 -0.6038 -0.2662
  249MOL0     O33528   0.552   2.376   3.233 -0.2728  0.2223  0.2890
  249MOL0     C33529   0.349   2.263   3.075 -0.1649  0.0231 -0.3785
  249MOL0     C33530   0.259   2.174   3.005 -0.3777 -0.4796 -1.0969
  249MOL0     N33531   0.433   2.095   2.444  0.7628 -0.5602 -0.5962
  249MOL0     N33532   0.558   2.116   2.433 -0.4100  0.4089 -0.1149
  249MOL0     C33533   1.659   2.463   2.136  0.5654 -0.5619 -0.0098
  249MOL0     C33534   1.790   2.436   2.175 -1.1804 -0.1902 -0.1641
  249MOL0     C33535   2.237   2.279   2.188  0.0379  0.0519  0.6532
  249MOL0     C33536   2.248   2.361   2.301 -0.1248 -0.1285  0.7276
  249MOL0     C33537   2.370   2.381   2.365 -0.3443 -0.1478 -0.2268
  249MOL0     C33538   2.479   2.313   2.307 -0.0659  0.3329 -0.2698
  249MOL0     O33539   2.599   2.323   2.382  0.8991  0.0760  0.3760
  249MOL0     C33540   2.706   2.233   2.366 -1.2090 -0.8868 -0.0758
  249MOL0     C33541   2.825   2.250   2.465 -0.7381 -0.6361  0.3621
  249MOL0     C33542   2.955   2.175   2.418  0.5032  1.1595 -0.0095
  249MOL0     C33543   2.936   2.023   2.423 -0.3456  0.1027 -0.4209
  249MOL0     C33544   3.057   1.955   2.368 -0.6122  0.1461  0.0813
  249MOL0     C33545   3.153   1.888   2.331  0.7943  0.5816  0.4887
  249MOL0     C33546   2.473   2.236   2.185 -0.2333 -0.3349 -0.2952
  249MOL0     C33547   2.349   2.221   2.128  0.1530  0.3592  0.2812
  249MOL0     H33548   1.840   2.124   2.057 -2.0504 -1.0216  0.7110
  249MOL0     H33549   1.596   2.163   1.985 -0.6413  1.1097 -1.9459
  249MOL0     H33550   1.368   2.377   2.185  1.8262 -0.9373 -0.3004
  249MOL0     H33551   1.271   2.388   2.031  0.8477 -1.6082 -4.0233
  249MOL0     H33552   1.337   2.143   2.009  1.8096 -3.1056  1.4628
  249MOL0     H33553   1.425   2.159   2.162 -0.6804 -2.0762 -0.3650
  249MOL0     H33554   1.215   2.077   2.233  0.2037  2.0418  3.7115
  249MOL0     H33555   1.192   2.245   2.255 -0.4150 -0.1385  0.4856
  249MOL0     H33556   1.081   2.276   2.036 -1.8098  0.6495  2.3010
  249MOL0     H33557   1.115   2.106   1.993  0.6259 -0.2014 -0.7947
  249MOL0     H33558   0.948   2.221   2.213  1.4628 -2.1552  1.8098
  249MOL0     H33559   0.883   2.148   2.053 -0.9534  1.2794  2.4930
  249MOL0     H33560   0.970   1.921   2.148 -0.0176  1.5638 -2.9008
  249MOL0     H33561   0.991   2.024   2.295 -0.1392 -3.0424  0.1204
  249MOL0     H33562   0.729   2.076   2.196  0.8222  1.2128 -0.3814
  249MOL0     H33563   0.751   1.905   2.174 -0.5113  0.2564  0.1790
  249MOL0     H33564   0.802   2.063   2.431  0.8345 -0.7074  0.6215
  249MOL0     H33565   0.795   1.878   2.413 -1.5537 -0.7200  0.0125
  249MOL0     H33566   0.531   1.788   2.386 -0.7496  0.4427 -1.3650
  249MOL0     H33567   0.186   1.994   2.386  0.8750  0.4829  0.1192
  249MOL0     H33568   0.249   1.846   2.314  1.0988 -1.8811  0.4089
  249MOL0     H33569   0.290   1.727   2.517  0.1553 -0.0386 -1.9821
  249MOL0     H33570   0.136   1.789   2.538  0.3548 -0.8489 -1.1461
  249MOL0     H33571   0.380   1.892   2.667  0.1803 -3.1912  0.3706
  249MOL0     H33572   0.249   1.804   2.734  1.1183 -1.9546 -2.2957
  249MOL0     H33573   0.096   2.002   2.645 -0.3458 -0.4710  3.5314
  249MOL0     H33574   0.254   2.089   2.624  1.4177 -0.3802  1.4277
  249MOL0     H33575   0.427   2.159   2.715  0.9852 -0.9392  0.4287
  249MOL0     H33576   0.716   2.260   2.925 -1.3081 -0.9418  1.0552
  249MOL0     H33577   0.674   2.206   2.764 -2.3314 -1.6942  0.2949
  249MOL0     H33578   0.650   2.379   2.806  0.0216 -0.1409 -0.8178
  249MOL0     H33579   0.583   2.736   3.136 -0.9316  1.1219  3.9382
  249MOL0     H33580   0.741   2.890   3.281  0.2368  1.3892 -2.0296
  249MOL0     H33581   1.025   2.670   3.519 -0.8887 -0.7949 -3.0931
  249MOL0     H33582   1.148   2.731   3.395  2.3849 -2.2036  2.9808
  249MOL0     H33583   1.053   2.963   3.524  0.0919  1.5692  3.2447
  249MOL0     H33584   1.042   2.850   3.662  1.2684 -2.6428 -0.1868
  249MOL0     H33585   1.284   2.774   3.582 -2.0380 -1.5249 -0.2250
  249MOL0     H33586   1.253   2.917   3.691  0.1747  1.1908 -1.8719
  249MOL0     H33587   1.286   2.938   3.392 -1.5294  0.8445  0.4765
  249MOL0     H33588   1.295   3.073   3.509 -1.8868 -1.4199  4.7404
  249MOL0     H33589   1.483   2.842   3.472  0.3774  0.3498 -0.4043
  249MOL0     H33590   1.479   2.934   3.622  0.6975 -0.4524  0.3502
  249MOL0     H33591   1.674   3.002   3.459  0.7327  0.6406  0.1030
  249MOL0     H33592   1.539   3.060   3.353  1.2129 -1.0257 -0.5381
  249MOL0     H33593   1.563   3.150   3.633 -1.2075 -0.1142  0.2643
  249MOL0     H33594   1.506   3.250   3.507 -1.4174 -0.3179  3.1729
  249MOL0     H33595   1.793   3.207   3.548 -0.4994 -3.6893 -0.6071
  249MOL0     H33596   1.698   3.353   3.527  0.7144 -0.3212  0.5640
  249MOL0     H33597   1.006   2.552   3.305  2.8390  4.0039 -1.1885
  249MOL0     H33598   0.875   2.424   3.141  2.2920  0.0594 -0.2906
  249MOL0     H33599   0.316   2.297   3.173 -0.3349 -0.4758 -0.2608
  249MOL0     H33600   0.171   2.139   3.057  1.5760 -2.8641  0.8641
  249MOL0     H33601   1.607   2.557   2.151  1.6752  0.0674  0.0668
  249MOL0     H33602   1.844   2.507   2.238 -3.4643  0.5789  1.0303
  249MOL0     H33603   2.164   2.415   2.342  0.0935  1.6116 -0.9656
  249MOL0     H33604   2.376   2.443   2.454 -1.3599 -1.3014  0.6869
  249MOL0     H33605   2.669   2.130   2.368 -2.7098 -0.3622  1.1323
  249MOL0     H33606   2.746   2.253   2.266 -0.1006 -0.7028  0.3952
  249MOL0     H33607   2.795   2.204   2.559 -3.4624  1.1262  0.4373
  249MOL0     H33608   2.848   2.357   2.473  1.1072 -0.8444 -1.3555
  249MOL0     H33609   3.040   2.193   2.483  0.5904 -0.4258  0.3576
  249MOL0     H33610   2.985   2.217   2.321 -0.1422  2.0154  0.1426
  249MOL0     H33611   2.850   1.986   2.367  0.3810 -0.5708 -1.1058
  249MOL0     H33612   2.917   1.992   2.526  1.3075 -2.6107 -0.8444
  249MOL0     H33613   3.251   1.852   2.307  0.6667  1.0963 -0.9466
  249MOL0     H33614   2.552   2.175   2.142  0.8974  1.1822 -0.4677
  249MOL0     H33615   2.346   2.169   2.033 -1.7075 -0.7423  0.9066
  250MOL0     O33616   2.395   8.196   1.302 -0.4801  1.1405  0.8413
  250MOL0     C33617   2.493   8.187   1.366  0.9731 -0.0266 -0.6255
  250MOL0     O33618   2.501   8.122   1.487  0.6218 -0.0185 -0.4143
  250MOL0     C33619   2.394   8.054   1.537 -0.7998  0.7451  0.2389
  250MOL0     C33620   2.401   7.913   1.526  0.1558 -0.4709 -0.0307
  250MOL0     C33621   2.294   7.834   1.566  1.3336  0.4162 -0.0572
  250MOL0     C33622   2.180   7.890   1.623 -0.0262 -0.6597  0.4876
  250MOL0     O33623   2.081   7.811   1.672 -0.4643 -0.4525 -0.7156
  250MOL0     C33624   1.949   7.871   1.676 -0.2982  0.9077 -0.3533
  250MOL0     C33625   1.839   7.771   1.718 -0.6560  0.6802  0.8625
  250MOL0     C33626   1.710   7.836   1.761  0.1585  0.0347 -0.0915
  250MOL0     C33627   1.632   7.753   1.857  0.2685  0.4657 -0.8244
  250MOL0     C33628   1.484   7.791   1.871  0.0073  0.0022 -0.0494
  250MOL0     C33629   1.415   7.711   1.993  0.1015 -0.4256 -0.4305
  250MOL0     C33630   1.273   7.751   2.026  0.8892  0.4106 -0.4204
  250MOL0     C33631   1.271   7.895   2.084  0.4111  0.1397  0.0146
  250MOL0     N33632   1.140   7.916   2.156  0.0447  0.3053  1.0041
  250MOL0     C33633   1.021   7.893   2.101  1.1941 -0.6879 -0.5259
  250MOL0     C33634   0.935   7.914   2.201  0.1627 -0.5457 -0.4853
  250MOL0     C33635   0.793   7.878   2.210  0.3170 -0.7050  0.9474
  250MOL0     C33636   0.695   7.947   2.117  0.3314 -0.3612  0.4039
  250MOL0     C33637   0.545   7.921   2.164 -0.5849 -0.5946 -0.0733
  250MOL0     C33638   0.447   7.937   2.049 -0.5285  0.0247  0.9621
  250MOL0     O33639   0.317   7.949   2.090  0.1677 -0.2192  0.1537
  250MOL0     C33640   0.247   7.835   2.100 -0.1491  0.8073  0.5001
  250MOL0     C33641   0.257   7.744   2.204  0.4400 -0.1321  0.2754
  250MOL0     C33642   0.177   7.626   2.201  0.4355 -1.0646 -0.9805
  250MOL0     C33643   0.216   7.526   2.317  0.4300 -0.7681  0.5918
  250MOL0     C33644   0.077   7.612   2.098 -0.1210 -0.3709 -0.7613
  250MOL0     C33645  -0.027   7.505   2.097 -0.3761 -0.3829 -0.4282
  250MOL0     O33646  -0.101   7.499   1.980  0.2189 -0.7836  0.9496
  250MOL0     C33647  -0.166   7.381   1.963 -0.1513  0.6686 -0.1228
  250MOL0     C33648  -0.286   7.390   1.894  0.0540 -0.7749 -0.1623
  250MOL0     C33649  -0.349   7.266   1.869  0.2244  0.0583  0.3543
  250MOL0     C33650  -0.282   7.141   1.885  0.1134 -0.3688  0.5976
  250MOL0     O33651  -0.357   7.028   1.845 -0.7143 -0.1830 -0.3068
  250MOL0     C33652  -0.289   6.900   1.841  0.4308 -0.1560 -0.1407
  250MOL0     C33653  -0.359   6.825   1.727  0.4476  0.1221 -0.5069
  250MOL0     C33654  -0.395   6.920   1.599 -0.3306  0.9019 -0.5744
  250MOL0     C33655  -0.337   6.864   1.459  0.4894  0.4862 -0.3204
  250MOL0     C33656  -0.347   6.948   1.335  0.1500 -0.0592 -0.4407
  250MOL0     C33657  -0.482   7.017   1.315  0.4039  0.0149 -0.2778
  250MOL0     C33658  -0.513   7.075   1.175  1.1867  0.0679 -0.2447
  250MOL0     C33659  -0.532   6.969   1.066  0.3809 -0.6946 -0.4536
  250MOL0    Cl33660  -0.547   7.045   0.902  0.2234 -0.2023  0.0523
  250MOL0     C33661  -0.159   7.137   1.949 -0.5675 -0.3994  0.8014
  250MOL0     C33662  -0.101   7.255   1.987 -0.1029 -0.5859 -0.2563
  250MOL0     O33663  -0.050   7.441   2.201 -0.3265 -0.0229  0.1553
  250MOL0     C33664   0.078   7.708   1.994 -0.7315  0.1917  0.6982
  250MOL0     C33665   0.165   7.813   1.997  0.1743  0.7546 -0.5001
  250MOL0     N33666   1.003   7.946   2.317 -0.3158 -0.4476  0.1087
  250MOL0     N33667   1.127   7.950   2.290 -0.5636 -0.1267 -0.0979
  250MOL0     C33668   2.176   8.028   1.631  0.7497  0.3655 -0.4597
  250MOL0     C33669   2.277   8.114   1.574 -0.5703 -0.4222  0.0952
  250MOL0     C33670   2.607   8.279   1.332 -0.9780 -0.4356  0.4562
  250MOL0     C33671   2.729   8.269   1.399 -0.6331  0.6504  0.1143
  250MOL0     C33672   2.827   8.353   1.358 -0.1510 -0.6857  0.4206
  250MOL0     C33673   2.813   8.449   1.257  0.6235 -0.4638 -0.5255
  250MOL0     O33674   2.939   8.504   1.220  0.3244 -0.9504 -0.3161
  250MOL0     C33675   2.950   8.624   1.137  0.3032 -0.3018 -0.0403
  250MOL0     C33676   2.924   8.750   1.217  0.9437 -0.4423 -0.1208
  250MOL0     C33677   3.016   8.749   1.340  0.7914  0.1694 -0.2759
  250MOL0     C33678   2.975   8.849   1.456  0.1269  0.3357  0.2874
  250MOL0     C33679   3.052   8.830   1.574  0.2542 -0.7534 -0.3645
  250MOL0     C33680   3.113   8.833   1.680  0.5691 -1.1416  0.9887
  250MOL0     C33681   2.694   8.466   1.197 -0.1506  0.4912 -0.0417
  250MOL0     C33682   2.596   8.377   1.222  0.5268  0.4296 -0.4901
  250MOL0     H33683   2.489   7.866   1.482 -0.7668 -2.9849  0.6303
  250MOL0     H33684   2.295   7.729   1.538 -1.9483  0.9241 -2.7011
  250MOL0     H33685   1.945   7.950   1.751 -1.1732 -0.6394  1.3025
  250MOL0     H33686   1.906   7.922   1.590  0.6000  2.3698  0.0421
  250MOL0     H33687   1.823   7.701   1.635  2.0980 -2.4554  2.6909
  250MOL0     H33688   1.887   7.709   1.794  1.6568  2.4279  0.9384
  250MOL0     H33689   1.735   7.935   1.800 -0.1782  0.4445 -0.8959
  250MOL0     H33690   1.651   7.839   1.669 -0.0618  1.6831  0.0726
  250MOL0     H33691   1.637   7.650   1.821 -0.5730 -0.1880  0.8569
  250MOL0     H33692   1.687   7.745   1.951  4.1775 -2.3652 -3.0640
  250MOL0     H33693   1.475   7.899   1.888 -2.4865  0.5467 -3.7356
  250MOL0     H33694   1.431   7.767   1.779  0.8169 -2.6847  0.1133
  250MOL0     H33695   1.420   7.602   1.979  1.5347 -0.6646  1.6091
  250MOL0     H33696   1.459   7.728   2.091 -2.4171 -1.1914  0.9397
  250MOL0     H33697   1.200   7.729   1.948  1.0147 -0.9383 -0.1722
  250MOL0     H33698   1.236   7.688   2.108  0.6388 -1.1305 -1.6716
  250MOL0     H33699   1.278   7.955   1.993  0.2860 -0.9120 -0.7046
  250MOL0     H33700   1.349   7.913   2.159 -1.1658  2.1366  1.3002
  250MOL0     H33701   0.987   7.874   1.999  0.1897  0.8015 -0.5161
  250MOL0     H33702   0.788   7.773   2.181 -1.3432 -0.7443  1.2322
  250MOL0     H33703   0.762   7.891   2.315 -1.1868 -2.5341  0.7849
  250MOL0     H33704   0.720   7.919   2.014  0.4344  0.8615  0.0747
  250MOL0     H33705   0.718   8.051   2.141 -0.0636 -0.3876  0.8948
  250MOL0     H33706   0.518   8.003   2.231  0.1350 -1.0858  0.8439
  250MOL0     H33707   0.522   7.826   2.213 -1.2060 -0.5644 -0.3033
  250MOL0     H33708   0.458   7.852   1.980  2.3523  1.0243  0.0083
  250MOL0     H33709   0.480   8.020   1.986 -1.2766  0.0138  0.5512
  250MOL0     H33710   0.326   7.763   2.286 -0.6504 -0.9217  1.4180
  250MOL0     H33711   0.135   7.526   2.392  1.4284  0.7420  1.7459
  250MOL0     H33712   0.217   7.431   2.264  1.7141  0.4366 -1.6913
  250MOL0     H33713   0.314   7.542   2.362  0.1909 -2.8974  2.0274
  250MOL0     H33714  -0.329   7.482   1.856 -0.1121 -1.3064 -1.3193
  250MOL0     H33715  -0.446   7.258   1.820  1.5554  3.8608 -3.5714
  250MOL0     H33716  -0.183   6.913   1.820  0.2788 -1.0282 -1.6612
  250MOL0     H33717  -0.288   6.846   1.936 -0.4836 -0.5963 -0.3628
  250MOL0     H33718  -0.294   6.747   1.689  4.0164  2.8524 -0.5500
  250MOL0     H33719  -0.454   6.781   1.759 -1.2199  3.6217 -0.1424
  250MOL0     H33720  -0.348   7.018   1.613  2.0447 -0.1473 -0.7412
  250MOL0     H33721  -0.504   6.936   1.599 -0.3492  1.0565  1.9877
  250MOL0     H33722  -0.232   6.838   1.475  1.3826  2.3796 -2.4301
  250MOL0     H33723  -0.387   6.769   1.436 -1.0363  1.3592 -0.7976
  250MOL0     H33724  -0.312   6.892   1.248  0.1223 -1.2552  0.2808
  250MOL0     H33725  -0.277   7.032   1.340  1.1848 -0.9429  1.7307
  250MOL0     H33726  -0.559   6.945   1.342 -0.7273  0.4098 -2.2509
  250MOL0     H33727  -0.493   7.101   1.385 -1.1587 -2.1282  2.2260
  250MOL0     H33728  -0.428   7.138   1.148  0.7906  0.2380 -1.1448
  250MOL0     H33729  -0.609   7.128   1.179  1.0921 -0.1322  2.7469
  250MOL0     H33730  -0.624   6.915   1.089 -0.6921  0.5619 -1.6211
  250MOL0     H33731  -0.447   6.899   1.066  2.9116  2.1613  0.3552
  250MOL0     H33732  -0.112   7.040   1.961  2.1037  0.5633 -1.0391
  250MOL0     H33733  -0.002   7.253   2.032 -0.3693  1.8659  0.6427
  250MOL0     H33734   0.007   7.705   1.912 -1.4762  0.4637  1.3253
  250MOL0     H33735   0.164   7.891   1.923  2.4399  1.4333  0.1235
  250MOL0     H33736   2.094   8.083   1.675 -0.7316 -0.9161 -1.5128
  250MOL0     H33737   2.281   8.222   1.585  0.0734 -0.5670  1.4040
  250MOL0     H33738   2.754   8.185   1.462  1.3190  0.6494 -0.5850
  250MOL0     H33739   2.928   8.334   1.394 -1.0311 -1.2365  2.7533
  250MOL0     H33740   3.052   8.622   1.099  0.5674 -0.1089  0.6466
  250MOL0     H33741   2.882   8.614   1.052  0.6537  2.0120 -0.6641
  250MOL0     H33742   2.819   8.743   1.250  0.6218  3.0194 -0.0114
  250MOL0     H33743   2.943   8.842   1.160  1.1962  0.3424  1.1718
  250MOL0     H33744   3.122   8.745   1.317  1.2086  0.3390  1.4353
  250MOL0     H33745   2.988   8.658   1.394  2.5639  0.2222  0.8227
  250MOL0     H33746   2.869   8.835   1.477 -0.0548  0.7680 -0.3163
  250MOL0     H33747   2.982   8.954   1.425  0.7148 -0.0462 -0.9430
  250MOL0     H33748   3.167   8.837   1.773 -2.1158 -0.7431  2.6369
  250MOL0     H33749   2.691   8.535   1.114 -1.9091  0.0474 -0.3783
  250MOL0     H33750   2.509   8.387   1.158 -0.3085  1.0307  0.7071
  251MOL0     O33751   4.976  10.572  10.383 -0.3496 -0.5982 -0.7201
  251MOL0     C33752   5.012  10.462  10.420  1.3434 -0.6161 -0.1248
  251MOL0     O33753   4.940  10.375  10.495  0.9915 -0.7719 -0.9057
  251MOL0     C33754   4.811  10.406  10.533 -0.0651 -0.8927 -0.3783
  251MOL0     C33755   4.704  10.329  10.499  0.5059  0.4744 -0.5331
  251MOL0     C33756   4.578  10.363  10.559  0.1316  0.3650  0.6900
  251MOL0     C33757   4.561  10.467  10.647 -0.3599  0.0410 -0.3358
  251MOL0     O33758   4.446  10.490  10.703 -0.1194 -0.3950  0.3911
  251MOL0     C33759   4.328  10.524  10.623 -0.6313  0.6870 -0.3838
  251MOL0     C33760   4.223  10.568  10.725  0.1062 -0.6658 -0.4873
  251MOL0     C33761   4.083  10.600  10.675 -0.8428  0.4394  0.3836
  251MOL0     C33762   3.994  10.672  10.777 -0.1528 -0.1329  0.3123
  251MOL0     C33763   3.840  10.695  10.736 -0.3556  0.0859 -0.0718
  251MOL0     C33764   3.763  10.770  10.854  0.5754 -0.1150  0.2541
  251MOL0     C33765   3.617  10.810  10.817 -0.3446  0.4950  0.1704
  251MOL0     C33766   3.600  10.898  10.692 -0.3101 -0.0643 -0.5218
  251MOL0     N33767   3.460  10.946  10.703  0.3006  0.0947  0.2560
  251MOL0     C33768   3.416  11.076  10.697  0.2279 -0.3125  0.8874
  251MOL0     C33769   3.284  11.073  10.677  0.4827  1.1904 -0.1175
  251MOL0     C33770   3.182  11.186  10.643  0.2320  1.1658  0.0533
  251MOL0     C33771   3.092  11.157  10.511 -1.1729 -0.4611 -0.1187
  251MOL0     C33772   3.175  11.138  10.383  0.0707  0.5410  0.1482
  251MOL0     C33773   3.086  11.097  10.261 -0.2287 -0.2886  0.8564
  251MOL0     O33774   3.153  11.129  10.142 -0.2367  0.1929 -0.4364
  251MOL0     C33775   3.093  11.103  10.022  0.4956  0.2333  0.0431
  251MOL0     C33776   2.954  11.090  10.004  0.4303  0.0065  0.4034
  251MOL0     C33777   2.896  11.080   9.878 -0.2096  0.5911  0.4665
  251MOL0     C33778   2.744  11.072   9.874  0.7875 -0.6769 -0.1798
  251MOL0     C33779   2.977  11.065   9.761 -0.9280  0.2353  0.3119
  251MOL0     C33780   2.930  11.059   9.621  0.6258  1.0065 -0.5775
  251MOL0     O33781   3.025  11.084   9.521 -0.0833  1.1596  0.0306
  251MOL0     C33782   3.006  11.025   9.399 -0.3956 -0.7440 -0.6810
  251MOL0     C33783   3.050  11.100   9.283 -0.1699  0.6818  0.3232
  251MOL0     C33784   3.026  11.048   9.157 -0.1993  1.1003  0.0758
  251MOL0     C33785   2.958  10.929   9.134 -0.5227 -0.7024  0.1326
  251MOL0     O33786   2.928  10.881   9.011 -0.2112 -0.2313 -0.3617
  251MOL0     C33787   2.957  10.948   8.896  0.0638 -0.5308  0.2180
  251MOL0     C33788   2.888  10.880   8.789  0.2287 -0.6357  0.7965
  251MOL0     C33789   2.938  10.739   8.752 -0.6548  0.1612  0.2506
  251MOL0     C33790   2.838  10.661   8.659 -0.3423 -0.2290 -0.7462
  251MOL0     C33791   2.893  10.526   8.624 -0.5269  1.1724  0.2092
  251MOL0     C33792   3.029  10.517   8.569 -0.1891  0.1689  0.5574
  251MOL0     C33793   3.066  10.373   8.515  0.1219  0.3052 -0.9526
  251MOL0     C33794   3.213  10.398   8.476 -0.8489  0.5313  0.1551
  251MOL0    Cl33795   3.231  10.507   8.341  0.2727  0.4078  0.0569
  251MOL0     C33796   2.912  10.863   9.249  0.1537 -0.0879  1.9810
  251MOL0     C33797   2.925  10.909   9.375 -0.3920 -0.3037 -0.4510
  251MOL0     O33798   2.809  11.022   9.606 -0.2733 -0.6032  0.0712
  251MOL0     C33799   3.119  11.074   9.787  0.1882  0.0326 -0.0750
  251MOL0     C33800   3.181  11.094   9.918 -0.0793  0.4106  0.9478
  251MOL0     N33801   3.248  10.935  10.668  0.2606 -1.0270 -0.0543
  251MOL0     N33802   3.351  10.863  10.691 -0.7117  1.0557  0.0971
  251MOL0     C33803   4.677  10.541  10.688 -0.5704 -0.7031 -0.3377
  251MOL0     C33804   4.798  10.513  10.623 -0.3575  0.4378  0.4959
  251MOL0     C33805   5.151  10.412  10.370 -0.3281  1.0091  0.3517
  251MOL0     C33806   5.180  10.273  10.372  0.0498 -0.2770  0.0049
  251MOL0     C33807   5.297  10.214  10.325  0.1145  0.2494 -0.5458
  251MOL0     C33808   5.393  10.303  10.273  0.0244 -0.9056 -0.2640
  251MOL0     O33809   5.509  10.232  10.228  0.5366 -0.5707 -0.3948
  251MOL0     C33810   5.634  10.303  10.219 -0.1659 -0.1381 -0.3782
  251MOL0     C33811   5.752  10.201  10.195 -0.2973 -0.1232 -0.2758
  251MOL0     C33812   5.732  10.090  10.091  0.0721  0.2627  0.0677
  251MOL0     C33813   5.794   9.961  10.145 -0.3328  0.6575 -0.3456
  251MOL0     C33814   5.685   9.883  10.195  0.4730 -0.8449 -0.2185
  251MOL0     C33815   5.587   9.823  10.228 -0.3290  0.3658  0.1287
  251MOL0     C33816   5.371  10.443  10.273 -0.2256  0.1026  0.1998
  251MOL0     C33817   5.256  10.493  10.326  0.0615  0.5019  0.6326
  251MOL0     H33818   4.706  10.239  10.438  0.0067  0.7279 -0.9357
  251MOL0     H33819   4.499  10.292  10.535  2.3657 -2.8470  2.1814
  251MOL0     H33820   4.363  10.597  10.550  2.4741  0.3655  0.6581
  251MOL0     H33821   4.278  10.439  10.575 -1.1762  1.0326 -0.4361
  251MOL0     H33822   4.202  10.485  10.793 -0.9164  0.6192  0.8254
  251MOL0     H33823   4.265  10.651  10.781  0.1304  0.3925 -2.0102
  251MOL0     H33824   4.081  10.650  10.577 -0.6131 -4.2539 -2.3379
  251MOL0     H33825   4.041  10.502  10.650 -2.6384  1.2301  0.1346
  251MOL0     H33826   4.006  10.615  10.870 -2.6101  0.9696  1.3880
  251MOL0     H33827   4.045  10.766  10.800  1.1646 -1.0685  1.4008
  251MOL0     H33828   3.842  10.773  10.659 -0.2677  0.8289  0.6782
  251MOL0     H33829   3.800  10.610  10.679 -1.7612  1.7428 -1.6957
  251MOL0     H33830   3.760  10.693  10.931 -2.2247 -0.9361 -0.5757
  251MOL0     H33831   3.827  10.853  10.887 -0.8297  2.3667 -2.7416
  251MOL0     H33832   3.554  10.721  10.805 -1.7222  1.0052  2.7144
  251MOL0     H33833   3.578  10.858  10.908  3.4521 -1.7429  3.2506
  251MOL0     H33834   3.612  10.851  10.594 -3.0637  0.6147 -1.2730
  251MOL0     H33835   3.677  10.975  10.699  0.1388 -0.4994 -0.6457
  251MOL0     H33836   3.473  11.168  10.699  0.0771  0.0439 -2.8543
  251MOL0     H33837   3.121  11.207  10.732 -0.8607  1.5537 -0.7740
  251MOL0     H33838   3.226  11.284  10.623  0.1413  1.0841 -0.5609
  251MOL0     H33839   3.022  11.240  10.501 -3.3094 -2.3542 -2.2155
  251MOL0     H33840   3.022  11.073  10.520 -0.6953 -0.7452  1.1182
  251MOL0     H33841   3.240  11.051  10.393  1.7473  1.7974  0.6442
  251MOL0     H33842   3.241  11.223  10.360  0.8958 -0.4370 -1.3078
  251MOL0     H33843   2.982  11.130  10.266 -0.0013  0.4129  5.1050
  251MOL0     H33844   3.081  10.988  10.270  1.0304 -0.3046  1.5948
  251MOL0     H33845   2.881  11.110  10.082 -1.7428  2.2372 -1.9856
  251MOL0     H33846   2.694  11.077   9.971  1.4496 -1.0824  0.1961
  251MOL0     H33847   2.714  11.160   9.818  1.5880  0.2764  0.8206
  251MOL0     H33848   2.720  10.979   9.822 -1.1102  0.0271 -0.6346
  251MOL0     H33849   3.104  11.194   9.292 -1.7667  1.6721  0.0021
  251MOL0     H33850   3.066  11.110   9.077  0.4331  1.5233  0.7109
  251MOL0     H33851   2.935  11.055   8.898  0.4291 -0.4405  2.3174
  251MOL0     H33852   3.066  10.948   8.881  0.0763 -3.7142 -0.5427
  251MOL0     H33853   2.781  10.886   8.811  0.1231  1.3339 -0.0779
  251MOL0     H33854   2.909  10.948   8.706 -0.6214 -1.6561 -0.2900
  251MOL0     H33855   2.965  10.687   8.844  1.2644  0.8790  0.1318
  251MOL0     H33856   3.029  10.751   8.693  0.8164 -2.3220  1.8211
  251MOL0     H33857   2.744  10.649   8.712  0.7993  3.1294  2.4785
  251MOL0     H33858   2.822  10.712   8.563  1.8731 -1.9829 -2.1654
  251MOL0     H33859   2.832  10.483   8.544 -1.6379 -1.2581  2.2230
  251MOL0     H33860   2.889  10.464   8.714  0.0538  0.1741 -0.4438
  251MOL0     H33861   3.031  10.581   8.480  1.9486 -0.9174 -0.2355
  251MOL0     H33862   3.094  10.541   8.653 -0.4495  1.5729  0.3784
  251MOL0     H33863   3.004  10.351   8.428  1.1282  0.2502 -1.6723
  251MOL0     H33864   3.046  10.299   8.593 -0.3526 -1.7157 -2.9033
  251MOL0     H33865   3.251  10.301   8.441 -2.5950  0.0751 -0.6051
  251MOL0     H33866   3.273  10.434   8.559 -1.4692  0.7915  0.4962
  251MOL0     H33867   2.860  10.769   9.232 -0.0490 -0.2756  3.4570
  251MOL0     H33868   2.884  10.849   9.456 -0.9814  0.7777  0.0760
  251MOL0     H33869   3.188  11.068   9.704  0.1942 -0.1527 -0.0568
  251MOL0     H33870   3.289  11.099   9.927 -0.1346  1.4492  1.1555
  251MOL0     H33871   4.682  10.615  10.767  1.6367  1.8618 -2.6645
  251MOL0     H33872   4.888  10.563  10.657  0.6603 -1.2163  0.3190
  251MOL0     H33873   5.106  10.210  10.418 -0.0454  0.5017  0.9621
  251MOL0     H33874   5.328  10.110  10.326  3.7479  1.2077  0.5737
  251MOL0     H33875   5.619  10.367  10.132 -3.8460 -2.3126 -1.5768
  251MOL0     H33876   5.646  10.362  10.310 -0.4414  1.9663 -1.6507
  251MOL0     H33877   5.762  10.141  10.286 -0.0760 -0.7027 -0.6806
  251MOL0     H33878   5.847  10.253  10.181  1.2604 -2.9727 -1.1123
  251MOL0     H33879   5.784  10.114   9.998  0.2283  0.7410  0.2745
  251MOL0     H33880   5.625  10.080  10.070 -0.0077  0.1263  0.5344
  251MOL0     H33881   5.873   9.972  10.220 -1.1556 -0.6641  0.7356
  251MOL0     H33882   5.848   9.922  10.057 -1.8830  0.8245 -1.4071
  251MOL0     H33883   5.507   9.759  10.261 -2.2727  2.5122 -0.1858
  251MOL0     H33884   5.442  10.516  10.235 -0.0408 -1.2822 -2.2708
  251MOL0     H33885   5.236  10.599  10.323 -1.8174  0.2264  1.5146
  252MOL0     O33886   1.340   0.175   3.581 -0.0614  0.5834 -0.1824
  252MOL0     C33887   1.353   0.050   3.589 -1.4341  0.4150  1.0162
  252MOL0     O33888   1.267  -0.040   3.532 -0.2497 -0.1303 -0.1491
  252MOL0     C33889   1.160  -0.003   3.461  0.9401 -0.3674  0.5005
  252MOL0     C33890   1.054   0.078   3.513  0.0315 -0.0758  0.4078
  252MOL0     C33891   0.939   0.110   3.436  0.2393 -0.6941  0.8068
  252MOL0     C33892   0.929   0.062   3.309 -0.2285 -0.7890  0.1287
  252MOL0     O33893   0.820   0.085   3.230 -0.1362 -0.4118 -0.2613
  252MOL0     C33894   0.814   0.217   3.184  0.4694 -0.2703  0.2302
  252MOL0     C33895   0.673   0.282   3.190 -0.0038  0.5759 -0.1451
  252MOL0     C33896   0.593   0.248   3.321 -0.6771 -0.0520  0.0574
  252MOL0     C33897   0.494   0.130   3.301 -0.5776 -0.9881 -0.7691
  252MOL0     C33898   0.433   0.079   3.441 -0.1404  0.1678 -0.0907
  252MOL0     C33899   0.547   0.016   3.526 -0.6646  0.2113  0.8244
  252MOL0     C33900   0.498  -0.085   3.630  0.2670 -0.2410 -0.0445
  252MOL0     C33901   0.608  -0.120   3.737 -0.2275  0.2057 -0.3858
  252MOL0     N33902   0.569  -0.245   3.816  0.1902 -0.0408  0.4217
  252MOL0     C33903   0.459  -0.261   3.894  0.4745  0.4643  0.1850
  252MOL0     C33904   0.473  -0.356   3.984 -0.3879  0.3950 -0.8166
  252MOL0     C33905   0.363  -0.422   4.081  0.7170  0.1363  0.1983
  252MOL0     C33906   0.232  -0.454   3.996 -1.1252  0.2332  0.1980
  252MOL0     C33907   0.141  -0.507   4.104 -0.7508 -0.5475 -0.5709
  252MOL0     C33908   0.013  -0.554   4.036  0.4973 -0.1161 -0.1390
  252MOL0     O33909  -0.064  -0.440   4.003 -0.3118 -0.0938 -0.7782
  252MOL0     C33910  -0.189  -0.461   3.953  0.0465 -0.7356  0.2966
  252MOL0     C33911  -0.244  -0.590   3.929 -0.0208 -0.0661 -0.5876
  252MOL0     C33912  -0.372  -0.609   3.872 -0.1403  0.1349  0.6825
  252MOL0     C33913  -0.420  -0.754   3.851  0.1854  0.2097  0.8975
  252MOL0     C33914  -0.454  -0.498   3.845  0.3056 -0.5229 -0.9678
  252MOL0     C33915  -0.590  -0.504   3.773 -0.9857 -0.1804 -1.1964
  252MOL0     O33916  -0.694  -0.443   3.843 -0.8994  0.2598 -0.5460
  252MOL0     C33917  -0.826  -0.477   3.819  0.9523 -1.2986  1.4319
  252MOL0     C33918  -0.877  -0.592   3.747 -0.6478  0.0184 -0.6449
  252MOL0     C33919  -1.010  -0.611   3.716 -0.4864 -0.0089 -1.0410
  252MOL0     C33920  -1.107  -0.523   3.760  0.0730  0.2483  0.8951
  252MOL0     O33921  -1.238  -0.563   3.738 -0.2382 -0.4217 -0.5526
  252MOL0     C33922  -1.347  -0.488   3.789 -0.7553 -0.4266  0.2945
  252MOL0     C33923  -1.484  -0.545   3.741  0.2496  0.9333  0.6809
  252MOL0     C33924  -1.481  -0.600   3.596  0.0710 -0.0742 -0.1878
  252MOL0     C33925  -1.608  -0.675   3.571 -0.5686  0.7985  0.3004
  252MOL0     C33926  -1.613  -0.691   3.415 -0.1796  1.0557 -0.0145
  252MOL0     C33927  -1.541  -0.808   3.358 -0.3173 -0.2285  0.6326
  252MOL0     C33928  -1.570  -0.811   3.207  0.0934  0.6525  0.5633
  252MOL0     C33929  -1.470  -0.888   3.134 -0.0569 -0.8764 -0.8608
  252MOL0    Cl33930  -1.513  -0.883   2.960 -0.0317  0.4090 -0.5581
  252MOL0     C33931  -1.067  -0.416   3.842 -0.0831  0.5908  0.1887
  252MOL0     C33932  -0.926  -0.389   3.864  0.1066  0.8030  0.5073
  252MOL0     O33933  -0.587  -0.578   3.677  0.6316  0.6026 -0.3809
  252MOL0     C33934  -0.400  -0.372   3.855 -0.3828  0.1409 -0.4431
  252MOL0     C33935  -0.267  -0.340   3.922  0.6906  0.4168 -0.1184
  252MOL0     N33936   0.606  -0.404   3.964  0.4419  0.0725 -0.0931
  252MOL0     N33937   0.653  -0.342   3.866 -0.4628  0.5862 -0.0928
  252MOL0     C33938   1.026  -0.023   3.263  0.1497 -0.4391  0.4838
  252MOL0     C33939   1.138  -0.057   3.333 -0.0721 -0.4218 -0.4719
  252MOL0     C33940   1.463  -0.014   3.663  0.4268  0.5582 -0.2642
  252MOL0     C33941   1.592   0.027   3.636 -0.7884  0.5961 -0.5563
  252MOL0     C33942   1.705  -0.013   3.714  0.1746 -0.1533 -0.0704
  252MOL0     C33943   1.689  -0.112   3.811  0.8124  1.0467 -0.4870
  252MOL0     O33944   1.796  -0.151   3.875 -0.3403 -0.6367  0.6969
  252MOL0     C33945   1.814  -0.281   3.937 -0.6229  0.1973  0.0483
  252MOL0     C33946   1.896  -0.245   4.062 -0.3888 -0.5490 -0.0578
  252MOL0     C33947   2.040  -0.282   4.040 -0.4854  0.3066 -0.0943
  252MOL0     C33948   2.119  -0.184   3.953  0.2979 -0.7223  0.2569
  252MOL0     C33949   2.262  -0.215   3.947  0.6488 -0.1126  0.1823
  252MOL0     C33950   2.379  -0.246   3.933 -0.0017 -0.2746 -0.0169
  252MOL0     C33951   1.561  -0.160   3.829  0.4429 -0.0836  0.1971
  252MOL0     C33952   1.449  -0.118   3.757 -0.2648  0.5715 -0.0256
  252MOL0     H33953   1.064   0.124   3.610  1.2338  0.9696 -0.1817
  252MOL0     H33954   0.860   0.174   3.474 -1.6968 -1.6284 -1.4150
  252MOL0     H33955   0.863   0.288   3.252 -1.7327  1.5482  0.0485
  252MOL0     H33956   0.861   0.237   3.087  0.1173  1.6785  0.4033
  252MOL0     H33957   0.684   0.390   3.182  2.7609  0.3143 -0.7202
  252MOL0     H33958   0.608   0.255   3.106 -0.4122 -0.2905  0.4387
  252MOL0     H33959   0.658   0.232   3.407 -0.6904  3.4729  0.8961
  252MOL0     H33960   0.538   0.339   3.349  0.9563  0.5040  1.6296
  252MOL0     H33961   0.409   0.164   3.243 -2.9100 -1.0609  2.3483
  252MOL0     H33962   0.543   0.047   3.248  0.6427  0.4816 -2.0506
  252MOL0     H33963   0.392   0.160   3.501 -1.4660 -1.2609  1.0387
  252MOL0     H33964   0.351   0.008   3.425  1.1750 -1.9477  1.8388
  252MOL0     H33965   0.623  -0.029   3.462  1.0303  3.5999  0.1984
  252MOL0     H33966   0.584   0.096   3.590 -0.8328  0.2696  0.8494
  252MOL0     H33967   0.432  -0.034   3.701  2.9194  0.6063  1.9756
  252MOL0     H33968   0.468  -0.176   3.578 -0.7478  0.7965 -1.3741
  252MOL0     H33969   0.619  -0.041   3.810  1.0780  1.0016 -1.4023
  252MOL0     H33970   0.707  -0.133   3.692  1.0860  0.1690  2.3177
  252MOL0     H33971   0.373  -0.195   3.885  1.2178  1.6479  1.3555
  252MOL0     H33972   0.403  -0.519   4.114 -0.4778 -1.3871 -2.4699
  252MOL0     H33973   0.340  -0.339   4.148 -1.7803  1.6116 -2.2489
  252MOL0     H33974   0.246  -0.513   3.905  1.1180  1.4207 -0.2911
  252MOL0     H33975   0.183  -0.360   3.969 -1.2375 -0.4740 -2.2535
  252MOL0     H33976   0.130  -0.431   4.182 -0.2841 -0.7131 -0.3355
  252MOL0     H33977   0.185  -0.594   4.155 -1.2804 -2.7431 -3.6191
  252MOL0     H33978  -0.037  -0.614   4.112 -1.9528  2.4590  0.4605
  252MOL0     H33979   0.031  -0.617   3.948 -0.5960 -0.6780  0.0256
  252MOL0     H33980  -0.188  -0.683   3.942  0.7626  0.3130 -1.1516
  252MOL0     H33981  -0.340  -0.817   3.893  0.3860  0.4335  0.8536
  252MOL0     H33982  -0.516  -0.778   3.897 -1.3923 -1.1430 -2.7558
  252MOL0     H33983  -0.415  -0.785   3.747  2.8275 -0.3751  1.1230
  252MOL0     H33984  -0.813  -0.676   3.721 -1.1807 -1.3713  2.1615
  252MOL0     H33985  -1.046  -0.699   3.665 -0.6148 -0.8179  0.3925
  252MOL0     H33986  -1.336  -0.488   3.898 -1.2739 -2.5824  0.3985
  252MOL0     H33987  -1.331  -0.385   3.757  2.5904  0.2474  3.4528
  252MOL0     H33988  -1.513  -0.630   3.803 -0.5967  0.1984 -0.6567
  252MOL0     H33989  -1.558  -0.465   3.755  3.6102  4.3822  0.4781
  252MOL0     H33990  -1.398  -0.666   3.569  0.6603 -1.1918  3.8199
  252MOL0     H33991  -1.488  -0.511   3.533  1.2318 -0.2346 -0.5746
  252MOL0     H33992  -1.617  -0.776   3.612 -1.4808  0.6640 -0.2032
  252MOL0     H33993  -1.692  -0.616   3.607  0.4563  3.0929 -0.7998
  252MOL0     H33994  -1.573  -0.597   3.374  0.3901  0.7626 -0.1480
  252MOL0     H33995  -1.712  -0.692   3.370  0.7160  3.2272 -2.2775
  252MOL0     H33996  -1.434  -0.789   3.372 -0.0262 -1.7482  0.6129
  252MOL0     H33997  -1.575  -0.905   3.396  1.6296 -1.8500 -1.5056
  252MOL0     H33998  -1.574  -0.709   3.169  2.2913  0.2207 -1.0381
  252MOL0     H33999  -1.666  -0.860   3.188 -0.6535  2.5127 -0.7004
  252MOL0     H34000  -1.460  -0.988   3.177 -3.0254  0.2386  2.9216
  252MOL0     H34001  -1.376  -0.835   3.147 -0.5523  0.2582 -1.7525
  252MOL0     H34002  -1.134  -0.344   3.889  0.5284  1.0905  0.3125
  252MOL0     H34003  -0.882  -0.301   3.909 -0.5988  2.4352 -1.8561
  252MOL0     H34004  -0.466  -0.288   3.836 -0.3470  0.3579  0.3567
  252MOL0     H34005  -0.230  -0.246   3.960  1.1800 -1.4155  4.5786
  252MOL0     H34006   1.025  -0.059   3.160  1.2889  1.7199 -0.3553
  252MOL0     H34007   1.211  -0.132   3.304  0.1363 -0.6098  0.5035
  252MOL0     H34008   1.605   0.103   3.560 -0.7745  2.3663  1.1202
  252MOL0     H34009   1.808   0.016   3.697  0.3030  0.6592  1.8561
  252MOL0     H34010   1.724  -0.336   3.965  1.2481 -3.0302  0.2340
  252MOL0     H34011   1.870  -0.350   3.873  0.0440 -1.2238  2.0611
  252MOL0     H34012   1.844  -0.296   4.144 -1.1429  0.5032  0.1451
  252MOL0     H34013   1.884  -0.139   4.089 -2.5420 -0.3243 -1.6432
  252MOL0     H34014   2.041  -0.380   3.990  0.4472 -0.5571  1.5691
  252MOL0     H34015   2.102  -0.294   4.128 -0.8316 -0.9297  0.0022
  252MOL0     H34016   2.109  -0.081   3.990 -0.1943  0.1498 -2.1367
  252MOL0     H34017   2.081  -0.177   3.851 -2.0321  2.5216  1.1486
  252MOL0     H34018   2.479  -0.285   3.925  0.9724  1.4623  2.3452
  252MOL0     H34019   1.548  -0.220   3.918  4.1143 -1.0323  0.2528
  252MOL0     H34020   1.353  -0.164   3.778 -0.2386  0.1318 -0.8194
  253MOL0     O34021   8.819   2.795   6.601  0.7739 -0.0391 -0.0182
  253MOL0     C34022   8.754   2.846   6.513 -0.6922  0.5736  0.3265
  253MOL0     O34023   8.784   2.850   6.377 -0.3136  0.1441 -0.7903
  253MOL0     C34024   8.902   2.800   6.339 -0.9132  0.4865 -0.1270
  253MOL0     C34025   8.911   2.709   6.233 -0.5638  0.2506 -0.9219
  253MOL0     C34026   9.031   2.641   6.212 -0.2132  0.7953 -0.1223
  253MOL0     C34027   9.149   2.664   6.288  0.4148 -0.1706  0.0700
  253MOL0     O34028   9.245   2.575   6.251 -0.0093 -0.9613  0.3568
  253MOL0     C34029   9.361   2.577   6.336 -0.2668 -0.4256 -0.9486
  253MOL0     C34030   9.444   2.461   6.305 -0.1805 -0.1299 -1.1782
  253MOL0     C34031   9.547   2.475   6.195 -0.4124  0.2261 -0.1761
  253MOL0     C34032   9.607   2.342   6.151 -0.0225  0.3122 -0.7719
  253MOL0     C34033   9.715   2.349   6.038 -0.4516 -0.1678  0.1105
  253MOL0     C34034   9.773   2.212   6.000 -0.0611 -0.1512 -0.5165
  253MOL0     C34035   9.873   2.237   5.886  0.5845  0.6034 -0.1561
  253MOL0     C34036   9.898   2.116   5.795  0.2237  0.7991  0.2066
  253MOL0     N34037   9.909   2.162   5.654 -1.0683  0.3097 -0.2967
  253MOL0     C34038  10.012   2.249   5.615  0.5117 -0.3411 -0.1605
  253MOL0     C34039   9.967   2.304   5.498  0.5916  0.3388 -0.6699
  253MOL0     C34040  10.018   2.415   5.410  0.3366  0.1038  0.4753
  253MOL0     C34041  10.170   2.399   5.380  0.2271  0.4402  0.0840
  253MOL0     C34042  10.217   2.516   5.287 -0.6854  0.7343 -0.7154
  253MOL0     C34043  10.366   2.512   5.281  0.9897 -0.0468 -0.3829
  253MOL0     O34044  10.415   2.405   5.201 -0.5050  0.2693 -0.3863
  253MOL0     C34045  10.556   2.397   5.187 -0.3360 -0.1291 -0.1673
  253MOL0     C34046  10.612   2.274   5.153  0.0922  0.6369  0.4937
  253MOL0     C34047  10.748   2.252   5.144 -0.5962 -0.1916 -0.3217
  253MOL0     C34048  10.779   2.111   5.100 -0.6022  0.1109  0.6518
  253MOL0     C34049  10.844   2.358   5.168  0.4746  0.3678  0.1835
  253MOL0     C34050  10.994   2.345   5.148 -0.1583  0.5363 -0.1112
  253MOL0     O34051  11.058   2.455   5.115 -0.2996 -0.1262 -0.0565
  253MOL0     C34052  11.193   2.456   5.148  0.0426 -0.0979  0.7991
  253MOL0     C34053  11.235   2.539   5.253  0.6966 -1.0700  1.4300
  253MOL0     C34054  11.375   2.544   5.274  0.6851  0.3406  0.0031
  253MOL0     C34055  11.470   2.474   5.195 -0.3001  0.0957  0.0128
  253MOL0     O34056  11.598   2.464   5.244  0.3152  0.3170  1.0234
  253MOL0     C34057  11.693   2.385   5.161  0.2492  0.5456 -0.0098
  253MOL0     C34058  11.684   2.230   5.179  0.1829 -0.1227  0.3757
  253MOL0     C34059  11.766   2.146   5.072 -0.3891  0.2206  0.2488
  253MOL0     C34060  11.921   2.137   5.107 -0.7965 -1.3985 -0.5067
  253MOL0     C34061  11.994   2.011   5.068 -0.4375 -0.7411  0.2726
  253MOL0     C34062  12.148   2.027   5.079 -0.6733  0.3958 -0.0373
  253MOL0     C34063  12.228   1.915   5.012  0.5570  0.7467  0.0536
  253MOL0     C34064  12.375   1.937   5.020 -0.0818  0.0577  0.5815
  253MOL0    Cl34065  12.449   1.791   4.943 -0.1050 -0.0337  0.2576
  253MOL0     C34066  11.421   2.407   5.082 -0.3306 -0.8057 -0.4389
  253MOL0     C34067  11.283   2.408   5.055 -0.0866  0.4453 -0.3915
  253MOL0     O34068  11.048   2.232   5.154  0.4169 -0.3808  0.9819
  253MOL0     C34069  10.788   2.486   5.201  0.7627  0.3394 -0.0936
  253MOL0     C34070  10.649   2.510   5.209  0.0356  0.1587  0.2498
  253MOL0     N34071   9.849   2.242   5.463  0.2825 -0.2423  0.1135
  253MOL0     N34072   9.808   2.168   5.562 -0.3339 -0.4940 -0.4501
  253MOL0     C34073   9.145   2.759   6.380 -0.7784 -0.5014 -0.3143
  253MOL0     C34074   9.024   2.834   6.402  0.0634 -0.8237  0.5885
  253MOL0     C34075   8.629   2.911   6.552  0.0958  0.1785  0.5025
  253MOL0     C34076   8.581   2.904   6.683  0.8196  0.7631  0.7641
  253MOL0     C34077   8.471   2.987   6.717  0.4501 -0.1965 -0.3968
  253MOL0     C34078   8.401   3.067   6.632  0.4244  0.3845  0.7420
  253MOL0     O34079   8.278   3.134   6.654 -0.4733 -0.4573  0.5897
  253MOL0     C34080   8.223   3.138   6.787 -0.0595  0.0618  0.1331
  253MOL0     C34081   8.286   3.246   6.867  0.1341 -1.0871  0.2027
  253MOL0     C34082   8.196   3.308   6.979  0.3888  0.6945 -0.4252
  253MOL0     C34083   8.078   3.385   6.902 -0.7061  1.1618 -0.4871
  253MOL0     C34084   8.011   3.483   6.987  0.0792 -0.4956 -0.2492
  253MOL0     C34085   7.965   3.565   7.070  0.1465  0.0170  0.4542
  253MOL0     C34086   8.443   3.061   6.498  0.2410  1.0586 -0.5024
  253MOL0     C34087   8.558   2.986   6.459 -0.0207  0.8194 -0.4798
  253MOL0     H34088   8.816   2.678   6.190 -1.3093  0.7029  0.3333
  253MOL0     H34089   9.017   2.564   6.137 -3.1491 -1.2144  2.2562
  253MOL0     H34090   9.417   2.671   6.327 -0.6609  0.1150  1.5561
  253MOL0     H34091   9.337   2.571   6.442 -1.3638 -2.2683 -1.2550
  253MOL0     H34092   9.513   2.438   6.387  0.3857 -0.6393 -1.7829
  253MOL0     H34093   9.387   2.368   6.295  3.4830 -2.5520 -1.6327
  253MOL0     H34094   9.510   2.527   6.107  1.9316 -1.2457 -2.1664
  253MOL0     H34095   9.620   2.545   6.237 -1.6422  1.1528  0.5014
  253MOL0     H34096   9.659   2.304   6.239  1.0423  0.5665 -1.2797
  253MOL0     H34097   9.533   2.267   6.124  1.0654 -1.4173  0.8410
  253MOL0     H34098   9.674   2.411   5.957 -3.5145  2.9408  3.6051
  253MOL0     H34099   9.797   2.416   6.065  2.8757 -2.8075 -2.5471
  253MOL0     H34100   9.806   2.157   6.088 -2.6969 -0.7728  0.1836
  253MOL0     H34101   9.691   2.152   5.959 -1.2384  0.7739  0.4124
  253MOL0     H34102   9.828   2.315   5.824  0.1273  1.6093  1.3649
  253MOL0     H34103   9.965   2.285   5.922 -0.4569  3.5199 -1.0813
  253MOL0     H34104   9.817   2.043   5.805  2.3114 -1.3771  3.4787
  253MOL0     H34105   9.992   2.075   5.833  0.3620  1.3013  0.4090
  253MOL0     H34106  10.094   2.286   5.676  1.3519 -1.3422 -0.6473
  253MOL0     H34107   9.952   2.417   5.322 -0.5538  2.6190  1.1306
  253MOL0     H34108  10.009   2.507   5.468  2.0408  0.4896  0.1638
  253MOL0     H34109  10.194   2.305   5.330  2.4776  1.3920 -0.7505
  253MOL0     H34110  10.227   2.400   5.473 -2.0674  0.1617  1.5815
  253MOL0     H34111  10.180   2.611   5.327 -4.9904 -1.4650  1.1740
  253MOL0     H34112  10.168   2.509   5.189  0.7213  1.3445 -1.4867
  253MOL0     H34113  10.408   2.502   5.381  1.3913 -0.7199 -0.6174
  253MOL0     H34114  10.397   2.602   5.228  3.2883  0.0433  1.0134
  253MOL0     H34115  10.536   2.198   5.136 -0.9766  1.7299  0.1920
  253MOL0     H34116  10.689   2.065   5.056 -0.2210 -3.2109  2.9524
  253MOL0     H34117  10.855   2.123   5.023 -2.2788  1.4888 -0.8904
  253MOL0     H34118  10.817   2.051   5.183 -3.1277  1.8018  3.2593
  253MOL0     H34119  11.153   2.589   5.303  0.3908 -1.1832  1.0409
  253MOL0     H34120  11.410   2.597   5.361  3.2998 -0.5283 -0.4418
  253MOL0     H34121  11.683   2.412   5.056  1.5937  3.4446  0.5291
  253MOL0     H34122  11.791   2.413   5.200  1.6186 -3.0030 -0.5476
  253MOL0     H34123  11.705   2.206   5.283 -3.0744 -0.1890  1.1265
  253MOL0     H34124  11.579   2.203   5.166  0.2035 -0.5763  1.1219
  253MOL0     H34125  11.763   2.191   4.973  3.4223 -2.8332 -1.4957
  253MOL0     H34126  11.725   2.045   5.082  1.0494 -0.2483  2.0040
  253MOL0     H34127  11.961   2.215   5.041  0.0894 -1.9216 -0.5932
  253MOL0     H34128  11.936   2.157   5.213  0.4777 -0.1383 -0.8818
  253MOL0     H34129  11.980   2.001   4.960  5.1524 -1.0593 -0.7489
  253MOL0     H34130  11.967   1.921   5.123 -0.7601  0.0188  1.3903
  253MOL0     H34131  12.182   2.122   5.036  1.9090 -0.5517 -0.2800
  253MOL0     H34132  12.168   2.027   5.186 -0.1966 -0.1081 -0.1179
  253MOL0     H34133  12.202   1.881   4.911  1.6494  1.8063 -0.6132
  253MOL0     H34134  12.215   1.826   5.075  0.8770  0.6881  0.0392
  253MOL0     H34135  12.389   1.941   5.128 -2.0886  1.0702  0.8434
  253MOL0     H34136  12.402   2.033   4.975 -1.1633 -0.1795 -0.6337
  253MOL0     H34137  11.486   2.358   5.009  0.1811  0.0356 -0.5578
  253MOL0     H34138  11.259   2.352   4.966  2.7162 -1.9075  0.1818
  253MOL0     H34139  10.849   2.575   5.199 -1.6929  2.1174 -1.8158
  253MOL0     H34140  10.603   2.608   5.221  1.5699  0.6855  2.4426
  253MOL0     H34141   9.223   2.785   6.451  0.6682 -1.8158 -1.3776
  253MOL0     H34142   9.023   2.917   6.472  2.0775 -0.4575  0.2363
  253MOL0     H34143   8.627   2.832   6.750 -0.6380 -0.4084  0.5564
  253MOL0     H34144   8.439   2.975   6.820 -1.3119 -0.4171 -0.9256
  253MOL0     H34145   8.117   3.164   6.779  0.0485  0.9009  1.2093
  253MOL0     H34146   8.230   3.044   6.841  0.7732  0.6332  1.0631
  253MOL0     H34147   8.314   3.332   6.805 -0.8708  0.9112  2.3800
  253MOL0     H34148   8.374   3.204   6.917 -0.9010 -0.5972  2.5326
  253MOL0     H34149   8.257   3.374   7.041 -0.8259  1.2985  0.1521
  253MOL0     H34150   8.157   3.231   7.046 -0.4933  0.0642 -1.6077
  253MOL0     H34151   8.006   3.316   6.857  3.3653 -1.2031 -4.1631
  253MOL0     H34152   8.120   3.436   6.815  1.0687  2.3142  0.9706
  253MOL0     H34153   7.911   3.632   7.134 -2.5091  0.8733 -2.4231
  253MOL0     H34154   8.375   3.107   6.428  0.3964  0.9072 -0.7547
  253MOL0     H34155   8.605   2.992   6.361 -0.5389  1.0069 -0.7210
  254MOL0     O34156   1.864   3.497   6.356  0.1855  0.5091  0.2426
  254MOL0     C34157   1.947   3.410   6.375  0.0233 -0.0467  0.3771
  254MOL0     O34158   1.923   3.312   6.466 -0.0530  0.5141 -0.1208
  254MOL0     C34159   1.797   3.296   6.508 -0.4724  0.5126 -0.1192
  254MOL0     C34160   1.759   3.301   6.647  0.1094  0.5080  0.0443
  254MOL0     C34161   1.636   3.263   6.688 -0.3285  0.1229 -0.0022
  254MOL0     C34162   1.541   3.210   6.602 -0.1288  0.3713 -0.3961
  254MOL0     O34163   1.413   3.167   6.640 -0.2620  0.4985  0.0141
  254MOL0     C34164   1.376   3.172   6.776 -0.2859 -0.5547 -0.4734
  254MOL0     C34165   1.225   3.154   6.775  0.5689  0.1013 -0.3585
  254MOL0     C34166   1.192   3.126   6.922 -1.0559 -0.2612 -0.4418
  254MOL0     C34167   1.045   3.139   6.955 -0.9783  0.1933  0.1660
  254MOL0     C34168   0.998   3.049   7.071  0.5006 -0.4254  0.1626
  254MOL0     C34169   0.853   3.075   7.098 -0.7520 -0.4765 -0.1357
  254MOL0     C34170   0.814   3.013   7.233  0.1742 -0.0302 -0.4668
  254MOL0     C34171   0.663   3.034   7.261  0.1338 -1.0928 -0.6125
  254MOL0     N34172   0.631   2.992   7.397  0.3510  0.8140 -0.7400
  254MOL0     C34173   0.590   2.872   7.442  0.2174  0.2467 -0.1333
  254MOL0     C34174   0.589   2.876   7.582  1.3801 -0.9797  0.1619
  254MOL0     C34175   0.561   2.761   7.672  0.1201  0.6282 -0.1331
  254MOL0     C34176   0.632   2.630   7.621  0.5145  0.2028 -0.0387
  254MOL0     C34177   0.755   2.607   7.714  0.0112 -0.3205 -0.2446
  254MOL0     C34178   0.862   2.702   7.669 -0.0949  0.0764 -0.7759
  254MOL0     O34179   0.889   2.677   7.526  0.7514 -0.0401  0.6329
  254MOL0     C34180   0.995   2.750   7.477 -0.3847  0.9282 -0.2222
  254MOL0     C34181   1.016   2.888   7.495 -0.2205 -0.5765 -0.5174
  254MOL0     C34182   1.128   2.950   7.444 -0.2085 -0.2432  0.2273
  254MOL0     C34183   1.128   3.104   7.478  0.0138  0.4830  0.1160
  254MOL0     C34184   1.226   2.871   7.373 -0.1163  0.6878  0.1791
  254MOL0     C34185   1.352   2.931   7.320  0.8965 -0.6150  0.1069
  254MOL0     O34186   1.443   2.850   7.271  0.2744 -0.3084  0.1163
  254MOL0     C34187   1.553   2.903   7.195  0.2149  0.3096 -0.0920
  254MOL0     C34188   1.544   3.011   7.105  0.3223  0.2214  0.9621
  254MOL0     C34189   1.659   3.065   7.053 -0.5890  0.3763  0.4255
  254MOL0     C34190   1.787   3.013   7.074 -0.4398  0.1383  0.7821
  254MOL0     O34191   1.890   3.079   7.009  0.4211  0.4520  0.0635
  254MOL0     C34192   2.014   2.999   7.008 -0.5790 -0.2662 -0.0754
  254MOL0     C34193   2.119   3.105   6.967 -0.5042  0.4743  0.2887
  254MOL0     C34194   2.140   3.110   6.812  0.4329 -0.1493  0.1065
  254MOL0     C34195   2.207   2.982   6.744  0.1157 -0.3446 -0.3327
  254MOL0     C34196   2.221   3.007   6.589  0.3910  0.0270 -0.1848
  254MOL0     C34197   2.096   2.970   6.509  0.2830  0.3874 -0.8732
  254MOL0     C34198   2.122   2.910   6.378 -1.2324  1.7995 -0.3818
  254MOL0     C34199   2.001   2.875   6.295 -0.3006  0.4658  0.4411
  254MOL0    Cl34200   1.929   2.736   6.376  0.1779 -0.0643  0.5735
  254MOL0     C34201   1.797   2.903   7.165 -0.9068 -0.1418 -0.0653
  254MOL0     C34202   1.679   2.843   7.223 -0.5323 -0.0653  0.3224
  254MOL0     O34203   1.346   3.050   7.301 -0.5578 -0.6528 -0.1721
  254MOL0     C34204   1.193   2.735   7.345 -0.3134 -1.5358  0.0565
  254MOL0     C34205   1.080   2.682   7.397 -1.0066  0.8430  0.2692
  254MOL0     N34206   0.610   3.006   7.609  0.0524 -0.2703 -0.1575
  254MOL0     N34207   0.646   3.071   7.503  0.0663  0.1889  0.0259
  254MOL0     C34208   1.572   3.207   6.471 -0.2881  1.0355 -0.3170
  254MOL0     C34209   1.696   3.248   6.420  0.3248  0.6979 -0.2781
  254MOL0     C34210   2.063   3.419   6.285  0.4951  1.1903  0.2007
  254MOL0     C34211   2.155   3.312   6.279  0.7338 -0.2566 -0.3224
  254MOL0     C34212   2.265   3.314   6.193  0.4727  0.5675  0.5462
  254MOL0     C34213   2.286   3.426   6.116  1.5586 -0.5175 -0.8048
  254MOL0     O34214   2.395   3.430   6.032 -0.6840  0.1761 -0.5616
  254MOL0     C34215   2.453   3.555   5.992 -0.2783  0.1824  0.0171
  254MOL0     C34216   2.581   3.539   5.903  1.0433  0.0009 -0.8534
  254MOL0     C34217   2.683   3.432   5.950  0.7389  0.1753 -0.4592
  254MOL0     C34218   2.761   3.469   6.069  0.2323  0.5383 -0.5908
  254MOL0     C34219   2.869   3.376   6.106  0.6918  0.8125  0.3150
  254MOL0     C34220   2.970   3.315   6.121 -0.5228 -0.3937 -0.3835
  254MOL0     C34221   2.192   3.531   6.133 -0.3611 -0.3026  0.7176
  254MOL0     C34222   2.078   3.530   6.203 -0.2074 -0.3714 -0.3381
  254MOL0     H34223   1.828   3.342   6.720 -1.6591  1.8578  1.0521
  254MOL0     H34224   1.625   3.261   6.796  2.2511 -0.6192  0.3153
  254MOL0     H34225   1.426   3.093   6.833 -3.7337 -2.9361 -0.4384
  254MOL0     H34226   1.409   3.266   6.821  0.4055 -2.2238  2.8790
  254MOL0     H34227   1.188   3.251   6.740 -1.7672 -0.2852  0.8331
  254MOL0     H34228   1.189   3.069   6.717 -0.9881 -0.0734  0.7735
  254MOL0     H34229   1.226   3.030   6.962 -1.2843  0.5230  1.7326
  254MOL0     H34230   1.248   3.190   6.991 -1.4511 -0.8843  0.4607
  254MOL0     H34231   1.012   3.242   6.971 -3.3084 -0.5068  0.2967
  254MOL0     H34232   0.999   3.115   6.858 -0.3985  1.5588 -0.4877
  254MOL0     H34233   1.018   2.945   7.044  1.2241 -0.1123 -0.5320
  254MOL0     H34234   1.055   3.067   7.163  0.3853 -0.5165  0.2532
  254MOL0     H34235   0.847   3.184   7.102  1.6701 -0.2664 -0.6623
  254MOL0     H34236   0.786   3.033   7.022 -2.5952  3.6305 -1.0854
  254MOL0     H34237   0.844   2.909   7.240  0.8044  0.1700 -0.0612
  254MOL0     H34238   0.879   3.055   7.311  1.8974 -1.6736 -0.9607
  254MOL0     H34239   0.619   2.970   7.184 -0.9208 -1.5568  0.3518
  254MOL0     H34240   0.627   3.136   7.242 -0.5008 -1.1248  0.3726
  254MOL0     H34241   0.552   2.783   7.392 -1.5940 -0.5046  2.3739
  254MOL0     H34242   0.592   2.780   7.775 -0.9221 -2.2598  0.8161
  254MOL0     H34243   0.453   2.748   7.687  0.1516  0.8855  0.3408
  254MOL0     H34244   0.664   2.625   7.517 -0.0046 -1.0742 -0.1495
  254MOL0     H34245   0.555   2.553   7.629  0.0736  0.7653  1.5686
  254MOL0     H34246   0.789   2.503   7.709  1.9604  0.3540 -2.2601
  254MOL0     H34247   0.723   2.623   7.817  0.3287  0.5145 -0.2703
  254MOL0     H34248   0.944   2.681   7.738 -1.9752 -2.3937  0.8515
  254MOL0     H34249   0.832   2.806   7.681  2.0940  0.4758  2.5342
  254MOL0     H34250   0.942   2.936   7.558  1.9295  0.9879  0.9659
  254MOL0     H34251   1.031   3.146   7.506 -0.9528 -0.2722 -1.9283
  254MOL0     H34252   1.194   3.116   7.565  0.6184  3.7100 -0.6406
  254MOL0     H34253   1.168   3.168   7.399 -3.2522  1.2790 -1.0779
  254MOL0     H34254   1.448   3.054   7.077  1.2914  1.2981 -0.8658
  254MOL0     H34255   1.649   3.147   6.983 -2.7404 -0.7826 -0.7174
  254MOL0     H34256   2.037   2.961   7.107  2.4421  0.6727 -0.3074
  254MOL0     H34257   2.008   2.913   6.940  1.2877 -0.0400 -0.5956
  254MOL0     H34258   2.101   3.205   7.008 -1.7752  0.6961 -0.7441
  254MOL0     H34259   2.212   3.069   7.012  0.6947  1.9277 -0.9488
  254MOL0     H34260   2.187   3.203   6.780 -0.6859  0.5132  0.3445
  254MOL0     H34261   2.037   3.105   6.774  0.4807  2.4643 -0.5242
  254MOL0     H34262   2.314   2.979   6.766  0.0590  1.4579  0.3477
  254MOL0     H34263   2.157   2.885   6.754  0.2745 -0.5488 -1.3756
  254MOL0     H34264   2.301   2.941   6.555  1.0311  0.1434  1.0311
  254MOL0     H34265   2.264   3.107   6.575  1.3644  0.5102  4.5549
  254MOL0     H34266   2.038   2.891   6.558  1.8657 -0.8526 -0.9005
  254MOL0     H34267   2.042   3.064   6.492 -0.3219 -0.1390 -1.9041
  254MOL0     H34268   2.172   2.816   6.402 -4.1358  0.7505  2.1984
  254MOL0     H34269   2.185   2.980   6.321 -0.7168 -0.4328 -2.7183
  254MOL0     H34270   2.033   2.852   6.193  1.9284  0.4318  1.0900
  254MOL0     H34271   1.928   2.957   6.289 -1.8351 -0.9082 -0.8220
  254MOL0     H34272   1.891   2.867   7.206  1.2462  2.8077 -2.0129
  254MOL0     H34273   1.689   2.765   7.297  2.2046  0.7634  0.9687
  254MOL0     H34274   1.262   2.668   7.294 -0.0292 -3.7038  3.0318
  254MOL0     H34275   1.051   2.579   7.377  0.1906  0.5617 -0.1233
  254MOL0     H34276   1.504   3.162   6.399  0.3199  0.5189 -0.5876
  254MOL0     H34277   1.720   3.221   6.318  1.9093  0.8086  0.0447
  254MOL0     H34278   2.131   3.225   6.340 -2.5355 -0.2261 -1.3477
  254MOL0     H34279   2.327   3.224   6.190  0.9554  0.8871  0.8246
  254MOL0     H34280   2.372   3.608   5.940 -2.8158 -0.8476  2.6254
  254MOL0     H34281   2.479   3.604   6.086  2.0512 -1.0198  0.0531
  254MOL0     H34282   2.633   3.636   5.897 -2.3483  2.0040 -0.5127
  254MOL0     H34283   2.556   3.522   5.798  0.2746  1.4054 -0.9161
  254MOL0     H34284   2.747   3.402   5.867  2.0120  1.1261  0.1501
  254MOL0     H34285   2.618   3.346   5.972 -0.8920  0.8819 -2.2254
  254MOL0     H34286   2.697   3.456   6.156  0.0331  2.6183 -0.3839
  254MOL0     H34287   2.796   3.572   6.080 -0.0853  0.4661  1.5406
  254MOL0     H34288   3.063   3.263   6.130 -0.2578  0.3497  1.5996
  254MOL0     H34289   2.219   3.621   6.079  1.9497  0.9906  3.7360
  254MOL0     H34290   2.016   3.618   6.211 -1.6186 -1.3056 -0.6015
  255MOL0     O34291   7.368  10.926  10.766  0.1848 -0.3484 -0.0373
  255MOL0     C34292   7.356  10.890  10.653  0.3505 -0.9896 -0.0932
  255MOL0     O34293   7.240  10.838  10.601 -0.9765 -0.2482 -0.4793
  255MOL0     C34294   7.127  10.820  10.675  0.6658  0.2108 -0.9829
  255MOL0     C34295   7.006  10.848  10.605  0.1868  0.4391 -0.5878
  255MOL0     C34296   6.886  10.838  10.675 -0.3618  0.0314  0.3386
  255MOL0     C34297   6.878  10.792  10.805 -0.9279  1.0338  0.1363
  255MOL0     O34298   6.765  10.794  10.882  0.1557  0.4732 -0.7903
  255MOL0     C34299   6.644  10.853  10.838 -0.1876  0.2578 -0.5090
  255MOL0     C34300   6.545  10.818  10.944 -0.0185 -0.5304  0.4276
  255MOL0     C34301   6.396  10.838  10.908 -0.0060  1.0645  0.3846
  255MOL0     C34302   6.376  10.970  10.838 -0.8779  0.0371 -0.2069
  255MOL0     C34303   6.224  11.013  10.835 -0.0754  0.4001 -0.6511
  255MOL0     C34304   6.142  10.965  10.719 -0.2816 -0.0420  0.0843
  255MOL0     C34305   5.991  10.984  10.733  1.2019  0.3663 -0.6998
  255MOL0     C34306   5.937  11.134  10.729 -0.3892  0.2243 -0.3141
  255MOL0     N34307   5.795  11.146  10.718  0.4170  0.0343 -0.1361
  255MOL0     C34308   5.716  11.152  10.598 -0.0764  0.1241 -0.5187
  255MOL0     C34309   5.588  11.169  10.639 -0.3449 -0.3035 -0.5917
  255MOL0     C34310   5.471  11.208  10.548 -0.5178 -0.0110 -0.2735
  255MOL0     C34311   5.345  11.120  10.588  0.3237  0.3282  0.0469
  255MOL0     C34312   5.209  11.166  10.522 -0.3131 -1.1980  0.2459
  255MOL0     C34313   5.102  11.075  10.588 -1.1442 -0.1031 -0.3056
  255MOL0     O34314   5.061  11.129  10.712  0.4949 -0.4224 -0.3487
  255MOL0     C34315   4.957  11.225  10.713 -0.0667  0.6288 -1.1086
  255MOL0     C34316   4.981  11.339  10.791  0.6021 -0.2662 -0.5640
  255MOL0     C34317   4.884  11.439  10.797  0.5229 -0.9906 -0.9807
  255MOL0     C34318   4.915  11.561  10.889  0.2091  0.1323 -0.3770
  255MOL0     C34319   4.749  11.421  10.752 -0.3711  0.2013 -0.4320
  255MOL0     C34320   4.639  11.516  10.767  0.2895 -0.2214 -0.8416
  255MOL0     O34321   4.515  11.461  10.773 -0.2951 -0.8103 -0.4021
  255MOL0     C34322   4.406  11.541  10.767  0.3286 -0.1849 -0.7241
  255MOL0     C34323   4.382  11.654  10.681 -0.7738 -0.0404 -0.4059
  255MOL0     C34324   4.268  11.739  10.705  0.1572 -0.4093  0.8323
  255MOL0     C34325   4.165  11.707  10.788 -1.4105  0.4305  0.0979
  255MOL0     O34326   4.050  11.772  10.770 -0.1558  0.1667 -0.1882
  255MOL0     C34327   3.929  11.701  10.793 -0.8994 -0.0027 -0.0246
  255MOL0     C34328   3.817  11.797  10.731 -1.1418 -0.8978 -0.0833
  255MOL0     C34329   3.810  11.926  10.813 -0.2165 -1.2157  0.6522
  255MOL0     C34330   3.893  12.036  10.759 -0.2268 -0.3105  0.0544
  255MOL0     C34331   3.861  12.172  10.829 -0.3499  0.4201  0.2293
  255MOL0     C34332   3.712  12.212  10.806  0.2501 -1.0961 -0.5997
  255MOL0     C34333   3.663  12.338  10.879  0.1935 -0.4556  0.0680
  255MOL0     C34334   3.617  12.306  11.017 -0.2063  0.3251  0.3431
  255MOL0    Cl34335   3.568  12.439  11.126  0.1374 -0.0024 -0.5810
  255MOL0     C34336   4.195  11.594  10.872  0.3523 -0.3228 -0.3158
  255MOL0     C34337   4.308  11.510  10.861  0.0196 -0.1982 -0.4953
  255MOL0     O34338   4.667  11.634  10.763  0.1615 -0.5495 -0.4586
  255MOL0     C34339   4.724  11.302  10.683  0.4764  0.0559  0.3559
  255MOL0     C34340   4.827  11.209  10.653  0.0003  0.4170  1.0880
  255MOL0     N34341   5.592  11.169  10.785  0.1770  0.0541  0.0541
  255MOL0     N34342   5.717  11.145  10.828  0.9392 -0.4406  0.9123
  255MOL0     C34343   7.001  10.768  10.877 -0.4787  0.1836  0.4605
  255MOL0     C34344   7.126  10.778  10.809 -0.2315  0.1888  0.6141
  255MOL0     C34345   7.479  10.887  10.567 -0.5543 -0.1174 -0.3221
  255MOL0     C34346   7.472  10.861  10.425  1.1299 -0.0434 -0.4689
  255MOL0     C34347   7.578  10.866  10.338 -0.0241 -0.0787 -0.5135
  255MOL0     C34348   7.711  10.884  10.393 -0.5008 -0.7424  0.3931
  255MOL0     O34349   7.835  10.858  10.329  1.1305  0.4112 -0.4471
  255MOL0     C34350   7.826  10.802  10.199  0.3820  0.5213 -0.4907
  255MOL0     C34351   7.836  10.643  10.201 -0.1469 -0.2337 -0.0469
  255MOL0     C34352   7.961  10.583  10.271 -0.0667 -0.3887  0.0486
  255MOL0     C34353   8.099  10.659  10.263 -0.7989  0.0200  0.7026
  255MOL0     C34354   8.146  10.687  10.131  0.1665 -0.2784 -0.0593
  255MOL0     C34355   8.183  10.703  10.012 -0.5334 -0.5325 -0.2623
  255MOL0     C34356   7.727  10.922  10.530  0.7696 -0.0047 -0.3483
  255MOL0     C34357   7.606  10.935  10.614 -0.2896 -0.0765  0.3414
  255MOL0     H34358   7.020  10.884  10.504  2.5284  0.7902 -0.1752
  255MOL0     H34359   6.792  10.875  10.636  0.3901  2.2017  0.4682
  255MOL0     H34360   6.657  10.959  10.818  0.6298  0.4740  0.9530
  255MOL0     H34361   6.612  10.794  10.752 -0.9581  0.5081 -0.4002
  255MOL0     H34362   6.563  10.715  10.974  3.5696 -0.3091 -0.4848
  255MOL0     H34363   6.573  10.868  11.037 -1.0996 -0.3425  0.6676
  255MOL0     H34364   6.356  10.759  10.843 -0.5784 -0.0890  2.0549
  255MOL0     H34365   6.332  10.839  10.997 -2.0255 -2.8565 -0.7554
  255MOL0     H34366   6.423  11.045  10.902 -0.5829  1.5300 -2.0721
  255MOL0     H34367   6.421  10.972  10.738 -1.4608  0.8317 -0.4561
  255MOL0     H34368   6.178  10.981  10.929  3.6736 -2.1141  0.5763
  255MOL0     H34369   6.224  11.122  10.831  1.2524  0.3913 -2.1437
  255MOL0     H34370   6.193  11.001  10.629  0.5893 -0.0789  0.5545
  255MOL0     H34371   6.163  10.858  10.716  2.2246  0.4213 -1.3097
  255MOL0     H34372   5.940  10.936  10.650  0.0349 -0.9412  0.7155
  255MOL0     H34373   5.960  10.932  10.825  2.3362  1.6994  0.4965
  255MOL0     H34374   5.979  11.170  10.635  0.5474 -1.1519 -0.4545
  255MOL0     H34375   5.967  11.191  10.818 -1.5064 -2.3608  1.8610
  255MOL0     H34376   5.750  11.153  10.495  2.4990  1.5734  0.2611
  255MOL0     H34377   5.458  11.317  10.554  2.2939  0.3362  1.2087
  255MOL0     H34378   5.491  11.187  10.442  0.4960  0.6748 -0.2387
  255MOL0     H34379   5.328  11.127  10.696  2.5764 -1.0090  0.5706
  255MOL0     H34380   5.365  11.014  10.569  3.1965  0.5762  1.1974
  255MOL0     H34381   5.221  11.153  10.414  2.8819  2.9538 -0.1611
  255MOL0     H34382   5.194  11.271  10.548  4.0647 -0.5864  1.1508
  255MOL0     H34383   5.138  10.972  10.595 -2.4634 -0.6188 -0.7141
  255MOL0     H34384   5.016  11.066  10.520 -1.5415 -0.9746  0.2825
  255MOL0     H34385   5.066  11.339  10.858 -1.0468  1.5170  1.6696
  255MOL0     H34386   4.995  11.538  10.960  1.4393 -0.2589 -1.8270
  255MOL0     H34387   4.938  11.652  10.833  0.3864  0.2099 -0.1779
  255MOL0     H34388   4.835  11.579  10.961  1.3069 -0.3265  1.0084
  255MOL0     H34389   4.457  11.682  10.607  0.0538  1.8730  1.0704
  255MOL0     H34390   4.252  11.817  10.631  2.0371  2.0521  2.8607
  255MOL0     H34391   3.923  11.607  10.737  1.9558 -1.4421  1.8616
  255MOL0     H34392   3.905  11.680  10.898 -1.9392 -2.2411 -0.6367
  255MOL0     H34393   3.836  11.809  10.624  3.8677  1.6632  0.8042
  255MOL0     H34394   3.725  11.743  10.755 -0.9269 -0.4274  1.9959
  255MOL0     H34395   3.829  11.899  10.917  1.1119 -3.1658 -0.0350
  255MOL0     H34396   3.704  11.952  10.809 -0.4240 -2.1451 -1.0780
  255MOL0     H34397   4.001  12.022  10.753 -0.0517  0.1092  1.7589
  255MOL0     H34398   3.871  12.047  10.652 -1.6350 -1.2481  0.2279
  255MOL0     H34399   3.924  12.251  10.786  1.9791 -0.1403  2.3892
  255MOL0     H34400   3.893  12.164  10.933  0.8653  0.2458 -0.1362
  255MOL0     H34401   3.699  12.216  10.698  2.3559 -1.3802 -0.9066
  255MOL0     H34402   3.643  12.135  10.842  0.0990 -0.9467 -0.5658
  255MOL0     H34403   3.583  12.390  10.825 -0.7456 -1.8125  0.0900
  255MOL0     H34404   3.747  12.407  10.885 -2.5117  3.0714  0.4750
  255MOL0     H34405   3.689  12.242  11.068 -1.4270 -1.0477  0.4212
  255MOL0     H34406   3.526  12.245  11.017  0.9009 -1.4314 -1.1036
  255MOL0     H34407   4.106  11.555  10.920  0.7337 -4.3514 -2.4245
  255MOL0     H34408   4.319  11.422  10.923 -0.8928 -1.3020 -1.8272
  255MOL0     H34409   4.622  11.306  10.648  0.8049  3.9918 -0.5873
  255MOL0     H34410   4.806  11.114  10.604  1.7553 -0.2429  1.5152
  255MOL0     H34411   7.009  10.724  10.976 -3.4473  1.7654  1.5470
  255MOL0     H34412   7.213  10.753  10.868 -0.3684 -2.6028 -0.2239
  255MOL0     H34413   7.374  10.839  10.386  1.3864 -0.8054 -0.6990
  255MOL0     H34414   7.553  10.849  10.234 -2.7429 -1.4690  0.2756
  255MOL0     H34415   7.741  10.837  10.140 -1.1360 -1.8373  0.1643
  255MOL0     H34416   7.918  10.831  10.147 -0.2891  1.0439 -1.4236
  255MOL0     H34417   7.824  10.612  10.097  1.3748 -1.4470  0.0951
  255MOL0     H34418   7.759  10.603  10.267  0.6217  1.2414  1.8297
  255MOL0     H34419   7.966  10.480  10.235 -2.9249  0.1218 -2.1966
  255MOL0     H34420   7.944  10.572  10.378 -0.1371 -3.0468 -0.1584
  255MOL0     H34421   8.177  10.608  10.319 -0.6066 -0.2753  0.1765
  255MOL0     H34422   8.086  10.760  10.302  0.4406  0.2042  0.6702
  255MOL0     H34423   8.213  10.697   9.910  1.8793  0.5849  0.3060
  255MOL0     H34424   7.828  10.934  10.568  0.6863 -1.2807  0.3562
  255MOL0     H34425   7.611  10.980  10.712 -1.6875 -0.0477  0.4147
  256MOL0     O34426   9.281   0.503  10.061 -0.5996 -0.3422  0.0934
  256MOL0     C34427   9.365   0.431  10.118  0.0469  0.3746 -1.6269
  256MOL0     O34428   9.332   0.313  10.190  0.0820 -0.3479  0.0108
  256MOL0     C34429   9.212   0.258  10.163 -0.2658 -0.0506  0.6369
  256MOL0     C34430   9.173   0.219  10.031  0.2502  0.3739 -0.2957
  256MOL0     C34431   9.045   0.160  10.005 -0.2427 -0.1351 -0.6170
  256MOL0     C34432   8.965   0.118  10.112  1.0499  1.1742  0.4221
  256MOL0     O34433   8.845   0.047  10.104  1.1177 -0.7173 -0.0454
  256MOL0     C34434   8.799   0.005   9.979 -0.0116 -0.1140  1.0013
  256MOL0     C34435   8.649  -0.036   9.972  0.7386 -0.6503 -0.2015
  256MOL0     C34436   8.553   0.078  10.016  0.1831  0.3145 -0.2385
  256MOL0     C34437   8.494   0.029  10.149 -0.6963 -0.5339  0.1565
  256MOL0     C34438   8.386   0.120  10.195 -0.1561  1.7967  0.1368
  256MOL0     C34439   8.373   0.107  10.346  0.6335  0.3374 -0.6701
  256MOL0     C34440   8.268   0.198  10.412 -1.0140  0.4982 -0.2185
  256MOL0     C34441   8.134   0.190  10.349  0.6244 -0.2453  0.1026
  256MOL0     N34442   8.029   0.260  10.417  0.3247 -0.0207  0.3288
  256MOL0     C34443   7.978   0.227  10.542 -0.3381  0.4829  0.3590
  256MOL0     C34444   7.865   0.303  10.566  0.9458  0.0218  0.5922
  256MOL0     C34445   7.788   0.301  10.698 -0.2908  0.8841 -0.2858
  256MOL0     C34446   7.800   0.432  10.776  0.9318  0.1084  0.6474
  256MOL0     C34447   7.947   0.457  10.818 -0.2711  0.3626 -0.2840
  256MOL0     C34448   7.967   0.381  10.957  0.1022  0.2548  0.3579
  256MOL0     O34449   7.992   0.238  10.945 -0.4188 -0.4916  0.3911
  256MOL0     C34450   8.114   0.189  10.916 -1.0807 -1.3118  0.0788
  256MOL0     C34451   8.230   0.274  10.898 -0.2593  0.7662 -0.5157
  256MOL0     C34452   8.359   0.219  10.893  0.7331  0.5629  0.2279
  256MOL0     C34453   8.480   0.315  10.880 -0.2410  0.2494 -0.3423
  256MOL0     C34454   8.382   0.083  10.897  0.6703 -0.1146  0.0757
  256MOL0     C34455   8.511   0.016  10.884  0.4434 -0.5027  1.2944
  256MOL0     O34456   8.566  -0.058  10.989 -0.4119 -0.1272 -0.7503
  256MOL0     C34457   8.692  -0.117  10.991  0.2689 -0.2004 -0.2202
  256MOL0     C34458   8.705  -0.251  11.002 -0.3253  0.9351  0.3646
  256MOL0     C34459   8.831  -0.313  11.018 -0.8201  0.3584 -0.1613
  256MOL0     C34460   8.945  -0.234  10.990  0.1662  0.1663 -0.5302
  256MOL0     O34461   9.077  -0.267  10.993  0.1489  0.1765 -0.4594
  256MOL0     C34462   9.113  -0.399  11.018  0.2396 -0.5480  0.2216
  256MOL0     C34463   9.251  -0.408  11.068  0.0323  0.4087  0.2396
  256MOL0     C34464   9.300  -0.554  11.068  0.0582 -0.1916 -0.8557
  256MOL0     C34465   9.450  -0.545  11.125  0.2616  0.0132  1.0000
  256MOL0     C34466   9.507  -0.687  11.091 -0.2585 -0.5781  0.7943
  256MOL0     C34467   9.620  -0.731  11.189 -0.8706 -0.3520  0.4742
  256MOL0     C34468   9.756  -0.657  11.145  0.3280  0.4990  0.0603
  256MOL0     C34469   9.864  -0.696  11.247  0.0214 -0.4962  0.0873
  256MOL0    Cl34470  10.008  -0.580  11.215  0.0775 -0.2516 -0.9423
  256MOL0     C34471   8.930  -0.101  10.971 -1.3055  0.4172  0.5448
  256MOL0     C34472   8.807  -0.033  10.979 -0.0865  1.0423 -0.2285
  256MOL0     O34473   8.562   0.023  10.773 -0.3759 -0.0175 -0.3402
  256MOL0     C34474   8.271   0.003  10.916  0.4003  0.1763  0.3263
  256MOL0     C34475   8.143   0.055  10.931 -0.2113 -0.2278 -0.3554
  256MOL0     N34476   7.862   0.398  10.462  0.2302  0.2959  0.1784
  256MOL0     N34477   7.952   0.361  10.371 -0.2678  0.5042  1.5049
  256MOL0     C34478   9.012   0.144  10.241 -0.0409  0.5646  0.0527
  256MOL0     C34479   9.128   0.217  10.264 -0.0157 -0.4144 -0.3744
  256MOL0     C34480   9.505   0.469  10.119  0.2786 -0.2227  0.5275
  256MOL0     C34481   9.569   0.516  10.000  0.7512  0.0212  0.4816
  256MOL0     C34482   9.700   0.557   9.993 -0.0096  0.6398  0.8008
  256MOL0     C34483   9.786   0.506  10.087  0.8065 -0.0578 -0.3346
  256MOL0     O34484   9.916   0.520  10.055  0.1820 -0.6127  0.5092
  256MOL0     C34485  10.013   0.545  10.152 -0.2398  0.3109  0.2217
  256MOL0     C34486  10.064   0.415  10.219  0.0689  0.8770 -0.4174
  256MOL0     C34487  10.059   0.289  10.124 -0.6654  0.0980 -0.0069
  256MOL0     C34488  10.167   0.294  10.008  0.6451  0.1298  0.3778
  256MOL0     C34489  10.306   0.261  10.050 -0.1192  0.5501 -0.7276
  256MOL0     C34490  10.415   0.218  10.088  0.6191  0.0435  0.8706
  256MOL0     C34491   9.736   0.448  10.207 -1.0514 -0.9395  0.1937
  256MOL0     C34492   9.592   0.435  10.225 -0.1498 -0.8897  0.1972
  256MOL0     H34493   9.232   0.239   9.943  0.5453  0.1932 -0.1412
  256MOL0     H34494   9.005   0.140   9.906 -1.2596 -3.5090  0.3607
  256MOL0     H34495   8.805   0.088   9.908  0.0747 -0.8694  0.1120
  256MOL0     H34496   8.861  -0.082   9.954  1.1004  0.8416  0.3443
  256MOL0     H34497   8.613  -0.063   9.872  0.4776  2.2764 -0.9988
  256MOL0     H34498   8.633  -0.121  10.038 -3.3546  0.1109  0.0758
  256MOL0     H34499   8.602   0.175  10.028 -2.4957  1.7862 -0.2700
  256MOL0     H34500   8.480   0.099   9.938  0.2371  1.0357 -0.0996
  256MOL0     H34501   8.446  -0.067  10.132  0.9453 -1.3131 -0.2541
  256MOL0     H34502   8.575   0.031  10.223 -0.5632  1.8796  0.0294
  256MOL0     H34503   8.417   0.221  10.167  1.0606  1.0116 -1.5611
  256MOL0     H34504   8.291   0.091  10.149  0.6141 -3.0913  1.0456
  256MOL0     H34505   8.331   0.012  10.381  3.7538 -0.1943  2.1141
  256MOL0     H34506   8.464   0.135  10.400 -0.7494  0.5743  1.6976
  256MOL0     H34507   8.256   0.166  10.517 -1.0827  1.0494 -0.0573
  256MOL0     H34508   8.299   0.302  10.411 -1.9303  0.7717 -0.8307
  256MOL0     H34509   8.105   0.087  10.329 -1.0137  0.5159 -1.7956
  256MOL0     H34510   8.146   0.239  10.251 -0.9798  2.1122  0.9809
  256MOL0     H34511   8.018   0.159  10.617 -0.8556  0.9021  1.0281
  256MOL0     H34512   7.690   0.259  10.675  1.0826 -3.1571  0.3859
  256MOL0     H34513   7.829   0.214  10.751  1.2718  0.9686 -1.2876
  256MOL0     H34514   7.721   0.446  10.851 -2.5034 -3.4820 -1.8862
  256MOL0     H34515   7.779   0.505  10.697 -0.2528 -1.5389 -0.6432
  256MOL0     H34516   7.958   0.564  10.836 -2.5791  0.9758 -2.0275
  256MOL0     H34517   8.025   0.426  10.747 -0.5067  2.2391 -1.4352
  256MOL0     H34518   7.868   0.397  11.001 -1.3105  0.0269 -2.4908
  256MOL0     H34519   8.041   0.428  11.022  0.3211 -0.5855  0.7264
  256MOL0     H34520   8.224   0.383  10.902  0.7718  0.7939  0.7968
  256MOL0     H34521   8.564   0.262  10.925 -1.7444 -3.3933 -1.4543
  256MOL0     H34522   8.508   0.331  10.775  2.2864 -0.4872  0.1539
  256MOL0     H34523   8.458   0.407  10.935  0.4558 -0.6062  1.4508
  256MOL0     H34524   8.606  -0.294  10.992  0.8948 -1.7468 -1.2343
  256MOL0     H34525   8.849  -0.418  11.041  2.7282  0.6874 -0.9574
  256MOL0     H34526   9.042  -0.435  11.094 -1.7643  1.0995 -0.7524
  256MOL0     H34527   9.107  -0.455  10.924  2.4490 -0.7865  0.1695
  256MOL0     H34528   9.315  -0.341  11.009  1.0730 -1.1383 -0.4809
  256MOL0     H34529   9.242  -0.376  11.172  0.4868  1.0183  0.0965
  256MOL0     H34530   9.312  -0.593  10.966  2.4726  0.2045 -0.7977
  256MOL0     H34531   9.231  -0.615  11.126  2.8990 -1.1203  1.8484
  256MOL0     H34532   9.505  -0.466  11.072 -0.9670 -0.0521 -0.4192
  256MOL0     H34533   9.466  -0.517  11.230  0.5198  1.5158  0.5940
  256MOL0     H34534   9.540  -0.682  10.987 -0.8323  1.3641  0.6711
  256MOL0     H34535   9.434  -0.768  11.101  1.6717 -2.8358 -1.9688
  256MOL0     H34536   9.595  -0.704  11.292 -3.1699  0.3547 -0.2013
  256MOL0     H34537   9.640  -0.839  11.180 -1.0898 -0.4643  1.2472
  256MOL0     H34538   9.747  -0.549  11.155 -2.1972  0.1270  4.9094
  256MOL0     H34539   9.795  -0.674  11.044  2.1143  1.8942  0.4730
  256MOL0     H34540   9.898  -0.800  11.243  2.8297  0.3532 -0.3922
  256MOL0     H34541   9.828  -0.672  11.347  0.5667  0.6186  0.0420
  256MOL0     H34542   9.019  -0.049  10.936 -0.9771  1.0041  2.1678
  256MOL0     H34543   8.812   0.068  10.939  0.8686  0.9788 -0.2855
  256MOL0     H34544   8.276  -0.105  10.919 -0.3583 -0.0422 -2.8366
  256MOL0     H34545   8.060  -0.005  10.966  0.4572  0.0708  1.8999
  256MOL0     H34546   8.955   0.096  10.321 -0.0796 -0.0009 -0.3049
  256MOL0     H34547   9.167   0.239  10.363  2.0896 -1.8475 -0.8240
  256MOL0     H34548   9.513   0.532   9.908  0.3656 -1.2347  0.4774
  256MOL0     H34549   9.740   0.598   9.901  2.3673 -2.6674  0.1778
  256MOL0     H34550  10.101   0.589  10.106 -0.8348  2.1008  0.7252
  256MOL0     H34551   9.993   0.622  10.226 -4.4703  0.1857 -0.5363
  256MOL0     H34552  10.014   0.386  10.312  1.0904 -1.0221 -0.4083
  256MOL0     H34553  10.168   0.440  10.244 -0.6255  3.6760  0.0258
  256MOL0     H34554   9.955   0.272  10.095 -0.2599 -1.1288 -0.8212
  256MOL0     H34555  10.083   0.198  10.178  0.1570 -0.5676 -1.4210
  256MOL0     H34556  10.165   0.394   9.966 -0.2735  0.4752  1.1966
  256MOL0     H34557  10.139   0.221   9.931 -5.4374  1.8789  0.4043
  256MOL0     H34558  10.509   0.189  10.129  0.5758 -0.3837  0.6764
  256MOL0     H34559   9.797   0.409  10.287  2.1461  0.6589 -1.3025
  256MOL0     H34560   9.548   0.387  10.311 -2.1255 -1.0468 -0.8326
  257MOL0     O34561   0.563   7.121   5.569  0.0794 -0.5857  0.4544
  257MOL0     C34562   0.454   7.067   5.587  0.4078 -0.1781 -0.2766
  257MOL0     O34563   0.415   6.991   5.691  1.0982  0.7775  0.0756
  257MOL0     C34564   0.506   6.956   5.780  0.7391 -0.8749  0.2699
  257MOL0     C34565   0.556   7.057   5.864  0.0846 -0.3898  0.5436
  257MOL0     C34566   0.649   7.024   5.963  0.0213  0.3758 -0.0476
  257MOL0     C34567   0.691   6.891   5.984 -0.1071 -0.3418 -0.8703
  257MOL0     O34568   0.775   6.846   6.088  0.1251 -0.0265 -0.0457
  257MOL0     C34569   0.832   6.951   6.174  0.3510  0.1116  0.3434
  257MOL0     C34570   0.938   6.881   6.275  0.4595 -0.3934  0.2429
  257MOL0     C34571   0.906   6.897   6.424  0.1595 -0.1633 -0.1598
  257MOL0     C34572   0.766   6.847   6.466 -0.0514 -0.1706  0.4841
  257MOL0     C34573   0.735   6.882   6.612  1.1444 -0.6420 -0.3482
  257MOL0     C34574   0.687   7.030   6.623 -0.3371 -0.2539 -0.2494
  257MOL0     C34575   0.524   7.048   6.584 -0.6287  0.1888  0.4017
  257MOL0     C34576   0.492   7.195   6.584 -0.4685 -0.0041 -0.0039
  257MOL0     N34577   0.467   7.247   6.718 -0.0596  0.5067  0.4796
  257MOL0     C34578   0.369   7.336   6.749  0.9710  0.3140 -0.1737
  257MOL0     C34579   0.397   7.386   6.877 -0.6106 -0.3025  0.3708
  257MOL0     C34580   0.301   7.477   6.954  0.1894 -0.0880 -0.8622
  257MOL0     C34581   0.316   7.627   6.920  0.1618  1.3647 -0.0743
  257MOL0     C34582   0.270   7.733   7.018 -0.4021 -0.3749 -0.0016
  257MOL0     C34583   0.119   7.743   7.035  0.0067 -0.4775  0.3767
  257MOL0     O34584   0.069   7.875   7.081 -0.5416  0.3643 -0.1338
  257MOL0     C34585  -0.072   7.884   7.084 -0.9752 -0.2507  0.3337
  257MOL0     C34586  -0.151   7.771   7.104  0.0302  0.8851  0.3112
  257MOL0     C34587  -0.296   7.780   7.106 -0.9128 -0.2071  0.7454
  257MOL0     C34588  -0.369   7.649   7.113  0.4785  1.3803 -0.2052
  257MOL0     C34589  -0.358   7.907   7.104  0.0014  0.1897  0.5003
  257MOL0     C34590  -0.496   7.927   7.126 -0.4454  0.2004  0.7610
  257MOL0     O34591  -0.539   8.056   7.129 -0.3699  0.1715  0.0268
  257MOL0     C34592  -0.669   8.084   7.150  0.8964  1.0841  0.3007
  257MOL0     C34593  -0.741   8.157   7.061  0.7368  0.5538 -0.2916
  257MOL0     C34594  -0.882   8.170   7.070 -0.4221 -0.3027 -0.4830
  257MOL0     C34595  -0.952   8.118   7.177  0.3760 -0.4782 -0.1081
  257MOL0     O34596  -1.090   8.152   7.196 -0.0462 -0.1587  1.1927
  257MOL0     C34597  -1.172   8.051   7.249 -0.2497  1.2768 -0.4488
  257MOL0     C34598  -1.301   8.018   7.169  0.9447  0.4140  0.3433
  257MOL0     C34599  -1.269   7.986   7.021  0.5578  0.1246 -0.3443
  257MOL0     C34600  -1.376   7.914   6.933 -0.1174 -1.2523  0.2810
  257MOL0     C34601  -1.499   8.001   6.927  0.0032 -0.4200 -0.3454
  257MOL0     C34602  -1.603   7.920   6.860  0.8935  0.6349  0.1980
  257MOL0     C34603  -1.741   7.988   6.867  0.3253 -0.6453 -0.3248
  257MOL0     C34604  -1.876   7.913   6.830  0.0650 -0.2202 -0.9402
  257MOL0    Cl34605  -1.891   7.862   6.656 -0.0548  0.1174  0.0743
  257MOL0     C34606  -0.873   8.030   7.270  0.5623  0.3609  0.3591
  257MOL0     C34607  -0.736   8.021   7.260 -0.4874  0.1931 -0.4065
  257MOL0     O34608  -0.570   7.826   7.126  0.4413 -0.6293  0.3613
  257MOL0     C34609  -0.275   8.024   7.100 -0.2164  0.9476  0.8388
  257MOL0     C34610  -0.138   8.008   7.082  0.2767 -0.2236  0.4117
  257MOL0     N34611   0.528   7.347   6.908  0.1495  0.0519  0.1995
  257MOL0     N34612   0.569   7.261   6.814  0.5502 -0.6457 -0.5103
  257MOL0     C34613   0.651   6.796   5.887  0.3228 -0.8894  0.3857
  257MOL0     C34614   0.548   6.825   5.801  0.3125  0.0974  0.3666
  257MOL0     C34615   0.358   7.086   5.477 -0.3103  0.7179 -0.1516
  257MOL0     C34616   0.344   7.206   5.397  0.3554  0.1037  0.8607
  257MOL0     C34617   0.240   7.204   5.303  0.2826 -0.0563 -0.1256
  257MOL0     C34618   0.140   7.109   5.307 -0.5143  0.0279 -1.0463
  257MOL0     O34619   0.031   7.133   5.234  0.1855  0.3437  0.0527
  257MOL0     C34620  -0.009   7.029   5.147  0.1268  0.2080  0.8343
  257MOL0     C34621  -0.155   7.005   5.182 -0.0661  0.6503 -0.2658
  257MOL0     C34622  -0.221   6.901   5.091 -0.4859  0.3965  0.0141
  257MOL0     C34623  -0.363   6.882   5.135 -0.4789  0.1975 -0.0932
  257MOL0     C34624  -0.446   7.003   5.103  0.3512 -0.1162  0.2101
  257MOL0     C34625  -0.504   7.109   5.086  0.1974  0.3783  0.3507
  257MOL0     C34626   0.155   6.999   5.385  0.2583  0.0435  0.9887
  257MOL0     C34627   0.263   6.986   5.461 -0.7432  0.2424 -0.3275
  257MOL0     H34628   0.520   7.159   5.854 -2.6689 -1.4441 -2.3017
  257MOL0     H34629   0.684   7.101   6.030 -4.0631  1.9642  0.5488
  257MOL0     H34630   0.878   7.027   6.110  0.7048  0.3712  0.9043
  257MOL0     H34631   0.754   7.012   6.221 -2.0099 -1.8851 -0.7156
  257MOL0     H34632   0.936   6.774   6.257  0.1657 -0.3440 -0.0215
  257MOL0     H34633   1.036   6.930   6.268 -0.5058  2.7172  4.2861
  257MOL0     H34634   0.984   6.854   6.487  1.3818  5.1464  2.5313
  257MOL0     H34635   0.915   7.006   6.433 -2.5203  0.3711 -2.4837
  257MOL0     H34636   0.693   6.897   6.402  0.8003  0.0117 -0.3700
  257MOL0     H34637   0.768   6.741   6.441 -2.1001 -0.1748  0.1336
  257MOL0     H34638   0.661   6.817   6.658 -0.5738  1.9255  0.7086
  257MOL0     H34639   0.829   6.873   6.666  1.2357  4.0426  0.6726
  257MOL0     H34640   0.700   7.051   6.730 -1.4976 -1.7815  0.2337
  257MOL0     H34641   0.758   7.100   6.578 -0.5183  0.1858  0.1327
  257MOL0     H34642   0.522   7.019   6.478 -1.5841 -0.5284  0.6056
  257MOL0     H34643   0.453   6.993   6.645 -0.7505 -1.1078 -0.8423
  257MOL0     H34644   0.406   7.214   6.520  0.5452  0.4330 -1.2737
  257MOL0     H34645   0.577   7.252   6.544 -1.1252  1.1280  0.1628
  257MOL0     H34646   0.289   7.360   6.680  1.1005  0.0241 -0.4322
  257MOL0     H34647   0.196   7.453   6.936 -0.5319 -2.0869  4.2337
  257MOL0     H34648   0.321   7.466   7.061  0.0246  5.2642  0.0181
  257MOL0     H34649   0.269   7.631   6.821  1.6463 -0.1495 -0.8993
  257MOL0     H34650   0.422   7.648   6.903  0.3209  0.1544 -0.6942
  257MOL0     H34651   0.310   7.830   6.987  3.9735 -2.5726 -2.0270
  257MOL0     H34652   0.323   7.717   7.113 -0.7220  0.6546  0.3611
  257MOL0     H34653   0.100   7.652   7.092  1.3411 -0.7519  0.4109
  257MOL0     H34654   0.082   7.725   6.934  1.2638  0.0909 -0.2122
  257MOL0     H34655  -0.106   7.672   7.101 -3.3355 -0.8016  0.1352
  257MOL0     H34656  -0.434   7.645   7.202 -0.2383 -1.4026 -0.7579
  257MOL0     H34657  -0.439   7.639   7.030  0.9012  0.4264 -0.4675
  257MOL0     H34658  -0.298   7.566   7.105  1.0973  2.0894 -2.7928
  257MOL0     H34659  -0.684   8.211   6.985  0.0450 -0.4922 -1.5977
  257MOL0     H34660  -0.935   8.238   7.004 -3.6732 -2.5910 -0.4564
  257MOL0     H34661  -1.113   7.960   7.265  0.0309  1.7961  1.8488
  257MOL0     H34662  -1.217   8.084   7.343 -2.2663  2.2236 -1.6557
  257MOL0     H34663  -1.358   7.933   7.207 -0.2445  0.2416 -1.6746
  257MOL0     H34664  -1.363   8.107   7.183 -0.4010 -0.6519  1.4707
  257MOL0     H34665  -1.182   7.920   7.016  1.4347  1.3363 -1.9486
  257MOL0     H34666  -1.239   8.076   6.967  0.6079 -1.4523 -3.1337
  257MOL0     H34667  -1.333   7.895   6.834  0.8197 -0.4677  0.5231
  257MOL0     H34668  -1.391   7.811   6.967  0.6415 -1.5472 -0.2576
  257MOL0     H34669  -1.477   8.096   6.878  1.5053 -1.4326 -1.7473
  257MOL0     H34670  -1.521   8.022   7.032  0.6691 -0.0598 -0.2721
  257MOL0     H34671  -1.579   7.893   6.757 -0.9979  0.6337 -0.2829
  257MOL0     H34672  -1.614   7.835   6.927  0.1615  0.6473  0.0998
  257MOL0     H34673  -1.742   8.079   6.806  0.1910 -0.5677 -0.2086
  257MOL0     H34674  -1.753   8.018   6.971  0.4826  0.7018 -0.6755
  257MOL0     H34675  -1.960   7.980   6.850 -0.1704 -1.2142  1.8369
  257MOL0     H34676  -1.876   7.824   6.894  3.4479  0.1186 -0.2871
  257MOL0     H34677  -0.930   7.985   7.350 -0.5859 -2.5978 -1.9648
  257MOL0     H34678  -0.677   7.960   7.328  0.8395 -0.6827 -2.2578
  257MOL0     H34679  -0.328   8.116   7.119  0.3093  1.1263  1.5214
  257MOL0     H34680  -0.079   8.099   7.085  0.0466 -0.0754  0.4838
  257MOL0     H34681   0.693   6.699   5.912  3.1463  0.1542  0.0746
  257MOL0     H34682   0.503   6.748   5.738  2.1377  0.0613 -0.9722
  257MOL0     H34683   0.415   7.288   5.405  1.6565 -1.0257  1.2726
  257MOL0     H34684   0.228   7.284   5.230 -3.0668 -0.8343 -0.5778
  257MOL0     H34685   0.001   7.060   5.043  0.0622  0.2726  0.8469
  257MOL0     H34686   0.047   6.937   5.163  0.4543  0.6653  2.5559
  257MOL0     H34687  -0.208   7.101   5.178 -1.0273  0.1072 -1.0948
  257MOL0     H34688  -0.167   6.973   5.286  0.2181 -3.4312 -1.3236
  257MOL0     H34689  -0.156   6.813   5.096 -2.0863 -0.7560  1.5857
  257MOL0     H34690  -0.222   6.951   4.993 -0.3338  1.5837  0.6043
  257MOL0     H34691  -0.386   6.876   5.242  0.0024  0.7894  0.0486
  257MOL0     H34692  -0.408   6.797   5.083 -1.6033  0.8030 -0.1594
  257MOL0     H34693  -0.562   7.199   5.094  1.0127  0.8198  1.5694
  257MOL0     H34694   0.077   6.923   5.386  1.0413 -0.8302 -0.3579
  257MOL0     H34695   0.276   6.904   5.531  1.6829 -0.3974 -1.4525
  258MOL0     O34696   2.616   8.459   8.744  0.7892 -0.3323 -0.5723
  258MOL0     C34697   2.656   8.436   8.862 -0.0196 -0.6625 -0.0517
  258MOL0     O34698   2.703   8.529   8.951  1.0205  0.4934 -0.2442
  258MOL0     C34699   2.688   8.666   8.931 -0.6724  0.8972  0.5314
  258MOL0     C34700   2.747   8.730   8.814  0.8143  0.3707  0.5940
  258MOL0     C34701   2.722   8.869   8.807  0.7569 -0.0423 -0.1482
  258MOL0     C34702   2.643   8.939   8.893 -0.5020  0.4330 -0.8620
  258MOL0     O34703   2.627   9.070   8.866 -0.2702 -0.1969  0.5220
  258MOL0     C34704   2.502   9.122   8.907  1.1167 -0.7054 -0.4212
  258MOL0     C34705   2.432   9.196   8.791 -0.4579  0.2013 -0.4865
  258MOL0     C34706   2.282   9.249   8.815 -0.0759 -1.1620 -0.0387
  258MOL0     C34707   2.179   9.143   8.794 -0.5541 -0.8169  0.5139
  258MOL0     C34708   2.031   9.187   8.795 -0.2539  0.2572 -0.0959
  258MOL0     C34709   1.995   9.235   8.936  0.2032 -0.1783  0.3460
  258MOL0     C34710   1.840   9.258   8.951  0.7805  0.3292  0.3229
  258MOL0     C34711   1.782   9.378   8.863 -0.2164 -0.2057  0.0223
  258MOL0     N34712   1.673   9.455   8.935 -0.3825 -0.4136  0.4485
  258MOL0     C34713   1.539   9.423   8.920 -0.1007 -0.0550 -0.8891
  258MOL0     C34714   1.468   9.533   8.958 -0.1112  0.5873  0.9439
  258MOL0     C34715   1.326   9.567   8.945  0.1629 -0.7425  0.0661
  258MOL0     C34716   1.250   9.505   8.822  1.0163  0.4653 -0.3047
  258MOL0     C34717   1.288   9.574   8.691  1.0084  0.4335  0.0507
  258MOL0     C34718   1.431   9.564   8.639 -0.4278  0.2380 -0.3344
  258MOL0     O34719   1.470   9.433   8.601 -0.0907  0.7352  0.0754
  258MOL0     C34720   1.601   9.413   8.565  0.5818  0.0351 -0.5762
  258MOL0     C34721   1.639   9.285   8.515 -0.0935  0.1536  0.4338
  258MOL0     C34722   1.763   9.260   8.468  0.4884 -0.2916  0.0710
  258MOL0     C34723   1.798   9.107   8.433 -0.4949 -0.0127 -1.0629
  258MOL0     C34724   1.869   9.357   8.476 -0.2638 -0.5415 -0.3491
  258MOL0     C34725   2.013   9.326   8.467  0.0378 -0.3300  1.0533
  258MOL0     O34726   2.092   9.446   8.468  0.1922  0.1227 -0.0424
  258MOL0     C34727   2.228   9.448   8.465 -0.7837 -0.5882  0.0189
  258MOL0     C34728   2.283   9.573   8.501  0.3925  0.7804  0.4393
  258MOL0     C34729   2.422   9.589   8.517  0.2496  1.0363 -1.1961
  258MOL0     C34730   2.514   9.481   8.491 -0.0300 -0.8395  0.3552
  258MOL0     O34731   2.652   9.489   8.502  0.0895  0.1347 -0.2061
  258MOL0     C34732   2.720   9.607   8.476 -0.6048  1.0105 -0.0664
  258MOL0     C34733   2.749   9.706   8.597  0.0224  0.4398  0.9307
  258MOL0     C34734   2.859   9.649   8.683  0.5296  0.3985 -0.2170
  258MOL0     C34735   2.980   9.606   8.612 -1.0215 -0.2950 -0.4974
  258MOL0     C34736   3.092   9.562   8.699 -1.2367  0.6073  1.2118
  258MOL0     C34737   3.167   9.675   8.772  0.2765  1.4148  0.0998
  258MOL0     C34738   3.256   9.762   8.685 -0.0397  0.1083  0.5506
  258MOL0     C34739   3.405   9.726   8.701 -0.4142  0.6003  0.1917
  258MOL0    Cl34740   3.525   9.849   8.629  0.7536  0.0286 -0.4332
  258MOL0     C34741   2.450   9.359   8.456 -0.7862  0.3779  1.0040
  258MOL0     C34742   2.316   9.347   8.448 -0.2798 -0.6066  0.7649
  258MOL0     O34743   2.057   9.211   8.451 -0.0842 -0.1513 -0.0185
  258MOL0     C34744   1.829   9.485   8.506 -0.2365  0.2048 -0.1466
  258MOL0     C34745   1.703   9.517   8.554  0.4293 -0.3247  0.4927
  258MOL0     N34746   1.563   9.634   8.982 -0.6540 -0.1677  0.4992
  258MOL0     N34747   1.681   9.586   8.969 -0.5764 -0.3579 -0.4424
  258MOL0     C34748   2.606   8.881   9.015  0.4354 -0.0638  0.1261
  258MOL0     C34749   2.624   8.742   9.032 -0.5869  0.5105 -1.0901
  258MOL0     C34750   2.669   8.291   8.907  0.9431 -0.4183  0.4594
  258MOL0     C34751   2.740   8.250   9.014 -0.0172  0.2004  0.2659
  258MOL0     C34752   2.749   8.115   9.051 -0.2835 -0.6513  0.0780
  258MOL0     C34753   2.661   8.020   8.989 -0.0539  0.6499 -0.8980
  258MOL0     O34754   2.667   7.887   9.011 -0.0816 -0.2417  0.5259
  258MOL0     C34755   2.735   7.838   9.126  0.2456 -0.6025  0.2575
  258MOL0     C34756   2.739   7.691   9.110  0.1957 -0.1441 -0.4994
  258MOL0     C34757   2.596   7.624   9.101 -0.8069 -0.0425  0.3058
  258MOL0     C34758   2.588   7.482   9.144 -0.3526  0.0947 -0.4459
  258MOL0     C34759   2.690   7.379   9.090 -0.4694 -0.1125 -0.8682
  258MOL0     C34760   2.783   7.306   9.054 -1.1887 -0.6155  0.7169
  258MOL0     C34761   2.579   8.066   8.889 -0.2691  0.2483  1.0471
  258MOL0     C34762   2.584   8.196   8.844  0.6023 -0.0500 -0.1970
  258MOL0     H34763   2.816   8.675   8.751  1.0936 -0.9620  1.9861
  258MOL0     H34764   2.758   8.928   8.724  1.6338 -0.4789 -0.0880
  258MOL0     H34765   2.440   9.045   8.953  0.1694 -0.2263 -0.8659
  258MOL0     H34766   2.528   9.190   8.988  0.6151 -0.3155 -0.5820
  258MOL0     H34767   2.489   9.283   8.758 -1.7067  0.2099 -2.8486
  258MOL0     H34768   2.426   9.130   8.704  0.4876  1.1725 -1.3061
  258MOL0     H34769   2.268   9.278   8.920 -0.6266  1.5773 -0.8046
  258MOL0     H34770   2.258   9.342   8.762  1.1427 -0.7646  0.0722
  258MOL0     H34771   2.198   9.107   8.693  2.3919  0.9417  0.3258
  258MOL0     H34772   2.195   9.064   8.868  0.7563 -3.0272 -1.9811
  258MOL0     H34773   2.015   9.258   8.713  0.9528  0.2342 -0.3719
  258MOL0     H34774   1.973   9.098   8.770 -0.5098  0.8237 -1.6705
  258MOL0     H34775   2.036   9.155   8.999 -0.2822  1.3758  2.7478
  258MOL0     H34776   2.045   9.331   8.950  3.9817 -2.0090  0.7444
  258MOL0     H34777   1.786   9.165   8.932  1.1417  0.3553 -0.9043
  258MOL0     H34778   1.838   9.297   9.054 -0.1755  0.9856  0.0798
  258MOL0     H34779   1.759   9.348   8.761 -1.7202  1.7459 -0.2659
  258MOL0     H34780   1.871   9.441   8.861  0.9648 -1.7637  0.7132
  258MOL0     H34781   1.504   9.327   8.884  1.2331 -0.7653 -0.3743
  258MOL0     H34782   1.273   9.540   9.037  0.2916 -1.1578  0.0162
  258MOL0     H34783   1.326   9.673   8.916  1.5212 -1.4879 -3.1432
  258MOL0     H34784   1.141   9.499   8.833  0.9649 -0.2503 -1.0734
  258MOL0     H34785   1.283   9.401   8.821  2.6960  0.9185  1.7523
  258MOL0     H34786   1.270   9.679   8.715  2.3072  0.0403  3.3873
  258MOL0     H34787   1.231   9.539   8.605  2.1873 -0.7080 -0.3070
  258MOL0     H34788   1.497   9.582   8.724 -1.0201 -0.7415  0.3568
  258MOL0     H34789   1.454   9.640   8.564  1.6279  0.4537  0.4291
  258MOL0     H34790   1.567   9.204   8.516 -1.1430  1.0403  2.2830
  258MOL0     H34791   1.710   9.056   8.394 -0.9051  1.6114 -2.4010
  258MOL0     H34792   1.865   9.111   8.347 -1.6913  0.0274 -2.0214
  258MOL0     H34793   1.841   9.064   8.524  3.1318  0.8340 -2.2128
  258MOL0     H34794   2.214   9.654   8.524 -2.3237 -1.0271 -0.8480
  258MOL0     H34795   2.447   9.683   8.564 -1.2327  0.5383  0.7203
  258MOL0     H34796   2.814   9.589   8.422  0.0339  2.4552  0.4989
  258MOL0     H34797   2.653   9.664   8.411 -2.6632 -0.7105  0.4631
  258MOL0     H34798   2.793   9.787   8.538 -0.7348  0.0866 -0.1446
  258MOL0     H34799   2.659   9.738   8.651 -1.6313  1.5852 -2.2606
  258MOL0     H34800   2.826   9.569   8.750  1.8618 -0.1909 -0.2414
  258MOL0     H34801   2.879   9.723   8.761 -4.0586  1.1320  0.5759
  258MOL0     H34802   2.960   9.518   8.549 -2.8197 -2.2269  2.5062
  258MOL0     H34803   3.019   9.679   8.541  2.1000 -0.5745  0.7493
  258MOL0     H34804   3.161   9.519   8.626 -5.2694  0.5834 -3.0951
  258MOL0     H34805   3.060   9.483   8.768 -1.5751  0.5084  0.9442
  258MOL0     H34806   3.100   9.742   8.828 -0.4175  0.3506  0.5700
  258MOL0     H34807   3.230   9.616   8.839 -2.0254 -1.2201  0.1316
  258MOL0     H34808   3.235   9.864   8.719 -2.8034  0.3175 -1.4813
  258MOL0     H34809   3.229   9.745   8.581 -3.0476 -2.8680  1.6418
  258MOL0     H34810   3.430   9.635   8.645 -0.2520  1.1384 -0.6267
  258MOL0     H34811   3.437   9.708   8.804 -2.2273 -2.2818  0.3963
  258MOL0     H34812   2.532   9.287   8.451 -1.7288 -0.7252  0.9938
  258MOL0     H34813   2.274   9.250   8.423 -0.3087 -0.1530 -1.0801
  258MOL0     H34814   1.902   9.566   8.507 -0.8272  0.8104 -1.7277
  258MOL0     H34815   1.689   9.620   8.587 -3.4602 -0.7588  0.5668
  258MOL0     H34816   2.572   8.953   9.089  0.0282  0.9783 -1.0456
  258MOL0     H34817   2.589   8.694   9.122 -0.4315 -0.7221 -1.6609
  258MOL0     H34818   2.793   8.327   9.070  0.0474 -0.1411  0.6773
  258MOL0     H34819   2.830   8.100   9.122  0.7673  1.9508 -0.4727
  258MOL0     H34820   2.840   7.864   9.144  0.4486 -1.0544 -0.2569
  258MOL0     H34821   2.685   7.864   9.220  1.8323 -1.4954  1.3973
  258MOL0     H34822   2.793   7.651   9.197  0.9077 -0.0744 -0.8996
  258MOL0     H34823   2.799   7.666   9.022  2.8488  1.6003  0.6719
  258MOL0     H34824   2.552   7.641   9.002 -1.1938  0.9338  0.6397
  258MOL0     H34825   2.524   7.678   9.163 -1.2880  1.8539 -1.7705
  258MOL0     H34826   2.491   7.445   9.110 -0.4832 -0.1002  0.1315
  258MOL0     H34827   2.587   7.476   9.253 -0.4782 -0.6658 -0.4801
  258MOL0     H34828   2.866   7.245   9.026  1.8477  3.7280 -0.8236
  258MOL0     H34829   2.509   7.995   8.848  0.9562  0.7469 -2.1806
  258MOL0     H34830   2.498   8.221   8.782  1.9852  1.5941 -1.5294
  259MOL0     O34831   8.259   2.878   6.014 -0.1789 -0.2048  0.4381
  259MOL0     C34832   8.162   2.950   6.043  0.1861 -0.2654 -0.1903
  259MOL0     O34833   8.168   3.084   6.056 -0.1998  0.2434  0.5407
  259MOL0     C34834   8.282   3.157   6.040  0.2563  0.7633 -0.3009
  259MOL0     C34835   8.394   3.128   6.128  0.5824  0.0033 -0.4074
  259MOL0     C34836   8.521   3.188   6.116  0.5449 -0.2272 -0.8305
  259MOL0     C34837   8.536   3.293   6.021 -0.9239  0.7370 -0.3466
  259MOL0     O34838   8.655   3.343   6.024 -0.5239 -0.7634 -0.8787
  259MOL0     C34839   8.705   3.385   5.895 -0.2462  0.2973  0.3825
  259MOL0     C34840   8.847   3.450   5.920  0.0248 -0.6708  0.7557
  259MOL0     C34841   8.913   3.480   5.787 -0.2184  0.0259 -0.4039
  259MOL0     C34842   9.058   3.517   5.807 -0.3485 -0.0844 -0.9478
  259MOL0     C34843   9.147   3.429   5.723 -0.5649 -0.6409 -0.5801
  259MOL0     C34844   9.300   3.471   5.715 -0.3511  0.7042 -0.4566
  259MOL0     C34845   9.316   3.619   5.684 -0.0573  0.0581 -0.5425
  259MOL0     C34846   9.457   3.658   5.630 -0.2352  0.3188 -0.2034
  259MOL0     N34847   9.533   3.562   5.548  0.4129 -0.5188  0.6355
  259MOL0     C34848   9.512   3.543   5.411  0.7214 -0.4476 -0.8239
  259MOL0     C34849   9.603   3.462   5.368 -0.3416  0.0502  0.9151
  259MOL0     C34850   9.628   3.423   5.232  0.8426  0.0310 -0.1657
  259MOL0     C34851   9.701   3.531   5.137  0.7710 -0.3660  0.2162
  259MOL0     C34852   9.845   3.558   5.182  1.2633 -0.1298  0.3738
  259MOL0     C34853   9.949   3.438   5.190 -0.6563  0.6967  0.5935
  259MOL0     O34854  10.078   3.493   5.210 -0.5284  0.6742  0.0960
  259MOL0     C34855  10.126   3.504   5.337  0.5794  0.0640 -0.9410
  259MOL0     C34856  10.263   3.537   5.350 -0.1395  0.3751 -0.1783
  259MOL0     C34857  10.326   3.543   5.478  0.1214 -0.3996  0.0363
  259MOL0     C34858  10.472   3.575   5.487 -0.8700 -0.4662 -0.2442
  259MOL0     C34859  10.259   3.518   5.599 -0.4985 -0.4656  0.1603
  259MOL0     C34860  10.318   3.515   5.739  0.1541 -0.0868  0.4411
  259MOL0     O34861  10.410   3.610   5.761  0.1449 -0.0623  0.6012
  259MOL0     C34862  10.453   3.609   5.892 -0.1905  0.3073  0.0624
  259MOL0     C34863  10.585   3.576   5.921  0.3139 -0.0700 -0.5701
  259MOL0     C34864  10.624   3.566   6.055 -0.2691  0.2438  0.0887
  259MOL0     C34865  10.543   3.587   6.161 -0.5386  0.4835 -0.7261
  259MOL0     O34866  10.586   3.583   6.293  0.2396 -0.5621  0.9725
  259MOL0     C34867  10.722   3.621   6.316  0.2072  0.1181 -0.8630
  259MOL0     C34868  10.749   3.633   6.470 -0.8891  0.5644 -0.1545
  259MOL0     C34869  10.668   3.743   6.547  0.1350 -0.5166 -0.6156
  259MOL0     C34870  10.749   3.839   6.632  0.0201 -0.5072 -0.1002
  259MOL0     C34871  10.831   3.941   6.543  0.3456 -0.8410 -0.3565
  259MOL0     C34872  10.906   4.038   6.637 -0.5902 -0.1047  0.9023
  259MOL0     C34873  10.817   4.138   6.719 -0.4204  1.1603 -0.0985
  259MOL0     C34874  10.896   4.255   6.764 -0.3906  0.2089 -0.0711
  259MOL0    Cl34875  10.922   4.380   6.628  0.4506 -0.1812 -0.2456
  259MOL0     C34876  10.419   3.624   6.132  0.0155 -0.2405  0.6429
  259MOL0     C34877  10.375   3.645   5.995 -0.0256  0.6321 -0.1832
  259MOL0     O34878  10.286   3.435   5.825  0.3855 -0.2742  0.3898
  259MOL0     C34879  10.121   3.485   5.588 -0.3650 -0.3329  0.5103
  259MOL0     C34880  10.056   3.476   5.458 -0.3468 -1.7923 -0.7584
  259MOL0     N34881   9.679   3.425   5.472 -0.2651 -0.4549 -0.7361
  259MOL0     N34882   9.644   3.488   5.586 -0.5681 -0.3385  0.0574
  259MOL0     C34883   8.426   3.329   5.941 -0.8321  1.0654  0.3374
  259MOL0     C34884   8.302   3.271   5.956 -1.0164 -0.2333 -0.0289
  259MOL0     C34885   8.029   2.884   6.063 -0.5084 -0.5887 -0.2111
  259MOL0     C34886   7.915   2.951   6.032 -1.0439  1.0924 -0.2092
  259MOL0     C34887   7.792   2.885   6.028 -0.2030  0.5907  0.3581
  259MOL0     C34888   7.774   2.751   6.060 -1.2134 -0.1452 -0.4114
  259MOL0     O34889   7.666   2.673   6.064 -0.3016 -0.3288  0.1898
  259MOL0     C34890   7.548   2.718   5.994  0.6221 -0.2708 -0.1870
  259MOL0     C34891   7.456   2.768   6.099 -0.0453  0.6315 -0.0689
  259MOL0     C34892   7.343   2.867   6.058  0.2275 -0.0339  0.5039
  259MOL0     C34893   7.385   2.989   5.974 -0.9853  0.4607 -0.6276
  259MOL0     C34894   7.269   3.076   5.968  0.6259  0.0612 -0.0104
  259MOL0     C34895   7.183   3.153   5.951 -0.5089 -0.0896  0.2632
  259MOL0     C34896   7.897   2.685   6.096  0.6607  0.2618  0.0061
  259MOL0     C34897   8.020   2.743   6.077  0.3896  0.8275  0.4763
  259MOL0     H34898   8.382   3.054   6.207  0.8180 -1.1255 -1.4034
  259MOL0     H34899   8.599   3.168   6.188 -1.1194 -1.0347  0.8602
  259MOL0     H34900   8.702   3.299   5.828 -2.3325  1.8552 -1.6784
  259MOL0     H34901   8.653   3.463   5.840 -1.9704 -1.0299  0.0484
  259MOL0     H34902   8.841   3.550   5.965 -1.2112 -0.4093  0.0709
  259MOL0     H34903   8.900   3.382   5.988  0.8301  0.2997  1.1168
  259MOL0     H34904   8.904   3.389   5.726 -0.7965 -0.9662  1.1091
  259MOL0     H34905   8.860   3.557   5.731 -1.1544 -1.0911 -1.1040
  259MOL0     H34906   9.077   3.620   5.773  1.3016 -0.1115 -0.2106
  259MOL0     H34907   9.096   3.517   5.909  1.9590  2.7905 -1.6572
  259MOL0     H34908   9.145   3.329   5.769 -1.2005 -0.2765  0.2078
  259MOL0     H34909   9.104   3.425   5.623 -0.4615  3.7907 -1.0039
  259MOL0     H34910   9.352   3.440   5.807  0.1809  1.3819 -0.5185
  259MOL0     H34911   9.344   3.417   5.632 -0.5924  2.3160 -1.6818
  259MOL0     H34912   9.245   3.633   5.603  1.0122 -1.0580 -1.7260
  259MOL0     H34913   9.297   3.683   5.770  3.2160  0.3509  0.1017
  259MOL0     H34914   9.516   3.673   5.721 -0.0287  0.6190 -0.3886
  259MOL0     H34915   9.442   3.754   5.580  1.8269 -0.4192 -2.4224
  259MOL0     H34916   9.439   3.600   5.354 -0.6625 -0.7206  0.6201
  259MOL0     H34917   9.678   3.326   5.229 -0.7832 -1.0694  3.3088
  259MOL0     H34918   9.540   3.399   5.171  0.8816 -1.2037  0.2277
  259MOL0     H34919   9.643   3.622   5.153  0.0731 -0.8844  0.6852
  259MOL0     H34920   9.688   3.512   5.030 -2.7559 -2.1178  0.8012
  259MOL0     H34921   9.852   3.615   5.276  5.4110 -2.3009  1.6577
  259MOL0     H34922   9.884   3.626   5.106 -1.8322 -0.3575 -1.5486
  259MOL0     H34923   9.937   3.395   5.090 -2.0755  2.5326 -0.0816
  259MOL0     H34924   9.928   3.358   5.261  2.7553 -1.8689 -1.0108
  259MOL0     H34925  10.333   3.569   5.272  5.6803 -1.9486  3.4017
  259MOL0     H34926  10.523   3.510   5.559  1.0334  0.5961 -0.5494
  259MOL0     H34927  10.535   3.563   5.399  0.0948 -0.6064  0.4465
  259MOL0     H34928  10.489   3.679   5.518  0.2948 -0.2664 -1.4643
  259MOL0     H34929  10.654   3.570   5.838 -0.2313  0.7607 -1.0923
  259MOL0     H34930  10.721   3.518   6.068 -0.0674  0.6349  0.0167
  259MOL0     H34931  10.793   3.546   6.278  2.0919  1.6548 -0.5413
  259MOL0     H34932  10.745   3.715   6.265  0.7820  0.0279 -0.7789
  259MOL0     H34933  10.730   3.536   6.517  0.8845  0.7103  0.9535
  259MOL0     H34934  10.857   3.648   6.478 -0.2550 -1.1136 -3.4844
  259MOL0     H34935  10.596   3.689   6.609  0.9702 -2.5636 -1.3258
  259MOL0     H34936  10.602   3.795   6.477  0.9181 -0.0389 -1.0201
  259MOL0     H34937  10.674   3.879   6.702 -3.8386 -1.8343 -3.0919
  259MOL0     H34938  10.825   3.776   6.679 -1.8813 -0.3616  3.5767
  259MOL0     H34939  10.770   4.004   6.477  1.4272 -0.6101 -1.1694
  259MOL0     H34940  10.919   3.890   6.501  1.8752  1.6015 -0.3223
  259MOL0     H34941  10.980   3.990   6.702  0.6160  0.8101  0.2480
  259MOL0     H34942  10.960   4.092   6.559 -0.6884 -0.4831  0.5611
  259MOL0     H34943  10.792   4.091   6.814  1.8215  0.3408  0.1539
  259MOL0     H34944  10.729   4.165   6.659 -0.3498  1.1092 -0.2256
  259MOL0     H34945  10.990   4.234   6.816 -1.9040 -1.6550  2.1254
  259MOL0     H34946  10.838   4.308   6.841  0.0675 -1.9882  1.9086
  259MOL0     H34947  10.358   3.651   6.218 -0.0386 -2.1190  1.2410
  259MOL0     H34948  10.274   3.675   5.969  0.5643  0.8651 -2.4632
  259MOL0     H34949  10.078   3.478   5.688  0.2347 -2.1429  0.6785
  259MOL0     H34950   9.949   3.462   5.468 -0.7139  0.0321 -1.6767
  259MOL0     H34951   8.440   3.412   5.871 -1.5337  1.0570  0.1754
  259MOL0     H34952   8.225   3.322   5.900 -0.5872 -0.1479 -0.5446
  259MOL0     H34953   7.920   3.050   5.989 -2.4276  1.6207  0.7577
  259MOL0     H34954   7.717   2.960   6.005  0.6056  1.9524  1.9703
  259MOL0     H34955   7.571   2.804   5.931 -0.8689  0.3927  0.1414
  259MOL0     H34956   7.510   2.637   5.932 -2.5806  1.0577 -0.1802
  259MOL0     H34957   7.513   2.812   6.181  2.5604 -0.0494 -1.4305
  259MOL0     H34958   7.410   2.679   6.142  0.2229  0.1763 -0.7151
  259MOL0     H34959   7.311   2.906   6.156 -1.0431 -2.9009  1.3373
  259MOL0     H34960   7.252   2.812   6.030 -0.4116  2.3859 -2.7346
  259MOL0     H34961   7.409   2.963   5.871 -2.7482 -1.4070 -0.6144
  259MOL0     H34962   7.472   3.046   6.009  0.1823  0.7122 -3.6916
  259MOL0     H34963   7.097   3.216   5.934 -1.0402  0.2362  3.5338
  259MOL0     H34964   7.882   2.582   6.125 -4.2308  0.4090 -1.2303
  259MOL0     H34965   8.109   2.683   6.091 -0.9430 -1.4653 -0.3288
  260MOL0     O34966   0.472   6.185   8.671  0.0198 -0.1463 -0.3454
  260MOL0     C34967   0.412   6.260   8.750  0.7724 -0.4085 -0.4864
  260MOL0     O34968   0.445   6.394   8.780 -0.2664  0.4162  0.1960
  260MOL0     C34969   0.560   6.457   8.739 -0.7018 -0.3050  0.2597
  260MOL0     C34970   0.546   6.590   8.701  0.4152 -0.1862  0.5945
  260MOL0     C34971   0.650   6.660   8.637 -0.8145 -0.9313 -0.1236
  260MOL0     C34972   0.774   6.598   8.624  0.2053 -0.6696 -0.0208
  260MOL0     O34973   0.885   6.670   8.574 -0.8532 -0.0633 -0.5484
  260MOL0     C34974   0.882   6.807   8.535  0.3313 -0.7053 -0.5597
  260MOL0     C34975   1.020   6.871   8.535  0.2952 -0.3811  0.0284
  260MOL0     C34976   1.096   6.868   8.665 -0.0114 -0.9797 -0.5535
  260MOL0     C34977   1.184   7.003   8.670 -0.5802  0.3751 -0.4321
  260MOL0     C34978   1.316   6.989   8.601 -0.3295  1.2506  0.7595
  260MOL0     C34979   1.425   7.095   8.624  0.3185  0.4606 -0.6222
  260MOL0     C34980   1.545   7.083   8.522  0.7168 -0.9167 -0.3242
  260MOL0     C34981   1.661   6.986   8.550 -1.2852 -1.0386 -0.0767
  260MOL0     N34982   1.726   6.999   8.680  0.1844  1.0203 -0.7989
  260MOL0     C34983   1.825   6.920   8.722  0.3806  0.7634 -0.0132
  260MOL0     C34984   1.865   6.960   8.842  0.1482 -0.5953  0.4227
  260MOL0     C34985   1.970   6.905   8.937 -0.9971  0.0341  1.2539
  260MOL0     C34986   1.895   6.817   9.036 -0.4441  0.9139 -0.2579
  260MOL0     C34987   1.973   6.766   9.155 -0.4995  0.3565  0.4762
  260MOL0     C34988   2.070   6.865   9.218  0.4277  1.3385 -0.3648
  260MOL0     O34989   1.990   6.983   9.269 -0.6144  0.1260 -0.9642
  260MOL0     C34990   2.040   7.110   9.262  0.6220 -0.6535  0.0753
  260MOL0     C34991   1.977   7.207   9.179  0.5059  0.0192 -1.0435
  260MOL0     C34992   2.024   7.341   9.177  0.9477  0.1966 -0.2019
  260MOL0     C34993   1.941   7.439   9.098 -0.1430  0.6176  0.1596
  260MOL0     C34994   2.145   7.382   9.241  0.1124  0.0151 -0.4937
  260MOL0     C34995   2.203   7.522   9.238  0.2551  0.6660 -0.4017
  260MOL0     O34996   2.132   7.621   9.188 -0.4040 -0.5741  0.0940
  260MOL0     C34997   2.182   7.749   9.200  0.6686 -0.2436  0.3935
  260MOL0     C34998   2.209   7.820   9.076  0.2356  1.0447  0.5145
  260MOL0     C34999   2.260   7.947   9.069 -0.1759  0.6253  0.0756
  260MOL0     C35000   2.260   8.024   9.189  0.2987  0.7084 -0.0368
  260MOL0     O35001   2.289   8.157   9.183 -0.5357  0.2319 -0.3511
  260MOL0     C35002   2.178   8.249   9.214  0.0380  0.2334 -0.4365
  260MOL0     C35003   2.236   8.378   9.161 -0.2663 -0.4565 -0.2586
  260MOL0     C35004   2.184   8.515   9.206 -0.0317 -0.6358  0.7518
  260MOL0     C35005   2.219   8.542   9.348  0.9619 -0.1985 -0.9476
  260MOL0     C35006   2.175   8.673   9.406  0.3623  0.7233  0.6165
  260MOL0     C35007   2.022   8.679   9.439 -0.0618  0.2615  0.2128
  260MOL0     C35008   1.999   8.793   9.535  0.5546 -0.5949 -0.2486
  260MOL0     C35009   1.848   8.820   9.557  0.6206 -0.3516 -0.4607
  260MOL0    Cl35010   1.762   8.853   9.410 -0.1280  0.2122  0.2500
  260MOL0     C35011   2.219   7.963   9.312  0.4091  0.6477  0.1388
  260MOL0     C35012   2.182   7.829   9.313  0.0799  0.6336 -0.4089
  260MOL0     O35013   2.313   7.537   9.289  0.1775 -0.1054  0.6373
  260MOL0     C35014   2.207   7.282   9.325  0.0153 -0.8745  0.4291
  260MOL0     C35015   2.149   7.158   9.334  0.2869  0.1162 -0.2958
  260MOL0     N35016   1.784   7.067   8.872  0.0002 -1.4482  0.1667
  260MOL0     N35017   1.702   7.086   8.777 -0.8479 -0.8643 -0.2743
  260MOL0     C35018   0.788   6.464   8.666 -0.0286  0.1955 -0.0515
  260MOL0     C35019   0.681   6.395   8.718  0.2708  0.3016 -0.4696
  260MOL0     C35020   0.286   6.207   8.813  1.0842  0.8283  0.2728
  260MOL0     C35021   0.233   6.091   8.764  0.4477  0.1978 -0.4194
  260MOL0     C35022   0.102   6.067   8.816  0.2250  0.3462  0.0888
  260MOL0     C35023   0.031   6.134   8.913  0.2227  0.0004  0.0842
  260MOL0     O35024  -0.099   6.112   8.930 -0.0807 -0.1277 -0.0506
  260MOL0     C35025  -0.173   6.187   9.031  0.5288 -0.9782  0.4513
  260MOL0     C35026  -0.316   6.144   9.031 -0.6816  0.2014 -0.4175
  260MOL0     C35027  -0.378   6.126   8.890 -0.0593  0.1752 -0.1953
  260MOL0     C35028  -0.379   6.252   8.799 -1.0724  0.0757 -0.4069
  260MOL0     C35029  -0.469   6.353   8.855  0.4007  0.4313 -0.2296
  260MOL0     C35030  -0.543   6.437   8.909 -0.2055 -0.5124  0.7461
  260MOL0     C35031   0.093   6.244   8.962  0.1507 -0.3614 -0.3431
  260MOL0     C35032   0.224   6.278   8.920  0.7184  0.4748  1.2259
  260MOL0     H35033   0.444   6.629   8.702  0.6903  0.5413  0.5243
  260MOL0     H35034   0.638   6.767   8.623  1.0416 -0.1259  3.3274
  260MOL0     H35035   0.831   6.821   8.439 -1.5905 -0.0682  0.4950
  260MOL0     H35036   0.812   6.854   8.605  0.9510  1.5180 -1.3639
  260MOL0     H35037   1.088   6.845   8.453 -1.4466 -3.2276 -0.6503
  260MOL0     H35038   0.999   6.976   8.512 -0.7210 -0.2494  1.4608
  260MOL0     H35039   1.024   6.867   8.748 -0.4033  0.8000 -0.8274
  260MOL0     H35040   1.168   6.787   8.681 -0.8970 -1.3759  1.9044
  260MOL0     H35041   1.127   7.088   8.632 -0.3823  0.8878  0.3860
  260MOL0     H35042   1.188   7.031   8.776  1.0388  1.3573 -0.7328
  260MOL0     H35043   1.363   6.893   8.625 -0.5771  1.3932  1.8978
  260MOL0     H35044   1.292   6.994   8.495  1.8858  3.9764  0.2833
  260MOL0     H35045   1.384   7.194   8.603 -0.3600  0.5531  0.9693
  260MOL0     H35046   1.447   7.105   8.731 -0.5873  2.3921 -0.5811
  260MOL0     H35047   1.507   7.034   8.432 -0.0225 -1.6802  0.3878
  260MOL0     H35048   1.590   7.181   8.503 -0.7065 -0.4645 -1.5488
  260MOL0     H35049   1.739   7.010   8.477  0.2237 -1.5755  1.3000
  260MOL0     H35050   1.618   6.886   8.542 -3.1573 -0.2657 -0.2793
  260MOL0     H35051   1.870   6.843   8.661 -2.3772 -1.0663  0.0946
  260MOL0     H35052   2.045   6.844   8.887 -0.4984  1.0007  0.7816
  260MOL0     H35053   2.018   6.991   8.985 -2.1933  2.4884 -1.6522
  260MOL0     H35054   1.861   6.725   8.988 -1.9252  1.5938 -0.5742
  260MOL0     H35055   1.813   6.885   9.065 -1.5889  0.2783 -1.8433
  260MOL0     H35056   2.028   6.682   9.112  0.1816  0.3302  1.3814
  260MOL0     H35057   1.914   6.713   9.230 -3.3030  2.1681 -0.2708
  260MOL0     H35058   2.160   6.884   9.159  1.0089  1.2712  0.4866
  260MOL0     H35059   2.114   6.815   9.304 -3.0657  0.0554  0.8609
  260MOL0     H35060   1.879   7.187   9.137 -2.8444  3.8927  3.7947
  260MOL0     H35061   1.914   7.520   9.165 -1.4033  0.8306 -0.5826
  260MOL0     H35062   2.008   7.478   9.020  0.7432 -1.1754 -0.0388
  260MOL0     H35063   1.849   7.400   9.054 -0.3353  1.8782 -0.6167
  260MOL0     H35064   2.200   7.764   8.983  1.5654 -0.9640  1.5166
  260MOL0     H35065   2.303   7.991   8.980 -0.0003 -0.0582 -0.1874
  260MOL0     H35066   2.078   8.236   9.170 -0.8789  2.5863  0.7619
  260MOL0     H35067   2.176   8.252   9.323 -2.0310 -0.7846 -0.3871
  260MOL0     H35068   2.343   8.371   9.181 -0.5883 -1.9497  1.1607
  260MOL0     H35069   2.217   8.370   9.053  0.4127 -0.4595 -0.3848
  260MOL0     H35070   2.076   8.524   9.190 -0.4484  0.2877  3.5543
  260MOL0     H35071   2.228   8.589   9.138 -1.1694 -0.9274 -0.3464
  260MOL0     H35072   2.177   8.454   9.398  0.7711 -0.9647 -2.3768
  260MOL0     H35073   2.328   8.543   9.348  1.1073 -0.5400  3.0672
  260MOL0     H35074   2.212   8.745   9.331  3.1852 -0.4578  0.7271
  260MOL0     H35075   2.226   8.691   9.501 -1.8345  2.7590  1.5231
  260MOL0     H35076   1.976   8.704   9.343  0.4623  0.4510  0.0041
  260MOL0     H35077   1.983   8.580   9.463  4.0266 -1.4452  0.7188
  260MOL0     H35078   2.034   8.886   9.489 -1.3104  1.8499  2.8585
  260MOL0     H35079   2.058   8.795   9.627  0.6347  0.0648 -0.3036
  260MOL0     H35080   1.842   8.911   9.618 -0.1250 -0.2742 -0.6314
  260MOL0     H35081   1.807   8.739   9.617  1.7402  0.2844  1.2501
  260MOL0     H35082   2.219   8.034   9.393  0.8658  0.2762  0.4722
  260MOL0     H35083   2.172   7.780   9.409  1.8053 -1.4069 -1.2029
  260MOL0     H35084   2.299   7.304   9.377 -0.5077  0.8496  0.6807
  260MOL0     H35085   2.203   7.081   9.389  0.2895 -0.6183 -1.3069
  260MOL0     H35086   0.884   6.417   8.648 -1.0920 -1.5936 -1.2755
  260MOL0     H35087   0.687   6.292   8.753 -0.5529  0.4364  0.0811
  260MOL0     H35088   0.281   6.026   8.693 -0.3059  0.1826 -0.9267
  260MOL0     H35089   0.059   5.980   8.766 -3.1316  1.2477  1.1746
  260MOL0     H35090  -0.130   6.195   9.131 -0.2262 -1.4306  0.8197
  260MOL0     H35091  -0.169   6.292   9.000  2.7633 -0.3131  2.6734
  260MOL0     H35092  -0.379   6.221   9.075 -0.0033  2.2642 -2.8570
  260MOL0     H35093  -0.323   6.048   9.084  0.8468 -0.0246 -0.5852
  260MOL0     H35094  -0.485   6.105   8.892  0.0887 -0.6631  2.5490
  260MOL0     H35095  -0.326   6.043   8.840 -4.2110 -1.9748 -1.4096
  260MOL0     H35096  -0.422   6.229   8.700 -0.7373  0.1833 -0.5796
  260MOL0     H35097  -0.284   6.304   8.786 -1.5398  2.6742  4.2726
  260MOL0     H35098  -0.595   6.508   8.969 -2.0114 -0.1841 -1.0822
  260MOL0     H35099   0.042   6.314   9.028  1.3062 -1.0384  1.3197
  260MOL0     H35100   0.261   6.375   8.951 -1.9556  1.4339  1.7251
  261MOL0     O35101   3.326   1.457   6.206  0.7227 -0.1231 -0.1381
  261MOL0     C35102   3.214   1.396   6.197  0.7598  0.7286  0.6763
  261MOL0     O35103   3.091   1.449   6.160 -0.2733 -0.0110 -0.1169
  261MOL0     C35104   3.068   1.586   6.140 -0.0466  0.8326 -1.0875
  261MOL0     C35105   3.094   1.696   6.228  1.3600  0.8291 -0.5294
  261MOL0     C35106   3.065   1.823   6.191  0.1594 -0.0458  0.3153
  261MOL0     C35107   3.009   1.853   6.071 -0.1606  0.2230 -0.1208
  261MOL0     O35108   2.976   1.981   6.031 -0.0778  0.1737  0.1827
  261MOL0     C35109   2.984   2.101   6.110 -0.6069 -0.5454 -1.1042
  261MOL0     C35110   2.898   2.207   6.064  0.2963  0.0024  0.5243
  261MOL0     C35111   2.752   2.162   6.062  0.1787 -0.5699  0.3862
  261MOL0     C35112   2.651   2.276   6.072  0.4208  0.7678  0.2677
  261MOL0     C35113   2.505   2.217   6.110 -0.0466 -0.1415  0.9539
  261MOL0     C35114   2.415   2.351   6.114 -0.2718  0.1301 -0.2491
  261MOL0     C35115   2.292   2.328   6.199 -0.1843  0.1090 -0.6901
  261MOL0     C35116   2.180   2.251   6.126 -0.3295 -0.6162 -0.0963
  261MOL0     N35117   2.149   2.118   6.180 -0.1753 -0.2090 -0.1409
  261MOL0     C35118   2.035   2.046   6.155  0.1880 -0.3724 -0.8972
  261MOL0     C35119   2.053   1.919   6.213  0.5731 -0.5406  0.2828
  261MOL0     C35120   1.954   1.810   6.207  0.2988 -0.1118  0.3442
  261MOL0     C35121   1.821   1.869   6.239  0.4024 -0.1752 -1.0624
  261MOL0     C35122   1.711   1.771   6.269 -0.2506 -0.1683 -0.6555
  261MOL0     C35123   1.577   1.850   6.268  0.2906 -0.0763  0.1964
  261MOL0     O35124   1.544   1.856   6.133 -0.5836 -0.5984  0.1027
  261MOL0     C35125   1.461   1.780   6.067  0.0757  0.3017  0.4740
  261MOL0     C35126   1.464   1.774   5.930 -0.1988  1.0651 -0.3576
  261MOL0     C35127   1.373   1.705   5.854 -0.1405  0.5321  0.5886
  261MOL0     C35128   1.402   1.708   5.702 -0.0965 -0.9444  0.1775
  261MOL0     C35129   1.270   1.637   5.914 -0.1122 -0.0464 -0.4316
  261MOL0     C35130   1.167   1.578   5.836  0.9206 -0.2601  0.0187
  261MOL0     O35131   1.086   1.492   5.911  0.4192 -0.5610 -1.0161
  261MOL0     C35132   0.976   1.440   5.863 -0.2643  0.5294  0.0606
  261MOL0     C35133   0.880   1.511   5.786 -0.0481  0.1766 -0.2200
  261MOL0     C35134   0.773   1.442   5.733  0.7169  0.5621  0.6640
  261MOL0     C35135   0.746   1.311   5.769 -0.6293  0.6565 -0.7155
  261MOL0     O35136   0.631   1.254   5.715 -0.4701 -0.3200  0.2336
  261MOL0     C35137   0.561   1.149   5.781  0.2437  0.0013 -0.4339
  261MOL0     C35138   0.414   1.178   5.752 -0.0655  0.4968 -0.2768
  261MOL0     C35139   0.319   1.043   5.775  0.5460 -0.0965 -0.3817
  261MOL0     C35140   0.267   1.054   5.918  0.0986  0.4877  0.4092
  261MOL0     C35141   0.148   0.959   5.955 -0.2342 -0.1403 -0.0408
  261MOL0     C35142   0.173   0.809   5.925 -0.1883 -0.5943  0.1417
  261MOL0     C35143   0.074   0.713   6.000 -0.2164 -0.0013  0.5464
  261MOL0     C35144   0.116   0.563   5.976  0.0999  0.1164 -0.5036
  261MOL0    Cl35145   0.080   0.535   5.797  0.6364  0.1696 -0.0096
  261MOL0     C35146   0.845   1.234   5.848  0.9353 -0.0079 -0.0496
  261MOL0     C35147   0.954   1.302   5.887 -0.1080 -0.7217 -0.5160
  261MOL0     O35148   1.147   1.623   5.725 -0.3044  0.0764 -0.4527
  261MOL0     C35149   1.266   1.639   6.051 -0.3401  0.3903  0.1110
  261MOL0     C35150   1.352   1.711   6.128 -0.3370  0.5320  0.2771
  261MOL0     N35151   2.177   1.926   6.268  0.1477 -0.4294 -0.4320
  261MOL0     N35152   2.231   2.039   6.235 -0.0290  1.0711 -0.2047
  261MOL0     C35153   2.990   1.750   5.977  0.3345  0.2434 -0.9277
  261MOL0     C35154   3.018   1.617   6.013 -0.1501  0.6149 -0.2110
  261MOL0     C35155   3.217   1.253   6.214 -0.4609  1.1245 -0.1181
  261MOL0     C35156   3.329   1.183   6.258  0.8984  0.6668 -0.2210
  261MOL0     C35157   3.340   1.045   6.264  0.1710 -1.3257 -0.5798
  261MOL0     C35158   3.224   0.964   6.235 -0.5277  0.1260 -0.7564
  261MOL0     O35159   3.245   0.833   6.247 -0.6861  0.3155 -0.2443
  261MOL0     C35160   3.158   0.736   6.195  0.2797 -0.5412  0.0362
  261MOL0     C35161   3.217   0.602   6.237  0.1278 -0.0393 -0.3081
  261MOL0     C35162   3.240   0.569   6.387 -0.5907  0.2561 -0.9387
  261MOL0     C35163   3.118   0.546   6.478 -0.3402 -0.5711  0.2491
  261MOL0     C35164   3.094   0.398   6.485  0.1819  0.0430  0.4092
  261MOL0     C35165   3.070   0.276   6.492 -0.5678  1.2797 -0.2016
  261MOL0     C35166   3.106   1.033   6.197 -0.5804  0.7794  0.6543
  261MOL0     C35167   3.107   1.171   6.187  0.3523  0.1670  0.5509
  261MOL0     H35168   3.148   1.677   6.320 -0.9716 -1.4073  0.4983
  261MOL0     H35169   3.092   1.903   6.258 -0.3557 -1.6018  2.4746
  261MOL0     H35170   2.966   2.090   6.217 -0.2506 -0.6799 -1.0581
  261MOL0     H35171   3.085   2.141   6.094 -0.5252  0.1307  0.8803
  261MOL0     H35172   2.908   2.291   6.133  3.4505 -0.9418  1.3655
  261MOL0     H35173   2.929   2.248   5.967 -1.1212  1.0959  0.4890
  261MOL0     H35174   2.729   2.090   5.983 -2.2380 -1.2353  1.6264
  261MOL0     H35175   2.734   2.107   6.155 -2.5954 -1.8243 -0.7835
  261MOL0     H35176   2.689   2.336   6.155 -0.4184 -2.9295  3.6192
  261MOL0     H35177   2.646   2.335   5.980 -1.3842 -0.6300 -0.5783
  261MOL0     H35178   2.470   2.149   6.032  0.6074  0.8286 -0.2284
  261MOL0     H35179   2.514   2.164   6.205  0.7822 -0.1715  0.8604
  261MOL0     H35180   2.469   2.433   6.162 -1.5112 -0.5127  2.4355
  261MOL0     H35181   2.391   2.377   6.011  3.0402  0.5596 -1.0460
  261MOL0     H35182   2.316   2.265   6.284  0.9384 -0.3768 -1.3433
  261MOL0     H35183   2.252   2.421   6.239  0.0460 -0.6495  1.4094
  261MOL0     H35184   2.226   2.225   6.031  0.9952 -2.0631  0.8767
  261MOL0     H35185   2.091   2.311   6.106 -1.4104 -1.9904  0.4075
  261MOL0     H35186   1.948   2.086   6.103  0.4146  0.2402 -0.8126
  261MOL0     H35187   1.942   1.759   6.111  0.8466 -2.1846  1.3207
  261MOL0     H35188   1.982   1.734   6.280  1.6686  1.4844  1.5578
  261MOL0     H35189   1.776   1.918   6.152  0.4858 -0.3055 -1.1791
  261MOL0     H35190   1.828   1.942   6.320  0.0912  2.3589 -3.1673
  261MOL0     H35191   1.736   1.731   6.368 -2.9020  1.9257  1.0143
  261MOL0     H35192   1.710   1.682   6.206 -4.5070 -0.7351 -0.0516
  261MOL0     H35193   1.588   1.951   6.308  1.6597  0.4507 -1.3732
  261MOL0     H35194   1.502   1.797   6.327  2.6610 -4.0600  0.0097
  261MOL0     H35195   1.545   1.829   5.883 -0.7840  0.2198 -2.4896
  261MOL0     H35196   1.500   1.750   5.676  0.4240 -3.2949 -1.9777
  261MOL0     H35197   1.394   1.608   5.659  1.3087 -3.0698  4.2621
  261MOL0     H35198   1.328   1.772   5.652  2.2260  1.8674  0.0222
  261MOL0     H35199   0.893   1.616   5.763 -0.5129  0.0575 -1.0646
  261MOL0     H35200   0.701   1.483   5.663  0.0382  0.6278  1.3874
  261MOL0     H35201   0.584   1.048   5.748 -0.8353 -0.1906 -0.6403
  261MOL0     H35202   0.588   1.149   5.888  1.1018 -2.7346 -0.5855
  261MOL0     H35203   0.386   1.252   5.827 -1.0947 -2.1207  2.1283
  261MOL0     H35204   0.402   1.224   5.653  2.9873  1.6790 -0.1848
  261MOL0     H35205   0.373   0.954   5.744  2.4302  0.6018  0.7308
  261MOL0     H35206   0.230   1.046   5.711 -2.5168 -3.3040  3.2003
  261MOL0     H35207   0.350   1.026   5.984 -1.2249 -1.9185  1.1752
  261MOL0     H35208   0.232   1.154   5.944 -2.5443  0.0438 -1.0246
  261MOL0     H35209   0.059   1.003   5.909 -0.8096  1.5095  2.4630
  261MOL0     H35210   0.142   0.975   6.063 -0.1222  2.7393 -0.3768
  261MOL0     H35211   0.167   0.795   5.816 -2.1654 -0.5970  0.2264
  261MOL0     H35212   0.276   0.788   5.955  0.1278  1.3613  0.5526
  261MOL0     H35213  -0.026   0.732   5.958  0.2779 -0.1842 -0.7609
  261MOL0     H35214   0.082   0.734   6.107  0.8256  0.4443  0.3913
  261MOL0     H35215   0.062   0.488   6.035  0.4525  0.3588  0.1457
  261MOL0     H35216   0.221   0.540   5.991  0.0437 -0.9398 -1.6284
  261MOL0     H35217   0.836   1.132   5.882 -0.6133  0.5031  1.1749
  261MOL0     H35218   1.026   1.262   5.957 -1.1444 -1.5202  0.1201
  261MOL0     H35219   1.189   1.589   6.108  1.8281  0.2185  3.1516
  261MOL0     H35220   1.333   1.701   6.235 -0.2965 -3.0003  0.0761
  261MOL0     H35221   2.974   1.776   5.873 -0.9165  0.4851 -0.6927
  261MOL0     H35222   2.992   1.542   5.939  0.2436 -0.5656  0.8094
  261MOL0     H35223   3.416   1.241   6.288  2.1026 -0.8501 -0.6623
  261MOL0     H35224   3.433   0.999   6.295 -0.5050 -2.1473  0.2679
  261MOL0     H35225   3.057   0.744   6.237  0.5560  0.3894  0.5317
  261MOL0     H35226   3.157   0.732   6.085  2.1889 -1.7819  0.0104
  261MOL0     H35227   3.310   0.584   6.183  0.5252 -3.1753  1.1974
  261MOL0     H35228   3.155   0.525   6.190 -0.9066  1.3467 -1.2851
  261MOL0     H35229   3.305   0.644   6.432 -1.6157  1.4898 -1.4477
  261MOL0     H35230   3.301   0.478   6.392 -0.0182  0.5217 -2.4462
  261MOL0     H35231   3.028   0.598   6.443 -0.6945 -3.1026 -3.1129
  261MOL0     H35232   3.159   0.572   6.576  1.3104 -0.4761 -0.4340
  261MOL0     H35233   3.058   0.169   6.497  1.7705  1.0034  1.9198
  261MOL0     H35234   3.022   0.973   6.163 -1.5562  2.2718  0.3573
  261MOL0     H35235   3.015   1.218   6.153  0.2236  0.4056  1.2092
  262MOL0     O35236   6.616   6.820   9.645 -0.0893  0.2988 -0.0424
  262MOL0     C35237   6.707   6.768   9.582  0.4246  0.6735 -0.1736
  262MOL0     O35238   6.690   6.658   9.499 -0.3206 -0.3341  0.0252
  262MOL0     C35239   6.572   6.633   9.437  0.2726 -0.1265 -0.4512
  262MOL0     C35240   6.467   6.726   9.409  0.6269 -0.4781 -0.9892
  262MOL0     C35241   6.342   6.675   9.362  0.2175 -0.0797  0.7499
  262MOL0     C35242   6.328   6.544   9.321 -1.2352  0.7319  1.1616
  262MOL0     O35243   6.212   6.489   9.272  0.0026 -0.0091  0.2984
  262MOL0     C35244   6.222   6.439   9.135 -0.4175  0.4041 -0.1723
  262MOL0     C35245   6.218   6.556   9.032  0.5928 -0.2327  0.3243
  262MOL0     C35246   6.094   6.641   9.033  0.0176  0.2067  1.1037
  262MOL0     C35247   6.003   6.586   8.925 -0.0905 -0.6769 -0.4727
  262MOL0     C35248   5.908   6.692   8.873  0.1960 -0.5427 -0.2379
  262MOL0     C35249   5.800   6.643   8.786 -0.0420  0.5275  0.0888
  262MOL0     C35250   5.677   6.591   8.858 -0.0991 -1.2081  0.4487
  262MOL0     C35251   5.563   6.549   8.761 -0.1928  0.1280 -0.6781
  262MOL0     N35252   5.445   6.517   8.849  0.6643  0.3177 -0.1826
  262MOL0     C35253   5.434   6.388   8.898  0.2194 -0.6106  0.2185
  262MOL0     C35254   5.340   6.398   8.994  0.3349 -0.0054 -0.4902
  262MOL0     C35255   5.308   6.295   9.083  0.9934  0.3208 -0.5556
  262MOL0     C35256   5.166   6.233   9.065 -0.1764  0.5156 -0.0808
  262MOL0     C35257   5.162   6.095   8.981 -0.1401  0.0694 -0.3880
  262MOL0     C35258   5.047   6.012   9.008  0.5441 -0.2105 -0.1066
  262MOL0     O35259   5.049   5.986   9.148 -0.3670  0.0325  0.0603
  262MOL0     C35260   4.930   5.973   9.211 -0.2040 -0.2592  0.6282
  262MOL0     C35261   4.926   6.020   9.340  0.1631  0.9021  0.0898
  262MOL0     C35262   4.806   6.020   9.409 -0.0131  0.1091  1.1365
  262MOL0     C35263   4.813   6.072   9.551  0.9195 -0.3550  0.9592
  262MOL0     C35264   4.689   5.955   9.345 -0.6075 -0.3084 -0.5532
  262MOL0     C35265   4.560   5.949   9.423 -1.3483 -0.6436  0.1412
  262MOL0     O35266   4.518   6.071   9.469 -0.3929  0.0636  0.2839
  262MOL0     C35267   4.403   6.070   9.520 -0.3697 -0.3143  0.1809
  262MOL0     C35268   4.385   6.100   9.658 -0.5190  0.5455 -0.3726
  262MOL0     C35269   4.257   6.115   9.720  1.0295 -0.1558  0.8920
  262MOL0     C35270   4.146   6.100   9.637 -0.1399 -0.5583  0.4055
  262MOL0     O35271   4.028   6.114   9.698  0.4548  0.5421 -0.0614
  262MOL0     C35272   3.913   6.120   9.615 -0.0513  0.2745 -0.0382
  262MOL0     C35273   3.785   6.146   9.684  0.0070 -0.5944  0.2324
  262MOL0     C35274   3.659   6.146   9.599 -0.3799  0.0550 -0.6629
  262MOL0     C35275   3.654   6.274   9.518 -0.1747  0.4375  1.2372
  262MOL0     C35276   3.511   6.316   9.477 -0.2369  0.4609  0.3561
  262MOL0     C35277   3.448   6.248   9.354  0.3214  0.1210 -0.5496
  262MOL0     C35278   3.334   6.324   9.287 -0.0540  0.2049  0.0118
  262MOL0     C35279   3.360   6.345   9.136  0.2008  0.5310 -0.6783
  262MOL0    Cl35280   3.479   6.478   9.125  0.7680  0.2004 -0.4057
  262MOL0     C35281   4.163   6.072   9.501 -1.2252  0.1189 -0.7794
  262MOL0     C35282   4.288   6.047   9.444 -0.5867  0.3523 -0.2314
  262MOL0     O35283   4.512   5.841   9.443  0.0677 -0.1987 -0.4530
  262MOL0     C35284   4.698   5.893   9.223  0.3697 -0.2521 -0.3716
  262MOL0     C35285   4.816   5.908   9.154 -0.8195  0.3801 -0.0604
  262MOL0     N35286   5.304   6.533   9.009 -0.2369 -0.2993 -0.4999
  262MOL0     N35287   5.372   6.601   8.923  0.1353  0.3252 -0.4209
  262MOL0     C35288   6.440   6.461   9.333  0.1474 -0.2441 -0.6867
  262MOL0     C35289   6.564   6.499   9.393  0.3718 -0.0167  0.4989
  262MOL0     C35290   6.840   6.804   9.627  0.1164 -1.1145 -0.3275
  262MOL0     C35291   6.950   6.727   9.593  0.0117  0.6297 -0.4525
  262MOL0     C35292   7.078   6.773   9.613 -0.5970 -0.4459  0.2210
  262MOL0     C35293   7.104   6.895   9.676 -0.4663 -0.3244 -0.7011
  262MOL0     O35294   7.233   6.944   9.678  0.3533  0.5692  0.0519
  262MOL0     C35295   7.264   7.064   9.742  0.7132 -0.7568  0.0875
  262MOL0     C35296   7.265   7.056   9.893 -0.1967 -0.6106  0.2233
  262MOL0     C35297   7.409   7.019   9.953  0.8551 -0.6075  1.2761
  262MOL0     C35298   7.407   7.009  10.103  0.1064  0.2466  0.6225
  262MOL0     C35299   7.539   6.981  10.161  0.2806  0.1756  0.2351
  262MOL0     C35300   7.646   6.972  10.205 -0.4191  0.4061  0.3493
  262MOL0     C35301   6.992   6.973   9.716 -0.4014  0.1244 -0.5366
  262MOL0     C35302   6.859   6.935   9.693  0.1060  0.3215 -1.1753
  262MOL0     H35303   6.471   6.832   9.435 -2.9171 -0.6919  0.9969
  262MOL0     H35304   6.257   6.741   9.355  0.5813  0.2213 -1.9457
  262MOL0     H35305   6.310   6.377   9.110  0.1702  2.1223 -2.7619
  262MOL0     H35306   6.131   6.380   9.124  1.0778 -1.9332 -0.8630
  262MOL0     H35307   6.309   6.611   9.055  1.8768 -2.5745  1.1107
  262MOL0     H35308   6.231   6.518   8.930 -0.3092  0.5945 -0.1247
  262MOL0     H35309   6.042   6.634   9.128  0.1478  0.0879  1.1677
  262MOL0     H35310   6.118   6.743   9.001  0.2226  0.8882  3.2901
  262MOL0     H35311   6.048   6.542   8.836 -0.8600  0.6008 -1.5407
  262MOL0     H35312   5.948   6.510   8.981  1.3027 -1.8418 -0.6202
  262MOL0     H35313   5.865   6.755   8.950 -0.0691 -0.1987 -0.6638
  262MOL0     H35314   5.982   6.752   8.820  1.2725  0.0167  1.8119
  262MOL0     H35315   5.764   6.736   8.740  0.1798  2.6588  3.8284
  262MOL0     H35316   5.833   6.569   8.713 -1.1591 -1.6096  1.6464
  262MOL0     H35317   5.701   6.507   8.924 -3.5464 -4.3844 -1.9689
  262MOL0     H35318   5.641   6.666   8.928 -1.9591  1.1079 -2.7341
  262MOL0     H35319   5.598   6.459   8.709  3.2851 -0.4520  2.2875
  262MOL0     H35320   5.544   6.627   8.687  1.0266  1.4269  0.3312
  262MOL0     H35321   5.504   6.307   8.879 -0.2320 -0.8016 -0.6994
  262MOL0     H35322   5.384   6.217   9.069  3.7011  2.5152  0.7623
  262MOL0     H35323   5.310   6.332   9.186  3.3827 -0.9992 -0.0457
  262MOL0     H35324   5.103   6.313   9.024  1.3751  1.4517 -0.7256
  262MOL0     H35325   5.127   6.210   9.165  1.7116  2.3075  1.1652
  262MOL0     H35326   5.254   6.039   8.999 -0.9071 -1.0120  0.2763
  262MOL0     H35327   5.171   6.133   8.879 -0.2300  0.7260 -0.1622
  262MOL0     H35328   5.060   5.911   8.969 -1.8433 -0.9902  0.9401
  262MOL0     H35329   4.954   6.054   8.970  0.2664 -0.8453 -0.1417
  262MOL0     H35330   5.013   6.062   9.390  1.0194 -0.1341 -0.4974
  262MOL0     H35331   4.755   6.165   9.550  0.3985 -0.6805  0.3788
  262MOL0     H35332   4.762   5.999   9.614  0.3446 -3.1229 -2.3964
  262MOL0     H35333   4.919   6.090   9.571  1.8324 -2.1026 -1.7363
  262MOL0     H35334   4.470   6.125   9.720 -0.1974  1.1945 -1.0628
  262MOL0     H35335   4.245   6.143   9.824  0.1680  0.8991  0.5279
  262MOL0     H35336   3.920   6.201   9.543 -1.1694  1.5346  1.2154
  262MOL0     H35337   3.905   6.024   9.563  0.9881 -0.0091  0.2924
  262MOL0     H35338   3.766   6.067   9.758 -1.0691 -3.2561 -2.6904
  262MOL0     H35339   3.794   6.235   9.746 -2.2637 -0.2759  0.1833
  262MOL0     H35340   3.576   6.150   9.670 -0.0290 -0.8179 -0.2005
  262MOL0     H35341   3.638   6.055   9.543  2.1575  0.0691 -1.7373
  262MOL0     H35342   3.685   6.361   9.577  1.0895 -0.5284  2.0340
  262MOL0     H35343   3.719   6.253   9.432 -1.5435  1.7291 -0.1878
  262MOL0     H35344   3.526   6.415   9.432 -0.4523 -0.3763 -1.6963
  262MOL0     H35345   3.445   6.324   9.564  0.9065 -0.3266  1.3284
  262MOL0     H35346   3.522   6.226   9.277  0.0817 -0.5551 -0.5916
  262MOL0     H35347   3.410   6.146   9.371 -1.3085  0.5187 -1.5750
  262MOL0     H35348   3.326   6.426   9.324 -1.1660  0.6318 -1.3072
  262MOL0     H35349   3.241   6.272   9.312  0.2397  1.3746  4.1022
  262MOL0     H35350   3.267   6.382   9.092 -0.7085 -1.2282 -0.3321
  262MOL0     H35351   3.403   6.253   9.095  0.0576 -0.0793  0.4982
  262MOL0     H35352   4.077   6.061   9.436 -3.3912 -0.7350  2.0166
  262MOL0     H35353   4.302   6.027   9.339 -2.3183  1.8460 -0.7848
  262MOL0     H35354   4.633   5.824   9.171 -0.5093  0.1528  0.1554
  262MOL0     H35355   4.828   5.861   9.056  4.3073  1.7369 -0.4002
  262MOL0     H35356   6.427   6.358   9.299 -5.3498  0.0942 -0.4753
  262MOL0     H35357   6.646   6.429   9.401 -1.3420 -2.4906 -1.7164
  262MOL0     H35358   6.934   6.628   9.551  2.9412  0.1376 -0.5540
  262MOL0     H35359   7.169   6.724   9.579  0.3945  2.0997 -1.0192
  262MOL0     H35360   7.362   7.104   9.712  1.2435 -1.7184  0.5173
  262MOL0     H35361   7.184   7.135   9.717 -0.8256 -1.3002  3.0659
  262MOL0     H35362   7.180   6.993   9.921 -1.0725  1.2333  1.9225
  262MOL0     H35363   7.242   7.155   9.933  0.1865  0.7109 -2.5883
  262MOL0     H35364   7.484   7.093   9.924  2.0456  0.0405  5.3429
  262MOL0     H35365   7.433   6.933   9.890 -1.9506 -0.5713 -0.0143
  262MOL0     H35366   7.343   6.925  10.131 -0.1558  0.4744  0.7080
  262MOL0     H35367   7.370   7.097  10.156 -3.4474 -1.0130  0.5275
  262MOL0     H35368   7.741   6.948  10.249  1.2501 -0.0480 -3.2115
  262MOL0     H35369   7.003   7.071   9.761  0.5399  0.5966 -1.7370
  262MOL0     H35370   6.794   7.002   9.748  0.5800 -0.3608  0.3061
  263MOL0     O35371   7.764   0.745   6.417  0.1401 -0.1684 -0.0888
  263MOL0     C35372   7.886   0.729   6.450  0.7018  0.3755  0.9040
  263MOL0     O35373   7.946   0.736   6.567  0.8042  0.1887 -0.3426
  263MOL0     C35374   7.862   0.769   6.671 -0.6360 -0.1748 -0.8894
  263MOL0     C35375   7.841   0.669   6.768 -0.6459  0.1053 -0.7577
  263MOL0     C35376   7.761   0.693   6.882 -0.0120 -0.6068 -0.1835
  263MOL0     C35377   7.714   0.822   6.909 -0.1237 -0.0972 -0.4662
  263MOL0     O35378   7.634   0.833   7.020  0.3049  1.0821 -0.0758
  263MOL0     C35379   7.536   0.936   7.031  0.2220  0.7258  0.1218
  263MOL0     C35380   7.466   0.956   7.168 -0.4246  0.6318  1.1803
  263MOL0     C35381   7.418   1.100   7.181  0.5392 -0.3068  0.2901
  263MOL0     C35382   7.309   1.132   7.076 -0.1759  0.8267  0.0592
  263MOL0     C35383   7.224   1.243   7.128  0.7075  0.6908  0.0512
  263MOL0     C35384   7.131   1.272   7.016 -0.1008 -0.2123  0.2515
  263MOL0     C35385   7.032   1.386   7.048 -0.0407 -0.0042  0.3635
  263MOL0     C35386   6.906   1.370   6.963 -0.0946 -1.1170  0.3872
  263MOL0     N35387   6.941   1.385   6.825  0.1221 -0.2517 -0.0213
  263MOL0     C35388   7.011   1.498   6.776  0.9153  0.1682  0.4844
  263MOL0     C35389   7.034   1.468   6.637  0.4952 -0.0473 -1.3655
  263MOL0     C35390   7.095   1.558   6.524  0.1134  0.4822 -0.0243
  263MOL0     C35391   6.998   1.571   6.405 -0.2958 -0.2027 -0.4352
  263MOL0     C35392   7.046   1.684   6.307 -0.1328  0.9100  0.8207
  263MOL0     C35393   6.949   1.686   6.195  0.1559 -0.0209  0.5839
  263MOL0     O35394   6.826   1.758   6.227 -0.1549  0.8666  0.3807
  263MOL0     C35395   6.733   1.746   6.125  0.1985 -0.3444  0.6711
  263MOL0     C35396   6.646   1.638   6.120 -0.6903  0.4148 -1.0094
  263MOL0     C35397   6.529   1.639   6.043 -0.0574 -0.1142  0.4748
  263MOL0     C35398   6.443   1.530   6.057  1.2742 -0.3247  0.8675
  263MOL0     C35399   6.497   1.749   5.959  0.3591  0.5902 -0.8348
  263MOL0     C35400   6.372   1.771   5.882 -0.1767 -0.3310 -0.7600
  263MOL0     O35401   6.302   1.677   5.812 -0.4070  0.7981 -0.1612
  263MOL0     C35402   6.166   1.697   5.785 -0.1801 -0.8756 -0.4335
  263MOL0     C35403   6.078   1.743   5.876 -0.5611  0.0404  0.2434
  263MOL0     C35404   5.940   1.747   5.862 -0.0794  0.5793 -0.1659
  263MOL0     C35405   5.889   1.701   5.740 -0.7386 -0.6929 -0.2373
  263MOL0     O35406   5.754   1.718   5.702  0.2467 -0.5814  0.3047
  263MOL0     C35407   5.664   1.631   5.779 -0.3201 -0.3305  0.0397
  263MOL0     C35408   5.680   1.477   5.754 -0.4385  0.6286  0.0673
  263MOL0     C35409   5.790   1.412   5.855 -0.5036 -0.4716  0.3014
  263MOL0     C35410   5.818   1.264   5.809  0.3081 -0.7091 -0.5256
  263MOL0     C35411   5.897   1.184   5.909  1.0782  0.3911  0.2991
  263MOL0     C35412   6.042   1.163   5.865 -0.6221  0.4858 -0.2120
  263MOL0     C35413   6.127   1.303   5.865 -0.4940 -0.0850 -0.1702
  263MOL0     C35414   6.271   1.290   5.835 -0.9321 -0.0107 -0.4502
  263MOL0    Cl35415   6.296   1.209   5.684  0.0480 -0.4610  0.5889
  263MOL0     C35416   5.977   1.664   5.638  0.3492  0.6815  0.0325
  263MOL0     C35417   6.110   1.650   5.665 -0.6422  0.1471 -0.2258
  263MOL0     O35418   6.337   1.896   5.891 -0.0988  0.1910 -0.5581
  263MOL0     C35419   6.595   1.847   5.957  0.9507 -1.1318  0.1508
  263MOL0     C35420   6.710   1.852   6.035  0.6216  0.1281 -0.3041
  263MOL0     N35421   6.977   1.339   6.618 -0.0127 -0.1672  0.5434
  263MOL0     N35422   6.919   1.299   6.721 -0.3367  0.6377 -0.8186
  263MOL0     C35423   7.732   0.921   6.811  0.0369  0.2930 -0.1520
  263MOL0     C35424   7.796   0.896   6.685  0.5250 -0.3318 -0.5474
  263MOL0     C35425   7.977   0.715   6.328 -0.6477  0.3338 -0.2726
  263MOL0     C35426   8.103   0.770   6.346  0.5923  0.1019  0.6201
  263MOL0     C35427   8.207   0.769   6.253  0.6080  0.0455 -0.4959
  263MOL0     C35428   8.176   0.712   6.128  0.3741  0.2917 -0.2516
  263MOL0     O35429   8.275   0.717   6.025 -0.2311  0.1251  0.2012
  263MOL0     C35430   8.250   0.666   5.893 -0.5770 -0.0537 -0.8886
  263MOL0     C35431   8.373   0.687   5.796  0.0995 -0.5296  0.3019
  263MOL0     C35432   8.512   0.643   5.854  0.1968  0.3752 -0.5011
  263MOL0     C35433   8.541   0.489   5.871  0.5300 -0.5331  0.0233
  263MOL0     C35434   8.479   0.426   5.984  0.2703 -0.4191 -1.1208
  263MOL0     C35435   8.433   0.377   6.084  0.8360  0.8557  0.2802
  263MOL0     C35436   8.037   0.669   6.099 -0.1890  0.4246  0.3194
  263MOL0     C35437   7.945   0.664   6.200 -0.5012  0.2542  0.4903
  263MOL0     H35438   7.886   0.573   6.749  0.5044  0.6653 -0.9481
  263MOL0     H35439   7.746   0.604   6.943  1.7684 -1.0512 -0.3378
  263MOL0     H35440   7.574   1.036   7.009 -1.8718  1.8979  1.5088
  263MOL0     H35441   7.456   0.908   6.962  2.6971 -6.6273 -0.6285
  263MOL0     H35442   7.387   0.881   7.175  0.6226 -0.5577  0.7591
  263MOL0     H35443   7.540   0.927   7.243  0.8279  0.7200  0.0325
  263MOL0     H35444   7.381   1.101   7.284  0.8006 -0.8794  0.3948
  263MOL0     H35445   7.497   1.172   7.161 -1.3895  1.5315 -1.2080
  263MOL0     H35446   7.360   1.148   6.981 -0.8012 -1.1311 -0.6618
  263MOL0     H35447   7.249   1.042   7.059  0.4755  1.0436 -4.5245
  263MOL0     H35448   7.184   1.225   7.228 -1.4189 -0.0052 -0.8656
  263MOL0     H35449   7.296   1.325   7.139 -0.0341  1.2093  1.1942
  263MOL0     H35450   7.177   1.298   6.920 -2.2650  2.6028 -0.1359
  263MOL0     H35451   7.076   1.180   6.991  0.6289 -0.6819  0.3267
  263MOL0     H35452   6.992   1.377   7.150 -2.1268  4.8031  0.2442
  263MOL0     H35453   7.080   1.484   7.035 -0.3668  0.3839  1.8908
  263MOL0     H35454   6.846   1.461   6.975  1.0836 -0.0825 -1.1722
  263MOL0     H35455   6.852   1.275   6.973  0.3610 -1.6389 -1.6416
  263MOL0     H35456   7.033   1.596   6.816  1.3106  0.3957 -0.2539
  263MOL0     H35457   7.111   1.657   6.566  0.1221  0.5861 -0.2685
  263MOL0     H35458   7.193   1.534   6.482 -0.3500 -0.0640 -0.8280
  263MOL0     H35459   6.900   1.607   6.438  0.7405  1.6149  0.8330
  263MOL0     H35460   6.987   1.477   6.350 -3.2184 -0.4271  0.3868
  263MOL0     H35461   7.144   1.655   6.265 -0.1237  1.2848  0.5842
  263MOL0     H35462   7.053   1.777   6.363  0.0557 -0.0252  2.4418
  263MOL0     H35463   6.929   1.584   6.161  0.6992  0.7330 -2.2835
  263MOL0     H35464   7.002   1.742   6.117  0.0868 -2.1726 -1.0960
  263MOL0     H35465   6.653   1.555   6.189 -1.3123  2.2412  1.3685
  263MOL0     H35466   6.417   1.504   6.160 -3.4004 -2.2285 -0.5421
  263MOL0     H35467   6.351   1.555   6.003  1.3962 -1.0200  0.3329
  263MOL0     H35468   6.473   1.441   6.001  0.0750 -0.7560  0.8739
  263MOL0     H35469   6.125   1.790   5.962 -0.0637  1.8698 -0.9550
  263MOL0     H35470   5.873   1.782   5.940 -1.0695 -0.1954 -0.6479
  263MOL0     H35471   5.656   1.635   5.888 -0.9245 -0.4795  0.0065
  263MOL0     H35472   5.565   1.664   5.748 -0.0478  1.8326  1.3080
  263MOL0     H35473   5.579   1.436   5.768 -0.9600  0.8065 -2.6073
  263MOL0     H35474   5.701   1.453   5.650 -0.3127  1.0718 -0.0111
  263MOL0     H35475   5.742   1.410   5.953 -2.7280  0.5104 -0.6932
  263MOL0     H35476   5.883   1.470   5.845 -1.5013  1.1985  0.4074
  263MOL0     H35477   5.724   1.208   5.800  0.1038 -0.4431 -0.0998
  263MOL0     H35478   5.869   1.263   5.712  1.7596 -0.5205  0.2071
  263MOL0     H35479   5.859   1.082   5.903 -0.8546  1.0455  0.4803
  263MOL0     H35480   5.899   1.224   6.011  1.9880 -1.9040  1.2342
  263MOL0     H35481   6.094   1.081   5.916 -0.0923 -1.3796 -3.5053
  263MOL0     H35482   6.042   1.136   5.759 -0.2634 -2.9327  0.5537
  263MOL0     H35483   6.121   1.354   5.962 -1.2707  0.1621 -0.3365
  263MOL0     H35484   6.085   1.372   5.791 -4.8594 -0.7341  1.3867
  263MOL0     H35485   6.322   1.249   5.922 -0.8743  0.2374 -0.3661
  263MOL0     H35486   6.309   1.392   5.820  2.2052 -1.0993 -0.5925
  263MOL0     H35487   5.941   1.642   5.538  2.2690 -3.6437  0.0613
  263MOL0     H35488   6.183   1.614   5.592  0.2009 -0.9432  1.0986
  263MOL0     H35489   6.575   1.934   5.896 -2.9375 -1.8871  0.0902
  263MOL0     H35490   6.763   1.945   6.050 -0.1612  0.5152  0.0543
  263MOL0     H35491   7.683   1.017   6.820 -0.5769  0.4515 -3.9541
  263MOL0     H35492   7.798   0.981   6.617 -0.3020 -0.7709 -1.1313
  263MOL0     H35493   8.153   0.809   6.434  3.0240  0.1856 -0.7011
  263MOL0     H35494   8.304   0.812   6.274  0.4651  0.3341 -0.4232
  263MOL0     H35495   8.240   0.557   5.904 -0.3314 -0.4273 -3.5953
  263MOL0     H35496   8.159   0.708   5.850 -0.2488 -0.4532 -2.0009
  263MOL0     H35497   8.378   0.787   5.754 -3.9001 -0.0587  0.5836
  263MOL0     H35498   8.361   0.617   5.712  4.5169 -3.9059  2.0493
  263MOL0     H35499   8.525   0.693   5.950 -1.1220 -1.5604  0.7663
  263MOL0     H35500   8.586   0.677   5.781 -0.4207 -0.3612 -1.5022
  263MOL0     H35501   8.649   0.490   5.889  0.7825 -0.5471 -1.3683
  263MOL0     H35502   8.525   0.434   5.777 -0.6201 -1.2185  0.5884
  263MOL0     H35503   8.392   0.333   6.173  0.7281  1.3477  0.4751
  263MOL0     H35504   8.013   0.628   6.001  0.4633 -0.9009  0.6848
  263MOL0     H35505   7.843   0.635   6.181  0.1724 -0.3165 -3.0478
  264MOL0     O35506   8.837   1.214  10.735  0.0675  0.5222  0.1533
  264MOL0     C35507   8.848   1.327  10.784 -0.5584 -0.1372 -0.2225
  264MOL0     O35508   8.750   1.424  10.794  0.3289 -0.4070 -1.1138
  264MOL0     C35509   8.625   1.392  10.744 -0.1437 -0.5465 -0.4425
  264MOL0     C35510   8.518   1.453  10.806 -0.2577  0.0499  0.9369
  264MOL0     C35511   8.389   1.428  10.760  0.2889 -0.0025  1.2173
  264MOL0     C35512   8.359   1.356  10.645  0.3463 -0.2834 -0.5002
  264MOL0     O35513   8.225   1.342  10.615 -0.1034 -0.0662  0.1089
  264MOL0     C35514   8.189   1.287  10.488 -0.5995 -0.3315 -0.1204
  264MOL0     C35515   8.039   1.315  10.467  0.9470 -0.2413  0.0477
  264MOL0     C35516   7.993   1.219  10.352  0.3283 -0.2417 -0.1255
  264MOL0     C35517   7.838   1.236  10.327 -0.6773  0.9446  0.4776
  264MOL0     C35518   7.775   1.107  10.264  0.3271 -0.3223  0.4575
  264MOL0     C35519   7.831   1.094  10.117 -0.5568 -0.0563  0.7192
  264MOL0     C35520   7.773   0.968  10.068  0.1231 -0.3964  0.4386
  264MOL0     C35521   7.832   0.933   9.932 -0.5089  0.7940 -0.3221
  264MOL0     N35522   7.754   0.988   9.815 -0.2373  0.1837 -0.6712
  264MOL0     C35523   7.778   1.111   9.756  0.2566 -0.1745 -0.4603
  264MOL0     C35524   7.675   1.108   9.659 -0.2351  0.0556 -0.0585
  264MOL0     C35525   7.643   1.225   9.572  0.2123 -0.4388 -0.0769
  264MOL0     C35526   7.588   1.347   9.651  0.2073 -0.0105 -0.2930
  264MOL0     C35527   7.464   1.301   9.720  0.6868 -0.3308  0.5763
  264MOL0     C35528   7.364   1.411   9.731 -1.4956 -0.1941  0.2314
  264MOL0     O35529   7.298   1.438   9.608 -0.7713  0.0228 -0.2593
  264MOL0     C35530   7.179   1.495   9.611  0.0523  0.0397 -0.3447
  264MOL0     C35531   7.167   1.630   9.574 -0.4845  0.3608 -0.5411
  264MOL0     C35532   7.039   1.695   9.582 -0.6673 -1.1419 -0.3139
  264MOL0     C35533   7.030   1.844   9.560 -0.5818  1.2569  0.3037
  264MOL0     C35534   6.935   1.630   9.648  0.5686 -0.2711 -0.3045
  264MOL0     C35535   6.808   1.689   9.668 -0.5459 -0.5490 -0.7491
  264MOL0     O35536   6.778   1.731   9.797  0.7463  0.1287 -0.6343
  264MOL0     C35537   6.651   1.784   9.818  0.7109  0.0028 -0.3256
  264MOL0     C35538   6.635   1.922   9.816 -0.0337  0.3451  0.5205
  264MOL0     C35539   6.508   1.976   9.809 -0.2512  0.9675  0.2394
  264MOL0     C35540   6.402   1.884   9.814  0.2741  0.6593  0.7217
  264MOL0     O35541   6.272   1.919   9.797 -0.0886  0.5184  0.5125
  264MOL0     C35542   6.220   2.050   9.813 -0.2153  0.6220 -1.0956
  264MOL0     C35543   6.066   2.033   9.836 -0.3223 -0.0649  0.8210
  264MOL0     C35544   5.995   1.945   9.736  0.2212 -0.5823  0.8953
  264MOL0     C35545   5.845   1.945   9.762 -0.2817 -0.8172  0.2682
  264MOL0     C35546   5.777   1.834   9.681 -0.1008 -0.3645  0.3222
  264MOL0     C35547   5.615   1.846   9.703  0.1537 -0.2335  0.5495
  264MOL0     C35548   5.546   1.742   9.613  0.4696  0.4243 -0.2428
  264MOL0     C35549   5.392   1.742   9.604 -0.0428  0.0757 -0.5057
  264MOL0    Cl35550   5.323   1.879   9.526 -0.3123  0.2183  0.0731
  264MOL0     C35551   6.427   1.739   9.826  0.0735 -1.0034  0.0057
  264MOL0     C35552   6.554   1.691   9.835  0.9837  0.3407  0.7912
  264MOL0     O35553   6.735   1.704   9.574  0.7223  0.3914 -0.0139
  264MOL0     C35554   6.950   1.499   9.693  0.3613  0.2220 -0.1765
  264MOL0     C35555   7.071   1.430   9.678 -0.0851 -0.4323  0.2314
  264MOL0     N35556   7.622   0.980   9.644 -0.1729 -1.0327  0.6769
  264MOL0     N35557   7.674   0.910   9.742 -0.5641 -0.2877  0.0463
  264MOL0     C35558   8.461   1.299  10.583 -0.5515 -0.6727 -0.3469
  264MOL0     C35559   8.599   1.327  10.624  0.0715 -0.0855 -0.2589
  264MOL0     C35560   8.978   1.360  10.852  0.7425  1.0336 -0.5312
  264MOL0     C35561   9.095   1.292  10.815  0.6873 -0.8591  0.8544
  264MOL0     C35562   9.212   1.301  10.889 -0.5057  0.2812  0.6377
  264MOL0     C35563   9.210   1.382  11.009  0.6218  0.7777  0.4311
  264MOL0     O35564   9.325   1.405  11.079 -0.2325 -0.8055  0.0632
  264MOL0     C35565   9.448   1.371  11.028  0.0390  0.0216  0.1830
  264MOL0     C35566   9.499   1.237  11.068  0.1714 -0.1067 -0.7879
  264MOL0     C35567   9.643   1.190  11.021 -0.1674 -0.5713  0.2642
  264MOL0     C35568   9.704   1.079  11.116  0.1975  0.3579 -0.1512
  264MOL0     C35569   9.818   1.007  11.061  0.4912  1.4394 -0.0974
  264MOL0     C35570   9.926   0.956  11.021 -0.8765  0.0563  0.2189
  264MOL0     C35571   9.090   1.426  11.059 -0.7500  0.0741  1.3456
  264MOL0     C35572   8.974   1.425  10.979 -0.5326 -0.3377  0.4039
  264MOL0     H35573   8.537   1.518  10.891 -0.7484  4.0844 -1.7404
  264MOL0     H35574   8.306   1.476  10.812 -0.3896  1.2354 -0.8388
  264MOL0     H35575   8.243   1.326  10.401  0.5521  4.0121  2.2735
  264MOL0     H35576   8.219   1.181  10.492  2.2253  0.4099  2.8587
  264MOL0     H35577   7.983   1.310  10.561  1.9711  0.8293  0.7392
  264MOL0     H35578   8.030   1.418  10.431 -1.2465 -0.1115  0.7702
  264MOL0     H35579   8.048   1.253  10.264 -1.8757 -3.0066 -2.8191
  264MOL0     H35580   8.020   1.118  10.384 -0.9900 -1.0187 -1.3586
  264MOL0     H35581   7.787   1.269  10.418  1.4491 -1.4879  2.7234
  264MOL0     H35582   7.829   1.325  10.263 -2.8066  0.8323  0.5543
  264MOL0     H35583   7.808   1.020  10.321  1.0681  0.6059  1.4789
  264MOL0     H35584   7.666   1.118  10.263  0.6058  4.5399 -0.2713
  264MOL0     H35585   7.806   1.178  10.052  1.6422 -0.9696 -1.4625
  264MOL0     H35586   7.939   1.077  10.123 -0.8679 -2.4750  0.3845
  264MOL0     H35587   7.792   0.889  10.141  2.6466  0.2791  0.6107
  264MOL0     H35588   7.664   0.982  10.068  0.4467  3.0605  0.8714
  264MOL0     H35589   7.837   0.824   9.923 -0.4738  0.2920  3.8585
  264MOL0     H35590   7.936   0.962   9.947 -0.9108  0.8866  3.0679
  264MOL0     H35591   7.839   1.191   9.797  1.2971 -0.9942 -0.3627
  264MOL0     H35592   7.735   1.255   9.521  0.1095  2.5070  1.2570
  264MOL0     H35593   7.580   1.196   9.487  1.2461  0.0888 -1.0528
  264MOL0     H35594   7.560   1.437   9.593 -2.7327 -0.1136  0.7887
  264MOL0     H35595   7.669   1.377   9.718  0.3858 -2.8523  0.9001
  264MOL0     H35596   7.489   1.261   9.819  4.1059 -1.1044 -0.4559
  264MOL0     H35597   7.407   1.224   9.669 -3.0808  2.5891 -0.0468
  264MOL0     H35598   7.407   1.500   9.776  1.3614  0.1979 -2.8698
  264MOL0     H35599   7.296   1.359   9.800 -2.8757 -0.1758 -1.0520
  264MOL0     H35600   7.251   1.678   9.526 -0.6666 -0.0878 -1.3378
  264MOL0     H35601   7.132   1.878   9.540 -0.1713 -1.0386 -2.1458
  264MOL0     H35602   6.959   1.856   9.478  1.2386 -1.0636 -1.7826
  264MOL0     H35603   6.994   1.890   9.653  1.9645 -1.0732  2.6698
  264MOL0     H35604   6.717   1.989   9.794  0.0559 -0.9503 -4.2863
  264MOL0     H35605   6.505   2.081   9.781  2.5249  1.0685  0.0815
  264MOL0     H35606   6.271   2.097   9.898  2.5614 -1.8907 -1.2389
  264MOL0     H35607   6.243   2.123   9.735  1.5436 -0.5533 -1.7345
  264MOL0     H35608   6.038   2.002   9.937 -2.7524  0.1653  0.2818
  264MOL0     H35609   6.014   2.127   9.817 -0.2062 -0.2008 -0.2464
  264MOL0     H35610   6.037   1.846   9.760 -2.4006 -1.2796  3.1483
  264MOL0     H35611   6.017   1.973   9.633 -2.8071 -2.0951 -0.3029
  264MOL0     H35612   5.825   1.929   9.869 -1.8024 -1.3525 -0.0730
  264MOL0     H35613   5.805   2.040   9.726  1.2068 -0.9551 -1.9574
  264MOL0     H35614   5.819   1.736   9.704  3.7237  0.6960 -1.3367
  264MOL0     H35615   5.788   1.854   9.574 -1.4471  0.3958  0.3046
  264MOL0     H35616   5.598   1.825   9.809  2.8382  0.0748  1.1159
  264MOL0     H35617   5.587   1.949   9.683  0.2310  0.1096  2.1338
  264MOL0     H35618   5.580   1.644   9.646  0.9035  0.8172  0.4905
  264MOL0     H35619   5.582   1.767   9.512  1.1973 -1.2088 -0.4140
  264MOL0     H35620   5.341   1.737   9.701 -0.0408  0.2725 -0.4940
  264MOL0     H35621   5.362   1.657   9.541 -0.5070  0.4532 -0.8065
  264MOL0     H35622   6.339   1.677   9.834  1.1418 -2.4644  1.0317
  264MOL0     H35623   6.572   1.584   9.833 -0.2804  0.1008  1.0581
  264MOL0     H35624   6.866   1.440   9.726 -1.0167  0.3014 -3.2298
  264MOL0     H35625   7.073   1.330   9.721 -0.4392 -0.7315 -0.4306
  264MOL0     H35626   8.440   1.239  10.495 -1.2281  3.6343 -3.4250
  264MOL0     H35627   8.676   1.278  10.566  0.7621 -1.2081  1.5102
  264MOL0     H35628   9.107   1.223  10.732  1.0702  1.5780 -1.2337
  264MOL0     H35629   9.297   1.262  10.835 -1.2289  4.4833 -4.2845
  264MOL0     H35630   9.460   1.386  10.920  3.4120  0.5153  0.5069
  264MOL0     H35631   9.515   1.447  11.069 -2.1910  1.1105  2.0365
  264MOL0     H35632   9.425   1.165  11.031  0.2478 -0.2556 -0.6535
  264MOL0     H35633   9.498   1.247  11.177  0.9076  0.6440 -0.8421
  264MOL0     H35634   9.709   1.276  11.004 -0.8082  0.2791  1.8440
  264MOL0     H35635   9.630   1.135  10.928 -2.4193 -2.2206  1.4461
  264MOL0     H35636   9.630   1.002  11.141 -0.8997  1.5298  0.3015
  264MOL0     H35637   9.731   1.137  11.205 -3.1954  1.1210  0.5075
  264MOL0     H35638  10.021   0.920  10.988 -1.7371 -1.2610 -0.9327
  264MOL0     H35639   9.085   1.493  11.145 -0.1355  0.7025  0.9072
  264MOL0     H35640   8.876   1.459  11.013 -0.0868 -0.0735  1.4535
  265MOL0     O35641   5.835   3.711   9.338 -0.2955 -0.1114 -0.2305
  265MOL0     C35642   5.914   3.658   9.272 -0.6654  0.0407  0.9040
  265MOL0     O35643   5.892   3.542   9.191  0.4631  0.2049  0.0633
  265MOL0     C35644   5.766   3.485   9.190  0.4365  0.0464 -0.3145
  265MOL0     C35645   5.735   3.408   9.081  0.3394 -0.0966  0.1438
  265MOL0     C35646   5.612   3.353   9.059  0.5079  0.5794  0.0325
  265MOL0     C35647   5.515   3.353   9.152  0.5643 -0.0019 -0.4884
  265MOL0     O35648   5.391   3.296   9.118  0.7674  0.2204  0.1320
  265MOL0     C35649   5.303   3.276   9.241 -0.1179 -0.0890  0.2911
  265MOL0     C35650   5.186   3.180   9.213 -0.2354 -0.6603 -0.3156
  265MOL0     C35651   5.107   3.130   9.331  0.9615 -0.0950 -0.0785
  265MOL0     C35652   5.029   3.246   9.406 -0.1669 -0.6762  0.3386
  265MOL0     C35653   4.911   3.211   9.496  0.1358  0.4542 -0.1135
  265MOL0     C35654   4.953   3.207   9.641  1.2743 -0.1528 -0.0794
  265MOL0     C35655   4.838   3.175   9.745  0.1562 -0.0345  0.3340
  265MOL0     C35656   4.705   3.251   9.726 -0.5778  0.5616  0.0871
  265MOL0     N35657   4.627   3.259   9.850  0.2100 -0.4530 -0.2660
  265MOL0     C35658   4.549   3.150   9.903  0.5985  0.2250  0.1062
  265MOL0     C35659   4.466   3.218   9.986  0.9178  0.0479 -0.3422
  265MOL0     C35660   4.365   3.143  10.064  0.7154  0.2495 -0.0213
  265MOL0     C35661   4.242   3.244  10.092 -0.5585  0.8113  0.1689
  265MOL0     C35662   4.107   3.167  10.130 -0.6800 -0.0522  0.2120
  265MOL0     C35663   4.003   3.277  10.137  0.5215  1.0276  0.7114
  265MOL0     O35664   3.884   3.203  10.186  0.1258 -0.7736 -0.2232
  265MOL0     C35665   3.764   3.277  10.171 -0.6599  0.0960  0.4137
  265MOL0     C35666   3.650   3.216  10.216  0.5584  0.0877  0.2766
  265MOL0     C35667   3.528   3.285  10.238 -0.4014  0.0520  0.7310
  265MOL0     C35668   3.431   3.223  10.334  0.5416 -0.7741 -0.0311
  265MOL0     C35669   3.513   3.421  10.191  0.4033  0.6597 -0.0697
  265MOL0     C35670   3.391   3.496  10.210  0.5216  0.7557 -0.1449
  265MOL0     O35671   3.271   3.440  10.221  0.3118 -0.6664  0.0492
  265MOL0     C35672   3.158   3.523  10.235 -0.2258  0.4813  0.6715
  265MOL0     C35673   3.133   3.649  10.163  0.5205  0.7014 -0.3605
  265MOL0     C35674   3.022   3.722  10.184 -0.1938  0.2379 -0.4436
  265MOL0     C35675   2.930   3.685  10.290  0.9709  0.5443  0.4598
  265MOL0     O35676   2.815   3.753  10.323 -0.0281  0.4243  0.3738
  265MOL0     C35677   2.806   3.894  10.309 -0.4819  0.5025  0.6677
  265MOL0     C35678   2.673   3.928  10.239 -0.2129  0.0214  0.4645
  265MOL0     C35679   2.541   3.925  10.316 -0.1562  0.5995 -0.2987
  265MOL0     C35680   2.437   3.997  10.235  0.0668 -1.6555 -0.4055
  265MOL0     C35681   2.294   3.981  10.288 -0.1069 -0.4069 -0.0023
  265MOL0     C35682   2.204   4.055  10.186 -0.2746  0.2212  0.3621
  265MOL0     C35683   2.054   4.075  10.212 -0.4114 -1.2615 -0.6794
  265MOL0     C35684   2.029   4.202  10.296  0.2330 -0.1296 -0.0833
  265MOL0    Cl35685   2.047   4.347  10.190  0.1269  0.2589  0.4013
  265MOL0     C35686   2.956   3.575  10.369  1.0918  0.4185  0.5556
  265MOL0     C35687   3.061   3.485  10.335  0.0795 -0.4507  0.2402
  265MOL0     O35688   3.422   3.608  10.246  0.0071 -0.4607  0.0245
  265MOL0     C35689   3.633   3.482  10.136 -0.2193 -0.3345  0.0980
  265MOL0     C35690   3.748   3.404  10.123 -1.2589 -0.4151  0.1770
  265MOL0     N35691   4.484   3.354   9.985  0.1940 -0.0115  0.9886
  265MOL0     N35692   4.592   3.374   9.910  0.5380  0.4381 -0.2688
  265MOL0     C35693   5.537   3.433   9.266 -0.7690  0.7109 -0.2373
  265MOL0     C35694   5.662   3.492   9.288  0.1608 -0.6495 -0.7152
  265MOL0     C35695   6.055   3.733   9.268 -0.2607  0.6119 -0.4613
  265MOL0     C35696   6.164   3.676   9.198  0.2617  0.1447 -1.4866
  265MOL0     C35697   6.282   3.745   9.184 -0.6093  0.4654  0.4224
  265MOL0     C35698   6.306   3.868   9.245  0.6105  0.4741  1.2689
  265MOL0     O35699   6.418   3.938   9.215 -0.1176  0.7707 -0.4952
  265MOL0     C35700   6.501   3.962   9.338 -0.8417  0.1930 -0.3712
  265MOL0     C35701   6.633   3.992   9.281  0.2066  0.0786 -0.2876
  265MOL0     C35702   6.698   3.882   9.202  0.2837 -0.6354  0.3383
  265MOL0     C35703   6.703   3.740   9.275 -1.1614 -0.6495 -0.1574
  265MOL0     C35704   6.796   3.654   9.202  0.1148  0.2869  0.5503
  265MOL0     C35705   6.862   3.562   9.161 -0.4089  0.1018  0.0319
  265MOL0     C35706   6.203   3.911   9.333 -0.5653 -0.2073  0.4740
  265MOL0     C35707   6.079   3.851   9.336  0.5049 -0.2582 -0.5551
  265MOL0     H35708   5.813   3.401   9.005 -0.1401  1.4937 -0.5490
  265MOL0     H35709   5.595   3.319   8.957 -0.8685  1.1715  0.0456
  265MOL0     H35710   5.359   3.236   9.327 -1.4448 -0.8544  0.8213
  265MOL0     H35711   5.266   3.377   9.262  2.1409  1.4895 -2.6000
  265MOL0     H35712   5.121   3.225   9.137  0.5704 -0.7098 -1.0393
  265MOL0     H35713   5.230   3.094   9.162 -1.6252 -0.9721 -1.0549
  265MOL0     H35714   5.042   3.054   9.287  1.9913 -0.8977 -0.2511
  265MOL0     H35715   5.175   3.074   9.395  0.7520 -0.7840 -0.4500
  265MOL0     H35716   5.101   3.300   9.467 -0.3204 -1.9109  1.6513
  265MOL0     H35717   5.001   3.318   9.328 -0.6601  0.5327  1.6056
  265MOL0     H35718   4.826   3.279   9.497 -1.5720 -1.4528  3.0808
  265MOL0     H35719   4.877   3.110   9.471 -3.3167  2.1678 -3.1498
  265MOL0     H35720   5.026   3.126   9.638  2.7063  1.0134  1.5763
  265MOL0     H35721   4.995   3.302   9.675 -1.5750  1.2190 -0.1088
  265MOL0     H35722   4.805   3.074   9.722  0.1118  0.1256 -0.3254
  265MOL0     H35723   4.873   3.177   9.849 -0.2774 -0.8999  0.5085
  265MOL0     H35724   4.646   3.213   9.641 -0.2184  1.7370 -0.7173
  265MOL0     H35725   4.733   3.354   9.700 -0.8569 -0.3707 -5.1387
  265MOL0     H35726   4.567   3.044   9.885 -0.2630  0.4094 -2.2739
  265MOL0     H35727   4.334   3.072   9.987 -1.4217  0.4581  0.5986
  265MOL0     H35728   4.385   3.089  10.158 -1.0268 -1.8031 -0.7398
  265MOL0     H35729   4.228   3.307  10.003  0.5327  1.8130  0.6675
  265MOL0     H35730   4.272   3.309  10.174  2.9566 -0.9062  0.4196
  265MOL0     H35731   4.110   3.108  10.222 -2.4635  0.7463  0.8425
  265MOL0     H35732   4.073   3.099  10.052  0.0912  0.5494 -0.6692
  265MOL0     H35733   3.995   3.324  10.039  1.5150  0.7660  0.4962
  265MOL0     H35734   4.033   3.349  10.214  1.1146 -0.1287  1.5903
  265MOL0     H35735   3.660   3.114  10.253  2.1919  0.4802  0.9912
  265MOL0     H35736   3.460   3.119  10.352 -0.9037 -2.1314 -4.3569
  265MOL0     H35737   3.427   3.285  10.424 -2.8256  1.9318 -1.8185
  265MOL0     H35738   3.328   3.241  10.302  0.5147  0.0825  0.4810
  265MOL0     H35739   3.203   3.699  10.097  1.9561  0.5211  0.9722
  265MOL0     H35740   3.018   3.819  10.135  0.3509  1.4893  1.8445
  265MOL0     H35741   2.791   3.943  10.406  0.7034  1.4318  0.4033
  265MOL0     H35742   2.899   3.933  10.266 -0.5046 -0.5722 -0.3988
  265MOL0     H35743   2.694   4.031  10.210  1.6595  0.4893  3.1573
  265MOL0     H35744   2.651   3.871  10.149  2.0190  0.2082 -0.2422
  265MOL0     H35745   2.552   3.973  10.414  0.4178  0.7894 -0.4523
  265MOL0     H35746   2.508   3.824  10.342 -1.1530  1.5454  2.4976
  265MOL0     H35747   2.453   4.105  10.236 -0.9655 -1.4882 -0.8907
  265MOL0     H35748   2.455   3.965  10.132 -1.0387  0.2278 -1.2339
  265MOL0     H35749   2.285   4.033  10.384  4.4082  1.3294 -0.2568
  265MOL0     H35750   2.251   3.881  10.296 -4.0348  1.0844 -0.0245
  265MOL0     H35751   2.248   4.155  10.175  1.0910 -0.4176 -0.2967
  265MOL0     H35752   2.215   4.016  10.084  1.1696  1.6993 -0.0942
  265MOL0     H35753   2.008   3.982  10.247  0.9519 -1.5270  0.4973
  265MOL0     H35754   2.010   4.100  10.115  0.9378  3.2356 -0.3825
  265MOL0     H35755   2.090   4.210  10.386  0.2522  2.0599 -0.2394
  265MOL0     H35756   1.925   4.211  10.329  0.0304  2.8865 -1.2064
  265MOL0     H35757   2.884   3.563  10.450  0.6484  1.5117  0.3408
  265MOL0     H35758   3.087   3.393  10.386  2.8852 -0.7418 -1.4505
  265MOL0     H35759   3.638   3.587  10.111 -0.9439 -1.1013 -3.8737
  265MOL0     H35760   3.838   3.451  10.086 -0.3188 -2.1454  0.2113
  265MOL0     H35761   5.463   3.441   9.345  1.2202  1.2343  1.7127
  265MOL0     H35762   5.666   3.550   9.379 -0.4289 -2.8880  0.8207
  265MOL0     H35763   6.147   3.579   9.154 -0.2755 -1.4052  1.8296
  265MOL0     H35764   6.364   3.701   9.128  1.4014  0.9507  2.8312
  265MOL0     H35765   6.468   4.049   9.395  0.1304  1.8896 -2.2620
  265MOL0     H35766   6.517   3.876   9.403 -1.5597 -1.9376 -2.8262
  265MOL0     H35767   6.685   4.015   9.374 -2.5722  1.5298  1.0280
  265MOL0     H35768   6.621   4.077   9.213  2.0873  2.1326  1.8154
  265MOL0     H35769   6.803   3.908   9.184  0.9037 -2.2250  1.4101
  265MOL0     H35770   6.646   3.872   9.106  1.4997  0.7283 -0.4957
  265MOL0     H35771   6.604   3.694   9.276 -0.3807 -2.5631  2.3829
  265MOL0     H35772   6.737   3.748   9.379  2.6716 -1.1162 -1.2056
  265MOL0     H35773   6.912   3.473   9.128  2.0980  1.4963 -0.1806
  265MOL0     H35774   6.225   4.002   9.389  2.3161  0.8149 -2.0166
  265MOL0     H35775   5.998   3.906   9.382  2.3564  2.4010 -0.1998
  266MOL0     O35776   5.553  11.197   3.806  0.3369  0.4790 -0.0205
  266MOL0     C35777   5.615  11.280   3.866  0.7250 -0.1200 -0.9547
  266MOL0     O35778   5.566  11.357   3.973  0.0651 -0.4501  0.4314
  266MOL0     C35779   5.433  11.349   4.024  0.1727 -0.1325  0.2484
  266MOL0     C35780   5.362  11.230   4.023  0.0019 -0.3462 -0.0916
  266MOL0     C35781   5.230  11.218   4.062 -0.1268  0.1774 -1.0017
  266MOL0     C35782   5.159  11.333   4.105  0.4853 -0.7353  0.0490
  266MOL0     O35783   5.021  11.331   4.136 -0.7554  0.3901  0.2259
  266MOL0     C35784   4.949  11.444   4.162 -0.1850 -0.6364  0.2801
  266MOL0     C35785   4.797  11.431   4.142 -1.1578  1.1240 -0.8036
  266MOL0     C35786   4.725  11.295   4.163 -0.3325 -0.0661  0.5548
  266MOL0     C35787   4.735  11.255   4.311  0.8639 -0.1997  0.2144
  266MOL0     C35788   4.713  11.103   4.337 -0.5075  0.9751  0.6697
  266MOL0     C35789   4.699  11.063   4.487  0.1616  0.0851 -0.6296
  266MOL0     C35790   4.637  10.918   4.507 -0.0425 -0.1530  0.1622
  266MOL0     C35791   4.618  10.890   4.653  0.9266  0.5003 -0.7350
  266MOL0     N35792   4.748  10.863   4.722  0.4909 -0.9012 -0.1746
  266MOL0     C35793   4.816  10.746   4.723  0.6452 -0.7468 -0.2517
  266MOL0     C35794   4.929  10.778   4.787 -0.2736 -0.7743 -0.7626
  266MOL0     C35795   5.035  10.681   4.822  0.1041  0.5747 -0.4476
  266MOL0     C35796   5.173  10.734   4.826  0.4794 -0.1584 -0.3302
  266MOL0     C35797   5.195  10.808   4.960  0.2575 -0.4561  0.6038
  266MOL0     C35798   5.341  10.794   5.006 -1.2388 -0.3817 -0.3182
  266MOL0     O35799   5.426  10.852   4.906 -0.1256 -0.0244 -0.5855
  266MOL0     C35800   5.526  10.784   4.843  0.2999 -0.8019  0.3494
  266MOL0     C35801   5.523  10.650   4.822  0.6133 -0.0422  0.2652
  266MOL0     C35802   5.625  10.580   4.753  0.4223  0.1136 -0.1464
  266MOL0     C35803   5.629  10.427   4.763 -0.1897 -0.3414 -0.3733
  266MOL0     C35804   5.735  10.642   4.696  0.1583 -0.2278  0.2607
  266MOL0     C35805   5.853  10.573   4.648  0.0600 -0.3316  1.0023
  266MOL0     O35806   5.976  10.629   4.674  0.3455 -0.1661  1.2702
  266MOL0     C35807   6.086  10.560   4.629 -0.6650  0.0911  0.3280
  266MOL0     C35808   6.106  10.519   4.496  0.2033  0.5003 -0.6976
  266MOL0     C35809   6.228  10.468   4.450  0.1744  0.4262  0.1024
  266MOL0     C35810   6.324  10.446   4.550 -0.5494  0.5730 -0.0021
  266MOL0     O35811   6.451  10.395   4.517 -0.5974  0.1005  0.2394
  266MOL0     C35812   6.443  10.261   4.478 -0.2723  0.9907  0.5730
  266MOL0     C35813   6.576  10.189   4.466  0.6333 -0.6858 -0.6161
  266MOL0     C35814   6.643  10.141   4.605  0.4471  0.1923  0.5147
  266MOL0     C35815   6.554  10.055   4.698  0.8882  0.5120  0.7339
  266MOL0     C35816   6.626   9.974   4.813 -0.5717  0.0058 -0.6864
  266MOL0     C35817   6.697   9.845   4.758 -0.6370  0.4218 -0.5813
  266MOL0     C35818   6.760   9.763   4.874  0.2942 -0.3756  0.8779
  266MOL0     C35819   6.843   9.642   4.833 -0.3069 -0.5127 -0.3345
  266MOL0    Cl35820   6.991   9.696   4.756  0.1611  0.1307  0.4252
  266MOL0     C35821   6.295  10.457   4.690 -0.0034  0.3301  1.0770
  266MOL0     C35822   6.182  10.529   4.723  0.5891  0.8268  1.1009
  266MOL0     O35823   5.833  10.484   4.558  0.2705 -0.2732 -0.4340
  266MOL0     C35824   5.743  10.786   4.716 -0.4665  0.1166 -1.0928
  266MOL0     C35825   5.635  10.860   4.777 -0.6770 -0.1009 -0.6042
  266MOL0     N35826   4.930  10.918   4.820 -0.0654 -0.4133  0.0574
  266MOL0     N35827   4.819  10.962   4.786  0.2378  0.1377 -0.4325
  266MOL0     C35828   5.234  11.457   4.115 -0.7057 -0.4961  0.0621
  266MOL0     C35829   5.370  11.459   4.086  0.3119 -0.8120  0.0963
  266MOL0     C35830   5.758  11.329   3.827  0.4796 -0.4015 -0.2186
  266MOL0     C35831   5.848  11.257   3.744  0.1148 -0.5517 -0.1359
  266MOL0     C35832   5.979  11.305   3.730  0.3483 -0.5356 -0.0307
  266MOL0     C35833   6.032  11.419   3.790  0.2630 -0.1305  0.3903
  266MOL0     O35834   6.161  11.456   3.764 -0.1666  0.2341  0.2286
  266MOL0     C35835   6.254  11.448   3.875  0.1896 -1.2549  0.1963
  266MOL0     C35836   6.289  11.593   3.918  1.3087 -0.4814 -0.4784
  266MOL0     C35837   6.289  11.701   3.811 -1.1718  0.1976 -0.1745
  266MOL0     C35838   6.274  11.841   3.868 -0.4951 -0.2356  0.4203
  266MOL0     C35839   6.141  11.879   3.909  0.3631 -0.5923  0.3379
  266MOL0     C35840   6.033  11.916   3.948  0.7116 -1.1483  0.4235
  266MOL0     C35841   5.943  11.498   3.864 -0.9169 -0.2974  0.2910
  266MOL0     C35842   5.812  11.451   3.884 -0.2575  0.3494 -0.3709
  266MOL0     H35843   5.416  11.139   4.000  1.7464 -0.0734  2.5347
  266MOL0     H35844   5.181  11.121   4.056 -0.1540  0.1922 -1.0276
  266MOL0     H35845   4.970  11.479   4.264 -1.0425 -0.6417  0.4652
  266MOL0     H35846   4.987  11.523   4.096 -1.6901 -0.7932 -0.8189
  266MOL0     H35847   4.747  11.500   4.210 -0.0822  0.7220  0.4178
  266MOL0     H35848   4.766  11.467   4.043  1.8706  0.3161 -2.1738
  266MOL0     H35849   4.622  11.327   4.149 -0.2517  0.9578  2.0318
  266MOL0     H35850   4.753  11.220   4.088 -2.2941 -0.6744  0.3902
  266MOL0     H35851   4.832  11.280   4.354  0.2391 -1.4167  2.5307
  266MOL0     H35852   4.670  11.316   4.375 -0.5243 -0.3061 -1.0408
  266MOL0     H35853   4.619  11.087   4.285  0.9254 -2.1038 -1.2505
  266MOL0     H35854   4.799  11.045   4.300 -2.0674 -0.3804 -0.9929
  266MOL0     H35855   4.795  11.060   4.539 -0.7889 -2.1172  1.1848
  266MOL0     H35856   4.635  11.130   4.545 -0.3970 -0.1968 -0.9091
  266MOL0     H35857   4.540  10.915   4.457 -0.4445  2.2370  0.6668
  266MOL0     H35858   4.704  10.845   4.462  2.4312  2.8394 -1.4298
  266MOL0     H35859   4.567  10.796   4.673  0.3360  0.1344 -3.4850
  266MOL0     H35860   4.567  10.976   4.696 -0.1298 -0.5178  0.0921
  266MOL0     H35861   4.795  10.643   4.694  1.7826 -1.6114  1.7575
  266MOL0     H35862   5.013  10.644   4.922 -2.0904 -1.8618 -1.7281
  266MOL0     H35863   5.030  10.595   4.755 -4.5866  0.2407 -0.0180
  266MOL0     H35864   5.181  10.800   4.739  1.5076 -1.9601 -1.7097
  266MOL0     H35865   5.238  10.646   4.819 -0.2623 -0.8902  1.4473
  266MOL0     H35866   5.124  10.765   5.031 -0.7933  0.2593  0.0157
  266MOL0     H35867   5.168  10.913   4.952  2.8791  0.3497  1.4121
  266MOL0     H35868   5.365  10.689   5.028 -0.7159  0.3992  3.3691
  266MOL0     H35869   5.357  10.858   5.093  1.7388 -0.5241 -0.6410
  266MOL0     H35870   5.435  10.592   4.850  2.0812 -1.5535  2.0048
  266MOL0     H35871   5.562  10.386   4.839  0.6074 -0.1615  0.4474
  266MOL0     H35872   5.586  10.388   4.670  0.6494  0.3543 -1.0625
  266MOL0     H35873   5.730  10.384   4.768 -0.3250 -0.8595 -1.7683
  266MOL0     H35874   6.030  10.553   4.426 -0.0724  3.4051  0.8940
  266MOL0     H35875   6.245  10.432   4.349  0.1639 -2.7405  1.1253
  266MOL0     H35876   6.390  10.207   4.557 -0.3538  2.6990  1.7449
  266MOL0     H35877   6.382  10.245   4.389 -1.8117 -2.4825  2.0615
  266MOL0     H35878   6.563  10.094   4.413 -3.7805  0.2064 -1.4968
  266MOL0     H35879   6.640  10.256   4.407  0.7343 -1.0071 -0.8738
  266MOL0     H35880   6.675  10.226   4.666 -1.0999 -2.2382  5.1371
  266MOL0     H35881   6.730  10.084   4.570  0.4670  1.7741 -2.3354
  266MOL0     H35882   6.486  10.128   4.742  1.6906  1.7745 -0.0616
  266MOL0     H35883   6.502   9.986   4.631  2.6961  0.9919 -1.2810
  266MOL0     H35884   6.545   9.930   4.871  1.0613 -1.8501  0.2973
  266MOL0     H35885   6.700  10.039   4.861  0.3532 -0.6835 -1.1601
  266MOL0     H35886   6.620   9.786   4.706 -2.9967 -1.0579  4.0330
  266MOL0     H35887   6.776   9.870   4.687 -0.0564 -2.1497 -0.9399
  266MOL0     H35888   6.679   9.723   4.935 -0.4236 -4.1203 -2.1235
  266MOL0     H35889   6.820   9.834   4.931 -0.2518  2.1062 -1.3995
  266MOL0     H35890   6.790   9.601   4.746  1.0602 -2.8534 -0.1646
  266MOL0     H35891   6.864   9.574   4.916  4.6035  0.7799 -0.2263
  266MOL0     H35892   6.362  10.413   4.763 -0.7089  0.8377  2.0500
  266MOL0     H35893   6.161  10.540   4.829 -1.8798 -2.3099  1.0766
  266MOL0     H35894   5.828  10.835   4.670  0.6399 -0.1408  0.5960
  266MOL0     H35895   5.641  10.968   4.783 -0.6361 -0.1676  1.1362
  266MOL0     H35896   5.189  11.546   4.159 -0.7661  0.1261 -1.2242
  266MOL0     H35897   5.424  11.552   4.101  0.0901 -0.3419 -1.8005
  266MOL0     H35898   5.813  11.160   3.711  1.6054 -1.7921  1.6884
  266MOL0     H35899   6.055  11.253   3.672  0.4784  0.9533 -1.2586
  266MOL0     H35900   6.207  11.391   3.956 -0.5978 -1.4523 -0.3868
  266MOL0     H35901   6.340  11.389   3.843  1.3448  1.4331 -2.0195
  266MOL0     H35902   6.376  11.591   3.984 -0.1458 -3.9799  1.5740
  266MOL0     H35903   6.199  11.629   3.969  0.6405 -2.0760 -0.4777
  266MOL0     H35904   6.211  11.696   3.735 -0.8733 -0.1859 -0.4675
  266MOL0     H35905   6.390  11.712   3.769 -1.0892  0.2476  0.0344
  266MOL0     H35906   6.277  11.904   3.778 -1.0812 -0.0387  0.5399
  266MOL0     H35907   6.352  11.867   3.941  0.2756  1.8680 -1.0203
  266MOL0     H35908   5.938  11.956   3.980  1.1743  0.0311  0.3800
  266MOL0     H35909   5.991  11.587   3.903  3.2087 -2.0548 -0.1974
  266MOL0     H35910   5.753  11.518   3.947  2.3673  2.5063 -0.0468
  267MOL0     O35911   8.040   9.602   5.470 -0.6012  0.5621  0.9146
  267MOL0     C35912   7.919   9.581   5.474  0.1952  0.3876 -0.8220
  267MOL0     O35913   7.827   9.651   5.404 -0.4386 -0.3370  0.2231
  267MOL0     C35914   7.844   9.760   5.323  0.6993 -0.8649 -0.3412
  267MOL0     C35915   7.934   9.865   5.351  0.6756 -0.0966  0.1968
  267MOL0     C35916   7.950   9.968   5.257 -0.0450  0.1585 -0.1948
  267MOL0     C35917   7.872   9.984   5.148  0.5809 -0.1909  0.6492
  267MOL0     O35918   7.871  10.082   5.056  0.2927 -1.0833  0.0223
  267MOL0     C35919   7.919  10.209   5.106  0.2526  0.0385  0.8269
  267MOL0     C35920   7.901  10.322   5.015  0.3208 -0.2308 -0.4759
  267MOL0     C35921   7.752  10.357   5.000 -0.5168  0.0717 -0.2719
  267MOL0     C35922   7.737  10.498   4.951  0.4415  0.9785 -0.0476
  267MOL0     C35923   7.599  10.502   4.882  1.3804  0.6817  0.0719
  267MOL0     C35924   7.480  10.499   4.994 -0.1132 -0.4897  0.7677
  267MOL0     C35925   7.345  10.547   4.937  0.6318 -0.0476  0.2066
  267MOL0     C35926   7.335  10.691   4.915 -0.5918  0.2000  1.0531
  267MOL0     N35927   7.207  10.742   4.855 -0.8814 -0.0653 -0.4914
  267MOL0     C35928   7.085  10.699   4.899  0.7457 -0.4365 -0.8389
  267MOL0     C35929   6.995  10.755   4.816  1.3551  0.3260  0.9009
  267MOL0     C35930   6.840  10.743   4.826  0.1842  0.0069  0.8276
  267MOL0     C35931   6.774  10.679   4.702 -0.5085  0.1472  0.7502
  267MOL0     C35932   6.765  10.527   4.697  0.3436  0.4124  1.3616
  267MOL0     C35933   6.907  10.468   4.685 -0.4525 -0.2849  1.0957
  267MOL0     O35934   6.908  10.328   4.647  0.0205  0.1563 -0.6080
  267MOL0     C35935   7.022  10.261   4.673  0.7537  0.2441 -0.5418
  267MOL0     C35936   7.146  10.320   4.640 -0.1783 -0.1064  0.9363
  267MOL0     C35937   7.260  10.245   4.645 -0.2867  0.7173  0.0901
  267MOL0     C35938   7.376  10.313   4.595 -0.0545  0.3228 -0.1339
  267MOL0     C35939   7.262  10.117   4.705 -1.1589  0.9057 -1.3169
  267MOL0     C35940   7.382  10.038   4.728 -0.4208 -0.0815  0.0070
  267MOL0     O35941   7.366   9.905   4.716 -0.2545 -0.0875 -0.2110
  267MOL0     C35942   7.463   9.829   4.768 -0.1290 -0.2434 -0.1589
  267MOL0     C35943   7.446   9.765   4.893  0.2651  0.0391 -0.5834
  267MOL0     C35944   7.543   9.661   4.939  0.5129 -0.2770  0.0187
  267MOL0     C35945   7.661   9.641   4.868  0.0761  0.1699  0.1112
  267MOL0     O35946   7.754   9.560   4.928 -0.8878  0.7535  0.0966
  267MOL0     C35947   7.891   9.590   4.892 -1.5446 -0.1999 -0.0160
  267MOL0     C35948   7.979   9.537   5.005  1.9375  0.4691 -0.6216
  267MOL0     C35949   8.002   9.382   5.005 -0.1883 -0.3515 -0.0552
  267MOL0     C35950   8.054   9.337   5.140 -0.8251 -0.1649  0.1271
  267MOL0     C35951   8.134   9.204   5.146  0.7733 -0.2712 -0.2841
  267MOL0     C35952   8.162   9.160   5.284 -0.3375  0.1483 -0.3529
  267MOL0     C35953   8.235   9.263   5.372 -1.3339  0.0061  0.2070
  267MOL0     C35954   8.280   9.211   5.509  0.5555 -0.3745 -0.1796
  267MOL0    Cl35955   8.346   9.348   5.605  0.2322 -0.0413  0.0394
  267MOL0     C35956   7.685   9.724   4.758  0.3174 -0.1213 -0.7082
  267MOL0     C35957   7.593   9.818   4.707  0.4168 -0.5057  0.3191
  267MOL0     O35958   7.490  10.086   4.780  0.6095  0.6373 -0.5336
  267MOL0     C35959   7.139  10.057   4.733  0.5154 -0.0860 -0.0971
  267MOL0     C35960   7.022  10.125   4.718  0.9156  0.1495 -0.3368
  267MOL0     N35961   7.065  10.813   4.711 -0.6992  0.3666 -0.2146
  267MOL0     N35962   7.190  10.812   4.742  0.5755  0.2488  0.9405
  267MOL0     C35963   7.787   9.876   5.121 -0.1227 -0.2136 -0.0154
  267MOL0     C35964   7.768   9.765   5.203 -1.0905 -0.7082  0.0299
  267MOL0     C35965   7.864   9.469   5.552 -1.1968  0.0565  0.6935
  267MOL0     C35966   7.949   9.370   5.606  0.8517  0.2766 -0.2094
  267MOL0     C35967   7.898   9.266   5.673 -0.2646 -0.1561 -0.7535
  267MOL0     C35968   7.752   9.263   5.700  0.1444  0.4571 -0.3268
  267MOL0     O35969   7.676   9.175   5.780  0.4548 -0.1928 -0.2972
  267MOL0     C35970   7.744   9.056   5.818 -0.3838  0.3491 -0.3324
  267MOL0     C35971   7.825   9.085   5.935  0.4600 -0.5291 -1.1522
  267MOL0     C35972   7.745   9.052   6.058  0.2199 -0.5312  0.0053
  267MOL0     C35973   7.814   9.096   6.192  0.4592 -0.1515 -0.2682
  267MOL0     C35974   7.726   9.060   6.299  0.6853  0.8059  0.5785
  267MOL0     C35975   7.628   9.025   6.366  0.1163 -0.3653 -0.2760
  267MOL0     C35976   7.672   9.363   5.635  0.2363  0.1671 -0.8445
  267MOL0     C35977   7.726   9.463   5.557 -0.7452  0.1841 -0.5957
  267MOL0     H35978   7.982   9.865   5.449  1.5191 -3.4197 -0.0973
  267MOL0     H35979   8.031  10.040   5.267 -0.5977  0.8298 -0.4745
  267MOL0     H35980   7.873  10.241   5.200  1.8654 -1.2935  2.1232
  267MOL0     H35981   8.028  10.208   5.118  0.4939  1.9564 -0.6888
  267MOL0     H35982   7.958  10.396   5.072  0.1830 -2.0923  2.2789
  267MOL0     H35983   7.947  10.317   4.915  1.0660  3.3887 -0.4397
  267MOL0     H35984   7.693  10.277   4.952 -2.6616 -0.5893  3.1451
  267MOL0     H35985   7.710  10.355   5.101 -1.7669  3.4785 -0.5887
  267MOL0     H35986   7.737  10.566   5.036  3.4626 -0.2155  1.0319
  267MOL0     H35987   7.816  10.520   4.879  1.2391  2.3610  1.2008
  267MOL0     H35988   7.598  10.593   4.821  2.0618 -0.7945 -2.2725
  267MOL0     H35989   7.594  10.412   4.819 -0.0426  0.2389  0.7718
  267MOL0     H35990   7.456  10.397   5.023 -1.4280 -1.2424 -2.4437
  267MOL0     H35991   7.503  10.562   5.081 -2.0979  2.9386 -0.9682
  267MOL0     H35992   7.320  10.494   4.844 -0.0041 -0.6606  0.7126
  267MOL0     H35993   7.268  10.527   5.013 -0.0810  0.9916 -0.2149
  267MOL0     H35994   7.421  10.719   4.854  0.3888 -2.9501  0.8164
  267MOL0     H35995   7.348  10.741   5.011  2.2737  0.6285  0.5335
  267MOL0     H35996   7.070  10.634   4.985 -1.0124 -1.9102 -2.1748
  267MOL0     H35997   6.804  10.709   4.923  2.5704  3.0365  2.9748
  267MOL0     H35998   6.788  10.840   4.829 -3.1257 -1.6244  1.4251
  267MOL0     H35999   6.814  10.717   4.608 -3.8796 -2.1073 -1.8308
  267MOL0     H36000   6.666  10.701   4.701 -0.9694 -1.8793 -0.9912
  267MOL0     H36001   6.700  10.518   4.610  1.7664  0.0424  0.3080
  267MOL0     H36002   6.709  10.491   4.784 -1.3724 -3.0001 -0.9304
  267MOL0     H36003   6.967  10.484   4.775 -1.0512  1.7824  1.1924
  267MOL0     H36004   6.950  10.535   4.609 -3.6146 -1.1759 -1.7019
  267MOL0     H36005   7.155  10.420   4.597  2.4394 -0.1584  1.2236
  267MOL0     H36006   7.422  10.375   4.672  0.4960  0.2159 -0.3709
  267MOL0     H36007   7.457  10.241   4.576  1.4093  2.0128 -0.5890
  267MOL0     H36008   7.346  10.365   4.503  1.6979  2.2094  0.2753
  267MOL0     H36009   7.356   9.787   4.949  0.9825  0.2110  0.5194
  267MOL0     H36010   7.539   9.605   5.031  0.7126  0.0670  0.2356
  267MOL0     H36011   7.923   9.550   4.795 -0.3207 -1.7272  0.9753
  267MOL0     H36012   7.921   9.694   4.879  2.0220 -1.2917 -2.1537
  267MOL0     H36013   8.079   9.582   5.006  2.1945 -0.0990 -0.6276
  267MOL0     H36014   7.922   9.564   5.094  0.6826 -3.5812 -0.0180
  267MOL0     H36015   8.076   9.368   4.926 -1.1711  2.8394 -1.7065
  267MOL0     H36016   7.918   9.319   4.976 -1.7377  1.0028  1.3287
  267MOL0     H36017   8.112   9.422   5.179  0.2614 -0.0881 -1.5706
  267MOL0     H36018   7.967   9.335   5.207 -0.8535  0.3901  0.1148
  267MOL0     H36019   8.231   9.214   5.095  0.1021 -2.0153 -2.0152
  267MOL0     H36020   8.090   9.125   5.085  3.8061 -2.5055  0.1879
  267MOL0     H36021   8.063   9.133   5.323 -0.4714 -0.6758 -1.2206
  267MOL0     H36022   8.223   9.069   5.280 -1.0774 -0.3384 -0.6696
  267MOL0     H36023   8.168   9.346   5.393 -2.9867 -1.1809 -0.1672
  267MOL0     H36024   8.326   9.295   5.320 -0.3224 -1.5300  0.9699
  267MOL0     H36025   8.361   9.139   5.491  2.2732  1.5909 -0.7078
  267MOL0     H36026   8.191   9.173   5.560  1.5412 -0.7860  1.2815
  267MOL0     H36027   7.775   9.715   4.698  1.4203  3.2636  0.2405
  267MOL0     H36028   7.612   9.870   4.613 -0.4244 -2.3425 -0.9231
  267MOL0     H36029   7.138   9.961   4.784  3.1282  0.6252  1.4744
  267MOL0     H36030   6.924  10.084   4.742  1.8079 -0.6053  2.4207
  267MOL0     H36031   7.729   9.882   5.029 -0.0124 -1.3747 -0.1702
  267MOL0     H36032   7.695   9.687   5.182 -0.2734 -1.6500  0.5679
  267MOL0     H36033   8.056   9.391   5.615  0.4758  2.1686  0.4320
  267MOL0     H36034   7.963   9.193   5.719 -0.2505 -2.0299 -3.4735
  267MOL0     H36035   7.665   8.987   5.849  0.1500  1.1745  3.2968
  267MOL0     H36036   7.802   9.013   5.736 -2.5087 -0.4114 -1.5194
  267MOL0     H36037   7.869   9.185   5.939  1.2766 -0.9062 -0.3031
  267MOL0     H36038   7.907   9.012   5.934 -1.5971 -2.9773 -1.9450
  267MOL0     H36039   7.726   8.945   6.064 -2.8780  0.0273  3.5229
  267MOL0     H36040   7.646   9.097   6.055  0.6215  0.3795 -0.0838
  267MOL0     H36041   7.839   9.203   6.186 -0.7033  0.1727  0.1233
  267MOL0     H36042   7.913   9.057   6.213  1.3210  2.4288  0.9795
  267MOL0     H36043   7.547   9.005   6.433  0.0642 -2.8682 -0.9809
  267MOL0     H36044   7.566   9.371   5.658  0.3024 -1.8113  0.3400
  267MOL0     H36045   7.666   9.541   5.511  0.7588  2.3113  0.8187
  268MOL0     O36046   8.626   8.020   5.280  0.5611 -0.5163 -0.0589
  268MOL0     C36047   8.570   7.920   5.259 -0.4563  0.6168  0.8527
  268MOL0     O36048   8.438   7.892   5.297  0.0335  0.0438 -0.3569
  268MOL0     C36049   8.367   7.990   5.370  0.4682  0.7447  0.8403
  268MOL0     C36050   8.290   8.072   5.292  0.0288  0.0880 -0.8420
  268MOL0     C36051   8.208   8.177   5.351 -0.6975  0.1819  0.5138
  268MOL0     C36052   8.230   8.215   5.486 -0.7158  0.3317  0.8111
  268MOL0     O36053   8.170   8.316   5.554 -0.1199  0.6330 -1.0331
  268MOL0     C36054   8.055   8.388   5.490  0.7395 -0.3443  0.1634
  268MOL0     C36055   7.935   8.425   5.585 -0.1407 -0.6022 -0.3099
  268MOL0     C36056   7.991   8.460   5.719 -0.0344 -0.1389 -0.0897
  268MOL0     C36057   7.865   8.506   5.798 -0.3200 -0.0869  1.1020
  268MOL0     C36058   7.902   8.585   5.919 -0.5635 -0.5367 -0.0997
  268MOL0     C36059   7.798   8.593   6.018 -0.4960  0.4776 -0.2183
  268MOL0     C36060   7.850   8.669   6.144  0.0237 -0.2012 -0.1529
  268MOL0     C36061   7.916   8.589   6.257 -0.1263  0.5316 -0.0317
  268MOL0     N36062   7.921   8.668   6.385  0.4914 -0.6428  0.9091
  268MOL0     C36063   7.814   8.664   6.466  0.6402 -0.3944 -1.5004
  268MOL0     C36064   7.836   8.765   6.560 -0.5680 -0.0537  0.5331
  268MOL0     C36065   7.737   8.785   6.670 -0.3400 -0.6072 -0.3731
  268MOL0     C36066   7.807   8.786   6.801 -0.6102  0.1786 -0.0275
  268MOL0     C36067   7.726   8.843   6.918 -0.1165 -0.1340 -0.4622
  268MOL0     C36068   7.613   8.745   6.961 -0.0297  0.7706  0.1232
  268MOL0     O36069   7.509   8.737   6.866  0.7104  0.3923 -0.7159
  268MOL0     C36070   7.402   8.652   6.886  0.0179  1.3630  0.5318
  268MOL0     C36071   7.321   8.621   6.778  0.0545 -0.1470  0.2543
  268MOL0     C36072   7.201   8.548   6.782  0.2830  0.0381  0.2981
  268MOL0     C36073   7.132   8.535   6.648  1.0737 -0.4912  0.0325
  268MOL0     C36074   7.167   8.489   6.909 -0.5230  0.0455  0.9966
  268MOL0     C36075   7.052   8.402   6.939  0.1120 -0.2742 -0.1174
  268MOL0     O36076   7.005   8.417   7.068 -0.5994  0.2159  0.1177
  268MOL0     C36077   6.897   8.338   7.108 -0.4224 -0.1010  0.1832
  268MOL0     C36078   6.904   8.266   7.223  0.8252  0.0939  0.4594
  268MOL0     C36079   6.783   8.204   7.263  0.7009  0.8721 -0.9050
  268MOL0     C36080   6.658   8.216   7.194 -0.0472 -0.4354 -0.2796
  268MOL0     O36081   6.533   8.158   7.228  0.3798  0.4737 -0.0168
  268MOL0     C36082   6.502   8.117   7.365 -0.9943  0.0509 -0.2657
  268MOL0     C36083   6.425   7.987   7.358  0.1422  0.1677  0.3461
  268MOL0     C36084   6.422   7.917   7.494  0.2394  0.2769  0.0079
  268MOL0     C36085   6.342   7.795   7.494  0.2928 -0.3580  0.8862
  268MOL0     C36086   6.408   7.686   7.414  1.0125 -0.2424 -0.0657
  268MOL0     C36087   6.328   7.558   7.429 -0.2502 -0.4333 -0.1917
  268MOL0     C36088   6.401   7.422   7.408 -0.6405 -0.8705  0.2677
  268MOL0     C36089   6.484   7.425   7.272  0.2687 -0.2583  0.4354
  268MOL0    Cl36090   6.544   7.251   7.232  0.6294  0.3573  0.2122
  268MOL0     C36091   6.659   8.296   7.086 -0.2087 -0.6097  0.5648
  268MOL0     C36092   6.778   8.355   7.042  0.1186  0.4164 -0.4494
  268MOL0     O36093   7.003   8.327   6.858  0.6902  0.3374 -0.0778
  268MOL0     C36094   7.249   8.519   7.021  0.4453  0.4249 -0.4907
  268MOL0     C36095   7.374   8.586   7.007  1.0809  1.0613  0.0846
  268MOL0     N36096   7.945   8.836   6.527 -0.5040 -0.3036  0.2185
  268MOL0     N36097   7.986   8.783   6.417 -0.3433 -0.2271  0.1128
  268MOL0     C36098   8.311   8.131   5.565 -0.7682 -0.0771  0.8392
  268MOL0     C36099   8.380   8.017   5.508  0.1826  0.1477 -0.5856
  268MOL0     C36100   8.650   7.802   5.224 -0.1546  0.4953 -0.1816
  268MOL0     C36101   8.786   7.799   5.243 -0.5319  0.2218 -0.3412
  268MOL0     C36102   8.863   7.684   5.211  0.2549  0.5597  0.1882
  268MOL0     C36103   8.803   7.577   5.152 -0.0393 -0.4107  0.5170
  268MOL0     O36104   8.852   7.453   5.117 -0.3470 -0.2343 -0.3162
  268MOL0     C36105   8.990   7.430   5.120  0.5967 -0.2290 -0.9476
  268MOL0     C36106   9.064   7.507   5.003  0.3690  0.0318 -0.3530
  268MOL0     C36107   9.061   7.433   4.868  0.3382 -0.2461 -0.7275
  268MOL0     C36108   9.169   7.322   4.855  0.9763 -0.3356  0.3576
  268MOL0     C36109   9.313   7.359   4.875  0.4178 -0.1511  0.0063
  268MOL0     C36110   9.432   7.381   4.877  0.9046  0.0152  0.9313
  268MOL0     C36111   8.662   7.566   5.150 -0.1857  0.2096  0.4955
  268MOL0     C36112   8.583   7.679   5.184 -0.3828  0.1851 -0.0095
  268MOL0     H36113   8.285   8.056   5.185  1.4492  0.1492 -0.9438
  268MOL0     H36114   8.148   8.236   5.283 -0.9098  0.8052  1.2287
  268MOL0     H36115   8.101   8.478   5.447  0.1291  0.0313  0.2756
  268MOL0     H36116   8.016   8.327   5.409  1.4649 -0.7605  0.1157
  268MOL0     H36117   7.880   8.506   5.536 -0.3374 -0.3033  0.3989
  268MOL0     H36118   7.873   8.337   5.601 -1.1797  0.4665  1.9463
  268MOL0     H36119   8.035   8.378   5.777  0.7192  0.0745 -0.3518
  268MOL0     H36120   8.058   8.546   5.719  0.1542 -0.2855 -0.1005
  268MOL0     H36121   7.801   8.568   5.735  0.8411 -0.3101 -0.3438
  268MOL0     H36122   7.823   8.408   5.821  2.0957 -2.3085 -2.9146
  268MOL0     H36123   7.997   8.544   5.955  0.3586  0.8555 -0.8609
  268MOL0     H36124   7.917   8.688   5.884  0.1601 -1.1791 -1.8124
  268MOL0     H36125   7.714   8.649   5.977 -1.1141  1.5144  2.2546
  268MOL0     H36126   7.767   8.496   6.057 -2.3185  2.4457  3.8794
  268MOL0     H36127   7.910   8.754   6.110  1.9854 -1.6276 -0.3831
  268MOL0     H36128   7.773   8.728   6.195 -0.9352  1.8178 -3.5554
  268MOL0     H36129   8.013   8.556   6.219  0.3015  4.1806 -2.6880
  268MOL0     H36130   7.862   8.496   6.275  0.7569 -0.4005 -1.9740
  268MOL0     H36131   7.729   8.597   6.468  1.3160 -1.3962  2.5491
  268MOL0     H36132   7.686   8.881   6.656 -0.0682 -0.4263 -0.1304
  268MOL0     H36133   7.667   8.701   6.672 -1.6344  0.4495  0.3058
  268MOL0     H36134   7.895   8.850   6.794 -0.4193  0.4984  3.5980
  268MOL0     H36135   7.824   8.682   6.830 -4.4321 -0.6408 -0.1519
  268MOL0     H36136   7.704   8.950   6.914 -1.2511 -0.2065  2.0503
  268MOL0     H36137   7.793   8.835   7.004 -0.7752 -0.8107 -0.0040
  268MOL0     H36138   7.574   8.786   7.055 -0.6174  4.0146 -1.3844
  268MOL0     H36139   7.666   8.652   6.982  5.9315  3.7331  0.4042
  268MOL0     H36140   7.365   8.657   6.685 -0.7687  0.7937  0.2122
  268MOL0     H36141   7.168   8.606   6.573  0.8849  1.9952  2.1708
  268MOL0     H36142   7.136   8.432   6.611 -1.0619  0.0698 -2.0057
  268MOL0     H36143   7.028   8.564   6.666  1.2310  0.3168 -0.3197
  268MOL0     H36144   7.000   8.271   7.273  0.6160  0.5004  0.8296
  268MOL0     H36145   6.782   8.140   7.350  0.7949  0.4743 -1.1942
  268MOL0     H36146   6.598   8.101   7.415 -0.7175  0.3454 -0.6971
  268MOL0     H36147   6.447   8.187   7.428 -1.1817 -1.5249  1.3786
  268MOL0     H36148   6.325   8.009   7.320 -0.2385 -2.8320 -0.6588
  268MOL0     H36149   6.469   7.914   7.289  2.3581 -1.9045  3.6849
  268MOL0     H36150   6.390   7.988   7.571  0.4091 -0.5758  0.8891
  268MOL0     H36151   6.524   7.883   7.515  0.1316 -1.1889 -1.6024
  268MOL0     H36152   6.342   7.764   7.599  2.8037  0.3243  1.1577
  268MOL0     H36153   6.242   7.819   7.458  0.8284  1.5641  0.5517
  268MOL0     H36154   6.509   7.674   7.454 -0.3905 -2.5457  3.2163
  268MOL0     H36155   6.410   7.701   7.306  0.5498 -2.0201 -0.3540
  268MOL0     H36156   6.277   7.542   7.525 -0.6306  1.4721 -0.0279
  268MOL0     H36157   6.248   7.557   7.354  0.2389 -4.0053 -0.8404
  268MOL0     H36158   6.331   7.340   7.422 -0.2202 -1.2234  0.3032
  268MOL0     H36159   6.477   7.435   7.486  1.8520  1.4692 -2.2936
  268MOL0     H36160   6.564   7.500   7.279 -1.0126  1.2392 -0.4615
  268MOL0     H36161   6.428   7.452   7.182  3.5636  1.8308 -1.2102
  268MOL0     H36162   6.567   8.311   7.030  0.9968  0.9035 -1.1129
  268MOL0     H36163   6.772   8.438   6.973 -2.3646 -0.9912 -2.0644
  268MOL0     H36164   7.227   8.484   7.122  1.3747  2.5608  0.5250
  268MOL0     H36165   7.446   8.592   7.089  0.4639  1.3165  0.6154
  268MOL0     H36166   8.324   8.146   5.671  1.0941  1.8358  0.4118
  268MOL0     H36167   8.451   7.962   5.569  0.6958  1.8258  0.4011
  268MOL0     H36168   8.831   7.889   5.283 -2.8080  1.3584 -0.1653
  268MOL0     H36169   8.969   7.673   5.230 -0.3042 -2.1815  2.1548
  268MOL0     H36170   9.025   7.464   5.218  0.5066  3.4743 -2.0487
  268MOL0     H36171   8.989   7.321   5.129 -2.3945 -0.1831  0.7686
  268MOL0     H36172   9.166   7.516   5.039 -0.1459  1.6042  0.7988
  268MOL0     H36173   9.024   7.609   5.004  1.7705  0.6564  2.8078
  268MOL0     H36174   9.090   7.501   4.788 -0.5218  0.9667 -0.0352
  268MOL0     H36175   8.962   7.392   4.850  0.7897 -1.5974 -0.2669
  268MOL0     H36176   9.156   7.289   4.751 -2.8443 -1.5782  1.0630
  268MOL0     H36177   9.154   7.230   4.913  0.8905 -1.2492 -1.0664
  268MOL0     H36178   9.539   7.388   4.874  1.0626 -1.4413  2.2368
  268MOL0     H36179   8.618   7.478   5.104  0.7104 -0.6971  1.3145
  268MOL0     H36180   8.477   7.675   5.162 -0.9879  0.3439  2.5192
  269MOL0     O36181   2.712   5.410   2.052 -0.2005  0.2990 -0.3068
  269MOL0     C36182   2.633   5.391   2.149  1.1112  1.1738  0.5953
  269MOL0     O36183   2.511   5.326   2.132  1.1201  0.0045  0.6199
  269MOL0     C36184   2.468   5.274   2.015 -0.2405 -0.9121  0.5424
  269MOL0     C36185   2.337   5.285   1.986 -0.1129  0.5266 -0.3658
  269MOL0     C36186   2.273   5.226   1.871 -0.1321  0.2775  0.1579
  269MOL0     C36187   2.354   5.153   1.781  0.7439 -0.5626  0.8034
  269MOL0     O36188   2.303   5.091   1.671 -0.7676  0.0051 -0.1517
  269MOL0     C36189   2.388   5.029   1.570  0.1479  1.0045 -0.2856
  269MOL0     C36190   2.300   4.997   1.452 -0.3310  0.1792  0.0329
  269MOL0     C36191   2.378   4.949   1.335  0.4012 -0.1170  0.0964
  269MOL0     C36192   2.305   4.852   1.245 -0.7106 -0.9561  0.5319
  269MOL0     C36193   2.277   4.727   1.320 -0.2382  1.5241  0.2411
  269MOL0     C36194   2.249   4.610   1.216  0.3045  0.6330  0.6494
  269MOL0     C36195   2.382   4.532   1.191 -0.0499 -0.1150 -0.3831
  269MOL0     C36196   2.376   4.440   1.073 -0.5385  0.3084 -0.3613
  269MOL0     N36197   2.276   4.336   1.077 -0.3038  0.4076  0.0282
  269MOL0     C36198   2.307   4.216   1.140  0.4212  0.9158 -0.3986
  269MOL0     C36199   2.184   4.157   1.157 -0.1330 -0.4242 -0.1737
  269MOL0     C36200   2.152   4.024   1.234 -0.7957 -0.6897  0.7316
  269MOL0     C36201   2.153   3.909   1.126 -0.2321  0.3953  0.5298
  269MOL0     C36202   2.032   3.873   1.030  0.3380  0.0906 -0.3852
  269MOL0     C36203   1.901   3.842   1.111 -0.1731  0.5144  0.3688
  269MOL0     O36204   1.923   3.763   1.228 -0.0522 -0.1857  0.3243
  269MOL0     C36205   1.831   3.672   1.276 -0.1271  0.0142  0.7340
  269MOL0     C36206   1.688   3.685   1.249 -0.2109  1.2839  0.0372
  269MOL0     C36207   1.597   3.594   1.297 -0.2836 -0.5061  0.2636
  269MOL0     C36208   1.457   3.606   1.251 -0.0670 -0.5149 -0.0677
  269MOL0     C36209   1.651   3.475   1.355 -0.5111 -0.4032 -0.6259
  269MOL0     C36210   1.575   3.350   1.374 -0.1631  0.7981  0.4700
  269MOL0     O36211   1.440   3.341   1.386 -0.6161  0.7232  0.2717
  269MOL0     C36212   1.380   3.221   1.419  0.0544  0.8849 -0.3310
  269MOL0     C36213   1.413   3.141   1.527 -0.1007  0.2164 -0.3272
  269MOL0     C36214   1.343   3.025   1.567 -0.2465 -0.3583 -0.1905
  269MOL0     C36215   1.236   2.987   1.490 -0.3817  0.3468 -0.9827
  269MOL0     O36216   1.175   2.874   1.539 -0.2365  0.1654 -0.0918
  269MOL0     C36217   1.050   2.886   1.599 -0.0566 -0.2688  0.0929
  269MOL0     C36218   0.948   2.792   1.530  0.6158 -0.6677  0.9668
  269MOL0     C36219   0.940   2.655   1.587 -0.7198  0.0983  0.1386
  269MOL0     C36220   0.840   2.577   1.514  0.0366  0.1518 -0.2421
  269MOL0     C36221   0.897   2.537   1.379  0.2413 -0.0646  0.1977
  269MOL0     C36222   0.796   2.451   1.297  0.2832  0.6712 -1.0988
  269MOL0     C36223   0.677   2.533   1.236  0.0127  0.4241  0.3158
  269MOL0     C36224   0.554   2.444   1.183 -0.6757 -0.1164 -0.0915
  269MOL0    Cl36225   0.618   2.323   1.068 -0.2546  0.0947 -0.0929
  269MOL0     C36226   1.192   3.063   1.382  0.8865 -1.0565 -0.1159
  269MOL0     C36227   1.262   3.183   1.348 -0.5129 -0.0536 -0.0421
  269MOL0     O36228   1.644   3.245   1.380 -0.3071  0.7044 -0.6407
  269MOL0     C36229   1.784   3.476   1.389  0.5173  0.6636  0.0741
  269MOL0     C36230   1.878   3.577   1.360 -1.2495  0.5129  1.0517
  269MOL0     N36231   2.089   4.241   1.088  0.6214  0.1627 -0.5028
  269MOL0     N36232   2.142   4.349   1.055 -0.2350  0.1386  0.5515
  269MOL0     C36233   2.495   5.144   1.813 -0.2326 -0.6062  0.9837
  269MOL0     C36234   2.550   5.202   1.928  0.6231 -0.1992 -0.5517
  269MOL0     C36235   2.662   5.455   2.281 -0.1076  0.4134  0.6198
  269MOL0     C36236   2.623   5.391   2.393  0.0270  0.6699 -0.3828
  269MOL0     C36237   2.643   5.447   2.523 -0.4550 -0.8899 -0.0619
  269MOL0     C36238   2.692   5.573   2.530  0.8394 -0.2085 -0.1744
  269MOL0     O36239   2.707   5.615   2.661  0.4609 -0.8537 -0.6396
  269MOL0     C36240   2.736   5.754   2.677  0.0087 -0.9302 -0.4899
  269MOL0     C36241   2.619   5.838   2.644  0.0749  1.1413  0.4732
  269MOL0     C36242   2.625   5.975   2.703 -0.6419  0.1810  0.2438
  269MOL0     C36243   2.587   6.084   2.600 -0.0663  0.2153 -0.4323
  269MOL0     C36244   2.596   6.214   2.672 -0.2886  0.2081 -0.0852
  269MOL0     C36245   2.602   6.313   2.739  0.4799  0.3002  0.4140
  269MOL0     C36246   2.740   5.639   2.415  1.3828  0.3943 -0.0193
  269MOL0     C36247   2.720   5.582   2.288  0.4732 -0.2209 -0.3592
  269MOL0     H36248   2.272   5.343   2.051 -0.6733  0.1096 -0.5439
  269MOL0     H36249   2.165   5.240   1.870 -0.1945 -0.1367  0.5495
  269MOL0     H36250   2.458   5.108   1.540  1.1901 -0.4636 -1.9266
  269MOL0     H36251   2.433   4.938   1.611 -1.2431  0.6128  0.4111
  269MOL0     H36252   2.221   4.924   1.472  1.3311 -2.5881 -2.5640
  269MOL0     H36253   2.255   5.093   1.424 -0.4706  0.7615  2.1296
  269MOL0     H36254   2.404   5.035   1.272  0.3261 -0.0410  0.1696
  269MOL0     H36255   2.472   4.897   1.360  1.0682  0.3250 -1.3488
  269MOL0     H36256   2.221   4.913   1.210  2.1296  1.3509 -3.0029
  269MOL0     H36257   2.362   4.824   1.156 -0.8516  0.1542  0.0834
  269MOL0     H36258   2.366   4.705   1.380  0.2597 -1.8044 -1.5104
  269MOL0     H36259   2.193   4.732   1.391  0.2964 -0.3061  1.0698
  269MOL0     H36260   2.173   4.541   1.253 -0.2187 -0.4410 -2.2122
  269MOL0     H36261   2.196   4.652   1.130 -0.5558 -1.0274  0.3299
  269MOL0     H36262   2.459   4.608   1.178 -2.8302  2.9789 -0.1121
  269MOL0     H36263   2.388   4.470   1.281 -5.4525  0.0092  0.3963
  269MOL0     H36264   2.475   4.398   1.058  0.2325  1.1873  1.7722
  269MOL0     H36265   2.356   4.504   0.987 -0.2608 -0.5947 -1.1137
  269MOL0     H36266   2.392   4.176   1.196  0.4084  0.7371 -0.5065
  269MOL0     H36267   2.224   3.997   1.312 -1.5101 -1.8730  1.0013
  269MOL0     H36268   2.055   4.032   1.283 -2.1684  0.3322 -1.9423
  269MOL0     H36269   2.171   3.812   1.173 -1.9867 -0.4227 -0.4110
  269MOL0     H36270   2.246   3.929   1.072 -0.5581 -0.6514 -0.4628
  269MOL0     H36271   2.059   3.788   0.968  0.4024 -0.3892  0.2935
  269MOL0     H36272   2.019   3.958   0.963 -0.5924 -0.5489 -1.0395
  269MOL0     H36273   1.827   3.798   1.044  0.3122 -1.1317  0.8488
  269MOL0     H36274   1.862   3.936   1.150  2.6824  2.5535 -1.2679
  269MOL0     H36275   1.652   3.768   1.189 -1.2678 -0.4021 -1.7997
  269MOL0     H36276   1.383   3.566   1.321  1.4807 -2.5554  0.5007
  269MOL0     H36277   1.433   3.706   1.213  1.0130 -1.0161 -2.2128
  269MOL0     H36278   1.442   3.537   1.167 -0.4256 -0.7957  0.2246
  269MOL0     H36279   1.497   3.167   1.590 -2.0612  2.0055  1.7230
  269MOL0     H36280   1.380   2.977   1.657 -0.8576  0.8609  0.7291
  269MOL0     H36281   1.070   2.857   1.703  1.2105  3.1920  0.9530
  269MOL0     H36282   1.032   2.993   1.598  1.6134  0.0326 -1.0247
  269MOL0     H36283   0.850   2.834   1.556  0.5892  0.0667 -0.2501
  269MOL0     H36284   0.969   2.800   1.423 -1.2192  1.7775  0.6924
  269MOL0     H36285   0.921   2.663   1.695  1.3124  1.1898  0.4663
  269MOL0     H36286   1.038   2.606   1.587  0.4109  2.2516 -0.9711
  269MOL0     H36287   0.814   2.496   1.583 -0.3283  0.4529 -0.0227
  269MOL0     H36288   0.751   2.639   1.498  1.0059  1.0869 -2.5149
  269MOL0     H36289   0.978   2.470   1.410 -1.4776 -1.5854  1.6793
  269MOL0     H36290   0.929   2.619   1.314 -3.9436  0.9091 -0.9347
  269MOL0     H36291   0.849   2.405   1.212 -0.1224  1.6776 -1.9186
  269MOL0     H36292   0.754   2.370   1.357  0.0889  0.0800 -2.0151
  269MOL0     H36293   0.714   2.591   1.151 -2.2989  0.7302 -0.5552
  269MOL0     H36294   0.639   2.600   1.314 -0.5342  0.7397 -0.2198
  269MOL0     H36295   0.484   2.510   1.132 -0.8720 -0.7171 -0.6068
  269MOL0     H36296   0.503   2.397   1.267  0.6055 -0.0350  0.7626
  269MOL0     H36297   1.102   3.034   1.329  0.6461 -0.3977 -0.0740
  269MOL0     H36298   1.213   3.230   1.264 -3.5713 -1.4249  0.8082
  269MOL0     H36299   1.822   3.402   1.459  0.2891 -0.9590 -1.4582
  269MOL0     H36300   1.981   3.565   1.394 -1.4563 -0.0528  1.4993
  269MOL0     H36301   2.558   5.103   1.735  1.6725  0.0434  2.1318
  269MOL0     H36302   2.656   5.190   1.948  0.5856  1.0024  0.4814
  269MOL0     H36303   2.566   5.298   2.392  0.7420  0.0453  3.1089
  269MOL0     H36304   2.604   5.408   2.616 -1.1142  1.3496  0.6692
  269MOL0     H36305   2.761   5.747   2.784 -0.3685 -1.0086 -0.4073
  269MOL0     H36306   2.825   5.796   2.629 -0.0880  2.7048  2.0630
  269MOL0     H36307   2.533   5.784   2.684 -1.0310 -0.6080 -3.7357
  269MOL0     H36308   2.604   5.852   2.536  0.8808 -0.3881  0.1314
  269MOL0     H36309   2.725   5.993   2.745 -0.0175 -1.9083 -0.2256
  269MOL0     H36310   2.566   5.980   2.795 -0.8481 -1.3568  0.2117
  269MOL0     H36311   2.485   6.058   2.571 -0.7988  0.3659  1.8372
  269MOL0     H36312   2.657   6.087   2.516  1.5134  3.9499  0.8103
  269MOL0     H36313   2.618   6.408   2.787  0.4968  2.7308 -3.8904
  269MOL0     H36314   2.788   5.736   2.422  2.9616 -0.4443  1.4455
  269MOL0     H36315   2.759   5.629   2.198  2.6451 -5.2820 -2.4176
  270MOL0     O36316   5.623   2.006  10.503 -0.3818 -0.3056  0.0845
  270MOL0     C36317   5.667   1.946  10.603  0.0069 -0.9594 -0.3799
  270MOL0     O36318   5.698   2.003  10.734  0.7443 -0.6323  0.8064
  270MOL0     C36319   5.685   2.140  10.756 -0.5689 -0.4666  0.0718
  270MOL0     C36320   5.690   2.245  10.661 -0.9976 -0.2847 -0.2282
  270MOL0     C36321   5.703   2.376  10.697 -0.7986 -0.6636  0.4682
  270MOL0     C36322   5.693   2.417  10.823 -1.5420 -0.0770 -0.5864
  270MOL0     O36323   5.699   2.553  10.851  0.3122  0.3968  0.2559
  270MOL0     C36324   5.711   2.655  10.749  0.6557  0.5086 -0.0378
  270MOL0     C36325   5.709   2.797  10.797  0.5761  1.0950 -0.3685
  270MOL0     C36326   5.575   2.836  10.861 -0.2292  0.4123 -0.1593
  270MOL0     C36327   5.579   2.966  10.954 -0.1463  0.5302 -0.0192
  270MOL0     C36328   5.458   3.039  10.997  0.6730  0.2941  0.5738
  270MOL0     C36329   5.347   2.948  11.047 -0.7223 -0.6702 -0.2005
  270MOL0     C36330   5.227   3.013  11.115  0.3267  0.5112 -0.1734
  270MOL0     C36331   5.108   3.039  11.028  0.4895  0.5987 -0.7519
  270MOL0     N36332   5.053   2.922  10.964 -0.3196 -0.5839 -0.5566
  270MOL0     C36333   5.073   2.892  10.834  0.5757  0.1283  1.2220
  270MOL0     C36334   4.996   2.779  10.813 -0.5244  0.6160  0.2793
  270MOL0     C36335   5.021   2.683  10.698 -0.0169 -0.0328  0.0572
  270MOL0     C36336   5.083   2.752  10.571  0.5112 -0.8385 -0.5005
  270MOL0     C36337   5.097   2.654  10.453 -0.5700 -0.1848  0.4697
  270MOL0     C36338   5.097   2.730  10.308 -0.9366  0.0011 -0.6411
  270MOL0     O36339   5.196   2.828  10.296  0.5938  0.2306  0.3134
  270MOL0     C36340   5.328   2.794  10.308  0.0057 -0.4806  0.8141
  270MOL0     C36341   5.371   2.678  10.249  0.0346  0.2816 -0.4444
  270MOL0     C36342   5.501   2.638  10.245 -0.1979  0.4180 -0.3374
  270MOL0     C36343   5.530   2.507  10.167 -1.2013 -1.1542 -0.0368
  270MOL0     C36344   5.605   2.718  10.300  0.2406  1.2755  0.0648
  270MOL0     C36345   5.739   2.690  10.286  0.4208 -0.1454  0.9463
  270MOL0     O36346   5.825   2.797  10.275  0.1008  1.2367  0.3582
  270MOL0     C36347   5.957   2.756  10.280  0.1481 -0.0733  0.9101
  270MOL0     C36348   6.027   2.757  10.407 -0.9373 -0.0159  0.2376
  270MOL0     C36349   6.166   2.731  10.411  0.1448  0.0012 -0.4367
  270MOL0     C36350   6.237   2.699  10.296  0.0587 -0.7332  0.6145
  270MOL0     O36351   6.367   2.661  10.288  0.1514  0.3748 -0.0906
  270MOL0     C36352   6.452   2.759  10.343 -0.6388 -0.3879  0.3498
  270MOL0     C36353   6.589   2.767  10.276 -0.7818 -0.5117 -1.0525
  270MOL0     C36354   6.668   2.643  10.316  0.4702  0.5439 -0.3301
  270MOL0     C36355   6.792   2.602  10.245  0.8235 -0.4777  1.2567
  270MOL0     C36356   6.873   2.489  10.315  0.5058 -0.3516 -0.0061
  270MOL0     C36357   6.934   2.521  10.455 -0.5914 -0.5740 -0.5058
  270MOL0     C36358   7.034   2.417  10.499 -0.1271  0.6758  0.4954
  270MOL0     C36359   7.139   2.473  10.584  0.4252 -0.1431  0.2800
  270MOL0    Cl36360   7.234   2.594  10.490 -0.0701 -0.5781 -0.3629
  270MOL0     C36361   6.172   2.701  10.174  0.5236 -0.6752  0.2911
  270MOL0     C36362   6.033   2.722  10.166 -0.1867 -0.4587 -0.2292
  270MOL0     O36363   5.771   2.572  10.301  0.1682 -0.3017 -0.5093
  270MOL0     C36364   5.561   2.840  10.365 -0.7306 -0.0356  0.4747
  270MOL0     C36365   5.425   2.873  10.366 -0.0642  0.3395 -1.2374
  270MOL0     N36366   4.919   2.756  10.930 -0.2341  0.2657 -1.0127
  270MOL0     N36367   4.955   2.841  11.014 -0.9191  0.1713 -0.0177
  270MOL0     C36368   5.709   2.319  10.929  0.5645  0.6749  0.1190
  270MOL0     C36369   5.718   2.183  10.890 -0.3364 -0.0901  0.2768
  270MOL0     C36370   5.695   1.802  10.579  0.5295  0.5765 -0.1672
  270MOL0     C36371   5.603   1.735  10.512  0.4518  0.2073  0.3353
  270MOL0     C36372   5.630   1.607  10.464  0.5282  0.6756 -0.0806
  270MOL0     C36373   5.751   1.540  10.481  0.3762 -0.5250  0.1434
  270MOL0     O36374   5.766   1.421  10.419  0.2122  0.3828  0.3640
  270MOL0     C36375   5.899   1.366  10.412  0.3543 -0.9759  0.7782
  270MOL0     C36376   5.911   1.283  10.538  0.0096 -0.1533 -0.1143
  270MOL0     C36377   5.801   1.173  10.553 -0.4980  1.2101  0.3202
  270MOL0     C36378   5.828   1.090  10.673 -0.5000  0.1235 -0.0726
  270MOL0     C36379   5.697   1.038  10.727  0.1341  1.1111 -0.4476
  270MOL0     C36380   5.583   1.009  10.762  0.4174 -0.3737  0.1788
  270MOL0     C36381   5.849   1.620  10.550  0.7935  1.1478 -0.2063
  270MOL0     C36382   5.821   1.748  10.598  0.1751  0.0812  0.2456
  270MOL0     H36383   5.697   2.220  10.555  4.6831 -4.5854  0.6774
  270MOL0     H36384   5.710   2.453  10.621  1.4004 -0.7133  0.5644
  270MOL0     H36385   5.805   2.629  10.699  0.6384  0.8571 -0.2528
  270MOL0     H36386   5.625   2.631  10.686  0.9415 -4.3161  1.0673
  270MOL0     H36387   5.799   2.828  10.850  1.3585  0.3535 -1.2348
  270MOL0     H36388   5.703   2.857  10.706 -0.7930  3.9045  1.4057
  270MOL0     H36389   5.509   2.855  10.776 -3.9146 -1.1677  2.0959
  270MOL0     H36390   5.521   2.749  10.899  0.6267 -0.5564 -1.0764
  270MOL0     H36391   5.622   2.936  11.050 -2.0898 -0.0504  0.7167
  270MOL0     H36392   5.657   3.033  10.916  0.0329  0.2804 -0.0999
  270MOL0     H36393   5.487   3.113  11.072  1.3292  0.0000  0.6136
  270MOL0     H36394   5.417   3.094  10.911  0.4670  0.5176  0.8139
  270MOL0     H36395   5.332   2.879  10.964 -1.3346 -2.6875  1.5187
  270MOL0     H36396   5.395   2.891  11.127 -0.8515 -1.3501 -0.5964
  270MOL0     H36397   5.188   2.947  11.194 -0.3062  1.8051  0.6406
  270MOL0     H36398   5.262   3.101  11.171  0.1062 -0.6926  1.9799
  270MOL0     H36399   5.133   3.116  10.955 -0.2526  1.7411  0.1655
  270MOL0     H36400   5.037   3.071  11.105  1.6838  2.6002 -0.4283
  270MOL0     H36401   5.148   2.928  10.764 -1.1634  1.5503  0.0289
  270MOL0     H36402   5.085   2.601  10.728 -3.0283 -1.4701  3.1547
  270MOL0     H36403   4.921   2.655  10.664 -0.8912  2.3401  0.4984
  270MOL0     H36404   5.176   2.801  10.599 -1.4257  0.8310  3.8268
  270MOL0     H36405   5.022   2.833  10.530  1.0331  0.4428  1.1705
  270MOL0     H36406   5.019   2.578  10.464 -0.0476 -1.5646 -3.5709
  270MOL0     H36407   5.199   2.616  10.466 -0.4719  0.6846  2.7519
  270MOL0     H36408   5.006   2.790  10.296  0.5852  2.5456 -0.3087
  270MOL0     H36409   5.090   2.652  10.232 -0.5409  0.7367 -1.4480
  270MOL0     H36410   5.299   2.613  10.200  0.2792 -0.3931  0.0707
  270MOL0     H36411   5.435   2.475  10.124 -1.7644 -0.6964  0.8168
  270MOL0     H36412   5.594   2.535  10.084 -0.4603 -0.0374  0.8792
  270MOL0     H36413   5.572   2.429  10.232 -3.5834 -1.3027  1.4679
  270MOL0     H36414   5.972   2.773  10.499 -1.7129  1.1484 -0.4117
  270MOL0     H36415   6.206   2.734  10.512 -1.9614 -0.5019  0.4686
  270MOL0     H36416   6.406   2.857  10.327 -1.6797 -0.3648  3.0728
  270MOL0     H36417   6.462   2.759  10.452 -0.1033 -0.8094  0.3080
  270MOL0     H36418   6.569   2.770  10.169 -2.3069  0.7899 -0.7619
  270MOL0     H36419   6.633   2.863  10.306 -0.2683 -1.3657  1.1815
  270MOL0     H36420   6.607   2.556  10.290  3.1328 -1.0684 -1.6647
  270MOL0     H36421   6.687   2.643  10.424 -0.2625 -1.3702 -0.1620
  270MOL0     H36422   6.772   2.570  10.142  3.2125 -2.2491  1.2592
  270MOL0     H36423   6.858   2.688  10.231 -1.4358  1.0641 -0.8690
  270MOL0     H36424   6.952   2.481  10.240  1.1251  3.0425  0.1625
  270MOL0     H36425   6.809   2.400  10.311 -0.4142  0.1788  1.9438
  270MOL0     H36426   6.965   2.626  10.457 -4.1103  0.5952  1.0348
  270MOL0     H36427   6.853   2.510  10.528 -0.0718 -0.1530  0.1515
  270MOL0     H36428   7.082   2.368  10.413 -2.7446 -1.0993 -0.0919
  270MOL0     H36429   6.983   2.336  10.553  1.6828 -1.0237 -0.2184
  270MOL0     H36430   7.093   2.523  10.669  0.8576 -1.2998  1.2090
  270MOL0     H36431   7.204   2.395  10.624  1.6593 -2.3947 -5.1164
  270MOL0     H36432   6.222   2.691  10.078 -1.1082  2.1113 -0.9664
  270MOL0     H36433   5.975   2.716  10.075  0.7123 -0.4993 -0.8153
  270MOL0     H36434   5.632   2.918  10.389 -0.3253 -0.1325 -0.3914
  270MOL0     H36435   5.385   2.968  10.399  2.2456  0.4239  1.7074
  270MOL0     H36436   5.725   2.357  11.029 -0.7053  2.6057 -0.3431
  270MOL0     H36437   5.721   2.100  10.961  0.7084  0.7149  1.2046
  270MOL0     H36438   5.501   1.770  10.502 -0.1150 -1.0576  1.4007
  270MOL0     H36439   5.556   1.559  10.401 -1.0081  3.1215 -0.2765
  270MOL0     H36440   5.909   1.294  10.331 -2.3781  0.1286 -0.6653
  270MOL0     H36441   5.981   1.437  10.401 -1.2873  0.7593 -1.0609
  270MOL0     H36442   5.886   1.350  10.620  2.9349 -0.0892  0.8758
  270MOL0     H36443   6.010   1.236  10.548  0.7521  1.1950 -0.8984
  270MOL0     H36444   5.809   1.095  10.477  1.5114 -2.2473  3.6857
  270MOL0     H36445   5.700   1.214  10.549 -1.2466 -0.4157  1.5144
  270MOL0     H36446   5.889   1.137  10.750 -1.2450  0.6155  0.2311
  270MOL0     H36447   5.895   1.014  10.632 -1.6568  0.1814 -2.2500
  270MOL0     H36448   5.481   0.986  10.784  0.7266  0.1251  2.3680
  270MOL0     H36449   5.947   1.581  10.574  0.8995  1.0961 -0.7163
  270MOL0     H36450   5.885   1.814  10.656 -0.6785  1.9987 -0.8914
  271MOL0     O36451  11.360   5.724   4.119  0.9041 -0.0045  0.6665
  271MOL0     C36452  11.363   5.663   4.224  0.2135  0.2732  0.0917
  271MOL0     O36453  11.276   5.556   4.250  0.0866 -0.3155  0.4685
  271MOL0     C36454  11.216   5.484   4.150 -0.4131 -0.6331 -0.2359
  271MOL0     C36455  11.294   5.410   4.071 -0.3677  0.4255 -0.6057
  271MOL0     C36456  11.232   5.329   3.976  0.2565  0.3783  0.3453
  271MOL0     C36457  11.091   5.321   3.956  0.7405 -0.1358 -0.5105
  271MOL0     O36458  11.048   5.235   3.864  0.3349  0.5234  0.0892
  271MOL0     C36459  10.910   5.257   3.819 -0.2659  0.3074 -0.2282
  271MOL0     C36460  10.889   5.166   3.698 -0.1439  0.5346 -0.3602
  271MOL0     C36461  10.922   5.254   3.575 -0.7163 -0.4896  0.0488
  271MOL0     C36462  10.808   5.330   3.507 -0.5227  0.4787  0.8202
  271MOL0     C36463  10.831   5.402   3.372  0.0436 -0.5101 -1.0696
  271MOL0     C36464  10.929   5.523   3.372 -0.6611 -0.6144 -0.3189
  271MOL0     C36465  10.975   5.572   3.233  0.0313  0.1448 -0.4136
  271MOL0     C36466  11.077   5.486   3.151  1.1410  1.0615  0.5881
  271MOL0     N36467  11.198   5.471   3.231 -0.5635 -0.1386 -0.7978
  271MOL0     C36468  11.252   5.363   3.295  0.1512  0.1360 -0.5661
  271MOL0     C36469  11.357   5.402   3.376 -0.8472  0.0833 -0.2173
  271MOL0     C36470  11.444   5.303   3.452 -1.1121 -0.5640  0.3633
  271MOL0     C36471  11.570   5.297   3.367 -0.4677  0.2110 -0.3028
  271MOL0     C36472  11.703   5.247   3.451  0.0703 -0.2214 -0.2400
  271MOL0     C36473  11.691   5.154   3.576 -0.5222 -0.1317  0.0161
  271MOL0     O36474  11.802   5.164   3.663  0.0060 -0.1265  0.0565
  271MOL0     C36475  11.801   5.259   3.750  1.0552 -0.3408 -0.9896
  271MOL0     C36476  11.694   5.349   3.787 -0.4554 -0.0557 -0.1449
  271MOL0     C36477  11.702   5.421   3.904  0.2772 -0.5878 -0.5212
  271MOL0     C36478  11.589   5.507   3.943  1.4290  0.5289 -0.0188
  271MOL0     C36479  11.817   5.419   3.986  0.1405  0.0168  1.2069
  271MOL0     C36480  11.837   5.506   4.098  0.1703 -0.2306 -0.1052
  271MOL0     O36481  11.917   5.457   4.200  0.8488 -0.1763  0.0093
  271MOL0     C36482  11.916   5.518   4.322  0.1778 -0.0987 -0.8024
  271MOL0     C36483  12.042   5.548   4.383  0.1643 -0.1563  0.3795
  271MOL0     C36484  12.051   5.580   4.521  0.5519  0.8839  1.0804
  271MOL0     C36485  11.928   5.589   4.599 -0.9849  0.1874 -0.6903
  271MOL0     O36486  11.911   5.608   4.735 -0.0088  0.4296 -0.6248
  271MOL0     C36487  12.037   5.611   4.803 -0.1115 -0.5551 -0.3380
  271MOL0     C36488  12.016   5.627   4.952  0.1942 -0.4607 -0.8761
  271MOL0     C36489  12.155   5.625   5.026  0.1886  0.5799  0.2577
  271MOL0     C36490  12.255   5.729   4.990 -1.1811 -0.0705  0.7485
  271MOL0     C36491  12.365   5.713   5.101  0.5146 -0.4073 -0.3847
  271MOL0     C36492  12.490   5.788   5.053 -0.2854 -0.2233 -0.9153
  271MOL0     C36493  12.606   5.783   5.147  0.1315  0.7594 -0.5719
  271MOL0     C36494  12.731   5.847   5.095 -0.1034 -0.5448 -0.3763
  271MOL0    Cl36495  12.870   5.805   5.189  0.1337 -0.0081  0.1604
  271MOL0     C36496  11.804   5.555   4.544 -0.4259 -0.2580  0.3761
  271MOL0     C36497  11.797   5.521   4.409  0.2534  0.4779 -0.2999
  271MOL0     O36498  11.780   5.612   4.107  0.4766 -0.1047 -0.2824
  271MOL0     C36499  11.927   5.337   3.942  0.1192 -0.3421  0.2322
  271MOL0     C36500  11.920   5.261   3.827 -0.2249 -0.1685 -0.4158
  271MOL0     N36501  11.367   5.543   3.357  0.7442 -0.1250 -0.3885
  271MOL0     N36502  11.272   5.580   3.280  0.1873  0.1466  0.1600
  271MOL0     C36503  11.012   5.403   4.043 -0.4600  0.6219 -0.2472
  271MOL0     C36504  11.072   5.482   4.144 -0.3792  0.2411  0.4875
  271MOL0     C36505  11.438   5.709   4.347 -0.2306 -0.3744 -0.2602
  271MOL0     C36506  11.561   5.775   4.340  0.0662  0.5800  0.9654
  271MOL0     C36507  11.624   5.821   4.458 -0.0123 -0.3634  0.6863
  271MOL0     C36508  11.568   5.799   4.588  0.1332  0.4414  0.6764
  271MOL0     O36509  11.626   5.849   4.704  0.5898 -0.9483  0.7694
  271MOL0     C36510  11.747   5.926   4.683  0.2886 -0.1310 -0.5044
  271MOL0     C36511  11.813   5.972   4.815  1.0889  0.0063 -0.0089
  271MOL0     C36512  11.955   5.997   4.783 -0.7861  0.3820 -0.6432
  271MOL0     C36513  12.014   6.051   4.917  0.5217  0.0047  0.3073
  271MOL0     C36514  12.152   6.087   4.880  0.4359  0.4843  0.3079
  271MOL0     C36515  12.256   6.130   4.831 -0.2882 -0.6299 -0.1236
  271MOL0     C36516  11.450   5.724   4.594 -0.0463 -0.5436  0.5167
  271MOL0     C36517  11.397   5.679   4.477 -0.2041  0.3212  0.3891
  271MOL0     H36518  11.398   5.419   4.100 -0.3259  1.7806 -1.1359
  271MOL0     H36519  11.288   5.260   3.913 -1.1557  0.2716 -0.8255
  271MOL0     H36520  10.842   5.237   3.902 -0.9857 -0.6367 -1.0301
  271MOL0     H36521  10.883   5.358   3.785 -1.0300  0.2060  0.0507
  271MOL0     H36522  10.953   5.078   3.703  0.5176  0.8850 -2.0395
  271MOL0     H36523  10.781   5.144   3.699  0.1581 -1.1500  1.5974
  271MOL0     H36524  11.007   5.323   3.579 -0.0425 -0.9358 -3.1535
  271MOL0     H36525  10.963   5.174   3.512  0.3120 -0.1422  0.2571
  271MOL0     H36526  10.717   5.272   3.491 -1.3750  2.4282 -2.2438
  271MOL0     H36527  10.785   5.406   3.582 -0.0366  1.0565  0.3890
  271MOL0     H36528  10.867   5.333   3.296  2.2468 -1.1061  0.4465
  271MOL0     H36529  10.737   5.441   3.331 -0.4005  0.4616  0.7242
  271MOL0     H36530  10.892   5.612   3.423  0.3727  0.4413 -1.3443
  271MOL0     H36531  11.025   5.494   3.414  0.1620 -0.9800 -2.3144
  271MOL0     H36532  10.886   5.591   3.174  0.0864 -0.7367 -0.7990
  271MOL0     H36533  11.028   5.665   3.255  3.8606 -1.9873  0.5185
  271MOL0     H36534  11.101   5.542   3.060 -0.4890  2.4930  0.9789
  271MOL0     H36535  11.024   5.394   3.123  0.1720  1.6214  0.5103
  271MOL0     H36536  11.221   5.260   3.287 -1.0673  0.5698 -2.0039
  271MOL0     H36537  11.482   5.338   3.548  0.2806 -1.2801  0.1080
  271MOL0     H36538  11.411   5.199   3.455  3.8227 -2.6306 -2.8886
  271MOL0     H36539  11.594   5.392   3.318 -0.8333  0.4206 -0.0797
  271MOL0     H36540  11.562   5.225   3.285  0.0546 -1.8297  1.3499
  271MOL0     H36541  11.744   5.336   3.499  1.3541 -0.4619 -0.8548
  271MOL0     H36542  11.779   5.223   3.375  1.6894  3.4402 -0.0186
  271MOL0     H36543  11.673   5.052   3.543 -0.1592  0.4420 -2.1336
  271MOL0     H36544  11.596   5.170   3.628 -1.6816 -0.2395 -1.9589
  271MOL0     H36545  11.607   5.356   3.723  1.6799 -0.7981 -3.3932
  271MOL0     H36546  11.607   5.611   3.912  3.6390 -0.0622 -0.9495
  271MOL0     H36547  11.501   5.468   3.890  2.3408 -2.7380  0.6726
  271MOL0     H36548  11.567   5.497   4.049 -3.5423 -3.1177 -1.0143
  271MOL0     H36549  12.133   5.538   4.324  0.7794 -0.3550  1.3440
  271MOL0     H36550  12.156   5.599   4.544  1.3084 -0.2654 -1.1395
  271MOL0     H36551  12.081   5.512   4.787 -0.1719 -0.5700 -0.4131
  271MOL0     H36552  12.103   5.686   4.758 -0.5720 -0.7985 -1.4675
  271MOL0     H36553  11.974   5.726   4.972 -2.1542 -1.6227  0.3518
  271MOL0     H36554  11.944   5.554   4.991 -0.4316  1.0632  1.0111
  271MOL0     H36555  12.200   5.526   5.014 -1.1019  0.0354 -0.3797
  271MOL0     H36556  12.132   5.638   5.132  1.2181  1.6476  0.3745
  271MOL0     H36557  12.291   5.702   4.889 -0.0153 -0.9755  1.3713
  271MOL0     H36558  12.209   5.827   5.000 -3.0253 -1.0391  2.6246
  271MOL0     H36559  12.390   5.610   5.128  2.3463  0.0380 -0.2324
  271MOL0     H36560  12.318   5.769   5.182 -1.3807 -0.7876 -1.1751
  271MOL0     H36561  12.516   5.732   4.963 -1.2408  1.3248 -2.2115
  271MOL0     H36562  12.471   5.892   5.023 -4.1950 -0.6993 -0.5880
  271MOL0     H36563  12.629   5.677   5.155  0.5557  0.7525 -1.7529
  271MOL0     H36564  12.585   5.826   5.246 -2.2428 -1.2883 -0.0855
  271MOL0     H36565  12.715   5.954   5.076  1.1343 -0.4367 -0.8901
  271MOL0     H36566  12.730   5.796   4.998  0.9027 -0.8797 -0.2141
  271MOL0     H36567  11.707   5.555   4.592 -1.7677 -3.4474 -2.0228
  271MOL0     H36568  11.697   5.498   4.371  1.2880 -1.6378 -1.9622
  271MOL0     H36569  12.018   5.339   4.001 -0.2255  0.5867  0.7542
  271MOL0     H36570  12.006   5.207   3.789 -1.3657 -0.2225 -3.1356
  271MOL0     H36571  10.904   5.398   4.046 -0.4511  0.7910  1.5629
  271MOL0     H36572  11.021   5.548   4.213  3.2995  2.8055  1.0386
  271MOL0     H36573  11.616   5.777   4.247  2.0959 -2.0709  1.9665
  271MOL0     H36574  11.726   5.856   4.447  0.2611 -0.3170  2.8390
  271MOL0     H36575  11.818   5.875   4.617  0.1564  1.2951 -1.8131
  271MOL0     H36576  11.723   6.017   4.628  0.7403  0.0292 -0.4422
  271MOL0     H36577  11.809   5.895   4.892  0.3356  0.8483  0.8152
  271MOL0     H36578  11.748   6.057   4.838 -2.5229 -2.4091 -0.4319
  271MOL0     H36579  11.978   6.051   4.690 -0.4228  0.0349 -0.7575
  271MOL0     H36580  12.002   5.903   4.752  1.0009  1.5237 -1.5726
  271MOL0     H36581  12.014   5.970   4.991 -0.1905 -0.2110  0.0804
  271MOL0     H36582  11.956   6.136   4.952 -1.2472  0.5906 -3.5555
  271MOL0     H36583  12.349   6.160   4.789 -1.3543  2.5571 -0.4470
  271MOL0     H36584  11.411   5.726   4.695  2.9740 -2.0562  1.8362
  271MOL0     H36585  11.312   5.613   4.486 -0.4713  0.4145 -1.1800
  272MOL0     O36586   3.604   5.537   3.042 -0.1232  0.3801 -0.4180
  272MOL0     C36587   3.705   5.477   3.003 -0.6768 -0.1980 -0.5347
  272MOL0     O36588   3.703   5.391   2.895 -0.4417 -0.5321  0.0629
  272MOL0     C36589   3.583   5.372   2.828  0.7506  0.1556 -0.6208
  272MOL0     C36590   3.544   5.427   2.708  0.1507 -0.1565  0.1623
  272MOL0     C36591   3.418   5.398   2.659 -0.3558  1.0703  0.4506
  272MOL0     C36592   3.319   5.318   2.722 -0.0245  0.3570  0.2475
  272MOL0     O36593   3.194   5.299   2.662 -0.6176  0.5530  0.2203
  272MOL0     C36594   3.175   5.192   2.559  0.0538  0.8474 -0.1348
  272MOL0     C36595   3.049   5.226   2.482  0.2872  0.1472 -0.4459
  272MOL0     C36596   3.043   5.121   2.371 -0.5548  0.4289  0.0634
  272MOL0     C36597   2.902   5.098   2.329  0.2477 -1.8110  0.4488
  272MOL0     C36598   2.878   4.951   2.281 -0.1422 -0.0094  0.0207
  272MOL0     C36599   2.788   4.940   2.151  0.7630  0.0297  0.7125
  272MOL0     C36600   2.651   5.002   2.197  0.1054 -0.3432 -0.1458
  272MOL0     C36601   2.580   4.921   2.306 -0.1152  0.1674 -1.0556
  272MOL0     N36602   2.578   4.777   2.280 -0.2961  0.2857 -0.2357
  272MOL0     C36603   2.491   4.710   2.200  0.5821  0.6248  0.0616
  272MOL0     C36604   2.524   4.577   2.206  0.0855 -0.1490  0.3153
  272MOL0     C36605   2.443   4.457   2.165 -0.7316  0.5223 -1.1261
  272MOL0     C36606   2.497   4.399   2.037 -0.1440 -0.1326  0.0003
  272MOL0     C36607   2.408   4.281   1.986 -0.3888  0.5697  0.6521
  272MOL0     C36608   2.437   4.149   2.066 -0.4266  0.2921  0.2222
  272MOL0     O36609   2.395   4.035   1.988  0.3949 -0.6044  0.0894
  272MOL0     C36610   2.341   3.925   2.050  0.6163 -0.4631  0.3020
  272MOL0     C36611   2.411   3.869   2.156 -0.6041 -0.0065 -0.0443
  272MOL0     C36612   2.364   3.765   2.232  0.1191  1.3163 -0.0534
  272MOL0     C36613   2.449   3.717   2.353  0.1026  0.0990  0.4131
  272MOL0     C36614   2.242   3.708   2.189  0.6981  0.1007  0.3512
  272MOL0     C36615   2.179   3.594   2.250 -0.2964  0.5130  0.1564
  272MOL0     O36616   2.054   3.575   2.202  0.2043  0.3540 -0.7077
  272MOL0     C36617   2.000   3.449   2.202  0.7752 -0.0823 -0.0756
  272MOL0     C36618   1.953   3.385   2.311 -0.9899  0.6268 -0.8027
  272MOL0     C36619   1.908   3.250   2.315  0.2383 -0.2672  0.6772
  272MOL0     C36620   1.915   3.180   2.187  0.0261 -0.1191 -0.5705
  272MOL0     O36621   1.877   3.050   2.177  0.0346 -0.1883 -0.4050
  272MOL0     C36622   1.952   2.957   2.091  0.3584  0.2605 -0.0156
  272MOL0     C36623   1.933   2.808   2.134 -1.2615 -0.3160  0.5936
  272MOL0     C36624   1.992   2.777   2.273 -0.5815 -0.3139  0.3345
  272MOL0     C36625   1.922   2.835   2.392 -0.4976  0.3600 -0.0764
  272MOL0     C36626   1.987   2.784   2.519 -0.0256 -0.8812 -0.4398
  272MOL0     C36627   2.129   2.842   2.546 -1.0004  0.2113 -0.7377
  272MOL0     C36628   2.154   2.795   2.695  0.9786  0.3611 -0.0183
  272MOL0     C36629   2.263   2.877   2.759  0.3359  0.8641 -0.3517
  272MOL0    Cl36630   2.404   2.880   2.638 -0.0432 -0.1525 -0.0429
  272MOL0     C36631   1.958   3.256   2.075  0.6821  0.3578 -0.8633
  272MOL0     C36632   1.996   3.385   2.084 -0.8140  0.3534  0.3323
  272MOL0     O36633   2.239   3.527   2.332 -0.1222 -0.4675 -0.4155
  272MOL0     C36634   2.171   3.764   2.078  0.7866 -0.9945 -0.8772
  272MOL0     C36635   2.220   3.863   2.006 -0.0887  0.6863 -1.5686
  272MOL0     N36636   2.635   4.564   2.286 -0.4720 -0.0415  0.3411
  272MOL0     N36637   2.663   4.684   2.322 -0.5339  0.7453  1.4316
  272MOL0     C36638   3.369   5.256   2.841 -0.2186  0.8753  0.1731
  272MOL0     C36639   3.495   5.280   2.890  0.0752 -1.2883 -0.6601
  272MOL0     C36640   3.834   5.504   3.070 -1.1516  0.0517  0.2423
  272MOL0     C36641   3.951   5.429   3.030 -0.3393 -0.5101 -0.6077
  272MOL0     C36642   4.066   5.443   3.099 -0.1892  0.2026 -0.3443
  272MOL0     C36643   4.090   5.533   3.200  0.1955 -0.4028 -0.1005
  272MOL0     O36644   4.212   5.551   3.260  0.1901  0.5263  0.3702
  272MOL0     C36645   4.299   5.434   3.281  0.8197 -0.1156  0.9282
  272MOL0     C36646   4.415   5.429   3.179  0.1465  0.2491  0.0953
  272MOL0     C36647   4.530   5.342   3.230 -0.0296  0.8743  0.4730
  272MOL0     C36648   4.671   5.378   3.177 -0.9175  0.8938 -0.9841
  272MOL0     C36649   4.716   5.506   3.228  0.2999 -0.5363  0.3733
  272MOL0     C36650   4.738   5.623   3.249  0.5511 -0.7108 -0.0154
  272MOL0     C36651   3.987   5.618   3.231  0.0676  0.8875 -1.0474
  272MOL0     C36652   3.862   5.601   3.169 -0.2999 -0.0407 -0.6156
  272MOL0     H36653   3.609   5.502   2.666  0.1786 -0.3390 -0.1226
  272MOL0     H36654   3.384   5.441   2.565  0.4866 -2.4935 -1.6804
  272MOL0     H36655   3.262   5.188   2.494  0.2966 -1.2235  0.2644
  272MOL0     H36656   3.159   5.097   2.610  2.7692  1.6056  2.4295
  272MOL0     H36657   2.971   5.212   2.557  1.1433 -0.5507  0.3330
  272MOL0     H36658   3.057   5.329   2.446  1.0938 -0.0941 -0.9700
  272MOL0     H36659   3.103   5.147   2.284 -1.0502 -3.1887 -1.5148
  272MOL0     H36660   3.093   5.031   2.410  1.3813  1.0843 -0.7997
  272MOL0     H36661   2.830   5.122   2.407 -1.3464 -0.8692 -1.2464
  272MOL0     H36662   2.873   5.172   2.254  0.1406 -1.6480  0.6512
  272MOL0     H36663   2.966   4.893   2.253  0.4286  0.2997  1.1188
  272MOL0     H36664   2.839   4.897   2.368  0.2099 -0.3992 -0.0634
  272MOL0     H36665   2.823   4.999   2.066 -2.7144 -0.9332 -1.6180
  272MOL0     H36666   2.775   4.838   2.113 -1.6294  1.0735 -1.5787
  272MOL0     H36667   2.676   5.103   2.231 -0.9566 -0.0140 -0.3155
  272MOL0     H36668   2.573   5.018   2.123 -2.5762  0.4863  2.6542
  272MOL0     H36669   2.473   4.943   2.319 -1.3139 -5.4595  1.6163
  272MOL0     H36670   2.624   4.930   2.405  0.4299 -1.5333 -1.1076
  272MOL0     H36671   2.411   4.757   2.144  0.0581  0.7852  0.9236
  272MOL0     H36672   2.430   4.376   2.237 -0.1776  1.0426 -0.4180
  272MOL0     H36673   2.339   4.485   2.146 -0.8144  0.7654 -0.3705
  272MOL0     H36674   2.600   4.363   2.050 -0.7753 -2.1999 -0.3208
  272MOL0     H36675   2.503   4.473   1.956 -1.2742  0.4756  0.4539
  272MOL0     H36676   2.432   4.264   1.881 -1.5611  1.7828  0.1549
  272MOL0     H36677   2.300   4.302   1.987 -0.3042  1.0427  0.2402
  272MOL0     H36678   2.386   4.162   2.162  2.9597  0.9483  2.0974
  272MOL0     H36679   2.545   4.135   2.080 -0.6508  0.4689  2.3849
  272MOL0     H36680   2.503   3.912   2.196 -0.0492 -1.5463  0.4253
  272MOL0     H36681   2.499   3.625   2.323  1.0961 -0.3788  3.2774
  272MOL0     H36682   2.518   3.795   2.386  0.9278 -0.6262  0.4077
  272MOL0     H36683   2.397   3.674   2.439  0.4728 -0.7982  0.1924
  272MOL0     H36684   1.958   3.441   2.404  2.2348 -0.1292 -0.3895
  272MOL0     H36685   1.875   3.197   2.404 -2.5755  0.6257  0.2422
  272MOL0     H36686   1.915   2.950   1.988 -2.4846  0.0180  0.9400
  272MOL0     H36687   2.060   2.968   2.083  0.7512 -1.9073  1.5779
  272MOL0     H36688   1.824   2.800   2.124 -1.5067  3.0312 -0.9773
  272MOL0     H36689   1.976   2.754   2.049 -1.0407  0.1271  0.4173
  272MOL0     H36690   2.093   2.820   2.272 -0.2808 -1.0005 -0.9537
  272MOL0     H36691   1.998   2.668   2.282  1.2197 -0.1638  1.4157
  272MOL0     H36692   1.915   2.944   2.393 -0.3681  0.3692  0.7171
  272MOL0     H36693   1.827   2.784   2.376 -1.5030  2.4121 -0.9574
  272MOL0     H36694   1.988   2.675   2.515 -2.5829 -0.9230 -2.0481
  272MOL0     H36695   1.914   2.808   2.596 -0.7717 -3.0766 -0.3944
  272MOL0     H36696   2.205   2.792   2.485 -1.3876  0.5831 -1.5369
  272MOL0     H36697   2.131   2.950   2.533 -0.8087  0.1615 -1.1145
  272MOL0     H36698   2.198   2.694   2.692 -1.2037 -0.6223 -0.8879
  272MOL0     H36699   2.062   2.797   2.753  0.3410  0.2697 -1.0074
  272MOL0     H36700   2.297   2.836   2.854  0.2061 -1.7646 -1.3500
  272MOL0     H36701   2.228   2.980   2.769  2.1726  1.4981 -0.0698
  272MOL0     H36702   1.952   3.205   1.980 -1.8432 -0.1852 -0.4875
  272MOL0     H36703   2.039   3.420   1.991 -1.4570 -0.8669 -0.4524
  272MOL0     H36704   2.074   3.731   2.042 -0.2329 -1.7683  2.2246
  272MOL0     H36705   2.155   3.889   1.923 -0.3580 -1.3804 -2.0656
  272MOL0     H36706   3.315   5.180   2.896 -0.5294 -1.5016 -3.0988
  272MOL0     H36707   3.526   5.222   2.977 -2.1073  0.0562  1.1256
  272MOL0     H36708   3.940   5.356   2.951 -1.7704  1.3132 -2.2165
  272MOL0     H36709   4.143   5.375   3.064  2.5040  1.2997  2.8638
  272MOL0     H36710   4.344   5.458   3.378  1.5358  3.6429 -0.1886
  272MOL0     H36711   4.245   5.338   3.280 -0.9093  0.8216  0.2268
  272MOL0     H36712   4.448   5.532   3.165 -2.6837  1.0126 -1.8275
  272MOL0     H36713   4.373   5.400   3.082 -0.5821  1.6197 -0.0202
  272MOL0     H36714   4.511   5.237   3.205  1.9497  1.1938 -3.2522
  272MOL0     H36715   4.536   5.345   3.339  0.7398  2.4841  0.4125
  272MOL0     H36716   4.668   5.379   3.067 -0.7760 -0.7594 -1.0388
  272MOL0     H36717   4.739   5.296   3.201 -1.5895  0.5881 -0.0817
  272MOL0     H36718   4.733   5.729   3.260 -0.6946 -0.6359 -1.0381
  272MOL0     H36719   4.012   5.691   3.308  2.5059 -0.4246 -0.4884
  272MOL0     H36720   3.796   5.678   3.207 -0.4561  1.4995 -3.7258
  273MOL0     O36721   9.730   7.047   0.506 -0.2013  0.8084 -0.1425
  273MOL0     C36722   9.832   7.081   0.564  0.9739  0.1724  1.0981
  273MOL0     O36723   9.831   7.170   0.668  0.2660  0.9981  0.3631
  273MOL0     C36724   9.714   7.206   0.721  0.5290  0.8596  0.1974
  273MOL0     C36725   9.626   7.113   0.782 -0.8691  0.0147 -0.1222
  273MOL0     C36726   9.506   7.172   0.845  0.7013 -0.4821 -0.6096
  273MOL0     C36727   9.462   7.300   0.809 -1.2272  1.1353 -0.4131
  273MOL0     O36728   9.346   7.356   0.853 -0.0342 -0.1102  0.2285
  273MOL0     C36729   9.222   7.295   0.856 -0.3666  0.1474  0.9128
  273MOL0     C36730   9.121   7.384   0.938 -0.0483 -0.4311  0.4108
  273MOL0     C36731   9.132   7.529   0.892  0.5592 -0.2266 -0.3679
  273MOL0     C36732   9.035   7.617   0.974  0.4402  0.5221 -0.4579
  273MOL0     C36733   9.050   7.764   0.940  0.0478  0.3595  0.0809
  273MOL0     C36734   8.909   7.818   0.911  0.2560  0.0967 -0.4204
  273MOL0     C36735   8.900   7.968   0.888  0.5017  0.3554  0.4123
  273MOL0     C36736   8.961   8.052   1.003  0.2864 -1.3307  0.2691
  273MOL0     N36737   8.916   8.193   1.003  0.3517 -0.1088 -0.6903
  273MOL0     C36738   8.898   8.270   0.889 -0.0595  0.3639 -0.2658
  273MOL0     C36739   8.869   8.390   0.928 -0.2846 -0.5949 -0.0788
  273MOL0     C36740   8.853   8.510   0.836  0.9404  1.3270  0.1436
  273MOL0     C36741   8.710   8.505   0.769 -0.9009  0.1477 -0.0959
  273MOL0     C36742   8.606   8.536   0.881  0.1550 -0.6809  0.1814
  273MOL0     C36743   8.480   8.581   0.815  1.3203  0.3342 -0.4073
  273MOL0     O36744   8.372   8.585   0.910 -0.0774  0.3536 -1.1598
  273MOL0     C36745   8.244   8.615   0.872 -0.0917  0.4658  0.3273
  273MOL0     C36746   8.158   8.622   0.984  0.6627  0.4847 -0.3263
  273MOL0     C36747   8.030   8.673   0.964  0.4536  0.2673  0.4162
  273MOL0     C36748   7.928   8.673   1.073 -0.0265 -0.1746  0.1639
  273MOL0     C36749   7.982   8.725   0.838 -0.7176  0.7910  0.3527
  273MOL0     C36750   7.848   8.785   0.815  0.1571  0.0762  0.4530
  273MOL0     O36751   7.778   8.758   0.699  0.2072  0.0193  0.4245
  273MOL0     C36752   7.657   8.809   0.681  0.1046  0.4334  0.0585
  273MOL0     C36753   7.633   8.921   0.604  0.1046 -0.6462 -0.0354
  273MOL0     C36754   7.506   8.962   0.569 -0.1969  0.9310 -0.0770
  273MOL0     C36755   7.393   8.903   0.621  0.5789 -0.3635  0.0367
  273MOL0     O36756   7.271   8.953   0.582  0.6463  0.4163  0.3558
  273MOL0     C36757   7.228   9.071   0.655  0.4813  0.3170 -0.1916
  273MOL0     C36758   7.106   9.139   0.602  0.8124 -0.0898 -0.5171
  273MOL0     C36759   7.068   9.274   0.652  0.2716 -0.4937  0.0581
  273MOL0     C36760   6.963   9.358   0.574 -0.2224 -0.4311  0.7495
  273MOL0     C36761   6.826   9.292   0.564 -0.0760  0.6944 -1.1146
  273MOL0     C36762   6.724   9.377   0.483 -0.8187 -0.5380 -0.5429
  273MOL0     C36763   6.587   9.319   0.464  0.3085 -0.4655  0.2648
  273MOL0     C36764   6.500   9.437   0.421  1.0410 -0.4061  0.4552
  273MOL0    Cl36765   6.333   9.388   0.362  0.4679  0.3413  0.0354
  273MOL0     C36766   7.404   8.786   0.699 -0.2327 -0.9607  0.7592
  273MOL0     C36767   7.536   8.746   0.730  0.8042 -0.9411  0.0590
  273MOL0     O36768   7.807   8.866   0.897 -0.0553 -0.0549  0.2599
  273MOL0     C36769   8.066   8.690   0.732 -0.5897 -0.8897 -0.0327
  273MOL0     C36770   8.193   8.635   0.739  0.2832  0.4871 -0.2261
  273MOL0     N36771   8.870   8.393   1.068  0.1368  0.4181 -0.4892
  273MOL0     N36772   8.904   8.278   1.113 -0.2523 -0.9097 -0.0463
  273MOL0     C36773   9.548   7.377   0.735  1.0110 -0.0754 -0.3085
  273MOL0     C36774   9.675   7.333   0.703  0.1801  0.8952  0.8893
  273MOL0     C36775   9.957   7.010   0.511  0.7669 -0.3282  0.5836
  273MOL0     C36776  10.080   7.056   0.555 -0.6745  0.1094 -0.3904
  273MOL0     C36777  10.200   6.997   0.509 -0.1997 -0.4634  0.4384
  273MOL0     C36778  10.196   6.894   0.413 -0.4839 -0.5540 -0.1555
  273MOL0     O36779  10.313   6.852   0.362 -0.1937 -0.0099 -0.4295
  273MOL0     C36780  10.321   6.809   0.223  0.1224  0.1084  0.0992
  273MOL0     C36781  10.337   6.654   0.220 -0.5342 -0.6202  0.6020
  273MOL0     C36782  10.463   6.607   0.302 -0.2510 -0.1689  0.1346
  273MOL0     C36783  10.524   6.472   0.264 -0.0218  0.2459  0.2026
  273MOL0     C36784  10.428   6.360   0.249  0.7427  0.1258  0.8457
  273MOL0     C36785  10.351   6.263   0.232 -0.0231  0.2341  0.5610
  273MOL0     C36786  10.070   6.857   0.369  0.1985 -0.4214 -0.8866
  273MOL0     C36787   9.951   6.917   0.410 -0.5743 -0.5005  0.2022
  273MOL0     H36788   9.645   7.007   0.798 -1.9274  0.0369  1.4340
  273MOL0     H36789   9.439   7.117   0.910 -1.5532  1.0958 -1.4759
  273MOL0     H36790   9.175   7.292   0.758  0.8736  0.1282  0.3063
  273MOL0     H36791   9.222   7.197   0.905  1.4162  0.2901  1.2801
  273MOL0     H36792   9.018   7.349   0.934 -0.5751  0.9307  1.2905
  273MOL0     H36793   9.157   7.365   1.040  2.2384  3.0778  0.4527
  273MOL0     H36794   9.237   7.558   0.902  0.6414 -0.8045  0.4705
  273MOL0     H36795   9.111   7.535   0.784  2.3091  0.5519 -0.7069
  273MOL0     H36796   8.933   7.577   0.966  1.2333 -1.9450  0.7682
  273MOL0     H36797   9.061   7.597   1.078  1.7132  0.5334 -0.7618
  273MOL0     H36798   9.098   7.812   1.025  0.8736 -1.7219  0.8568
  273MOL0     H36799   9.101   7.776   0.844 -1.2221 -0.1670 -0.6824
  273MOL0     H36800   8.880   7.757   0.825 -0.0028 -0.5647  0.1265
  273MOL0     H36801   8.831   7.788   0.982 -1.1082 -0.8545 -2.2525
  273MOL0     H36802   8.946   7.999   0.794  1.6721  0.7756  1.1061
  273MOL0     H36803   8.793   7.985   0.871  0.9060 -0.0008 -3.3152
  273MOL0     H36804   9.069   8.047   0.989  0.0419 -0.6193 -2.3482
  273MOL0     H36805   8.940   8.003   1.099 -0.4800 -1.2618  0.1449
  273MOL0     H36806   8.926   8.236   0.790  0.8597  0.4623 -0.0477
  273MOL0     H36807   8.879   8.606   0.882  0.2953  0.1225  3.2616
  273MOL0     H36808   8.928   8.498   0.757  0.3843  1.5910 -0.4378
  273MOL0     H36809   8.686   8.400   0.750  0.9734 -0.3597  0.0601
  273MOL0     H36810   8.698   8.569   0.681  0.5316  0.7333  0.0984
  273MOL0     H36811   8.644   8.600   0.962  2.0731 -2.2183  0.5796
  273MOL0     H36812   8.592   8.443   0.937  0.0767  0.1105  1.5189
  273MOL0     H36813   8.447   8.505   0.743 -1.1890 -0.3855  1.3886
  273MOL0     H36814   8.492   8.681   0.772  1.8303  0.2276 -0.5294
  273MOL0     H36815   8.191   8.594   1.084  0.2878 -2.1971 -0.8789
  273MOL0     H36816   7.934   8.770   1.123  2.1815  0.4928 -1.2204
  273MOL0     H36817   7.823   8.666   1.042  0.4933  2.0381 -2.4335
  273MOL0     H36818   7.944   8.590   1.142 -0.9507 -0.6138 -0.1273
  273MOL0     H36819   7.721   8.974   0.569 -1.1019  0.3305 -1.7776
  273MOL0     H36820   7.503   9.032   0.487 -2.1488 -0.1901 -1.0405
  273MOL0     H36821   7.210   9.039   0.757 -1.5294  0.0262 -0.6005
  273MOL0     H36822   7.313   9.141   0.650 -0.1764  1.0656 -3.8170
  273MOL0     H36823   7.105   9.148   0.493  3.3597 -2.3912 -0.8387
  273MOL0     H36824   7.017   9.079   0.622 -0.5818  1.0025 -3.0122
  273MOL0     H36825   7.157   9.337   0.650  1.0195 -1.5247  0.0317
  273MOL0     H36826   7.037   9.266   0.756 -0.6981 -0.7251 -0.2342
  273MOL0     H36827   6.954   9.451   0.630 -2.3365 -0.6324  0.8222
  273MOL0     H36828   6.996   9.373   0.470  1.0045 -0.0403  1.1825
  273MOL0     H36829   6.783   9.281   0.664  1.0379 -1.2693 -0.7931
  273MOL0     H36830   6.839   9.190   0.526  2.0613  1.0925 -1.6064
  273MOL0     H36831   6.725   9.479   0.522  1.6863  0.0162 -1.8013
  273MOL0     H36832   6.762   9.387   0.381 -1.1200 -2.6224 -0.9053
  273MOL0     H36833   6.544   9.287   0.559 -2.4672 -1.0083 -1.0908
  273MOL0     H36834   6.582   9.236   0.393 -0.4333 -1.9894  2.0206
  273MOL0     H36835   6.553   9.502   0.351 -1.6215  2.1348  0.6335
  273MOL0     H36836   6.480   9.507   0.502 -0.6323 -0.6056  0.2386
  273MOL0     H36837   7.314   8.747   0.745 -0.5810  0.3848  1.2614
  273MOL0     H36838   7.553   8.660   0.794 -3.2390 -0.8708  1.4805
  273MOL0     H36839   8.029   8.707   0.632 -1.4375 -0.0600  0.4104
  273MOL0     H36840   8.264   8.610   0.661 -0.2087  1.3548 -0.9669
  273MOL0     H36841   9.511   7.477   0.715 -2.5070 -1.2535 -0.5586
  273MOL0     H36842   9.742   7.400   0.652 -0.3633 -0.1053 -1.2785
  273MOL0     H36843  10.095   7.131   0.632  0.5461 -1.4119  0.9342
  273MOL0     H36844  10.295   7.039   0.542 -0.5697  0.1176  0.7928
  273MOL0     H36845  10.229   6.838   0.170 -0.4811 -0.9159  0.5628
  273MOL0     H36846  10.407   6.862   0.181  1.6139  0.3590  3.1905
  273MOL0     H36847  10.333   6.610   0.119  0.4188 -1.2381  0.8136
  273MOL0     H36848  10.252   6.612   0.275  1.0239 -2.6518  1.6022
  273MOL0     H36849  10.426   6.609   0.405 -2.2946 -0.4066 -0.5434
  273MOL0     H36850  10.544   6.679   0.294  0.0176 -0.5805 -1.3148
  273MOL0     H36851  10.586   6.443   0.349  0.0834  1.0613  0.4085
  273MOL0     H36852  10.584   6.489   0.174  1.1049 -0.1435  0.8721
  273MOL0     H36853  10.291   6.183   0.195 -3.2669  1.7292  2.1653
  273MOL0     H36854  10.056   6.771   0.303  1.2394 -0.4759 -1.0449
  273MOL0     H36855   9.857   6.882   0.369  0.1388 -1.0415 -1.0498
  274MOL0     O36856   0.956   8.460   8.016 -0.1279 -0.0325 -0.1178
  274MOL0     C36857   1.077   8.463   8.008 -0.3181  1.0157  0.0685
  274MOL0     O36858   1.155   8.504   7.898  0.4295  0.2258 -0.2981
  274MOL0     C36859   1.072   8.535   7.786 -0.5255  0.0717 -0.6343
  274MOL0     C36860   0.973   8.452   7.723 -0.6792 -0.6881 -0.8496
  274MOL0     C36861   0.900   8.504   7.615  0.5991  0.7308 -0.6032
  274MOL0     C36862   0.916   8.625   7.567 -0.1414 -0.3605 -0.9200
  274MOL0     O36863   0.861   8.667   7.448 -0.0857  0.1369 -0.8984
  274MOL0     C36864   0.759   8.595   7.375 -0.4676 -0.1764 -0.5529
  274MOL0     C36865   0.698   8.666   7.253 -0.8779  0.3364  0.5464
  274MOL0     C36866   0.612   8.567   7.185 -0.3163 -0.1410  0.3100
  274MOL0     C36867   0.517   8.627   7.080  0.2156 -0.1600  0.9605
  274MOL0     C36868   0.446   8.512   7.011 -0.1487  0.2205  1.1783
  274MOL0     C36869   0.312   8.548   6.951  0.0105  0.7738 -0.7663
  274MOL0     C36870   0.270   8.462   6.829 -0.1473  0.2981  0.2699
  274MOL0     C36871   0.149   8.518   6.758  0.4322  0.0456 -0.7138
  274MOL0     N36872   0.088   8.410   6.672 -0.0304  0.5033 -0.9265
  274MOL0     C36873  -0.044   8.365   6.684  0.2248 -0.5530 -0.6763
  274MOL0     C36874  -0.063   8.281   6.579 -0.3598 -0.3199 -0.6126
  274MOL0     C36875  -0.187   8.203   6.546 -1.2906 -0.0105  0.1989
  274MOL0     C36876  -0.271   8.252   6.431 -0.5615  0.0116  0.4447
  274MOL0     C36877  -0.184   8.287   6.304  0.0972 -0.4800 -0.1963
  274MOL0     C36878  -0.279   8.293   6.186  0.0099  0.1001 -0.3923
  274MOL0     O36879  -0.354   8.418   6.206 -0.9976 -0.2748  0.5282
  274MOL0     C36880  -0.494   8.422   6.171 -1.1083 -0.1817 -1.5674
  274MOL0     C36881  -0.545   8.550   6.162 -0.3323 -0.1821  0.0792
  274MOL0     C36882  -0.679   8.577   6.140  0.1568 -0.4296 -0.6933
  274MOL0     C36883  -0.733   8.719   6.147 -0.6047 -0.0331  0.9388
  274MOL0     C36884  -0.763   8.468   6.104  1.3611  0.4690 -0.2501
  274MOL0     C36885  -0.904   8.474   6.062  0.3586  0.1416 -0.4687
  274MOL0     O36886  -0.979   8.351   6.071  0.6533  0.4792  0.2359
  274MOL0     C36887  -1.105   8.364   6.032 -0.6878  1.1123  0.0972
  274MOL0     C36888  -1.131   8.347   5.896 -0.1381 -0.1947  0.4846
  274MOL0     C36889  -1.265   8.333   5.858  0.4707  0.0200 -0.2031
  274MOL0     C36890  -1.373   8.354   5.949  0.1947 -0.1148 -0.4463
  274MOL0     O36891  -1.502   8.364   5.909  0.0190  1.1616  0.5911
  274MOL0     C36892  -1.610   8.392   5.996  0.5039  0.1178  0.7477
  274MOL0     C36893  -1.738   8.435   5.913  0.5871  0.0001 -0.0824
  274MOL0     C36894  -1.737   8.591   5.884  0.7350  0.5879 -0.3135
  274MOL0     C36895  -1.621   8.628   5.791 -0.1669  0.4261  1.2716
  274MOL0     C36896  -1.606   8.773   5.749  0.3521  0.0822 -0.5268
  274MOL0     C36897  -1.713   8.811   5.643 -0.3479 -0.2240 -0.2379
  274MOL0     C36898  -1.730   8.968   5.646 -0.4694  0.5798 -0.1199
  274MOL0     C36899  -1.788   9.013   5.778  0.0076 -1.5446 -0.2021
  274MOL0    Cl36900  -1.955   8.939   5.809 -0.0719  0.2280 -0.1466
  274MOL0     C36901  -1.338   8.372   6.092 -0.5158  0.1811  0.5474
  274MOL0     C36902  -1.205   8.374   6.132  0.1759 -0.4875 -0.7417
  274MOL0     O36903  -0.949   8.587   6.023  0.4497 -0.0234  0.6482
  274MOL0     C36904  -0.709   8.337   6.110 -0.0095 -0.0793 -0.5063
  274MOL0     C36905  -0.576   8.317   6.145 -0.2255  0.2094  0.4484
  274MOL0     N36906   0.054   8.277   6.506  0.2174  0.0603 -1.1862
  274MOL0     N36907   0.144   8.337   6.572 -0.5600  0.3058  0.3260
  274MOL0     C36908   1.006   8.709   7.632  0.4944  0.7871  1.1073
  274MOL0     C36909   1.085   8.663   7.740 -0.3475  0.8540  0.4816
  274MOL0     C36910   1.153   8.444   8.135 -0.1040 -1.6074  0.2196
  274MOL0     C36911   1.100   8.358   8.231 -0.2739  1.2926  0.8263
  274MOL0     C36912   1.169   8.333   8.344 -0.5492  0.0939 -0.3331
  274MOL0     C36913   1.294   8.391   8.367 -0.8563  0.4844 -0.0929
  274MOL0     O36914   1.363   8.361   8.479 -0.1740  0.0055  0.4476
  274MOL0     C36915   1.297   8.394   8.608  0.0261 -0.2518  0.3444
  274MOL0     C36916   1.310   8.280   8.711  0.1826  0.8362 -0.5649
  274MOL0     C36917   1.182   8.188   8.689 -0.9140  0.5570  0.2164
  274MOL0     C36918   1.162   8.091   8.802 -0.2145  0.7792  0.8769
  274MOL0     C36919   1.050   8.003   8.764  0.4019 -0.5416 -0.5809
  274MOL0     C36920   0.958   7.933   8.732 -0.6029  0.8051 -0.0095
  274MOL0     C36921   1.346   8.477   8.277 -0.1267 -0.0497  0.1274
  274MOL0     C36922   1.275   8.500   8.162 -0.0589 -0.9043 -0.4855
  274MOL0     H36923   0.947   8.358   7.770  2.3422 -0.3706  1.7317
  274MOL0     H36924   0.831   8.438   7.563 -1.6634  0.4678  2.4065
  274MOL0     H36925   0.809   8.505   7.337  1.4925  0.1679  1.0016
  274MOL0     H36926   0.685   8.555   7.445  1.0922  0.1189  1.3513
  274MOL0     H36927   0.653   8.764   7.273 -3.5128 -0.4750 -0.9489
  274MOL0     H36928   0.781   8.678   7.183 -1.7043 -2.5235 -1.0857
  274MOL0     H36929   0.675   8.497   7.130 -2.7309 -2.0408 -0.2238
  274MOL0     H36930   0.554   8.511   7.259  5.6751 -4.2794  2.6588
  274MOL0     H36931   0.440   8.689   7.126 -1.0989 -1.1122  0.1241
  274MOL0     H36932   0.575   8.680   7.003 -0.8637  0.5065  0.5812
  274MOL0     H36933   0.516   8.460   6.944 -1.1597  1.0642 -0.5908
  274MOL0     H36934   0.419   8.434   7.083 -0.0307  0.8189  1.8833
  274MOL0     H36935   0.234   8.537   7.027  0.0871  3.2953 -0.2231
  274MOL0     H36936   0.314   8.656   6.930 -1.8221  1.5620  2.4140
  274MOL0     H36937   0.352   8.465   6.757 -1.6493  2.8954 -1.4861
  274MOL0     H36938   0.253   8.359   6.862 -0.2970 -0.3548 -1.6981
  274MOL0     H36939   0.166   8.609   6.700 -1.9113  0.1886 -1.2690
  274MOL0     H36940   0.077   8.541   6.837  0.9650 -1.6764  0.3437
  274MOL0     H36941  -0.113   8.408   6.756 -0.4550 -1.4032 -0.8034
  274MOL0     H36942  -0.160   8.101   6.519 -0.6686 -0.3318  1.8740
  274MOL0     H36943  -0.252   8.202   6.634 -0.0584  0.9852  1.1752
  274MOL0     H36944  -0.326   8.343   6.457 -0.4364  0.5241 -1.0197
  274MOL0     H36945  -0.344   8.172   6.414 -1.0760  0.8226 -1.4582
  274MOL0     H36946  -0.109   8.209   6.289  1.4517  0.2494  2.3510
  274MOL0     H36947  -0.139   8.383   6.327 -1.2192 -0.4688  2.8435
  274MOL0     H36948  -0.341   8.203   6.187 -2.7303  1.8380  1.3959
  274MOL0     H36949  -0.218   8.305   6.096  2.7746 -0.7916  1.2262
  274MOL0     H36950  -0.480   8.632   6.189 -0.3640 -0.3837  0.7761
  274MOL0     H36951  -0.648   8.787   6.161 -0.2459 -0.6483  1.8975
  274MOL0     H36952  -0.781   8.751   6.054 -0.8902  0.1279  1.1425
  274MOL0     H36953  -0.803   8.731   6.230  1.5971 -1.5116  3.1686
  274MOL0     H36954  -1.050   8.335   5.826 -0.8007  0.7673 -0.4734
  274MOL0     H36955  -1.292   8.299   5.759  3.6167 -3.3553 -0.0757
  274MOL0     H36956  -1.622   8.305   6.060  1.5167 -0.7932 -0.2551
  274MOL0     H36957  -1.586   8.481   6.055 -0.1690  2.7758 -2.6050
  274MOL0     H36958  -1.737   8.378   5.819 -1.7880 -0.7236  0.2663
  274MOL0     H36959  -1.832   8.397   5.955 -0.2876  2.3367  0.1956
  274MOL0     H36960  -1.753   8.659   5.969 -0.9354 -0.4375  0.2483
  274MOL0     H36961  -1.826   8.615   5.826  0.3779 -0.0010 -0.0153
  274MOL0     H36962  -1.527   8.601   5.840  0.2573  1.5802  1.1382
  274MOL0     H36963  -1.626   8.574   5.696  1.8401 -0.3659  1.5696
  274MOL0     H36964  -1.509   8.789   5.700  0.8648 -2.1090 -0.3074
  274MOL0     H36965  -1.609   8.828   5.843  2.4397 -0.2449 -0.2164
  274MOL0     H36966  -1.675   8.791   5.543  2.6484 -1.1680  0.9547
  274MOL0     H36967  -1.799   8.747   5.662 -2.7871  2.2732 -2.0234
  274MOL0     H36968  -1.793   9.009   5.567 -0.4486 -0.2342 -0.5597
  274MOL0     H36969  -1.630   9.010   5.631 -0.4536 -0.1692 -2.4318
  274MOL0     H36970  -1.795   9.122   5.771 -0.0631 -1.4492  1.1420
  274MOL0     H36971  -1.718   8.996   5.859  2.8622  0.2239 -2.1184
  274MOL0     H36972  -1.408   8.395   6.173 -0.7448  1.6697 -0.0494
  274MOL0     H36973  -1.173   8.397   6.233 -2.9692  2.7616 -0.2924
  274MOL0     H36974  -0.776   8.255   6.086 -0.9842 -0.2217  2.2703
  274MOL0     H36975  -0.532   8.220   6.126  0.8129  0.4115  1.6955
  274MOL0     H36976   1.033   8.806   7.592  3.2443 -0.6159 -0.7707
  274MOL0     H36977   1.160   8.722   7.792 -2.1811 -0.0583  4.5433
  274MOL0     H36978   1.012   8.301   8.205  1.2216 -0.5187 -0.4968
  274MOL0     H36979   1.120   8.258   8.405 -0.4490 -0.8607 -1.3927
  274MOL0     H36980   1.362   8.474   8.646 -1.4472  1.4547 -0.5908
  274MOL0     H36981   1.193   8.422   8.589  0.4989 -0.2171 -2.6125
  274MOL0     H36982   1.311   8.320   8.813  2.1876  3.0192 -1.3373
  274MOL0     H36983   1.399   8.221   8.687 -0.6574 -0.9295  0.4503
  274MOL0     H36984   1.190   8.129   8.597 -1.7346  0.1008  0.4204
  274MOL0     H36985   1.095   8.254   8.691 -1.3931  0.1335 -2.5260
  274MOL0     H36986   1.152   8.140   8.899 -1.3704 -0.1079  1.2249
  274MOL0     H36987   1.249   8.026   8.806 -0.5287  0.2607 -0.2432
  274MOL0     H36988   0.874   7.878   8.693  0.0486  1.8898 -3.2860
  274MOL0     H36989   1.438   8.532   8.291  1.3767 -2.3372 -0.3755
  274MOL0     H36990   1.308   8.572   8.088  2.0517  0.9507  2.0561
  275MOL0     O36991   0.636   5.601   7.494  0.2583  0.4212  0.3012
  275MOL0     C36992   0.597   5.486   7.463  0.0467 -0.0262 -0.1583
  275MOL0     O36993   0.520   5.465   7.341 -0.4887 -0.0887  0.0996
  275MOL0     C36994   0.501   5.560   7.248  0.8690 -0.4872  0.3663
  275MOL0     C36995   0.597   5.653   7.210  0.5487 -0.7487 -0.2657
  275MOL0     C36996   0.572   5.746   7.109 -0.3613 -0.7495  0.2433
  275MOL0     C36997   0.441   5.758   7.052 -0.1059  0.3786 -0.4095
  275MOL0     O36998   0.410   5.847   6.955  0.8764 -0.0873 -0.5049
  275MOL0     C36999   0.510   5.916   6.883 -0.8159 -0.8293 -0.1357
  275MOL0     C37000   0.439   6.017   6.781 -0.1909 -0.5695  0.2974
  275MOL0     C37001   0.527   6.140   6.758  0.1135  0.0860 -0.3246
  275MOL0     C37002   0.457   6.227   6.651  0.3419  0.2372 -0.3154
  275MOL0     C37003   0.513   6.371   6.643 -0.6796  0.5781  0.3867
  275MOL0     C37004   0.451   6.453   6.537  0.0358  0.4895 -0.1402
  275MOL0     C37005   0.294   6.501   6.563 -0.1683  0.7219 -0.0578
  275MOL0     C37006   0.269   6.586   6.690  1.6615  1.2063  0.5828
  275MOL0     N37007   0.152   6.676   6.672 -0.0747 -0.5548 -0.0100
  275MOL0     C37008   0.158   6.804   6.630 -0.1641 -0.5839  0.3923
  275MOL0     C37009   0.029   6.837   6.600  0.4507 -0.4867 -1.4620
  275MOL0     C37010  -0.023   6.957   6.536 -0.0030 -0.2914  0.6143
  275MOL0     C37011  -0.047   6.928   6.389 -0.0188 -0.7895 -0.1282
  275MOL0     C37012  -0.125   7.038   6.312  0.7418 -0.8115  0.1171
  275MOL0     C37013  -0.268   7.049   6.364  0.3521  0.2916  0.5566
  275MOL0     O37014  -0.286   7.182   6.411 -0.9233  0.3797 -0.8781
  275MOL0     C37015  -0.412   7.231   6.420  0.2868  0.1987 -0.3732
  275MOL0     C37016  -0.425   7.365   6.437  0.0984 -0.0472 -0.2611
  275MOL0     C37017  -0.546   7.433   6.451  0.4315  0.0179 -0.8846
  275MOL0     C37018  -0.553   7.583   6.467  0.3629 -0.3120  0.2134
  275MOL0     C37019  -0.672   7.358   6.441 -0.2604  0.5964  0.1800
  275MOL0     C37020  -0.807   7.415   6.423  0.2241 -1.3573  0.4744
  275MOL0     O37021  -0.823   7.547   6.441  0.7183 -0.4339  0.3884
  275MOL0     C37022  -0.937   7.610   6.391  0.7840  0.9633  0.3053
  275MOL0     C37023  -0.985   7.615   6.259  0.4552  0.3469 -0.0197
  275MOL0     C37024  -1.085   7.703   6.229  0.1481  0.2991 -0.9328
  275MOL0     C37025  -1.171   7.754   6.331 -0.3510  0.5312 -0.7996
  275MOL0     O37026  -1.290   7.820   6.315  0.0614 -0.1505 -0.3069
  275MOL0     C37027  -1.333   7.843   6.177 -0.7573  0.1343 -0.5025
  275MOL0     C37028  -1.450   7.941   6.186  0.2424  0.1529  1.5958
  275MOL0     C37029  -1.563   7.882   6.271  0.7152 -0.3851  0.3223
  275MOL0     C37030  -1.701   7.897   6.203 -0.1884 -0.0564  0.0404
  275MOL0     C37031  -1.824   7.860   6.285 -1.0989 -0.2990  0.2656
  275MOL0     C37032  -1.954   7.896   6.217 -0.7905 -0.2981 -1.6995
  275MOL0     C37033  -2.058   7.841   6.308 -0.1461 -1.0410 -0.3133
  275MOL0     C37034  -2.195   7.893   6.254  0.7171  0.2621 -0.0666
  275MOL0    Cl37035  -2.333   7.836   6.363  0.1343  0.3401  0.3663
  275MOL0     C37036  -1.132   7.730   6.464  0.3608 -0.4385  0.6393
  275MOL0     C37037  -1.008   7.675   6.494 -0.9294 -0.8547  0.1813
  275MOL0     O37038  -0.898   7.338   6.385  0.0959 -0.3287  0.7625
  275MOL0     C37039  -0.657   7.223   6.431 -0.6446 -0.9254  0.9177
  275MOL0     C37040  -0.535   7.155   6.420  0.7792 -0.9004  0.1936
  275MOL0     N37041  -0.045   6.733   6.650 -0.4342  0.1673 -0.1086
  275MOL0     N37042   0.024   6.642   6.692  0.6214 -0.2448 -0.0764
  275MOL0     C37043   0.339   5.663   7.089 -0.3150  0.1423  0.3493
  275MOL0     C37044   0.374   5.557   7.178 -0.4211  0.1927 -0.1212
  275MOL0     C37045   0.595   5.377   7.563  0.3536 -0.0610  0.0812
  275MOL0     C37046   0.572   5.243   7.529  1.0002  0.5756  0.0204
  275MOL0     C37047   0.607   5.141   7.610 -0.3914  0.4893  0.2312
  275MOL0     C37048   0.666   5.165   7.734 -0.5392 -0.5683 -0.3733
  275MOL0     O37049   0.694   5.057   7.815 -0.1036  0.3056  0.2824
  275MOL0     C37050   0.700   5.061   7.953 -1.1827 -0.3604 -0.5964
  275MOL0     C37051   0.802   4.964   8.027 -0.4310 -0.5760 -0.2845
  275MOL0     C37052   0.764   4.958   8.178 -1.0750 -0.6636 -0.3714
  275MOL0     C37053   0.630   4.895   8.209 -0.7519  0.3985 -0.1068
  275MOL0     C37054   0.569   4.966   8.329 -0.6730  0.2366  0.5000
  275MOL0     C37055   0.514   5.030   8.410  0.5432  0.0434 -0.3652
  275MOL0     C37056   0.682   5.293   7.775  0.9385  0.3071 -0.2475
  275MOL0     C37057   0.652   5.400   7.690 -0.2396 -0.3922  0.0836
  275MOL0     H37058   0.699   5.639   7.243  1.5455  1.8607 -1.8905
  275MOL0     H37059   0.651   5.807   7.067 -0.6472 -0.4226  0.1728
  275MOL0     H37060   0.580   5.971   6.947 -1.1384 -0.3762 -0.1670
  275MOL0     H37061   0.564   5.839   6.827 -2.6346 -1.8205 -0.6024
  275MOL0     H37062   0.425   5.959   6.690  1.3818 -1.1439  0.3998
  275MOL0     H37063   0.344   6.057   6.819  0.2729  2.8056 -1.6328
  275MOL0     H37064   0.527   6.213   6.840 -0.3348 -0.3388  0.0705
  275MOL0     H37065   0.628   6.106   6.735 -1.0441 -2.5094 -1.9660
  275MOL0     H37066   0.448   6.178   6.554 -0.6182 -1.5814  0.6508
  275MOL0     H37067   0.353   6.242   6.680  0.6544 -1.2305  1.7569
  275MOL0     H37068   0.501   6.418   6.741 -1.2722 -1.1367  1.1672
  275MOL0     H37069   0.620   6.359   6.628 -0.1552 -1.8950  4.5591
  275MOL0     H37070   0.501   6.549   6.525 -2.5246  1.8137 -0.9895
  275MOL0     H37071   0.451   6.400   6.441  3.2431 -0.6856  0.3927
  275MOL0     H37072   0.255   6.556   6.478 -0.4550  2.6293  1.2522
  275MOL0     H37073   0.219   6.422   6.570  0.0980  0.3001 -1.5880
  275MOL0     H37074   0.354   6.649   6.718  0.4552  1.2055  4.8557
  275MOL0     H37075   0.244   6.511   6.766  0.9391  1.0821  0.2257
  275MOL0     H37076   0.237   6.872   6.602 -1.9919  0.5402 -2.6435
  275MOL0     H37077  -0.116   6.989   6.584 -0.6227  2.4766 -2.1177
  275MOL0     H37078   0.053   7.034   6.549 -1.1779  0.6792  2.1984
  275MOL0     H37079  -0.107   6.836   6.386 -0.1030 -0.7204 -0.8653
  275MOL0     H37080   0.052   6.906   6.347 -0.5304 -1.6790 -0.9135
  275MOL0     H37081  -0.134   7.008   6.207 -1.0777  0.9096 -0.2851
  275MOL0     H37082  -0.072   7.133   6.311 -1.6047  0.6326  1.9348
  275MOL0     H37083  -0.294   6.970   6.434 -1.0585 -0.0984 -0.3767
  275MOL0     H37084  -0.335   7.041   6.277 -3.3950  1.6483  3.0718
  275MOL0     H37085  -0.330   7.417   6.434  0.7825 -1.1154  1.2730
  275MOL0     H37086  -0.598   7.609   6.563 -2.2698 -1.9333 -0.4791
  275MOL0     H37087  -0.452   7.619   6.487 -0.1469  0.4697  1.5232
  275MOL0     H37088  -0.592   7.637   6.380 -2.3782 -2.0514  0.2463
  275MOL0     H37089  -0.929   7.569   6.178  1.6972 -0.5755  1.2926
  275MOL0     H37090  -1.122   7.710   6.128 -1.0162  0.3859 -0.5179
  275MOL0     H37091  -1.248   7.886   6.123  0.1375 -1.5151 -0.4628
  275MOL0     H37092  -1.354   7.744   6.133  3.9898 -1.1084 -0.4668
  275MOL0     H37093  -1.426   8.039   6.229  2.1642  1.6947 -2.5408
  275MOL0     H37094  -1.489   7.938   6.084 -3.2932 -3.0335  2.8029
  275MOL0     H37095  -1.564   7.922   6.373 -1.0961 -1.5744  0.8161
  275MOL0     H37096  -1.550   7.774   6.279 -1.3916 -0.6409  0.9138
  275MOL0     H37097  -1.703   8.001   6.167 -1.8884 -0.0847 -0.0424
  275MOL0     H37098  -1.706   7.830   6.117 -1.5012 -1.7721  1.3860
  275MOL0     H37099  -1.824   7.907   6.384  1.3519 -2.8203  1.6183
  275MOL0     H37100  -1.821   7.753   6.307 -2.8038 -0.0254  2.0555
  275MOL0     H37101  -1.962   8.005   6.208 -0.8725 -0.2616 -1.1854
  275MOL0     H37102  -1.958   7.845   6.120 -0.4993 -0.4790 -1.6184
  275MOL0     H37103  -2.038   7.879   6.409 -1.5859 -1.8716  0.3177
  275MOL0     H37104  -2.053   7.732   6.296  1.2874 -1.0764  0.4018
  275MOL0     H37105  -2.216   7.851   6.155  1.8284  1.0553 -0.6568
  275MOL0     H37106  -2.202   8.002   6.256  0.3242  0.2308  0.6693
  275MOL0     H37107  -1.188   7.769   6.549  1.1178 -0.1016  0.9874
  275MOL0     H37108  -0.965   7.679   6.593 -0.1129  0.4233 -0.1912
  275MOL0     H37109  -0.745   7.160   6.420 -3.6710  3.2389 -2.3857
  275MOL0     H37110  -0.541   7.046   6.415  0.1792 -0.8539 -0.0676
  275MOL0     H37111   0.243   5.678   7.043  0.1311  2.5294  0.0702
  275MOL0     H37112   0.311   5.473   7.204  1.1824 -1.4532 -1.2118
  275MOL0     H37113   0.531   5.224   7.430 -0.5430  2.8503  0.1521
  275MOL0     H37114   0.589   5.038   7.583 -0.6742  0.5929  0.0226
  275MOL0     H37115   0.727   5.159   7.993  1.2363 -0.9941 -0.5410
  275MOL0     H37116   0.600   5.030   7.986 -0.2460  0.6188  3.7449
  275MOL0     H37117   0.901   5.010   8.018 -0.6716  0.5360  2.2286
  275MOL0     H37118   0.797   4.869   7.972  1.8287 -0.7797 -0.2552
  275MOL0     H37119   0.769   5.062   8.213  1.9909 -1.8091  3.2119
  275MOL0     H37120   0.844   4.902   8.227 -0.7085 -1.0283 -1.3610
  275MOL0     H37121   0.656   4.790   8.225 -0.3770  0.4286 -0.5102
  275MOL0     H37122   0.551   4.899   8.133 -1.2486  0.7043  0.4229
  275MOL0     H37123   0.452   5.082   8.480  2.1059  2.4921 -0.6683
  275MOL0     H37124   0.710   5.322   7.876  3.1562  3.5405 -1.6170
  275MOL0     H37125   0.692   5.496   7.721  1.2446 -0.6366 -0.9627
  276MOL0     O37126   2.487   9.490   5.407  0.1606  0.1116 -0.4548
  276MOL0     C37127   2.459   9.482   5.526  0.5845 -0.3893 -0.7178
  276MOL0     O37128   2.334   9.499   5.573  0.4410  0.1782 -0.3091
  276MOL0     C37129   2.221   9.480   5.485 -0.8273 -0.1247  0.5306
  276MOL0     C37130   2.221   9.442   5.348  1.1199  0.1662  0.9525
  276MOL0     C37131   2.101   9.406   5.278 -0.0793 -0.7146  0.3973
  276MOL0     C37132   1.976   9.436   5.341 -1.4602 -0.5654  0.0883
  276MOL0     O37133   1.855   9.414   5.272 -0.2110  0.5909  0.2543
  276MOL0     C37134   1.723   9.448   5.322 -0.3048  0.0992  0.5340
  276MOL0     C37135   1.608   9.443   5.219 -0.1933 -0.2966 -0.9596
  276MOL0     C37136   1.623   9.551   5.114 -0.6932  0.6436 -0.2644
  276MOL0     C37137   1.544   9.678   5.139  0.4218 -0.0360  0.1991
  276MOL0     C37138   1.519   9.743   5.012  0.5108  0.3789  0.3481
  276MOL0     C37139   1.402   9.702   4.922  0.7924  1.2275  0.3089
  276MOL0     C37140   1.394   9.791   4.803  0.3650 -0.1714 -1.0617
  276MOL0     C37141   1.298   9.735   4.699  0.1685  0.6128  0.3335
  276MOL0     N37142   1.315   9.795   4.569 -0.0197  0.4345  0.4022
  276MOL0     C37143   1.274   9.920   4.526 -0.2744 -0.1107  1.1092
  276MOL0     C37144   1.313   9.924   4.403 -0.4204  0.5472 -0.0554
  276MOL0     C37145   1.302  10.040   4.297  0.2754  0.2137  0.0066
  276MOL0     C37146   1.196  10.020   4.193 -0.1270 -0.8191  0.6572
  276MOL0     C37147   1.053  10.045   4.241 -0.1166 -0.0158  0.9107
  276MOL0     C37148   0.962  10.109   4.139 -0.4458  0.0596 -0.5958
  276MOL0     O37149   0.856  10.015   4.088 -0.3697 -0.3545 -0.0426
  276MOL0     C37150   0.774  10.071   3.991 -0.7853 -0.6680  0.5423
  276MOL0     C37151   0.660   9.995   3.954  0.1357 -1.0501 -0.0255
  276MOL0     C37152   0.581  10.031   3.843  0.8863 -0.0933 -0.7116
  276MOL0     C37153   0.475   9.928   3.793  0.0257 -0.2138  0.1602
  276MOL0     C37154   0.593  10.161   3.779 -1.2092 -0.3171  0.3615
  276MOL0     C37155   0.485  10.230   3.696 -0.7193 -0.1451 -0.0774
  276MOL0     O37156   0.528  10.332   3.619 -0.4750  0.8266  0.1775
  276MOL0     C37157   0.454  10.380   3.516 -0.1566  0.4875  0.2874
  276MOL0     C37158   0.407  10.508   3.504 -0.2786  0.1666  0.0062
  276MOL0     C37159   0.322  10.538   3.397  0.3475 -0.5057 -0.5438
  276MOL0     C37160   0.301  10.447   3.291 -0.0835 -0.6253  0.1486
  276MOL0     O37161   0.228  10.471   3.179 -0.6601  0.4115  0.3359
  276MOL0     C37162   0.148  10.594   3.177 -0.4274  1.0837 -0.1209
  276MOL0     C37163   0.224  10.715   3.122 -0.3760 -0.9211 -0.0370
  276MOL0     C37164   0.146  10.844   3.134  0.2684 -0.2017  0.4989
  276MOL0     C37165   0.238  10.964   3.115 -0.2578  0.4209 -0.6355
  276MOL0     C37166   0.180  11.089   3.178  0.2269  0.1821  0.4413
  276MOL0     C37167   0.243  11.217   3.129  0.0243  0.0181  0.5305
  276MOL0     C37168   0.199  11.244   2.994 -0.6883  0.0221  0.3205
  276MOL0     C37169   0.237  11.382   2.934  0.2783  0.5810 -0.3330
  276MOL0    Cl37170   0.411  11.388   2.917 -0.4491  0.3554 -0.3408
  276MOL0     C37171   0.345  10.319   3.306  0.3891 -0.0049 -0.0833
  276MOL0     C37172   0.412  10.278   3.422 -0.4488  0.2417 -0.0466
  276MOL0     O37173   0.366  10.187   3.705 -0.5015  0.6968 -0.0294
  276MOL0     C37174   0.709  10.235   3.816 -0.1176 -0.7708 -0.6052
  276MOL0     C37175   0.796  10.195   3.918 -0.5752  0.6835 -0.8250
  276MOL0     N37176   1.394   9.807   4.377  0.6798  0.5184 -0.5731
  276MOL0     N37177   1.396   9.736   4.479  0.5127  0.4743  0.1029
  276MOL0     C37178   1.977   9.481   5.472 -0.1557  1.4921  0.3531
  276MOL0     C37179   2.095   9.508   5.544 -0.1876  0.7988 -0.4205
  276MOL0     C37180   2.583   9.481   5.616  0.6553 -0.4823  0.3318
  276MOL0     C37181   2.569   9.500   5.753 -0.5826 -0.6543  0.6752
  276MOL0     C37182   2.676   9.478   5.837  0.0730  0.8686 -0.9574
  276MOL0     C37183   2.799   9.441   5.787  0.1971  0.3306  0.9292
  276MOL0     O37184   2.895   9.436   5.885 -0.2498  0.5054 -0.0913
  276MOL0     C37185   3.033   9.429   5.853 -0.0251 -1.3919  1.1623
  276MOL0     C37186   3.120   9.506   5.948  1.2789  0.3170 -0.9899
  276MOL0     C37187   3.076   9.653   5.954 -0.0229  0.7151 -0.4430
  276MOL0     C37188   3.178   9.750   6.006 -1.0007 -0.4326  0.4011
  276MOL0     C37189   3.152   9.893   5.964 -0.2714  0.4489  0.5868
  276MOL0     C37190   3.126  10.008   5.937 -0.1461  0.3467  0.5666
  276MOL0     C37191   2.815   9.423   5.647  0.2978  0.8662 -0.2868
  276MOL0     C37192   2.704   9.441   5.557  0.5373  0.5365  0.5081
  276MOL0     H37193   2.314   9.425   5.295  1.4839 -3.0839  2.4054
  276MOL0     H37194   2.111   9.377   5.174  0.4904  2.6198 -0.6186
  276MOL0     H37195   1.711   9.389   5.414  2.3645  1.8959  2.1647
  276MOL0     H37196   1.736   9.554   5.343 -0.1292  0.7890 -2.5896
  276MOL0     H37197   1.599   9.341   5.179 -0.5867 -0.3329 -0.7798
  276MOL0     H37198   1.518   9.464   5.277  1.0228  3.5980 -0.2074
  276MOL0     H37199   1.724   9.588   5.092 -0.3181 -0.4685 -0.5084
  276MOL0     H37200   1.585   9.510   5.020 -2.8509 -0.2035  0.9131
  276MOL0     H37201   1.450   9.664   5.193 -0.9899 -0.9403 -2.3226
  276MOL0     H37202   1.608   9.743   5.199 -0.4235  0.1886  0.8926
  276MOL0     H37203   1.507   9.850   5.032 -0.7877  0.0968  1.2497
  276MOL0     H37204   1.607   9.719   4.953 -2.0205 -1.5492 -2.9561
  276MOL0     H37205   1.416   9.598   4.890  0.4703  0.4188  2.6465
  276MOL0     H37206   1.306   9.701   4.974  0.4258 -3.0948 -0.0457
  276MOL0     H37207   1.361   9.894   4.821  0.1087  0.1212 -3.0309
  276MOL0     H37208   1.491   9.817   4.760  0.1030  1.3479 -0.7785
  276MOL0     H37209   1.196   9.744   4.738  0.5183 -1.8277  2.0574
  276MOL0     H37210   1.316   9.629   4.683 -1.2594  0.3041  0.6394
  276MOL0     H37211   1.209   9.987   4.581  0.3684  0.7518  0.8388
  276MOL0     H37212   1.275  10.130   4.354  1.4409  0.2618  0.5000
  276MOL0     H37213   1.397  10.056   4.246  0.6189  1.8563  1.0861
  276MOL0     H37214   1.196   9.919   4.150  1.0395  0.2749 -2.2004
  276MOL0     H37215   1.214  10.093   4.114 -0.0662  1.9431  3.0527
  276MOL0     H37216   1.063  10.126   4.315  4.2910  0.1549  0.3999
  276MOL0     H37217   1.020   9.950   4.282 -1.5530 -0.7692 -1.8215
  276MOL0     H37218   1.023  10.151   4.058 -0.2513  0.3231 -0.3205
  276MOL0     H37219   0.910  10.188   4.194 -0.7071 -0.0012 -0.7534
  276MOL0     H37220   0.629   9.909   4.012 -0.6598 -0.6090  0.2088
  276MOL0     H37221   0.500   9.828   3.831  0.1404  0.1594  1.0912
  276MOL0     H37222   0.379   9.963   3.832 -0.6677 -1.4676 -0.3791
  276MOL0     H37223   0.463   9.913   3.686  1.4488 -1.9594  0.1935
  276MOL0     H37224   0.440  10.576   3.582  3.7282 -2.0146  0.5078
  276MOL0     H37225   0.279  10.636   3.382  0.0442 -0.9166 -2.7446
  276MOL0     H37226   0.062  10.580   3.111 -0.0633  2.8808 -1.0474
  276MOL0     H37227   0.097  10.615   3.271 -1.1241  5.1119 -1.1980
  276MOL0     H37228   0.318  10.725   3.178  0.2824 -2.7502 -0.7220
  276MOL0     H37229   0.251  10.693   3.018  2.4436 -0.8860  0.6088
  276MOL0     H37230   0.102  10.844   3.234 -3.5221 -1.5286 -1.0106
  276MOL0     H37231   0.067  10.850   3.059  1.9959 -1.6051 -1.5489
  276MOL0     H37232   0.330  10.945   3.171 -0.3044 -0.2345 -0.7713
  276MOL0     H37233   0.262  10.985   3.010  1.1403  4.4242  0.3122
  276MOL0     H37234   0.204  11.097   3.284 -0.2747  0.7584  0.5147
  276MOL0     H37235   0.071  11.099   3.182  0.3030  0.7853  1.3193
  276MOL0     H37236   0.209  11.298   3.194 -0.0106 -0.3916  1.0258
  276MOL0     H37237   0.351  11.210   3.138 -0.0695 -0.9706  1.0342
  276MOL0     H37238   0.090  11.258   3.000 -0.9396 -1.9517  1.1682
  276MOL0     H37239   0.229  11.159   2.932 -3.7067 -0.1919 -1.0621
  276MOL0     H37240   0.213  11.452   3.014 -0.1001 -2.8528  2.8244
  276MOL0     H37241   0.177  11.396   2.843 -2.1266 -1.0485  0.9035
  276MOL0     H37242   0.353  10.248   3.225 -0.1592  0.9601 -1.0070
  276MOL0     H37243   0.439  10.173   3.422 -0.6411  0.1589  1.7483
  276MOL0     H37244   0.736  10.327   3.765 -0.3889 -0.0065  0.6000
  276MOL0     H37245   0.875  10.259   3.956 -1.4418  0.4143  1.6091
  276MOL0     H37246   1.890   9.481   5.537  0.6355  1.7472  1.4471
  276MOL0     H37247   2.095   9.531   5.650  0.1805  0.9190 -0.4453
  276MOL0     H37248   2.467   9.515   5.788 -1.0978  0.0972 -1.0602
  276MOL0     H37249   2.668   9.476   5.945  2.5588 -3.0955 -0.6325
  276MOL0     H37250   3.070   9.327   5.845 -0.7657 -1.9431  3.6242
  276MOL0     H37251   3.063   9.478   5.760  3.6740  0.1372  2.9690
  276MOL0     H37252   3.225   9.499   5.917  1.4260  0.6882 -0.5826
  276MOL0     H37253   3.109   9.453   6.042 -1.5695 -1.9741 -2.4625
  276MOL0     H37254   2.981   9.658   6.008 -0.4866 -1.2018 -0.9839
  276MOL0     H37255   3.062   9.685   5.850  1.3139  2.6099 -0.0806
  276MOL0     H37256   3.276   9.735   5.961 -2.1704 -1.0423 -2.1876
  276MOL0     H37257   3.188   9.747   6.114 -1.0951  1.3172  0.4916
  276MOL0     H37258   3.095  10.105   5.904  2.6568  1.6027  1.3867
  276MOL0     H37259   2.913   9.391   5.613 -0.6704 -0.4268 -1.9696
  276MOL0     H37260   2.700   9.435   5.449 -0.1589  2.2522  0.4193
  277MOL0     O37261  11.359   0.237   8.984  0.3449 -0.6630  0.1434
  277MOL0     C37262  11.305   0.141   8.933  0.0171  0.1770  0.1967
  277MOL0     O37263  11.375   0.024   8.897  0.4078 -0.1635  0.5447
  277MOL0     C37264  11.516   0.030   8.905  0.6556 -0.1585 -0.3681
  277MOL0     C37265  11.572  -0.011   8.789 -1.4125  0.2397 -0.4269
  277MOL0     C37266  11.706  -0.021   8.779 -0.1619 -0.0551  1.7080
  277MOL0     C37267  11.793   0.017   8.879  0.2177 -1.1470 -0.5847
  277MOL0     O37268  11.928   0.027   8.839  0.1872  0.3029 -0.3102
  277MOL0     C37269  11.998   0.149   8.874 -0.4595 -0.0936  0.1534
  277MOL0     C37270  12.124   0.158   8.796  0.8291 -0.3287  0.5767
  277MOL0     C37271  12.230   0.084   8.865 -0.1270  0.1982  0.1359
  277MOL0     C37272  12.362   0.104   8.793  1.0759  0.4352  0.1408
  277MOL0     C37273  12.454  -0.009   8.830  1.5221 -1.0867 -0.3087
  277MOL0     C37274  12.586   0.016   8.755 -0.8744 -0.7530 -0.7414
  277MOL0     C37275  12.655  -0.118   8.705 -1.5290  0.1882 -0.6481
  277MOL0     C37276  12.797  -0.084   8.671 -0.5886 -0.2779 -0.2884
  277MOL0     N37277  12.873  -0.205   8.651  0.2676  0.2057 -0.5466
  277MOL0     C37278  12.858  -0.288   8.539  0.0955  0.0409 -0.0996
  277MOL0     C37279  12.969  -0.364   8.541  0.7343 -0.3486  0.3417
  277MOL0     C37280  13.001  -0.459   8.438  1.3139 -0.0071  0.0376
  277MOL0     C37281  13.085  -0.412   8.316  0.9942 -0.7889  0.1536
  277MOL0     C37282  13.080  -0.523   8.214 -0.2313  0.1515  1.0745
  277MOL0     C37283  12.956  -0.529   8.124 -0.4575 -0.0658  0.1198
  277MOL0     O37284  12.847  -0.600   8.191  0.1133 -0.3093 -0.0991
  277MOL0     C37285  12.720  -0.577   8.143  0.3502  0.3631 -0.8627
  277MOL0     C37286  12.613  -0.649   8.214  0.1822  0.4113 -0.8112
  277MOL0     C37287  12.478  -0.643   8.177 -0.6084  0.3626  0.0509
  277MOL0     C37288  12.388  -0.723   8.255 -0.2529  1.0718 -0.0089
  277MOL0     C37289  12.449  -0.550   8.072 -0.1077 -0.6880 -0.0850
  277MOL0     C37290  12.309  -0.521   8.021  0.1925  0.7522 -0.2200
  277MOL0     O37291  12.224  -0.623   8.025 -0.7204  0.0122 -0.0388
  277MOL0     C37292  12.101  -0.600   7.984  0.6499 -0.2289  0.0100
  277MOL0     C37293  11.997  -0.571   8.073  0.4927 -0.4727  1.2833
  277MOL0     C37294  11.875  -0.545   8.022 -0.7473  0.3746 -0.1102
  277MOL0     C37295  11.845  -0.542   7.886  0.3162 -0.0213  0.1192
  277MOL0     O37296  11.732  -0.491   7.834 -0.9179  0.0822 -0.4242
  277MOL0     C37297  11.628  -0.591   7.814  0.2268 -0.0727 -0.0652
  277MOL0     C37298  11.484  -0.535   7.861  0.4591 -0.8273  0.0763
  277MOL0     C37299  11.364  -0.622   7.825 -0.3378  0.9619  0.5660
  277MOL0     C37300  11.233  -0.547   7.857  0.8647  0.1275  0.2807
  277MOL0     C37301  11.102  -0.611   7.799  0.2855  0.1455  0.5398
  277MOL0     C37302  10.972  -0.554   7.852  0.4039 -0.6347 -0.1127
  277MOL0     C37303  10.848  -0.601   7.776  0.2804 -0.9414 -0.1657
  277MOL0     C37304  10.820  -0.518   7.649  1.0467  1.2379 -0.3293
  277MOL0    Cl37305  10.659  -0.570   7.586  0.3170  0.2882  0.2399
  277MOL0     C37306  11.951  -0.569   7.792  0.4655 -0.3575  0.0465
  277MOL0     C37307  12.076  -0.605   7.845  0.1853 -1.8447  0.6269
  277MOL0     O37308  12.282  -0.415   7.969  0.3179 -0.3347 -0.2385
  277MOL0     C37309  12.548  -0.469   8.017  0.2838  0.4270 -0.0849
  277MOL0     C37310  12.681  -0.483   8.048 -0.0523 -0.1092  0.6481
  277MOL0     N37311  13.051  -0.330   8.645  0.3003 -0.9185  0.0747
  277MOL0     N37312  12.989  -0.234   8.713 -0.2444  0.4362 -0.4891
  277MOL0     C37313  11.737   0.061   9.000  0.4927 -0.0093  0.4325
  277MOL0     C37314  11.597   0.070   9.013  0.0033  0.0218 -0.1941
  277MOL0     C37315  11.158   0.132   8.926 -0.1761  0.4496  1.0509
  277MOL0     C37316  11.104   0.031   8.842  0.0653 -0.2082 -0.0013
  277MOL0     C37317  10.967   0.001   8.844 -0.7541 -0.4338 -0.1126
  277MOL0     C37318  10.889   0.075   8.937 -0.6291  0.2038  0.2030
  277MOL0     O37319  10.757   0.041   8.929  0.4154  0.0532 -0.1307
  277MOL0     C37320  10.661   0.145   8.899 -0.6146  0.4251 -1.0012
  277MOL0     C37321  10.665   0.148   8.742 -0.0151  0.3904  0.1043
  277MOL0     C37322  10.577   0.264   8.689 -0.1437 -0.0803 -0.4035
  277MOL0     C37323  10.424   0.219   8.669 -0.9447 -0.1328 -0.1774
  277MOL0     C37324  10.415   0.121   8.559  0.1396 -0.9444  0.2541
  277MOL0     C37325  10.403   0.034   8.468  0.4655 -0.5850  0.3107
  277MOL0     C37326  10.934   0.182   9.017  0.0507  0.3815  0.1259
  277MOL0     C37327  11.076   0.209   9.007  0.6687  0.1901 -0.1494
  277MOL0     H37328  11.500  -0.031   8.710 -1.1260 -0.8244 -0.4274
  277MOL0     H37329  11.759  -0.054   8.690  0.1528 -1.4254  2.3715
  277MOL0     H37330  11.926   0.230   8.870  0.9229  1.1695  0.0758
  277MOL0     H37331  12.020   0.150   8.981  0.4877  1.0383 -0.0286
  277MOL0     H37332  12.100   0.124   8.695  0.7620  2.4584 -0.4408
  277MOL0     H37333  12.165   0.259   8.798  2.2368 -0.7269 -2.5719
  277MOL0     H37334  12.238   0.132   8.963 -0.4135  0.1755  0.1723
  277MOL0     H37335  12.208  -0.022   8.882 -0.3951 -0.0249 -1.4896
  277MOL0     H37336  12.336   0.097   8.686  0.7825 -1.9625  0.3030
  277MOL0     H37337  12.411   0.202   8.796  0.7764  0.6930 -1.7740
  277MOL0     H37338  12.482   0.005   8.935 -0.8946 -1.1989  0.4069
  277MOL0     H37339  12.406  -0.104   8.806 -1.7472  0.2464  0.3661
  277MOL0     H37340  12.570   0.070   8.661 -0.5621 -2.0033 -1.5401
  277MOL0     H37341  12.650   0.072   8.823 -1.7136 -0.8973  0.1895
  277MOL0     H37342  12.663  -0.182   8.793 -1.1038  2.2308  0.8694
  277MOL0     H37343  12.607  -0.172   8.623 -0.1739 -3.1615  0.5718
  277MOL0     H37344  12.835  -0.016   8.748  0.1464  3.3670 -3.5754
  277MOL0     H37345  12.798  -0.028   8.577 -0.7556  0.8031  0.3368
  277MOL0     H37346  12.784  -0.275   8.461 -1.7214 -1.1641  1.3170
  277MOL0     H37347  13.063  -0.534   8.488  0.4546 -2.7673 -2.7182
  277MOL0     H37348  12.907  -0.509   8.418  2.2055 -1.4834 -0.5881
  277MOL0     H37349  13.188  -0.399   8.351  0.2305 -1.7591  3.0000
  277MOL0     H37350  13.054  -0.315   8.275  2.0873  0.5497  2.2954
  277MOL0     H37351  13.087  -0.622   8.259 -1.1422 -0.9676 -1.1164
  277MOL0     H37352  13.165  -0.521   8.146  0.1657  2.1979  1.5529
  277MOL0     H37353  12.978  -0.561   8.022  0.6967  5.1238 -1.5345
  277MOL0     H37354  12.917  -0.427   8.115 -1.7619 -0.4840  0.8085
  277MOL0     H37355  12.643  -0.719   8.291 -1.1294 -0.2995 -0.9223
  277MOL0     H37356  12.380  -0.685   8.357 -6.0868 -1.7419  0.9535
  277MOL0     H37357  12.284  -0.733   8.222 -1.0831  3.0643  1.7301
  277MOL0     H37358  12.431  -0.823   8.259  1.8157  1.8483 -1.1596
  277MOL0     H37359  12.006  -0.577   8.181 -0.0192  2.3677  1.5582
  277MOL0     H37360  11.788  -0.523   8.083  1.8012  2.9880  2.9660
  277MOL0     H37361  11.634  -0.606   7.706  1.0296 -0.1185 -0.0150
  277MOL0     H37362  11.654  -0.682   7.869  1.2702  0.4376  0.3058
  277MOL0     H37363  11.484  -0.505   7.967  2.1336  0.3397 -0.1990
  277MOL0     H37364  11.484  -0.440   7.807  0.2510 -0.5597  0.5427
  277MOL0     H37365  11.387  -0.719   7.870  1.4867  0.2353 -1.7105
  277MOL0     H37366  11.360  -0.647   7.719  0.5514 -2.2302  1.1753
  277MOL0     H37367  11.225  -0.541   7.966 -0.6201  0.9561  0.1567
  277MOL0     H37368  11.248  -0.446   7.817  1.4286 -0.3958 -0.8732
  277MOL0     H37369  11.087  -0.717   7.821 -0.9601 -0.0151 -0.9084
  277MOL0     H37370  11.111  -0.587   7.692 -1.3123 -0.9214  0.1188
  277MOL0     H37371  10.946  -0.561   7.958 -2.1865  0.4348 -0.5818
  277MOL0     H37372  10.982  -0.447   7.831  0.1065 -0.4198  0.8081
  277MOL0     H37373  10.765  -0.583   7.844 -2.6317 -2.3643 -3.0593
  277MOL0     H37374  10.848  -0.707   7.752 -3.3681 -1.0311 -0.3838
  277MOL0     H37375  10.898  -0.535   7.573  1.2533 -0.9957  0.3341
  277MOL0     H37376  10.813  -0.412   7.674 -0.8595  0.7335  1.5739
  277MOL0     H37377  11.933  -0.546   7.687 -0.3201 -1.3027 -0.0368
  277MOL0     H37378  12.164  -0.619   7.782 -0.2658 -0.7302 -0.2882
  277MOL0     H37379  12.521  -0.390   7.947  0.0604  0.3174 -0.1203
  277MOL0     H37380  12.743  -0.412   7.994  0.5884  0.4549  2.0845
  277MOL0     H37381  11.804   0.097   9.078  0.7669 -0.2241  0.2995
  277MOL0     H37382  11.584   0.130   9.102  0.2306 -0.4394  0.1545
  277MOL0     H37383  11.164  -0.037   8.783  1.9406  0.9507  0.4844
  277MOL0     H37384  10.925  -0.085   8.793 -0.7993 -0.7714  0.4854
  277MOL0     H37385  10.562   0.120   8.939  1.4912 -2.0667  3.3815
  277MOL0     H37386  10.691   0.241   8.942 -1.6938  2.2849 -4.0080
  277MOL0     H37387  10.640   0.050   8.700 -0.6287  1.8855 -3.3360
  277MOL0     H37388  10.766   0.176   8.712 -0.4746  0.9282 -0.9899
  277MOL0     H37389  10.628   0.285   8.594  0.6603 -0.5338 -0.0834
  277MOL0     H37390  10.586   0.350   8.756 -3.4201  0.4008 -0.4203
  277MOL0     H37391  10.362   0.305   8.643  3.1988  4.0799  2.1295
  277MOL0     H37392  10.375   0.181   8.759 -1.3032  0.1929 -0.2341
  277MOL0     H37393  10.394  -0.047   8.399 -1.0758 -0.0130 -0.2013
  277MOL0     H37394  10.860   0.235   9.078 -2.4636 -1.4569 -1.1518
  277MOL0     H37395  11.123   0.278   9.076  0.4041  0.2598 -0.0377
  278MOL0     O37396   7.325   0.247  11.196  0.6394 -0.4506 -0.3870
  278MOL0     C37397   7.378   0.256  11.313  0.2158  0.6146 -0.0817
  278MOL0     O37398   7.322   0.288  11.433 -0.6564  0.3502  0.8639
  278MOL0     C37399   7.190   0.333  11.455 -0.4194  0.1929  0.3054
  278MOL0     C37400   7.147   0.353  11.582  1.1574 -0.9666 -0.2903
  278MOL0     C37401   7.009   0.402  11.608 -1.3381 -0.0687  0.6097
  278MOL0     C37402   6.921   0.438  11.501 -0.3031  0.1385 -0.3344
  278MOL0     O37403   6.805   0.491  11.542  0.1249 -0.6512  0.1225
  278MOL0     C37404   6.733   0.565  11.441 -0.0659 -0.1430 -0.2231
  278MOL0     C37405   6.597   0.612  11.487 -0.5687 -0.3586  1.0759
  278MOL0     C37406   6.489   0.505  11.508  1.0596  0.5858  0.1384
  278MOL0     C37407   6.352   0.573  11.537  0.1052  0.6070  0.7430
  278MOL0     C37408   6.253   0.491  11.618  0.1833  0.8957  0.2532
  278MOL0     C37409   6.131   0.573  11.662  0.1262  1.2103 -0.0757
  278MOL0     C37410   6.112   0.593  11.821  0.4360  0.3785  0.6479
  278MOL0     C37411   6.092   0.456  11.890 -0.5932 -0.0855 -0.2115
  278MOL0     N37412   5.947   0.411  11.894  0.1084 -0.2758 -0.8701
  278MOL0     C37413   5.868   0.418  12.008 -0.1226  1.0101 -0.2095
  278MOL0     C37414   5.754   0.356  11.971  0.7550  0.0356  0.2226
  278MOL0     C37415   5.629   0.343  12.056  0.4395  0.8813 -0.2568
  278MOL0     C37416   5.600   0.455  12.161  0.2540  0.4913  0.9161
  278MOL0     C37417   5.478   0.425  12.246  1.2253  0.4366  1.1339
  278MOL0     C37418   5.452   0.546  12.330 -0.6649 -0.7625 -0.5874
  278MOL0     O37419   5.379   0.656  12.266 -0.1124  0.0642 -0.2626
  278MOL0     C37420   5.245   0.680  12.296 -0.4054  0.8639 -0.8372
  278MOL0     C37421   5.154   0.574  12.291  0.3721 -0.0084 -0.0036
  278MOL0     C37422   5.020   0.597  12.317  0.7933 -1.0655  0.7079
  278MOL0     C37423   4.925   0.475  12.322  0.8295  0.2689  0.3554
  278MOL0     C37424   4.975   0.733  12.349 -0.8670  0.1937 -0.1278
  278MOL0     C37425   4.837   0.777  12.390  0.5812  0.1573 -0.2492
  278MOL0     O37426   4.745   0.690  12.435  0.2303  0.3616  0.5117
  278MOL0     C37427   4.623   0.744  12.490 -0.8919  0.5537 -0.1497
  278MOL0     C37428   4.507   0.675  12.467 -0.4733  0.0466 -0.4671
  278MOL0     C37429   4.386   0.718  12.507  0.6026  0.1893  0.0344
  278MOL0     C37430   4.367   0.844  12.572 -0.9170 -0.3835 -0.0695
  278MOL0     O37431   4.247   0.880  12.633  0.1757  0.0705  0.8258
  278MOL0     C37432   4.180   0.770  12.697  0.0476  1.2862  0.8376
  278MOL0     C37433   4.084   0.818  12.805 -0.0990  0.4170 -0.5487
  278MOL0     C37434   3.985   0.701  12.853  0.3159 -0.0869  0.0200
  278MOL0     C37435   3.895   0.738  12.973 -0.4288 -0.1099  1.0248
  278MOL0     C37436   3.795   0.626  12.998  0.3698 -0.0481  0.5647
  278MOL0     C37437   3.663   0.684  13.037 -0.2792  0.1644  0.0849
  278MOL0     C37438   3.537   0.590  13.043  0.2769  0.2248  0.1682
  278MOL0     C37439   3.405   0.666  13.073 -0.4054  0.1231  0.3108
  278MOL0    Cl37440   3.276   0.539  13.071 -0.2865  0.3639 -0.2804
  278MOL0     C37441   4.486   0.917  12.598  0.5832  0.6722 -0.7651
  278MOL0     C37442   4.608   0.861  12.564 -0.4728 -0.5320 -0.0104
  278MOL0     O37443   4.819   0.901  12.380  0.2964 -0.8170  0.5215
  278MOL0     C37444   5.077   0.835  12.325 -0.1368  0.0848  0.8300
  278MOL0     C37445   5.212   0.809  12.310  1.0608 -0.0103  0.2258
  278MOL0     N37446   5.763   0.305  11.842  0.0776 -0.4522 -0.6708
  278MOL0     N37447   5.880   0.331  11.805  0.3214 -0.9514  0.4579
  278MOL0     C37448   6.971   0.421  11.371  0.1366  0.9535 -0.0413
  278MOL0     C37449   7.091   0.359  11.353  0.9306  0.6622  0.0149
  278MOL0     C37450   7.526   0.240  11.307 -0.5354 -0.3219 -0.5760
  278MOL0     C37451   7.602   0.236  11.190 -0.8972 -0.2447  0.5949
  278MOL0     C37452   7.739   0.211  11.196 -0.4322  0.1472 -0.1805
  278MOL0     C37453   7.807   0.204  11.319  0.7098  0.2138 -0.4986
  278MOL0     O37454   7.943   0.170  11.317  0.1309  0.2715  0.3341
  278MOL0     C37455   8.016   0.167  11.441 -0.0080  0.9933  0.3156
  278MOL0     C37456   8.166   0.153  11.416  0.4563 -0.6468  0.4654
  278MOL0     C37457   8.240   0.266  11.345 -0.5905 -0.0841 -0.1415
  278MOL0     C37458   8.392   0.263  11.360 -0.1164 -1.2051 -0.8969
  278MOL0     C37459   8.454   0.136  11.316  0.3299 -0.4696 -0.0127
  278MOL0     C37460   8.517   0.042  11.285 -0.7937  0.1832  0.2108
  278MOL0     C37461   7.730   0.208  11.440  0.6370 -0.3000 -0.0897
  278MOL0     C37462   7.592   0.228  11.437 -0.0743 -0.3476 -0.1702
  278MOL0     H37463   7.211   0.316  11.662  1.2001  1.2516  0.7822
  278MOL0     H37464   6.982   0.421  11.712  0.1925  1.0901  0.8354
  278MOL0     H37465   6.790   0.653  11.409  1.3224 -1.3118 -1.0290
  278MOL0     H37466   6.711   0.510  11.349  0.3205  1.3571 -1.2476
  278MOL0     H37467   6.597   0.677  11.576 -0.4353 -1.3537  1.8281
  278MOL0     H37468   6.571   0.682  11.407 -0.8285 -1.0977  0.5044
  278MOL0     H37469   6.479   0.432  11.427  0.4598 -2.9166  3.1153
  278MOL0     H37470   6.520   0.444  11.593  1.1977 -2.0178 -1.6557
  278MOL0     H37471   6.369   0.667  11.591 -1.6340  0.6584  1.2523
  278MOL0     H37472   6.307   0.589  11.439  1.3284  0.0064  0.0589
  278MOL0     H37473   6.224   0.404  11.558 -0.5077  1.3401 -0.0576
  278MOL0     H37474   6.305   0.447  11.704  0.8659  1.2248  0.0226
  278MOL0     H37475   6.140   0.673  11.619 -1.7167  2.3857  2.1142
  278MOL0     H37476   6.045   0.525  11.614  1.4676 -1.6214  0.1171
  278MOL0     H37477   6.200   0.646  11.860 -1.0880  0.8730  3.7164
  278MOL0     H37478   6.024   0.654  11.843  0.7441  1.3008 -0.5103
  278MOL0     H37479   6.121   0.454  11.995  0.2788 -3.8201 -0.3799
  278MOL0     H37480   6.163   0.375  11.870 -0.9748 -1.9797  4.6563
  278MOL0     H37481   5.878   0.455  12.109  0.5970  0.5239 -0.0913
  278MOL0     H37482   5.543   0.336  11.989  0.4729 -2.5399 -0.0835
  278MOL0     H37483   5.646   0.248  12.107 -0.3016  0.5491 -0.6216
  278MOL0     H37484   5.596   0.556  12.120  0.2716  0.4565  0.8267
  278MOL0     H37485   5.683   0.454  12.231 -1.0828 -3.2910  2.7501
  278MOL0     H37486   5.493   0.337  12.309 -1.6154 -0.2683  0.9933
  278MOL0     H37487   5.385   0.404  12.191  0.5412  3.2406  1.0697
  278MOL0     H37488   5.546   0.581  12.374 -1.3940 -1.7474  1.9920
  278MOL0     H37489   5.412   0.519  12.428  0.3486 -0.2331 -0.0091
  278MOL0     H37490   5.171   0.470  12.263 -2.3778  0.5496 -4.8195
  278MOL0     H37491   4.825   0.498  12.285  0.7384 -2.9889 -1.8321
  278MOL0     H37492   4.961   0.392  12.261 -1.4728 -0.2871 -0.3528
  278MOL0     H37493   4.916   0.445  12.427 -2.6137 -1.0622 -0.1825
  278MOL0     H37494   4.525   0.576  12.425 -1.3562 -0.2122 -0.2600
  278MOL0     H37495   4.296   0.670  12.469  0.0031  2.6337 -1.8574
  278MOL0     H37496   4.112   0.722  12.626  1.7565 -0.6766  0.4490
  278MOL0     H37497   4.254   0.707  12.746  1.9044  3.3004  0.7837
  278MOL0     H37498   4.141   0.861  12.888 -0.1410  0.4633 -0.5437
  278MOL0     H37499   4.024   0.898  12.759 -1.0655 -0.3572 -0.6606
  278MOL0     H37500   4.049   0.616  12.878  2.2297  1.7978  1.9831
  278MOL0     H37501   3.923   0.674  12.767 -0.8136  4.8506 -1.0265
  278MOL0     H37502   3.952   0.747  13.066  0.6773 -3.1331  0.7444
  278MOL0     H37503   3.845   0.831  12.943 -1.5617 -0.6399  1.2512
  278MOL0     H37504   3.831   0.556  13.075 -0.1535 -1.2022 -0.2117
  278MOL0     H37505   3.792   0.568  12.905  2.0013  0.8161 -0.0645
  278MOL0     H37506   3.667   0.734  13.134 -0.5167  4.7169 -1.9851
  278MOL0     H37507   3.636   0.769  12.974 -0.1383  1.8699  2.1833
  278MOL0     H37508   3.560   0.517  13.121  0.1078  2.1138  2.0714
  278MOL0     H37509   3.526   0.542  12.946 -0.8333  2.3260 -0.8239
  278MOL0     H37510   3.386   0.738  12.993  0.2815 -1.9275 -1.8152
  278MOL0     H37511   3.402   0.716  13.170 -0.7749  1.0729 -0.1785
  278MOL0     H37512   4.489   1.014  12.646  2.4450  0.3293 -0.0731
  278MOL0     H37513   4.694   0.923  12.589 -0.6342 -0.7452  1.1167
  278MOL0     H37514   5.049   0.939  12.330  0.1901  0.3898 -1.8644
  278MOL0     H37515   5.286   0.888  12.322 -0.3753  1.3420  0.4135
  278MOL0     H37516   6.918   0.459  11.285  0.1879 -0.3412 -0.6695
  278MOL0     H37517   7.110   0.355  11.246 -2.9682  0.6267 -0.7987
  278MOL0     H37518   7.555   0.248  11.094 -0.6205 -2.5110  0.1246
  278MOL0     H37519   7.805   0.214  11.110 -0.2754 -0.1582 -0.0719
  278MOL0     H37520   7.993   0.261  11.492  1.9860  1.8913 -0.3206
  278MOL0     H37521   7.981   0.073  11.485  3.6149 -0.6602  0.0470
  278MOL0     H37522   8.179   0.065  11.353  0.3066 -0.9425  0.8433
  278MOL0     H37523   8.211   0.134  11.514  1.9200 -1.0417 -0.2514
  278MOL0     H37524   8.211   0.362  11.388  0.4320 -1.3083  3.6171
  278MOL0     H37525   8.202   0.267  11.242 -0.0631  2.1246 -0.3746
  278MOL0     H37526   8.418   0.279  11.465 -0.6431 -2.0831 -0.6183
  278MOL0     H37527   8.417   0.354  11.305 -1.7632  0.4058  0.8867
  278MOL0     H37528   8.570  -0.045  11.250 -1.8542  0.8129 -3.3780
  278MOL0     H37529   7.782   0.198  11.535  2.5944 -1.8202 -1.2608
  278MOL0     H37530   7.534   0.237  11.528 -0.4453  2.2923 -0.5720
  279MOL0     O37531   9.901   7.949  11.350  0.5245 -0.5012  0.6537
  279MOL0     C37532   9.912   7.910  11.467 -0.2562 -0.6849 -0.4541
  279MOL0     O37533   9.995   7.808  11.513  0.0573 -0.4641  0.6219
  279MOL0     C37534  10.081   7.750  11.422 -0.2104 -0.6213 -0.6194
  279MOL0     C37535  10.181   7.825  11.345 -0.1712 -0.0985  0.0936
  279MOL0     C37536  10.266   7.762  11.254  0.0855 -0.8269  0.0926
  279MOL0     C37537  10.251   7.625  11.225  0.0316  0.5428 -0.2534
  279MOL0     O37538  10.344   7.567  11.140 -0.2610  0.8103  1.0893
  279MOL0     C37539  10.395   7.429  11.185  0.3234 -0.5794  0.0190
  279MOL0     C37540  10.495   7.395  11.079  0.0942 -0.1973  0.0263
  279MOL0     C37541  10.427   7.333  10.955  0.4193 -0.3584  0.2900
  279MOL0     C37542  10.535   7.258  10.864  0.1930 -0.1300  0.4638
  279MOL0     C37543  10.484   7.231  10.714 -1.1066  0.2318  0.3662
  279MOL0     C37544  10.599   7.170  10.634  0.1138  0.2232  0.4271
  279MOL0     C37545  10.530   7.075  10.531  0.4526  0.7915  0.0320
  279MOL0     C37546  10.637   6.994  10.453 -0.4276  0.3788 -0.2456
  279MOL0     N37547  10.572   6.938  10.330  0.6190  0.0679 -0.3984
  279MOL0     C37548  10.544   7.006  10.217  0.6257  0.3844  0.7282
  279MOL0     C37549  10.458   6.928  10.140 -0.0297 -0.3417  0.1539
  279MOL0     C37550  10.405   6.961   9.998 -0.3870 -0.2611  0.2203
  279MOL0     C37551  10.484   6.878   9.892  0.2767 -0.0179  0.1468
  279MOL0     C37552  10.636   6.916   9.899 -0.4976  0.9413 -0.2479
  279MOL0     C37553  10.708   6.836   9.793 -0.7248 -0.8323  0.3696
  279MOL0     O37554  10.708   6.697   9.837 -0.2267  1.0739  0.4645
  279MOL0     C37555  10.812   6.611   9.794  0.6090 -1.1245 -0.3572
  279MOL0     C37556  10.797   6.477   9.762  1.0298  0.4402  0.7635
  279MOL0     C37557  10.907   6.395   9.720  0.1994  0.3663  0.1622
  279MOL0     C37558  10.878   6.247   9.696 -0.2208 -0.3260  0.2468
  279MOL0     C37559  11.031   6.447   9.694  0.1885 -0.3365  1.1179
  279MOL0     C37560  11.161   6.374   9.666 -0.7480 -0.0217 -0.4167
  279MOL0     O37561  11.271   6.452   9.640  0.2148  0.0428  0.1410
  279MOL0     C37562  11.396   6.407   9.590  0.2824 -0.5118 -0.4955
  279MOL0     C37563  11.469   6.507   9.517  0.8939  0.0046 -0.3858
  279MOL0     C37564  11.578   6.465   9.459  0.1165  0.2463  0.1883
  279MOL0     C37565  11.633   6.340   9.472  0.8134 -0.9465 -0.0207
  279MOL0     O37566  11.756   6.298   9.419 -0.1726 -0.0744 -0.2488
  279MOL0     C37567  11.816   6.361   9.301 -0.4508  0.1793  0.8709
  279MOL0     C37568  11.950   6.317   9.258  0.8392 -0.1106 -0.2506
  279MOL0     C37569  11.935   6.190   9.167  0.4534 -0.4946 -1.7682
  279MOL0     C37570  12.063   6.156   9.092  0.2862 -0.2335  0.5040
  279MOL0     C37571  12.068   6.011   9.035  0.1592  0.1157  0.4690
  279MOL0     C37572  11.947   5.969   8.950  0.2580  0.2420  0.4055
  279MOL0     C37573  11.959   5.823   8.905  0.8378  0.7107  0.0387
  279MOL0     C37574  11.837   5.769   8.821  0.0620 -0.8656 -0.3990
  279MOL0    Cl37575  11.692   5.756   8.942 -0.2164  0.3998 -0.3180
  279MOL0     C37576  11.567   6.243   9.550  0.0203 -0.7321 -0.3255
  279MOL0     C37577  11.446   6.278   9.615 -0.7833  0.3199  0.5198
  279MOL0     O37578  11.157   6.257   9.679 -0.6576 -0.5911 -0.1350
  279MOL0     C37579  11.041   6.590   9.712 -0.9570  1.0683  0.1469
  279MOL0     C37580  10.938   6.664   9.768 -0.1003  0.7992 -0.1165
  279MOL0     N37581  10.436   6.813  10.212 -0.1169  0.5418  0.2745
  279MOL0     N37582  10.496   6.824  10.333  0.8309 -0.8896  0.6557
  279MOL0     C37583  10.157   7.547  11.296 -0.1044 -0.2515 -1.0418
  279MOL0     C37584  10.080   7.611  11.390  1.0738 -0.1448  0.6012
  279MOL0     C37585   9.836   7.978  11.573  1.0215 -0.2245  0.0741
  279MOL0     C37586   9.715   8.039  11.538  0.8736 -0.1874 -0.0787
  279MOL0     C37587   9.651   8.115  11.636  0.4267  0.1841 -0.4972
  279MOL0     C37588   9.696   8.120  11.766  0.4983 -0.0182  0.2358
  279MOL0     O37589   9.617   8.195  11.856  0.2642 -0.0678  0.0887
  279MOL0     C37590   9.649   8.199  11.995  0.3509 -1.3503  0.3196
  279MOL0     C37591   9.719   8.324  12.044 -0.0452 -0.0623 -0.1497
  279MOL0     C37592   9.656   8.460  11.999  0.1922 -0.2149  1.1573
  279MOL0     C37593   9.730   8.581  12.053 -0.3598 -0.1015 -0.6109
  279MOL0     C37594   9.853   8.608  11.971  0.5219 -0.8693 -0.1292
  279MOL0     C37595   9.945   8.635  11.900 -0.6602 -0.0046  0.1134
  279MOL0     C37596   9.825   8.063  11.795  0.5109 -0.6797 -0.8712
  279MOL0     C37597   9.886   7.994  11.699 -0.0696  0.6469 -0.6260
  279MOL0     H37598  10.189   7.931  11.368  0.9402  0.5621 -2.8521
  279MOL0     H37599  10.342   7.821  11.204  1.3933 -2.7000 -0.2375
  279MOL0     H37600  10.445   7.440  11.282 -4.2714  0.2524  2.5757
  279MOL0     H37601  10.313   7.359  11.205 -1.0398  0.7022 -0.9058
  279MOL0     H37602  10.572   7.469  11.054  1.7563 -2.1349 -0.8898
  279MOL0     H37603  10.561   7.321  11.126 -1.9390 -1.7386  0.5476
  279MOL0     H37604  10.347   7.264  10.983 -1.0817  0.1239 -2.4969
  279MOL0     H37605  10.373   7.401  10.889 -0.9499 -0.2658  1.4475
  279MOL0     H37606  10.615   7.332  10.853 -1.4348  1.3362 -2.9655
  279MOL0     H37607  10.566   7.161  10.904 -0.6234 -1.6231 -2.2950
  279MOL0     H37608  10.396   7.166  10.717  2.0526 -4.5641  1.3326
  279MOL0     H37609  10.444   7.320  10.665  0.9510  1.3260  0.5779
  279MOL0     H37610  10.658   7.241  10.576 -1.5097  0.6217 -0.8320
  279MOL0     H37611  10.663   7.110  10.699  0.0286 -1.1905 -0.7343
  279MOL0     H37612  10.468   6.997  10.576 -1.7846  2.5208  0.1015
  279MOL0     H37613  10.469   7.130  10.459 -1.2317 -1.7966 -0.6261
  279MOL0     H37614  10.667   6.914  10.522  0.1453  0.9143  0.1344
  279MOL0     H37615  10.734   7.041  10.436  0.0168 -0.6007 -0.5243
  279MOL0     H37616  10.591   7.099  10.189  1.7847 -0.8084 -1.4835
  279MOL0     H37617  10.297   6.946   9.993 -0.5073  0.6045  0.0387
  279MOL0     H37618  10.422   7.066   9.973  1.0929  0.0089  2.1346
  279MOL0     H37619  10.451   6.903   9.791  2.3845 -2.3200 -1.2287
  279MOL0     H37620  10.477   6.770   9.908 -0.8374 -0.1173 -0.8635
  279MOL0     H37621  10.689   6.885   9.990 -1.1078  0.4208 -0.0686
  279MOL0     H37622  10.659   7.022   9.886  2.6066  0.3953  0.0135
  279MOL0     H37623  10.806   6.880   9.774 -1.2716  0.1074 -0.3783
  279MOL0     H37624  10.652   6.846   9.700 -0.3561 -3.4600 -0.2102
  279MOL0     H37625  10.696   6.437   9.765  1.0656  0.2033 -0.4808
  279MOL0     H37626  10.774   6.221   9.675  0.4410 -0.1478 -4.1248
  279MOL0     H37627  10.926   6.213   9.604 -3.6406  1.9607 -2.6416
  279MOL0     H37628  10.912   6.191   9.784 -3.3877 -0.5299  1.4961
  279MOL0     H37629  11.429   6.605   9.495 -1.3436 -0.7176  0.2700
  279MOL0     H37630  11.642   6.536   9.408  1.6431  1.7522  3.8637
  279MOL0     H37631  11.747   6.357   9.216 -1.8890 -0.9871  2.0246
  279MOL0     H37632  11.824   6.467   9.322 -2.0396  0.3444  0.8117
  279MOL0     H37633  11.999   6.399   9.204  1.4725 -0.2084  0.1603
  279MOL0     H37634  12.020   6.291   9.338  1.0745  1.4702  0.0835
  279MOL0     H37635  11.857   6.214   9.094  0.6287  0.5966 -1.6097
  279MOL0     H37636  11.917   6.102   9.229 -1.0229  1.3130  0.5090
  279MOL0     H37637  12.077   6.227   9.010 -0.1070  0.1524  0.7646
  279MOL0     H37638  12.147   6.172   9.160  0.9403  2.0641 -0.7308
  279MOL0     H37639  12.064   5.946   9.123  0.2961 -0.4464  0.0747
  279MOL0     H37640  12.165   5.999   8.987  0.8938  2.3420  1.3082
  279MOL0     H37641  11.856   5.979   9.010 -0.1181 -0.9262  0.0638
  279MOL0     H37642  11.927   6.037   8.867 -1.8610  0.3019  0.9161
  279MOL0     H37643  11.960   5.758   8.993 -1.3903 -1.2559 -1.2814
  279MOL0     H37644  12.053   5.814   8.849  0.8028 -0.1213  0.1131
  279MOL0     H37645  11.858   5.669   8.781 -1.4952 -2.0664  1.5594
  279MOL0     H37646  11.810   5.823   8.730  1.4894 -2.1437 -1.6331
  279MOL0     H37647  11.614   6.145   9.547 -2.4537 -1.9803 -1.2211
  279MOL0     H37648  11.400   6.209   9.685  0.7687 -1.2119  0.1083
  279MOL0     H37649  11.139   6.634   9.701 -0.0392 -0.9235 -0.0776
  279MOL0     H37650  10.974   6.758   9.809 -0.7264  0.1494  2.0523
  279MOL0     H37651  10.132   7.442  11.286 -0.0417 -0.5637  1.3870
  279MOL0     H37652   9.996   7.561  11.438 -1.0006  2.1918 -0.4167
  279MOL0     H37653   9.677   8.039  11.436  0.0832 -1.4515  0.1937
  279MOL0     H37654   9.554   8.160  11.618 -0.9747 -0.8078  3.4089
  279MOL0     H37655   9.552   8.201  12.044 -1.0420 -1.5469 -2.2714
  279MOL0     H37656   9.699   8.109  12.032  1.2800 -0.7931  0.4664
  279MOL0     H37657   9.821   8.316  12.004  0.9593  1.4670  1.9422
  279MOL0     H37658   9.725   8.318  12.153 -0.2477 -0.8242 -0.1730
  279MOL0     H37659   9.555   8.485  12.033  1.7526  3.7437  3.6666
  279MOL0     H37660   9.665   8.466  11.890  5.4633 -1.8573  1.2262
  279MOL0     H37661   9.738   8.571  12.162  0.3992 -1.9887 -0.8026
  279MOL0     H37662   9.665   8.667  12.037 -0.4044  0.6913  2.9340
  279MOL0     H37663  10.027   8.652  11.832  1.2863  0.2896  2.3862
  279MOL0     H37664   9.871   8.089  11.890  0.9242  0.9325 -1.4762
  279MOL0     H37665   9.988   7.960  11.710 -0.6948 -1.6615 -1.4647
  280MOL0     O37666  10.251   8.525   5.096 -0.0458 -0.0258 -0.0303
  280MOL0     C37667  10.189   8.621   5.048 -0.0107 -0.3338 -0.2098
  280MOL0     O37668  10.085   8.614   4.960  0.7606 -0.3586 -0.7050
  280MOL0     C37669  10.036   8.484   4.930  0.3410  0.6359  1.2932
  280MOL0     C37670  10.008   8.393   5.035  0.9341 -0.2592  0.3542
  280MOL0     C37671   9.961   8.259   5.000 -0.1374  0.5135 -0.3658
  280MOL0     C37672   9.949   8.223   4.865 -0.1072 -0.1243 -0.4933
  280MOL0     O37673   9.886   8.107   4.835  0.2782 -0.6821  0.1241
  280MOL0     C37674   9.929   8.043   4.713 -0.4200 -0.5843  0.3378
  280MOL0     C37675   9.887   7.903   4.739 -1.3190  0.2072  0.2211
  280MOL0     C37676   9.961   7.833   4.853 -0.3665  0.3726  0.4512
  280MOL0     C37677  10.113   7.858   4.841 -0.5663 -0.0725  0.5896
  280MOL0     C37678  10.194   7.752   4.899 -0.4967 -0.3308 -0.8848
  280MOL0     C37679  10.190   7.724   5.036  0.7276  0.3684 -0.0603
  280MOL0     C37680  10.263   7.594   5.084  0.0719  0.8590  0.6605
  280MOL0     C37681  10.423   7.602   5.088  0.8972 -0.1073  0.1853
  280MOL0     N37682  10.475   7.486   5.161 -0.7486 -0.9158  0.2225
  280MOL0     C37683  10.435   7.439   5.286  0.4356 -0.2762 -0.2540
  280MOL0     C37684  10.514   7.328   5.309  0.2351 -0.4260  0.5762
  280MOL0     C37685  10.505   7.240   5.433  0.7587 -0.4102  0.6434
  280MOL0     C37686  10.575   7.101   5.418  0.2683  0.1495 -0.6081
  280MOL0     C37687  10.594   7.040   5.557  0.4533  0.6384 -0.6357
  280MOL0     C37688  10.467   7.009   5.642  0.1378  0.4319 -0.4067
  280MOL0     O37689  10.381   6.918   5.571 -0.6020  0.2108 -0.5307
  280MOL0     C37690  10.272   6.869   5.634  0.7247 -1.0517 -0.0536
  280MOL0     C37691  10.216   6.762   5.575 -0.4311 -0.1262  0.6460
  280MOL0     C37692  10.094   6.717   5.597  0.4450 -0.0765 -0.6736
  280MOL0     C37693  10.034   6.605   5.509 -0.9241 -0.0243  0.6503
  280MOL0     C37694  10.020   6.781   5.700  0.1221  0.7323 -1.3416
  280MOL0     C37695   9.892   6.721   5.738  0.0731 -0.4934 -0.2179
  280MOL0     O37696   9.781   6.807   5.773 -1.1732  0.3409 -0.0767
  280MOL0     C37697   9.654   6.757   5.761  0.4623 -0.9769 -0.1018
  280MOL0     C37698   9.619   6.667   5.659  0.2973  0.3441 -0.4722
  280MOL0     C37699   9.477   6.628   5.658  0.1632 -0.0961  0.2709
  280MOL0     C37700   9.386   6.673   5.742 -0.1071 -0.2119 -0.1483
  280MOL0     O37701   9.249   6.646   5.737 -0.3841  0.2224  0.1695
  280MOL0     C37702   9.202   6.530   5.671  0.8947  0.5521 -0.3326
  280MOL0     C37703   9.064   6.558   5.615 -0.9799 -0.3284 -0.2223
  280MOL0     C37704   8.967   6.596   5.735  0.8209  0.5766 -0.1801
  280MOL0     C37705   8.823   6.576   5.690  0.0505  0.4179  0.6710
  280MOL0     C37706   8.717   6.623   5.801 -0.2873  0.9431 -0.2326
  280MOL0     C37707   8.714   6.779   5.823 -0.1613 -0.1611 -0.9059
  280MOL0     C37708   8.588   6.822   5.912  0.1235  0.0288 -0.3502
  280MOL0     C37709   8.455   6.820   5.843  0.8378  0.9166  0.2717
  280MOL0    Cl37710   8.432   6.947   5.718 -0.2668 -0.2680 -0.1836
  280MOL0     C37711   9.425   6.766   5.836  0.0927 -0.4593  0.3044
  280MOL0     C37712   9.557   6.814   5.846 -0.6765  0.4687  0.3602
  280MOL0     O37713   9.895   6.605   5.776  0.7918  0.7954  0.0905
  280MOL0     C37714  10.073   6.900   5.762 -0.1439 -0.4865  0.0488
  280MOL0     C37715  10.204   6.938   5.729 -0.7332 -0.3002 -0.4533
  280MOL0     N37716  10.598   7.311   5.200  0.4722  0.8947 -0.2789
  280MOL0     N37717  10.574   7.405   5.121  0.0801 -0.5685  0.4248
  280MOL0     C37718   9.985   8.311   4.766 -0.1026  0.2815  0.3380
  280MOL0     C37719  10.026   8.440   4.798 -0.2974 -0.0316 -0.0070
  280MOL0     C37720  10.243   8.753   5.085  0.1800  0.3201 -0.3673
  280MOL0     C37721  10.214   8.868   5.014 -0.4255 -0.9173 -0.3367
  280MOL0     C37722  10.262   8.997   5.042  0.4717 -0.5913  0.4652
  280MOL0     C37723  10.353   9.009   5.144 -0.9327 -0.0289  0.3377
  280MOL0     O37724  10.389   9.136   5.186 -0.5862 -0.0205  0.6022
  280MOL0     C37725  10.468   9.152   5.301  0.4912 -0.0144 -0.5837
  280MOL0     C37726  10.374   9.149   5.419 -0.1533  0.7969  0.5167
  280MOL0     C37727  10.453   9.190   5.548  0.5393  0.0323  0.0578
  280MOL0     C37728  10.442   9.344   5.567 -0.4535  0.5928  0.3198
  280MOL0     C37729  10.487   9.372   5.707 -0.0188  0.2592 -0.4294
  280MOL0     C37730  10.519   9.370   5.821 -0.4018  0.3173 -0.7845
  280MOL0     C37731  10.392   8.886   5.214 -0.0288 -0.6319 -0.4329
  280MOL0     C37732  10.338   8.765   5.182  0.2052 -0.4047 -0.9438
  280MOL0     H37733  10.018   8.415   5.141 -0.3564 -2.3807  0.9753
  280MOL0     H37734   9.932   8.187   5.076  1.2404  0.0567 -0.2365
  280MOL0     H37735   9.879   8.076   4.621 -2.1225  1.2327  1.8001
  280MOL0     H37736  10.036   8.053   4.698 -0.3942 -3.0176 -1.6935
  280MOL0     H37737   9.781   7.893   4.763 -1.0272 -1.5596  0.9380
  280MOL0     H37738   9.904   7.852   4.643  0.9663  2.6747 -0.8058
  280MOL0     H37739   9.925   7.874   4.948 -0.1536  3.7059 -0.7653
  280MOL0     H37740   9.941   7.725   4.851 -1.0748  0.4828  0.9383
  280MOL0     H37741  10.143   7.870   4.736 -0.8418 -1.3843  0.3503
  280MOL0     H37742  10.134   7.952   4.893 -0.5574  0.5401 -0.4944
  280MOL0     H37743  10.175   7.659   4.845  1.2670 -1.6494  0.6283
  280MOL0     H37744  10.298   7.775   4.876  0.5674 -0.1907  3.2401
  280MOL0     H37745  10.231   7.804   5.098  2.6349 -1.0187  0.5560
  280MOL0     H37746  10.086   7.722   5.070  0.8329  0.5913  0.2800
  280MOL0     H37747  10.217   7.578   5.182  0.7289  1.5949  1.0972
  280MOL0     H37748  10.241   7.511   5.016  0.5102 -0.6403  2.2899
  280MOL0     H37749  10.454   7.698   5.132 -1.4423  0.8263 -0.0784
  280MOL0     H37750  10.453   7.589   4.983 -0.5135 -0.8969 -0.1454
  280MOL0     H37751  10.364   7.481   5.357  1.2733  0.3126  0.2607
  280MOL0     H37752  10.536   7.297   5.520 -1.2149  1.1008  0.4369
  280MOL0     H37753  10.397   7.219   5.439  0.8088 -0.2695  2.5057
  280MOL0     H37754  10.679   7.104   5.383  0.8404  0.3206  1.0188
  280MOL0     H37755  10.514   7.034   5.358  0.0425 -1.7801  1.6337
  280MOL0     H37756  10.659   7.113   5.606  1.4610 -0.7784  0.2357
  280MOL0     H37757  10.649   6.946   5.545 -1.2682 -0.5045  0.0255
  280MOL0     H37758  10.401   7.092   5.669 -1.1051 -0.4851 -0.5576
  280MOL0     H37759  10.499   6.967   5.737  0.7050 -1.7153 -1.4861
  280MOL0     H37760  10.276   6.721   5.494  1.4042 -1.9265  2.7900
  280MOL0     H37761  10.092   6.612   5.417 -1.9075  1.2024  0.1082
  280MOL0     H37762  10.063   6.503   5.536 -1.0720 -0.1901  0.1791
  280MOL0     H37763   9.927   6.604   5.489 -1.1298  0.4442  1.6440
  280MOL0     H37764   9.674   6.618   5.580 -0.0488 -1.9119  0.5907
  280MOL0     H37765   9.448   6.555   5.584 -1.0367 -0.3475  0.9753
  280MOL0     H37766   9.267   6.493   5.591  0.0147  1.3678 -1.4638
  280MOL0     H37767   9.200   6.449   5.743  1.4387 -1.0315 -2.0197
  280MOL0     H37768   9.067   6.632   5.535  2.1694 -2.3395 -2.1968
  280MOL0     H37769   9.014   6.474   5.566  1.1380 -2.9197  1.7801
  280MOL0     H37770   8.977   6.702   5.758 -1.8034  0.7247  0.5257
  280MOL0     H37771   8.983   6.531   5.822  1.4214 -1.3661 -1.6569
  280MOL0     H37772   8.794   6.626   5.597 -1.4324 -0.9304  0.3450
  280MOL0     H37773   8.813   6.468   5.674 -1.4453  0.1868  2.7715
  280MOL0     H37774   8.746   6.584   5.898 -0.1200  2.0801  0.1984
  280MOL0     H37775   8.619   6.584   5.773  0.4943  0.5441 -2.7419
  280MOL0     H37776   8.804   6.805   5.879 -0.0733 -0.3134 -0.9770
  280MOL0     H37777   8.720   6.829   5.726 -0.8376 -0.0681 -0.9083
  280MOL0     H37778   8.607   6.923   5.949 -0.5809  0.0205  0.0356
  280MOL0     H37779   8.588   6.760   6.002  1.2041 -0.3575 -0.5924
  280MOL0     H37780   8.378   6.838   5.918 -0.5318  0.3771 -0.9631
  280MOL0     H37781   8.433   6.725   5.795  0.9866 -0.2577  2.4007
  280MOL0     H37782   9.354   6.810   5.905  1.6074  0.0407  1.6196
  280MOL0     H37783   9.582   6.886   5.923 -1.3880 -0.7427  1.7865
  280MOL0     H37784  10.016   6.944   5.843  2.0948 -0.0686  1.4830
  280MOL0     H37785  10.246   7.027   5.776  1.0127 -0.3591 -1.7694
  280MOL0     H37786   9.968   8.309   4.659  0.3571  4.3058  0.0132
  280MOL0     H37787  10.043   8.511   4.717  0.5583 -1.7028 -1.3481
  280MOL0     H37788  10.139   8.853   4.937  0.3796 -0.7630 -1.1690
  280MOL0     H37789  10.217   9.086   4.998  1.5728 -0.4262 -0.3800
  280MOL0     H37790  10.555   9.087   5.311 -0.3965 -0.9209  2.0105
  280MOL0     H37791  10.512   9.252   5.311 -0.5202  0.2339  5.4092
  280MOL0     H37792  10.351   9.044   5.440  1.6136  0.6187  1.8055
  280MOL0     H37793  10.291   9.215   5.391  0.0476  0.4048 -1.1478
  280MOL0     H37794  10.555   9.151   5.551  0.7600  0.5745 -0.2719
  280MOL0     H37795  10.399   9.141   5.629  1.7299 -1.0298  0.2180
  280MOL0     H37796  10.336   9.369   5.575 -0.5486  0.1056  0.6492
  280MOL0     H37797  10.494   9.399   5.488  1.8342 -0.8631  0.7231
  280MOL0     H37798  10.556   9.364   5.921 -0.0461  0.2224 -0.9189
  280MOL0     H37799  10.459   8.876   5.298 -3.6472 -1.9578  2.5576
  280MOL0     H37800  10.372   8.685   5.246 -0.4272 -0.1379 -0.2648
  281MOL0     O37801  11.259   9.250   7.092 -0.9018 -0.4515  0.2349
  281MOL0     C37802  11.185   9.283   7.181 -0.2104 -0.0737 -0.0456
  281MOL0     O37803  11.190   9.238   7.317  0.0084 -0.1146  0.6206
  281MOL0     C37804  11.282   9.139   7.342 -0.2155  0.2912 -0.3292
  281MOL0     C37805  11.362   9.155   7.461  0.1960  0.1351 -0.5035
  281MOL0     C37806  11.460   9.066   7.491 -0.9030  0.8584 -0.6003
  281MOL0     C37807  11.491   8.950   7.408 -0.2175 -0.6442  0.2637
  281MOL0     O37808  11.599   8.870   7.438  0.3638  1.2059  0.0188
  281MOL0     C37809  11.584   8.727   7.432  0.2160  0.0596 -0.4022
  281MOL0     C37810  11.703   8.669   7.504  0.5450 -0.2786  0.0014
  281MOL0     C37811  11.724   8.744   7.636 -0.5632 -0.2430  0.1766
  281MOL0     C37812  11.872   8.721   7.685 -0.1236 -0.1596  0.4327
  281MOL0     C37813  11.884   8.776   7.830 -0.2529  0.3194 -0.0043
  281MOL0     C37814  11.990   8.697   7.906 -0.4042  0.6033  0.2008
  281MOL0     C37815  11.995   8.732   8.044 -0.4190 -0.3423  0.7184
  281MOL0     C37816  12.111   8.657   8.120 -0.6878  0.4665 -0.2794
  281MOL0     N37817  12.111   8.677   8.263 -0.7673 -0.3106 -0.2211
  281MOL0     C37818  12.029   8.764   8.329 -0.3033  0.1755  0.3357
  281MOL0     C37819  12.076   8.760   8.456  0.4614 -0.2873  0.2213
  281MOL0     C37820  12.020   8.829   8.579 -0.3274  0.7007 -0.0696
  281MOL0     C37821  11.870   8.808   8.595  0.0064  0.5616 -0.0652
  281MOL0     C37822  11.809   8.914   8.675 -0.2286 -0.0827  0.6253
  281MOL0     C37823  11.669   8.938   8.624  0.2496  0.6373 -0.2886
  281MOL0     O37824  11.609   9.062   8.677  0.5370  0.2094  0.1215
  281MOL0     C37825  11.475   9.082   8.656  0.7383 -0.6248 -0.7192
  281MOL0     C37826  11.373   8.972   8.665 -1.1781  0.8031  1.1059
  281MOL0     C37827  11.237   8.998   8.644  0.3906  0.1427  0.3281
  281MOL0     C37828  11.138   8.885   8.658  0.8597 -0.2920 -0.0437
  281MOL0     C37829  11.201   9.134   8.622  0.4333 -0.6734 -0.2297
  281MOL0     C37830  11.061   9.175   8.623 -0.6376 -1.7425 -0.8909
  281MOL0     O37831  11.044   9.300   8.554  0.2230  0.9598  0.3321
  281MOL0     C37832  10.916   9.338   8.529  0.1630  1.0815 -0.3869
  281MOL0     C37833  10.828   9.400   8.629 -0.8961  0.7488 -0.0253
  281MOL0     C37834  10.686   9.400   8.603  0.4961  0.0828  0.4567
  281MOL0     C37835  10.628   9.350   8.488  0.0866  0.6128 -0.1375
  281MOL0     O37836  10.493   9.344   8.464  0.0141 -0.1708  0.4688
  281MOL0     C37837  10.420   9.469   8.467  0.0111  0.0559 -0.0875
  281MOL0     C37838  10.407   9.514   8.324  0.2094  0.0977  1.3005
  281MOL0     C37839  10.308   9.425   8.245 -0.0439  0.0002  0.3425
  281MOL0     C37840  10.284   9.459   8.100  0.4466 -0.4505  0.2664
  281MOL0     C37841  10.189   9.372   8.026 -0.4240 -0.2696  0.9296
  281MOL0     C37842  10.054   9.339   8.089 -0.2937  0.1822  0.4137
  281MOL0     C37843   9.940   9.445   8.096  0.1928  0.5379  0.4711
  281MOL0     C37844   9.901   9.510   7.965 -0.2826  0.2862  0.2040
  281MOL0    Cl37845   9.865   9.390   7.841  0.0907 -0.3805 -0.7276
  281MOL0     C37846  10.711   9.302   8.395  0.4194  0.5175  0.2958
  281MOL0     C37847  10.848   9.293   8.413  0.0995  0.3684  0.5906
  281MOL0     O37848  10.977   9.131   8.698  0.4654  0.9144  0.2034
  281MOL0     C37849  11.306   9.237   8.607 -0.2030 -0.3935  0.0894
  281MOL0     C37850  11.438   9.210   8.628 -0.3342 -0.9147 -0.1443
  281MOL0     N37851  12.175   8.664   8.471 -0.6968  0.0338  0.7117
  281MOL0     N37852  12.196   8.618   8.352  0.1248 -0.2797  1.0228
  281MOL0     C37853  11.413   8.934   7.296  1.1977  0.1941  0.5759
  281MOL0     C37854  11.304   9.027   7.265  0.0562  0.2148  0.3159
  281MOL0     C37855  11.058   9.359   7.153 -0.8597 -0.9350  0.4201
  281MOL0     C37856  11.035   9.404   7.019  0.4071  0.3070 -0.3154
  281MOL0     C37857  10.922   9.476   6.984  0.4054 -0.2400  0.1844
  281MOL0     C37858  10.829   9.506   7.087  0.6332  0.0327  0.1548
  281MOL0     O37859  10.715   9.579   7.057  0.2620  0.3269  0.1422
  281MOL0     C37860  10.696   9.611   6.918 -0.3592  0.1820  0.7374
  281MOL0     C37861  10.575   9.707   6.898 -0.0517  0.3143  0.0803
  281MOL0     C37862  10.529   9.725   6.759 -0.1652  0.5054  0.0564
  281MOL0     C37863  10.448   9.850   6.734 -0.9812  1.0324  0.4013
  281MOL0     C37864  10.409   9.857   6.595  0.1391  1.0793  0.0241
  281MOL0     C37865  10.369   9.840   6.483  1.1126  0.0834 -0.5505
  281MOL0     C37866  10.852   9.465   7.214  1.2353 -0.3556 -0.1048
  281MOL0     C37867  10.970   9.399   7.247 -0.1066  1.1670 -0.0026
  281MOL0     H37868  11.329   9.232   7.531 -1.3594 -0.7586 -0.1991
  281MOL0     H37869  11.514   9.089   7.582  0.0283  1.8681 -1.3943
  281MOL0     H37870  11.491   8.686   7.473  0.9438 -2.6092 -1.2365
  281MOL0     H37871  11.582   8.689   7.329 -2.8258  2.0326 -1.2030
  281MOL0     H37872  11.687   8.561   7.512 -0.9233 -0.3121 -2.2355
  281MOL0     H37873  11.795   8.679   7.447  0.4211 -0.5920 -0.2638
  281MOL0     H37874  11.709   8.852   7.628  1.8602 -0.0235 -3.7986
  281MOL0     H37875  11.654   8.707   7.712 -1.3051 -1.2067 -0.9554
  281MOL0     H37876  11.893   8.614   7.680  1.0949  0.1049 -0.5020
  281MOL0     H37877  11.947   8.762   7.617 -2.2943  2.1039 -0.7824
  281MOL0     H37878  11.906   8.883   7.835 -0.1233  0.2345  2.0365
  281MOL0     H37879  11.791   8.757   7.885  1.9583 -1.6552  3.3498
  281MOL0     H37880  11.965   8.592   7.890 -0.2790  0.3392  1.6373
  281MOL0     H37881  12.087   8.715   7.859  0.9287 -1.9324  1.7403
  281MOL0     H37882  12.003   8.841   8.051  0.1768 -0.2708 -0.8517
  281MOL0     H37883  11.898   8.708   8.090 -1.3792  0.4452 -0.7890
  281MOL0     H37884  12.204   8.696   8.078 -0.5059  0.4921  0.1429
  281MOL0     H37885  12.102   8.551   8.095  1.7081  0.4267 -1.1973
  281MOL0     H37886  11.951   8.823   8.281  1.0233  1.2279 -0.6085
  281MOL0     H37887  12.061   8.787   8.671  0.8359 -0.7405 -1.2003
  281MOL0     H37888  12.044   8.935   8.575 -3.7407  1.6002  0.0783
  281MOL0     H37889  11.854   8.712   8.645 -1.2068  1.0933  0.6188
  281MOL0     H37890  11.828   8.803   8.494 -1.0104  0.5367  0.3438
  281MOL0     H37891  11.874   9.003   8.674  2.6027 -2.0145 -0.1769
  281MOL0     H37892  11.808   8.889   8.781 -1.6718  0.9608  0.8869
  281MOL0     H37893  11.607   8.849   8.642 -0.6501  0.8534 -2.0753
  281MOL0     H37894  11.663   8.954   8.516 -2.0291  0.3323 -0.2544
  281MOL0     H37895  11.415   8.875   8.687  2.1624  2.0742  0.8884
  281MOL0     H37896  11.074   8.886   8.746  3.5308  0.3781  2.0107
  281MOL0     H37897  11.076   8.879   8.567  0.4759  1.2971  0.0904
  281MOL0     H37898  11.188   8.788   8.658  1.2293 -0.1391 -1.5457
  281MOL0     H37899  10.860   9.446   8.723 -0.0814 -2.6353  1.4852
  281MOL0     H37900  10.620   9.442   8.678 -3.1548  1.7488 -3.2747
  281MOL0     H37901  10.322   9.453   8.513  0.1498  1.7378  0.8871
  281MOL0     H37902  10.463   9.555   8.520 -2.7112  2.1088 -0.9516
  281MOL0     H37903  10.381   9.620   8.321  2.1067  0.5754 -0.1285
  281MOL0     H37904  10.501   9.505   8.269 -1.4225  1.3572 -2.0154
  281MOL0     H37905  10.214   9.424   8.302 -0.2265 -0.9608  0.0484
  281MOL0     H37906  10.356   9.327   8.255  3.0159  1.4329  0.9373
  281MOL0     H37907  10.245   9.561   8.098  1.5372 -0.0170  0.2212
  281MOL0     H37908  10.373   9.477   8.038  0.0964 -0.2429 -0.1826
  281MOL0     H37909  10.237   9.278   7.996 -1.8239 -0.5377 -0.5983
  281MOL0     H37910  10.172   9.418   7.928 -1.9551 -1.5613  0.5418
  281MOL0     H37911  10.011   9.256   8.033 -0.2357  0.2724  0.2373
  281MOL0     H37912  10.066   9.297   8.189 -0.3694 -2.6839 -0.7033
  281MOL0     H37913   9.969   9.525   8.164  0.8304  1.2287 -0.5766
  281MOL0     H37914   9.855   9.394   8.141 -0.5217  2.7744  1.7868
  281MOL0     H37915   9.991   9.559   7.925 -0.7414 -0.2361 -1.5727
  281MOL0     H37916   9.814   9.576   7.970 -0.5571 -0.1863  3.1395
  281MOL0     H37917  10.665   9.258   8.307 -0.5264 -1.5448  1.7507
  281MOL0     H37918  10.916   9.241   8.347  1.7055 -0.7670  3.0008
  281MOL0     H37919  11.287   9.338   8.574  0.3035  0.1052  1.2907
  281MOL0     H37920  11.523   9.277   8.629  0.0347 -1.2418 -3.1239
  281MOL0     H37921  11.439   8.860   7.222 -1.4132 -2.6807  2.2718
  281MOL0     H37922  11.232   9.006   7.186 -0.0345 -1.2036  0.7337
  281MOL0     H37923  11.099   9.380   6.934  0.1667 -1.0572 -0.1265
  281MOL0     H37924  10.918   9.506   6.880  2.7519  1.1813  0.4323
  281MOL0     H37925  10.785   9.665   6.887  1.7363 -1.6087  3.1797
  281MOL0     H37926  10.675   9.518   6.863  0.3670 -0.3792  1.3838
  281MOL0     H37927  10.596   9.808   6.935  1.1641 -0.2659  1.0507
  281MOL0     H37928  10.494   9.658   6.953  0.9419 -1.5686 -0.0787
  281MOL0     H37929  10.471   9.638   6.727  2.4768 -1.6762  0.9198
  281MOL0     H37930  10.622   9.730   6.702  0.4893  1.5246  1.1763
  281MOL0     H37931  10.509   9.935   6.764  1.3932 -0.6891  0.7985
  281MOL0     H37932  10.363   9.850   6.803 -0.9187  1.7087  0.4808
  281MOL0     H37933  10.324   9.798   6.395 -0.7824  0.3296  0.2409
  281MOL0     H37934  10.777   9.493   7.287  1.3453 -1.5987  0.5019
  281MOL0     H37935  10.991   9.361   7.346  0.4186 -2.3771 -1.3127
  282MOL0     O37936   8.556   2.502  11.196 -0.0374 -0.4697 -1.2048
  282MOL0     C37937   8.486   2.484  11.300  0.4467  0.9879  0.6047
  282MOL0     O37938   8.508   2.533  11.425 -0.3623  0.6991 -0.2321
  282MOL0     C37939   8.612   2.615  11.455 -0.0162 -0.1079 -0.0078
  282MOL0     C37940   8.610   2.653  11.593  0.4582  0.3732 -0.1544
  282MOL0     C37941   8.709   2.728  11.647 -0.1616  0.4561 -0.2165
  282MOL0     C37942   8.819   2.780  11.577 -0.3328 -0.3308  0.0265
  282MOL0     O37943   8.898   2.877  11.640 -0.2023  0.8130 -0.1260
  282MOL0     C37944   8.948   2.991  11.564  0.7918 -0.2920  0.7751
  282MOL0     C37945   8.925   3.120  11.649  0.4496  1.2265  0.4611
  282MOL0     C37946   8.926   3.253  11.573 -0.4276  0.3363  0.2642
  282MOL0     C37947   9.065   3.328  11.586 -0.7979  0.6605  0.8480
  282MOL0     C37948   9.094   3.401  11.710 -0.4478 -0.3671 -0.2107
  282MOL0     C37949   8.978   3.501  11.757 -0.4087 -0.8278  0.4464
  282MOL0     C37950   8.990   3.514  11.907 -0.0095 -0.0207 -0.3190
  282MOL0     C37951   9.086   3.625  11.944  0.1030 -0.1608 -0.7666
  282MOL0     N37952   9.224   3.627  11.907  1.5929 -0.8116  0.1698
  282MOL0     C37953   9.322   3.622  11.994 -0.2071 -0.6986  0.8432
  282MOL0     C37954   9.434   3.665  11.931  0.4548 -0.0347 -0.9381
  282MOL0     C37955   9.570   3.683  11.991  1.0901 -0.2422 -0.2940
  282MOL0     C37956   9.625   3.549  12.041 -0.4385  0.5660 -0.1935
  282MOL0     C37957   9.773   3.540  12.024  0.3005  0.1888  0.4409
  282MOL0     C37958   9.813   3.393  12.049 -0.0974 -0.7587 -0.1466
  282MOL0     O37959   9.785   3.367  12.188  0.6371  0.3632 -0.3876
  282MOL0     C37960   9.787   3.234  12.236  0.9716  0.8669  0.7318
  282MOL0     C37961   9.863   3.133  12.179  0.1838  0.3213 -0.1008
  282MOL0     C37962   9.879   3.019  12.252  0.1201 -0.0866  0.4797
  282MOL0     C37963   9.999   2.937  12.197 -0.9516  0.5859 -0.3815
  282MOL0     C37964   9.794   2.980  12.354  0.0878 -0.0677  0.8597
  282MOL0     C37965   9.789   2.847  12.413  0.3448 -0.9914 -0.0953
  282MOL0     O37966   9.764   2.848  12.548 -0.3263  0.9384  0.2030
  282MOL0     C37967   9.713   2.739  12.607 -0.2145 -0.3415  1.4654
  282MOL0     C37968   9.619   2.647  12.552 -0.1926 -0.0967  0.3321
  282MOL0     C37969   9.571   2.545  12.634 -0.0875  0.1152 -0.7336
  282MOL0     C37970   9.619   2.521  12.757  1.0073  0.1486  0.3919
  282MOL0     O37971   9.583   2.405  12.823  0.5684 -0.7164 -0.1273
  282MOL0     C37972   9.566   2.426  12.964 -0.6007  0.1995  0.2261
  282MOL0     C37973   9.536   2.293  13.035 -0.1844  0.7627 -0.1422
  282MOL0     C37974   9.505   2.309  13.186 -0.5328 -0.0537  0.5123
  282MOL0     C37975   9.521   2.175  13.253  0.6683  0.3963  0.1167
  282MOL0     C37976   9.536   2.188  13.413 -0.0611 -0.0709  0.2823
  282MOL0     C37977   9.532   2.054  13.479  0.1064  0.1549  1.2499
  282MOL0     C37978   9.649   1.959  13.441  0.0833 -0.7282 -0.7386
  282MOL0     C37979   9.646   1.829  13.528 -0.3685  0.4286  0.5342
  282MOL0    Cl37980   9.551   1.699  13.456 -0.1662  0.0417  0.5008
  282MOL0     C37981   9.695   2.626  12.819 -1.2575  0.3540  0.0744
  282MOL0     C37982   9.730   2.738  12.742  0.2680  0.0370 -0.5718
  282MOL0     O37983   9.789   2.752  12.337  0.5264 -0.8469 -0.8658
  282MOL0     C37984   9.704   3.071  12.405 -0.6632  0.1798  0.0470
  282MOL0     C37985   9.702   3.198  12.348 -0.5523 -0.2687  0.2297
  282MOL0     N37986   9.394   3.673  11.795 -0.4445 -0.6302  0.3908
  282MOL0     N37987   9.271   3.660  11.788  0.5992  0.7550  0.6326
  282MOL0     C37988   8.833   2.739  11.445 -0.2650  0.1948 -0.1747
  282MOL0     C37989   8.731   2.657  11.379 -0.8400  0.2670  0.5783
  282MOL0     C37990   8.380   2.384  11.300 -1.0766 -0.4349  0.2925
  282MOL0     C37991   8.402   2.266  11.217 -0.4940 -1.8827 -0.1009
  282MOL0     C37992   8.301   2.167  11.209 -0.0753 -0.4947 -1.1225
  282MOL0     C37993   8.178   2.178  11.278  0.7087 -0.3052  0.9645
  282MOL0     O37994   8.084   2.071  11.276 -0.3521 -0.2909  0.4658
  282MOL0     C37995   7.990   2.068  11.381  0.3149 -0.1831 -0.0151
  282MOL0     C37996   7.983   1.914  11.416  0.3048 -0.1687  0.8746
  282MOL0     C37997   7.880   1.874  11.521  0.3461  0.1950  0.3136
  282MOL0     C37998   7.933   1.839  11.659 -0.5071 -0.3688 -0.3242
  282MOL0     C37999   7.825   1.817  11.755 -1.1542  0.2575 -0.0570
  282MOL0     C38000   7.738   1.793  11.837  0.0820 -0.0182 -0.2629
  282MOL0     C38001   8.161   2.298  11.354 -0.2835 -0.3432  0.3476
  282MOL0     C38002   8.256   2.396  11.366 -0.2433 -0.3887 -0.1198
  282MOL0     H38003   8.529   2.616  11.655  1.9207 -1.9800  0.4951
  282MOL0     H38004   8.704   2.761  11.750 -0.9157  0.0803 -0.1307
  282MOL0     H38005   9.056   2.973  11.554  1.2735  2.4627  0.0966
  282MOL0     H38006   8.899   3.007  11.467  0.4150 -0.6336  0.9037
  282MOL0     H38007   8.827   3.096  11.690 -0.1493 -0.5365 -1.7972
  282MOL0     H38008   8.993   3.131  11.734 -1.1805  0.9276  1.8460
  282MOL0     H38009   8.910   3.236  11.466 -0.6060 -2.1358  0.6119
  282MOL0     H38010   8.847   3.320  11.607  1.1386  1.0155  2.7726
  282MOL0     H38011   9.142   3.257  11.557 -1.5167 -0.2607  1.1275
  282MOL0     H38012   9.066   3.399  11.503 -1.2554  0.2657  0.4988
  282MOL0     H38013   9.120   3.327  11.786  0.8273 -0.0855 -0.3473
  282MOL0     H38014   9.186   3.453  11.683 -2.6325  3.7321 -0.4678
  282MOL0     H38015   8.976   3.598  11.706  0.8897  0.5436  2.8010
  282MOL0     H38016   8.879   3.463  11.730  0.2507 -2.3609  0.1347
  282MOL0     H38017   8.900   3.551  11.959  0.2803 -0.9281  0.8800
  282MOL0     H38018   9.008   3.415  11.949 -0.0165 -1.4225 -3.3564
  282MOL0     H38019   9.094   3.622  12.053 -0.0749  0.3900 -0.7324
  282MOL0     H38020   9.042   3.718  11.905 -4.9928 -1.2198  1.5351
  282MOL0     H38021   9.317   3.589  12.097  1.0287 -1.1190  0.7821
  282MOL0     H38022   9.631   3.733  11.916  2.6572 -0.5681  0.7194
  282MOL0     H38023   9.559   3.748  12.079 -0.6585  1.0954 -1.4246
  282MOL0     H38024   9.591   3.466  11.978  2.6217  0.0455 -1.3499
  282MOL0     H38025   9.605   3.524  12.146  0.1540 -0.3140 -0.2712
  282MOL0     H38026   9.820   3.615  12.090  0.7363 -0.2553  0.6405
  282MOL0     H38027   9.801   3.566  11.922 -0.0561  0.7264  0.4732
  282MOL0     H38028   9.917   3.373  12.025  1.7432  3.3373  3.1393
  282MOL0     H38029   9.751   3.326  11.988  1.6796 -1.9951 -0.6629
  282MOL0     H38030   9.921   3.153  12.089 -1.6915  0.2412 -1.3659
  282MOL0     H38031  10.029   2.866  12.275 -0.9867  0.3752 -0.5581
  282MOL0     H38032   9.971   2.883  12.107  2.4206  3.2730 -3.3591
  282MOL0     H38033  10.078   3.010  12.176 -1.3108  1.2624  0.5185
  282MOL0     H38034   9.580   2.655  12.451 -2.6472  1.1865  1.2929
  282MOL0     H38035   9.501   2.474  12.591 -0.4254 -1.4361  2.1284
  282MOL0     H38036   9.664   2.461  12.998 -0.2054  0.8739 -1.4882
  282MOL0     H38037   9.501   2.512  12.986 -1.6306 -1.0424  2.3227
  282MOL0     H38038   9.451   2.251  12.981 -1.7705  1.3803  1.7716
  282MOL0     H38039   9.617   2.223  13.014  2.1151  3.7355 -1.9778
  282MOL0     H38040   9.414   2.369  13.201 -1.5663 -1.3309 -0.3951
  282MOL0     H38041   9.574   2.383  13.228 -3.0619  2.0656  1.2513
  282MOL0     H38042   9.444   2.103  13.224 -3.1692  2.7782  3.3259
  282MOL0     H38043   9.610   2.124  13.215 -0.3567 -1.7967  0.5064
  282MOL0     H38044   9.444   2.245  13.435 -1.0064  0.2833 -3.7752
  282MOL0     H38045   9.631   2.238  13.432  1.8985 -3.1391 -0.6981
  282MOL0     H38046   9.513   2.068  13.586 -0.1038  0.3017  1.1927
  282MOL0     H38047   9.445   1.996  13.449  0.6506 -0.2503  0.4129
  282MOL0     H38048   9.738   2.013  13.473  0.3259 -0.3300 -2.0117
  282MOL0     H38049   9.664   1.949  13.333 -1.1454  1.3390 -1.1473
  282MOL0     H38050   9.601   1.855  13.624  0.5510  0.5125  0.9607
  282MOL0     H38051   9.746   1.792  13.554 -0.9019 -1.0443  0.5755
  282MOL0     H38052   9.745   2.611  12.915  2.1372  0.5668 -1.5027
  282MOL0     H38053   9.784   2.813  12.798 -1.7995  1.3508 -0.2466
  282MOL0     H38054   9.634   3.056  12.487  0.6954  3.5055  2.0295
  282MOL0     H38055   9.634   3.274  12.385  1.1855  0.5666  1.7947
  282MOL0     H38056   8.920   2.773  11.389 -0.0354  3.4820  1.8750
  282MOL0     H38057   8.747   2.625  11.276  1.6673 -2.1373  1.5928
  282MOL0     H38058   8.490   2.255  11.154 -1.6153  1.6600 -2.5886
  282MOL0     H38059   8.316   2.075  11.153 -1.7084 -1.1953 -0.4726
  282MOL0     H38060   8.032   2.112  11.473  0.5780  0.3743 -0.3978
  282MOL0     H38061   7.894   2.110  11.351 -0.4578 -2.2468 -0.6072
  282MOL0     H38062   8.087   1.894  11.445  1.2944 -0.6586 -2.5501
  282MOL0     H38063   7.963   1.862  11.322  0.8743 -2.5407  1.9962
  282MOL0     H38064   7.829   1.782  11.494 -1.6420  1.1875  0.4896
  282MOL0     H38065   7.807   1.955  11.534  0.8384  0.5058  1.2441
  282MOL0     H38066   7.994   1.923  11.692 -3.7769  2.7758 -1.6177
  282MOL0     H38067   8.000   1.753  11.651  0.0519  0.1098 -0.9454
  282MOL0     H38068   7.657   1.775  11.906 -0.0969 -1.3579 -0.7865
  282MOL0     H38069   8.075   2.315  11.417 -1.2365 -0.6446 -0.8310
  282MOL0     H38070   8.247   2.480  11.435 -2.6353  0.0245 -0.8535
  283MOL0     O38071   9.574   0.262   2.225  0.0527  0.5482  0.4747
  283MOL0     C38072   9.683   0.296   2.182  0.7181  0.6908 -0.5706
  283MOL0     O38073   9.729   0.421   2.175  0.1297 -0.2919  0.6061
  283MOL0     C38074   9.652   0.527   2.208 -0.7749 -0.7345 -0.1187
  283MOL0     C38075   9.586   0.517   2.327  0.5016 -0.4520 -1.0302
  283MOL0     C38076   9.524   0.626   2.382 -0.5060  0.5198  0.4051
  283MOL0     C38077   9.511   0.748   2.320 -0.1486  0.6191  0.7155
  283MOL0     O38078   9.428   0.842   2.373  0.4342 -0.9392 -0.1407
  283MOL0     C38079   9.433   0.976   2.336  0.5307  0.5507 -0.0277
  283MOL0     C38080   9.324   1.056   2.419  0.5303 -0.0128  0.7386
  283MOL0     C38081   9.362   1.055   2.565  0.5098 -0.8275 -0.2194
  283MOL0     C38082   9.374   1.207   2.625 -1.2582 -0.3024 -0.0623
  283MOL0     C38083   9.440   1.205   2.760  1.0312  0.3665 -0.5954
  283MOL0     C38084   9.594   1.203   2.752 -0.0735  0.0146 -0.0016
  283MOL0     C38085   9.644   1.103   2.858  0.0185 -0.0548 -0.0884
  283MOL0     C38086   9.788   1.065   2.850  0.0134  0.3206  0.5789
  283MOL0     N38087   9.857   1.174   2.913 -0.3056 -0.1820  0.2644
  283MOL0     C38088   9.866   1.174   3.050  0.8289  0.1411  0.1690
  283MOL0     C38089   9.957   1.269   3.069 -0.3628  0.0686  0.6629
  283MOL0     C38090  10.009   1.319   3.192 -0.2250 -0.2727 -0.8304
  283MOL0     C38091   9.917   1.428   3.235 -0.1249 -0.4043 -0.0893
  283MOL0     C38092   9.955   1.492   3.369 -0.2919  0.4963 -0.0454
  283MOL0     C38093   9.957   1.395   3.486  0.2627 -0.5214 -0.0147
  283MOL0     O38094   9.975   1.465   3.611  0.1482  0.4669  0.0134
  283MOL0     C38095  10.105   1.485   3.662 -0.3823  0.4818 -0.2406
  283MOL0     C38096  10.218   1.489   3.588 -0.9169 -0.1510  0.3647
  283MOL0     C38097  10.346   1.510   3.638 -0.5434  0.2675 -0.6298
  283MOL0     C38098  10.458   1.526   3.539  0.3875 -0.4977 -0.2695
  283MOL0     C38099  10.365   1.528   3.776 -0.8923  0.1035  0.7153
  283MOL0     C38100  10.497   1.537   3.830  0.5128 -0.8000 -0.6965
  283MOL0     O38101  10.546   1.655   3.847  0.6840 -0.3152  0.2067
  283MOL0     C38102  10.662   1.680   3.918 -0.9575  0.0344  0.0175
  283MOL0     C38103  10.790   1.687   3.857  0.7345  1.1408 -0.1594
  283MOL0     C38104  10.904   1.713   3.929  0.0540  0.6005 -1.0843
  283MOL0     C38105  10.894   1.748   4.060 -0.0416 -0.1782  0.6270
  283MOL0     O38106  11.016   1.778   4.118  0.1899 -0.0647  0.0623
  283MOL0     C38107  11.094   1.689   4.192  0.4908 -0.1911 -0.5083
  283MOL0     C38108  11.209   1.767   4.252 -0.5980  0.4443 -0.0291
  283MOL0     C38109  11.336   1.684   4.256 -0.2224 -0.4980 -0.3092
  283MOL0     C38110  11.450   1.748   4.326 -1.3518  0.3743  0.0502
  283MOL0     C38111  11.583   1.691   4.280  0.5715  0.0648 -0.1575
  283MOL0     C38112  11.695   1.753   4.376 -0.7498  0.1104  0.1364
  283MOL0     C38113  11.831   1.680   4.376 -0.4193  0.5227  0.1681
  283MOL0     C38114  11.830   1.542   4.432  0.4894  0.0625 -0.1331
  283MOL0    Cl38115  11.993   1.489   4.460  0.2510  0.0001  0.1447
  283MOL0     C38116  10.777   1.735   4.129  0.7469  0.7025 -0.3607
  283MOL0     C38117  10.657   1.699   4.059 -0.3595 -1.6066  0.1446
  283MOL0     O38118  10.561   1.431   3.850 -0.1190 -0.4705  0.0122
  283MOL0     C38119  10.249   1.516   3.859 -0.6624 -0.7742  0.4228
  283MOL0     C38120  10.128   1.490   3.799  0.3135 -0.3895  0.3236
  283MOL0     N38121  10.000   1.324   2.954  0.8207  0.3621 -1.0435
  283MOL0     N38122   9.928   1.271   2.863  0.0055 -1.2206 -0.1655
  283MOL0     C38123   9.567   0.756   2.194 -0.2792  0.6661  0.2613
  283MOL0     C38124   9.637   0.646   2.130 -0.1611 -0.6760  0.5368
  283MOL0     C38125   9.763   0.199   2.113 -1.1425  0.9980  0.6025
  283MOL0     C38126   9.875   0.237   2.042 -0.0535 -0.2450 -0.8993
  283MOL0     C38127   9.948   0.135   1.963  0.7326 -0.4498 -0.5818
  283MOL0     C38128   9.913   0.005   1.957 -0.0571 -0.1643  1.1409
  283MOL0     O38129   9.992  -0.086   1.889  0.4652  0.0062 -0.0640
  283MOL0     C38130   9.944  -0.219   1.895 -0.9166 -1.1628  0.5165
  283MOL0     C38131  10.035  -0.304   1.804 -0.4515 -0.2480 -0.8396
  283MOL0     C38132  10.015  -0.267   1.654 -0.5614 -0.2254 -0.0663
  283MOL0     C38133  10.100  -0.350   1.555  0.3344 -0.2006  1.1980
  283MOL0     C38134  10.237  -0.304   1.557 -0.0975 -0.3732  0.0388
  283MOL0     C38135  10.355  -0.272   1.545  0.8293  0.1939  0.4198
  283MOL0     C38136   9.792  -0.031   2.018 -0.4983 -0.9872 -0.2389
  283MOL0     C38137   9.717   0.062   2.091  0.0011 -0.5540 -0.5384
  283MOL0     H38138   9.594   0.439   2.402  2.0144  0.9334  0.3167
  283MOL0     H38139   9.493   0.622   2.486 -0.7517 -1.4248  0.2917
  283MOL0     H38140   9.536   1.011   2.346  0.7492  0.1727 -0.8975
  283MOL0     H38141   9.408   0.988   2.231 -1.6203 -2.6419 -0.0308
  283MOL0     H38142   9.336   1.158   2.382  1.7994  0.2411  1.7772
  283MOL0     H38143   9.230   1.007   2.389  2.3654 -1.2564 -3.8577
  283MOL0     H38144   9.282   0.995   2.609 -0.7377 -0.3612 -1.7777
  283MOL0     H38145   9.462   1.012   2.578  0.0668 -2.2671 -1.2854
  283MOL0     H38146   9.424   1.274   2.554 -1.0969 -1.0354 -0.6525
  283MOL0     H38147   9.276   1.255   2.635  1.4882  6.8301 -1.4217
  283MOL0     H38148   9.422   1.304   2.805 -1.6067  0.3307 -1.4279
  283MOL0     H38149   9.397   1.127   2.823 -0.1473  1.3919 -0.0812
  283MOL0     H38150   9.626   1.172   2.652 -1.1071  0.8303 -0.6011
  283MOL0     H38151   9.627   1.306   2.771  0.8336 -0.4793  1.2068
  283MOL0     H38152   9.628   1.154   2.953 -0.6110  0.7082 -0.5890
  283MOL0     H38153   9.580   1.014   2.854  1.1513 -0.9218  0.5496
  283MOL0     H38154   9.827   1.054   2.748  2.2571 -2.9863  1.6194
  283MOL0     H38155   9.796   0.971   2.905  0.5064  0.3991  0.6443
  283MOL0     H38156   9.830   1.101   3.122  1.7009 -0.3979  0.0719
  283MOL0     H38157  10.016   1.242   3.270  2.9269  2.0188  1.4185
  283MOL0     H38158  10.104   1.367   3.167 -1.7800  2.9049 -1.1616
  283MOL0     H38159   9.814   1.391   3.235 -0.3256  0.0594  1.6300
  283MOL0     H38160   9.930   1.506   3.159 -1.2492  1.5339  1.5942
  283MOL0     H38161   9.879   1.569   3.387 -0.0760  0.2772  2.0225
  283MOL0     H38162  10.045   1.554   3.362  1.7731 -2.3926 -0.8072
  283MOL0     H38163  10.053   1.344   3.478  0.8249  0.3072  1.1198
  283MOL0     H38164   9.875   1.323   3.481 -0.5711  0.4233 -0.6322
  283MOL0     H38165  10.211   1.472   3.481  2.3057 -0.8295  0.1621
  283MOL0     H38166  10.556   1.558   3.575  0.1986 -0.7262  0.4472
  283MOL0     H38167  10.459   1.435   3.479  1.6944 -0.4288 -0.3822
  283MOL0     H38168  10.429   1.613   3.477 -0.2923  1.2660  2.3566
  283MOL0     H38169  10.810   1.662   3.753  3.3371  0.3957  0.4380
  283MOL0     H38170  10.996   1.718   3.871 -0.0676  0.0160 -1.3349
  283MOL0     H38171  11.035   1.644   4.273  1.3614  2.0095  1.4435
  283MOL0     H38172  11.126   1.602   4.134 -3.8610 -2.9429  0.6853
  283MOL0     H38173  11.246   1.844   4.183  0.8277  0.3663  0.6180
  283MOL0     H38174  11.190   1.812   4.350  1.4136  0.3849  0.4391
  283MOL0     H38175  11.366   1.648   4.157 -0.1127 -1.0585 -0.0766
  283MOL0     H38176  11.306   1.592   4.307  0.1535 -0.2015  0.4503
  283MOL0     H38177  11.459   1.853   4.297  4.6915  0.1866  0.0022
  283MOL0     H38178  11.436   1.735   4.434 -2.0919  1.4375  0.0901
  283MOL0     H38179  11.603   1.721   4.176 -1.8395  3.1780  0.0942
  283MOL0     H38180  11.582   1.582   4.290 -0.1575 -0.6038 -4.9907
  283MOL0     H38181  11.709   1.853   4.334 -2.6251  1.5041  2.5132
  283MOL0     H38182  11.653   1.773   4.475 -0.4147  1.8546 -0.0503
  283MOL0     H38183  11.907   1.738   4.429  0.8869 -2.3263  1.6413
  283MOL0     H38184  11.864   1.674   4.271 -0.2968 -4.1143  0.2817
  283MOL0     H38185  11.772   1.472   4.371 -1.3782  0.4880  1.0736
  283MOL0     H38186  11.788   1.540   4.533  1.8279  0.4047  0.4454
  283MOL0     H38187  10.773   1.750   4.236  1.1448  1.2417 -0.4149
  283MOL0     H38188  10.562   1.703   4.110  0.5080  1.0577  1.7538
  283MOL0     H38189  10.272   1.524   3.965  0.1460 -0.5054  0.2313
  283MOL0     H38190  10.038   1.502   3.859  0.2280  2.9382 -0.2901
  283MOL0     H38191   9.575   0.850   2.140  1.1520 -0.5517 -1.8015
  283MOL0     H38192   9.690   0.659   2.036 -1.3063 -1.8518 -0.3126
  283MOL0     H38193   9.922   0.331   2.066 -1.8934  0.5417 -0.2098
  283MOL0     H38194  10.033   0.168   1.904  2.6237 -0.2295  2.1181
  283MOL0     H38195   9.948  -0.262   1.995 -0.0824 -1.4916  0.3495
  283MOL0     H38196   9.839  -0.228   1.867 -1.3692 -1.6280  2.2879
  283MOL0     H38197  10.014  -0.406   1.837 -3.5025  0.6999  0.5464
  283MOL0     H38198  10.138  -0.283   1.834 -1.1337  0.9833  0.8026
  283MOL0     H38199  10.051  -0.164   1.644  2.4439 -0.9806  1.6972
  283MOL0     H38200   9.908  -0.278   1.632 -0.4078 -0.7325 -0.5598
  283MOL0     H38201  10.063  -0.343   1.452  0.6826 -3.3002  0.7689
  283MOL0     H38202  10.084  -0.457   1.569 -2.2863  0.1243  1.1493
  283MOL0     H38203  10.458  -0.249   1.529  0.5807  1.0637  0.0271
  283MOL0     H38204   9.746  -0.129   2.013 -1.1605 -0.8255  1.7463
  283MOL0     H38205   9.622   0.028   2.132  0.3536 -0.3361  0.4871
  284MOL0     O38206   3.893   5.574   4.225  0.6698 -0.3720  0.2669
  284MOL0     C38207   3.994   5.535   4.168  0.1965 -0.1654 -0.0918
  284MOL0     O38208   4.004   5.426   4.082 -0.3394 -0.6354 -0.0534
  284MOL0     C38209   3.891   5.338   4.073  0.4572 -1.3549 -0.6318
  284MOL0     C38210   3.881   5.219   4.133  0.0018 -0.3839 -0.7272
  284MOL0     C38211   3.758   5.150   4.140 -0.5766 -0.9657 -0.7428
  284MOL0     C38212   3.648   5.195   4.068  0.3585 -0.3405  0.1338
  284MOL0     O38213   3.532   5.120   4.076 -0.8191  0.2175  0.6053
  284MOL0     C38214   3.411   5.187   4.041 -0.5429  0.0586  0.2100
  284MOL0     C38215   3.306   5.078   4.061 -0.7312 -0.2364 -0.1238
  284MOL0     C38216   3.161   5.129   4.038 -0.6718 -0.1647 -0.1550
  284MOL0     C38217   3.064   5.002   4.051 -0.1737  0.8566  0.6128
  284MOL0     C38218   2.916   5.044   4.074 -0.7718  0.6330  0.0064
  284MOL0     C38219   2.873   5.134   3.956  0.3614 -0.0555  0.0055
  284MOL0     C38220   2.727   5.131   3.920  0.7368 -0.4096  0.0502
  284MOL0     C38221   2.680   5.000   3.855 -0.4578 -0.4535  0.1776
  284MOL0     N38222   2.763   4.960   3.734  0.0044  0.7388 -0.2751
  284MOL0     C38223   2.850   4.852   3.727 -0.8512 -0.2490  0.6475
  284MOL0     C38224   2.912   4.870   3.615  0.0935  0.7734  0.2320
  284MOL0     C38225   3.015   4.786   3.544  0.3941  0.8732  0.1307
  284MOL0     C38226   3.155   4.838   3.534 -0.7700 -0.3667 -0.4842
  284MOL0     C38227   3.237   4.821   3.667  0.3636  0.4717 -0.4298
  284MOL0     C38228   3.383   4.874   3.660  0.6374  0.7896  0.4859
  284MOL0     O38229   3.426   4.888   3.793  0.4521  0.2085  0.6853
  284MOL0     C38230   3.566   4.869   3.813  0.1874  0.3898 -0.4301
  284MOL0     C38231   3.668   4.887   3.712 -0.6353  0.1156  0.2274
  284MOL0     C38232   3.807   4.871   3.746  0.7852  0.5056 -0.0359
  284MOL0     C38233   3.913   4.922   3.637  0.4305  0.0669  0.1663
  284MOL0     C38234   3.845   4.858   3.880 -0.4151  0.7895  0.2307
  284MOL0     C38235   3.986   4.851   3.929  0.0347  0.1902 -0.7080
  284MOL0     O38236   4.095   4.849   3.849 -0.0922  1.1123 -0.5079
  284MOL0     C38237   4.213   4.894   3.903  1.2212 -0.8818 -0.7869
  284MOL0     C38238   4.325   4.802   3.918 -0.0123  0.0030  0.0326
  284MOL0     C38239   4.439   4.856   3.982  0.0784 -0.1945 -0.7377
  284MOL0     C38240   4.444   4.992   4.013 -0.4420  0.1946 -0.2464
  284MOL0     O38241   4.571   5.024   4.068 -0.0108  0.0201  0.4348
  284MOL0     C38242   4.574   5.007   4.209  0.2376 -0.7745  0.9871
  284MOL0     C38243   4.716   5.021   4.250  0.1050 -0.0731 -0.5518
  284MOL0     C38244   4.761   5.149   4.306  0.1011  0.5927 -1.0989
  284MOL0     C38245   4.771   5.263   4.214  0.1402  0.2697  0.5899
  284MOL0     C38246   4.820   5.389   4.283 -0.7770  0.1896  0.3108
  284MOL0     C38247   4.721   5.457   4.381  0.4088  0.4552  0.3639
  284MOL0     C38248   4.786   5.547   4.495 -0.3815  0.2867 -0.7278
  284MOL0     C38249   4.685   5.586   4.604 -0.3563 -0.0863 -0.3801
  284MOL0    Cl38250   4.599   5.460   4.674 -0.2102  0.0465 -0.2304
  284MOL0     C38251   4.346   5.081   3.992  0.2548 -0.0195  0.8617
  284MOL0     C38252   4.222   5.033   3.936 -1.0127 -0.1681 -0.7554
  284MOL0     O38253   3.998   4.860   4.054  0.1137  0.1180  0.7073
  284MOL0     C38254   3.741   4.851   3.980  0.1654  0.1616  1.0692
  284MOL0     C38255   3.611   4.856   3.941  0.1997  0.1736 -0.0712
  284MOL0     N38256   2.867   4.980   3.545 -0.3433  0.0104 -0.0236
  284MOL0     N38257   2.772   5.024   3.614 -0.4890  0.0250 -0.3666
  284MOL0     C38258   3.663   5.308   3.987  0.2064 -0.6981 -0.4020
  284MOL0     C38259   3.780   5.388   4.000 -0.4601 -0.1024 -0.1731
  284MOL0     C38260   4.114   5.619   4.200  0.8615  0.9221 -0.6662
  284MOL0     C38261   4.237   5.599   4.135  0.5870 -0.1652 -0.8223
  284MOL0     C38262   4.346   5.685   4.168 -0.1903  0.9226  0.0915
  284MOL0     C38263   4.338   5.797   4.257 -0.8231  0.2050  0.0097
  284MOL0     O38264   4.449   5.868   4.303  0.2294  0.0200  0.2256
  284MOL0     C38265   4.580   5.842   4.249 -0.1819  0.5030 -0.5014
  284MOL0     C38266   4.687   5.900   4.342 -0.0487 -1.0198 -0.0288
  284MOL0     C38267   4.716   6.052   4.313  0.7135  0.1492 -0.9007
  284MOL0     C38268   4.855   6.096   4.373 -0.2395 -0.6529 -1.0580
  284MOL0     C38269   4.847   6.124   4.514  0.1578 -0.1488  0.2428
  284MOL0     C38270   4.805   6.142   4.624  1.1112  0.3540  0.8057
  284MOL0     C38271   4.221   5.808   4.326  0.3901  0.3246  0.3258
  284MOL0     C38272   4.111   5.725   4.298 -0.5899 -0.8775  0.1148
  284MOL0     H38273   3.964   5.185   4.194 -0.1385  4.8618  3.0721
  284MOL0     H38274   3.763   5.059   4.200  0.0745 -2.3578 -2.8176
  284MOL0     H38275   3.390   5.281   4.092 -0.3702  0.8931 -1.1962
  284MOL0     H38276   3.409   5.217   3.936  1.0962  2.9598  0.9091
  284MOL0     H38277   3.332   4.988   4.005 -1.8980 -2.6341  2.9179
  284MOL0     H38278   3.306   5.041   4.164  0.1021 -2.7639 -0.9504
  284MOL0     H38279   3.143   5.205   4.115  1.8417 -1.0550  1.4220
  284MOL0     H38280   3.155   5.170   3.936  0.3207  0.2980 -0.0355
  284MOL0     H38281   3.065   4.936   3.964  1.3295  0.1466  1.1359
  284MOL0     H38282   3.097   4.939   4.134  3.0702  1.4388 -0.1035
  284MOL0     H38283   2.856   4.952   4.079 -1.8973  1.4151  1.4516
  284MOL0     H38284   2.896   5.090   4.171 -1.1635  3.6062 -1.3954
  284MOL0     H38285   2.901   5.229   4.002  0.6751 -1.7384  3.7343
  284MOL0     H38286   2.934   5.126   3.866  2.3255  1.6949  1.0768
  284MOL0     H38287   2.671   5.147   4.013 -0.6021  2.2363 -1.1116
  284MOL0     H38288   2.695   5.210   3.851  1.3412  0.8906  1.2032
  284MOL0     H38289   2.575   5.001   3.825  0.1983  1.4759 -2.3760
  284MOL0     H38290   2.680   4.924   3.934 -0.0508 -0.8245 -0.1718
  284MOL0     H38291   2.867   4.765   3.791  0.6323 -1.3597 -1.1579
  284MOL0     H38292   3.007   4.684   3.583  0.3393 -0.1007 -2.2254
  284MOL0     H38293   2.977   4.772   3.442 -1.5006 -4.7619  1.2528
  284MOL0     H38294   3.147   4.945   3.514 -0.9458 -0.9065 -3.7475
  284MOL0     H38295   3.222   4.801   3.456  0.5651  2.8132 -1.0074
  284MOL0     H38296   3.234   4.720   3.709 -1.0029  1.2301  1.4455
  284MOL0     H38297   3.177   4.884   3.734  1.1264  1.7469 -0.9351
  284MOL0     H38298   3.395   4.967   3.603 -1.2741  0.7491 -0.0568
  284MOL0     H38299   3.426   4.789   3.606 -2.3351 -0.6317  0.1665
  284MOL0     H38300   3.654   4.919   3.610 -0.5463  2.0793  0.7867
  284MOL0     H38301   3.872   4.965   3.545 -2.1539  0.1919  1.2818
  284MOL0     H38302   3.968   5.007   3.677  1.3794 -0.2909 -0.3462
  284MOL0     H38303   3.984   4.841   3.618  1.0500  0.7355 -0.4129
  284MOL0     H38304   4.311   4.699   3.889  2.5783 -0.5317  0.4320
  284MOL0     H38305   4.520   4.788   4.005  0.2877  0.0312 -0.8029
  284MOL0     H38306   4.514   5.078   4.267 -1.4406 -1.8235  0.5973
  284MOL0     H38307   4.532   4.912   4.242 -1.6243  0.6392  3.0214
  284MOL0     H38308   4.722   4.958   4.339 -0.4047  0.7224  0.0519
  284MOL0     H38309   4.783   4.980   4.173 -0.8502 -1.3048 -0.7600
  284MOL0     H38310   4.857   5.134   4.356 -0.4534 -1.0479 -0.4702
  284MOL0     H38311   4.699   5.177   4.391  1.3371 -0.1777  0.0922
  284MOL0     H38312   4.838   5.234   4.133  0.1048  0.0027  0.6550
  284MOL0     H38313   4.669   5.269   4.173 -1.4277 -3.2354  3.3966
  284MOL0     H38314   4.855   5.466   4.214 -0.2423  0.3449  0.7497
  284MOL0     H38315   4.905   5.356   4.344  1.1218  1.1423 -1.6964
  284MOL0     H38316   4.644   5.516   4.331  1.5059  0.1701 -1.7481
  284MOL0     H38317   4.675   5.372   4.432  1.7118 -1.5724 -1.6475
  284MOL0     H38318   4.821   5.644   4.458  1.0639  0.3627  0.7062
  284MOL0     H38319   4.867   5.488   4.541 -1.7459 -0.6204  0.5939
  284MOL0     H38320   4.614   5.660   4.567  0.3325  1.4250  1.1711
  284MOL0     H38321   4.751   5.639   4.674 -1.8338  0.9744  0.2581
  284MOL0     H38322   4.348   5.183   4.030 -3.5978  0.8977 -0.8709
  284MOL0     H38323   4.138   5.101   3.922  0.8391  3.1791  2.6510
  284MOL0     H38324   3.758   4.863   4.086  0.6216  4.2716  0.6911
  284MOL0     H38325   3.527   4.857   4.010 -0.8965 -1.3420 -1.3230
  284MOL0     H38326   3.581   5.354   3.932  0.9565  1.4231  0.1468
  284MOL0     H38327   3.779   5.480   3.941 -1.2515  1.7765  2.5386
  284MOL0     H38328   4.264   5.517   4.069 -0.2123 -0.1412 -1.1943
  284MOL0     H38329   4.436   5.666   4.110 -0.4328  1.2835 -0.4098
  284MOL0     H38330   4.592   5.733   4.250 -2.2496  0.2020  2.2862
  284MOL0     H38331   4.586   5.873   4.144 -0.3797  0.7883 -0.4289
  284MOL0     H38332   4.778   5.841   4.330  0.8274  0.5523 -1.6267
  284MOL0     H38333   4.658   5.875   4.444 -1.4688 -0.8247 -0.3716
  284MOL0     H38334   4.639   6.118   4.356 -0.1090 -1.0760 -0.4262
  284MOL0     H38335   4.707   6.067   4.205 -2.4132 -1.7533 -1.0434
  284MOL0     H38336   4.884   6.190   4.325 -0.6818 -0.2642 -0.5719
  284MOL0     H38337   4.931   6.018   4.362  0.4483 -0.0954 -0.3509
  284MOL0     H38338   4.762   6.159   4.720  2.1912 -0.9638  1.5585
  284MOL0     H38339   4.214   5.885   4.402  1.5012  0.0811  0.6964
  284MOL0     H38340   4.022   5.750   4.354 -0.3095  0.3533  0.0382
  285MOL0     O38341   4.364   5.390   9.619  0.9915  1.6405 -0.3345
  285MOL0     C38342   4.360   5.415   9.741  0.4426  1.0560  0.1363
  285MOL0     O38343   4.463   5.467   9.812 -0.3475 -0.3268 -0.5570
  285MOL0     C38344   4.573   5.486   9.736  0.0454 -0.1408 -0.2844
  285MOL0     C38345   4.589   5.593   9.649 -0.4803  0.1066  0.1733
  285MOL0     C38346   4.702   5.615   9.583 -0.5985 -0.1672  0.4779
  285MOL0     C38347   4.813   5.538   9.595  0.3684  0.1915 -0.4739
  285MOL0     O38348   4.928   5.573   9.531 -0.7355 -0.0706 -0.2556
  285MOL0     C38349   5.052   5.507   9.561 -0.0006 -0.0477 -0.0117
  285MOL0     C38350   5.169   5.553   9.476  0.3416  0.4664  0.0409
  285MOL0     C38351   5.203   5.701   9.485 -0.3600 -0.1003 -0.6708
  285MOL0     C38352   5.340   5.726   9.414  0.0460 -0.1964 -0.1197
  285MOL0     C38353   5.364   5.878   9.408 -1.3116 -0.6188 -0.3292
  285MOL0     C38354   5.486   5.916   9.316 -0.3371 -0.2928 -0.2314
  285MOL0     C38355   5.613   5.830   9.302 -0.9677  0.9402 -0.2213
  285MOL0     C38356   5.680   5.825   9.438 -0.3331  0.1256 -0.0247
  285MOL0     N38357   5.789   5.724   9.427  0.6948 -0.3895  0.1763
  285MOL0     C38358   5.763   5.590   9.385 -0.3215  0.0422 -0.3330
  285MOL0     C38359   5.869   5.522   9.431 -0.3685  0.2074  0.2428
  285MOL0     C38360   5.907   5.376   9.417  0.1736 -0.0620  0.6923
  285MOL0     C38361   5.780   5.288   9.405 -0.1363 -0.6141  0.1563
  285MOL0     C38362   5.792   5.144   9.447 -1.4653  0.9150  0.5280
  285MOL0     C38363   5.665   5.063   9.464 -0.3379 -0.5698  0.0657
  285MOL0     O38364   5.608   5.031   9.337  0.1882 -0.0185 -0.5158
  285MOL0     C38365   5.492   4.946   9.348  0.4694 -0.3343 -0.2171
  285MOL0     C38366   5.446   4.908   9.221  0.1621  0.8895  0.3233
  285MOL0     C38367   5.332   4.827   9.210  0.2661 -0.1938  0.3646
  285MOL0     C38368   5.303   4.786   9.073 -0.3113  0.3226 -0.3906
  285MOL0     C38369   5.256   4.793   9.327  0.5034 -0.8343  0.0213
  285MOL0     C38370   5.114   4.723   9.326 -0.0118  0.0467  0.5180
  285MOL0     O38371   5.058   4.714   9.447  0.0330 -0.1830 -0.1100
  285MOL0     C38372   4.924   4.694   9.455  0.3152 -0.6085 -0.5882
  285MOL0     C38373   4.829   4.791   9.415  0.2951 -0.0287  0.3269
  285MOL0     C38374   4.709   4.741   9.387 -0.2745  0.5630  1.3770
  285MOL0     C38375   4.651   4.620   9.434 -0.3896 -0.2766 -1.0281
  285MOL0     O38376   4.528   4.577   9.416 -0.3034 -0.2397  0.7920
  285MOL0     C38377   4.438   4.635   9.321  0.5344  0.7759  0.7585
  285MOL0     C38378   4.301   4.599   9.371  0.1487 -0.7119 -0.4465
  285MOL0     C38379   4.281   4.684   9.502  0.3124 -0.2393 -0.5075
  285MOL0     C38380   4.152   4.656   9.568 -0.5412 -0.0381 -0.6856
  285MOL0     C38381   4.176   4.568   9.694  0.4640 -0.1069  0.1661
  285MOL0     C38382   4.032   4.545   9.759  0.3098  1.9130 -1.1612
  285MOL0     C38383   4.052   4.440   9.875  0.3616 -0.2644  0.4884
  285MOL0     C38384   3.920   4.399   9.950 -1.0233  0.4569  0.3659
  285MOL0    Cl38385   3.780   4.375   9.839 -0.3010  0.1811 -0.2640
  285MOL0     C38386   4.738   4.553   9.518  0.0342  0.7945 -0.7507
  285MOL0     C38387   4.880   4.582   9.521  0.8973  0.7647  0.5075
  285MOL0     O38388   5.061   4.698   9.224  0.1873  1.1205  0.4036
  285MOL0     C38389   5.308   4.827   9.456 -0.0295  0.1231 -1.1060
  285MOL0     C38390   5.425   4.909   9.464 -0.2352 -0.2704 -0.0376
  285MOL0     N38391   5.954   5.624   9.499  0.2193 -0.4889 -0.0182
  285MOL0     N38392   5.900   5.737   9.500  0.5490  0.2074  0.4107
  285MOL0     C38393   4.810   5.435   9.692  0.4199 -0.1597  0.6200
  285MOL0     C38394   4.689   5.411   9.760 -0.6647 -0.0725  0.1640
  285MOL0     C38395   4.235   5.375   9.801  0.1381 -0.3311  0.6247
  285MOL0     C38396   4.111   5.369   9.732 -0.0720  0.4466  0.0841
  285MOL0     C38397   3.993   5.332   9.798 -0.5104 -0.1741  0.4525
  285MOL0     C38398   3.993   5.330   9.941  0.1076 -0.1728 -0.2502
  285MOL0     O38399   3.878   5.320  10.018 -0.7983 -0.3696 -0.3921
  285MOL0     C38400   3.772   5.393   9.953 -0.4242 -0.0800  0.6219
  285MOL0     C38401   3.654   5.387  10.050 -0.4991  0.3925 -0.2853
  285MOL0     C38402   3.687   5.487  10.169  0.3282 -0.3849  0.4846
  285MOL0     C38403   3.583   5.471  10.281  0.1248 -0.1092  0.1506
  285MOL0     C38404   3.631   5.518  10.411  0.2747  0.4410  1.0423
  285MOL0     C38405   3.658   5.548  10.526  0.1744  0.1982 -0.0975
  285MOL0     C38406   4.111   5.321  10.017  0.4648  0.3499 -0.2281
  285MOL0     C38407   4.226   5.350   9.946  0.5294 -0.6276  0.1084
  285MOL0     H38408   4.502   5.651   9.620  1.6155  1.9200 -3.1146
  285MOL0     H38409   4.710   5.701   9.516  1.9770 -2.2315 -2.1271
  285MOL0     H38410   5.066   5.540   9.665 -2.2159 -0.5494  0.5111
  285MOL0     H38411   5.038   5.399   9.559  2.0680 -0.3434 -1.6905
  285MOL0     H38412   5.261   5.507   9.512  1.9509  1.4465 -2.5391
  285MOL0     H38413   5.150   5.517   9.375  1.8491  1.3287 -0.5821
  285MOL0     H38414   5.120   5.761   9.447 -0.7949 -0.4892 -0.3387
  285MOL0     H38415   5.209   5.733   9.589 -0.9688  0.7461 -0.8794
  285MOL0     H38416   5.417   5.678   9.476 -0.6809  0.4527  1.3423
  285MOL0     H38417   5.335   5.678   9.316  0.0611  0.5230 -0.4800
  285MOL0     H38418   5.284   5.945   9.375 -0.4422  2.0917  2.5808
  285MOL0     H38419   5.380   5.919   9.508 -1.5870  0.2330 -0.6243
  285MOL0     H38420   5.441   5.921   9.216  1.9381 -3.1380 -1.5194
  285MOL0     H38421   5.507   6.021   9.339 -1.9356  0.7520 -2.9505
  285MOL0     H38422   5.589   5.729   9.268 -0.6624  1.5888 -2.4627
  285MOL0     H38423   5.681   5.870   9.226  0.6646 -2.6246 -0.8535
  285MOL0     H38424   5.605   5.779   9.503  0.0455 -0.3154  0.1050
  285MOL0     H38425   5.712   5.926   9.467 -1.6463  0.2145  1.2386
  285MOL0     H38426   5.683   5.542   9.330  0.9310 -1.9521 -0.4902
  285MOL0     H38427   5.974   5.358   9.332  0.1565 -1.0592  0.8759
  285MOL0     H38428   5.962   5.342   9.506  0.6595  0.5738  0.6387
  285MOL0     H38429   5.754   5.291   9.299  2.4035  0.5720 -0.5072
  285MOL0     H38430   5.699   5.337   9.460  1.8690  0.6007  2.2429
  285MOL0     H38431   5.844   5.123   9.541 -2.5364 -4.7921  0.2097
  285MOL0     H38432   5.846   5.087   9.370  1.0811  0.7710  2.2714
  285MOL0     H38433   5.607   5.136   9.522  0.8500 -1.1615  2.1262
  285MOL0     H38434   5.683   4.971   9.520 -0.1112  0.2731  1.4288
  285MOL0     H38435   5.498   4.933   9.129  1.8130 -3.2952 -0.0964
  285MOL0     H38436   5.262   4.684   9.081 -3.7995  1.2791 -3.1204
  285MOL0     H38437   5.222   4.846   9.030  0.6479  0.5269 -1.9563
  285MOL0     H38438   5.397   4.787   9.018  0.3813  1.0720  0.7728
  285MOL0     H38439   4.858   4.889   9.379  1.0079  0.0155  0.9888
  285MOL0     H38440   4.646   4.805   9.326  1.3363  1.8721  1.0012
  285MOL0     H38441   4.448   4.744   9.313 -0.1040  0.7115 -2.4245
  285MOL0     H38442   4.458   4.590   9.223  0.1081 -0.1974  1.1096
  285MOL0     H38443   4.223   4.617   9.296  0.9288 -1.3340 -1.4359
  285MOL0     H38444   4.292   4.491   9.392 -1.9897 -0.7717 -1.3987
  285MOL0     H38445   4.272   4.788   9.470 -3.4269  0.4285  2.1485
  285MOL0     H38446   4.361   4.660   9.573  0.8792  1.1305 -0.6474
  285MOL0     H38447   4.104   4.751   9.591 -1.9368 -0.6283 -1.0838
  285MOL0     H38448   4.082   4.604   9.502 -0.7363 -0.1016 -0.4324
  285MOL0     H38449   4.229   4.628   9.768 -2.0126  2.9901 -0.3295
  285MOL0     H38450   4.235   4.484   9.657  2.5220  0.0762  2.7097
  285MOL0     H38451   3.990   4.641   9.791  0.6423  1.6259  0.1861
  285MOL0     H38452   3.963   4.504   9.685 -1.5022  1.1573  0.8413
  285MOL0     H38453   4.113   4.488   9.952 -0.4297  0.1125  0.8914
  285MOL0     H38454   4.097   4.350   9.832 -3.0129 -1.5433 -0.6837
  285MOL0     H38455   3.899   4.479  10.023  1.2867 -1.2151  3.0553
  285MOL0     H38456   3.926   4.303  10.002 -1.4521  0.6318  0.7481
  285MOL0     H38457   4.683   4.470   9.561  0.7094  2.1195  2.9591
  285MOL0     H38458   4.951   4.514   9.565  0.7436  0.0253 -0.3601
  285MOL0     H38459   5.266   4.790   9.548 -2.6778 -0.0254 -2.3024
  285MOL0     H38460   5.469   4.939   9.559 -0.9336 -0.9712  0.5089
  285MOL0     H38461   4.894   5.368   9.708  2.1434  1.6433 -0.4917
  285MOL0     H38462   4.687   5.336   9.839  1.0072  0.5975  0.8943
  285MOL0     H38463   4.103   5.382   9.625  1.5794 -0.8784 -0.2235
  285MOL0     H38464   3.909   5.300   9.738 -1.5350  0.5198  1.4921
  285MOL0     H38465   3.798   5.494   9.921  4.2845  0.0118  3.7163
  285MOL0     H38466   3.741   5.327   9.871 -2.2671  1.4277  0.0362
  285MOL0     H38467   3.645   5.281  10.078 -2.0975  1.0126  1.7085
  285MOL0     H38468   3.561   5.413   9.998 -0.7505 -0.6945 -0.4084
  285MOL0     H38469   3.691   5.590  10.132 -2.8612 -0.2138  0.3010
  285MOL0     H38470   3.786   5.466  10.211  0.6865 -0.1692 -0.2229
  285MOL0     H38471   3.552   5.367  10.287  0.8815 -0.4363 -1.2045
  285MOL0     H38472   3.496   5.532  10.255  1.4118  1.6970 -0.1019
  285MOL0     H38473   3.660   5.559  10.632 -2.7398  2.3330 -0.1571
  285MOL0     H38474   4.122   5.309  10.124  2.2391  0.5759 -0.3473
  285MOL0     H38475   4.326   5.364   9.985  0.5115 -0.1512 -0.0029
  286MOL0     O38476   5.082   3.839   3.147 -0.1479 -0.6449  0.0347
  286MOL0     C38477   5.155   3.937   3.126  0.6568  0.2141  0.5427
  286MOL0     O38478   5.124   4.030   3.031 -0.0439  0.3167  0.3869
  286MOL0     C38479   5.007   4.029   2.959 -0.3972  0.0432 -1.1502
  286MOL0     C38480   4.958   3.912   2.892  0.6020 -0.3120  0.0184
  286MOL0     C38481   4.874   3.936   2.782  0.5571  0.7861  0.2907
  286MOL0     C38482   4.842   4.066   2.737  0.1431 -0.5545 -0.9025
  286MOL0     O38483   4.748   4.093   2.638 -0.4351 -0.4281 -0.1909
  286MOL0     C38484   4.666   3.983   2.597 -0.0957 -0.0523  0.7716
  286MOL0     C38485   4.559   4.037   2.509  0.0777 -0.5240 -0.7774
  286MOL0     C38486   4.463   4.134   2.585  0.3619  0.2621 -0.3467
  286MOL0     C38487   4.330   4.159   2.515  0.2540 -0.1760  0.6504
  286MOL0     C38488   4.216   4.110   2.609 -0.4145  0.4446 -0.4835
  286MOL0     C38489   4.082   4.125   2.541 -0.0686 -0.1583 -0.4250
  286MOL0     C38490   3.963   4.068   2.623  0.0487 -0.1778  0.0706
  286MOL0     C38491   3.835   4.051   2.547  0.2369  0.2698  0.0595
  286MOL0     N38492   3.799   4.179   2.477 -0.5357 -0.3011  1.2633
  286MOL0     C38493   3.821   4.204   2.350  0.5434 -0.6563  0.2512
  286MOL0     C38494   3.768   4.327   2.325 -0.0521  0.1104  0.2542
  286MOL0     C38495   3.759   4.388   2.199 -0.2550  0.3767  0.0959
  286MOL0     C38496   3.817   4.531   2.192 -0.9921  0.3171 -0.1266
  286MOL0     C38497   3.888   4.560   2.064  0.5739  0.0143  0.6183
  286MOL0     C38498   3.947   4.696   2.040 -0.1776  0.2830 -0.1780
  286MOL0     O38499   4.014   4.715   1.916  0.7053 -0.3850 -0.4455
  286MOL0     C38500   4.096   4.823   1.904  0.0153 -0.0649  0.1901
  286MOL0     C38501   4.082   4.941   1.980 -0.3487  0.5728  0.1683
  286MOL0     C38502   4.178   5.050   1.972  0.3665  0.3211 -0.5922
  286MOL0     C38503   4.156   5.168   2.057 -0.5339  0.0775  0.1753
  286MOL0     C38504   4.273   5.045   1.868 -0.1499  0.1372  0.4818
  286MOL0     C38505   4.371   5.140   1.854 -0.0142 -0.3409  0.0377
  286MOL0     O38506   4.331   5.270   1.838 -0.0662 -0.0907 -0.1954
  286MOL0     C38507   4.434   5.359   1.807 -0.8038  0.2570 -0.3098
  286MOL0     C38508   4.457   5.399   1.674  0.0894 -0.9299 -0.2187
  286MOL0     C38509   4.559   5.488   1.633 -0.5637 -0.2052 -0.2755
  286MOL0     C38510   4.648   5.539   1.728  0.4359 -1.3833 -0.1290
  286MOL0     O38511   4.736   5.641   1.687 -0.4735  0.5886 -0.1107
  286MOL0     C38512   4.832   5.680   1.787  0.0366  0.6996 -0.4168
  286MOL0     C38513   4.957   5.589   1.802  0.0064  0.0259  0.4681
  286MOL0     C38514   5.038   5.596   1.670  0.0444  0.7443 -0.0732
  286MOL0     C38515   5.189   5.576   1.714 -0.0539 -1.0534  0.1209
  286MOL0     C38516   5.282   5.534   1.599  0.9480  0.1680 -0.4440
  286MOL0     C38517   5.307   5.654   1.502 -0.7687 -0.7196 -0.0565
  286MOL0     C38518   5.356   5.618   1.357 -0.1394  1.0526  0.4833
  286MOL0     C38519   5.278   5.498   1.286  0.7001  0.1665  0.8247
  286MOL0    Cl38520   5.321   5.502   1.113 -0.3229 -0.4395  0.0970
  286MOL0     C38521   4.632   5.500   1.860 -1.0080 -0.0883 -0.0841
  286MOL0     C38522   4.530   5.413   1.895  0.3936  0.4225 -0.4672
  286MOL0     O38523   4.491   5.106   1.863  0.1001  0.5267  0.2267
  286MOL0     C38524   4.283   4.930   1.782 -0.5706 -0.4156  0.5197
  286MOL0     C38525   4.187   4.826   1.799  0.5674  1.0404 -0.1490
  286MOL0     N38526   3.742   4.383   2.443  0.9831  0.3598 -0.3763
  286MOL0     N38527   3.757   4.298   2.531  0.2272 -0.3255 -0.1178
  286MOL0     C38528   4.883   4.180   2.811 -0.8624  0.4038  0.9477
  286MOL0     C38529   4.965   4.158   2.924  1.0118  0.0891  0.2402
  286MOL0     C38530   5.280   3.946   3.205  1.0708 -0.0981  1.5197
  286MOL0     C38531   5.372   4.051   3.181 -0.3401  0.2695  0.2912
  286MOL0     C38532   5.476   4.075   3.270 -0.6601 -0.1743  0.0303
  286MOL0     C38533   5.498   3.997   3.390 -0.4244  1.3417 -0.3606
  286MOL0     O38534   5.595   4.030   3.480 -0.7361  0.6359  0.0887
  286MOL0     C38535   5.721   3.967   3.443 -0.1430 -0.6653  0.7856
  286MOL0     C38536   5.745   3.842   3.526  0.0180  0.3862 -0.9033
  286MOL0     C38537   5.891   3.798   3.519 -0.3243 -0.2907 -0.3106
  286MOL0     C38538   5.916   3.672   3.599  0.0312 -0.6437  0.3081
  286MOL0     C38539   6.058   3.625   3.605  0.6985 -0.3908 -0.8751
  286MOL0     C38540   6.165   3.578   3.616 -0.3098  0.3592  0.1914
  286MOL0     C38541   5.414   3.883   3.407 -0.3361  0.5064  0.7197
  286MOL0     C38542   5.302   3.866   3.319 -0.6908  0.3444  0.4298
  286MOL0     H38543   4.972   3.809   2.923 -1.0649 -0.1565  1.4732
  286MOL0     H38544   4.826   3.850   2.737 -3.1897  0.8352  3.6562
  286MOL0     H38545   4.719   3.906   2.540 -1.9466 -0.8705  0.0562
  286MOL0     H38546   4.631   3.931   2.687  0.8422 -1.7301  0.2238
  286MOL0     H38547   4.600   4.097   2.428 -1.9188  0.5868 -1.0333
  286MOL0     H38548   4.495   3.955   2.475  0.0154 -0.2613 -1.3001
  286MOL0     H38549   4.449   4.100   2.689 -2.1942  2.4074  0.1254
  286MOL0     H38550   4.502   4.236   2.593  2.8586 -0.7238  1.8031
  286MOL0     H38551   4.331   4.266   2.491  1.7284 -0.5094 -0.9678
  286MOL0     H38552   4.324   4.104   2.421  4.8142  2.3564 -1.5142
  286MOL0     H38553   4.227   4.004   2.636 -0.1951 -0.0734 -2.4685
  286MOL0     H38554   4.216   4.176   2.696 -2.1573 -2.9179  2.3434
  286MOL0     H38555   4.069   4.233   2.524 -0.1539 -0.5102 -2.9982
  286MOL0     H38556   4.086   4.082   2.441  0.3291  1.5148 -1.1689
  286MOL0     H38557   3.988   3.967   2.655  1.9116 -0.1673 -1.2082
  286MOL0     H38558   3.946   4.138   2.705 -4.8096 -1.2851  0.3214
  286MOL0     H38559   3.746   4.030   2.607 -0.0995  1.5381  0.0334
  286MOL0     H38560   3.853   3.975   2.471  3.4083  1.7694 -0.8547
  286MOL0     H38561   3.869   4.150   2.268  3.1819  0.7732  0.7336
  286MOL0     H38562   3.817   4.319   2.138 -1.0151 -0.6224  0.4671
  286MOL0     H38563   3.653   4.386   2.170 -0.8623 -2.2282  2.0709
  286MOL0     H38564   3.889   4.549   2.272 -0.1351  0.0222 -0.8168
  286MOL0     H38565   3.729   4.595   2.205 -1.1443  0.1609 -0.3894
  286MOL0     H38566   3.823   4.522   1.984  0.2735 -0.4078  1.0504
  286MOL0     H38567   3.974   4.493   2.070  1.4576  1.1708  1.2940
  286MOL0     H38568   4.014   4.717   2.124  3.0933 -0.8451 -2.3309
  286MOL0     H38569   3.869   4.773   2.033 -0.6781 -0.2613 -0.7373
  286MOL0     H38570   4.003   4.953   2.054  0.5667 -0.2454  1.3111
  286MOL0     H38571   4.080   5.238   2.021 -0.4918  1.4410  2.5239
  286MOL0     H38572   4.125   5.145   2.160 -0.4927  4.0402  1.2416
  286MOL0     H38573   4.248   5.227   2.070 -1.2695  1.0553  1.1838
  286MOL0     H38574   4.395   5.350   1.600 -0.6706 -1.1614  0.5557
  286MOL0     H38575   4.586   5.519   1.533  2.5819  1.8450  1.0510
  286MOL0     H38576   4.857   5.783   1.762 -0.2036  0.9480  0.3633
  286MOL0     H38577   4.777   5.694   1.880 -4.6899 -3.3596 -2.1197
  286MOL0     H38578   5.008   5.644   1.882 -3.9208  1.3075  2.3502
  286MOL0     H38579   4.946   5.484   1.830  2.9921 -0.7661 -0.8856
  286MOL0     H38580   5.018   5.689   1.615 -0.1348  1.6359  1.4386
  286MOL0     H38581   4.998   5.510   1.616 -2.0016  1.4007  0.2920
  286MOL0     H38582   5.232   5.669   1.752  1.0194 -0.6635 -1.9112
  286MOL0     H38583   5.190   5.501   1.794  0.0597 -0.3265  0.8062
  286MOL0     H38584   5.241   5.446   1.547  0.4948  2.0482 -3.5417
  286MOL0     H38585   5.379   5.507   1.640 -0.4277 -1.5502  1.9800
  286MOL0     H38586   5.230   5.731   1.494 -0.5868 -0.6869 -2.0730
  286MOL0     H38587   5.391   5.716   1.536 -0.9655 -1.3656  1.7046
  286MOL0     H38588   5.465   5.605   1.357 -0.3483 -1.1902 -0.6010
  286MOL0     H38589   5.340   5.710   1.300  1.0416  0.1365 -1.4368
  286MOL0     H38590   5.171   5.516   1.300  0.3282  2.6076 -3.2786
  286MOL0     H38591   5.298   5.397   1.322  0.6829 -0.9685 -2.0754
  286MOL0     H38592   4.700   5.513   1.944  1.6709 -0.0368 -2.1050
  286MOL0     H38593   4.527   5.368   1.994  0.5772 -0.0443 -0.6707
  286MOL0     H38594   4.359   4.924   1.705 -0.8510 -0.4511  0.2445
  286MOL0     H38595   4.171   4.739   1.736 -3.4202  1.1704  0.4487
  286MOL0     H38596   4.838   4.277   2.790 -2.2524  0.3085  3.1764
  286MOL0     H38597   4.998   4.248   2.975  2.9719 -0.8703  0.7323
  286MOL0     H38598   5.376   4.106   3.088  1.8451 -0.1054  0.0967
  286MOL0     H38599   5.543   4.156   3.244  1.0956 -0.8059  2.2523
  286MOL0     H38600   5.726   3.945   3.336  1.7295 -0.3387  0.7564
  286MOL0     H38601   5.795   4.046   3.463  1.5580 -2.0474  0.2056
  286MOL0     H38602   5.682   3.761   3.487 -0.1509 -0.5925  1.2437
  286MOL0     H38603   5.724   3.859   3.632  2.5879  1.8086 -0.5391
  286MOL0     H38604   5.957   3.880   3.549 -1.3279  0.4223  0.0056
  286MOL0     H38605   5.928   3.791   3.416  2.0141  1.1668  0.3567
  286MOL0     H38606   5.844   3.598   3.564 -2.3976  0.5910  2.3845
  286MOL0     H38607   5.890   3.690   3.704  1.1182  1.0384  0.3290
  286MOL0     H38608   6.264   3.543   3.639  0.1733  2.4887  1.7052
  286MOL0     H38609   5.437   3.825   3.496 -0.0014 -0.6078 -0.0770
  286MOL0     H38610   5.222   3.799   3.347 -0.9053  0.3048 -0.2613
  287MOL0     O38611   7.164   6.243   6.970  0.4171  0.0473 -0.0279
  287MOL0     C38612   7.083   6.201   7.053 -1.1737  0.5352  0.2889
  287MOL0     O38613   7.121   6.124   7.164 -0.5269  0.6468 -0.1371
  287MOL0     C38614   7.249   6.088   7.187 -0.1118 -0.8603  0.8577
  287MOL0     C38615   7.324   6.165   7.274 -0.9641 -0.5598 -0.0157
  287MOL0     C38616   7.457   6.125   7.301 -0.3636  0.1352  0.4522
  287MOL0     C38617   7.517   6.011   7.238 -0.2967  0.2335  1.3358
  287MOL0     O38618   7.646   5.961   7.262  0.1491  0.3186 -0.4217
  287MOL0     C38619   7.752   6.050   7.280 -0.5334 -0.8465 -0.2939
  287MOL0     C38620   7.884   5.966   7.312 -0.8502  0.2410  0.6185
  287MOL0     C38621   8.011   6.055   7.329  0.2620 -0.3590 -0.2867
  287MOL0     C38622   8.045   6.121   7.190 -0.5833 -0.0276  0.4139
  287MOL0     C38623   8.188   6.159   7.173  0.4504 -0.3636 -0.1167
  287MOL0     C38624   8.218   6.293   7.254 -0.2785  0.4856 -0.2621
  287MOL0     C38625   8.373   6.322   7.248 -0.2075 -0.0367  0.2584
  287MOL0     C38626   8.439   6.249   7.363 -0.1932 -0.3077  0.5532
  287MOL0     N38627   8.587   6.263   7.354  0.9170 -0.1559  0.4065
  287MOL0     C38628   8.657   6.369   7.401 -0.1000  0.1985  0.3378
  287MOL0     C38629   8.792   6.325   7.409 -0.0819 -0.5713  0.3064
  287MOL0     C38630   8.916   6.394   7.446 -0.8149 -0.2212  0.2723
  287MOL0     C38631   8.945   6.376   7.599 -0.6213 -0.5153  0.3504
  287MOL0     C38632   8.976   6.230   7.629  0.5133 -0.3019 -0.6178
  287MOL0     C38633   9.103   6.178   7.572  0.6363  0.2733 -0.9997
  287MOL0     O38634   9.139   6.053   7.634  0.4703  0.1168 -0.4838
  287MOL0     C38635   9.241   5.973   7.584 -0.5522 -0.2356 -0.3029
  287MOL0     C38636   9.248   5.840   7.629  0.5553 -0.2441  0.0924
  287MOL0     C38637   9.347   5.755   7.588  0.1087 -0.2260 -0.1553
  287MOL0     C38638   9.336   5.617   7.653  0.8632 -0.2373  0.7326
  287MOL0     C38639   9.442   5.796   7.488 -0.1551  0.0817 -0.6747
  287MOL0     C38640   9.541   5.707   7.434 -0.4989  0.1208  0.4659
  287MOL0     O38641   9.662   5.764   7.398 -0.0998 -0.5654  0.0316
  287MOL0     C38642   9.770   5.688   7.361  0.0163  0.3883  0.0187
  287MOL0     C38643   9.814   5.574   7.443 -0.2483 -1.1205 -0.3879
  287MOL0     C38644   9.946   5.534   7.434 -0.4553 -0.3717  0.3588
  287MOL0     C38645  10.027   5.575   7.326 -1.1084  0.3193  0.2603
  287MOL0     O38646  10.142   5.504   7.295 -0.4889 -0.2187  0.0013
  287MOL0     C38647  10.240   5.564   7.213 -0.0707 -0.0428  0.6778
  287MOL0     C38648  10.366   5.491   7.211  0.3767 -0.1883 -0.5324
  287MOL0     C38649  10.397   5.409   7.337  0.4738  0.2239 -0.6515
  287MOL0     C38650  10.536   5.343   7.320  0.3722  0.1123 -0.1639
  287MOL0     C38651  10.570   5.248   7.431  0.0037  0.3275 -0.9734
  287MOL0     C38652  10.710   5.201   7.409  0.6090 -0.4890  0.6410
  287MOL0     C38653  10.743   5.091   7.513  0.1602 -0.8774  0.3113
  287MOL0     C38654  10.887   5.065   7.532  0.0129 -0.6834  0.7792
  287MOL0    Cl38655  10.895   4.919   7.638  0.1644 -0.4878  0.2717
  287MOL0     C38656   9.980   5.679   7.237 -0.7598  0.5461 -0.9726
  287MOL0     C38657   9.859   5.737   7.262  0.0604 -0.1731 -0.3292
  287MOL0     O38658   9.517   5.587   7.427 -0.3450 -0.1933  0.0288
  287MOL0     C38659   9.425   5.928   7.429  0.0605  1.1908  0.5465
  287MOL0     C38660   9.334   6.014   7.483  1.2694 -0.2134 -0.4830
  287MOL0     N38661   8.787   6.196   7.355 -0.6257  0.7406 -0.6262
  287MOL0     N38662   8.668   6.152   7.341  0.2574  0.0884 -0.3373
  287MOL0     C38663   7.446   5.940   7.146 -0.3568  0.5309  0.1768
  287MOL0     C38664   7.314   5.976   7.118 -0.7994 -1.1621 -0.1914
  287MOL0     C38665   6.942   6.239   7.042  0.0829  0.1973 -0.4246
  287MOL0     C38666   6.848   6.203   7.139 -0.7025  0.9467  0.1624
  287MOL0     C38667   6.717   6.234   7.133 -0.3002  0.8662  0.2094
  287MOL0     C38668   6.674   6.311   7.026  0.4885  1.2668 -0.6597
  287MOL0     O38669   6.538   6.329   7.020 -0.1800  0.0836 -0.0490
  287MOL0     C38670   6.466   6.349   6.899 -0.3583  0.2494 -0.2919
  287MOL0     C38671   6.400   6.485   6.895 -0.4218 -0.5506 -0.0946
  287MOL0     C38672   6.315   6.494   6.763 -0.0664  0.1122 -0.7256
  287MOL0     C38673   6.270   6.632   6.744 -0.5786 -0.7155  0.4347
  287MOL0     C38674   6.166   6.661   6.839  0.0344 -0.1529  0.4161
  287MOL0     C38675   6.085   6.700   6.919 -0.6454 -0.2924  0.1359
  287MOL0     C38676   6.766   6.343   6.923  0.0921  0.6189 -0.1860
  287MOL0     C38677   6.899   6.310   6.932 -0.3438  0.4287 -0.4851
  287MOL0     H38678   7.281   6.257   7.311  2.2769  1.0648  0.0502
  287MOL0     H38679   7.527   6.173   7.369 -0.2994 -0.2063  0.6294
  287MOL0     H38680   7.762   6.116   7.194  2.0780  0.3670  0.8362
  287MOL0     H38681   7.729   6.102   7.373  0.1010 -1.7528  0.3877
  287MOL0     H38682   7.867   5.911   7.405 -2.3179  1.3061  1.0152
  287MOL0     H38683   7.889   5.899   7.225 -0.0745  1.8417 -0.6211
  287MOL0     H38684   7.998   6.130   7.408  1.1375  1.1913 -1.5723
  287MOL0     H38685   8.088   5.986   7.365  0.8746  1.6910  2.7052
  287MOL0     H38686   8.035   6.047   7.109 -0.3665 -2.2005  2.2718
  287MOL0     H38687   7.973   6.201   7.168 -1.6444 -1.4292 -1.6410
  287MOL0     H38688   8.253   6.079   7.210 -1.6302 -2.0533  0.1197
  287MOL0     H38689   8.208   6.164   7.066 -1.3867  0.7326 -0.4619
  287MOL0     H38690   8.177   6.374   7.192  2.0021  2.0877  0.2090
  287MOL0     H38691   8.188   6.306   7.358  0.5459  2.7851 -0.2409
  287MOL0     H38692   8.420   6.282   7.158 -0.6050 -1.0952  0.4970
  287MOL0     H38693   8.400   6.427   7.257  2.1721 -0.5482 -0.3277
  287MOL0     H38694   8.410   6.145   7.350  0.3018 -0.6725  2.1847
  287MOL0     H38695   8.404   6.296   7.456  0.3746 -1.1894  1.2284
  287MOL0     H38696   8.612   6.462   7.433 -0.0498 -0.4289  2.3706
  287MOL0     H38697   9.003   6.354   7.393 -1.7311 -0.7146 -0.9125
  287MOL0     H38698   8.913   6.499   7.416  1.1854 -0.3815 -0.6103
  287MOL0     H38699   8.851   6.414   7.641 -0.8698 -2.4680  1.7036
  287MOL0     H38700   9.019   6.452   7.623 -0.2723 -1.0293  0.9354
  287MOL0     H38701   8.881   6.181   7.604 -0.3949  1.3582 -0.5270
  287MOL0     H38702   8.980   6.227   7.738  4.0534 -0.3106 -0.6416
  287MOL0     H38703   9.177   6.257   7.589 -1.8852  2.3267  1.2804
  287MOL0     H38704   9.085   6.160   7.466 -0.3031 -1.1789 -0.6234
  287MOL0     H38705   9.168   5.810   7.696  0.6476  0.6274  0.6091
  287MOL0     H38706   9.436   5.589   7.688  1.0457  0.6188  0.9356
  287MOL0     H38707   9.265   5.604   7.735 -0.3246  0.9483 -0.0638
  287MOL0     H38708   9.310   5.561   7.563  0.5219 -1.4389  1.5658
  287MOL0     H38709   9.750   5.528   7.517  1.5283 -2.0444  0.6694
  287MOL0     H38710   9.976   5.462   7.509 -0.7186 -1.2986 -0.4107
  287MOL0     H38711  10.188   5.549   7.118 -3.9370 -1.5753  2.7840
  287MOL0     H38712  10.256   5.669   7.238 -1.4902  2.0845 -5.4589
  287MOL0     H38713  10.352   5.427   7.123  1.7878 -1.8950  0.4435
  287MOL0     H38714  10.448   5.563   7.204 -1.6479  2.2687 -0.5395
  287MOL0     H38715  10.329   5.324   7.350  1.5151 -0.3753  1.2631
  287MOL0     H38716  10.404   5.460   7.434 -1.3220  0.1441 -0.4469
  287MOL0     H38717  10.521   5.286   7.228  0.8534 -0.6234  0.2096
  287MOL0     H38718  10.616   5.416   7.308 -0.7393  1.3835 -0.1456
  287MOL0     H38719  10.494   5.171   7.444  0.8277 -0.1234  1.9819
  287MOL0     H38720  10.557   5.298   7.528 -3.5814  2.1417 -2.2023
  287MOL0     H38721  10.732   5.161   7.310  2.3474 -1.5741  1.4189
  287MOL0     H38722  10.781   5.283   7.425  0.5095  0.1611 -1.8640
  287MOL0     H38723  10.693   4.999   7.480 -0.4868  0.2192 -1.9727
  287MOL0     H38724  10.697   5.117   7.608 -1.9180 -2.2202 -0.2522
  287MOL0     H38725  10.948   5.146   7.573 -0.8150  0.4203 -0.1053
  287MOL0     H38726  10.928   5.052   7.431  3.7212 -0.3875  2.0778
  287MOL0     H38727  10.042   5.708   7.152  2.9876 -0.5305  1.1703
  287MOL0     H38728   9.826   5.810   7.189 -1.1566 -0.3996 -0.0160
  287MOL0     H38729   9.505   5.964   7.366  0.9393  0.7249  1.3676
  287MOL0     H38730   9.338   6.118   7.455  0.3545  0.0122  0.1790
  287MOL0     H38731   7.502   5.854   7.110  2.0970  1.2851  1.8902
  287MOL0     H38732   7.258   5.919   7.045  0.5008 -2.9171  0.1289
  287MOL0     H38733   6.884   6.158   7.231 -2.3768  0.3428  0.5598
  287MOL0     H38734   6.643   6.205   7.207  1.7520 -2.8156  1.0913
  287MOL0     H38735   6.529   6.323   6.813 -1.5353  1.1262 -1.4441
  287MOL0     H38736   6.379   6.282   6.893 -0.9243  0.9827 -0.3267
  287MOL0     H38737   6.478   6.563   6.890  0.4671 -1.4175 -0.0618
  287MOL0     H38738   6.332   6.513   6.976  1.5529  2.3032  0.7432
  287MOL0     H38739   6.221   6.441   6.779 -0.8039  1.5933  0.0438
  287MOL0     H38740   6.378   6.469   6.677 -0.3640  1.7216 -1.4519
  287MOL0     H38741   6.232   6.645   6.642 -1.8831 -0.5138  0.9295
  287MOL0     H38742   6.355   6.699   6.761  0.1267 -2.0897  2.6802
  287MOL0     H38743   6.013   6.751   6.980  0.9653  4.4329 -1.4602
  287MOL0     H38744   6.729   6.377   6.827 -1.0142  0.1476  0.0501
  287MOL0     H38745   6.964   6.336   6.850  2.0251 -0.8646  0.8431
  288MOL0     O38746   9.738   1.701   9.964 -0.3155  0.3076 -0.2045
  288MOL0     C38747   9.781   1.814   9.933  1.0955 -0.6671 -0.7340
  288MOL0     O38748   9.754   1.929  10.006 -0.9351  0.3042 -0.4184
  288MOL0     C38749   9.679   1.915  10.118  0.1537  0.0417 -0.4157
  288MOL0     C38750   9.729   1.861  10.239  0.0928  0.3807  0.0222
  288MOL0     C38751   9.653   1.881  10.359  0.0106 -0.5902  0.4605
  288MOL0     C38752   9.539   1.958  10.361 -0.3129  0.0716  1.0733
  288MOL0     O38753   9.492   2.007  10.484  0.5266  0.0797  0.4530
  288MOL0     C38754   9.387   2.104  10.484  0.4301 -0.4965 -0.1031
  288MOL0     C38755   9.335   2.102  10.629 -0.6921 -0.0025  0.2318
  288MOL0     C38756   9.221   2.193  10.641 -0.0471 -0.7467 -0.5240
  288MOL0     C38757   9.207   2.246  10.784  0.5764 -0.3522  0.6102
  288MOL0     C38758   9.077   2.334  10.803 -0.7533 -0.8831  0.1091
  288MOL0     C38759   9.076   2.380  10.951 -1.2385  0.2340  0.3960
  288MOL0     C38760   8.946   2.454  10.989 -0.2011  0.0909  1.1022
  288MOL0     C38761   8.814   2.385  11.007 -0.7796  0.2440 -0.5787
  288MOL0     N38762   8.730   2.365  10.896  0.6981 -0.4095 -0.0267
  288MOL0     C38763   8.622   2.446  10.864 -0.1794  0.6396  0.0204
  288MOL0     C38764   8.554   2.379  10.763 -0.1579 -0.0537 -0.1658
  288MOL0     C38765   8.431   2.442  10.696  0.6737 -0.0338  0.2793
  288MOL0     C38766   8.305   2.452  10.780  0.5139  0.4494 -0.1491
  288MOL0     C38767   8.252   2.319  10.817 -0.2727 -0.1438  0.5007
  288MOL0     C38768   8.137   2.344  10.916 -0.5241  0.4256 -0.9385
  288MOL0     O38769   8.084   2.219  10.946 -0.1423  0.0354 -0.5878
  288MOL0     C38770   7.949   2.212  10.966  0.3107 -1.7030 -0.9206
  288MOL0     C38771   7.906   2.089  11.004 -0.5303  0.3036  0.3097
  288MOL0     C38772   7.770   2.064  11.030 -0.6241  0.3819 -0.3866
  288MOL0     C38773   7.735   1.924  11.068 -0.0369 -0.5036  0.5088
  288MOL0     C38774   7.670   2.166  11.026  0.4884 -0.1117  0.6215
  288MOL0     C38775   7.523   2.144  11.026 -0.0747  0.3867 -0.0459
  288MOL0     O38776   7.447   2.258  10.983 -0.0122  0.5544  0.2237
  288MOL0     C38777   7.308   2.242  10.945 -0.3605 -0.7916  0.0479
  288MOL0     C38778   7.231   2.364  10.942 -0.5298 -0.3879  0.4800
  288MOL0     C38779   7.100   2.361  10.907 -0.0656 -0.1549 -0.7214
  288MOL0     C38780   7.044   2.244  10.860  0.5533 -0.2461  0.5711
  288MOL0     O38781   6.913   2.253  10.817  0.7595  0.4131  0.4879
  288MOL0     C38782   6.812   2.270  10.924 -0.2870  0.7783 -0.1575
  288MOL0     C38783   6.693   2.370  10.892 -1.2248 -0.0429 -0.1206
  288MOL0     C38784   6.605   2.323  10.783 -0.6174  0.5075  1.0638
  288MOL0     C38785   6.493   2.419  10.785  0.3150  0.0309 -0.1645
  288MOL0     C38786   6.405   2.385  10.660 -0.1016 -0.1142 -0.2084
  288MOL0     C38787   6.292   2.492  10.658 -0.6016 -0.8586  0.6127
  288MOL0     C38788   6.199   2.483  10.775  1.0251 -0.6105 -1.0578
  288MOL0     C38789   6.072   2.564  10.761 -0.3501 -0.0483 -0.5245
  288MOL0    Cl38790   6.086   2.740  10.777 -0.2490  0.2630 -0.1106
  288MOL0     C38791   7.114   2.123  10.854 -0.6481 -0.1568 -0.6401
  288MOL0     C38792   7.246   2.123  10.898  1.1482  0.1272  0.4170
  288MOL0     O38793   7.477   2.042  11.076 -0.1805  0.0175 -0.1524
  288MOL0     C38794   7.717   2.292  10.990  0.5234 -0.0690  0.7637
  288MOL0     C38795   7.859   2.319  10.968  0.0728 -0.8362  0.4510
  288MOL0     N38796   8.618   2.265  10.736 -0.4727  0.1245  0.0542
  288MOL0     N38797   8.715   2.254  10.817 -0.2060 -0.9309  0.1396
  288MOL0     C38798   9.494   2.003  10.240 -0.1548 -0.3699 -0.4624
  288MOL0     C38799   9.558   1.976  10.115 -0.3025 -0.0154 -0.7595
  288MOL0     C38800   9.884   1.834   9.832 -0.0576  0.0913 -0.2909
  288MOL0     C38801   9.972   1.941   9.841  0.0916 -0.4919 -0.0139
  288MOL0     C38802  10.078   1.945   9.749  0.3052 -0.1986  0.5148
  288MOL0     C38803  10.093   1.855   9.640  0.6518  0.4529  0.3886
  288MOL0     O38804  10.194   1.871   9.549  0.3482 -0.2952  0.7856
  288MOL0     C38805  10.178   1.984   9.464  0.5091 -0.2674 -0.3776
  288MOL0     C38806  10.298   2.062   9.477  0.4621 -0.2670  0.0181
  288MOL0     C38807  10.434   1.991   9.454 -0.7626 -0.2548 -0.1269
  288MOL0     C38808  10.537   2.063   9.358 -0.0069 -0.8952 -0.9757
  288MOL0     C38809  10.556   2.201   9.403  0.2706  0.3302 -0.5929
  288MOL0     C38810  10.577   2.317   9.437 -0.0385  0.6344  0.9682
  288MOL0     C38811   9.989   1.758   9.631  0.4389 -0.7239  0.0407
  288MOL0     C38812   9.893   1.740   9.732  0.4998 -0.0888 -0.2099
  288MOL0     H38813   9.828   1.816  10.236 -0.0021  0.1975 -0.6161
  288MOL0     H38814   9.688   1.847  10.456  0.5719  1.8743  1.1976
  288MOL0     H38815   9.431   2.202  10.461 -0.1684 -0.5670 -1.6325
  288MOL0     H38816   9.306   2.085  10.413 -0.1076  0.3456  0.2607
  288MOL0     H38817   9.311   1.996  10.642 -1.6096 -0.0902 -1.7951
  288MOL0     H38818   9.418   2.143  10.687  0.0166  1.8680 -1.9424
  288MOL0     H38819   9.232   2.276  10.571  0.9869  0.0873  0.5683
  288MOL0     H38820   9.129   2.139  10.618  0.5066 -0.7680 -2.9814
  288MOL0     H38821   9.208   2.161  10.853 -0.2568  0.3665  1.5257
  288MOL0     H38822   9.296   2.301  10.814  1.7916 -0.9321 -1.6897
  288MOL0     H38823   9.084   2.427  10.746  1.4541 -0.0918  1.5355
  288MOL0     H38824   8.987   2.278  10.777  1.4205 -5.2135  1.0893
  288MOL0     H38825   9.080   2.295  11.019  0.8044 -0.6652 -0.7395
  288MOL0     H38826   9.169   2.435  10.969  0.1709  0.4267 -5.4881
  288MOL0     H38827   8.973   2.501  11.084  1.1341 -0.1646  0.8658
  288MOL0     H38828   8.941   2.543  10.926  0.1574  0.1671  1.1828
  288MOL0     H38829   8.750   2.437  11.079 -0.8993 -1.8777  0.9509
  288MOL0     H38830   8.835   2.287  11.052  3.1995  1.0264 -0.3750
  288MOL0     H38831   8.598   2.539  10.913 -1.6969  0.6555 -0.6774
  288MOL0     H38832   8.459   2.547  10.679 -2.8356  0.6869 -2.3246
  288MOL0     H38833   8.401   2.395  10.602  1.0613  0.1762  0.0468
  288MOL0     H38834   8.235   2.518  10.727 -2.2046 -1.0924  1.2945
  288MOL0     H38835   8.330   2.507  10.871  0.2609  3.6939 -1.8990
  288MOL0     H38836   8.319   2.255  10.876  0.6513  1.7750  1.6297
  288MOL0     H38837   8.218   2.251  10.739  2.2536 -2.1714  1.0084
  288MOL0     H38838   8.072   2.416  10.866  0.0818  0.8183 -1.1782
  288MOL0     H38839   8.169   2.382  11.014 -0.6233  0.2400 -0.8341
  288MOL0     H38840   7.979   2.010  11.023 -2.3136 -1.2373  1.0492
  288MOL0     H38841   7.819   1.856  11.053 -1.4617 -2.0763 -0.9311
  288MOL0     H38842   7.714   1.932  11.175 -4.4694  2.1217 -0.2698
  288MOL0     H38843   7.658   1.877  11.006 -1.3148  2.9607 -0.8187
  288MOL0     H38844   7.280   2.457  10.973  2.0536 -1.8335  1.0612
  288MOL0     H38845   7.046   2.453  10.925 -2.6707 -1.6872 -0.3198
  288MOL0     H38846   6.766   2.174  10.948  1.9586  0.3959  3.3232
  288MOL0     H38847   6.865   2.299  11.015 -2.5484  0.3482  1.4029
  288MOL0     H38848   6.638   2.375  10.986 -2.2582  0.7559 -0.7421
  288MOL0     H38849   6.739   2.463  10.857 -1.1124 -0.0756 -0.0590
  288MOL0     H38850   6.561   2.223  10.785  1.8510 -0.6750  0.4781
  288MOL0     H38851   6.660   2.342  10.690  1.7582 -1.7045  1.9013
  288MOL0     H38852   6.445   2.393  10.880  2.5473 -3.1522  0.2439
  288MOL0     H38853   6.528   2.522  10.797  0.1255  0.1019 -0.2160
  288MOL0     H38854   6.369   2.284  10.679 -1.6799  0.9510  3.4483
  288MOL0     H38855   6.468   2.390  10.571  0.5848  1.2771  0.3199
  288MOL0     H38856   6.352   2.583  10.649 -0.1901 -1.1792  0.0349
  288MOL0     H38857   6.234   2.485  10.566  0.7552  0.3039 -0.3632
  288MOL0     H38858   6.252   2.527  10.860 -0.9082  1.1488 -0.6916
  288MOL0     H38859   6.162   2.382  10.796 -3.8019  1.3711  1.5658
  288MOL0     H38860   5.998   2.539  10.837 -2.0771  2.3309 -1.3279
  288MOL0     H38861   6.020   2.546  10.666 -0.3191  5.3300 -1.8789
  288MOL0     H38862   7.066   2.028  10.834  3.2764 -2.4230 -0.3508
  288MOL0     H38863   7.304   2.032  10.900  1.7604  0.3288 -2.8832
  288MOL0     H38864   7.642   2.370  10.983 -2.3827 -2.6879  0.5639
  288MOL0     H38865   7.881   2.414  10.920 -0.6885  0.4128  2.4393
  288MOL0     H38866   9.406   2.067  10.237  1.6710  2.6379  2.6189
  288MOL0     H38867   9.523   2.031  10.028 -0.1709  0.8771 -0.2506
  288MOL0     H38868   9.972   2.020   9.915  0.5953 -0.0035 -0.5306
  288MOL0     H38869  10.152   2.020   9.773  2.3961 -1.0977 -2.5395
  288MOL0     H38870  10.158   1.953   9.361 -2.8026 -0.9919  0.3415
  288MOL0     H38871  10.086   2.039   9.488  1.7612  2.6812 -1.7708
  288MOL0     H38872  10.296   2.104   9.578 -0.3997 -0.6770  0.1819
  288MOL0     H38873  10.272   2.144   9.410 -3.5461 -0.6141  0.9078
  288MOL0     H38874  10.419   1.893   9.408 -1.8662 -0.0822 -0.1588
  288MOL0     H38875  10.472   1.985   9.556 -1.2849  1.8556  0.2301
  288MOL0     H38876  10.499   2.060   9.255  0.1994  1.6150 -1.1925
  288MOL0     H38877  10.636   2.015   9.357  0.5886  0.2042  0.8797
  288MOL0     H38878  10.586   2.416   9.475 -0.2693  1.3074 -0.6586
  288MOL0     H38879   9.982   1.686   9.550  0.2833 -2.1235  1.2378
  288MOL0     H38880   9.827   1.654   9.733  0.3856 -0.0551  2.4973
  289MOL0     O38881  10.584   1.969   5.785  0.4376 -0.0814  0.6660
  289MOL0     C38882  10.519   1.999   5.684  0.3111 -0.2299 -0.2455
  289MOL0     O38883  10.565   2.085   5.592 -0.2706 -0.0138 -0.4186
  289MOL0     C38884  10.690   2.150   5.605 -0.5531 -0.0957  0.3198
  289MOL0     C38885  10.711   2.219   5.729  0.0890  0.0710 -0.0745
  289MOL0     C38886  10.815   2.306   5.750 -0.2388  1.1096  0.6043
  289MOL0     C38887  10.921   2.312   5.655 -0.2324 -0.3011 -0.3574
  289MOL0     O38888  11.049   2.385   5.674  0.2447 -0.6889  0.4702
  289MOL0     C38889  11.060   2.486   5.776 -0.2983 -0.4794  0.2338
  289MOL0     C38890  11.194   2.551   5.744 -0.0054 -1.0701 -0.0992
  289MOL0     C38891  11.305   2.458   5.717 -0.7241 -0.0913 -0.2639
  289MOL0     C38892  11.432   2.541   5.713 -0.1350  0.3288  0.8985
  289MOL0     C38893  11.565   2.454   5.687  0.7310  0.0757 -0.6285
  289MOL0     C38894  11.666   2.551   5.634  0.4821 -0.2937 -0.4993
  289MOL0     C38895  11.694   2.666   5.739 -0.1228 -1.0877 -0.6269
  289MOL0     C38896  11.843   2.705   5.753  0.7106  0.6484  0.1156
  289MOL0     N38897  11.849   2.835   5.837  0.8167 -0.0466  0.0766
  289MOL0     C38898  11.827   2.841   5.976 -0.4504  0.1366 -0.2252
  289MOL0     C38899  11.842   2.962   6.032  0.7322  0.1946 -0.4339
  289MOL0     C38900  11.803   3.008   6.172 -0.4531  0.2961 -0.4031
  289MOL0     C38901  11.662   2.976   6.226  0.8101  0.0903 -0.5638
  289MOL0     C38902  11.640   3.017   6.370 -0.1373 -0.4046 -1.0646
  289MOL0     C38903  11.484   3.012   6.400 -0.0398  0.4299 -0.1836
  289MOL0     O38904  11.451   2.880   6.432 -0.4198 -0.2010 -0.9738
  289MOL0     C38905  11.316   2.842   6.452 -0.6475 -0.3756  0.3194
  289MOL0     C38906  11.280   2.712   6.455  0.0481  0.7020 -0.3943
  289MOL0     C38907  11.151   2.663   6.457 -0.1108  0.0909 -0.4442
  289MOL0     C38908  11.111   2.521   6.441 -0.1429  0.8183  0.0910
  289MOL0     C38909  11.052   2.762   6.474  0.3822  0.4249  0.1472
  289MOL0     C38910  10.913   2.736   6.513  0.3504  0.3178 -1.1489
  289MOL0     O38911  10.821   2.833   6.523  0.0109  0.1578  0.1425
  289MOL0     C38912  10.698   2.816   6.572  0.2548  0.8587 -0.3863
  289MOL0     C38913  10.627   2.688   6.557  0.3931 -1.3261  0.3682
  289MOL0     C38914  10.502   2.677   6.608  1.0069  0.2625 -0.0841
  289MOL0     C38915  10.440   2.775   6.673 -0.2475 -0.2045 -0.2809
  289MOL0     O38916  10.321   2.752   6.742  0.3126 -0.3017 -0.1549
  289MOL0     C38917  10.312   2.647   6.834  0.3617 -0.3917  1.0982
  289MOL0     C38918  10.163   2.612   6.853  0.2304 -0.1751  0.5029
  289MOL0     C38919  10.103   2.739   6.906  0.4045 -0.6004 -0.3093
  289MOL0     C38920   9.952   2.720   6.938  0.7717 -0.7563  0.2656
  289MOL0     C38921   9.875   2.854   6.947  0.0280 -0.6151 -0.1552
  289MOL0     C38922   9.731   2.827   6.986 -0.2107  0.4009 -0.1043
  289MOL0     C38923   9.647   2.953   6.994 -0.2468  0.5541  0.0575
  289MOL0     C38924   9.498   2.925   6.992  0.1261  0.3333  1.0704
  289MOL0    Cl38925   9.462   2.794   7.114  0.0310 -0.4779 -0.0530
  289MOL0     C38926  10.497   2.893   6.685 -0.4245 -0.1932 -0.7921
  289MOL0     C38927  10.628   2.914   6.647  0.1269  0.7440  0.5322
  289MOL0     O38928  10.905   2.637   6.585 -0.5702 -0.0185 -0.5529
  289MOL0     C38929  11.087   2.899   6.468 -0.2779  0.8656 -0.4579
  289MOL0     C38930  11.218   2.941   6.460  0.6939 -0.2823  0.0860
  289MOL0     N38931  11.894   3.033   5.923  0.1579  0.7218 -1.1488
  289MOL0     N38932  11.897   2.961   5.811  0.2443 -0.1893 -0.1071
  289MOL0     C38933  10.893   2.248   5.528  0.0846  0.1472 -0.3790
  289MOL0     C38934  10.772   2.181   5.504 -0.9348  0.0311 -0.3436
  289MOL0     C38935  10.381   1.955   5.664  0.1539 -0.2235  0.2608
  289MOL0     C38936  10.307   1.895   5.763  0.3491  0.3982  0.1056
  289MOL0     C38937  10.181   1.842   5.748 -0.1084 -0.0022 -0.7133
  289MOL0     C38938  10.129   1.847   5.616  0.5735 -0.1186 -0.4437
  289MOL0     O38939  10.004   1.789   5.597 -0.2271  0.0055  0.9841
  289MOL0     C38940   9.929   1.781   5.462 -0.1849  0.4034  0.4819
  289MOL0     C38941   9.999   1.668   5.383  0.6616 -0.0359 -0.5814
  289MOL0     C38942   9.930   1.647   5.253 -0.8709  0.6552  0.8209
  289MOL0     C38943   9.971   1.510   5.198 -1.1210  1.2216 -0.0003
  289MOL0     C38944  10.095   1.516   5.120  0.6903  0.5668 -0.4693
  289MOL0     C38945  10.194   1.523   5.048 -1.1089  0.3415  0.3800
  289MOL0     C38946  10.204   1.908   5.511 -1.0760  1.0803  0.1247
  289MOL0     C38947  10.329   1.966   5.537 -0.3285 -0.1968  0.1106
  289MOL0     H38948  10.646   2.189   5.811  0.5023 -3.7273 -0.9581
  289MOL0     H38949  10.833   2.345   5.850  1.7202 -1.4809  1.3666
  289MOL0     H38950  10.978   2.558   5.773  0.7728  0.8997  1.8618
  289MOL0     H38951  11.046   2.433   5.871 -3.1250 -2.9918 -1.3843
  289MOL0     H38952  11.182   2.629   5.668  0.6960 -2.2236 -1.4202
  289MOL0     H38953  11.209   2.595   5.843  1.8223 -2.1245  0.1415
  289MOL0     H38954  11.310   2.369   5.781 -0.9280 -0.1059 -0.2674
  289MOL0     H38955  11.285   2.412   5.620 -1.2676 -1.1491  0.3397
  289MOL0     H38956  11.417   2.620   5.639 -0.6703  1.3593  2.0481
  289MOL0     H38957  11.439   2.603   5.803  1.0421  0.6145  0.6139
  289MOL0     H38958  11.590   2.400   5.778 -0.2896  0.4934 -0.0864
  289MOL0     H38959  11.548   2.381   5.607 -2.0297 -1.3575  1.1101
  289MOL0     H38960  11.765   2.505   5.629  0.7653  0.0720  1.0243
  289MOL0     H38961  11.631   2.591   5.539  1.2194 -1.8292 -1.4513
  289MOL0     H38962  11.635   2.753   5.708 -1.4707 -1.7273  0.0033
  289MOL0     H38963  11.661   2.622   5.834 -1.3603  1.2347  0.0982
  289MOL0     H38964  11.888   2.718   5.655 -1.9308 -0.5947 -1.3665
  289MOL0     H38965  11.884   2.629   5.820 -1.5858  0.6402  1.6180
  289MOL0     H38966  11.810   2.756   6.042  3.4255 -0.4991  0.1776
  289MOL0     H38967  11.884   2.971   6.236  0.3728  2.7656  0.1192
  289MOL0     H38968  11.810   3.117   6.173  3.7076  0.1904 -0.1498
  289MOL0     H38969  11.651   2.867   6.230  3.3948 -0.2633  4.3491
  289MOL0     H38970  11.582   3.008   6.160 -1.0233 -4.4810 -0.9156
  289MOL0     H38971  11.683   3.115   6.394 -0.2820 -0.8667  1.3572
  289MOL0     H38972  11.698   2.959   6.443  0.1653  0.6738 -0.4154
  289MOL0     H38973  11.430   3.038   6.309  0.8857  1.7063 -0.3967
  289MOL0     H38974  11.469   3.081   6.484 -4.2651 -0.3179 -0.1071
  289MOL0     H38975  11.367   2.649   6.436  0.1846  1.3419 -2.1263
  289MOL0     H38976  11.199   2.466   6.405  0.2879  0.7674  1.1813
  289MOL0     H38977  11.089   2.493   6.544 -0.9796  1.8688  0.2136
  289MOL0     H38978  11.028   2.502   6.373 -0.4104 -2.1849  1.0967
  289MOL0     H38979  10.672   2.602   6.509  1.2956 -0.0442 -1.2077
  289MOL0     H38980  10.446   2.585   6.596 -0.9395  1.1486  1.6414
  289MOL0     H38981  10.358   2.558   6.789  0.2174 -0.0683  0.2989
  289MOL0     H38982  10.372   2.676   6.921  2.1074 -1.7857  0.4370
  289MOL0     H38983  10.124   2.574   6.758 -0.5894 -0.5050  0.9605
  289MOL0     H38984  10.139   2.531   6.923 -3.9413 -0.9047 -1.4462
  289MOL0     H38985  10.111   2.825   6.839 -1.9213 -0.3437 -0.3365
  289MOL0     H38986  10.153   2.772   6.998  0.2082 -1.7650  0.2369
  289MOL0     H38987   9.914   2.666   6.850  3.5389 -0.8895 -0.9713
  289MOL0     H38988   9.948   2.664   7.032  0.4651 -1.7421 -0.3161
  289MOL0     H38989   9.871   2.911   6.854  0.9227 -3.1749 -1.8741
  289MOL0     H38990   9.916   2.919   7.025 -1.9360  2.0509 -1.1642
  289MOL0     H38991   9.678   2.754   6.924 -0.7363  0.9937 -0.3657
  289MOL0     H38992   9.738   2.780   7.084 -0.2983 -0.9534 -0.7216
  289MOL0     H38993   9.674   3.017   6.909 -1.1657  0.1369 -0.5566
  289MOL0     H38994   9.674   3.002   7.089 -0.6338  2.7085 -0.8902
  289MOL0     H38995   9.455   2.896   6.896 -0.7743 -0.0751  1.5876
  289MOL0     H38996   9.466   3.028   7.010  1.4548  0.7557  1.1562
  289MOL0     H38997  10.446   2.970   6.743 -0.4469 -1.4339  0.9203
  289MOL0     H38998  10.674   3.009   6.669  0.3065  0.8643 -0.3303
  289MOL0     H38999  11.011   2.977   6.470 -1.3793 -0.1407 -1.8127
  289MOL0     H39000  11.235   3.049   6.458 -3.0083  0.4984 -3.9439
  289MOL0     H39001  10.964   2.263   5.447  2.7740 -0.1165  1.7861
  289MOL0     H39002  10.738   2.143   5.408  0.8446  1.0303 -1.4138
  289MOL0     H39003  10.356   1.899   5.860 -2.1391  2.0602  1.4002
  289MOL0     H39004  10.122   1.782   5.817 -0.3862 -1.0761 -1.8421
  289MOL0     H39005   9.824   1.757   5.481 -0.6996  1.9580 -0.2585
  289MOL0     H39006   9.937   1.876   5.408 -2.6042 -0.2230 -1.1123
  289MOL0     H39007   9.996   1.578   5.446  0.6929 -1.4430 -2.4822
  289MOL0     H39008  10.105   1.680   5.361  1.2862 -0.6388  1.7770
  289MOL0     H39009   9.968   1.731   5.194 -1.3082  0.5395  0.3655
  289MOL0     H39010   9.822   1.637   5.270 -0.7965 -2.4455  0.0792
  289MOL0     H39011   9.886   1.488   5.133  0.1699  1.0800 -1.7044
  289MOL0     H39012   9.987   1.430   5.271  3.9244 -0.0207 -2.0506
  289MOL0     H39013  10.279   1.536   4.984 -2.8095 -0.8566 -2.3234
  289MOL0     H39014  10.154   1.926   5.417 -1.5656  3.0607  0.7102
  289MOL0     H39015  10.379   2.018   5.456 -1.8344 -1.5258 -1.7915
  290MOL0     O39016   4.857   8.849   0.072 -0.4103 -0.3059 -0.6743
  290MOL0     C39017   4.937   8.759   0.055  0.2552  1.1564 -0.9161
  290MOL0     O39018   4.915   8.626   0.079  1.3368 -0.2897 -0.8900
  290MOL0     C39019   4.785   8.583   0.133 -0.3843 -0.6424  0.4490
  290MOL0     C39020   4.753   8.449   0.102 -0.2663 -0.1358 -0.7551
  290MOL0     C39021   4.638   8.391   0.154  0.5273 -0.3207 -0.5749
  290MOL0     C39022   4.545   8.466   0.238 -0.4248  0.2428 -0.1706
  290MOL0     O39023   4.463   8.389   0.316  0.0599 -0.6745 -0.7312
  290MOL0     C39024   4.330   8.445   0.351 -0.1321  0.9197  0.9034
  290MOL0     C39025   4.271   8.333   0.436  1.3422 -0.1778  0.1463
  290MOL0     C39026   4.137   8.391   0.483 -0.7029 -0.7139 -1.2242
  290MOL0     C39027   4.030   8.402   0.373  0.4272  0.3435 -0.0992
  290MOL0     C39028   3.878   8.427   0.422  0.3671 -0.7524  0.0559
  290MOL0     C39029   3.808   8.290   0.440  0.4134  0.1827 -0.3437
  290MOL0     C39030   3.749   8.228   0.308 -0.0819  0.0900 -0.4267
  290MOL0     C39031   3.673   8.099   0.357  0.0686  0.4456 -0.0079
  290MOL0     N39032   3.554   8.116   0.430 -0.2856 -0.5342  0.7059
  290MOL0     C39033   3.458   8.208   0.394 -0.1886 -0.4993  0.0953
  290MOL0     C39034   3.361   8.200   0.478 -0.6298 -0.3507  0.2663
  290MOL0     C39035   3.239   8.300   0.475 -0.2635  0.5819  0.2198
  290MOL0     C39036   3.114   8.253   0.395 -0.2045  0.3576 -0.4976
  290MOL0     C39037   3.157   8.217   0.256 -0.0005 -0.6505  0.1679
  290MOL0     C39038   3.052   8.250   0.147  0.2252  0.3426  1.6833
  290MOL0     O39039   3.112   8.207   0.022  0.0059 -0.0355  0.7468
  290MOL0     C39040   3.095   8.290  -0.088 -0.5754  0.6367 -0.5661
  290MOL0     C39041   3.017   8.401  -0.097  0.8847  0.0320 -0.3329
  290MOL0     C39042   3.005   8.486  -0.203 -0.5408  0.6476 -0.5533
  290MOL0     C39043   2.927   8.615  -0.195  0.4270  0.2150 -1.1264
  290MOL0     C39044   3.068   8.451  -0.324  0.0961  0.9713  0.2974
  290MOL0     C39045   3.068   8.538  -0.451 -0.2045 -0.2844 -0.3095
  290MOL0     O39046   3.129   8.470  -0.547 -0.0199  0.4475 -0.7990
  290MOL0     C39047   3.130   8.528  -0.670  0.7720 -0.6171  0.4391
  290MOL0     C39048   3.014   8.542  -0.748 -0.3615 -0.2171  0.2428
  290MOL0     C39049   3.018   8.615  -0.874  0.3324 -0.4879  0.0663
  290MOL0     C39050   3.141   8.663  -0.932 -0.1371 -0.3745  0.0813
  290MOL0     O39051   3.146   8.726  -1.055  0.3313 -0.1523  0.6432
  290MOL0     C39052   3.273   8.720  -1.124 -0.4697 -0.0165  0.5160
  290MOL0     C39053   3.248   8.764  -1.260  0.6260  0.2072  0.7096
  290MOL0     C39054   3.187   8.904  -1.272  0.2869  0.2972  0.7954
  290MOL0     C39055   3.146   8.920  -1.415  0.4048  0.3500  0.1516
  290MOL0     C39056   3.111   9.067  -1.454  0.4569 -0.7155 -1.7105
  290MOL0     C39057   3.083   9.088  -1.605 -0.1008  0.8397 -0.0187
  290MOL0     C39058   3.040   9.227  -1.641 -0.4198  0.3697 -0.4144
  290MOL0     C39059   2.943   9.239  -1.760  0.2638  0.1280  0.3520
  290MOL0    Cl39060   3.006   9.139  -1.899 -0.1337  0.1396  0.3191
  290MOL0     C39061   3.256   8.641  -0.856 -0.3054 -0.6703 -0.5597
  290MOL0     C39062   3.251   8.572  -0.733 -1.1393 -0.0840  0.3688
  290MOL0     O39063   3.022   8.658  -0.457 -0.0597  0.4971  0.2097
  290MOL0     C39064   3.153   8.335  -0.320 -0.5701 -0.0799 -0.6667
  290MOL0     C39065   3.167   8.254  -0.205 -0.1590 -0.5623 -0.1788
  290MOL0     N39066   3.399   8.106   0.574  0.0514 -0.1215 -0.3601
  290MOL0     N39067   3.514   8.054   0.537  0.6915  0.3571 -0.1906
  290MOL0     C39068   4.568   8.600   0.260  0.4002  0.2772  1.3741
  290MOL0     C39069   4.677   8.658   0.198  0.5919 -0.0917  0.1873
  290MOL0     C39070   5.080   8.786   0.004  0.5337  0.4805  0.2159
  290MOL0     C39071   5.101   8.916  -0.051  0.3018 -0.1408 -0.5499
  290MOL0     C39072   5.229   8.946  -0.097  0.5157  0.6645  0.2484
  290MOL0     C39073   5.343   8.850  -0.078 -0.1728 -0.1889  0.5942
  290MOL0     O39074   5.478   8.876  -0.093  1.0899 -0.5966  0.1741
  290MOL0     C39075   5.518   9.015  -0.098  0.8055  0.3571  0.2678
  290MOL0     C39076   5.506   9.085   0.041 -0.2014 -0.3845 -0.5689
  290MOL0     C39077   5.618   9.036   0.140  0.1428 -0.1468  0.1860
  290MOL0     C39078   5.601   9.107   0.268 -0.3270 -0.2633  0.7263
  290MOL0     C39079   5.706   9.066   0.361  0.1941  0.0018  0.5260
  290MOL0     C39080   5.777   9.025   0.444 -0.7165  0.8237 -0.0504
  290MOL0     C39081   5.311   8.718  -0.040 -1.0885 -0.8005 -0.2030
  290MOL0     C39082   5.184   8.689  -0.000  0.1542 -0.9771 -0.7523
  290MOL0     H39083   4.810   8.385   0.035 -0.2493 -0.0334 -0.8389
  290MOL0     H39084   4.618   8.289   0.125  2.0387  0.1013 -3.5021
  290MOL0     H39085   4.326   8.542   0.401  0.0148 -0.0293  2.8355
  290MOL0     H39086   4.267   8.454   0.262  0.2798  1.3080  0.6466
  290MOL0     H39087   4.253   8.242   0.378  2.0597 -0.2188 -0.0196
  290MOL0     H39088   4.334   8.299   0.518 -0.8732  0.1416  2.0875
  290MOL0     H39089   4.093   8.323   0.557  1.0802  0.3617  0.9414
  290MOL0     H39090   4.151   8.494   0.518 -3.3813 -0.2007 -1.4186
  290MOL0     H39091   4.055   8.484   0.305  2.9504 -0.2947 -0.0415
  290MOL0     H39092   4.019   8.317   0.304  2.1027  0.8518 -1.0604
  290MOL0     H39093   3.889   8.485   0.514 -0.4194  2.6040 -1.7828
  290MOL0     H39094   3.821   8.489   0.353  1.2491  0.1516  0.1104
  290MOL0     H39095   3.873   8.219   0.491  0.9634 -0.3090 -1.6800
  290MOL0     H39096   3.726   8.312   0.509  1.1975  0.4106  0.5281
  290MOL0     H39097   3.696   8.298   0.243  2.8238  1.0640 -1.9166
  290MOL0     H39098   3.832   8.197   0.243  0.2890 -0.3450  0.2426
  290MOL0     H39099   3.743   8.043   0.419  1.1276  0.6786 -0.9628
  290MOL0     H39100   3.658   8.039   0.267  2.1920  1.6849 -1.2689
  290MOL0     H39101   3.463   8.266   0.302 -0.1113 -1.5132 -0.5577
  290MOL0     H39102   3.198   8.320   0.575 -2.9950 -0.1401 -0.6706
  290MOL0     H39103   3.268   8.399   0.441  2.5285  0.5647  2.2036
  290MOL0     H39104   3.043   8.334   0.373  1.1880  1.3286 -1.6255
  290MOL0     H39105   3.062   8.172   0.447 -1.5364  1.0455 -0.6942
  290MOL0     H39106   3.176   8.110   0.243 -1.0569 -0.5227 -3.9785
  290MOL0     H39107   3.250   8.270   0.232  0.7317 -1.8688  0.2073
  290MOL0     H39108   3.025   8.355   0.159 -2.1555 -0.0100  0.1293
  290MOL0     H39109   2.957   8.197   0.161 -0.2196  1.1490  1.8072
  290MOL0     H39110   2.954   8.431  -0.014  2.9622  0.9987  0.9780
  290MOL0     H39111   2.866   8.610  -0.104 -0.7690 -1.1373 -1.9550
  290MOL0     H39112   3.002   8.692  -0.176 -1.2197  2.1802 -2.1700
  290MOL0     H39113   2.861   8.645  -0.276 -1.1871  1.5107  0.5915
  290MOL0     H39114   2.919   8.507  -0.708  1.7063 -3.3270  2.9055
  290MOL0     H39115   2.925   8.608  -0.929 -0.2754 -1.4603  1.1892
  290MOL0     H39116   3.345   8.791  -1.082  2.4257 -0.8872 -2.5989
  290MOL0     H39117   3.315   8.620  -1.130  1.2322  0.7689 -1.6420
  290MOL0     H39118   3.345   8.763  -1.312  0.0399 -1.8956 -0.4613
  290MOL0     H39119   3.183   8.684  -1.297  0.9313 -0.8344  2.3372
  290MOL0     H39120   3.249   8.989  -1.242  0.7266 -0.4500  2.0625
  290MOL0     H39121   3.097   8.906  -1.209  0.4387 -1.5129  1.1206
  290MOL0     H39122   3.219   8.866  -1.476 -0.2824 -2.9417  1.9815
  290MOL0     H39123   3.055   8.862  -1.436 -0.5713  1.3660  1.4049
  290MOL0     H39124   3.200   9.115  -1.414 -1.2425 -0.6809  2.5943
  290MOL0     H39125   3.031   9.112  -1.394  0.3294  1.7515 -3.5635
  290MOL0     H39126   3.169   9.049  -1.660  0.2647  0.6870  0.6417
  290MOL0     H39127   3.000   9.025  -1.637  1.8591 -2.1874  0.5081
  290MOL0     H39128   3.129   9.276  -1.680 -1.7034  0.5083 -3.4636
  290MOL0     H39129   2.998   9.277  -1.554  0.7926 -1.1550  1.1099
  290MOL0     H39130   2.933   9.345  -1.786  2.8053  0.1380 -0.8096
  290MOL0     H39131   2.850   9.194  -1.723 -0.0213 -0.3258 -0.8756
  290MOL0     H39132   3.358   8.671  -0.878  0.0057 -1.2219  0.0979
  290MOL0     H39133   3.344   8.553  -0.680 -0.0420  0.4071 -1.3195
  290MOL0     H39134   3.214   8.300  -0.402  1.0399 -2.5593  1.4383
  290MOL0     H39135   3.231   8.166  -0.202  3.1622  1.7267  2.4123
  290MOL0     H39136   4.491   8.665   0.302 -1.7050 -2.6877  2.4795
  290MOL0     H39137   4.679   8.764   0.219 -2.1893 -0.3741  2.4951
  290MOL0     H39138   5.018   8.985  -0.055  0.4816  0.1585  0.5835
  290MOL0     H39139   5.238   9.050  -0.128 -0.9641 -0.0022 -2.7208
  290MOL0     H39140   5.624   9.015  -0.124  1.2705  0.4602  2.0030
  290MOL0     H39141   5.454   9.075  -0.164 -1.4242  0.0478  2.0199
  290MOL0     H39142   5.410   9.062   0.088 -0.1860 -2.7595 -1.5488
  290MOL0     H39143   5.520   9.193   0.035  1.2146 -0.5161  0.0634
  290MOL0     H39144   5.720   9.036   0.100 -0.3103  2.5366 -1.2318
  290MOL0     H39145   5.597   8.930   0.154  2.2289 -0.6754 -0.3232
  290MOL0     H39146   5.506   9.074   0.312 -1.4480 -1.6598 -2.4333
  290MOL0     H39147   5.593   9.216   0.267  0.1651 -0.1630  2.8834
  290MOL0     H39148   5.859   8.998   0.508 -1.6061  1.5966  1.4949
  290MOL0     H39149   5.393   8.647  -0.046 -2.1013 -1.9900 -0.2446
  290MOL0     H39150   5.167   8.594   0.048 -3.0049 -0.3124 -0.3768
  291MOL0     O39151   9.628   9.872  10.804  0.4735 -0.2239 -0.6187
  291MOL0     C39152   9.646   9.971  10.733  1.0063  0.0103  0.0406
  291MOL0     O39153   9.761  10.039  10.723 -0.2700  0.5395  0.1579
  291MOL0     C39154   9.886   9.991  10.761  0.2656  0.1023 -0.2914
  291MOL0     C39155   9.987  10.073  10.815  0.3999  0.6440 -0.5054
  291MOL0     C39156  10.116  10.028  10.839  1.4028  0.4128  0.0060
  291MOL0     C39157  10.140   9.893  10.835 -0.3823 -0.5277  0.2432
  291MOL0     O39158  10.270   9.859  10.857  0.3348 -0.2614 -0.1974
  291MOL0     C39159  10.337   9.742  10.801  0.0819  0.0578  0.0631
  291MOL0     C39160  10.364   9.651  10.918  0.4228 -0.1649  0.5507
  291MOL0     C39161  10.382   9.513  10.879 -0.2754 -0.5144 -0.7044
  291MOL0     C39162  10.478   9.498  10.764  0.1814 -0.6837 -0.0667
  291MOL0     C39163  10.504   9.350  10.747 -0.0488 -0.6941 -0.0359
  291MOL0     C39164  10.623   9.323  10.643  1.0586 -0.2085 -0.1333
  291MOL0     C39165  10.769   9.370  10.663  0.7729 -0.7114 -0.2692
  291MOL0     C39166  10.828   9.302  10.784  0.3294 -0.7849 -0.4722
  291MOL0     N39167  10.962   9.353  10.822  0.2270  0.0098  0.1784
  291MOL0     C39168  11.070   9.370  10.736 -0.2503  0.5060  1.1405
  291MOL0     C39169  11.175   9.402  10.812 -0.8872 -0.2697  0.5810
  291MOL0     C39170  11.312   9.416  10.743  0.0883  0.2619 -0.0311
  291MOL0     C39171  11.429   9.348  10.805  0.2092 -0.7821  0.2049
  291MOL0     C39172  11.470   9.413  10.933 -0.3110  0.0578  0.9980
  291MOL0     C39173  11.616   9.401  10.963 -0.1150 -0.6715  0.7742
  291MOL0     O39174  11.643   9.263  10.970 -0.5796  0.4125  0.0472
  291MOL0     C39175  11.757   9.226  11.039 -0.0163 -1.3792  0.7790
  291MOL0     C39176  11.790   9.098  11.057  0.1386  0.2017 -0.0863
  291MOL0     C39177  11.911   9.048  11.116 -0.1743 -0.2370  0.0175
  291MOL0     C39178  11.928   8.897  11.122  0.2348 -0.3645  0.2234
  291MOL0     C39179  11.999   9.140  11.169 -0.5347  0.0900 -0.6349
  291MOL0     C39180  12.131   9.101  11.232 -0.0223  1.2539 -0.7186
  291MOL0     O39181  12.212   9.206  11.269 -0.1776  0.1878  1.1936
  291MOL0     C39182  12.333   9.193  11.325  0.0846 -0.1703 -0.6909
  291MOL0     C39183  12.432   9.100  11.298 -0.4831 -0.1960 -0.5531
  291MOL0     C39184  12.559   9.100  11.358 -0.1596  0.5817  0.0073
  291MOL0     C39185  12.592   9.195  11.451 -0.7060 -0.3383  0.0769
  291MOL0     O39186  12.726   9.187  11.485 -0.6762  0.1256 -0.8702
  291MOL0     C39187  12.795   9.312  11.516  0.2379  0.7243  0.6228
  291MOL0     C39188  12.940   9.329  11.478 -0.0451 -0.7774  0.6496
  291MOL0     C39189  13.035   9.253  11.570 -0.0239  0.9405  0.1412
  291MOL0     C39190  13.179   9.274  11.517 -0.2117 -0.3197 -0.3491
  291MOL0     C39191  13.273   9.193  11.609 -0.2354  0.4663 -0.0031
  291MOL0     C39192  13.305   9.269  11.741 -0.0858 -0.1191  0.2099
  291MOL0     C39193  13.401   9.192  11.827 -0.5745  0.1366 -0.2742
  291MOL0     C39194  13.402   9.265  11.961 -0.2937  0.0386 -0.3611
  291MOL0    Cl39195  13.487   9.421  11.962 -0.5004  0.6596  0.1314
  291MOL0     C39196  12.493   9.290  11.488  0.7201 -1.1281 -0.2614
  291MOL0     C39197  12.368   9.292  11.416 -0.1972 -0.5964 -0.3582
  291MOL0     O39198  12.163   8.980  11.238 -0.0648  0.0900 -0.1563
  291MOL0     C39199  11.970   9.279  11.140  0.4375  0.0648  0.2050
  291MOL0     C39200  11.859   9.318  11.069  0.4093  0.1943 -0.8619
  291MOL0     N39201  11.127   9.398  10.939  0.2068 -0.3068 -0.1697
  291MOL0     N39202  11.002   9.368  10.945  0.2013 -1.4800 -0.8339
  291MOL0     C39203  10.039   9.807  10.795 -0.1048  0.2485 -0.3164
  291MOL0     C39204   9.916   9.858  10.750  1.0040  0.5991  0.0600
  291MOL0     C39205   9.519  10.049  10.703  0.6819  1.2745  0.2179
  291MOL0     C39206   9.518  10.178  10.646 -0.1946 -0.4557  0.1985
  291MOL0     C39207   9.396  10.243  10.608 -0.6926  0.5942 -0.0584
  291MOL0     C39208   9.269  10.189  10.637 -0.5653  0.0515 -0.2613
  291MOL0     O39209   9.153  10.246  10.599  0.0383 -0.0371 -0.0213
  291MOL0     C39210   9.149  10.365  10.526 -0.3717 -0.6744 -0.4687
  291MOL0     C39211   9.010  10.427  10.491 -0.1565  0.5632 -0.0488
  291MOL0     C39212   8.921  10.309  10.447  0.2707 -0.2074  0.3201
  291MOL0     C39213   8.965  10.225  10.319  0.4837 -0.6324 -0.2316
  291MOL0     C39214   8.981  10.311  10.196 -0.1777  0.6601  0.0250
  291MOL0     C39215   9.004  10.372  10.093  0.4619  0.0185  0.2252
  291MOL0     C39216   9.269  10.066  10.712 -0.9207  0.9159  0.5527
  291MOL0     C39217   9.391   9.993  10.728  0.2817 -0.1309  0.5226
  291MOL0     H39218   9.969  10.180  10.812 -0.5226  0.5381  0.4184
  291MOL0     H39219  10.189  10.097  10.879  1.1540  1.2344 -0.9189
  291MOL0     H39220  10.286   9.685  10.723  3.3983 -1.1768 -1.3858
  291MOL0     H39221  10.429   9.780  10.755 -0.2152 -0.7626 -1.2540
  291MOL0     H39222  10.442   9.684  10.987  0.7957  1.8466 -0.7292
  291MOL0     H39223  10.268   9.660  10.970 -0.1183  0.9158 -0.5710
  291MOL0     H39224  10.415   9.459  10.968 -2.4016 -2.0317 -0.7460
  291MOL0     H39225  10.288   9.477  10.836  0.6596 -1.9192 -1.6430
  291MOL0     H39226  10.438   9.544  10.673  0.4821 -0.9149 -0.3194
  291MOL0     H39227  10.569   9.551  10.792  0.6338 -2.0955  1.2627
  291MOL0     H39228  10.540   9.302  10.838 -0.6567  0.4467  0.8338
  291MOL0     H39229  10.418   9.290  10.716  1.3926 -3.0260  0.2198
  291MOL0     H39230  10.625   9.215  10.627  2.7293 -0.4806  1.4919
  291MOL0     H39231  10.591   9.368  10.549 -0.7722  1.0312  1.0105
  291MOL0     H39232  10.823   9.331  10.576  0.3764 -2.6446  0.3044
  291MOL0     H39233  10.788   9.478  10.666  0.2200 -0.6196  0.3571
  291MOL0     H39234  10.830   9.195  10.766 -1.2993 -0.5629 -2.3980
  291MOL0     H39235  10.761   9.308  10.871  0.1573  0.0488 -0.6489
  291MOL0     H39236  11.083   9.344  10.631  3.0738 -0.2105  1.5967
  291MOL0     H39237  11.306   9.368  10.645 -0.6466  1.8371 -0.8034
  291MOL0     H39238  11.324   9.524  10.734 -2.8504  0.9248  2.2348
  291MOL0     H39239  11.510   9.359  10.732 -0.8666 -2.7494 -1.3720
  291MOL0     H39240  11.416   9.240  10.820 -3.9857 -0.3619  0.7598
  291MOL0     H39241  11.414   9.370  11.017 -1.9112 -0.5012 -0.3062
  291MOL0     H39242  11.434   9.516  10.930 -3.1689 -0.8409  1.0808
  291MOL0     H39243  11.651   9.456  11.051  3.5911 -2.2535  0.4762
  291MOL0     H39244  11.678   9.442  10.883 -0.6742 -0.5667  0.3951
  291MOL0     H39245  11.715   9.024  11.031  3.0195 -2.7874 -0.6228
  291MOL0     H39246  12.009   8.858  11.061 -1.4919 -0.7159 -1.9781
  291MOL0     H39247  11.939   8.867  11.227 -0.9163  1.8010  1.0377
  291MOL0     H39248  11.830   8.861  11.088 -1.1800  1.9406  1.5871
  291MOL0     H39249  12.414   9.020  11.227  0.5849  0.1066 -1.1808
  291MOL0     H39250  12.632   9.030  11.319 -0.1149  0.9272 -0.5380
  291MOL0     H39251  12.739   9.389  11.464  3.6506  1.0669 -3.0422
  291MOL0     H39252  12.781   9.337  11.622 -1.3555 -2.8795  1.4297
  291MOL0     H39253  12.946   9.279  11.381 -0.4183 -2.9399  1.6602
  291MOL0     H39254  12.972   9.432  11.460  1.4574 -1.1771  0.8781
  291MOL0     H39255  12.999   9.151  11.581 -0.8336  1.3345  1.4756
  291MOL0     H39256  13.012   9.303  11.665 -3.9208 -1.5081  0.7104
  291MOL0     H39257  13.187   9.242  11.413 -0.5274 -1.9439  0.0981
  291MOL0     H39258  13.201   9.380  11.527 -3.3807  0.3690  0.5061
  291MOL0     H39259  13.358   9.178  11.543  0.3172  1.8931  0.3510
  291MOL0     H39260  13.234   9.091  11.624 -0.3894 -0.0078 -3.0368
  291MOL0     H39261  13.357   9.362  11.717 -0.5823  1.1108  3.3977
  291MOL0     H39262  13.210   9.293  11.790 -0.0769  2.4570 -0.8686
  291MOL0     H39263  13.501   9.198  11.781 -0.0141 -0.3604  0.8539
  291MOL0     H39264  13.375   9.087  11.837  0.2081  0.0256  0.7413
  291MOL0     H39265  13.459   9.202  12.030  1.1018 -1.2742 -2.5680
  291MOL0     H39266  13.304   9.281  12.006  0.3003 -0.9792  1.3817
  291MOL0     H39267  12.505   9.353  11.576  1.2052 -1.6741  0.0738
  291MOL0     H39268  12.300   9.377  11.423  1.8387  1.7471 -4.5393
  291MOL0     H39269  12.044   9.356  11.160  0.4535  0.0736  0.1138
  291MOL0     H39270  11.846   9.424  11.054  0.1659  0.1955 -0.6477
  291MOL0     H39271  10.040   9.698  10.796 -1.7596  0.2145  0.8498
  291MOL0     H39272   9.840   9.785  10.722  1.2931  0.2915  0.0775
  291MOL0     H39273   9.606  10.238  10.626  0.4405 -1.3464  0.2854
  291MOL0     H39274   9.409  10.335  10.552 -1.7898  2.0864  1.9845
  291MOL0     H39275   9.209  10.433  10.587 -1.9884  0.1617  0.2559
  291MOL0     H39276   9.201  10.350  10.431  0.7786 -2.4064  0.3899
  291MOL0     H39277   9.019  10.501  10.410 -0.7219 -0.0558 -0.6915
  291MOL0     H39278   8.963  10.482  10.572  0.9475  2.1889 -0.4509
  291MOL0     H39279   8.824  10.354  10.426  0.8950  1.7401  1.2800
  291MOL0     H39280   8.904  10.251  10.538 -0.0029  0.7533  0.9015
  291MOL0     H39281   8.883  10.158  10.291 -0.9079  1.2595 -0.8480
  291MOL0     H39282   9.047  10.155  10.342 -1.2151 -2.6818 -0.1408
  291MOL0     H39283   9.008  10.427  10.001 -0.4950 -1.0541 -0.4893
  291MOL0     H39284   9.177  10.018  10.742  0.5207 -2.1365  0.4481
  291MOL0     H39285   9.385   9.897  10.778 -0.4998 -0.2028  0.2886
  292MOL0     O39286   8.639  10.861   1.982 -0.3272  0.7729  0.7436
  292MOL0     C39287   8.709  10.913   1.904 -0.7655 -0.0600  0.0176
  292MOL0     O39288   8.674  10.996   1.802 -0.2581  0.6536 -0.3306
  292MOL0     C39289   8.547  11.033   1.771 -1.1135 -0.4951  0.2741
  292MOL0     C39290   8.526  11.079   1.643 -0.5720  1.4992  0.6757
  292MOL0     C39291   8.398  11.113   1.600  0.0157  0.1551  0.0168
  292MOL0     C39292   8.292  11.108   1.687  0.5540 -0.4285  0.2490
  292MOL0     O39293   8.160  11.116   1.648 -0.1315  0.2385  1.0149
  292MOL0     C39294   8.134  11.166   1.516  0.2702 -0.5355 -0.2539
  292MOL0     C39295   7.988  11.174   1.495 -0.4782  0.4617  0.0778
  292MOL0     C39296   7.955  11.280   1.389  0.4743 -0.2617 -1.1474
  292MOL0     C39297   7.806  11.294   1.353 -0.3950 -0.7576 -0.1587
  292MOL0     C39298   7.721  11.350   1.462  1.0635 -0.7656 -0.9490
  292MOL0     C39299   7.731  11.506   1.460 -0.5157 -0.7005 -0.2695
  292MOL0     C39300   7.606  11.571   1.501 -0.0860  0.1510 -0.6416
  292MOL0     C39301   7.619  11.723   1.510  0.8932 -0.5515 -0.6776
  292MOL0     N39302   7.489  11.783   1.523  0.0574  0.0251  0.4161
  292MOL0     C39303   7.420  11.834   1.415 -0.8898 -0.3080  0.2013
  292MOL0     C39304   7.332  11.920   1.463  0.3277 -0.2024 -0.3514
  292MOL0     C39305   7.260  12.013   1.363  1.0330 -1.0077 -1.7943
  292MOL0     C39306   7.111  11.983   1.347  0.5774 -0.1381 -0.5653
  292MOL0     C39307   7.031  11.971   1.475 -0.5747  0.3383  0.4091
  292MOL0     C39308   6.881  11.989   1.450 -0.2331  0.3250 -0.1228
  292MOL0     O39309   6.798  11.950   1.565 -0.2752  0.1110 -0.0694
  292MOL0     C39310   6.663  11.975   1.551  0.8933  0.2376  0.2505
  292MOL0     C39311   6.599  12.035   1.441 -0.7053  0.8016  1.1518
  292MOL0     C39312   6.462  12.034   1.424  0.2896  0.0689 -0.7137
  292MOL0     C39313   6.406  12.097   1.294  1.4119  1.0404 -0.4904
  292MOL0     C39314   6.375  11.981   1.533  0.6014 -0.0355  1.0221
  292MOL0     C39315   6.224  11.987   1.515  0.6133  1.0310 -0.4479
  292MOL0     O39316   6.153  11.929   1.628 -0.6841  0.5445  0.2498
  292MOL0     C39317   6.017  11.906   1.609 -1.1257 -0.3289 -0.1581
  292MOL0     C39318   5.931  12.004   1.659  0.3214 -0.5306 -0.3412
  292MOL0     C39319   5.795  11.985   1.653  0.3313 -0.1578  0.4146
  292MOL0     C39320   5.742  11.865   1.602 -0.4237  0.5855  0.3049
  292MOL0     O39321   5.605  11.863   1.601  0.9739 -0.3916 -0.8817
  292MOL0     C39322   5.531  11.742   1.576 -0.4605  0.2488  0.7749
  292MOL0     C39323   5.411  11.754   1.666  0.6879  0.2264  0.3355
  292MOL0     C39324   5.334  11.620   1.671  0.7118 -0.2301 -0.5232
  292MOL0     C39325   5.200  11.625   1.751  0.9011 -0.2299  0.7300
  292MOL0     C39326   5.136  11.484   1.773  0.0454 -0.2605 -0.1311
  292MOL0     C39327   4.982  11.488   1.804  0.9515  0.4518  0.2650
  292MOL0     C39328   4.955  11.352   1.871  0.5947  0.4079  0.7081
  292MOL0     C39329   4.982  11.380   2.017 -0.0809 -0.3228  0.7185
  292MOL0    Cl39330   4.941  11.245   2.121  0.5153  0.3914 -0.0706
  292MOL0     C39331   5.825  11.759   1.555 -0.2118  0.2517 -0.2159
  292MOL0     C39332   5.967  11.779   1.566  0.2427 -0.7696  0.7387
  292MOL0     O39333   6.178  12.013   1.409  0.4908 -0.3608  0.1652
  292MOL0     C39334   6.438  11.923   1.650 -0.2129 -0.1434  0.7036
  292MOL0     C39335   6.581  11.914   1.645 -1.4215  0.5333 -0.2475
  292MOL0     N39336   7.336  11.918   1.599  0.0198  0.6276  0.1224
  292MOL0     N39337   7.436  11.840   1.632  0.4140  0.6903  0.2876
  292MOL0     C39338   8.316  11.090   1.823  0.2132  1.0094  0.1528
  292MOL0     C39339   8.445  11.058   1.862  0.4010 -0.2029  0.0516
  292MOL0     C39340   8.857  10.867   1.908 -0.0192 -0.5667  0.7094
  292MOL0     C39341   8.941  10.891   1.797 -0.6687  0.1334  0.2404
  292MOL0     C39342   9.080  10.875   1.809  0.0106 -0.3172 -0.5927
  292MOL0     C39343   9.130  10.813   1.930 -0.4295  0.1561 -0.0159
  292MOL0     O39344   9.263  10.786   1.948 -0.8797  0.5736  0.9510
  292MOL0     C39345   9.343  10.751   1.835  0.0538 -0.1974  0.2043
  292MOL0     C39346   9.469  10.840   1.822  0.3032 -0.5666 -0.0969
  292MOL0     C39347   9.551  10.802   1.695 -0.7704  0.3526  0.2239
  292MOL0     C39348   9.695  10.837   1.727 -0.3044 -0.7068 -0.1123
  292MOL0     C39349   9.787  10.835   1.611  0.4034 -0.5361  0.2265
  292MOL0     C39350   9.855  10.828   1.509  0.0643 -0.5049 -0.0187
  292MOL0     C39351   9.044  10.779   2.035 -0.1787 -0.3691 -0.0802
  292MOL0     C39352   8.907  10.811   2.023 -0.0315  0.0754 -0.4604
  292MOL0     H39353   8.612  11.087   1.577 -0.3888  2.5886  1.0307
  292MOL0     H39354   8.382  11.136   1.495 -1.7194  1.5579  0.5372
  292MOL0     H39355   8.154  11.272   1.531  1.4081 -1.2191  5.2651
  292MOL0     H39356   8.198  11.120   1.441  0.8606 -3.7600  1.9893
  292MOL0     H39357   7.956  11.074   1.466 -0.0281  0.2186  0.4136
  292MOL0     H39358   7.946  11.197   1.594  3.9558 -0.4875  2.4281
  292MOL0     H39359   7.986  11.379   1.422 -1.2669  1.1171 -3.3734
  292MOL0     H39360   8.010  11.255   1.298  0.1392 -1.4941 -1.0379
  292MOL0     H39361   7.793  11.360   1.268 -3.1031 -3.2655 -1.9099
  292MOL0     H39362   7.764  11.198   1.321  0.3999 -0.8102 -1.0829
  292MOL0     H39363   7.614  11.333   1.447  1.2576 -1.6334 -1.4433
  292MOL0     H39364   7.759  11.320   1.560 -0.8480  4.4854  1.7594
  292MOL0     H39365   7.801  11.528   1.541 -0.7650  1.8313 -0.6573
  292MOL0     H39366   7.773  11.554   1.372  1.2995  0.4150  1.1331
  292MOL0     H39367   7.516  11.543   1.445 -0.9229  0.1762  0.6512
  292MOL0     H39368   7.586  11.548   1.605  0.9131  2.5425  0.1563
  292MOL0     H39369   7.657  11.756   1.413  1.6163 -1.9624 -0.9054
  292MOL0     H39370   7.673  11.755   1.599 -1.1716  4.6753 -0.9782
  292MOL0     H39371   7.440  11.800   1.313 -1.5057 -4.6184  1.3015
  292MOL0     H39372   7.281  12.113   1.402  1.0458 -1.5527 -0.3343
  292MOL0     H39373   7.304  11.996   1.264  1.7399 -0.6173 -1.5509
  292MOL0     H39374   7.119  11.889   1.293  1.0015  0.2883 -1.2704
  292MOL0     H39375   7.057  12.051   1.279  0.7914  1.2975  0.6514
  292MOL0     H39376   7.066  12.043   1.549  1.1715  0.9284 -0.9287
  292MOL0     H39377   7.051  11.874   1.521 -2.8923 -0.7067 -0.6124
  292MOL0     H39378   6.852  11.933   1.360  0.8153  1.2808 -1.0987
  292MOL0     H39379   6.872  12.097   1.431 -0.2023  0.4922  0.8030
  292MOL0     H39380   6.663  12.068   1.360  0.4764 -3.0694  0.2862
  292MOL0     H39381   6.322  12.165   1.307 -2.0631 -2.8896 -0.3777
  292MOL0     H39382   6.480  12.162   1.246  2.3506  0.7529  0.5197
  292MOL0     H39383   6.386  12.020   1.219  0.9618 -0.1097  0.7885
  292MOL0     H39384   5.963  12.098   1.703  2.6181 -1.8699  1.0803
  292MOL0     H39385   5.725  12.064   1.679  1.5089 -0.2408  4.5158
  292MOL0     H39386   5.505  11.720   1.472 -0.5782  3.2588  0.0804
  292MOL0     H39387   5.593  11.660   1.615  3.3767  0.9084 -3.1796
  292MOL0     H39388   5.449  11.775   1.766 -0.2127 -1.0228  0.9588
  292MOL0     H39389   5.357  11.838   1.622 -1.0040 -0.4632  1.0349
  292MOL0     H39390   5.396  11.539   1.711  0.5789  0.7710  1.8938
  292MOL0     H39391   5.295  11.590   1.574 -1.9666 -0.2317  0.4717
  292MOL0     H39392   5.208  11.675   1.848  2.9632  1.9407 -0.4428
  292MOL0     H39393   5.140  11.688   1.683 -1.6874 -0.0111  3.0461
  292MOL0     H39394   5.198  11.433   1.848  1.1972  0.3639 -0.6309
  292MOL0     H39395   5.147  11.424   1.683 -1.1378 -0.5641 -0.0869
  292MOL0     H39396   4.959  11.578   1.862  0.3341 -0.6510  1.8023
  292MOL0     H39397   4.914  11.491   1.718  0.3590 -0.3956  0.6861
  292MOL0     H39398   5.022  11.280   1.823 -0.1606  0.7917 -0.9793
  292MOL0     H39399   4.856  11.310   1.852  0.8556 -0.2017  0.6724
  292MOL0     H39400   4.926  11.467   2.053 -1.0132 -0.1059 -1.1190
  292MOL0     H39401   5.088  11.393   2.039 -0.4341  1.8376  1.3817
  292MOL0     H39402   5.765  11.677   1.519 -1.6317  1.3528 -0.4484
  292MOL0     H39403   6.019  11.694   1.524  0.1376  0.0379 -1.1328
  292MOL0     H39404   6.377  11.873   1.725 -1.3648 -1.3096 -0.9433
  292MOL0     H39405   6.626  11.845   1.715 -2.1121 -2.0168 -2.1489
  292MOL0     H39406   8.235  11.100   1.895  1.1647 -1.6153  1.6849
  292MOL0     H39407   8.462  11.041   1.968 -1.3211 -0.0112  0.3794
  292MOL0     H39408   8.894  10.938   1.711 -2.6304 -1.4249  0.3832
  292MOL0     H39409   9.139  10.907   1.724 -0.9384 -1.8227 -1.8647
  292MOL0     H39410   9.380  10.650   1.849 -1.5962 -0.7869  0.6003
  292MOL0     H39411   9.294  10.747   1.738 -1.3979 -0.4338  0.9159
  292MOL0     H39412   9.535  10.835   1.908 -0.7058  0.0075  0.7328
  292MOL0     H39413   9.441  10.945   1.807  2.6836 -0.0090 -0.9736
  292MOL0     H39414   9.520  10.857   1.606 -1.5427 -1.6513 -0.7826
  292MOL0     H39415   9.563  10.695   1.676 -1.1862  0.7305 -2.4352
  292MOL0     H39416   9.728  10.765   1.801 -1.8623 -1.6131 -0.2479
  292MOL0     H39417   9.704  10.932   1.780 -1.6636  1.2940 -3.1566
  292MOL0     H39418   9.919  10.834   1.423 -0.3859 -0.9739 -0.3937
  292MOL0     H39419   9.095  10.734   2.119  0.1419  1.7801  0.9420
  292MOL0     H39420   8.840  10.785   2.104 -0.5119 -0.8807 -1.1462
  293MOL0     O39421   4.229   0.657   3.601  0.1949  0.2281 -0.4094
  293MOL0     C39422   4.274   0.568   3.680 -0.2301 -0.1169 -0.7516
  293MOL0     O39423   4.397   0.504   3.662 -0.5525  0.6839  0.8172
  293MOL0     C39424   4.468   0.542   3.553  0.2187 -1.0089  1.0182
  293MOL0     C39425   4.556   0.648   3.553  1.4709  0.8498 -1.5074
  293MOL0     C39426   4.607   0.699   3.434  0.9704 -0.3362 -0.5023
  293MOL0     C39427   4.574   0.636   3.307 -0.8861 -0.4599 -0.5082
  293MOL0     O39428   4.639   0.694   3.206  0.1617 -0.5434 -0.7346
  293MOL0     C39429   4.651   0.648   3.074 -0.5101  0.1656 -0.2221
  293MOL0     C39430   4.654   0.772   2.980  0.5283  0.0623 -1.2987
  293MOL0     C39431   4.782   0.864   2.990 -0.3378  0.3911 -0.4311
  293MOL0     C39432   4.791   0.970   2.883 -0.0584 -0.6775 -0.0817
  293MOL0     C39433   4.925   1.036   2.896 -0.1670  0.0042  0.0090
  293MOL0     C39434   4.917   1.174   2.824  0.1300 -0.4754  0.8481
  293MOL0     C39435   4.851   1.187   2.684  0.7083 -1.2547  0.5109
  293MOL0     C39436   4.919   1.296   2.606  1.1271 -0.5225 -0.2111
  293MOL0     N39437   4.848   1.300   2.478 -0.3402 -0.4102 -0.6520
  293MOL0     C39438   4.734   1.369   2.443  0.0944  0.3615 -0.2361
  293MOL0     C39439   4.701   1.329   2.316  0.2671 -1.2034  0.3765
  293MOL0     C39440   4.575   1.380   2.243 -0.2048 -0.4567 -0.5703
  293MOL0     C39441   4.449   1.328   2.294  0.1618  0.4772  0.0127
  293MOL0     C39442   4.433   1.181   2.273 -0.2515  0.6144 -0.1624
  293MOL0     C39443   4.293   1.126   2.316  0.3541 -0.3186  0.3851
  293MOL0     O39444   4.301   0.977   2.314 -0.1700 -0.0398  0.1532
  293MOL0     C39445   4.195   0.898   2.367  0.5281 -0.5162  0.2738
  293MOL0     C39446   4.216   0.764   2.400 -0.3014 -0.4757  0.4002
  293MOL0     C39447   4.109   0.685   2.448  0.9667  0.0886 -0.1541
  293MOL0     C39448   4.130   0.535   2.485 -0.1502 -0.0109  0.4788
  293MOL0     C39449   3.976   0.735   2.439 -0.1343  0.5119 -0.0259
  293MOL0     C39450   3.854   0.661   2.477 -0.4097 -0.4927  1.0043
  293MOL0     O39451   3.772   0.725   2.561  0.2339  0.3211  0.0891
  293MOL0     C39452   3.638   0.684   2.576 -0.3488  0.7995  1.0783
  293MOL0     C39453   3.585   0.679   2.703  0.7833 -0.1395 -0.0574
  293MOL0     C39454   3.459   0.626   2.728  0.1986  0.5318 -0.8762
  293MOL0     C39455   3.374   0.581   2.625 -0.6281 -0.3798 -0.0788
  293MOL0     O39456   3.252   0.532   2.659 -0.0210  0.8541  0.2477
  293MOL0     C39457   3.149   0.501   2.562 -0.0279  0.0915 -0.8917
  293MOL0     C39458   3.025   0.453   2.627  0.0092  0.3017 -0.5562
  293MOL0     C39459   2.938   0.378   2.522 -0.4399  0.6976 -0.6199
  293MOL0     C39460   2.823   0.289   2.587 -0.2636  0.0130  0.3725
  293MOL0     C39461   2.714   0.253   2.487 -0.2219 -0.9809  0.0671
  293MOL0     C39462   2.591   0.196   2.539  0.6968  0.4862 -0.4643
  293MOL0     C39463   2.502   0.127   2.422  0.4490 -0.1087  0.0366
  293MOL0     C39464   2.367   0.072   2.471 -1.2387  0.1279 -0.6750
  293MOL0    Cl39465   2.272   0.212   2.536 -0.1565  0.1918 -0.0421
  293MOL0     C39466   3.420   0.595   2.487 -0.3797  0.5373  0.0798
  293MOL0     C39467   3.548   0.648   2.470 -0.5941 -0.0387  0.4623
  293MOL0     O39468   3.825   0.553   2.419 -0.6428  0.0059  0.0143
  293MOL0     C39469   3.951   0.870   2.404  0.6751  0.2848  0.2353
  293MOL0     C39470   4.063   0.947   2.376  0.8293 -0.4236  0.2536
  293MOL0     N39471   4.790   1.228   2.289  0.9199  0.1683  0.5547
  293MOL0     N39472   4.862   1.203   2.388 -0.1281  0.3006  0.5724
  293MOL0     C39473   4.483   0.530   3.315 -0.0544  0.8327 -0.0518
  293MOL0     C39474   4.430   0.483   3.432 -0.0366  0.0550 -1.8327
  293MOL0     C39475   4.186   0.523   3.792  0.5553 -0.4007 -0.7807
  293MOL0     C39476   4.067   0.597   3.820  0.0711  0.3235  0.0803
  293MOL0     C39477   3.986   0.559   3.927  0.6861  0.4129 -0.0579
  293MOL0     C39478   4.006   0.454   4.011 -0.5746 -0.0489  0.4168
  293MOL0     O39479   3.917   0.414   4.110 -0.0919 -0.2638  0.1832
  293MOL0     C39480   3.955   0.447   4.240  0.2989  0.6023  0.7129
  293MOL0     C39481   3.993   0.327   4.324 -0.0120 -0.0256  0.3506
  293MOL0     C39482   3.897   0.209   4.326 -0.3154 -1.3087  0.3861
  293MOL0     C39483   3.953   0.087   4.384  0.2170 -0.4626 -0.2029
  293MOL0     C39484   4.046   0.113   4.500 -0.5163 -0.0952  0.0703
  293MOL0     C39485   4.125   0.131   4.602  0.2486  0.0095  0.8213
  293MOL0     C39486   4.124   0.388   3.992 -0.0519 -0.7569  0.4098
  293MOL0     C39487   4.216   0.423   3.881 -0.5674 -0.4751 -0.5047
  293MOL0     H39488   4.576   0.699   3.646 -1.1801 -2.6993  1.3431
  293MOL0     H39489   4.669   0.788   3.437 -0.4248  0.7978 -2.6810
  293MOL0     H39490   4.739   0.585   3.060 -0.1254  1.0893 -2.4123
  293MOL0     H39491   4.566   0.583   3.052  0.5365 -1.5982  0.7063
  293MOL0     H39492   4.654   0.730   2.879 -2.0599 -1.2555 -0.8402
  293MOL0     H39493   4.563   0.831   2.993  0.8913  0.3115  0.4447
  293MOL0     H39494   4.777   0.920   3.084 -3.6387  0.0713 -0.2970
  293MOL0     H39495   4.875   0.808   2.975  0.6444  1.7581  0.3398
  293MOL0     H39496   4.778   0.939   2.779  2.8873  2.8584 -1.7239
  293MOL0     H39497   4.707   1.036   2.907 -0.1653 -0.3795 -1.2296
  293MOL0     H39498   4.947   1.062   2.999  0.6407 -1.3235  0.1861
  293MOL0     H39499   5.010   0.974   2.867 -0.4156 -0.8941  1.1118
  293MOL0     H39500   4.867   1.243   2.892 -0.5376 -1.3479  1.2610
  293MOL0     H39501   5.022   1.205   2.822  0.1182  0.0294 -3.8481
  293MOL0     H39502   4.858   1.094   2.626  2.4457 -1.4045  0.8926
  293MOL0     H39503   4.744   1.209   2.691  0.5659 -2.0391  0.8775
  293MOL0     H39504   5.027   1.286   2.593  0.8119 -1.4056 -2.7601
  293MOL0     H39505   4.901   1.388   2.661 -0.0549  0.7713 -2.5907
  293MOL0     H39506   4.698   1.448   2.508  0.9571 -1.1372  2.1941
  293MOL0     H39507   4.562   1.488   2.251 -0.8723 -0.5644 -0.1154
  293MOL0     H39508   4.587   1.354   2.137 -1.5231 -0.5383 -0.7107
  293MOL0     H39509   4.359   1.380   2.258 -1.2166 -2.5645 -1.2652
  293MOL0     H39510   4.446   1.335   2.403 -0.5192 -2.5695  0.2814
  293MOL0     H39511   4.513   1.120   2.315 -0.9250  0.5400  1.0415
  293MOL0     H39512   4.434   1.157   2.166 -0.6866  2.6710 -0.6708
  293MOL0     H39513   4.203   1.164   2.267 -2.4425 -0.6059  4.7404
  293MOL0     H39514   4.282   1.160   2.419 -0.6965  2.8735 -0.6527
  293MOL0     H39515   4.321   0.734   2.401 -0.5634 -1.4256  0.6351
  293MOL0     H39516   4.098   0.515   2.587  1.8927  1.3112  1.4472
  293MOL0     H39517   4.065   0.474   2.421 -0.4774 -1.5284  2.1758
  293MOL0     H39518   4.236   0.506   2.476  0.0835  1.3081 -1.6718
  293MOL0     H39519   3.645   0.722   2.782 -1.5780 -0.5652  2.0832
  293MOL0     H39520   3.430   0.631   2.833  5.2321  2.3352  0.7361
  293MOL0     H39521   3.132   0.585   2.494  0.7299  1.1951  0.2386
  293MOL0     H39522   3.202   0.422   2.508 -2.1201  0.3209 -3.4801
  293MOL0     H39523   3.051   0.385   2.709 -1.5397  1.2395  0.7705
  293MOL0     H39524   2.981   0.536   2.683 -2.7687 -0.2451 -1.8096
  293MOL0     H39525   3.010   0.320   2.463  0.3759  1.8514 -0.7988
  293MOL0     H39526   2.898   0.450   2.451  1.6864  0.9727 -1.6150
  293MOL0     H39527   2.866   0.204   2.641  1.0261 -0.0541 -0.7013
  293MOL0     H39528   2.786   0.357   2.663  0.0756 -0.3466  0.8679
  293MOL0     H39529   2.755   0.192   2.405 -0.4750  1.2510 -1.8361
  293MOL0     H39530   2.678   0.349   2.449 -1.4008 -1.7212 -0.7582
  293MOL0     H39531   2.625   0.124   2.614  0.7325  1.5349  0.5568
  293MOL0     H39532   2.535   0.268   2.599  2.3115  2.7538 -1.5441
  293MOL0     H39533   2.560   0.041   2.388  1.5662 -0.0203  1.5870
  293MOL0     H39534   2.480   0.201   2.345  0.7563 -1.0858 -1.0117
  293MOL0     H39535   2.385  -0.010   2.542 -1.8307  1.1853  0.7501
  293MOL0     H39536   2.321   0.041   2.377 -0.8257 -1.0349 -0.5118
  293MOL0     H39537   3.355   0.566   2.405  0.0674  0.3748 -0.2193
  293MOL0     H39538   3.574   0.646   2.365 -0.5178  0.5425  0.4673
  293MOL0     H39539   3.851   0.908   2.419 -0.1370 -2.1273  1.4780
  293MOL0     H39540   4.039   1.053   2.376  2.4069 -0.0206  1.6859
  293MOL0     H39541   4.478   0.484   3.217 -0.0194  0.1257  0.2734
  293MOL0     H39542   4.347   0.414   3.425 -0.0600 -0.1398 -0.1069
  293MOL0     H39543   4.038   0.694   3.778 -1.1197  0.2257  0.6431
  293MOL0     H39544   3.906   0.626   3.957  1.2254 -0.1219  2.8798
  293MOL0     H39545   4.037   0.519   4.240  1.2627 -0.4444  2.2759
  293MOL0     H39546   3.872   0.502   4.285  0.8171  1.7577  0.2797
  293MOL0     H39547   4.024   0.370   4.420  2.5307  0.1151 -0.4601
  293MOL0     H39548   4.081   0.279   4.279 -2.0478 -4.2097  0.2880
  293MOL0     H39549   3.870   0.187   4.222  0.8806  2.1196 -0.7554
  293MOL0     H39550   3.812   0.242   4.387 -1.0077  2.0259 -2.1073
  293MOL0     H39551   4.008   0.040   4.302  0.8008 -0.1817  0.0295
  293MOL0     H39552   3.868   0.027   4.419  0.5096 -0.2848  0.8430
  293MOL0     H39553   4.193   0.149   4.683  0.9448  1.1650  0.0102
  293MOL0     H39554   4.149   0.323   4.075 -1.9823 -1.3478  0.5645
  293MOL0     H39555   4.316   0.384   3.863  1.1116  3.7697 -1.5311
  294MOL0     O39556   2.406   2.669   7.538 -0.3577  0.1156 -0.2535
  294MOL0     C39557   2.387   2.581   7.447  0.0340  0.3882  0.0006
  294MOL0     O39558   2.273   2.514   7.415 -0.0714  0.9658  0.0532
  294MOL0     C39559   2.165   2.494   7.504  0.0559  0.0159  0.1091
  294MOL0     C39560   2.134   2.561   7.621 -0.4080 -0.2973 -0.1053
  294MOL0     C39561   2.013   2.543   7.688 -0.3406 -1.0830  0.1235
  294MOL0     C39562   1.920   2.448   7.637 -0.2675  0.5097 -0.9288
  294MOL0     O39563   1.809   2.405   7.707  0.0766  0.7406  0.6112
  294MOL0     C39564   1.723   2.498   7.767 -0.3025  0.8295 -0.2199
  294MOL0     C39565   1.587   2.492   7.691  0.0661 -0.1903 -0.4469
  294MOL0     C39566   1.502   2.614   7.721  0.7831  0.1382 -0.2678
  294MOL0     C39567   1.370   2.627   7.641  0.2724 -0.0369 -0.1453
  294MOL0     C39568   1.280   2.500   7.636 -0.0416  0.5407 -0.5434
  294MOL0     C39569   1.242   2.431   7.765 -0.1731  0.4564  0.7216
  294MOL0     C39570   1.156   2.300   7.733 -0.0497  0.9069 -0.8316
  294MOL0     C39571   1.083   2.247   7.858 -0.0939  0.2400 -0.1419
  294MOL0     N39572   0.963   2.316   7.905  0.1750  0.1765 -0.0087
  294MOL0     C39573   0.842   2.257   7.887  0.7750  0.2112  0.5952
  294MOL0     C39574   0.759   2.332   7.969  0.0882  0.0229  0.0252
  294MOL0     C39575   0.621   2.307   8.018 -0.0908  0.2502  0.4350
  294MOL0     C39576   0.528   2.296   7.894  0.0309 -0.0986 -0.0629
  294MOL0     C39577   0.388   2.230   7.930 -0.6518 -0.2248  0.4882
  294MOL0     C39578   0.316   2.180   7.809  0.1596 -0.3651 -0.1526
  294MOL0     O39579   0.335   2.254   7.690 -0.1201 -0.6486  0.1814
  294MOL0     C39580   0.229   2.246   7.608  0.4100 -0.5961 -0.3324
  294MOL0     C39581   0.118   2.330   7.643 -0.4349  0.1371 -0.0852
  294MOL0     C39582   0.007   2.315   7.580 -0.2364  0.6250  0.5679
  294MOL0     C39583  -0.098   2.415   7.621  0.4099 -0.3514  0.9302
  294MOL0     C39584  -0.007   2.228   7.464  0.1814 -0.0075 -0.3376
  294MOL0     C39585  -0.131   2.211   7.385 -0.9026 -0.3041  0.4087
  294MOL0     O39586  -0.135   2.102   7.310 -0.6139 -0.4396 -0.1509
  294MOL0     C39587  -0.225   2.110   7.205  0.6299 -0.2812  0.4195
  294MOL0     C39588  -0.338   2.027   7.205  0.7680 -0.1967 -0.4453
  294MOL0     C39589  -0.428   2.018   7.093  0.3412  0.9145 -0.6818
  294MOL0     C39590  -0.406   2.108   6.984  0.3849  0.3518 -0.3542
  294MOL0     O39591  -0.500   2.097   6.878 -0.4689  0.2338  0.1028
  294MOL0     C39592  -0.484   2.172   6.753 -0.1302 -0.2004 -0.6431
  294MOL0     C39593  -0.596   2.131   6.658  0.4312 -0.2275 -0.6327
  294MOL0     C39594  -0.732   2.201   6.707 -0.0853  0.0248 -0.2302
  294MOL0     C39595  -0.841   2.177   6.603  0.0574 -0.1305 -0.1576
  294MOL0     C39596  -0.968   2.258   6.645 -1.1104  0.4658  0.3385
  294MOL0     C39597  -1.089   2.216   6.562  0.4365  0.0675  0.2587
  294MOL0     C39598  -1.228   2.271   6.595  0.5480  0.2051  0.2917
  294MOL0     C39599  -1.280   2.203   6.722  0.5461 -0.5714 -0.0469
  294MOL0    Cl39600  -1.401   2.317   6.802 -0.3851 -0.1588 -0.4847
  294MOL0     C39601  -0.294   2.193   6.990 -0.5734  0.1358  0.5138
  294MOL0     C39602  -0.205   2.191   7.094 -0.3186 -0.4494 -0.7935
  294MOL0     O39603  -0.218   2.296   7.396 -0.1989  0.4339  0.3176
  294MOL0     C39604   0.110   2.158   7.425 -0.1155  0.3217 -0.3529
  294MOL0     C39605   0.223   2.159   7.504 -0.0972  0.2761  0.2434
  294MOL0     N39606   0.824   2.441   8.025 -0.8531  0.0135  0.3129
  294MOL0     N39607   0.954   2.436   7.977 -0.3186 -0.1580 -0.3480
  294MOL0     C39608   1.957   2.368   7.529 -0.2941 -1.4980  0.0960
  294MOL0     C39609   2.077   2.396   7.463 -0.4678 -0.0909 -0.3342
  294MOL0     C39610   2.504   2.558   7.354 -0.2394  1.1023 -1.3626
  294MOL0     C39611   2.503   2.445   7.272  0.6151  0.4995 -0.8859
  294MOL0     C39612   2.607   2.409   7.192  0.9304 -0.3417  0.5431
  294MOL0     C39613   2.727   2.474   7.193  0.8498 -0.8307 -0.8863
  294MOL0     O39614   2.835   2.448   7.117 -0.1739 -0.2100 -0.4723
  294MOL0     C39615   2.814   2.376   6.993  0.8979 -0.4720 -0.2270
  294MOL0     C39616   2.946   2.343   6.937 -0.1696  0.7615  0.9450
  294MOL0     C39617   2.924   2.311   6.784  0.0531  0.1513  0.0171
  294MOL0     C39618   3.053   2.313   6.706 -0.9910 -0.7278 -0.8946
  294MOL0     C39619   3.170   2.276   6.786  0.2153  0.2938 -0.4283
  294MOL0     C39620   3.279   2.255   6.833 -0.2536 -0.4047  0.0897
  294MOL0     C39621   2.743   2.578   7.288 -0.8245 -0.0616 -0.6740
  294MOL0     C39622   2.631   2.628   7.367 -0.7883  1.1960 -0.4389
  294MOL0     H39623   2.204   2.634   7.659 -2.0813  1.6917 -0.6970
  294MOL0     H39624   1.980   2.596   7.777  0.5987  1.4845 -0.9309
  294MOL0     H39625   1.706   2.483   7.874 -0.4015  0.1447 -0.3225
  294MOL0     H39626   1.765   2.598   7.753 -2.4788  2.0442  1.2726
  294MOL0     H39627   1.604   2.481   7.584  2.0580 -2.6127  0.0214
  294MOL0     H39628   1.537   2.401   7.725 -0.5165  1.0252  2.2366
  294MOL0     H39629   1.480   2.584   7.824  1.4088 -1.5597 -0.6061
  294MOL0     H39630   1.568   2.700   7.709  1.2273 -0.3857 -1.7666
  294MOL0     H39631   1.309   2.704   7.688  2.1379  0.6077  1.3483
  294MOL0     H39632   1.395   2.668   7.542 -1.6118  0.3533 -0.4980
  294MOL0     H39633   1.185   2.518   7.586 -1.2844 -0.3891  1.3567
  294MOL0     H39634   1.329   2.432   7.565  2.9441  3.1872 -1.2294
  294MOL0     H39635   1.337   2.404   7.812  0.1517 -0.7147 -0.5356
  294MOL0     H39636   1.187   2.501   7.827 -1.4353  0.9616 -0.8987
  294MOL0     H39637   1.079   2.318   7.658  1.5522 -0.7086 -3.0045
  294MOL0     H39638   1.228   2.221   7.709  1.2049  1.5929  0.5446
  294MOL0     H39639   1.156   2.239   7.940 -2.5694 -2.3347  2.0321
  294MOL0     H39640   1.051   2.143   7.848 -2.8401  1.1398 -1.6406
  294MOL0     H39641   0.808   2.176   7.824  0.7872  0.7252 -0.0838
  294MOL0     H39642   0.615   2.213   8.074  1.8469  1.2498  2.4508
  294MOL0     H39643   0.593   2.392   8.080  0.2887 -0.5049  1.6812
  294MOL0     H39644   0.577   2.240   7.814  0.1826  0.0970 -0.1070
  294MOL0     H39645   0.510   2.395   7.850 -1.5104  0.4518  1.6923
  294MOL0     H39646   0.329   2.311   7.975 -1.5967 -1.2155  1.0637
  294MOL0     H39647   0.389   2.147   8.001 -0.2709 -1.0969 -0.5060
  294MOL0     H39648   0.211   2.168   7.837  0.0785  3.7195  2.0439
  294MOL0     H39649   0.334   2.073   7.794 -2.5541 -1.0692  1.1306
  294MOL0     H39650   0.135   2.406   7.719  1.1313 -0.0573 -0.2205
  294MOL0     H39651  -0.181   2.364   7.670  0.6113  1.0489  2.8505
  294MOL0     H39652  -0.065   2.490   7.694 -2.3808  1.7323  0.2034
  294MOL0     H39653  -0.126   2.473   7.533 -0.4692  2.4396  2.9104
  294MOL0     H39654  -0.372   1.968   7.290  2.9512 -0.4371  0.3190
  294MOL0     H39655  -0.519   1.960   7.080  0.9902  0.3314 -3.2323
  294MOL0     H39656  -0.494   2.280   6.768  0.0977  0.0482 -2.1320
  294MOL0     H39657  -0.389   2.143   6.707 -0.3231  0.1846 -1.3011
  294MOL0     H39658  -0.572   2.172   6.559 -0.7336  2.0027 -0.0376
  294MOL0     H39659  -0.584   2.023   6.649 -0.3776 -0.4794  0.9134
  294MOL0     H39660  -0.705   2.307   6.711 -0.1307  0.0030  0.9322
  294MOL0     H39661  -0.766   2.160   6.803 -0.8043 -0.8331 -0.8285
  294MOL0     H39662  -0.799   2.204   6.506 -2.2545 -1.0796 -1.5105
  294MOL0     H39663  -0.866   2.071   6.608  3.5003 -0.9944  1.3631
  294MOL0     H39664  -0.942   2.362   6.625 -1.3643  0.3236 -0.7793
  294MOL0     H39665  -0.993   2.232   6.748 -0.8446 -1.0398  0.0492
  294MOL0     H39666  -1.058   2.262   6.468 -2.9331 -3.1719 -2.7703
  294MOL0     H39667  -1.088   2.108   6.546  1.3859  0.4328 -2.8427
  294MOL0     H39668  -1.302   2.247   6.519 -2.0930  4.3819  1.2176
  294MOL0     H39669  -1.217   2.380   6.604  0.6235  0.2212  0.0021
  294MOL0     H39670  -1.195   2.173   6.784  0.5831 -0.7241 -0.1725
  294MOL0     H39671  -1.336   2.111   6.702 -1.6917  0.2753  1.8646
  294MOL0     H39672  -0.281   2.272   6.916 -1.7880 -0.4034 -0.2911
  294MOL0     H39673  -0.118   2.254   7.104 -0.5583  0.2986 -2.9872
  294MOL0     H39674   0.119   2.091   7.341 -2.0682 -1.9304  1.1017
  294MOL0     H39675   0.315   2.102   7.490  0.3335  0.3511  2.3610
  294MOL0     H39676   1.895   2.289   7.489  0.3482 -0.1920 -3.8609
  294MOL0     H39677   2.114   2.333   7.382  3.6023  2.1479 -0.5144
  294MOL0     H39678   2.426   2.368   7.274  1.9551 -0.8927  0.5479
  294MOL0     H39679   2.590   2.324   7.127 -0.8961 -0.4156  1.0805
  294MOL0     H39680   2.746   2.292   7.014 -1.3569  1.8550  2.7032
  294MOL0     H39681   2.760   2.444   6.927  1.0916  1.3865  1.4312
  294MOL0     H39682   3.007   2.266   6.986  3.7711  1.6600 -2.0366
  294MOL0     H39683   3.006   2.434   6.930 -0.6496  0.9902 -0.5327
  294MOL0     H39684   2.848   2.371   6.733 -0.7957  2.1252  3.2707
  294MOL0     H39685   2.883   2.210   6.779 -0.8643  0.5067  0.1303
  294MOL0     H39686   3.085   2.404   6.654 -2.0804  0.1512 -0.0692
  294MOL0     H39687   3.040   2.228   6.637 -0.4639 -2.0548  0.5856
  294MOL0     H39688   3.370   2.219   6.876 -0.8249 -2.5037 -0.3690
  294MOL0     H39689   2.838   2.629   7.300 -0.7018 -0.3377 -0.4701
  294MOL0     H39690   2.634   2.709   7.439 -1.2915 -0.3009  1.3445
  295MOL0     O39691   7.306  10.758   5.961 -0.1936 -0.3823 -0.3009
  295MOL0     C39692   7.373  10.853   5.990  0.2960 -1.0257 -0.5855
  295MOL0     O39693   7.391  10.906   6.119  0.0527  0.1874  0.2984
  295MOL0     C39694   7.310  10.869   6.219  0.0717  0.0700 -1.8119
  295MOL0     C39695   7.189  10.938   6.232  1.0656 -0.6034 -0.4655
  295MOL0     C39696   7.105  10.898   6.334  0.3580 -0.3792 -0.0563
  295MOL0     C39697   7.142  10.808   6.431 -0.8997  0.6120 -1.2375
  295MOL0     O39698   7.059  10.777   6.533  0.2746  0.3116  0.3623
  295MOL0     C39699   6.940  10.706   6.495 -0.6293  0.0877 -0.7884
  295MOL0     C39700   6.852  10.705   6.607  0.1765  0.4246 -0.7405
  295MOL0     C39701   6.771  10.833   6.617 -0.3865  0.7029  0.3944
  295MOL0     C39702   6.702  10.824   6.748  1.0956  0.0766 -0.7477
  295MOL0     C39703   6.577  10.919   6.771 -0.1679  0.3522 -0.9780
  295MOL0     C39704   6.607  11.067   6.788  0.1582  0.2475 -0.1239
  295MOL0     C39705   6.496  11.156   6.750 -0.0633 -0.1587  0.3346
  295MOL0     C39706   6.474  11.158   6.607 -0.6571  0.3518  0.8935
  295MOL0     N39707   6.378  11.253   6.551 -0.1174 -0.5206 -0.0061
  295MOL0     C39708   6.320  11.362   6.624 -0.1835  0.9705  0.0186
  295MOL0     C39709   6.212  11.395   6.556  0.0623  0.1357  1.0084
  295MOL0     C39710   6.109  11.503   6.593  0.0157 -0.4275 -0.5526
  295MOL0     C39711   5.969  11.456   6.636 -0.2991  0.2120 -0.0972
  295MOL0     C39712   5.855  11.563   6.656 -0.3442 -0.2657  0.9864
  295MOL0     C39713   5.880  11.660   6.770 -0.5780  0.0797 -0.2473
  295MOL0     O39714   5.761  11.705   6.835 -0.3731  0.1213  0.1386
  295MOL0     C39715   5.694  11.804   6.768 -0.4208  0.6087 -0.5146
  295MOL0     C39716   5.582  11.835   6.846 -0.4276  0.3820  0.1360
  295MOL0     C39717   5.487  11.931   6.798  1.2159 -0.2395 -0.0301
  295MOL0     C39718   5.362  11.948   6.879 -0.2027 -0.6235  0.1754
  295MOL0     C39719   5.503  12.001   6.671  0.2879 -0.1109  0.5135
  295MOL0     C39720   5.403  12.090   6.606  0.1460 -0.6371 -0.7254
  295MOL0     O39721   5.426  12.134   6.485 -0.4149 -0.1760 -0.2590
  295MOL0     C39722   5.321  12.196   6.423  0.2159 -0.2274 -0.0992
  295MOL0     C39723   5.259  12.115   6.324  0.8705 -0.8518 -0.3168
  295MOL0     C39724   5.157  12.174   6.251 -0.4963 -0.3802  0.6184
  295MOL0     C39725   5.128  12.316   6.258  0.3022 -0.1850  1.2442
  295MOL0     O39726   5.063  12.370   6.151  0.7404  0.1826  0.7443
  295MOL0     C39727   4.931  12.315   6.125  0.0318  0.2097  0.9137
  295MOL0     C39728   4.833  12.330   6.253 -0.4707 -0.4041  0.4277
  295MOL0     C39729   4.685  12.310   6.214 -0.5826  0.0978  0.4144
  295MOL0     C39730   4.594  12.308   6.333 -1.0688 -1.1903 -0.4394
  295MOL0     C39731   4.451  12.269   6.304  0.3829  0.8620  0.3732
  295MOL0     C39732   4.425  12.115   6.281  0.0418 -0.2731 -0.1346
  295MOL0     C39733   4.512  12.005   6.341 -0.0642 -0.8894 -0.1617
  295MOL0     C39734   4.501  11.868   6.272  0.3757  0.2095 -0.1155
  295MOL0    Cl39735   4.518  11.864   6.087 -0.3617 -0.6112  0.3950
  295MOL0     C39736   5.197  12.394   6.353 -0.5576 -0.6834 -0.2630
  295MOL0     C39737   5.289  12.334   6.436  0.7079  0.7438 -0.8843
  295MOL0     O39738   5.305  12.129   6.672  0.1649 -0.4873  0.6511
  295MOL0     C39739   5.624  11.969   6.598 -0.1826  0.4712 -0.7485
  295MOL0     C39740   5.717  11.874   6.648 -0.4175 -0.6138 -0.5206
  295MOL0     N39741   6.203  11.304   6.450 -1.0352  0.6802  0.5116
  295MOL0     N39742   6.290  11.214   6.456  0.3432  0.7308  1.0353
  295MOL0     C39743   7.269  10.742   6.430 -0.4627  0.2632  0.2387
  295MOL0     C39744   7.349  10.774   6.319 -1.6772 -0.9505  1.1510
  295MOL0     C39745   7.450  10.912   5.880 -0.6473 -0.2668 -0.4066
  295MOL0     C39746   7.544  11.022   5.891  0.6403 -0.2204 -0.7538
  295MOL0     C39747   7.618  11.076   5.777  0.2183 -0.4628  0.3164
  295MOL0     C39748   7.579  11.039   5.641 -0.0137 -0.2998  0.0349
  295MOL0     O39749   7.620  11.099   5.529  0.0527  0.4789 -0.2009
  295MOL0     C39750   7.754  11.169   5.527  0.4825 -0.4765 -0.2744
  295MOL0     C39751   7.822  11.130   5.399 -0.4892  0.3650 -0.9555
  295MOL0     C39752   7.734  11.135   5.276 -0.6831  0.5682  0.3426
  295MOL0     C39753   7.694  11.275   5.250  0.8142 -0.4363  0.4043
  295MOL0     C39754   7.595  11.287   5.143  0.1216  0.7023 -0.3940
  295MOL0     C39755   7.514  11.301   5.044 -0.7909  0.0972 -0.7698
  295MOL0     C39756   7.480  10.941   5.644  0.2488 -0.4914  1.1976
  295MOL0     C39757   7.422  10.872   5.747  0.1088 -0.9145 -0.7800
  295MOL0     H39758   7.158  11.008   6.155  0.9725 -1.5710 -1.3357
  295MOL0     H39759   7.001  10.928   6.344  0.3026  0.5573 -2.6359
  295MOL0     H39760   6.897  10.762   6.411 -1.2663 -0.3348 -0.7526
  295MOL0     H39761   6.961  10.603   6.466 -1.9228 -1.1892  2.3580
  295MOL0     H39762   6.780  10.626   6.583  1.4074 -0.7368 -0.7010
  295MOL0     H39763   6.902  10.664   6.695 -0.7533 -3.1943 -1.7483
  295MOL0     H39764   6.838  10.920   6.611 -0.5263  0.9046  1.4193
  295MOL0     H39765   6.690  10.833   6.544 -0.4082 -1.9613  0.3259
  295MOL0     H39766   6.661  10.723   6.753  1.1783 -0.2921 -4.5295
  295MOL0     H39767   6.768  10.832   6.835  0.6182 -2.1791 -0.1308
  295MOL0     H39768   6.494  10.896   6.703 -0.7231  1.5529 -0.7278
  295MOL0     H39769   6.534  10.905   6.871 -0.3985  4.3478 -0.3711
  295MOL0     H39770   6.613  11.087   6.896  0.1394  1.7376 -0.3755
  295MOL0     H39771   6.704  11.096   6.747  1.4105 -1.0717  1.7251
  295MOL0     H39772   6.404  11.122   6.799 -0.1864 -1.9912 -1.0876
  295MOL0     H39773   6.523  11.261   6.770  2.8194 -0.5246 -1.1161
  295MOL0     H39774   6.460  11.056   6.570  1.3837  0.9396 -1.8799
  295MOL0     H39775   6.564  11.186   6.552 -1.2824 -0.8617 -0.8413
  295MOL0     H39776   6.358  11.409   6.714 -1.8016  0.7805  0.8397
  295MOL0     H39777   6.134  11.560   6.683 -1.2118  0.4185 -0.7206
  295MOL0     H39778   6.104  11.569   6.506  1.1410  0.4612  0.0283
  295MOL0     H39779   5.975  11.400   6.729  1.0915  1.2288  0.4711
  295MOL0     H39780   5.930  11.392   6.557 -1.1461 -0.0492  0.5209
  295MOL0     H39781   5.759  11.513   6.673 -1.2375  1.9512  2.9656
  295MOL0     H39782   5.857  11.608   6.556  1.2084  0.6683  1.4044
  295MOL0     H39783   5.935  11.746   6.731 -1.1814 -0.6031 -2.7797
  295MOL0     H39784   5.946  11.609   6.841  0.5541  1.5529 -0.1961
  295MOL0     H39785   5.569  11.803   6.949  0.7246  1.4070  0.6293
  295MOL0     H39786   5.336  12.049   6.914 -1.0785  0.0912 -2.3329
  295MOL0     H39787   5.272  11.906   6.833 -0.1138 -0.2353 -0.3565
  295MOL0     H39788   5.363  11.893   6.974 -0.3923  1.1758  1.2663
  295MOL0     H39789   5.277  12.009   6.312  0.2496 -0.8665 -1.2433
  295MOL0     H39790   5.122  12.118   6.165  3.2433 -1.7109 -0.2249
  295MOL0     H39791   4.872  12.371   6.052  2.3366 -2.1169 -3.0971
  295MOL0     H39792   4.954  12.215   6.088  0.9932  0.7124  0.0891
  295MOL0     H39793   4.865  12.273   6.341  0.5906 -1.1978 -0.4258
  295MOL0     H39794   4.842  12.435   6.280  1.1326 -0.6743  1.0728
  295MOL0     H39795   4.684  12.210   6.171  2.2325  0.2467 -0.2017
  295MOL0     H39796   4.656  12.375   6.131 -0.5091 -1.9545 -1.2750
  295MOL0     H39797   4.640  12.256   6.417 -2.2397 -0.5447  0.6312
  295MOL0     H39798   4.593  12.409   6.376  0.1585 -2.0069  1.6698
  295MOL0     H39799   4.418  12.335   6.223  1.7217 -0.5559 -1.4256
  295MOL0     H39800   4.400  12.288   6.399 -0.5713  2.3886 -0.4158
  295MOL0     H39801   4.323  12.090   6.308  0.3121 -0.8205  0.3924
  295MOL0     H39802   4.442  12.111   6.173  2.2699  2.6418 -0.0397
  295MOL0     H39803   4.504  12.001   6.450  0.1592 -0.1210 -0.1085
  295MOL0     H39804   4.614  12.035   6.315 -0.1606 -0.9507 -0.6229
  295MOL0     H39805   4.408  11.818   6.302 -0.4487  2.3131  1.0336
  295MOL0     H39806   4.582  11.805   6.311  1.8813  3.5764  2.7362
  295MOL0     H39807   5.172  12.498   6.370  0.3224 -0.3305 -1.0416
  295MOL0     H39808   5.338  12.400   6.507 -0.8312  0.8511  0.1423
  295MOL0     H39809   5.635  12.019   6.502  3.1830  0.0837 -0.6677
  295MOL0     H39810   5.808  11.859   6.591 -0.6064  1.0090 -1.2858
  295MOL0     H39811   7.304  10.683   6.514 -0.5304  2.1615  1.6572
  295MOL0     H39812   7.445  10.728   6.300 -0.8359  0.1218  2.5760
  295MOL0     H39813   7.565  11.079   5.981  0.0270 -0.4235 -0.4790
  295MOL0     H39814   7.684  11.158   5.802 -1.0485  0.6349  0.2256
  295MOL0     H39815   7.742  11.278   5.535 -1.1739 -0.6941  0.4320
  295MOL0     H39816   7.810  11.132   5.614  1.5218  2.0876  0.2426
  295MOL0     H39817   7.847  11.024   5.410 -4.1830 -0.3347  3.3688
  295MOL0     H39818   7.914  11.189   5.393  1.3899 -1.1075  5.7874
  295MOL0     H39819   7.649  11.067   5.287  0.7687 -1.2408  0.6681
  295MOL0     H39820   7.792  11.097   5.192  1.1614 -0.8539  2.1829
  295MOL0     H39821   7.772  11.349   5.226 -0.8144  0.5427 -2.4615
  295MOL0     H39822   7.648  11.322   5.337 -1.3124  4.3672 -2.8256
  295MOL0     H39823   7.439  11.310   4.968 -3.2165 -0.1342  1.4791
  295MOL0     H39824   7.444  10.927   5.542 -2.4985  3.6909  1.3477
  295MOL0     H39825   7.340  10.803   5.728  0.9788 -2.4958  0.8831
  296MOL0     O39826   4.421   8.773  11.357 -0.0035  0.2450  0.6312
  296MOL0     C39827   4.434   8.655  11.341  0.4267  0.7935 -0.9395
  296MOL0     O39828   4.356   8.559  11.406  0.9118 -0.0436 -0.4448
  296MOL0     C39829   4.230   8.598  11.439  1.4534 -0.4587 -0.5582
  296MOL0     C39830   4.204   8.701  11.532  0.5224 -0.4017 -0.3849
  296MOL0     C39831   4.069   8.719  11.565  0.7636  0.0936 -0.8910
  296MOL0     C39832   3.960   8.637  11.523 -0.0355  0.5610 -0.0105
  296MOL0     O39833   3.826   8.651  11.545  0.0258 -0.5365 -0.2573
  296MOL0     C39834   3.772   8.780  11.547 -0.4248  0.5173 -0.4264
  296MOL0     C39835   3.723   8.813  11.410 -0.5592  0.5908 -1.1419
  296MOL0     C39836   3.653   8.952  11.421 -0.1911 -0.6455 -1.2185
  296MOL0     C39837   3.653   9.016  11.284 -0.0318 -0.5254 -0.3917
  296MOL0     C39838   3.556   9.139  11.277 -0.1712 -0.7569  0.5151
  296MOL0     C39839   3.583   9.214  11.145 -0.3283  0.4726 -0.4537
  296MOL0     C39840   3.497   9.347  11.119 -0.3050  0.4173  0.2797
  296MOL0     C39841   3.529   9.461  11.214 -0.8527  0.3395 -0.0648
  296MOL0     N39842   3.416   9.550  11.237  0.4922 -0.1140  0.5944
  296MOL0     C39843   3.429   9.689  11.236  0.2973 -0.2798 -0.0609
  296MOL0     C39844   3.317   9.736  11.298  0.7475 -0.2662  0.1285
  296MOL0     C39845   3.262   9.878  11.308 -0.0906 -0.0046  0.2161
  296MOL0     C39846   3.166   9.929  11.208 -0.0917  0.1606  0.2164
  296MOL0     C39847   3.252   9.970  11.093 -0.2223  0.5838 -0.4868
  296MOL0     C39848   3.171   9.983  10.961  0.3408  0.5409 -0.3134
  296MOL0     O39849   3.255  10.008  10.847 -0.8402  0.6516 -0.2867
  296MOL0     C39850   3.199   9.991  10.721  0.1603  0.3215 -0.1685
  296MOL0     C39851   3.278  10.011  10.611  0.5867  0.4727  0.4893
  296MOL0     C39852   3.223  10.023  10.485 -0.3091  0.0772  0.6702
  296MOL0     C39853   3.326  10.050  10.375 -0.6625 -0.1875  0.2104
  296MOL0     C39854   3.088   9.989  10.467  0.5581  0.0586  0.2049
  296MOL0     C39855   3.016   9.965  10.335  0.5261  0.9023  1.1664
  296MOL0     O39856   2.884   9.946  10.326  0.3847 -0.1817  0.0625
  296MOL0     C39857   2.814   9.926  10.210 -0.3130  0.4998  0.2289
  296MOL0     C39858   2.765   9.800  10.173  0.4937  0.4577 -0.4746
  296MOL0     C39859   2.675   9.779  10.065 -0.0355 -0.9893  0.9691
  296MOL0     C39860   2.649   9.882   9.975  1.1659 -0.6995  0.1728
  296MOL0     O39861   2.557   9.863   9.874 -0.5255 -0.5252 -0.5665
  296MOL0     C39862   2.432   9.906   9.911  0.6637  0.5868  0.1120
  296MOL0     C39863   2.312   9.894   9.815 -0.2220 -0.8684 -0.8474
  296MOL0     C39864   2.346   9.903   9.666 -0.0065  0.4393 -0.6884
  296MOL0     C39865   2.359   9.761   9.602  0.4306 -0.0994  0.3222
  296MOL0     C39866   2.417   9.768   9.457 -0.8227 -1.1482  0.9817
  296MOL0     C39867   2.380   9.649   9.362  0.0884 -0.3751 -0.2208
  296MOL0     C39868   2.234   9.672   9.320  0.2450 -0.6016 -0.7746
  296MOL0     C39869   2.203   9.569   9.217 -0.0432 -0.9337 -0.0247
  296MOL0    Cl39870   2.026   9.599   9.184  0.1194  0.0997 -0.0405
  296MOL0     C39871   2.707  10.002  10.002 -0.4357 -0.7058 -0.4019
  296MOL0     C39872   2.802  10.028  10.110  0.8318  0.1676  0.1771
  296MOL0     O39873   3.094   9.939  10.241  0.3281 -0.5890  0.1102
  296MOL0     C39874   3.007   9.961  10.577  0.8414 -0.0803 -0.1145
  296MOL0     C39875   3.065   9.967  10.702  0.5370  1.4701 -0.0888
  296MOL0     N39876   3.245   9.623  11.348 -0.5213  0.0167  0.6347
  296MOL0     N39877   3.304   9.514  11.314  0.0795  0.0719  0.0596
  296MOL0     C39878   3.985   8.532  11.432 -0.5982  0.7045 -0.1971
  296MOL0     C39879   4.127   8.512  11.397  0.2063 -0.0562  1.1351
  296MOL0     C39880   4.560   8.602  11.279  0.7676  0.0890 -0.7972
  296MOL0     C39881   4.657   8.692  11.251  0.3171  0.3737  0.5330
  296MOL0     C39882   4.779   8.648  11.186  0.2500  0.1073  0.4259
  296MOL0     C39883   4.808   8.518  11.154  0.5059 -0.6921 -0.0121
  296MOL0     O39884   4.928   8.501  11.094 -0.0497  0.3873  0.3452
  296MOL0     C39885   4.965   8.369  11.053 -0.0314  0.3931 -0.5216
  296MOL0     C39886   5.012   8.282  11.168 -0.0713  0.1258  0.0471
  296MOL0     C39887   5.057   8.131  11.137  0.7585 -0.6785 -0.0627
  296MOL0     C39888   4.936   8.038  11.127  0.8611 -0.4604  0.4128
  296MOL0     C39889   4.976   7.923  11.041  0.1927  0.3935  0.0774
  296MOL0     C39890   5.019   7.843  10.961 -0.2536 -0.8384 -0.3854
  296MOL0     C39891   4.698   8.426  11.179 -0.4173 -0.0769 -0.4399
  296MOL0     C39892   4.586   8.466  11.242  0.7924 -0.1851 -0.5867
  296MOL0     H39893   4.285   8.763  11.568  0.2656 -0.3621  0.1356
  296MOL0     H39894   4.040   8.800  11.632  1.5319 -1.0478  0.8910
  296MOL0     H39895   3.689   8.782  11.619  1.6737 -1.2315  2.2681
  296MOL0     H39896   3.840   8.862  11.572  0.9007 -0.2439 -1.4017
  296MOL0     H39897   3.814   8.830  11.352  0.4360  0.1456  0.2143
  296MOL0     H39898   3.656   8.740  11.366 -0.4826 -0.7374  0.8182
  296MOL0     H39899   3.550   8.931  11.448  0.4549 -1.5039  0.7733
  296MOL0     H39900   3.697   9.025  11.490  0.2297 -3.2186  1.4023
  296MOL0     H39901   3.751   9.058  11.259 -0.2761  1.4407  1.5431
  296MOL0     H39902   3.638   8.946  11.202  2.6096  1.0249 -2.3670
  296MOL0     H39903   3.450   9.114  11.280 -0.3589 -0.0526  0.0740
  296MOL0     H39904   3.568   9.201  11.366  0.4527 -0.5162  0.2722
  296MOL0     H39905   3.690   9.237  11.149 -0.0431 -0.8350 -0.1073
  296MOL0     H39906   3.571   9.141  11.065 -0.7944  0.6185 -0.5184
  296MOL0     H39907   3.509   9.373  11.014 -1.1981 -0.2092  0.0043
  296MOL0     H39908   3.391   9.322  11.135 -0.5331 -0.1021 -1.6914
  296MOL0     H39909   3.611   9.519  11.171  0.3636 -1.2071  0.0818
  296MOL0     H39910   3.553   9.418  11.312  2.5490  1.9889 -0.0345
  296MOL0     H39911   3.505   9.740  11.179 -1.4980  0.3354 -2.0353
  296MOL0     H39912   3.216   9.880  11.407  1.2846  0.2398  0.8759
  296MOL0     H39913   3.343   9.951  11.315 -2.4206  2.8569 -0.5113
  296MOL0     H39914   3.114  10.020  11.241  0.5077  0.9867 -1.0493
  296MOL0     H39915   3.095   9.852  11.176 -0.3270  1.3164 -2.2974
  296MOL0     H39916   3.322   9.890  11.064 -0.2757  0.5641 -0.5610
  296MOL0     H39917   3.301  10.063  11.123 -0.8841  0.7855 -0.0064
  296MOL0     H39918   3.096  10.062  10.970  1.2017  1.2935  0.3803
  296MOL0     H39919   3.127   9.882  10.962  0.1252  0.6294 -0.6223
  296MOL0     H39920   3.384  10.023  10.628  0.2899  2.2169  1.3735
  296MOL0     H39921   3.349   9.955  10.326  1.7401 -0.7783  2.2663
  296MOL0     H39922   3.293  10.117  10.296  0.8634  0.1702 -0.1452
  296MOL0     H39923   3.421  10.089  10.412  0.1943 -0.2270 -1.8548
  296MOL0     H39924   2.795   9.715  10.234  0.1326  0.6124 -0.0763
  296MOL0     H39925   2.633   9.681  10.044 -0.4814 -0.4827 -0.6278
  296MOL0     H39926   2.414   9.837   9.993  0.2159  2.2761  1.5120
  296MOL0     H39927   2.423  10.011   9.943 -0.6629  1.0537 -1.5969
  296MOL0     H39928   2.258   9.800   9.831 -0.9376 -0.5307 -1.2208
  296MOL0     H39929   2.240   9.974   9.840  0.3205  0.1530 -2.4025
  296MOL0     H39930   2.447   9.941   9.651 -0.2204  0.1520 -3.1596
  296MOL0     H39931   2.277   9.958   9.602  0.1482  1.1046 -0.2927
  296MOL0     H39932   2.420   9.693   9.661  2.1637  0.9758 -0.1342
  296MOL0     H39933   2.253   9.734   9.602  0.6813 -1.2675 -1.4257
  296MOL0     H39934   2.524   9.787   9.457 -1.4158  3.7487 -1.0118
  296MOL0     H39935   2.364   9.855   9.416 -0.6347 -1.1026  0.8313
  296MOL0     H39936   2.436   9.653   9.269  2.6806 -3.8217  1.0086
  296MOL0     H39937   2.401   9.550   9.403 -0.5594 -0.7945 -0.8829
  296MOL0     H39938   2.232   9.775   9.284 -1.8028 -0.9922 -1.9169
  296MOL0     H39939   2.159   9.667   9.400 -1.3015  0.0673 -2.1325
  296MOL0     H39940   2.216   9.471   9.265  1.0997 -0.8172 -0.0900
  296MOL0     H39941   2.264   9.586   9.129 -1.3671  2.1560 -0.4756
  296MOL0     H39942   2.675  10.083   9.937 -0.6188  2.3075  3.1003
  296MOL0     H39943   2.831  10.130  10.132  0.5156 -0.2937  3.3174
  296MOL0     H39944   2.901   9.938  10.590  0.7567 -0.1092 -0.8120
  296MOL0     H39945   3.001   9.946  10.788 -0.6707  0.0213 -1.2846
  296MOL0     H39946   3.901   8.476  11.391  0.1663  0.3854 -1.3774
  296MOL0     H39947   4.144   8.423  11.337 -0.7052 -0.0742  0.8843
  296MOL0     H39948   4.647   8.791  11.294 -1.7743 -0.5632  2.3277
  296MOL0     H39949   4.863   8.714  11.164 -0.1471  0.4164 -0.2002
  296MOL0     H39950   4.881   8.312  11.013 -1.0591  0.8390  0.9134
  296MOL0     H39951   5.041   8.380  10.975 -0.9527  0.9639 -1.3433
  296MOL0     H39952   4.941   8.293  11.250  0.2396  1.3872  0.1767
  296MOL0     H39953   5.102   8.331  11.208 -0.1751 -0.4580  1.0495
  296MOL0     H39954   5.124   8.103  11.219  1.4156  1.2183  0.0996
  296MOL0     H39955   5.108   8.129  11.041  0.0949  1.2782 -0.5026
  296MOL0     H39956   4.850   8.088  11.080  1.4799  0.6574  0.4298
  296MOL0     H39957   4.903   8.007  11.226  1.4814  0.5815  0.9650
  296MOL0     H39958   5.053   7.765  10.897  4.3739  1.4645 -1.2075
  296MOL0     H39959   4.723   8.327  11.141  1.1461  0.5124 -1.0011
  296MOL0     H39960   4.504   8.400  11.268  0.3296 -0.2000 -1.9493
  297MOL0     O39961   8.273   1.966   5.500  0.4429 -0.6229  0.0322
  297MOL0     C39962   8.240   1.984   5.616  1.7397  0.6011 -0.2251
  297MOL0     O39963   8.114   1.963   5.666 -0.3062  0.0374  0.0664
  297MOL0     C39964   8.008   1.914   5.600 -0.3815 -0.0461  0.5680
  297MOL0     C39965   8.016   1.806   5.511  0.4226  0.2845  0.3071
  297MOL0     C39966   7.900   1.743   5.459 -0.1056  0.5838  0.7168
  297MOL0     C39967   7.776   1.794   5.492  0.3734  0.6829 -0.2415
  297MOL0     O39968   7.659   1.731   5.448 -0.5712 -0.1916  0.4111
  297MOL0     C39969   7.614   1.796   5.328 -0.6402  0.1503 -0.8596
  297MOL0     C39970   7.525   1.713   5.238  0.5309 -0.1146  0.4973
  297MOL0     C39971   7.390   1.703   5.296  0.7657 -0.9538  0.5669
  297MOL0     C39972   7.310   1.606   5.207  0.9480  0.4855  0.1905
  297MOL0     C39973   7.166   1.596   5.255 -0.4594  0.1053 -0.6190
  297MOL0     C39974   7.068   1.718   5.231  0.1053 -0.8549 -0.0902
  297MOL0     C39975   6.939   1.692   5.297 -0.5082  0.1356  0.6764
  297MOL0     C39976   6.823   1.744   5.202 -0.3649  0.0724 -0.2716
  297MOL0     N39977   6.694   1.734   5.271 -0.0971 -0.2171 -0.5135
  297MOL0     C39978   6.660   1.808   5.381 -1.1897 -0.2088  0.3949
  297MOL0     C39979   6.561   1.741   5.431 -0.3058  0.6216  0.3936
  297MOL0     C39980   6.472   1.782   5.548 -0.0820 -0.3994  0.0329
  297MOL0     C39981   6.419   1.922   5.533 -0.4536 -0.3822 -0.4754
  297MOL0     C39982   6.341   1.938   5.396 -0.4988  0.5322 -0.5879
  297MOL0     C39983   6.256   2.063   5.420 -0.0458  1.0171  0.2916
  297MOL0     O39984   6.198   2.109   5.294  0.1025  0.4299 -0.4413
  297MOL0     C39985   6.072   2.066   5.262  0.8979  2.2803 -0.6810
  297MOL0     C39986   6.017   2.141   5.170 -0.3917 -0.1497  0.4717
  297MOL0     C39987   5.881   2.125   5.139  0.4000  0.5889 -0.4734
  297MOL0     C39988   5.826   2.229   5.030 -0.1311 -0.7678 -0.6815
  297MOL0     C39989   5.808   2.016   5.199  0.6307 -0.5317  0.5342
  297MOL0     C39990   5.664   2.004   5.174 -0.7265  0.8576 -0.1814
  297MOL0     O39991   5.613   1.904   5.257 -0.3683 -0.6082  0.5726
  297MOL0     C39992   5.476   1.888   5.262  0.0783  0.2284 -0.2681
  297MOL0     C39993   5.435   1.768   5.310  0.0620 -0.4789  0.3418
  297MOL0     C39994   5.302   1.746   5.322  1.5841  0.5592 -0.1913
  297MOL0     C39995   5.202   1.841   5.292 -0.1639 -0.5854 -0.5302
  297MOL0     O39996   5.071   1.820   5.295  0.1790  0.1391  0.4437
  297MOL0     C39997   5.015   1.727   5.384  0.1917  0.2286 -0.2988
  297MOL0     C39998   4.873   1.711   5.353  0.3416 -0.0277  0.8780
  297MOL0     C39999   4.795   1.619   5.443 -0.0141  0.5085  1.1244
  297MOL0     C40000   4.650   1.618   5.381  0.2559 -0.1703 -0.0760
  297MOL0     C40001   4.559   1.543   5.478 -0.8005 -1.0125 -0.0350
  297MOL0     C40002   4.420   1.534   5.425  0.3212 -0.4190  0.0697
  297MOL0     C40003   4.336   1.457   5.531 -0.4886  0.5355  0.2191
  297MOL0     C40004   4.245   1.550   5.620 -0.1911  0.4630 -0.0984
  297MOL0    Cl40005   4.090   1.576   5.534  0.0543  0.1174 -0.2547
  297MOL0     C40006   5.243   1.971   5.262  0.0693 -0.4084  0.2465
  297MOL0     C40007   5.381   1.991   5.248  0.4131  0.5476 -0.2125
  297MOL0     O40008   5.606   2.049   5.076 -0.6535  0.9162  0.3344
  297MOL0     C40009   5.871   1.934   5.283 -0.0341  0.2821 -0.1004
  297MOL0     C40010   6.003   1.961   5.326  0.6673 -0.5231  0.5342
  297MOL0     N40011   6.535   1.631   5.356  0.1757  0.0881 -0.6609
  297MOL0     N40012   6.610   1.627   5.260 -0.4579 -0.1076  0.1536
  297MOL0     C40013   7.768   1.903   5.578 -0.1999 -0.8776 -0.2318
  297MOL0     C40014   7.882   1.959   5.636 -0.0568 -0.2496  0.2347
  297MOL0     C40015   8.346   2.028   5.707  0.5270 -0.0844 -0.2028
  297MOL0     C40016   8.355   1.979   5.843  0.9014 -0.7124 -0.8561
  297MOL0     C40017   8.479   2.017   5.909 -0.4033 -0.2168  0.8270
  297MOL0     C40018   8.586   2.093   5.853  0.4465 -0.4932 -0.3864
  297MOL0     O40019   8.708   2.109   5.914 -0.2394 -0.4475  0.0781
  297MOL0     C40020   8.730   2.112   6.051 -0.3925 -0.2478 -0.3988
  297MOL0     C40021   8.822   2.226   6.093 -0.6385 -0.0212  1.0844
  297MOL0     C40022   8.758   2.362   6.090 -0.1192  0.3623 -0.2837
  297MOL0     C40023   8.709   2.416   5.950  0.5748 -0.1887  0.8840
  297MOL0     C40024   8.801   2.431   5.837  0.5214 -0.7519 -0.7006
  297MOL0     C40025   8.864   2.440   5.735 -0.0521  0.2295 -0.7658
  297MOL0     C40026   8.568   2.145   5.722 -0.6838  0.3295 -0.2832
  297MOL0     C40027   8.456   2.109   5.652 -0.4491 -0.4098  0.2947
  297MOL0     H40028   8.112   1.768   5.478  0.3872 -0.0990  0.6345
  297MOL0     H40029   7.901   1.648   5.406 -0.1273  1.4829 -0.9342
  297MOL0     H40030   7.558   1.882   5.366 -1.9827  0.0170 -2.4082
  297MOL0     H40031   7.707   1.826   5.278  2.6372 -2.2393  3.2253
  297MOL0     H40032   7.527   1.751   5.136  0.6779  1.3919  1.0351
  297MOL0     H40033   7.572   1.614   5.235  0.3514 -0.1789 -0.9463
  297MOL0     H40034   7.389   1.661   5.397 -0.0491 -0.9676  0.5528
  297MOL0     H40035   7.343   1.802   5.289  1.6979 -0.6173 -2.7865
  297MOL0     H40036   7.299   1.639   5.104 -1.9618 -2.7716 -0.7289
  297MOL0     H40037   7.366   1.513   5.196  0.3854 -0.0695  1.7148
  297MOL0     H40038   7.121   1.505   5.216  2.0062 -1.5276  0.1072
  297MOL0     H40039   7.169   1.580   5.363 -0.3979  1.8244 -0.3427
  297MOL0     H40040   7.100   1.810   5.280 -1.8047 -1.0352  1.6595
  297MOL0     H40041   7.055   1.736   5.124  0.4491 -1.4323 -0.2343
  297MOL0     H40042   6.926   1.586   5.322 -1.5990  1.0595  4.7441
  297MOL0     H40043   6.933   1.745   5.392 -1.5356 -0.8351  1.1771
  297MOL0     H40044   6.828   1.691   5.107 -0.5620 -2.8066  1.2303
  297MOL0     H40045   6.850   1.849   5.189  0.5057  0.2688  2.4012
  297MOL0     H40046   6.712   1.896   5.417  0.0741 -1.1499  0.9236
  297MOL0     H40047   6.389   1.711   5.558 -0.9368  0.8076  2.0732
  297MOL0     H40048   6.541   1.786   5.633  0.1343  2.4186 -0.1761
  297MOL0     H40049   6.501   1.994   5.534 -2.1197  1.6968 -2.1510
  297MOL0     H40050   6.356   1.947   5.619  1.0957  2.2285  0.0294
  297MOL0     H40051   6.278   1.850   5.381  3.5426 -2.4974 -1.4299
  297MOL0     H40052   6.408   1.954   5.310 -1.0002 -2.2074 -1.5710
  297MOL0     H40053   6.309   2.147   5.465 -2.5088  1.4129  2.7175
  297MOL0     H40054   6.180   2.031   5.492  1.4554 -0.7133  1.2235
  297MOL0     H40055   6.066   2.221   5.116  0.1550 -1.6730 -1.4219
  297MOL0     H40056   5.863   2.331   5.046  1.2583 -0.9472 -2.3977
  297MOL0     H40057   5.838   2.207   4.924  0.4538 -1.0932 -0.5517
  297MOL0     H40058   5.719   2.251   5.040  0.2711  0.1995  2.4936
  297MOL0     H40059   5.508   1.692   5.337 -0.7545 -2.2340 -2.0780
  297MOL0     H40060   5.266   1.651   5.360 -1.1173  1.6667  0.2824
  297MOL0     H40061   5.069   1.635   5.361  1.1828  1.5119 -3.7594
  297MOL0     H40062   5.038   1.760   5.486 -0.9271  1.3266 -0.3701
  297MOL0     H40063   4.815   1.803   5.346 -1.2947 -0.9465  1.6360
  297MOL0     H40064   4.870   1.669   5.252 -2.0383  1.3419  0.3008
  297MOL0     H40065   4.796   1.661   5.543  0.9986  1.5616  0.6880
  297MOL0     H40066   4.837   1.519   5.458 -0.8352 -0.0066  0.2214
  297MOL0     H40067   4.610   1.720   5.374  0.4177 -0.1285 -0.4200
  297MOL0     H40068   4.667   1.578   5.280  2.8856 -0.6357  0.4967
  297MOL0     H40069   4.542   1.581   5.578 -4.8461 -1.4778 -0.3740
  297MOL0     H40070   4.595   1.439   5.482 -0.6282 -0.9813 -0.5858
  297MOL0     H40071   4.383   1.634   5.404  0.4821  0.0769  1.9324
  297MOL0     H40072   4.433   1.481   5.330 -0.7582 -1.4646  0.4801
  297MOL0     H40073   4.403   1.398   5.595 -1.2272 -0.0082  0.5017
  297MOL0     H40074   4.276   1.373   5.493  1.7725 -0.6937 -0.8897
  297MOL0     H40075   4.299   1.643   5.639  2.3201  0.1517 -4.3127
  297MOL0     H40076   4.221   1.489   5.708  0.6930 -1.3688 -1.0600
  297MOL0     H40077   5.177   2.056   5.252  0.9618  0.2812  0.0455
  297MOL0     H40078   5.415   2.089   5.217  3.1078 -0.7427 -1.6995
  297MOL0     H40079   5.826   1.851   5.336  0.9739 -1.4738 -1.8635
  297MOL0     H40080   6.057   1.900   5.398  0.2716 -3.6335 -1.6223
  297MOL0     H40081   7.666   1.926   5.605  1.0982  4.5250  1.2747
  297MOL0     H40082   7.880   2.034   5.714  2.8770  2.4711 -1.9989
  297MOL0     H40083   8.275   1.916   5.881  2.2769 -1.1453  1.5380
  297MOL0     H40084   8.492   1.972   6.006  1.3862  1.8214  1.6047
  297MOL0     H40085   8.640   2.125   6.113 -0.5605 -1.8668 -0.2491
  297MOL0     H40086   8.781   2.016   6.068  3.2013  1.2068 -2.0065
  297MOL0     H40087   8.905   2.225   6.023 -1.6929  0.2671 -0.2066
  297MOL0     H40088   8.866   2.197   6.189 -1.1486 -1.5791  0.8730
  297MOL0     H40089   8.837   2.424   6.132  2.6568 -1.1232 -2.9019
  297MOL0     H40090   8.663   2.358   6.143  0.5276  2.0472  1.0767
  297MOL0     H40091   8.677   2.520   5.960  2.4640  0.9047 -2.5755
  297MOL0     H40092   8.623   2.362   5.909  2.2853 -0.4139 -2.8862
  297MOL0     H40093   8.901   2.453   5.636 -3.3683 -1.0049 -2.3046
  297MOL0     H40094   8.648   2.215   5.697  1.0281 -0.7476  1.8672
  297MOL0     H40095   8.441   2.133   5.547  0.7226 -0.0423  0.1910
  298MOL0     O40096   9.037   8.426   8.239 -0.0413 -0.6982  0.3484
  298MOL0     C40097   9.038   8.333   8.313  0.1506  0.2329  0.1843
  298MOL0     O40098   9.141   8.264   8.362 -0.0855  0.3126 -0.3251
  298MOL0     C40099   9.270   8.302   8.328  0.4088 -0.6214 -0.3265
  298MOL0     C40100   9.316   8.425   8.363 -0.8184 -0.6286  0.3021
  298MOL0     C40101   9.446   8.468   8.310 -0.5187 -0.3738 -0.8213
  298MOL0     C40102   9.538   8.383   8.260 -0.7302  0.2633  0.0780
  298MOL0     O40103   9.674   8.407   8.227 -0.1132  0.4620 -0.1274
  298MOL0     C40104   9.724   8.529   8.258  0.1214  0.3309  0.1736
  298MOL0     C40105   9.874   8.530   8.224 -0.0792  0.5919  0.4972
  298MOL0     C40106   9.928   8.660   8.284 -0.8127 -1.3669 -0.0648
  298MOL0     C40107  10.082   8.670   8.280  0.5493  0.0382 -0.2965
  298MOL0     C40108  10.122   8.820   8.330 -0.5460  0.8040  1.3050
  298MOL0     C40109  10.267   8.823   8.370  0.0757  0.3895  0.4459
  298MOL0     C40110  10.305   8.967   8.387  0.5513 -0.3687  0.2293
  298MOL0     C40111  10.456   8.979   8.392 -0.2452  0.2651  0.6522
  298MOL0     N40112  10.510   8.938   8.517  0.0715 -0.0404  0.9561
  298MOL0     C40113  10.552   9.038   8.600  0.2814  0.0724 -1.2002
  298MOL0     C40114  10.597   8.973   8.710 -0.4501  0.8505 -1.0957
  298MOL0     C40115  10.645   9.016   8.851 -0.0177 -0.1210  0.2691
  298MOL0     C40116  10.619   9.163   8.887 -0.4684  0.0768  0.0462
  298MOL0     C40117  10.510   9.181   8.991 -0.3561  0.2562  0.1665
  298MOL0     C40118  10.371   9.146   8.929 -0.3128  0.5265 -0.0854
  298MOL0     O40119  10.340   9.233   8.820 -0.3136  0.2461 -0.4947
  298MOL0     C40120  10.206   9.221   8.776  0.6207 -0.1256  0.8533
  298MOL0     C40121  10.148   9.344   8.745  0.1479  0.5401  0.0896
  298MOL0     C40122  10.032   9.341   8.671 -0.9317 -0.2475  0.6904
  298MOL0     C40123   9.992   9.482   8.633  0.4401  0.3345 -0.5951
  298MOL0     C40124   9.957   9.222   8.659 -0.3053  0.4400 -0.3843
  298MOL0     C40125   9.832   9.208   8.578  0.3170  0.3497 -0.6784
  298MOL0     O40126   9.786   9.081   8.569 -0.2922 -0.2132  0.2097
  298MOL0     C40127   9.712   9.042   8.458 -0.2045  0.1134  0.0540
  298MOL0     C40128   9.736   9.088   8.333  0.3833  1.1549  0.5462
  298MOL0     C40129   9.646   9.036   8.226 -0.1042 -0.0885  0.5337
  298MOL0     C40130   9.553   8.927   8.258  1.0288  0.6146  0.5958
  298MOL0     O40131   9.476   8.854   8.174  0.8389  0.4127  0.5762
  298MOL0     C40132   9.457   8.910   8.043  0.1559  0.4574  0.3503
  298MOL0     C40133   9.392   8.798   7.951  0.0325  0.2661  0.3922
  298MOL0     C40134   9.244   8.784   8.004 -0.0424  0.0028  0.0135
  298MOL0     C40135   9.188   8.649   7.944  0.3984 -0.0735 -0.3134
  298MOL0     C40136   9.034   8.650   7.941  0.1646 -0.7905 -0.6479
  298MOL0     C40137   8.970   8.512   7.908  1.0479 -1.0185  0.0707
  298MOL0     C40138   8.819   8.532   7.887  0.4215  0.0420  0.2918
  298MOL0     C40139   8.777   8.609   7.758  0.4770 -0.6284 -0.6203
  298MOL0    Cl40140   8.605   8.655   7.796  0.2271  0.1692  0.2030
  298MOL0     C40141   9.555   8.878   8.391  0.2879  0.4331 -0.3626
  298MOL0     C40142   9.637   8.940   8.483 -0.0458 -0.4603 -0.3299
  298MOL0     O40143   9.771   9.312   8.541 -0.1610 -0.0612 -1.1595
  298MOL0     C40144  10.017   9.101   8.711  0.0345  0.1400 -0.1205
  298MOL0     C40145  10.145   9.096   8.761 -0.1736  0.3984 -0.0233
  298MOL0     N40146  10.598   8.831   8.683 -0.3818 -0.0826  0.5973
  298MOL0     N40147  10.543   8.820   8.568 -0.5661 -0.6235  0.1278
  298MOL0     C40148   9.493   8.246   8.239  0.8624  0.3328  0.2512
  298MOL0     C40149   9.360   8.217   8.268  1.4213  0.5454  0.3004
  298MOL0     C40150   8.900   8.278   8.330  0.3524 -0.7011 -0.7524
  298MOL0     C40151   8.868   8.209   8.449  0.1405  0.3437  0.3671
  298MOL0     C40152   8.737   8.172   8.465 -0.5407  0.0806 -0.7795
  298MOL0     C40153   8.634   8.209   8.377  0.3605  0.0899 -0.0172
  298MOL0     O40154   8.503   8.170   8.389 -1.0883  0.5047 -0.3101
  298MOL0     C40155   8.468   8.085   8.497  0.4379  1.0272  0.9255
  298MOL0     C40156   8.344   8.007   8.461 -0.6512  0.0113  0.8277
  298MOL0     C40157   8.365   7.902   8.356 -0.4635  0.7344 -0.0884
  298MOL0     C40158   8.232   7.845   8.297  0.2077  0.1451 -0.1444
  298MOL0     C40159   8.258   7.741   8.188 -0.0007  0.5753  0.0786
  298MOL0     C40160   8.278   7.675   8.087  0.7662  0.0644 -0.2957
  298MOL0     C40161   8.669   8.271   8.255 -0.0148  0.5445 -0.0508
  298MOL0     C40162   8.802   8.308   8.234 -0.2794  0.8160  0.1286
  298MOL0     H40163   9.266   8.504   8.417 -0.8899 -2.3026  2.8373
  298MOL0     H40164   9.463   8.574   8.320 -0.8358 -0.5225  2.1957
  298MOL0     H40165   9.677   8.613   8.207 -0.4437 -0.2927 -0.3557
  298MOL0     H40166   9.722   8.538   8.367  0.9935  0.6026  0.1785
  298MOL0     H40167   9.922   8.441   8.265 -0.8177  0.0887  0.2967
  298MOL0     H40168   9.895   8.525   8.117  0.0891 -3.0698  0.5611
  298MOL0     H40169   9.882   8.746   8.234 -1.3328 -2.1226 -0.9208
  298MOL0     H40170   9.900   8.672   8.389  1.2695 -1.2207  0.5078
  298MOL0     H40171  10.121   8.599   8.353 -0.8345  2.3058  2.9309
  298MOL0     H40172  10.116   8.653   8.178  1.0597  1.3088 -0.3528
  298MOL0     H40173  10.130   8.888   8.245 -0.0524  0.0679  0.7544
  298MOL0     H40174  10.056   8.869   8.402 -3.8834  1.2552 -1.7522
  298MOL0     H40175  10.292   8.759   8.455  2.5925 -0.7870 -1.0602
  298MOL0     H40176  10.319   8.781   8.283  1.9313 -1.4110  2.2985
  298MOL0     H40177  10.282   9.017   8.292  1.7236 -1.2872 -0.5701
  298MOL0     H40178  10.248   9.020   8.463 -0.0950 -1.8297  0.7777
  298MOL0     H40179  10.481   9.081   8.361  1.0815 -0.0402  0.6581
  298MOL0     H40180  10.494   8.912   8.315 -0.6767 -0.4343  1.0358
  298MOL0     H40181  10.552   9.147   8.597  3.2088  0.1470 -0.9187
  298MOL0     H40182  10.619   8.948   8.932 -1.6089  0.3661  0.2104
  298MOL0     H40183  10.754   9.008   8.844  0.0254  1.1382 -1.0744
  298MOL0     H40184  10.612   9.234   8.803  2.6287  0.7124  0.1759
  298MOL0     H40185  10.709   9.192   8.942  1.0789 -2.6156 -0.9153
  298MOL0     H40186  10.524   9.283   9.029 -0.9604  0.5075 -0.2739
  298MOL0     H40187  10.518   9.111   9.075  0.3990  0.1733  0.0325
  298MOL0     H40188  10.300   9.167   9.009 -0.2250 -3.4979  1.2572
  298MOL0     H40189  10.377   9.042   8.897  0.5435 -0.1287  2.0427
  298MOL0     H40190  10.209   9.432   8.761  0.2975  0.1326  1.9941
  298MOL0     H40191  10.057   9.550   8.689  0.7759 -1.1807  0.9087
  298MOL0     H40192  10.012   9.482   8.525  0.7788 -3.9257 -0.6860
  298MOL0     H40193   9.886   9.499   8.656  0.8764 -1.7573  3.9966
  298MOL0     H40194   9.817   9.156   8.307  1.2269  0.2046  0.6256
  298MOL0     H40195   9.655   9.059   8.120 -3.2655  1.8748  0.5461
  298MOL0     H40196   9.399   9.002   8.053  0.3684  0.5111  1.1183
  298MOL0     H40197   9.554   8.935   7.999 -0.3468  1.2103 -0.3520
  298MOL0     H40198   9.399   8.824   7.845  0.7576  0.5297  0.4968
  298MOL0     H40199   9.446   8.705   7.968  3.0279  1.0157 -3.5860
  298MOL0     H40200   9.187   8.866   7.959  2.7205  0.7611 -2.4476
  298MOL0     H40201   9.226   8.792   8.111 -1.6649 -2.9447  0.0667
  298MOL0     H40202   9.231   8.623   7.847 -1.2518  0.8055 -1.3227
  298MOL0     H40203   9.225   8.569   8.009 -1.6695 -0.1433  0.8936
  298MOL0     H40204   9.004   8.727   7.870 -0.3587  1.5659  1.9641
  298MOL0     H40205   9.008   8.673   8.045 -3.3060 -0.6443 -1.4384
  298MOL0     H40206   9.008   8.485   7.810  1.9667  1.3376 -0.2971
  298MOL0     H40207   8.989   8.434   7.982  1.8747 -1.9952 -1.1513
  298MOL0     H40208   8.769   8.570   7.977 -1.0963 -0.1517 -0.4285
  298MOL0     H40209   8.783   8.430   7.869  0.9230  0.1619 -1.5292
  298MOL0     H40210   8.775   8.550   7.666 -1.8554  0.3002 -1.2494
  298MOL0     H40211   8.841   8.693   7.728 -0.7434 -0.5259 -3.1987
  298MOL0     H40212   9.497   8.795   8.428  2.3154  0.7912  4.3081
  298MOL0     H40213   9.633   8.910   8.588  0.6920  3.3118  0.9423
  298MOL0     H40214   9.969   9.004   8.701  0.4689 -0.0186 -0.7450
  298MOL0     H40215  10.200   9.007   8.789 -0.0098  0.2312 -0.8509
  298MOL0     H40216   9.555   8.178   8.181 -1.4568  0.0753 -2.1494
  298MOL0     H40217   9.323   8.120   8.236  0.0360  1.1031  0.1841
  298MOL0     H40218   8.946   8.184   8.520  0.4736 -3.3335 -1.0955
  298MOL0     H40219   8.700   8.128   8.558 -0.3745 -0.2733 -0.8792
  298MOL0     H40220   8.537   8.005   8.523  0.6480  0.1243 -2.0450
  298MOL0     H40221   8.455   8.147   8.587 -1.1119  1.9198  0.1368
  298MOL0     H40222   8.261   8.077   8.444 -0.8827  0.4706  3.4276
  298MOL0     H40223   8.318   7.956   8.554  0.2242  1.5142  1.9609
  298MOL0     H40224   8.423   7.819   8.396  0.5224  0.6805 -1.5622
  298MOL0     H40225   8.422   7.942   8.271 -2.5566  0.3847 -1.7472
  298MOL0     H40226   8.161   7.916   8.254 -2.9885 -2.9073 -0.3429
  298MOL0     H40227   8.186   7.794   8.382  0.2722 -0.2460 -0.3422
  298MOL0     H40228   8.284   7.629   7.990  0.7965 -0.4905 -0.0319
  298MOL0     H40229   8.596   8.286   8.176  0.8881 -0.1182 -1.0356
  298MOL0     H40230   8.815   8.359   8.139  2.0864  0.7031  0.3574
  299MOL0     O40231   1.238   4.327   5.060  0.4961  0.1341 -0.6409
  299MOL0     C40232   1.315   4.333   5.159  0.5683  0.0361 -0.3868
  299MOL0     O40233   1.273   4.341   5.289 -0.6808 -0.0959  0.5089
  299MOL0     C40234   1.145   4.366   5.312  0.8704  0.2699  0.0124
  299MOL0     C40235   1.056   4.252   5.287  0.2920 -0.9473  0.1260
  299MOL0     C40236   0.918   4.278   5.321  0.1443  0.4045 -0.1728
  299MOL0     C40237   0.875   4.389   5.383 -0.6996  0.2341  0.3974
  299MOL0     O40238   0.750   4.403   5.435 -0.0273  0.1564  0.8009
  299MOL0     C40239   0.728   4.396   5.572  0.0320 -0.3261 -0.5078
  299MOL0     C40240   0.595   4.428   5.621  0.2410  0.1173  0.7006
  299MOL0     C40241   0.567   4.574   5.611 -0.4814  0.0021  0.3759
  299MOL0     C40242   0.419   4.613   5.639  0.1898  0.5316 -0.3213
  299MOL0     C40243   0.395   4.710   5.768  0.3611 -0.6381  1.1264
  299MOL0     C40244   0.244   4.711   5.804  0.7058 -0.2119  0.0575
  299MOL0     C40245   0.155   4.753   5.689  0.1599  0.2298 -0.3552
  299MOL0     C40246   0.045   4.663   5.643  0.1089  0.9499  0.0699
  299MOL0     N40247  -0.079   4.675   5.721  0.7177 -0.4181  0.0540
  299MOL0     C40248  -0.150   4.797   5.745 -0.1975  0.8364 -0.0916
  299MOL0     C40249  -0.274   4.756   5.772 -0.4318  0.0558 -0.4600
  299MOL0     C40250  -0.399   4.842   5.800 -0.4028 -0.4377 -0.7151
  299MOL0     C40251  -0.507   4.840   5.692  0.1191  0.5953 -0.2472
  299MOL0     C40252  -0.465   4.913   5.565  0.2572  0.4517  0.0086
  299MOL0     C40253  -0.586   4.948   5.481 -1.3302 -0.0412  0.8071
  299MOL0     O40254  -0.638   4.826   5.432  0.2459  0.5399 -0.7395
  299MOL0     C40255  -0.755   4.825   5.369 -0.1381 -0.3144  0.5894
  299MOL0     C40256  -0.809   4.701   5.328 -0.1100  0.3588 -0.5383
  299MOL0     C40257  -0.924   4.691   5.255 -0.2307 -0.1434 -0.0478
  299MOL0     C40258  -0.965   4.547   5.230 -1.1068  0.1619  0.1735
  299MOL0     C40259  -1.004   4.805   5.229  0.3206 -0.2364 -0.5384
  299MOL0     C40260  -1.129   4.795   5.140 -0.4295  0.7931 -0.7537
  299MOL0     O40261  -1.217   4.893   5.146  0.3310  0.4964  0.7000
  299MOL0     C40262  -1.306   4.925   5.046 -0.3575 -0.3439 -0.4853
  299MOL0     C40263  -1.292   4.877   4.910  0.7025 -0.3314 -0.0967
  299MOL0     C40264  -1.395   4.914   4.821  0.0782  0.0943  0.3420
  299MOL0     C40265  -1.507   4.985   4.859 -0.5347  0.1022 -0.1512
  299MOL0     O40266  -1.617   4.999   4.780 -0.4678 -0.8506  0.8891
  299MOL0     C40267  -1.701   4.891   4.777  0.5270 -0.1583 -1.0106
  299MOL0     C40268  -1.845   4.947   4.763 -0.3092  0.1633  0.7814
  299MOL0     C40269  -1.954   4.872   4.846  0.1974  0.0696  0.6483
  299MOL0     C40270  -2.091   4.926   4.815 -1.1158 -0.4588 -0.6259
  299MOL0     C40271  -2.201   4.849   4.891 -0.4211  0.2887  0.0757
  299MOL0     C40272  -2.324   4.942   4.907 -0.6291  0.0046 -0.7280
  299MOL0     C40273  -2.440   4.875   4.968 -0.3122 -0.0193  0.0799
  299MOL0     C40274  -2.482   4.757   4.879 -0.0013  0.0673  0.2936
  299MOL0    Cl40275  -2.617   4.669   4.956  0.5855  0.0965  0.4374
  299MOL0     C40276  -1.511   5.040   4.987 -0.1019  0.8063  0.1814
  299MOL0     C40277  -1.407   5.017   5.075  0.0601  0.2778 -0.1213
  299MOL0     O40278  -1.135   4.697   5.065 -0.5413 -0.4062 -0.4296
  299MOL0     C40279  -0.962   4.929   5.282 -0.3234 -0.9292  1.1784
  299MOL0     C40280  -0.841   4.942   5.345  0.8044  0.4559 -0.5759
  299MOL0     N40281  -0.280   4.623   5.776 -0.0926  1.1592 -0.3743
  299MOL0     N40282  -0.164   4.574   5.746 -1.2698  0.1661 -1.0079
  299MOL0     C40283   0.967   4.494   5.408 -0.2100 -0.2641  0.2034
  299MOL0     C40284   1.099   4.477   5.377 -0.0566  0.1332  0.5522
  299MOL0     C40285   1.462   4.337   5.132  0.3240  0.3532 -0.2135
  299MOL0     C40286   1.549   4.381   5.235  0.2544 -0.0739 -0.5425
  299MOL0     C40287   1.687   4.356   5.233 -0.7288  0.7063  0.5604
  299MOL0     C40288   1.731   4.303   5.109 -0.2586  0.2143  0.1526
  299MOL0     O40289   1.858   4.260   5.079  0.2391 -0.0351  0.3562
  299MOL0     C40290   1.956   4.246   5.192  0.9792 -0.9586  0.9500
  299MOL0     C40291   2.097   4.215   5.143  0.5387  0.3840 -0.5052
  299MOL0     C40292   2.178   4.344   5.098  0.5496 -0.2395  0.8458
  299MOL0     C40293   2.314   4.277   5.082  0.2949  0.0118  0.0877
  299MOL0     C40294   2.416   4.368   5.042  0.4016 -0.0097  0.5007
  299MOL0     C40295   2.512   4.444   5.030  0.1378  0.3238 -0.1781
  299MOL0     C40296   1.646   4.270   5.003 -0.5008  0.2870 -0.2494
  299MOL0     C40297   1.507   4.289   5.012 -0.3286 -0.6243  0.4634
  299MOL0     H40298   1.084   4.170   5.220 -0.1071 -0.0236 -1.2239
  299MOL0     H40299   0.845   4.200   5.305  1.6256 -1.4902  1.7204
  299MOL0     H40300   0.756   4.295   5.604 -1.3216 -0.1517  1.4087
  299MOL0     H40301   0.801   4.468   5.611  1.2944 -2.1649  0.6665
  299MOL0     H40302   0.524   4.369   5.564  0.2299  1.9642 -1.3606
  299MOL0     H40303   0.585   4.400   5.726 -1.7076  2.1759  1.1435
  299MOL0     H40304   0.629   4.618   5.690 -1.0986  0.2565  0.7266
  299MOL0     H40305   0.599   4.605   5.512 -0.3197 -0.3490  0.3154
  299MOL0     H40306   0.397   4.662   5.544  1.3917 -0.7928 -1.3478
  299MOL0     H40307   0.356   4.524   5.644  5.2075 -3.4425  2.6814
  299MOL0     H40308   0.456   4.692   5.857  1.4540 -0.4718  0.4339
  299MOL0     H40309   0.432   4.810   5.744  1.0415 -0.7285  1.7676
  299MOL0     H40310   0.216   4.612   5.841 -1.0211  0.3087  0.2020
  299MOL0     H40311   0.225   4.783   5.884 -1.1261 -3.9866  3.4207
  299MOL0     H40312   0.122   4.857   5.699  0.8656  0.5411 -1.1191
  299MOL0     H40313   0.215   4.765   5.598 -0.0727 -3.3859 -1.1243
  299MOL0     H40314   0.071   4.557   5.636  0.1319  1.0432 -3.3756
  299MOL0     H40315   0.022   4.691   5.539 -0.8006 -2.2886 -0.7037
  299MOL0     H40316  -0.133   4.899   5.714 -0.6906  1.7115  2.3050
  299MOL0     H40317  -0.454   4.791   5.880 -1.0386 -0.9078 -1.4434
  299MOL0     H40318  -0.366   4.944   5.823  0.0222 -0.5711 -0.7144
  299MOL0     H40319  -0.607   4.877   5.714  0.0045  0.3386 -0.3314
  299MOL0     H40320  -0.513   4.733   5.672  2.4191  0.3220  0.1539
  299MOL0     H40321  -0.396   4.853   5.505  0.7670 -0.7738  1.7378
  299MOL0     H40322  -0.423   5.010   5.593 -0.8182  0.9998 -0.2127
  299MOL0     H40323  -0.566   5.015   5.397  0.0340 -1.0195  0.3243
  299MOL0     H40324  -0.666   4.989   5.544 -1.5800  0.5889  0.0896
  299MOL0     H40325  -0.759   4.607   5.348  0.9733  0.9368 -0.4725
  299MOL0     H40326  -1.064   4.539   5.276 -0.7716  0.2939  0.9280
  299MOL0     H40327  -0.979   4.526   5.123 -1.0675  1.6241 -0.1487
  299MOL0     H40328  -0.888   4.477   5.262 -1.8678  0.0146  1.7421
  299MOL0     H40329  -1.210   4.816   4.875 -1.2650 -0.9155 -4.3770
  299MOL0     H40330  -1.393   4.871   4.722  1.9464 -0.9463  0.7803
  299MOL0     H40331  -1.671   4.829   4.691  0.7447 -0.3011 -0.8317
  299MOL0     H40332  -1.705   4.839   4.873  2.4653  1.1362 -0.1763
  299MOL0     H40333  -1.846   5.052   4.794  3.5695  1.5328 -2.6655
  299MOL0     H40334  -1.873   4.948   4.657  1.3942 -1.3144  0.2675
  299MOL0     H40335  -1.926   4.893   4.949  1.3814  3.1307 -0.1908
  299MOL0     H40336  -1.937   4.766   4.825  3.0604  0.8474 -1.7837
  299MOL0     H40337  -2.082   5.031   4.843  3.0033 -0.6469 -0.5115
  299MOL0     H40338  -2.109   4.918   4.707  2.7254 -2.2007 -1.3145
  299MOL0     H40339  -2.152   4.821   4.984  1.8226  2.2246 -0.4397
  299MOL0     H40340  -2.230   4.762   4.831 -0.5244  0.2814  0.1364
  299MOL0     H40341  -2.288   5.016   4.979 -1.9615  0.5532 -0.6060
  299MOL0     H40342  -2.351   4.995   4.815  1.1995  0.7711 -0.8744
  299MOL0     H40343  -2.515   4.954   4.975 -1.0285 -0.6043 -0.7327
  299MOL0     H40344  -2.415   4.837   5.068 -0.7676  2.3221  1.1618
  299MOL0     H40345  -2.409   4.682   4.849  1.6831  2.3180 -1.6008
  299MOL0     H40346  -2.515   4.810   4.789  0.8327  1.4768  0.7809
  299MOL0     H40347  -1.597   5.104   5.007 -0.0597  0.7011  0.7247
  299MOL0     H40348  -1.409   5.057   5.176  0.4648  1.2001 -0.4691
  299MOL0     H40349  -1.011   5.024   5.266 -1.5520 -1.1597  3.1131
  299MOL0     H40350  -0.815   5.045   5.365 -0.9469  1.1240 -1.5395
  299MOL0     H40351   0.925   4.582   5.456 -2.7584 -0.7282 -0.9915
  299MOL0     H40352   1.166   4.559   5.401  2.8791 -2.3248  1.3192
  299MOL0     H40353   1.509   4.422   5.327  1.5568  0.9705 -0.4130
  299MOL0     H40354   1.753   4.369   5.319  2.0601 -0.3125 -1.2636
  299MOL0     H40355   1.971   4.336   5.252 -1.8780  0.0524  0.3162
  299MOL0     H40356   1.919   4.164   5.255 -0.2003 -2.2259 -1.2483
  299MOL0     H40357   2.084   4.148   5.058 -1.5253 -1.4821  1.1686
  299MOL0     H40358   2.154   4.158   5.217  0.1175  0.8252  0.1706
  299MOL0     H40359   2.181   4.419   5.178 -1.2583  0.3598  0.4038
  299MOL0     H40360   2.144   4.382   5.002  4.4947  0.1565 -0.5663
  299MOL0     H40361   2.323   4.203   5.001  0.5904 -0.4436  0.5373
  299MOL0     H40362   2.344   4.238   5.179 -2.2608 -1.9780  0.1999
  299MOL0     H40363   2.587   4.517   5.006  1.3000 -1.1329 -1.1421
  299MOL0     H40364   1.674   4.225   4.909 -2.2404 -0.2377 -0.5477
  299MOL0     H40365   1.440   4.258   4.932 -2.5729  0.9372  1.6177
  300MOL0     O40366   9.994   4.735   8.005  0.4831  0.4264  0.0963
  300MOL0     C40367   9.979   4.612   8.000 -0.1035  0.2420  0.3478
  300MOL0     O40368   9.873   4.531   8.043 -0.7237  0.0049  0.3676
  300MOL0     C40369   9.793   4.600   8.124  0.4800 -0.0985  0.1068
  300MOL0     C40370   9.685   4.673   8.076 -0.2454  0.2382  0.4979
  300MOL0     C40371   9.601   4.736   8.165  0.1949  0.0506 -0.3651
  300MOL0     C40372   9.621   4.730   8.305  0.5092  0.2307  0.0172
  300MOL0     O40373   9.525   4.793   8.369  1.0600 -0.2477  0.4878
  300MOL0     C40374   9.513   4.774   8.503 -0.0386  0.2627  0.7680
  300MOL0     C40375   9.389   4.830   8.553  0.9529  0.0340 -0.0811
  300MOL0     C40376   9.342   4.789   8.700 -0.4352 -0.4993  0.4992
  300MOL0     C40377   9.398   4.886   8.815 -0.1702 -0.2594 -0.0247
  300MOL0     C40378   9.307   4.889   8.937  0.3237  0.0638 -1.0613
  300MOL0     C40379   9.357   4.970   9.055 -0.2133 -0.0218  0.5125
  300MOL0     C40380   9.265   4.980   9.184  0.2983 -0.1916 -0.2434
  300MOL0     C40381   9.123   5.024   9.147 -0.7897 -1.2005  0.0287
  300MOL0     N40382   9.036   5.025   9.275  0.2894  0.1328  1.0811
  300MOL0     C40383   8.942   4.928   9.316  0.4005 -0.4532  0.5606
  300MOL0     C40384   8.894   4.981   9.430 -0.1343  0.0288  0.4788
  300MOL0     C40385   8.790   4.931   9.535  0.4834 -0.5230 -0.0120
  300MOL0     C40386   8.839   4.817   9.615  0.2544  0.4983 -0.9060
  300MOL0     C40387   8.955   4.862   9.703 -0.6330  0.7592  0.1208
  300MOL0     C40388   9.099   4.847   9.645 -0.3326 -0.1610  0.2152
  300MOL0     O40389   9.198   4.794   9.743  0.0418 -0.1935  0.4148
  300MOL0     C40390   9.314   4.738   9.694 -0.0879  0.4191  0.7895
  300MOL0     C40391   9.404   4.701   9.794  0.2780  0.2826 -0.4429
  300MOL0     C40392   9.533   4.659   9.768  0.0710  0.1821 -1.2061
  300MOL0     C40393   9.619   4.636   9.893  0.5397 -0.9629  0.7285
  300MOL0     C40394   9.585   4.663   9.633  0.5436 -0.5645  0.1157
  300MOL0     C40395   9.724   4.653   9.593  0.1557  0.6769 -0.5076
  300MOL0     O40396   9.761   4.664   9.456 -0.4187 -0.3167  0.0530
  300MOL0     C40397   9.888   4.622   9.413 -0.5996 -0.7157  0.0432
  300MOL0     C40398   9.921   4.601   9.279  0.3114 -0.5330  1.2021
  300MOL0     C40399  10.043   4.565   9.229 -0.1018  0.1870 -0.7785
  300MOL0     C40400  10.139   4.543   9.319 -0.0144 -0.2370 -1.2006
  300MOL0     O40401  10.254   4.499   9.269 -0.0776  0.3569 -0.1449
  300MOL0     C40402  10.380   4.503   9.329  0.4143  0.4900 -0.2601
  300MOL0     C40403  10.482   4.480   9.213  0.2597 -0.2746 -0.4059
  300MOL0     C40404  10.619   4.491   9.270 -0.5033  0.0106  0.5449
  300MOL0     C40405  10.727   4.550   9.179 -0.4436 -0.6086 -0.3963
  300MOL0     C40406  10.856   4.578   9.257  0.0672 -0.6102  0.6201
  300MOL0     C40407  10.935   4.455   9.318  0.2235 -0.4749 -0.1666
  300MOL0     C40408  11.068   4.515   9.377  0.2293 -0.0644  0.3093
  300MOL0     C40409  11.136   4.407   9.453  0.0246 -0.2787 -0.2839
  300MOL0    Cl40410  11.032   4.352   9.588 -0.1842 -0.2489 -0.2111
  300MOL0     C40411  10.126   4.569   9.453 -0.5027  0.3424  1.2425
  300MOL0     C40412  10.004   4.613   9.497 -0.9911  0.0510  0.3473
  300MOL0     O40413   9.806   4.641   9.693  0.6418 -0.6683 -0.0433
  300MOL0     C40414   9.489   4.696   9.527  0.4833 -0.3716 -0.5302
  300MOL0     C40415   9.360   4.740   9.562  0.6211 -0.2728 -0.5121
  300MOL0     N40416   8.942   5.110   9.436  0.5230  0.7292  0.2208
  300MOL0     N40417   9.034   5.135   9.357 -0.2230 -0.6732  0.0176
  300MOL0     C40418   9.739   4.672   8.353  0.5359  1.0706  0.2044
  300MOL0     C40419   9.827   4.614   8.260 -0.5926 -0.3579  0.1836
  300MOL0     C40420  10.088   4.534   7.929 -0.4599 -0.9711 -0.4952
  300MOL0     C40421  10.066   4.405   7.877 -1.4891 -1.0538 -0.9007
  300MOL0     C40422  10.167   4.335   7.807 -0.1438 -0.8776 -0.6493
  300MOL0     C40423  10.294   4.391   7.802 -0.2034  0.3952  0.1992
  300MOL0     O40424  10.391   4.347   7.721  0.3755 -0.2850  0.1402
  300MOL0     C40425  10.353   4.258   7.617  0.0610  0.7140  0.3340
  300MOL0     C40426  10.476   4.211   7.535  0.0636 -0.1138 -0.4071
  300MOL0     C40427  10.418   4.150   7.406 -0.1031  0.6228  0.0301
  300MOL0     C40428  10.507   4.160   7.278  0.4799 -0.7808  0.1377
  300MOL0     C40429  10.517   4.296   7.224  0.4051 -0.3664 -0.2390
  300MOL0     C40430  10.512   4.401   7.171 -0.9368  0.5963  0.9217
  300MOL0     C40431  10.313   4.514   7.859  0.0705 -0.5096  0.6799
  300MOL0     C40432  10.219   4.586   7.921 -0.7417 -0.7118 -0.4778
  300MOL0     H40433   9.677   4.676   7.967  0.4626  1.1706  0.4555
  300MOL0     H40434   9.505   4.777   8.135 -0.5704 -3.4116 -3.2792
  300MOL0     H40435   9.513   4.671   8.540  1.1611 -0.1527 -0.2924
  300MOL0     H40436   9.601   4.813   8.556  0.7235 -1.3431  0.7655
  300MOL0     H40437   9.382   4.939   8.552 -2.9264 -0.0624  0.3288
  300MOL0     H40438   9.316   4.781   8.488  1.2570 -3.1634  1.7662
  300MOL0     H40439   9.233   4.793   8.704 -0.6235 -1.3092 -2.2137
  300MOL0     H40440   9.370   4.685   8.719 -0.3386 -0.2700  1.6840
  300MOL0     H40441   9.500   4.867   8.852  0.7846  3.5188 -0.2419
  300MOL0     H40442   9.406   4.990   8.781 -0.5191 -0.0783  0.4391
  300MOL0     H40443   9.219   4.944   8.904  0.5460  1.6121  0.7804
  300MOL0     H40444   9.277   4.789   8.969 -0.6909  0.2549 -1.3808
  300MOL0     H40445   9.446   4.916   9.088  2.0569  2.2759 -1.4200
  300MOL0     H40446   9.373   5.076   9.034 -0.0854  0.1082  1.2516
  300MOL0     H40447   9.258   4.890   9.245 -2.3688 -2.6540 -3.7677
  300MOL0     H40448   9.302   5.056   9.254 -0.6020  0.8632 -0.8800
  300MOL0     H40449   9.070   4.961   9.075 -1.1898 -2.6836  1.5363
  300MOL0     H40450   9.144   5.123   9.107  0.5587 -0.3775  2.5275
  300MOL0     H40451   8.900   4.843   9.262 -2.8524  0.3625  1.5962
  300MOL0     H40452   8.761   5.011   9.604 -0.5284  1.2958 -2.4001
  300MOL0     H40453   8.699   4.902   9.481 -1.6007  6.2525 -0.9883
  300MOL0     H40454   8.866   4.733   9.551 -1.9513 -1.4272  0.5082
  300MOL0     H40455   8.759   4.784   9.682  1.7676 -1.8235 -0.1193
  300MOL0     H40456   8.947   4.798   9.792 -1.9983  2.7739  1.5346
  300MOL0     H40457   8.941   4.962   9.744  2.7132  1.1329  0.5733
  300MOL0     H40458   9.131   4.939   9.597  1.8764 -1.0359 -0.1163
  300MOL0     H40459   9.101   4.771   9.566 -1.3309 -1.3505  1.2816
  300MOL0     H40460   9.373   4.718   9.897  1.4243 -2.5171  0.4639
  300MOL0     H40461   9.548   4.632   9.976  0.4106 -2.1538  0.5693
  300MOL0     H40462   9.663   4.537   9.887 -2.6471 -2.6007  2.0190
  300MOL0     H40463   9.691   4.717   9.909  0.6908 -0.3022 -2.4425
  300MOL0     H40464   9.836   4.616   9.213 -0.5418  1.3913  2.6209
  300MOL0     H40465  10.051   4.546   9.122 -1.4343  2.5023 -1.3545
  300MOL0     H40466  10.390   4.606   9.364  2.1046  0.3171 -0.1623
  300MOL0     H40467  10.403   4.443   9.417 -0.1128  0.4102 -0.1759
  300MOL0     H40468  10.466   4.382   9.169  1.0190 -0.4259 -0.3665
  300MOL0     H40469  10.475   4.563   9.142 -0.5671 -0.1717 -0.2150
  300MOL0     H40470  10.658   4.392   9.298 -0.3192  0.2474  1.1480
  300MOL0     H40471  10.621   4.556   9.358  0.4022  0.8046 -0.0465
  300MOL0     H40472  10.733   4.480   9.095  0.3948 -1.8298  0.6411
  300MOL0     H40473  10.690   4.642   9.134 -3.2339 -1.3481  0.2220
  300MOL0     H40474  10.822   4.647   9.335  2.9462  1.2271  0.3908
  300MOL0     H40475  10.922   4.628   9.186 -0.2121  1.1193  1.5224
  300MOL0     H40476  10.875   4.397   9.388 -1.2165  0.7801 -0.2848
  300MOL0     H40477  10.966   4.397   9.231  0.9678  1.1057 -1.0078
  300MOL0     H40478  11.041   4.593   9.449 -1.6471  1.8184 -2.2007
  300MOL0     H40479  11.141   4.557   9.308  2.5833 -3.7144  0.3535
  300MOL0     H40480  11.232   4.443   9.490 -0.0000  4.0961 -3.6144
  300MOL0     H40481  11.143   4.324   9.383 -0.6876  0.7377 -1.6095
  300MOL0     H40482  10.206   4.548   9.524  0.6509  1.1175  0.2169
  300MOL0     H40483  10.008   4.640   9.602  0.9176 -2.9642  1.1810
  300MOL0     H40484   9.522   4.717   9.426 -0.9300  2.0008 -0.5742
  300MOL0     H40485   9.296   4.773   9.481 -2.7684 -0.7025  1.7489
  300MOL0     H40486   9.776   4.678   8.455  3.9636 -0.4518 -0.7901
  300MOL0     H40487   9.916   4.569   8.303  1.4909  0.9718 -2.3787
  300MOL0     H40488   9.961   4.381   7.887 -1.7056  0.2831  0.4130
  300MOL0     H40489  10.149   4.237   7.764  3.2636 -0.8699 -2.4777
  300MOL0     H40490  10.302   4.172   7.659  1.3429  0.2504  0.9837
  300MOL0     H40491  10.286   4.315   7.551  3.1614  2.4507 -1.5905
  300MOL0     H40492  10.522   4.136   7.600 -1.4779 -0.9500 -0.2443
  300MOL0     H40493  10.547   4.288   7.501  0.1767 -0.5139 -1.0955
  300MOL0     H40494  10.319   4.191   7.385  1.5030  4.0302 -1.5604
  300MOL0     H40495  10.405   4.042   7.422  1.4495  0.5482  1.0673
  300MOL0     H40496  10.474   4.087   7.204  0.6316 -1.3109  0.5808
  300MOL0     H40497  10.606   4.120   7.300  1.8699  1.8475 -0.8425
  300MOL0     H40498  10.504   4.503   7.137 -3.3202  0.3884  0.6307
  300MOL0     H40499  10.403   4.572   7.842 -0.4044  0.2961  0.8892
  300MOL0     H40500  10.246   4.683   7.962  0.1738 -2.3003  2.9672
  301MOL0     O40501   2.937   4.726   9.114 -0.5403  0.8479 -0.1847
  301MOL0     C40502   2.925   4.640   9.026 -0.8487  0.0825 -0.0568
  301MOL0     O40503   2.809   4.620   8.963 -0.4920 -0.9540 -0.9427
  301MOL0     C40504   2.689   4.669   9.017  0.6838 -0.0169 -0.7357
  301MOL0     C40505   2.606   4.597   9.107 -0.8669 -0.3250 -0.3805
  301MOL0     C40506   2.474   4.632   9.142  0.1503 -1.3339 -0.2071
  301MOL0     C40507   2.426   4.750   9.090 -0.3856  0.1999  0.4444
  301MOL0     O40508   2.294   4.793   9.118 -1.0263 -0.7997  0.6964
  301MOL0     C40509   2.187   4.703   9.130 -0.3709 -0.1119  0.2940
  301MOL0     C40510   2.056   4.778   9.112  0.4551  0.1246  0.6336
  301MOL0     C40511   1.949   4.668   9.099 -0.3671 -0.8171  0.8190
  301MOL0     C40512   1.805   4.731   9.083 -0.4418  1.0492 -0.4896
  301MOL0     C40513   1.698   4.616   9.098 -0.8936 -0.0471 -0.0927
  301MOL0     C40514   1.551   4.659   9.082 -0.1763  0.1493  0.2425
  301MOL0     C40515   1.448   4.563   9.135 -0.7583  0.7008 -0.0763
  301MOL0     C40516   1.462   4.535   9.282 -0.5155  0.9779  0.2982
  301MOL0     N40517   1.339   4.557   9.352 -0.3203 -0.4945  0.9801
  301MOL0     C40518   1.300   4.684   9.388 -0.1136 -1.1916  0.5471
  301MOL0     C40519   1.176   4.666   9.434  1.0834  0.6366 -0.3060
  301MOL0     C40520   1.100   4.765   9.514 -0.1677  0.2303 -0.2631
  301MOL0     C40521   1.003   4.848   9.431  0.5939 -0.8432 -0.8820
  301MOL0     C40522   0.942   4.972   9.498 -1.1897 -0.4914 -0.0442
  301MOL0     C40523   0.831   4.934   9.599  0.3684  0.3606 -0.2737
  301MOL0     O40524   0.729   4.846   9.539  0.1201 -0.6009  0.0069
  301MOL0     C40525   0.635   4.787   9.620  1.9190 -1.1400 -0.8157
  301MOL0     C40526   0.643   4.783   9.760 -0.8991 -0.0881 -1.0259
  301MOL0     C40527   0.552   4.701   9.833 -0.5187  0.3403  0.0768
  301MOL0     C40528   0.578   4.691   9.986 -0.2580 -0.5392 -0.0098
  301MOL0     C40529   0.456   4.622   9.760  0.0732 -0.3371 -0.3474
  301MOL0     C40530   0.362   4.522   9.818  0.6935  0.1105  0.4932
  301MOL0     O40531   0.303   4.437   9.728 -0.3667  0.4631  0.2413
  301MOL0     C40532   0.240   4.320   9.770  0.5458 -0.3698 -0.2218
  301MOL0     C40533   0.257   4.256   9.889 -0.2798  0.3466 -0.2518
  301MOL0     C40534   0.179   4.141   9.926 -0.6371 -0.3639  0.7330
  301MOL0     C40535   0.082   4.094   9.834 -0.2387  0.7273  0.1434
  301MOL0     O40536   0.013   3.982   9.867  0.5751 -0.0301  0.4517
  301MOL0     C40537  -0.061   3.902   9.770 -0.1320  0.6653  0.4693
  301MOL0     C40538  -0.209   3.944   9.756 -0.2860 -0.6714  0.3135
  301MOL0     C40539  -0.282   3.967   9.888 -0.4893  0.5305 -0.0688
  301MOL0     C40540  -0.429   3.995   9.871 -0.2564 -0.5268  0.2804
  301MOL0     C40541  -0.510   3.996   9.996 -0.2372  0.3544 -0.2274
  301MOL0     C40542  -0.651   4.073   9.965 -0.5401 -0.0106  0.2778
  301MOL0     C40543  -0.722   4.041   9.833  0.5148  1.2381 -0.3074
  301MOL0     C40544  -0.875   4.025   9.856  1.2442 -1.3252 -0.5573
  301MOL0    Cl40545  -0.927   3.882   9.945  0.0464  0.1744  0.3457
  301MOL0     C40546   0.061   4.166   9.719 -0.8820  0.0434  0.4419
  301MOL0     C40547   0.143   4.275   9.683  0.2775  0.6074 -0.5984
  301MOL0     O40548   0.340   4.533   9.939  0.5415  0.8704  0.8691
  301MOL0     C40549   0.437   4.656   9.630 -0.5276 -0.3910  0.0895
  301MOL0     C40550   0.524   4.731   9.557  0.3201 -0.4534 -0.3420
  301MOL0     N40551   1.137   4.532   9.414 -0.9555  0.3241 -0.5078
  301MOL0     N40552   1.238   4.467   9.355 -0.5973 -0.0905 -0.3802
  301MOL0     C40553   2.500   4.827   9.001  0.6281  0.9220 -0.8688
  301MOL0     C40554   2.631   4.785   8.972 -0.4765  0.2736 -0.1981
  301MOL0     C40555   3.053   4.574   8.976  0.3880 -1.3172 -0.7242
  301MOL0     C40556   3.179   4.642   8.978  0.2975  0.5220 -0.2125
  301MOL0     C40557   3.283   4.572   8.920  0.9929  0.2411  0.2827
  301MOL0     C40558   3.272   4.438   8.874  0.6119 -0.7526 -0.1465
  301MOL0     O40559   3.380   4.373   8.816 -0.2661 -0.4242 -0.5152
  301MOL0     C40560   3.474   4.453   8.746  0.9270  0.3326 -0.5292
  301MOL0     C40561   3.412   4.510   8.617 -0.7915  0.6165 -0.2383
  301MOL0     C40562   3.519   4.528   8.515 -0.5234 -0.0322 -0.3832
  301MOL0     C40563   3.482   4.618   8.400 -0.3851  0.1776 -0.2870
  301MOL0     C40564   3.439   4.751   8.442 -0.4521  0.3302 -1.0127
  301MOL0     C40565   3.392   4.858   8.476 -0.6288 -1.1071  0.0111
  301MOL0     C40566   3.150   4.367   8.881  0.0210 -0.4447 -0.8595
  301MOL0     C40567   3.036   4.441   8.926  0.0210  0.2234 -0.1501
  301MOL0     H40568   2.638   4.498   9.138 -1.8271 -0.1516  1.3132
  301MOL0     H40569   2.410   4.585   9.216  0.0262  0.9771  1.2695
  301MOL0     H40570   2.197   4.624   9.054 -0.9230  2.0254 -2.1313
  301MOL0     H40571   2.188   4.659   9.230  3.3730  0.6056  0.7221
  301MOL0     H40572   2.043   4.848   9.194 -0.5284  2.1720 -1.1619
  301MOL0     H40573   2.069   4.841   9.023  6.0234  0.9943  1.7078
  301MOL0     H40574   1.974   4.602   9.015 -3.0383  0.9068 -1.5209
  301MOL0     H40575   1.953   4.613   9.193  0.1572  0.0563  1.3200
  301MOL0     H40576   1.807   4.801   9.168  0.1666  3.3784 -2.3048
  301MOL0     H40577   1.794   4.798   8.998  2.9560  1.8178 -0.4773
  301MOL0     H40578   1.717   4.536   9.026  0.1242  1.0916 -1.1440
  301MOL0     H40579   1.710   4.571   9.197  3.7750 -1.3281 -0.9830
  301MOL0     H40580   1.528   4.751   9.138 -2.1093 -1.9006  3.1003
  301MOL0     H40581   1.534   4.686   8.977 -1.5972 -0.7134  0.2158
  301MOL0     H40582   1.345   4.594   9.117 -1.0814  0.7653  1.6414
  301MOL0     H40583   1.469   4.465   9.091  2.2016 -0.9601  4.3202
  301MOL0     H40584   1.530   4.591   9.347 -2.8390  2.1794  1.8426
  301MOL0     H40585   1.488   4.430   9.297  0.7135  1.1120 -0.6964
  301MOL0     H40586   1.358   4.775   9.384  1.2276 -2.0068 -3.1721
  301MOL0     H40587   1.052   4.711   9.596  0.8545 -0.2474  0.0392
  301MOL0     H40588   1.174   4.836   9.551 -0.4433 -0.2067  1.2094
  301MOL0     H40589   0.922   4.783   9.397  2.1557 -2.7635 -1.1228
  301MOL0     H40590   1.051   4.888   9.341  0.3355 -1.0690 -1.1214
  301MOL0     H40591   0.913   5.059   9.439 -1.5942 -1.4827 -1.3740
  301MOL0     H40592   1.026   5.010   9.557  1.0720 -1.4453 -2.4483
  301MOL0     H40593   0.777   5.021   9.639 -3.2595  0.9165 -5.3588
  301MOL0     H40594   0.879   4.882   9.682 -1.0522 -3.7831 -1.8138
  301MOL0     H40595   0.719   4.833   9.820 -0.3126 -2.6162  0.5009
  301MOL0     H40596   0.609   4.595  10.029 -0.9772 -0.1336  1.4828
  301MOL0     H40597   0.653   4.764  10.016  0.0439 -1.1184  0.6731
  301MOL0     H40598   0.485   4.717  10.038 -0.6831  0.3963 -1.1850
  301MOL0     H40599   0.344   4.287   9.947  0.4351 -0.0234 -1.0974
  301MOL0     H40600   0.179   4.095  10.025  0.2858 -1.0598  0.4227
  301MOL0     H40601  -0.013   3.906   9.671 -0.6241  0.1383  0.2080
  301MOL0     H40602  -0.057   3.795   9.789 -3.0631 -0.0783 -2.2244
  301MOL0     H40603  -0.227   4.033   9.694 -1.1486  0.3002  1.8763
  301MOL0     H40604  -0.253   3.857   9.707 -1.8703 -1.9598  3.7104
  301MOL0     H40605  -0.243   4.061   9.927  1.2747 -1.5363  3.6080
  301MOL0     H40606  -0.254   3.885   9.954  2.8271  0.2268 -1.6491
  301MOL0     H40607  -0.448   4.085   9.812  2.8364 -0.4348 -0.7754
  301MOL0     H40608  -0.469   3.909   9.818  0.2920  0.2227 -1.4174
  301MOL0     H40609  -0.459   4.035  10.084  2.6530 -1.9147 -0.7398
  301MOL0     H40610  -0.528   3.892  10.022  3.0930  0.1853  2.0353
  301MOL0     H40611  -0.715   4.070  10.054  1.4143  1.8976  1.8833
  301MOL0     H40612  -0.609   4.174   9.957 -2.1960  0.6740 -0.1163
  301MOL0     H40613  -0.688   3.948   9.787  0.2733  1.2987 -0.6074
  301MOL0     H40614  -0.699   4.123   9.765 -0.6130  0.9663 -1.0375
  301MOL0     H40615  -0.937   4.045   9.768 -0.6045 -0.1802  0.9130
  301MOL0     H40616  -0.912   4.101   9.926 -0.6751 -3.5283  0.9780
  301MOL0     H40617  -0.023   4.133   9.659 -0.5495  1.1171 -0.6530
  301MOL0     H40618   0.125   4.320   9.586 -0.1024  2.3143  0.2330
  301MOL0     H40619   0.363   4.611   9.564 -1.9560  1.5961  0.2522
  301MOL0     H40620   0.509   4.752   9.452  1.3348  1.1372 -0.2032
  301MOL0     H40621   2.458   4.920   8.965  1.2171  2.1572  1.4448
  301MOL0     H40622   2.694   4.850   8.912 -0.9444 -1.7052 -3.0396
  301MOL0     H40623   3.194   4.746   9.004 -1.1949  1.7057 -3.5005
  301MOL0     H40624   3.371   4.633   8.902  1.8267 -1.2652 -1.0830
  301MOL0     H40625   3.530   4.518   8.813  0.3347 -2.5815  3.1026
  301MOL0     H40626   3.547   4.381   8.710  2.3472  0.9543  0.9928
  301MOL0     H40627   3.356   4.603   8.630 -1.4799  0.0488  1.0365
  301MOL0     H40628   3.340   4.436   8.581  0.8933 -1.7163  0.9379
  301MOL0     H40629   3.530   4.430   8.466 -0.2991 -0.4338  0.4450
  301MOL0     H40630   3.608   4.572   8.561 -1.0789  2.0099 -1.1649
  301MOL0     H40631   3.410   4.568   8.334  1.2912 -1.1994 -1.1335
  301MOL0     H40632   3.569   4.631   8.336 -0.5433  0.6668 -0.4108
  301MOL0     H40633   3.337   4.948   8.496  0.1667 -0.6034 -0.0327
  301MOL0     H40634   3.143   4.262   8.853 -0.9084 -1.8529  3.7243
  301MOL0     H40635   2.942   4.386   8.928 -0.7079  1.4164 -0.4546
  302MOL0     O40636  11.076   2.471   9.591  0.5245  0.2128 -0.5705
  302MOL0     C40637  11.117   2.579   9.569  0.8772 -0.6007  0.2216
  302MOL0     O40638  11.049   2.697   9.575 -0.0864  0.2103 -0.0346
  302MOL0     C40639  10.913   2.717   9.615  0.1173 -0.8016 -0.3077
  302MOL0     C40640  10.821   2.622   9.632 -0.5759  0.1793 -0.0407
  302MOL0     C40641  10.684   2.644   9.642  0.3861  0.0566  0.6331
  302MOL0     C40642  10.639   2.776   9.651 -0.8210 -0.5762  0.9715
  302MOL0     O40643  10.511   2.800   9.679 -0.7444 -0.2287  0.5581
  302MOL0     C40644  10.479   2.926   9.736  1.1528  0.6016  0.7604
  302MOL0     C40645  10.329   2.910   9.775  0.0845  0.3837  0.2607
  302MOL0     C40646  10.280   3.025   9.851 -0.0018 -0.6936 -0.2401
  302MOL0     C40647  10.133   2.993   9.894 -0.1331 -0.9550  0.5616
  302MOL0     C40648  10.055   3.120   9.932 -0.2259 -0.7956  0.2133
  302MOL0     C40649   9.909   3.117   9.901  0.4348 -0.3797 -0.1332
  302MOL0     C40650   9.835   3.248   9.927  0.0682 -0.1292  1.4426
  302MOL0     C40651   9.701   3.248   9.846  0.3083 -0.6423 -0.4526
  302MOL0     N40652   9.649   3.386   9.833  0.4993 -0.0482 -0.2217
  302MOL0     C40653   9.680   3.478   9.737 -0.1196  0.7122 -0.0629
  302MOL0     C40654   9.608   3.581   9.765 -0.2840  0.0660 -0.6822
  302MOL0     C40655   9.591   3.707   9.671  0.1888 -1.6553 -0.6948
  302MOL0     C40656   9.455   3.694   9.604  0.3120  0.4741 -0.2311
  302MOL0     C40657   9.402   3.834   9.556  0.3581 -0.4837 -0.5165
  302MOL0     C40658   9.254   3.823   9.518 -0.4230 -0.3150 -0.1161
  302MOL0     O40659   9.183   3.808   9.639  0.1763 -0.3701 -0.5692
  302MOL0     C40660   9.056   3.853   9.645  0.1337 -0.8015 -1.0017
  302MOL0     C40661   9.015   3.905   9.771  0.0762 -0.2106  0.8500
  302MOL0     C40662   8.888   3.951   9.792  0.5790 -0.0871  0.1523
  302MOL0     C40663   8.860   4.008   9.935 -0.2022 -0.2593  0.2800
  302MOL0     C40664   8.793   3.951   9.682  0.4180  0.5413 -0.6787
  302MOL0     C40665   8.661   4.024   9.681  0.7617 -0.4922  0.1427
  302MOL0     O40666   8.652   4.127   9.765  0.1172  0.3387 -0.0701
  302MOL0     C40667   8.534   4.196   9.778  0.8519  0.4291 -0.1357
  302MOL0     C40668   8.398   4.149   9.754 -0.2154  0.2901  0.5107
  302MOL0     C40669   8.296   4.229   9.790  0.7568 -0.2235 -0.2876
  302MOL0     C40670   8.310   4.339   9.864  0.5999 -0.6472  0.4897
  302MOL0     O40671   8.196   4.405   9.900  0.2103  0.4421 -0.5496
  302MOL0     C40672   8.144   4.512   9.816  0.1413  0.1093 -0.7818
  302MOL0     C40673   8.081   4.465   9.689 -0.5314 -0.2868 -0.2544
  302MOL0     C40674   8.056   4.575   9.591  0.1708 -0.5857 -0.4062
  302MOL0     C40675   8.181   4.648   9.530 -0.0104 -0.9924 -0.4338
  302MOL0     C40676   8.238   4.572   9.408 -1.2257 -0.8933  0.9703
  302MOL0     C40677   8.337   4.457   9.423 -0.4755  0.6014 -0.5411
  302MOL0     C40678   8.447   4.503   9.513  0.2787  0.6906 -0.2575
  302MOL0     C40679   8.564   4.402   9.501  0.1352  1.0846 -0.2056
  302MOL0    Cl40680   8.663   4.433   9.356 -0.1838 -0.2724  0.1703
  302MOL0     C40681   8.437   4.393   9.895  0.8968 -0.0926  0.1797
  302MOL0     C40682   8.545   4.315   9.847  0.1225  0.6601 -0.3370
  302MOL0     O40683   8.573   3.987   9.606  1.0173 -0.2135 -0.0845
  302MOL0     C40684   8.832   3.888   9.566 -0.2839  0.3563  0.0135
  302MOL0     C40685   8.960   3.837   9.546 -0.8106  0.7327 -1.0719
  302MOL0     N40686   9.554   3.567   9.893  0.7588  0.0895  0.7026
  302MOL0     N40687   9.565   3.445   9.918  0.4036 -0.0846 -0.7704
  302MOL0     C40688  10.732   2.881   9.639  0.8211 -0.3576  0.2795
  302MOL0     C40689  10.866   2.853   9.611 -0.8163  0.3069  0.2546
  302MOL0     C40690  11.246   2.588   9.518 -0.1643 -0.1618  0.1691
  302MOL0     C40691  11.290   2.704   9.452  0.2178  0.1788 -0.4743
  302MOL0     C40692  11.411   2.707   9.386 -0.0533  1.4039 -0.1532
  302MOL0     C40693  11.494   2.590   9.398  0.0700  0.0811  0.2666
  302MOL0     O40694  11.604   2.594   9.319 -0.5159 -0.2209  0.4500
  302MOL0     C40695  11.698   2.481   9.323  0.0317 -0.4549 -0.2634
  302MOL0     C40696  11.817   2.533   9.234  0.5281 -0.1649  0.5166
  302MOL0     C40697  11.921   2.422   9.223 -0.4493 -0.9489 -0.3852
  302MOL0     C40698  12.055   2.463   9.167 -0.3993  0.9282  1.0419
  302MOL0     C40699  12.139   2.536   9.259 -0.1620 -0.2920  0.7595
  302MOL0     C40700  12.214   2.601   9.331  0.4337  0.1203 -0.9744
  302MOL0     C40701  11.461   2.484   9.484 -0.1203  0.0109  0.3473
  302MOL0     C40702  11.331   2.481   9.541  0.2125 -0.3472  0.1798
  302MOL0     H40703  10.857   2.520   9.629 -0.3177  0.2120  1.3467
  302MOL0     H40704  10.625   2.554   9.648 -0.3008  0.4427 -0.2081
  302MOL0     H40705  10.536   2.953   9.825 -1.4356  1.0440  2.3966
  302MOL0     H40706  10.484   3.007   9.663 -0.7720  1.8257  1.9109
  302MOL0     H40707  10.272   2.883   9.686  2.2072 -1.7846 -0.5748
  302MOL0     H40708  10.331   2.825   9.844  0.8900  0.5399  0.4458
  302MOL0     H40709  10.337   3.045   9.941  1.1549  0.1044 -1.1266
  302MOL0     H40710  10.274   3.112   9.785 -0.3805  1.5644  2.5850
  302MOL0     H40711  10.080   2.956   9.806  2.0802 -2.5374 -0.1795
  302MOL0     H40712  10.133   2.912   9.968 -0.9815 -2.1862 -0.7496
  302MOL0     H40713  10.073   3.145  10.037  2.6398 -2.5596  0.2459
  302MOL0     H40714  10.090   3.208   9.879 -1.7570 -0.7233 -0.7448
  302MOL0     H40715   9.884   3.092   9.798  1.9794  0.1798 -0.6679
  302MOL0     H40716   9.866   3.040   9.965  2.6757 -1.0497  0.6680
  302MOL0     H40717   9.809   3.263  10.032 -0.4592 -1.7755  1.5797
  302MOL0     H40718   9.898   3.322   9.877 -1.5319  1.0418  1.0837
  302MOL0     H40719   9.620   3.186   9.886 -0.8976  2.0078  1.5024
  302MOL0     H40720   9.718   3.214   9.743 -0.2217 -0.0961 -0.7291
  302MOL0     H40721   9.738   3.462   9.647  2.5178  0.1019  1.6382
  302MOL0     H40722   9.600   3.797   9.733 -0.7020 -0.4360 -2.2705
  302MOL0     H40723   9.681   3.710   9.609  1.0429  0.7771  0.5228
  302MOL0     H40724   9.385   3.652   9.677  1.7824  0.8810  1.4524
  302MOL0     H40725   9.441   3.632   9.515 -3.2902 -0.5033  0.8366
  302MOL0     H40726   9.455   3.883   9.475 -0.9941  0.9396 -0.5893
  302MOL0     H40727   9.415   3.904   9.638 -0.8646 -1.6846  0.7703
  302MOL0     H40728   9.230   3.746   9.443 -1.5496  0.4502 -0.5676
  302MOL0     H40729   9.222   3.919   9.477  1.4899  0.6205  0.4531
  302MOL0     H40730   9.086   3.911   9.853 -0.2140  1.7559  1.0021
  302MOL0     H40731   8.934   3.980  10.011 -2.9125 -1.1860  2.7703
  302MOL0     H40732   8.850   4.117   9.933  1.0169 -0.1236 -2.1943
  302MOL0     H40733   8.765   3.965   9.967 -1.1360  0.6750 -1.1094
  302MOL0     H40734   8.369   4.051   9.718  0.8392  0.8890 -2.2434
  302MOL0     H40735   8.192   4.197   9.778  0.7551 -0.8217  1.1842
  302MOL0     H40736   8.064   4.559   9.874  2.1808 -0.3260  2.6260
  302MOL0     H40737   8.211   4.599   9.816 -0.1518  0.3349 -0.7462
  302MOL0     H40738   8.129   4.389   9.627 -3.5756  0.6213 -4.2001
  302MOL0     H40739   7.982   4.420   9.703  0.2923 -1.4131  2.4225
  302MOL0     H40740   8.001   4.654   9.642  1.2246  1.7418 -2.6439
  302MOL0     H40741   7.987   4.560   9.507 -1.5465  2.9255  0.1676
  302MOL0     H40742   8.142   4.745   9.498  0.4726 -1.2698 -1.9325
  302MOL0     H40743   8.264   4.673   9.597 -2.2420  0.9381  1.8164
  302MOL0     H40744   8.285   4.647   9.344 -1.4402 -1.0364  0.6428
  302MOL0     H40745   8.150   4.532   9.356 -1.1877 -2.9362  2.3791
  302MOL0     H40746   8.291   4.368   9.467 -0.8313  0.9043 -0.2972
  302MOL0     H40747   8.384   4.420   9.331  0.2912  1.8307 -0.6621
  302MOL0     H40748   8.406   4.497   9.614 -3.1490  3.3215 -1.2815
  302MOL0     H40749   8.469   4.609   9.497 -3.2882  1.5959 -0.0939
  302MOL0     H40750   8.536   4.296   9.508  0.3946  1.0858  1.4636
  302MOL0     H40751   8.616   4.407   9.598 -1.8628 -1.7871  1.1559
  302MOL0     H40752   8.452   4.488   9.944 -1.6050  0.5913 -0.2633
  302MOL0     H40753   8.644   4.356   9.866  0.0282  0.7857 -0.1076
  302MOL0     H40754   8.772   3.876   9.477  0.2336  3.3854 -0.8386
  302MOL0     H40755   8.992   3.797   9.451 -1.0828  1.2601 -1.3940
  302MOL0     H40756  10.709   2.986   9.623  4.0072  0.2452 -1.2658
  302MOL0     H40757  10.940   2.927   9.582  0.8042 -1.4804 -0.4410
  302MOL0     H40758  11.228   2.792   9.444  2.3974  1.7510 -0.8514
  302MOL0     H40759  11.454   2.793   9.337  2.2190  1.6349  2.0652
  302MOL0     H40760  11.732   2.446   9.422 -0.1116  1.0435  0.3395
  302MOL0     H40761  11.644   2.398   9.277 -1.3138  1.3346 -2.0449
  302MOL0     H40762  11.865   2.611   9.295 -1.1351 -0.3849  2.1720
  302MOL0     H40763  11.777   2.559   9.135  1.0268 -0.5397  0.2121
  302MOL0     H40764  11.881   2.341   9.161 -3.0990 -0.3761  0.4479
  302MOL0     H40765  11.938   2.371   9.318  0.1974 -0.0505 -0.0071
  302MOL0     H40766  12.039   2.516   9.073  1.8975 -0.3291 -0.1440
  302MOL0     H40767  12.113   2.374   9.138  0.3597  0.7895  2.8230
  302MOL0     H40768  12.285   2.653   9.393  0.7482  0.1401 -1.3436
  302MOL0     H40769  11.531   2.402   9.495 -0.7985 -0.8588 -1.4170
  302MOL0     H40770  11.302   2.393   9.597 -0.8954  0.3098  0.6582
  303MOL0     O40771   0.586   7.752   0.485  0.0743  0.0802 -0.2028
  303MOL0     C40772   0.558   7.702   0.379  0.7973  0.5748  0.0659
  303MOL0     O40773   0.436   7.712   0.314  0.2531  0.1084  0.7382
  303MOL0     C40774   0.330   7.780   0.368 -0.2042 -0.9387 -0.6911
  303MOL0     C40775   0.337   7.924   0.393 -0.0250  1.3697 -0.3949
  303MOL0     C40776   0.229   7.984   0.464  0.0069  0.9601 -0.2713
  303MOL0     C40777   0.113   7.908   0.496 -0.7346  0.5082 -0.0320
  303MOL0     O40778  -0.007   7.953   0.549 -0.2816  0.5997 -0.8199
  303MOL0     C40779  -0.039   8.087   0.519  0.0017  0.3065 -0.6215
  303MOL0     C40780  -0.192   8.111   0.512 -0.2519 -0.6938 -0.8998
  303MOL0     C40781  -0.249   8.093   0.375  0.5014  0.3971 -0.5116
  303MOL0     C40782  -0.404   8.131   0.376 -0.7465  0.0327  0.3638
  303MOL0     C40783  -0.464   8.113   0.228 -0.1310  0.0902  0.1902
  303MOL0     C40784  -0.618   8.084   0.234 -0.1263  0.3109  1.0436
  303MOL0     C40785  -0.691   8.213   0.289  0.3746  0.0278  0.0217
  303MOL0     C40786  -0.742   8.297   0.171 -0.0355  0.2591 -0.3664
  303MOL0     N40787  -0.856   8.233   0.098  0.2117 -0.0491 -0.4039
  303MOL0     C40788  -0.914   8.285  -0.010  0.5641 -0.5139  0.4679
  303MOL0     C40789  -0.974   8.193  -0.086  0.0758 -0.0209 -0.8763
  303MOL0     C40790  -1.049   8.233  -0.214  0.1925 -0.2263 -0.8696
  303MOL0     C40791  -1.102   8.102  -0.272 -0.0094 -0.8785 -0.0656
  303MOL0     C40792  -1.170   8.118  -0.407  0.3940  1.1700  0.0003
  303MOL0     C40793  -1.292   8.206  -0.424  0.6545 -0.1164  0.1876
  303MOL0     O40794  -1.308   8.226  -0.557 -0.0267  0.4640 -0.0728
  303MOL0     C40795  -1.419   8.306  -0.598 -0.6081  0.1779 -0.5071
  303MOL0     C40796  -1.444   8.293  -0.727  0.4945 -0.1473  0.4450
  303MOL0     C40797  -1.553   8.352  -0.796  0.4538 -0.2665  0.3230
  303MOL0     C40798  -1.575   8.310  -0.942  0.1192  0.4103  0.5958
  303MOL0     C40799  -1.658   8.412  -0.722 -1.3552  0.4036 -1.3475
  303MOL0     C40800  -1.798   8.449  -0.774 -0.3691 -0.4294 -1.1494
  303MOL0     O40801  -1.881   8.507  -0.681  0.2347 -0.3925 -0.2091
  303MOL0     C40802  -2.021   8.508  -0.694  0.6038  0.0645  0.2656
  303MOL0     C40803  -2.086   8.539  -0.576 -1.1964 -0.9089 -0.5789
  303MOL0     C40804  -2.220   8.546  -0.562  0.4678  0.3851 -0.8144
  303MOL0     C40805  -2.297   8.530  -0.681 -0.4524  0.3923 -0.5887
  303MOL0     O40806  -2.435   8.528  -0.666  0.1478  0.0387  0.0413
  303MOL0     C40807  -2.492   8.643  -0.730  0.0760 -0.2488  0.3280
  303MOL0     C40808  -2.642   8.627  -0.714  0.2579  0.2288 -0.1571
  303MOL0     C40809  -2.697   8.528  -0.816  1.4600  0.9882  1.0984
  303MOL0     C40810  -2.847   8.517  -0.803 -0.1303 -0.4187  0.2682
  303MOL0     C40811  -2.905   8.408  -0.897  0.1400  0.1183  0.6723
  303MOL0     C40812  -3.062   8.375  -0.882 -0.0844  0.1734  0.4138
  303MOL0     C40813  -3.107   8.315  -1.022 -0.4145  0.8439  0.6167
  303MOL0     C40814  -3.250   8.252  -1.012 -0.1318 -0.2593 -0.7165
  303MOL0    Cl40815  -3.366   8.368  -0.952  0.3307 -0.5534 -0.0023
  303MOL0     C40816  -2.241   8.497  -0.808 -0.2237  0.6346  0.3147
  303MOL0     C40817  -2.104   8.491  -0.811  0.7739  0.0431  0.5349
  303MOL0     O40818  -1.820   8.444  -0.893  0.1020  0.2740 -1.1360
  303MOL0     C40819  -1.625   8.433  -0.578 -0.2752  1.2534 -0.4179
  303MOL0     C40820  -1.506   8.382  -0.520  0.3452 -0.5824 -0.0901
  303MOL0     N40821  -0.979   8.075  -0.005 -0.5125 -0.4580  0.4489
  303MOL0     N40822  -0.910   8.101   0.100  0.0976 -0.1998  0.0409
  303MOL0     C40823   0.115   7.771   0.467  0.8229 -0.5273  0.2162
  303MOL0     C40824   0.222   7.701   0.409  0.3436 -0.1203 -0.2788
  303MOL0     C40825   0.666   7.646   0.308 -0.1204  0.1826  0.4976
  303MOL0     C40826   0.646   7.589   0.171 -0.6475  0.8897 -0.6727
  303MOL0     C40827   0.742   7.524   0.100  0.0892 -0.1932 -0.0772
  303MOL0     C40828   0.872   7.509   0.158 -0.2794 -1.2755 -0.2522
  303MOL0     O40829   0.971   7.433   0.095  0.3300  0.0024 -0.2049
  303MOL0     C40830   0.929   7.314   0.022 -0.5138  0.3933 -0.2948
  303MOL0     C40831   0.977   7.192   0.107  1.5204  0.2639  0.3521
  303MOL0     C40832   1.126   7.155   0.095  0.4558 -0.5517 -0.0625
  303MOL0     C40833   1.217   7.234   0.183 -0.7074  0.3081 -0.1240
  303MOL0     C40834   1.194   7.233   0.324 -0.8630 -0.1434 -1.3311
  303MOL0     C40835   1.190   7.254   0.440 -0.4246 -0.1964 -0.0518
  303MOL0     C40836   0.901   7.582   0.280  0.2001  0.0134 -0.0707
  303MOL0     C40837   0.793   7.643   0.354 -1.1470 -0.5137  0.3591
  303MOL0     H40838   0.432   7.968   0.368  0.2264  0.5827 -0.8815
  303MOL0     H40839   0.225   8.088   0.496 -0.7185  0.4164  1.5175
  303MOL0     H40840  -0.001   8.151   0.600  1.6831  1.5766 -2.3445
  303MOL0     H40841   0.008   8.123   0.427  1.2413  0.6512  0.1230
  303MOL0     H40842  -0.235   8.043   0.585  0.4554  0.6127  0.8051
  303MOL0     H40843  -0.221   8.212   0.541  2.6892  0.2819 -0.9808
  303MOL0     H40844  -0.192   8.150   0.300  2.6955 -2.2428 -1.0054
  303MOL0     H40845  -0.239   7.987   0.349  1.6644  0.1243  0.9234
  303MOL0     H40846  -0.448   8.062   0.449  2.2673  0.8871  3.2070
  303MOL0     H40847  -0.410   8.234   0.411 -0.4807  1.3875 -3.1538
  303MOL0     H40848  -0.439   8.192   0.157  0.8703  0.2866  0.7467
  303MOL0     H40849  -0.408   8.029   0.186  2.9004  2.0616 -0.0160
  303MOL0     H40850  -0.648   8.065   0.131  0.8627  1.0734  0.5945
  303MOL0     H40851  -0.652   8.005   0.302 -3.1551  1.9708  1.6118
  303MOL0     H40852  -0.777   8.183   0.351 -0.3587 -0.3435 -1.1318
  303MOL0     H40853  -0.628   8.275   0.352 -0.4498  1.7921 -0.8186
  303MOL0     H40854  -0.663   8.318   0.098 -0.6459 -0.3123 -1.2064
  303MOL0     H40855  -0.765   8.395   0.213  0.0768 -0.3154  1.1019
  303MOL0     H40856  -0.904   8.388  -0.043  0.5350 -0.3731  0.8956
  303MOL0     H40857  -1.136   8.295  -0.190  1.3081  0.1539  2.7716
  303MOL0     H40858  -0.984   8.281  -0.287 -0.0927 -0.2597 -1.1454
  303MOL0     H40859  -1.177   8.074  -0.198 -0.8339  1.7453  0.2174
  303MOL0     H40860  -1.029   8.024  -0.294 -2.4827 -2.7073 -2.4336
  303MOL0     H40861  -1.203   8.020  -0.442 -5.0478  1.9076  2.0558
  303MOL0     H40862  -1.092   8.153  -0.476 -0.6015  0.9969 -1.2557
  303MOL0     H40863  -1.273   8.309  -0.394 -1.3959  1.3770 -3.0460
  303MOL0     H40864  -1.378   8.162  -0.374  3.0083 -2.8363  2.1316
  303MOL0     H40865  -1.378   8.222  -0.775 -0.8715 -0.3878 -1.1775
  303MOL0     H40866  -1.618   8.382  -1.013  2.2203  0.2674 -0.9109
  303MOL0     H40867  -1.473   8.296  -0.978  0.2596  0.0401  1.1450
  303MOL0     H40868  -1.622   8.212  -0.935 -0.8612  0.7352 -0.8206
  303MOL0     H40869  -2.025   8.560  -0.489 -0.3916  3.3962 -1.9515
  303MOL0     H40870  -2.267   8.579  -0.470 -1.4759 -0.5975 -1.3957
  303MOL0     H40871  -2.456   8.731  -0.677  1.0487 -1.7001  2.1872
  303MOL0     H40872  -2.481   8.655  -0.838 -3.4519 -1.0192 -0.2324
  303MOL0     H40873  -2.664   8.597  -0.611  4.2415  0.9047  1.0716
  303MOL0     H40874  -2.676   8.728  -0.738  0.4209  0.2863 -0.1490
  303MOL0     H40875  -2.647   8.432  -0.799  1.7693  1.2787  1.9118
  303MOL0     H40876  -2.685   8.557  -0.920 -1.1107  0.1580  0.4930
  303MOL0     H40877  -2.872   8.490  -0.700  0.0600  0.2850  0.4990
  303MOL0     H40878  -2.895   8.611  -0.829 -0.2397 -1.3830 -3.7615
  303MOL0     H40879  -2.852   8.317  -0.869  1.5373 -0.3582 -2.9061
  303MOL0     H40880  -2.881   8.427  -1.002 -4.8514 -0.7579 -0.9112
  303MOL0     H40881  -3.070   8.303  -0.801  0.9306  1.0336  1.3167
  303MOL0     H40882  -3.124   8.456  -0.842  1.2712  0.4444  2.0657
  303MOL0     H40883  -3.035   8.244  -1.064 -0.7462  1.0723 -0.3646
  303MOL0     H40884  -3.106   8.395  -1.096  2.9856  1.7261  1.4387
  303MOL0     H40885  -3.241   8.170  -0.940 -1.7730 -0.3996 -0.6234
  303MOL0     H40886  -3.275   8.217  -1.113  0.6333  1.1218 -1.4104
  303MOL0     H40887  -2.303   8.489  -0.896 -1.4098  0.2794  1.1509
  303MOL0     H40888  -2.065   8.449  -0.903 -0.5949  1.0504 -0.5715
  303MOL0     H40889  -1.698   8.484  -0.517 -2.1047 -1.0559 -0.5248
  303MOL0     H40890  -1.482   8.395  -0.415  0.8114  0.7389 -0.3494
  303MOL0     H40891   0.027   7.713   0.491  1.1857 -2.4807 -2.6121
  303MOL0     H40892   0.217   7.594   0.394 -0.5363 -0.3745  1.5288
  303MOL0     H40893   0.547   7.598   0.126 -0.0891  1.6718 -1.7862
  303MOL0     H40894   0.710   7.485   0.004  0.9976  0.3753 -0.6306
  303MOL0     H40895   0.821   7.302   0.025 -0.4420 -0.5111 -0.8017
  303MOL0     H40896   0.978   7.306  -0.076  1.0448 -2.1144  0.5652
  303MOL0     H40897   0.922   7.101   0.079  0.8717  0.6397  0.3934
  303MOL0     H40898   0.944   7.207   0.211 -0.7921 -1.8513  0.0139
  303MOL0     H40899   1.162   7.151  -0.008  1.5803 -0.7145  0.3282
  303MOL0     H40900   1.137   7.052   0.131 -2.6206 -0.7370  0.6858
  303MOL0     H40901   1.236   7.340   0.162  2.0304  0.0606  0.6168
  303MOL0     H40902   1.316   7.190   0.165 -0.2809  2.1054 -2.6944
  303MOL0     H40903   1.213   7.302   0.533 -0.5882  0.5370 -0.3818
  303MOL0     H40904   0.995   7.563   0.329  0.3794 -2.2847 -1.1437
  303MOL0     H40905   0.816   7.693   0.447 -3.8410  0.1555  0.7515
  304MOL0     O40906   7.943   3.819   2.028 -0.1558 -0.7239 -0.1311
  304MOL0     C40907   7.831   3.866   2.018  0.0887 -0.1048  0.2664
  304MOL0     O40908   7.764   3.908   1.911  0.2097  0.0051 -0.5271
  304MOL0     C40909   7.784   3.858   1.785 -0.0607  0.3902  0.3956
  304MOL0     C40910   7.818   3.726   1.767  0.8650 -0.1700 -0.0233
  304MOL0     C40911   7.829   3.667   1.652 -0.4194  0.2591  0.0744
  304MOL0     C40912   7.811   3.741   1.534  0.1042  0.7737 -0.1655
  304MOL0     O40913   7.820   3.686   1.411 -0.0597  0.0084  0.4580
  304MOL0     C40914   7.706   3.621   1.362  0.4444 -0.1996 -0.5790
  304MOL0     C40915   7.718   3.467   1.381  0.0792  0.1380 -0.0051
  304MOL0     C40916   7.597   3.377   1.404  0.2632 -0.2141  0.1988
  304MOL0     C40917   7.497   3.372   1.290 -1.3305 -0.5417 -0.2016
  304MOL0     C40918   7.405   3.252   1.310  0.3636  0.6439 -0.5509
  304MOL0     C40919   7.335   3.250   1.448 -0.9857 -0.5390  0.2723
  304MOL0     C40920   7.228   3.143   1.452 -0.4922  0.2802 -0.0442
  304MOL0     C40921   7.182   3.150   1.596 -0.1450  0.2458 -0.6283
  304MOL0     N40922   7.090   3.039   1.629 -0.3230 -0.6280 -0.2342
  304MOL0     C40923   6.972   3.064   1.690 -0.1010 -0.7978 -0.4039
  304MOL0     C40924   6.921   2.947   1.725  0.1514  0.0449  0.1616
  304MOL0     C40925   6.784   2.935   1.787 -0.6474  0.4282 -0.0833
  304MOL0     C40926   6.751   2.787   1.806 -0.7829  0.1815 -0.1856
  304MOL0     C40927   6.635   2.775   1.909 -0.4221 -0.0046 -0.2497
  304MOL0     C40928   6.622   2.632   1.954  0.1583 -0.2416  0.1359
  304MOL0     O40929   6.528   2.623   2.057  0.0277 -0.2126 -1.0599
  304MOL0     C40930   6.397   2.625   2.016  0.0066 -0.2021 -0.5079
  304MOL0     C40931   6.299   2.678   2.099 -0.7179 -0.1182  0.9576
  304MOL0     C40932   6.161   2.674   2.055 -0.4202 -0.1232  0.2023
  304MOL0     C40933   6.061   2.742   2.148  0.1554 -0.3489 -0.6287
  304MOL0     C40934   6.121   2.603   1.937 -1.0471  0.5943 -0.1233
  304MOL0     C40935   5.988   2.585   1.891  0.3787  0.6545  0.1229
  304MOL0     O40936   5.895   2.574   1.982 -0.1598 -0.2360  0.0064
  304MOL0     C40937   5.759   2.592   1.958  0.0684  0.2464 -0.0832
  304MOL0     C40938   5.694   2.597   1.837  0.4839  0.1303  0.7914
  304MOL0     C40939   5.558   2.628   1.825 -0.4001 -0.1782 -0.2785
  304MOL0     C40940   5.475   2.644   1.939  0.2364  0.6115  0.2990
  304MOL0     O40941   5.342   2.674   1.929 -0.0183  0.9350 -0.0360
  304MOL0     C40942   5.256   2.571   1.986  0.7255 -0.2349  0.3587
  304MOL0     C40943   5.122   2.583   1.918 -0.3131 -0.7406  0.2866
  304MOL0     C40944   5.036   2.454   1.945 -0.2072  0.3192 -0.5505
  304MOL0     C40945   4.961   2.484   2.075 -0.9900 -0.5692  0.1856
  304MOL0     C40946   4.861   2.373   2.104 -0.6956 -0.3067 -0.2315
  304MOL0     C40947   4.791   2.388   2.241  0.2106  0.3593 -0.2292
  304MOL0     C40948   4.766   2.253   2.311  0.8749  0.4210 -0.4895
  304MOL0     C40949   4.685   2.272   2.441 -0.4349 -0.3479  0.2004
  304MOL0    Cl40950   4.522   2.334   2.404 -0.2411 -0.0128  0.5939
  304MOL0     C40951   5.539   2.638   2.064 -0.0844 -0.0069  0.4272
  304MOL0     C40952   5.677   2.614   2.073  0.3696 -0.4403 -0.7607
  304MOL0     O40953   5.967   2.570   1.767  0.3625 -0.6123 -0.7008
  304MOL0     C40954   6.229   2.541   1.855 -0.1406  0.0399 -0.1671
  304MOL0     C40955   6.361   2.561   1.900 -0.2965  0.4445  0.0362
  304MOL0     N40956   7.001   2.851   1.666  0.7164  0.0983  0.4057
  304MOL0     N40957   7.103   2.910   1.612  0.0686  0.3803 -0.2800
  304MOL0     C40958   7.773   3.880   1.536  1.1922  0.4313 -0.9149
  304MOL0     C40959   7.760   3.941   1.667  1.1890  0.4869 -0.4656
  304MOL0     C40960   7.761   3.868   2.148 -0.0481  0.0113 -0.8706
  304MOL0     C40961   7.630   3.922   2.156  0.3183 -0.2082 -0.2411
  304MOL0     C40962   7.562   3.925   2.280 -0.1863 -0.1553  0.4003
  304MOL0     C40963   7.613   3.868   2.393 -0.7459  0.2086 -0.1372
  304MOL0     O40964   7.549   3.858   2.512 -0.2759  0.0414 -0.5829
  304MOL0     C40965   7.405   3.872   2.518  0.6599 -0.1947 -0.4764
  304MOL0     C40966   7.362   3.883   2.665 -0.9496  0.7344 -0.8582
  304MOL0     C40967   7.216   3.850   2.698 -0.6015 -0.3023 -0.1786
  304MOL0     C40968   7.189   3.870   2.849  0.6483 -0.4358  0.2344
  304MOL0     C40969   7.194   4.018   2.877  0.5200  0.7038 -0.5819
  304MOL0     C40970   7.224   4.133   2.914  1.0951  0.3433  0.7911
  304MOL0     C40971   7.738   3.817   2.390 -0.3469 -0.4394 -0.4315
  304MOL0     C40972   7.816   3.821   2.273 -0.1188 -0.3082 -0.4636
  304MOL0     H40973   7.813   3.675   1.862 -0.7820 -0.4223 -0.2067
  304MOL0     H40974   7.853   3.562   1.639  0.2674  0.5813 -1.4050
  304MOL0     H40975   7.615   3.646   1.417  1.5236 -2.9572  2.7790
  304MOL0     H40976   7.695   3.644   1.255 -1.3821 -0.7433 -0.5451
  304MOL0     H40977   7.771   3.429   1.294 -2.5940  0.0745 -1.7324
  304MOL0     H40978   7.782   3.449   1.467  0.9784  1.5521 -0.3464
  304MOL0     H40979   7.618   3.275   1.437 -4.1024 -0.5068  2.7566
  304MOL0     H40980   7.543   3.428   1.484  1.3156  1.8071 -0.2812
  304MOL0     H40981   7.445   3.468   1.285 -1.9699 -0.9192 -1.1192
  304MOL0     H40982   7.547   3.359   1.193 -0.8147  2.4356 -0.4250
  304MOL0     H40983   7.329   3.246   1.232  0.7752  4.6145 -1.4781
  304MOL0     H40984   7.459   3.157   1.294 -0.5235 -0.0808  0.5716
  304MOL0     H40985   7.410   3.245   1.527 -2.6491  2.2446  2.1992
  304MOL0     H40986   7.280   3.345   1.452  1.0938  0.7228  0.1382
  304MOL0     H40987   7.152   3.168   1.378 -0.0598 -1.4558 -1.1192
  304MOL0     H40988   7.268   3.047   1.418  0.8241  1.7888 -3.2483
  304MOL0     H40989   7.136   3.249   1.591  1.0716  0.7763 -2.5036
  304MOL0     H40990   7.263   3.161   1.669 -1.4662 -0.9790  1.1059
  304MOL0     H40991   6.927   3.160   1.711 -1.3650 -1.9871  3.1720
  304MOL0     H40992   6.793   2.979   1.887  0.3888 -2.5221  1.2309
  304MOL0     H40993   6.705   2.988   1.733  0.1225 -0.0028 -1.6792
  304MOL0     H40994   6.830   2.737   1.862 -0.2727  0.7982 -0.3414
  304MOL0     H40995   6.722   2.749   1.707 -0.7246  2.4502 -1.1323
  304MOL0     H40996   6.543   2.813   1.865 -1.5327 -0.6525  1.4117
  304MOL0     H40997   6.677   2.835   1.990  3.5371 -0.7109 -1.5569
  304MOL0     H40998   6.715   2.591   1.995 -0.7144 -2.1718  0.2862
  304MOL0     H40999   6.604   2.558   1.875  0.2674 -0.1261  0.0028
  304MOL0     H41000   6.322   2.719   2.196 -0.2643 -1.7281  1.5624
  304MOL0     H41001   6.001   2.813   2.091  2.6107  1.6721 -0.8372
  304MOL0     H41002   5.995   2.669   2.197 -0.6767  1.3999  0.9660
  304MOL0     H41003   6.119   2.786   2.230  1.3784 -0.4906 -1.3925
  304MOL0     H41004   5.739   2.576   1.740 -0.3194 -1.5874  0.7571
  304MOL0     H41005   5.519   2.645   1.725  0.3879  0.7951 -0.4445
  304MOL0     H41006   5.297   2.475   1.952  0.3885 -1.0549  2.1388
  304MOL0     H41007   5.247   2.592   2.093 -0.6229  2.1949 -0.1536
  304MOL0     H41008   5.066   2.675   1.938  0.5365 -0.0099 -0.6133
  304MOL0     H41009   5.146   2.588   1.812  1.1866 -1.2159  0.5778
  304MOL0     H41010   5.105   2.370   1.938  2.0842  2.2052 -2.1200
  304MOL0     H41011   4.961   2.448   1.867  0.2687  3.5023 -1.4201
  304MOL0     H41012   5.039   2.485   2.151 -0.3560  2.9615 -0.3434
  304MOL0     H41013   4.911   2.582   2.069 -0.7273 -0.4249  0.3450
  304MOL0     H41014   4.915   2.279   2.093 -0.2137  0.1122 -1.6305
  304MOL0     H41015   4.794   2.367   2.018  3.6027 -0.8305 -3.9299
  304MOL0     H41016   4.853   2.453   2.303  1.2900 -1.8964  1.1848
  304MOL0     H41017   4.689   2.425   2.229  0.5297  0.7792 -1.9880
  304MOL0     H41018   4.855   2.190   2.326  0.2483 -0.6128 -0.9900
  304MOL0     H41019   4.710   2.188   2.243 -1.6330  0.2159  1.6231
  304MOL0     H41020   4.735   2.334   2.516 -0.4386 -2.1933  1.8262
  304MOL0     H41021   4.665   2.184   2.503  1.0652  0.6271  2.2002
  304MOL0     H41022   5.501   2.653   2.164  1.8016  0.3971  1.1186
  304MOL0     H41023   5.723   2.628   2.170 -5.6795 -1.7775  2.8170
  304MOL0     H41024   6.208   2.482   1.767 -1.0750 -0.2548  0.2393
  304MOL0     H41025   6.427   2.521   1.823 -2.1312 -1.4944 -0.6178
  304MOL0     H41026   7.749   3.940   1.449  0.6653  0.5827 -0.6659
  304MOL0     H41027   7.723   4.040   1.691 -3.1674 -1.0975  0.2881
  304MOL0     H41028   7.588   3.971   2.068  0.8487  1.8691  0.6020
  304MOL0     H41029   7.463   3.968   2.272 -0.0013  0.0793 -0.8343
  304MOL0     H41030   7.373   3.963   2.467 -0.2984 -0.1688  0.1489
  304MOL0     H41031   7.358   3.781   2.480  1.0319 -0.7968  0.4494
  304MOL0     H41032   7.381   3.987   2.692  1.5878 -0.2683  1.6346
  304MOL0     H41033   7.434   3.823   2.722 -1.5923 -2.3174 -2.9977
  304MOL0     H41034   7.191   3.747   2.670  1.0226 -1.6859  2.8922
  304MOL0     H41035   7.143   3.915   2.650 -1.5075  1.1511  2.9259
  304MOL0     H41036   7.259   3.819   2.915  0.2838 -2.0087 -0.5399
  304MOL0     H41037   7.097   3.829   2.893  1.5791 -0.2552  2.4508
  304MOL0     H41038   7.221   4.234   2.948 -3.8113  0.4186  0.9058
  304MOL0     H41039   7.777   3.766   2.478 -1.7945  1.2651  1.2606
  304MOL0     H41040   7.914   3.776   2.283 -0.0335  0.2027  1.2186
  305MOL0     O41041   6.898   9.057   4.581  0.0047  0.0615  0.3527
  305MOL0     C41042   6.948   8.988   4.493 -0.2181  0.1041 -0.1544
  305MOL0     O41043   7.026   9.028   4.395 -0.3549  0.4508 -0.0385
  305MOL0     C41044   7.068   9.162   4.402  0.5571  0.1254  1.1488
  305MOL0     C41045   7.028   9.255   4.297  0.4408 -0.4026  0.8697
  305MOL0     C41046   7.079   9.384   4.287 -0.3406 -0.1532 -0.0548
  305MOL0     C41047   7.176   9.430   4.390  1.2558  0.2272  0.8659
  305MOL0     O41048   7.249   9.548   4.361  0.2194  0.0892  0.3926
  305MOL0     C41049   7.336   9.609   4.468 -0.1909 -0.1343  0.9566
  305MOL0     C41050   7.401   9.731   4.414  0.1705  0.0297  0.1310
  305MOL0     C41051   7.466   9.727   4.278 -0.6275 -0.2494 -0.1392
  305MOL0     C41052   7.573   9.619   4.266 -0.2007 -0.0557 -0.0908
  305MOL0     C41053   7.692   9.630   4.367  0.2954 -1.2475  0.5012
  305MOL0     C41054   7.785   9.752   4.327 -0.0884  0.0606  0.1589
  305MOL0     C41055   7.925   9.720   4.383  0.1137 -0.7060  0.0550
  305MOL0     C41056   8.014   9.633   4.292 -0.2078 -0.1645 -0.2951
  305MOL0     N41057   8.152   9.638   4.353  0.2525  0.6782  0.1510
  305MOL0     C41058   8.190   9.564   4.463  0.4766  0.3651  0.1949
  305MOL0     C41059   8.295   9.626   4.519 -0.0568 -0.6972 -0.9003
  305MOL0     C41060   8.365   9.597   4.646  0.0934 -0.1114  0.9497
  305MOL0     C41061   8.276   9.537   4.749 -0.2806  0.6777 -0.3853
  305MOL0     C41062   8.371   9.493   4.864  0.1683 -0.5695  0.4570
  305MOL0     C41063   8.434   9.355   4.829 -0.3622 -0.0364 -0.3696
  305MOL0     O41064   8.328   9.252   4.803 -0.2028  0.5173  0.0342
  305MOL0     C41065   8.364   9.137   4.742 -0.5817  0.4946 -0.1297
  305MOL0     C41066   8.270   9.037   4.722  0.2930  0.3136  0.6165
  305MOL0     C41067   8.287   8.921   4.650  0.7883 -0.2083  0.3700
  305MOL0     C41068   8.165   8.837   4.650 -0.0716  0.0574  0.2226
  305MOL0     C41069   8.413   8.896   4.580 -0.2546  1.1923  0.0389
  305MOL0     C41070   8.443   8.791   4.476  0.1028 -0.5517  0.7109
  305MOL0     O41071   8.570   8.792   4.428  0.5950 -1.3878 -0.1179
  305MOL0     C41072   8.617   8.679   4.367  0.6039  0.0045  0.5802
  305MOL0     C41073   8.555   8.610   4.248  0.2088  0.7011 -0.4985
  305MOL0     C41074   8.602   8.490   4.210 -0.2328  0.0958  0.5160
  305MOL0     C41075   8.718   8.434   4.264 -0.2430  0.7230 -0.2770
  305MOL0     O41076   8.764   8.312   4.227 -0.0861  0.0852 -0.2030
  305MOL0     C41077   8.751   8.267   4.093 -0.5200  0.4875  0.4062
  305MOL0     C41078   8.856   8.158   4.069 -0.2844 -0.0856  0.7256
  305MOL0     C41079   8.994   8.220   4.061  0.2979  0.4998  0.2035
  305MOL0     C41080   9.121   8.147   4.039 -0.1007  0.5806 -0.2229
  305MOL0     C41081   9.250   8.229   4.046 -0.1769  0.4421  0.9099
  305MOL0     C41082   9.315   8.253   4.176  0.2609  0.2055 -0.1647
  305MOL0     C41083   9.432   8.353   4.155 -0.3171 -0.3571 -0.7770
  305MOL0     C41084   9.538   8.367   4.269  0.3261 -0.6437 -0.2677
  305MOL0    Cl41085   9.616   8.208   4.298 -0.2136 -0.2533 -0.0784
  305MOL0     C41086   8.785   8.507   4.364 -0.4434 -0.1605 -0.3631
  305MOL0     C41087   8.731   8.620   4.419 -0.1529 -0.1538 -0.0833
  305MOL0     O41088   8.361   8.702   4.455 -0.2516 -0.2593  0.2359
  305MOL0     C41089   8.518   8.986   4.623 -0.2878 -1.0093  0.2120
  305MOL0     C41090   8.494   9.106   4.699  0.0161 -0.4792 -0.3314
  305MOL0     N41091   8.320   9.742   4.451 -0.7381 -0.0313 -0.3752
  305MOL0     N41092   8.226   9.749   4.359 -0.6048  0.3490  0.6902
  305MOL0     C41093   7.207   9.349   4.493 -0.6365 -0.3296  0.7877
  305MOL0     C41094   7.145   9.219   4.506 -0.4818 -0.6824  0.8190
  305MOL0     C41095   6.877   8.857   4.468  0.4422 -0.3671 -0.4155
  305MOL0     C41096   6.892   8.773   4.360 -0.5270 -0.3603  0.2629
  305MOL0     C41097   6.833   8.645   4.355  0.2925 -0.6375 -1.0500
  305MOL0     C41098   6.726   8.607   4.446 -0.4233 -0.4674 -0.4098
  305MOL0     O41099   6.658   8.488   4.427 -0.3348  0.3026 -0.1239
  305MOL0     C41100   6.530   8.463   4.489  0.3821  0.8771 -1.5235
  305MOL0     C41101   6.439   8.394   4.379  0.5021  0.2223  0.5357
  305MOL0     C41102   6.313   8.319   4.428  0.2822 -0.1473  0.6788
  305MOL0     C41103   6.316   8.181   4.483  0.3172  0.0889  0.0300
  305MOL0     C41104   6.364   8.075   4.389 -0.3260 -0.6284  0.6049
  305MOL0     C41105   6.399   8.007   4.292  0.0807  0.1279 -1.4171
  305MOL0     C41106   6.706   8.696   4.548  0.2354 -0.0655  0.5141
  305MOL0     C41107   6.779   8.811   4.566  0.7539  0.1966  0.3113
  305MOL0     H41108   6.972   9.224   4.210  0.4298  0.8202  0.4217
  305MOL0     H41109   7.040   9.443   4.205  0.9897  1.4800  0.4337
  305MOL0     H41110   7.289   9.640   4.562  1.6849  1.0564  1.5374
  305MOL0     H41111   7.418   9.538   4.480  0.8978  0.0795 -3.3659
  305MOL0     H41112   7.322   9.805   4.400 -0.2520 -0.8427 -2.9432
  305MOL0     H41113   7.475   9.768   4.486  0.8654  0.8440 -0.9693
  305MOL0     H41114   7.396   9.722   4.194 -0.2752 -0.8274 -0.4093
  305MOL0     H41115   7.522   9.819   4.260 -1.8802  0.4563 -0.5832
  305MOL0     H41116   7.523   9.522   4.283  2.1400 -1.3606 -0.2584
  305MOL0     H41117   7.608   9.628   4.163 -0.8323  2.9824 -0.1235
  305MOL0     H41118   7.659   9.644   4.470 -0.4306  3.6984 -0.1535
  305MOL0     H41119   7.747   9.537   4.350  1.3499 -0.3313 -1.4511
  305MOL0     H41120   7.786   9.774   4.220 -0.0099 -0.9863 -0.0704
  305MOL0     H41121   7.749   9.841   4.379  3.5900  0.9274  1.5364
  305MOL0     H41122   7.977   9.816   4.390  1.3402 -1.2327 -1.3389
  305MOL0     H41123   7.923   9.665   4.478  0.7856 -3.3478 -1.3597
  305MOL0     H41124   8.026   9.674   4.191  1.1145 -0.3791 -0.2326
  305MOL0     H41125   7.980   9.530   4.280  0.5677 -0.3696 -0.8142
  305MOL0     H41126   8.134   9.479   4.500 -0.0723  0.2179 -0.9294
  305MOL0     H41127   8.450   9.531   4.626 -0.1662 -0.3914  0.7712
  305MOL0     H41128   8.397   9.690   4.695 -1.5037 -0.2188  2.2883
  305MOL0     H41129   8.222   9.447   4.716  1.1558 -2.2409  4.1918
  305MOL0     H41130   8.201   9.608   4.783 -2.0079  1.0613 -4.4043
  305MOL0     H41131   8.315   9.493   4.958  0.2687 -0.1661  0.5169
  305MOL0     H41132   8.450   9.567   4.876 -0.3550  0.2835 -1.0444
  305MOL0     H41133   8.495   9.334   4.918  1.9063 -0.4881 -1.9424
  305MOL0     H41134   8.511   9.369   4.752  0.5731  2.1763  0.8849
  305MOL0     H41135   8.171   9.075   4.746  1.1294  1.4818  2.4409
  305MOL0     H41136   8.172   8.769   4.735  0.7664 -0.1195  0.0233
  305MOL0     H41137   8.076   8.896   4.674 -1.3553 -2.0261  0.8886
  305MOL0     H41138   8.153   8.789   4.552 -0.5114  2.2373 -0.8631
  305MOL0     H41139   8.462   8.645   4.206 -0.7761  0.3365  1.2485
  305MOL0     H41140   8.551   8.445   4.125  1.3737 -0.2466 -0.2972
  305MOL0     H41141   8.645   8.244   4.079 -0.5760  1.6377 -1.4382
  305MOL0     H41142   8.762   8.342   4.014 -1.8195 -1.1367 -1.4200
  305MOL0     H41143   8.840   8.071   4.134 -1.4872 -1.0980 -0.8505
  305MOL0     H41144   8.845   8.115   3.969  2.3397 -1.9099  1.1065
  305MOL0     H41145   9.002   8.281   4.151 -1.6920 -1.5125  1.8880
  305MOL0     H41146   8.990   8.285   3.973 -1.0428  1.6755  1.0772
  305MOL0     H41147   9.134   8.073   4.119  0.2881  0.0524 -0.7743
  305MOL0     H41148   9.107   8.096   3.943 -0.6199 -0.8746  0.5851
  305MOL0     H41149   9.224   8.322   3.994 -1.9260 -1.1277 -1.2144
  305MOL0     H41150   9.318   8.170   3.984 -2.1381 -2.4700  1.3261
  305MOL0     H41151   9.242   8.295   4.245 -0.9533  0.5527 -1.5925
  305MOL0     H41152   9.349   8.157   4.216 -2.3814 -0.2872  1.1570
  305MOL0     H41153   9.395   8.454   4.137 -1.2046 -0.5912 -0.3014
  305MOL0     H41154   9.483   8.332   4.060  0.2090 -0.2562 -0.5194
  305MOL0     H41155   9.496   8.397   4.366  3.4007  0.5483  0.7962
  305MOL0     H41156   9.617   8.436   4.238 -1.1193  0.3534 -1.9221
  305MOL0     H41157   8.872   8.469   4.418 -2.4710 -0.5597  2.9386
  305MOL0     H41158   8.771   8.687   4.494 -0.8648  1.6738 -1.2549
  305MOL0     H41159   8.620   8.989   4.587 -0.0654  5.1370  0.2886
  305MOL0     H41160   8.580   9.157   4.741  0.5705 -2.0792  0.5699
  305MOL0     H41161   7.288   9.383   4.558  0.8354  1.1456 -1.6551
  305MOL0     H41162   7.165   9.152   4.589  0.7755 -1.0645  0.2315
  305MOL0     H41163   6.973   8.788   4.289 -0.1543 -0.6749  0.6161
  305MOL0     H41164   6.867   8.576   4.280 -0.8326 -2.8684  0.3879
  305MOL0     H41165   6.557   8.405   4.577  3.5263 -1.8500 -4.0069
  305MOL0     H41166   6.467   8.548   4.517  0.1527  0.5008 -0.8941
  305MOL0     H41167   6.505   8.320   4.331 -0.7205 -0.6545  0.1413
  305MOL0     H41168   6.422   8.474   4.307  2.1161  0.2308  0.1137
  305MOL0     H41169   6.248   8.310   4.340  1.6002  1.1735 -0.5012
  305MOL0     H41170   6.260   8.383   4.500  1.8025 -0.1399  1.8463
  305MOL0     H41171   6.220   8.153   4.528  0.1828  0.2636 -0.1493
  305MOL0     H41172   6.384   8.184   4.569 -1.3425 -1.6066  1.4921
  305MOL0     H41173   6.412   7.952   4.201  0.0472 -1.4712 -0.4994
  305MOL0     H41174   6.639   8.679   4.631  0.6626 -0.9996  0.6727
  305MOL0     H41175   6.752   8.858   4.660 -0.6667 -0.3941  0.2218
  306MOL0     O41176   0.211   0.656   0.957  0.6498 -0.6084 -0.4613
  306MOL0     C41177   0.243   0.698   0.849 -0.0035 -1.1316 -0.6196
  306MOL0     O41178   0.173   0.686   0.730 -0.2360 -0.2966 -0.7374
  306MOL0     C41179   0.063   0.604   0.732 -0.3168 -0.1678 -0.7705
  306MOL0     C41180  -0.069   0.654   0.727  0.2257  0.7332  0.3337
  306MOL0     C41181  -0.181   0.575   0.749 -0.2445 -0.2334  0.0484
  306MOL0     C41182  -0.165   0.439   0.747  0.0264  0.2493 -0.0040
  306MOL0     O41183  -0.278   0.359   0.775  0.2769 -0.3165 -0.0166
  306MOL0     C41184  -0.415   0.409   0.784 -0.0170  0.5538  0.7094
  306MOL0     C41185  -0.450   0.458   0.917 -0.0767  0.0766  0.1639
  306MOL0     C41186  -0.590   0.536   0.925 -0.5799  0.1349 -0.5624
  306MOL0     C41187  -0.698   0.480   0.835 -0.0565  1.1954 -0.5304
  306MOL0     C41188  -0.846   0.519   0.883 -0.4575  0.0765 -0.0479
  306MOL0     C41189  -0.882   0.413   0.994  0.0449 -1.2140  0.4829
  306MOL0     C41190  -0.977   0.466   1.103 -0.1064  0.7681  0.6334
  306MOL0     C41191  -0.904   0.530   1.221 -0.4235  0.3285  1.4292
  306MOL0     N41192  -0.862   0.426   1.324 -0.6850 -0.8601 -0.3330
  306MOL0     C41193  -0.926   0.367   1.426 -0.4913 -0.9170 -0.3074
  306MOL0     C41194  -0.829   0.314   1.501  0.1270 -0.7871 -0.0439
  306MOL0     C41195  -0.849   0.237   1.633  0.1378 -0.4849  0.0880
  306MOL0     C41196  -0.991   0.201   1.681 -0.0776  0.1478  0.6467
  306MOL0     C41197  -1.056   0.065   1.635 -0.5474 -0.3857 -0.3684
  306MOL0     C41198  -1.104   0.064   1.496 -0.0626  0.8622  0.7300
  306MOL0     O41199  -1.202   0.164   1.464  0.5400  0.9197  0.2122
  306MOL0     C41200  -1.325   0.115   1.474  0.3829  0.2538  0.4239
  306MOL0     C41201  -1.385   0.008   1.402 -0.4868 -0.9950 -0.2349
  306MOL0     C41202  -1.511  -0.042   1.426  0.2478  0.0370 -0.0996
  306MOL0     C41203  -1.557  -0.164   1.352 -0.4162 -0.5353  0.9147
  306MOL0     C41204  -1.582   0.016   1.533  0.0450 -0.7012  0.4383
  306MOL0     C41205  -1.720  -0.019   1.583 -0.8722  0.2941 -0.4642
  306MOL0     O41206  -1.758   0.039   1.698  0.0814 -0.7187 -0.1502
  306MOL0     C41207  -1.864  -0.003   1.770  0.0513 -0.1996 -0.3049
  306MOL0     C41208  -1.873  -0.129   1.819  0.3493 -0.2232 -0.0216
  306MOL0     C41209  -1.984  -0.177   1.889 -0.7542  0.0582  0.3133
  306MOL0     C41210  -2.094  -0.102   1.903 -1.3118  0.4732  0.1004
  306MOL0     O41211  -2.203  -0.132   1.984  0.3871 -0.6236 -0.6089
  306MOL0     C41212  -2.192  -0.256   2.058 -0.4275 -0.1952  0.0430
  306MOL0     C41213  -2.303  -0.276   2.167 -0.3298 -0.1208 -0.3118
  306MOL0     C41214  -2.282  -0.176   2.277  0.5108  0.1996 -0.0155
  306MOL0     C41215  -2.378  -0.200   2.393  0.2003  0.6488 -0.0903
  306MOL0     C41216  -2.338  -0.105   2.511  0.7965 -0.6278 -0.0738
  306MOL0     C41217  -2.227  -0.143   2.599 -0.1994  0.6074 -0.5562
  306MOL0     C41218  -2.238  -0.289   2.659  0.1285  0.0210 -0.5552
  306MOL0     C41219  -2.146  -0.308   2.781  0.2700  0.6916  0.7992
  306MOL0    Cl41220  -2.150  -0.476   2.854 -0.2416  0.3931 -0.2108
  306MOL0     C41221  -2.090   0.032   1.854  0.4465  1.0044  1.4327
  306MOL0     C41222  -1.977   0.076   1.788  0.0646  0.2241 -0.3411
  306MOL0     O41223  -1.792  -0.092   1.514 -0.1245  0.5889  0.7422
  306MOL0     C41224  -1.523   0.128   1.596  0.1874 -0.5996 -0.1398
  306MOL0     C41225  -1.400   0.176   1.567 -1.1683  0.7409 -0.5293
  306MOL0     N41226  -0.712   0.332   1.437 -0.4730 -0.4797 -0.7310
  306MOL0     N41227  -0.730   0.403   1.334  1.0674 -0.3025 -0.7397
  306MOL0     C41228  -0.033   0.381   0.740  0.2464  0.0465  0.0356
  306MOL0     C41229   0.081   0.463   0.737 -0.0801  0.5819  0.3497
  306MOL0     C41230   0.356   0.786   0.866 -0.1613  0.7117  0.2965
  306MOL0     C41231   0.441   0.824   0.758  0.2346  0.0735 -0.5410
  306MOL0     C41232   0.544   0.917   0.786  0.2719 -0.1931 -0.4829
  306MOL0     C41233   0.574   0.964   0.913 -0.3124 -0.8600 -0.9800
  306MOL0     O41234   0.681   1.047   0.918  0.0070 -0.2252  0.0494
  306MOL0     C41235   0.707   1.121   1.039 -0.1464 -0.5478 -0.3889
  306MOL0     C41236   0.837   1.067   1.107 -0.0534 -0.3473 -0.8341
  306MOL0     C41237   0.963   1.070   0.998  0.4263 -0.6429  0.6627
  306MOL0     C41238   1.077   1.165   1.030  0.5449 -1.3757  0.5352
  306MOL0     C41239   1.025   1.294   1.076 -0.3136  0.4134  1.2008
  306MOL0     C41240   0.998   1.404   1.119 -0.5210 -0.1746  0.9657
  306MOL0     C41241   0.490   0.923   1.020 -0.0307 -0.5603  0.6589
  306MOL0     C41242   0.381   0.839   0.997 -1.2311  0.5572 -0.0852
  306MOL0     H41243  -0.083   0.761   0.731 -0.6680  0.5897  1.7462
  306MOL0     H41244  -0.271   0.623   0.787 -0.5233  0.3549 -1.3202
  306MOL0     H41245  -0.426   0.486   0.707  2.7343 -1.6019 -2.0944
  306MOL0     H41246  -0.479   0.323   0.762  1.0466 -1.5215  4.6569
  306MOL0     H41247  -0.475   0.368   0.974  0.7124  0.8027  1.6941
  306MOL0     H41248  -0.364   0.507   0.963 -0.5553  0.9119  0.1967
  306MOL0     H41249  -0.620   0.525   1.029  1.6083 -0.3127  0.0553
  306MOL0     H41250  -0.579   0.641   0.895  0.5625 -0.4211 -2.2334
  306MOL0     H41251  -0.669   0.517   0.736  0.9580  0.8623 -0.3786
  306MOL0     H41252  -0.691   0.371   0.827 -0.1560  1.0927  0.5777
  306MOL0     H41253  -0.858   0.619   0.926 -2.0785 -1.0477  2.3279
  306MOL0     H41254  -0.923   0.512   0.805 -0.7505 -0.5576  0.2871
  306MOL0     H41255  -0.925   0.328   0.940  1.5614 -2.4888  1.1748
  306MOL0     H41256  -0.789   0.372   1.035  0.4362 -0.3671  0.4628
  306MOL0     H41257  -1.049   0.533   1.056  2.0066  0.8260 -2.9402
  306MOL0     H41258  -1.034   0.384   1.146 -1.8014  0.0523 -2.6442
  306MOL0     H41259  -0.974   0.603   1.265 -0.2358  1.2981  0.1823
  306MOL0     H41260  -0.825   0.597   1.185 -1.5947  2.5282  2.6653
  306MOL0     H41261  -1.035   0.362   1.423 -0.8651  3.0405 -4.2099
  306MOL0     H41262  -0.780   0.152   1.626  1.2177 -0.0333  3.4822
  306MOL0     H41263  -0.806   0.299   1.712  2.9102 -1.5672 -0.4488
  306MOL0     H41264  -1.060   0.280   1.651 -1.0153 -0.4201  1.2346
  306MOL0     H41265  -0.990   0.187   1.790 -1.7062 -0.1262  0.6596
  306MOL0     H41266  -1.143   0.047   1.700 -0.1005  3.2736  1.5057
  306MOL0     H41267  -0.991  -0.022   1.642 -0.4273 -0.1913  1.5625
  306MOL0     H41268  -1.146  -0.037   1.486  0.3348  0.6325  1.3558
  306MOL0     H41269  -1.016   0.082   1.433  0.7213 -2.7617  0.5870
  306MOL0     H41270  -1.322  -0.018   1.317 -1.0528 -1.5453 -0.4901
  306MOL0     H41271  -1.649  -0.143   1.296  0.4002 -2.3389 -1.2828
  306MOL0     H41272  -1.490  -0.195   1.271 -0.8270  0.7847  0.0280
  306MOL0     H41273  -1.558  -0.250   1.419  2.5584 -2.7917 -1.6087
  306MOL0     H41274  -1.791  -0.198   1.805 -1.0192 -1.9577  0.0159
  306MOL0     H41275  -1.958  -0.272   1.936  0.0608  0.9783  1.7758
  306MOL0     H41276  -2.198  -0.343   1.992 -0.3217 -0.6754  0.6590
  306MOL0     H41277  -2.097  -0.256   2.111  1.1006  2.2425 -2.4731
  306MOL0     H41278  -2.401  -0.263   2.119 -0.4996  1.0314  0.3300
  306MOL0     H41279  -2.315  -0.376   2.209 -1.5685  1.3487  3.2056
  306MOL0     H41280  -2.278  -0.071   2.247  1.8375  1.0907  2.8925
  306MOL0     H41281  -2.187  -0.207   2.322  0.5031  1.5750  0.9871
  306MOL0     H41282  -2.482  -0.181   2.367 -0.3116 -1.1456  0.5091
  306MOL0     H41283  -2.374  -0.307   2.417  1.2885  0.6124 -0.3666
  306MOL0     H41284  -2.428  -0.113   2.573 -0.3038  1.2406 -1.3492
  306MOL0     H41285  -2.316  -0.002   2.483  3.4606 -0.5721  1.8147
  306MOL0     H41286  -2.127  -0.136   2.555  1.8013  0.5084  3.5086
  306MOL0     H41287  -2.240  -0.082   2.689 -2.6969 -2.4934  1.3867
  306MOL0     H41288  -2.215  -0.366   2.584 -0.7215 -1.9374  1.1163
  306MOL0     H41289  -2.340  -0.295   2.699  0.3246  4.1672  0.9828
  306MOL0     H41290  -2.170  -0.230   2.854 -5.2723 -0.2349  0.3501
  306MOL0     H41291  -2.042  -0.289   2.751  0.1034  1.3247  0.5951
  306MOL0     H41292  -2.180   0.091   1.864  0.9525  1.7935  1.4173
  306MOL0     H41293  -1.986   0.177   1.748 -4.4783 -0.0455 -0.4398
  306MOL0     H41294  -1.569   0.184   1.676  0.7962 -0.7730  0.3351
  306MOL0     H41295  -1.345   0.249   1.625  1.4032 -2.4808  1.4540
  306MOL0     H41296  -0.027   0.273   0.747  1.6946  0.0047 -1.2923
  306MOL0     H41297   0.183   0.426   0.745 -0.8827 -1.7749  0.3250
  306MOL0     H41298   0.429   0.790   0.656 -0.4729  0.6652 -0.6611
  306MOL0     H41299   0.599   0.950   0.699 -3.6585  5.2909 -1.4145
  306MOL0     H41300   0.731   1.221   1.000 -4.2190  1.0740  0.7305
  306MOL0     H41301   0.634   1.126   1.120  1.5987 -4.6226  1.7134
  306MOL0     H41302   0.822   0.961   1.130 -0.9592 -0.3165 -1.2545
  306MOL0     H41303   0.853   1.127   1.197  1.6794 -0.0058 -1.3304
  306MOL0     H41304   0.919   1.062   0.898 -1.3275 -3.5260  1.5270
  306MOL0     H41305   1.014   0.974   1.013  1.7934  0.3265  2.5069
  306MOL0     H41306   1.131   1.197   0.941  2.0118  0.7875  2.1144
  306MOL0     H41307   1.149   1.121   1.100 -1.8802 -2.3971  2.5375
  306MOL0     H41308   0.989   1.507   1.147  1.9005  0.3104  0.2054
  306MOL0     H41309   0.511   0.967   1.117  1.7739 -0.7730  0.3982
  306MOL0     H41310   0.314   0.825   1.081 -3.0368  0.9298 -1.4114
  307MOL0     O41311   5.510   8.006   5.474 -0.7516  0.3844  0.7967
  307MOL0     C41312   5.435   8.078   5.538 -0.6732  0.8517 -0.0225
  307MOL0     O41313   5.304   8.086   5.525 -0.9105  0.0194 -0.5434
  307MOL0     C41314   5.220   8.031   5.432 -0.5547  0.5193 -0.4662
  307MOL0     C41315   5.086   8.039   5.457  0.0744 -0.2707  0.2789
  307MOL0     C41316   4.993   7.997   5.365 -0.2192 -0.1543 -0.4053
  307MOL0     C41317   5.028   7.955   5.236 -0.0201  0.5123  0.4222
  307MOL0     O41318   4.926   7.930   5.146 -0.0898 -0.9332  0.1987
  307MOL0     C41319   4.949   7.837   5.044 -0.6484  0.0398  0.2583
  307MOL0     C41320   4.928   7.906   4.908  0.0113 -0.1498  0.0817
  307MOL0     C41321   5.063   7.982   4.866 -0.1572 -0.0223 -0.6095
  307MOL0     C41322   5.154   7.890   4.785 -0.5989  0.4322  0.3078
  307MOL0     C41323   5.266   7.973   4.735  0.6254  0.0715 -0.6045
  307MOL0     C41324   5.374   8.013   4.848 -0.4473 -0.3087  0.3355
  307MOL0     C41325   5.504   8.041   4.776 -0.2364 -0.0008 -0.8312
  307MOL0     C41326   5.613   8.114   4.862 -0.2805  0.5322  0.9376
  307MOL0     N41327   5.743   8.118   4.799 -0.8462 -0.7216  0.3452
  307MOL0     C41328   5.753   8.167   4.665 -0.0263  0.1650 -0.2691
  307MOL0     C41329   5.878   8.212   4.651  0.7837 -0.3860 -0.7108
  307MOL0     C41330   5.937   8.283   4.538 -0.9748 -0.8940  0.2296
  307MOL0     C41331   5.964   8.172   4.429  0.6019 -0.2746 -0.5481
  307MOL0     C41332   5.842   8.138   4.345 -0.1110  0.3844 -0.4352
  307MOL0     C41333   5.892   8.088   4.207  0.4594  0.0418 -0.7260
  307MOL0     O41334   5.786   8.090   4.105 -0.1156 -0.1842 -0.4958
  307MOL0     C41335   5.678   8.010   4.124 -0.7625  0.2975 -0.7510
  307MOL0     C41336   5.670   7.892   4.212 -0.8030  0.5432 -0.2437
  307MOL0     C41337   5.543   7.843   4.242 -0.4681 -1.5768  0.5884
  307MOL0     C41338   5.535   7.741   4.350 -0.0103  0.3871  0.0560
  307MOL0     C41339   5.424   7.888   4.165 -0.7327 -0.5059  0.0675
  307MOL0     C41340   5.298   7.837   4.196 -0.7271  0.2697  0.4399
  307MOL0     O41341   5.220   7.791   4.099 -0.5538  0.2708 -0.5456
  307MOL0     C41342   5.107   7.719   4.127  0.2201 -0.0046  0.1248
  307MOL0     C41343   5.029   7.699   4.010 -0.2202  0.6357 -0.2903
  307MOL0     C41344   4.911   7.623   4.007 -0.2011 -0.3459  0.2384
  307MOL0     C41345   4.865   7.565   4.125 -0.0887  0.7503  0.1035
  307MOL0     O41346   4.747   7.485   4.129 -0.0088 -0.1895 -0.2642
  307MOL0     C41347   4.634   7.509   4.041  0.3578  0.8414  0.3361
  307MOL0     C41348   4.508   7.469   4.116  0.2341 -0.2013  0.3511
  307MOL0     C41349   4.380   7.462   4.029 -0.0319 -0.0843 -0.8422
  307MOL0     C41350   4.341   7.591   3.956  0.5599  0.0647  1.1084
  307MOL0     C41351   4.207   7.557   3.882  0.7347  0.4191 -1.1387
  307MOL0     C41352   4.145   7.684   3.823 -0.3684 -0.3805 -0.0187
  307MOL0     C41353   3.993   7.677   3.815  0.3334  0.7167 -0.2190
  307MOL0     C41354   3.943   7.794   3.736 -0.7832  0.0760 -0.1675
  307MOL0    Cl41355   3.975   7.953   3.810 -0.3222 -0.2709  0.3261
  307MOL0     C41356   4.950   7.570   4.238 -1.3260  0.5492 -0.5061
  307MOL0     C41357   5.071   7.638   4.230  0.5426 -0.1506 -0.1361
  307MOL0     O41358   5.263   7.867   4.314  0.0814 -0.1343 -0.0808
  307MOL0     C41359   5.443   7.988   4.073  0.0820 -0.3998  0.1287
  307MOL0     C41360   5.568   8.049   4.060  0.2605 -0.1437 -0.3455
  307MOL0     N41361   5.944   8.179   4.773  0.3253 -0.5899 -0.6473
  307MOL0     N41362   5.867   8.120   4.853 -1.2839  0.0282  0.1957
  307MOL0     C41363   5.164   7.941   5.206 -0.5319  0.0650 -0.8488
  307MOL0     C41364   5.264   7.986   5.308  0.6224 -0.2337  0.5305
  307MOL0     C41365   5.497   8.163   5.642  1.0819 -0.4966 -0.5896
  307MOL0     C41366   5.416   8.255   5.717 -0.4686  0.1147  0.4123
  307MOL0     C41367   5.472   8.336   5.820 -0.4650  0.0105 -0.2870
  307MOL0     C41368   5.613   8.330   5.832  0.1270  0.1983  0.2419
  307MOL0     O41369   5.654   8.414   5.932 -0.4136  0.3464  0.2715
  307MOL0     C41370   5.801   8.414   5.974  1.0272  0.2297  0.7975
  307MOL0     C41371   5.829   8.298   6.060 -0.1009 -0.1756 -0.2324
  307MOL0     C41372   5.967   8.289   6.114 -0.1464  0.2287 -0.5502
  307MOL0     C41373   5.976   8.173   6.226  0.3455 -0.4959  0.0373
  307MOL0     C41374   6.111   8.162   6.281 -0.0251  0.9298 -0.0788
  307MOL0     C41375   6.226   8.166   6.327 -0.0289  0.6498  1.1797
  307MOL0     C41376   5.695   8.243   5.759 -0.4973 -0.6937  0.3127
  307MOL0     C41377   5.635   8.159   5.671  0.0023  0.3455  0.0254
  307MOL0     H41378   5.060   8.082   5.553 -2.9415 -1.2451 -0.0070
  307MOL0     H41379   4.888   7.992   5.390  0.7599 -4.7289  4.6176
  307MOL0     H41380   5.040   7.777   5.054 -0.1552  0.6669 -0.4113
  307MOL0     H41381   4.863   7.770   5.043 -0.0207 -0.8583 -2.5404
  307MOL0     H41382   4.914   7.828   4.833 -0.7759 -1.0903  1.1720
  307MOL0     H41383   4.836   7.966   4.916  1.1530  1.4517  2.4546
  307MOL0     H41384   5.034   8.067   4.804 -2.4970  0.3691  0.8966
  307MOL0     H41385   5.114   8.021   4.954 -0.0699  3.3575 -2.0006
  307MOL0     H41386   5.194   7.813   4.851 -2.7555  2.2346  4.0732
  307MOL0     H41387   5.095   7.839   4.708 -1.7013  1.2919  0.5538
  307MOL0     H41388   5.312   7.904   4.664 -0.7703  0.7462 -2.2134
  307MOL0     H41389   5.233   8.065   4.686 -2.2685 -1.1334 -1.1254
  307MOL0     H41390   5.331   8.100   4.898  0.0612  0.8214 -1.1150
  307MOL0     H41391   5.392   7.929   4.917 -1.3112 -4.1144 -3.6004
  307MOL0     H41392   5.541   7.943   4.745  0.1620  0.9788 -3.8181
  307MOL0     H41393   5.490   8.084   4.676  0.0804 -2.4561 -2.0184
  307MOL0     H41394   5.622   8.044   4.945 -1.2828  0.2084  0.7862
  307MOL0     H41395   5.570   8.212   4.887 -1.3352  0.6705 -1.1839
  307MOL0     H41396   5.675   8.183   4.590 -0.9428 -1.9886  0.1622
  307MOL0     H41397   5.876   8.362   4.493  0.8162  1.1779  1.2278
  307MOL0     H41398   6.025   8.337   4.574 -1.0810 -1.0261  0.6985
  307MOL0     H41399   6.008   8.077   4.461 -1.8251 -0.7140  1.8053
  307MOL0     H41400   6.049   8.210   4.371 -0.2315  1.2796 -0.8233
  307MOL0     H41401   5.771   8.222   4.339  1.9530  2.1973 -0.7169
  307MOL0     H41402   5.779   8.062   4.392 -1.8160  3.0717  2.0164
  307MOL0     H41403   5.919   7.983   4.218 -1.6048 -0.4364  0.2674
  307MOL0     H41404   5.970   8.151   4.164 -0.4840  2.2234  0.5849
  307MOL0     H41405   5.760   7.859   4.262 -1.7873  2.1664  2.9079
  307MOL0     H41406   5.506   7.644   4.309  0.0886 -0.0527  1.0106
  307MOL0     H41407   5.627   7.739   4.410  0.3834  1.5156 -0.4808
  307MOL0     H41408   5.454   7.764   4.420  1.2305 -1.5246  2.2616
  307MOL0     H41409   5.058   7.739   3.913  0.7379 -0.0797 -0.3102
  307MOL0     H41410   4.850   7.613   3.918 -1.1609  3.6622  0.2739
  307MOL0     H41411   4.625   7.616   4.017  3.5470  1.4276  1.2924
  307MOL0     H41412   4.638   7.446   3.952  1.1623  2.6091 -0.9327
  307MOL0     H41413   4.528   7.372   4.162 -0.3628  0.0268  1.1097
  307MOL0     H41414   4.487   7.552   4.185 -0.0704  2.9319 -3.1697
  307MOL0     H41415   4.302   7.455   4.105  0.8799  1.9342  0.3579
  307MOL0     H41416   4.379   7.373   3.966  2.1469  0.8165 -2.2470
  307MOL0     H41417   4.329   7.667   4.033  1.4153  0.4132  0.9074
  307MOL0     H41418   4.416   7.623   3.883 -2.6693  0.0784 -2.5193
  307MOL0     H41419   4.145   7.526   3.965  2.1593  1.6955  0.4802
  307MOL0     H41420   4.210   7.479   3.805 -3.0999 -1.8540  0.7191
  307MOL0     H41421   4.167   7.765   3.893 -3.3976  0.1978  0.3828
  307MOL0     H41422   4.191   7.706   3.727  0.0070  1.5981  0.5595
  307MOL0     H41423   3.949   7.677   3.915  0.2848  1.4144 -0.2350
  307MOL0     H41424   3.965   7.583   3.767 -0.5195  1.1469 -0.6050
  307MOL0     H41425   3.833   7.791   3.733 -0.8992  0.5686  1.9455
  307MOL0     H41426   3.981   7.794   3.633  0.1184 -1.5289  0.1325
  307MOL0     H41427   4.914   7.516   4.325  0.9807 -1.3941 -0.6518
  307MOL0     H41428   5.135   7.633   4.317  1.2934  0.4685 -0.6420
  307MOL0     H41429   5.361   8.035   4.020 -0.4060 -1.3310  0.0357
  307MOL0     H41430   5.587   8.136   3.998 -0.0475 -0.4830 -0.9263
  307MOL0     H41431   5.208   7.912   5.111  0.5415 -0.6377 -0.1710
  307MOL0     H41432   5.370   7.981   5.286  0.3954 -0.1827 -0.6999
  307MOL0     H41433   5.309   8.259   5.700 -0.3482 -0.3753 -0.5475
  307MOL0     H41434   5.410   8.396   5.886  1.2254  1.7646 -0.1924
  307MOL0     H41435   5.862   8.409   5.883 -2.4063 -0.9981 -1.6175
  307MOL0     H41436   5.814   8.505   6.033 -1.2355  1.7726 -0.8820
  307MOL0     H41437   5.803   8.210   6.001  2.6506 -2.0704  1.1756
  307MOL0     H41438   5.761   8.302   6.145 -1.1228 -2.0611 -0.9137
  307MOL0     H41439   5.991   8.386   6.160 -1.3814 -0.6564  2.1512
  307MOL0     H41440   6.045   8.264   6.042 -0.9138  0.4626 -1.4876
  307MOL0     H41441   5.947   8.074   6.188  2.0619 -0.7720 -0.6570
  307MOL0     H41442   5.898   8.191   6.300  1.0338 -1.0193  0.9177
  307MOL0     H41443   6.327   8.178   6.360 -0.6885 -0.1326  3.7069
  307MOL0     H41444   5.803   8.252   5.764 -0.5840  1.8673 -0.8690
  307MOL0     H41445   5.697   8.078   5.631  1.9408 -0.6417  4.4685
  308MOL0     O41446   6.632   0.773  10.021  0.4218 -0.0273 -0.3624
  308MOL0     C41447   6.636   0.698  10.120  0.1633  0.2148  0.5019
  308MOL0     O41448   6.528   0.616  10.156  0.2052 -0.8316 -0.4217
  308MOL0     C41449   6.401   0.629  10.091 -0.3717  0.0391  0.9950
  308MOL0     C41450   6.314   0.522  10.059 -0.4413 -0.1336  1.1667
  308MOL0     C41451   6.192   0.526   9.994 -0.1781  0.3318 -0.5091
  308MOL0     C41452   6.137   0.654   9.980 -0.5805 -0.2039 -0.0665
  308MOL0     O41453   6.018   0.653   9.907 -0.4078  0.4429  0.5548
  308MOL0     C41454   5.931   0.762   9.930 -0.1247 -0.4373  0.9722
  308MOL0     C41455   5.860   0.752  10.075 -0.4289  0.2399  0.5296
  308MOL0     C41456   5.727   0.841  10.090  0.0980  0.3215 -1.0266
  308MOL0     C41457   5.619   0.835   9.985  0.1423  0.2017  0.1821
  308MOL0     C41458   5.539   0.704  10.002  0.0769  0.6305 -0.8933
  308MOL0     C41459   5.413   0.702   9.925 -0.6328 -0.5027  0.3561
  308MOL0     C41460   5.314   0.590   9.960  0.1789  0.6555  0.7996
  308MOL0     C41461   5.246   0.544   9.828 -0.2292 -0.4267 -0.6265
  308MOL0     N41462   5.311   0.430   9.773  0.2028  0.5952 -0.4463
  308MOL0     C41463   5.265   0.368   9.658  0.6188 -1.0590  0.6655
  308MOL0     C41464   5.372   0.297   9.606  0.6024 -0.0200 -0.6611
  308MOL0     C41465   5.369   0.204   9.487  0.8035  0.3454  0.2346
  308MOL0     C41466   5.475   0.226   9.385 -0.0536 -0.3857  0.0104
  308MOL0     C41467   5.477   0.369   9.328  0.6777 -0.1578 -0.3814
  308MOL0     C41468   5.596   0.391   9.236  1.3356 -0.0528  0.4269
  308MOL0     O41469   5.585   0.515   9.158  0.1248  0.4534 -0.2124
  308MOL0     C41470   5.695   0.580   9.132 -0.4254  0.5716 -1.1153
  308MOL0     C41471   5.717   0.617   9.000 -0.2766  0.5381 -0.1929
  308MOL0     C41472   5.837   0.679   8.959 -0.0696 -0.8492  0.5935
  308MOL0     C41473   5.848   0.718   8.816  0.7218  0.2953  0.4634
  308MOL0     C41474   5.937   0.710   9.059 -0.2640  0.2054 -0.6606
  308MOL0     C41475   6.066   0.765   9.020 -0.3464  0.1276  0.7582
  308MOL0     O41476   6.159   0.767   9.116  0.1524  0.4377  0.1127
  308MOL0     C41477   6.289   0.793   9.084 -0.4029  0.0560  0.1112
  308MOL0     C41478   6.354   0.868   9.180  0.0832 -1.1748  0.3085
  308MOL0     C41479   6.488   0.896   9.166  0.4351 -0.2080  0.5839
  308MOL0     C41480   6.565   0.843   9.067  0.5009  0.5442  0.4082
  308MOL0     O41481   6.702   0.855   9.073  0.0340 -0.6128 -0.3726
  308MOL0     C41482   6.789   0.782   8.977  0.3643 -0.2514 -0.2919
  308MOL0     C41483   6.821   0.640   9.020  0.4671  0.6999  0.0631
  308MOL0     C41484   6.871   0.550   8.904 -0.8217 -0.5940  0.1357
  308MOL0     C41485   6.764   0.532   8.787  0.0091 -0.0795 -0.0660
  308MOL0     C41486   6.832   0.438   8.682  0.1800 -0.5024  0.6336
  308MOL0     C41487   6.723   0.424   8.571  0.7760 -0.3741 -0.9485
  308MOL0     C41488   6.769   0.330   8.464  0.1993  0.4396  0.0211
  308MOL0     C41489   6.688   0.329   8.335 -0.0953  0.2687  1.6853
  308MOL0    Cl41490   6.683   0.475   8.244  0.1579  0.3212  0.0966
  308MOL0     C41491   6.504   0.745   8.980 -0.2620 -1.2303  0.2608
  308MOL0     C41492   6.366   0.723   8.987  0.1066 -0.2016 -0.4709
  308MOL0     O41493   6.094   0.807   8.907 -0.1577  0.3756 -0.0247
  308MOL0     C41494   5.908   0.675   9.192  0.9968 -0.3940  0.2924
  308MOL0     C41495   5.788   0.620   9.234  0.1953  0.5030  0.6104
  308MOL0     N41496   5.480   0.324   9.686 -0.2284  0.3109  0.0988
  308MOL0     N41497   5.450   0.403   9.776  0.0789 -0.2499 -0.6466
  308MOL0     C41498   6.209   0.769  10.016 -0.2835  0.1548 -0.0430
  308MOL0     C41499   6.341   0.759  10.066  0.2270  0.1902 -0.2563
  308MOL0     C41500   6.753   0.691  10.216  0.5296  0.0808  0.2275
  308MOL0     C41501   6.742   0.645  10.352  0.0885 -0.5231  0.6284
  308MOL0     C41502   6.849   0.627  10.437 -0.8711  0.2795 -0.1269
  308MOL0     C41503   6.972   0.677  10.393  0.0030  0.4416 -0.1442
  308MOL0     O41504   7.069   0.691  10.488 -0.0053  0.6175 -0.0183
  308MOL0     C41505   7.124   0.567  10.531 -0.7403 -0.6322 -0.1088
  308MOL0     C41506   7.233   0.525  10.431  0.8634  0.3266 -0.1598
  308MOL0     C41507   7.347   0.624  10.394  0.1222  0.0897  0.4162
  308MOL0     C41508   7.479   0.539  10.359  0.3195 -0.0929  1.0264
  308MOL0     C41509   7.608   0.621  10.362  0.3601  0.1325  0.1363
  308MOL0     C41510   7.694   0.701  10.370 -0.4914  0.1177  0.8896
  308MOL0     C41511   6.986   0.722  10.262 -0.6317 -0.1642 -0.5866
  308MOL0     C41512   6.876   0.729  10.179  0.4242  0.2766  0.1444
  308MOL0     H41513   6.359   0.424  10.062 -1.0809 -0.4272  1.3895
  308MOL0     H41514   6.137   0.435   9.970  2.3384 -0.6662 -3.0371
  308MOL0     H41515   5.991   0.848   9.900 -2.8484  1.0436 -0.5433
  308MOL0     H41516   5.852   0.747   9.856 -2.8474 -1.4930  3.8597
  308MOL0     H41517   5.828   0.648  10.084  1.6469 -0.7610 -2.4580
  308MOL0     H41518   5.933   0.767  10.155 -1.5784 -0.2678  1.7225
  308MOL0     H41519   5.686   0.825  10.191  2.1238  1.2884  0.0027
  308MOL0     H41520   5.756   0.946  10.088  1.6852 -0.0776 -0.1631
  308MOL0     H41521   5.543   0.909  10.013  1.0229  0.9444  0.6564
  308MOL0     H41522   5.653   0.860   9.885 -0.7807  0.9823  0.0434
  308MOL0     H41523   5.607   0.622   9.975  0.8452  0.4511  1.3984
  308MOL0     H41524   5.510   0.688  10.106  1.3477  0.4720 -0.5430
  308MOL0     H41525   5.362   0.797   9.947 -2.0010 -1.6868  2.6486
  308MOL0     H41526   5.442   0.700   9.819  0.0660  2.2120  0.4099
  308MOL0     H41527   5.354   0.511  10.025  3.0275 -0.1187 -1.6734
  308MOL0     H41528   5.236   0.630  10.026 -0.4131 -0.2190  0.6485
  308MOL0     H41529   5.253   0.628   9.757  0.1509  0.2875  0.2418
  308MOL0     H41530   5.140   0.524   9.845 -0.0838  0.1392  1.0504
  308MOL0     H41531   5.169   0.391   9.614  0.9449 -0.2002  0.3784
  308MOL0     H41532   5.392   0.108   9.534 -0.3972 -0.4674 -0.8107
  308MOL0     H41533   5.269   0.204   9.444  1.1433  1.1880 -0.5786
  308MOL0     H41534   5.464   0.155   9.303  0.4705 -1.4272  0.8203
  308MOL0     H41535   5.573   0.208   9.431  1.4236  1.0352 -2.3807
  308MOL0     H41536   5.490   0.436   9.413  0.1039 -0.7181  0.1595
  308MOL0     H41537   5.381   0.397   9.285 -0.3344 -0.2791  1.6821
  308MOL0     H41538   5.603   0.298   9.178 -1.2298 -1.3230  1.9555
  308MOL0     H41539   5.683   0.403   9.302  0.7450  2.9604  0.8007
  308MOL0     H41540   5.644   0.593   8.924  1.2084 -1.6727 -1.0164
  308MOL0     H41541   5.853   0.826   8.804  0.2896  0.4636  1.6561
  308MOL0     H41542   5.936   0.674   8.768 -1.5738 -2.0942 -1.8835
  308MOL0     H41543   5.758   0.683   8.766 -0.3783  2.8348  0.5228
  308MOL0     H41544   6.302   0.913   9.264  2.1858  0.4479  0.8396
  308MOL0     H41545   6.512   0.970   9.241 -2.1239  2.6247 -1.1702
  308MOL0     H41546   6.756   0.798   8.874 -1.8095 -1.1111  0.2054
  308MOL0     H41547   6.879   0.843   8.982 -0.4057  0.8070  1.4410
  308MOL0     H41548   6.890   0.655   9.104  0.0576  0.8874  0.3705
  308MOL0     H41549   6.731   0.586   9.053  1.6084 -3.9850 -3.4897
  308MOL0     H41550   6.909   0.453   8.938 -1.0449 -1.6915 -2.4557
  308MOL0     H41551   6.953   0.608   8.860 -1.5872  0.7511  0.4221
  308MOL0     H41552   6.672   0.491   8.829 -0.4287  1.9990  1.0899
  308MOL0     H41553   6.741   0.630   8.746 -1.4034  0.8179  2.6647
  308MOL0     H41554   6.860   0.336   8.711  2.6936 -0.3310 -0.8443
  308MOL0     H41555   6.921   0.490   8.646  1.6438 -2.9424  0.4822
  308MOL0     H41556   6.638   0.384   8.627  1.3637  1.4224  1.4016
  308MOL0     H41557   6.699   0.523   8.533  1.1698  0.6111  1.2148
  308MOL0     H41558   6.762   0.235   8.516  1.3908  0.8779  1.0266
  308MOL0     H41559   6.875   0.350   8.447  0.4737  3.9192  4.1865
  308MOL0     H41560   6.586   0.294   8.353 -0.1875 -1.9481 -2.1571
  308MOL0     H41561   6.727   0.250   8.270 -0.5804  2.5636 -1.6675
  308MOL0     H41562   6.557   0.693   8.901  3.2616 -0.7908  2.1370
  308MOL0     H41563   6.316   0.652   8.922 -4.1199  2.0531 -0.0027
  308MOL0     H41564   5.982   0.702   9.268 -0.1559  0.8165  1.0164
  308MOL0     H41565   5.759   0.611   9.339 -2.8474  0.6479 -0.1081
  308MOL0     H41566   6.178   0.873  10.003 -0.9327  0.0411  0.5096
  308MOL0     H41567   6.400   0.847  10.087  3.5415 -0.9354 -3.6752
  308MOL0     H41568   6.643   0.606  10.371 -1.0674  0.0373 -3.3126
  308MOL0     H41569   6.818   0.585  10.532 -5.1027  0.0531 -1.4106
  308MOL0     H41570   7.175   0.596  10.624  1.0296 -1.1226 -0.8894
  308MOL0     H41571   7.054   0.483  10.543  0.9549 -1.7617  3.5594
  308MOL0     H41572   7.184   0.510  10.334  1.1157  3.5092 -0.8948
  308MOL0     H41573   7.278   0.428  10.455 -1.3755 -0.3227  1.8845
  308MOL0     H41574   7.362   0.688  10.481  0.5771 -2.7827  2.5804
  308MOL0     H41575   7.319   0.683  10.306  0.2906 -1.4050 -0.6677
  308MOL0     H41576   7.479   0.500  10.256 -2.5135  2.5828 -0.1693
  308MOL0     H41577   7.486   0.453  10.426 -1.7994 -0.2914  1.0593
  308MOL0     H41578   7.768   0.775  10.389 -1.8004  1.7228  0.0234
  308MOL0     H41579   7.079   0.771  10.234  1.7314 -2.7002  2.1719
  308MOL0     H41580   6.887   0.779  10.083  2.3327  2.0917  1.2218
  309MOL0     O41581   5.838   3.421   2.322  0.2248  0.4208  0.5904
  309MOL0     C41582   5.812   3.464   2.434 -0.5671 -0.6243  0.1929
  309MOL0     O41583   5.693   3.506   2.470  0.4041  0.1692 -0.3070
  309MOL0     C41584   5.584   3.518   2.374 -0.6055 -0.4575 -0.8695
  309MOL0     C41585   5.478   3.435   2.385 -0.1209  0.2740  0.3734
  309MOL0     C41586   5.378   3.436   2.288 -0.0424 -0.0617  0.9479
  309MOL0     C41587   5.383   3.526   2.175  0.0889  0.5741  0.3163
  309MOL0     O41588   5.282   3.536   2.079  0.6713 -0.0142 -0.2546
  309MOL0     C41589   5.243   3.403   2.027  0.3364  0.0432 -0.6827
  309MOL0     C41590   5.153   3.420   1.907  0.0110 -0.0477 -0.4031
  309MOL0     C41591   5.009   3.452   1.954 -0.2695 -0.0262 -0.8980
  309MOL0     C41592   4.920   3.510   1.844  0.3296 -0.2057 -0.1013
  309MOL0     C41593   4.770   3.488   1.882  0.0006 -0.2001 -0.8667
  309MOL0     C41594   4.682   3.521   1.760 -0.7251  0.1060 -0.8064
  309MOL0     C41595   4.646   3.670   1.767  0.0093 -0.0347  0.5161
  309MOL0     C41596   4.590   3.727   1.629 -0.6143  0.2415 -0.3421
  309MOL0     N41597   4.485   3.634   1.582 -0.4366  0.4184 -0.0025
  309MOL0     C41598   4.359   3.642   1.622 -0.0613 -0.1423  0.9905
  309MOL0     C41599   4.304   3.539   1.558  0.0490 -0.5016  0.8998
  309MOL0     C41600   4.156   3.501   1.550 -0.0592  0.0755  0.5874
  309MOL0     C41601   4.048   3.593   1.483  0.3017 -0.2550  0.4052
  309MOL0     C41602   4.058   3.627   1.338 -0.6582 -0.2118 -0.0415
  309MOL0     C41603   4.080   3.504   1.255 -0.3492  0.0581 -0.5366
  309MOL0     O41604   3.960   3.428   1.272  0.1324  0.2988  0.1202
  309MOL0     C41605   3.967   3.290   1.294 -0.4322  0.6994 -0.0479
  309MOL0     C41606   4.080   3.201   1.286  0.1706  0.1711 -0.2212
  309MOL0     C41607   4.074   3.065   1.293  0.5710 -0.0869 -0.1636
  309MOL0     C41608   4.191   2.990   1.247  0.1278 -0.7229 -0.5907
  309MOL0     C41609   3.943   3.003   1.316 -0.3056 -1.4458  0.0027
  309MOL0     C41610   3.922   2.854   1.313 -0.1584 -0.4297 -0.1843
  309MOL0     O41611   4.027   2.779   1.345 -0.5933 -0.1325 -0.2643
  309MOL0     C41612   4.023   2.646   1.377  0.6179  0.3708 -0.2754
  309MOL0     C41613   3.911   2.577   1.416 -0.1202 -0.6990 -0.4424
  309MOL0     C41614   3.932   2.446   1.457  0.2709  0.7798 -0.4535
  309MOL0     C41615   4.058   2.387   1.456  0.3032  0.4447  0.3040
  309MOL0     O41616   4.089   2.265   1.500  0.1516  0.3771  0.2280
  309MOL0     C41617   4.020   2.208   1.609 -0.1212 -0.7117 -0.1874
  309MOL0     C41618   4.054   2.061   1.639  0.0763 -0.5369 -0.1684
  309MOL0     C41619   4.204   2.035   1.607  0.3556 -0.3287 -0.7793
  309MOL0     C41620   4.237   1.898   1.665  0.2683  1.0994  0.5720
  309MOL0     C41621   4.384   1.863   1.615 -1.1931  0.1538 -0.8396
  309MOL0     C41622   4.498   1.939   1.686 -0.5734  0.7790  0.2650
  309MOL0     C41623   4.615   1.845   1.683  0.2227  0.3919  0.3801
  309MOL0     C41624   4.748   1.911   1.650  0.1076  0.6528 -0.4536
  309MOL0    Cl41625   4.811   2.028   1.775  0.3394  0.0059  0.2288
  309MOL0     C41626   4.173   2.458   1.410 -0.3663 -0.0469 -1.2089
  309MOL0     C41627   4.150   2.593   1.385  0.1486  0.4062  0.4402
  309MOL0     O41628   3.802   2.809   1.301 -0.1924 -0.3746  0.2605
  309MOL0     C41629   3.833   3.088   1.309  0.1095  0.2719 -0.3170
  309MOL0     C41630   3.850   3.222   1.311 -0.5837 -1.1143  1.7397
  309MOL0     N41631   4.394   3.470   1.475 -0.1280 -0.1752  0.2615
  309MOL0     N41632   4.507   3.541   1.483  0.3440 -0.4030  0.0014
  309MOL0     C41633   5.495   3.604   2.160  0.5596 -1.2749 -1.3268
  309MOL0     C41634   5.599   3.609   2.257  0.5996 -0.0295  0.6119
  309MOL0     C41635   5.916   3.450   2.534  0.5980 -0.5075  0.0272
  309MOL0     C41636   5.904   3.504   2.654 -0.5866  0.0642 -0.4327
  309MOL0     C41637   6.003   3.512   2.754 -0.0676 -0.1124 -0.0406
  309MOL0     C41638   6.131   3.460   2.726  0.8140  0.6960 -0.1336
  309MOL0     O41639   6.239   3.470   2.803  0.8067  0.0023  0.1501
  309MOL0     C41640   6.233   3.554   2.917  0.0569  0.4817 -0.2293
  309MOL0     C41641   6.375   3.585   2.955  0.5706  0.3188  0.9578
  309MOL0     C41642   6.399   3.659   3.082  0.2406  0.1892  0.5829
  309MOL0     C41643   6.420   3.575   3.206  0.7339 -0.6398  0.6307
  309MOL0     C41644   6.561   3.544   3.241  0.1240 -0.6652  0.5467
  309MOL0     C41645   6.672   3.501   3.256 -0.2443  0.7459 -0.3610
  309MOL0     C41646   6.148   3.391   2.608  0.0737  0.0962  0.5110
  309MOL0     C41647   6.040   3.397   2.516 -0.8536  0.4653 -0.6542
  309MOL0     H41648   5.471   3.366   2.469  0.4387  2.2632  2.1585
  309MOL0     H41649   5.295   3.367   2.297  0.6623 -1.2942 -1.2202
  309MOL0     H41650   5.333   3.345   2.002  0.4890  0.8702 -2.1368
  309MOL0     H41651   5.185   3.340   2.094  1.1720  1.4483  1.4738
  309MOL0     H41652   5.181   3.494   1.832 -3.5694  0.4107 -1.4642
  309MOL0     H41653   5.148   3.319   1.864  1.3408  0.2499 -1.3013
  309MOL0     H41654   4.958   3.374   2.011 -1.6232  2.5003  1.6165
  309MOL0     H41655   5.013   3.528   2.032 -0.1186  1.2636 -2.1097
  309MOL0     H41656   4.934   3.618   1.838 -1.5504  0.2298  1.9256
  309MOL0     H41657   4.944   3.468   1.746 -2.4997 -0.3995 -0.8040
  309MOL0     H41658   4.757   3.381   1.900 -2.5302  0.0280 -1.0600
  309MOL0     H41659   4.749   3.538   1.976  0.2537 -2.1584  0.3051
  309MOL0     H41660   4.743   3.488   1.675  0.8411 -3.5047  1.4143
  309MOL0     H41661   4.586   3.470   1.775  0.1116 -1.3234 -0.0341
  309MOL0     H41662   4.582   3.689   1.854 -3.7153 -0.0373 -2.0399
  309MOL0     H41663   4.736   3.724   1.798 -0.0697  0.1347  0.4488
  309MOL0     H41664   4.668   3.736   1.553 -0.8738 -0.5537 -0.7232
  309MOL0     H41665   4.557   3.829   1.649  2.3005  0.7089  3.0980
  309MOL0     H41666   4.305   3.719   1.677  0.3434  1.3688 -0.6265
  309MOL0     H41667   4.146   3.401   1.506  0.2987 -0.1172  0.9325
  309MOL0     H41668   4.120   3.491   1.653  1.3917 -2.8510  0.9347
  309MOL0     H41669   4.046   3.695   1.524 -3.6740  2.0290 -4.3662
  309MOL0     H41670   3.954   3.546   1.509 -0.1608  1.0510  1.2073
  309MOL0     H41671   4.125   3.711   1.320 -0.2378 -0.2211  1.3855
  309MOL0     H41672   3.960   3.669   1.314 -1.0109  0.5036  2.3666
  309MOL0     H41673   4.171   3.455   1.291  0.5740  0.2144 -2.5202
  309MOL0     H41674   4.083   3.524   1.147 -0.4962 -0.1476 -0.5775
  309MOL0     H41675   4.181   3.237   1.269 -0.0899  1.3818  0.6787
  309MOL0     H41676   4.277   3.055   1.230 -0.8775  1.4315  1.9256
  309MOL0     H41677   4.226   2.914   1.318  0.9004 -1.0663 -1.3166
  309MOL0     H41678   4.159   2.937   1.157  2.1316 -2.8616 -0.1391
  309MOL0     H41679   3.811   2.618   1.424  1.3926  3.2686  0.3796
  309MOL0     H41680   3.852   2.376   1.478 -0.7401  0.2077 -5.0736
  309MOL0     H41681   4.036   2.279   1.691  0.2940 -1.9042  0.7954
  309MOL0     H41682   3.912   2.195   1.595 -0.4559 -2.3616  2.9373
  309MOL0     H41683   4.022   2.044   1.742  0.4847  1.1945  0.2859
  309MOL0     H41684   4.007   1.989   1.573  0.3485 -0.3566 -0.5620
  309MOL0     H41685   4.258   2.116   1.657 -4.0635  2.3246  0.2385
  309MOL0     H41686   4.232   2.037   1.501  2.1318  4.2795 -0.4674
  309MOL0     H41687   4.233   1.894   1.775  0.5957  0.0230  0.5528
  309MOL0     H41688   4.169   1.823   1.624  0.5544  1.2395 -0.1711
  309MOL0     H41689   4.403   1.867   1.508  1.2787  1.1062 -0.4301
  309MOL0     H41690   4.380   1.763   1.661 -2.8075  0.9691  0.9084
  309MOL0     H41691   4.493   2.037   1.638 -1.5362 -0.4974 -2.4168
  309MOL0     H41692   4.482   1.959   1.793  2.2794  1.7550  0.5911
  309MOL0     H41693   4.593   1.765   1.611  0.9057 -1.3569  2.0160
  309MOL0     H41694   4.622   1.784   1.774 -0.6797  0.7311  0.6900
  309MOL0     H41695   4.746   1.965   1.555  1.0873  0.4924 -0.5750
  309MOL0     H41696   4.818   1.829   1.634 -0.3416  0.2603 -0.4360
  309MOL0     H41697   4.273   2.415   1.403 -0.8853 -2.1503  2.0189
  309MOL0     H41698   4.232   2.651   1.343 -0.5348  0.8653 -0.3005
  309MOL0     H41699   3.731   3.051   1.317  0.2410 -0.2977 -1.1593
  309MOL0     H41700   3.757   3.279   1.315  0.0322  0.2028 -0.4388
  309MOL0     H41701   5.500   3.664   2.070 -1.6384  0.6718 -0.2770
  309MOL0     H41702   5.691   3.667   2.257  1.2555 -1.0300 -0.0730
  309MOL0     H41703   5.812   3.548   2.689  0.4340  1.7558  0.2663
  309MOL0     H41704   5.987   3.582   2.835  2.9565  1.3947 -0.6044
  309MOL0     H41705   6.196   3.654   2.894  2.1375  0.6093 -3.7087
  309MOL0     H41706   6.182   3.505   3.001  1.5545 -0.3640  0.2302
  309MOL0     H41707   6.414   3.640   2.870 -0.4683 -0.5878 -0.1400
  309MOL0     H41708   6.442   3.498   2.958 -1.9869 -1.8052  3.6703
  309MOL0     H41709   6.310   3.722   3.090 -2.2097 -2.6880 -1.7313
  309MOL0     H41710   6.481   3.729   3.062 -0.7921  0.3351 -4.6235
  309MOL0     H41711   6.356   3.488   3.190  1.1373 -0.9321  0.6072
  309MOL0     H41712   6.378   3.629   3.292  0.8137  0.4275  0.0255
  309MOL0     H41713   6.775   3.479   3.278 -0.0071  2.7922  0.8713
  309MOL0     H41714   6.244   3.352   2.577  0.7693  2.1531 -0.0912
  309MOL0     H41715   6.055   3.365   2.413 -0.7953  2.3356 -1.2668
  310MOL0     O41716   9.456  10.001   5.132  0.1770  0.2078  0.1152
  310MOL0     C41717   9.352  10.022   5.191 -0.1594  0.4474  0.4016
  310MOL0     O41718   9.311  10.146   5.243  0.2206  0.6231  0.1489
  310MOL0     C41719   9.389  10.259   5.218 -0.3373  0.8966  0.4819
  310MOL0     C41720   9.394  10.348   5.325  0.3976  0.4585 -0.8459
  310MOL0     C41721   9.469  10.469   5.316 -0.7819  1.5006 -0.2456
  310MOL0     C41722   9.543  10.491   5.208  0.0237  0.2185  0.4256
  310MOL0     O41723   9.622  10.602   5.211 -1.0591  0.2237  0.4956
  310MOL0     C41724   9.739  10.602   5.125  0.7515  0.1720  0.2672
  310MOL0     C41725   9.857  10.644   5.211 -0.2013 -0.1747 -0.7594
  310MOL0     C41726   9.980  10.635   5.120 -0.3630 -0.1012  0.3664
  310MOL0     C41727  10.097  10.710   5.185 -0.6562  0.4898 -0.1068
  310MOL0     C41728  10.223  10.690   5.097 -0.2535  0.2932 -0.4822
  310MOL0     C41729  10.338  10.783   5.154  0.0364  0.8526  0.5958
  310MOL0     C41730  10.477  10.769   5.076 -0.6382  0.4610 -0.5705
  310MOL0     C41731  10.575  10.866   5.123  0.7880  0.1196  0.0275
  310MOL0     N41732  10.702  10.877   5.055 -0.4429  0.1271 -0.2279
  310MOL0     C41733  10.739  10.787   4.949  0.1022  0.0693  0.1405
  310MOL0     C41734  10.856  10.838   4.898  0.5659 -0.1331 -0.0487
  310MOL0     C41735  10.928  10.793   4.781 -0.1624  1.3595 -0.1045
  310MOL0     C41736  10.945  10.891   4.666 -0.2345 -0.1058 -0.1294
  310MOL0     C41737  11.065  10.987   4.676  0.4928  0.6320 -0.3302
  310MOL0     C41738  11.206  10.931   4.661 -0.5516 -0.2462 -1.2031
  310MOL0     O41739  11.294  11.037   4.602 -0.2661  0.3635 -0.5285
  310MOL0     C41740  11.421  11.000   4.553 -0.0507 -0.0225  0.2775
  310MOL0     C41741  11.464  10.874   4.516 -0.6586  0.5448 -0.9613
  310MOL0     C41742  11.601  10.861   4.480  0.4850 -1.3576 -0.4695
  310MOL0     C41743  11.647  10.725   4.450  1.3069 -0.0277  0.4268
  310MOL0     C41744  11.685  10.979   4.453  0.2477 -0.6446 -0.8249
  310MOL0     C41745  11.831  10.976   4.431  0.3192 -0.5097 -0.6557
  310MOL0     O41746  11.890  11.096   4.459 -0.1843  0.3259 -0.1721
  310MOL0     C41747  12.030  11.111   4.429  0.3631  0.0330 -0.5237
  310MOL0     C41748  12.110  11.186   4.514  0.8444  0.1193  1.0319
  310MOL0     C41749  12.247  11.204   4.480 -0.0348 -0.0317  0.0249
  310MOL0     C41750  12.307  11.154   4.358 -0.9561 -0.0581 -0.2087
  310MOL0     O41751  12.442  11.166   4.318 -0.1139  0.7124  0.5229
  310MOL0     C41752  12.512  11.272   4.383 -0.4497 -0.2656  0.2021
  310MOL0     C41753  12.641  11.291   4.297 -0.8125 -0.4740 -0.6403
  310MOL0     C41754  12.752  11.355   4.385  0.1027  0.4188  1.1524
  310MOL0     C41755  12.887  11.356   4.320  0.9813  0.5045  0.1661
  310MOL0     C41756  12.933  11.470   4.230 -0.7890  0.6491 -0.8328
  310MOL0     C41757  12.837  11.519   4.123 -0.5319  0.1570  0.1708
  310MOL0     C41758  12.906  11.601   4.015 -0.0944 -0.2926 -0.5716
  310MOL0     C41759  12.814  11.651   3.900 -0.8185  0.0898  0.3708
  310MOL0    Cl41760  12.713  11.795   3.924  0.1245  0.1324  0.0798
  310MOL0     C41761  12.222  11.103   4.268  1.0733 -0.0545 -0.0336
  310MOL0     C41762  12.085  11.076   4.307 -0.6039  0.1956  0.1246
  310MOL0     O41763  11.879  10.876   4.386 -0.4800  0.0822 -0.2392
  310MOL0     C41764  11.631  11.106   4.490 -0.0234  0.6124  0.6334
  310MOL0     C41765  11.495  11.113   4.531 -0.2491 -0.4132  0.0916
  310MOL0     N41766  10.887  10.957   4.971  0.8512  0.4137  0.3244
  310MOL0     N41767  10.792  10.981   5.059 -0.3528  0.3269 -0.4487
  310MOL0     C41768   9.525  10.412   5.089  0.2667 -0.2383 -0.0588
  310MOL0     C41769   9.457  10.289   5.099  0.7687  0.1547  0.0149
  310MOL0     C41770   9.260   9.906   5.192  0.2870  1.2305  0.3874
  310MOL0     C41771   9.273   9.791   5.119  0.3554  0.5271  0.0542
  310MOL0     C41772   9.181   9.677   5.128  0.3619 -0.0814 -0.3887
  310MOL0     C41773   9.057   9.690   5.206  0.0225 -0.9315 -0.2604
  310MOL0     O41774   8.963   9.594   5.194  0.1109 -0.6331 -0.3889
  310MOL0     C41775   8.829   9.654   5.153 -0.3445 -0.2538 -0.3439
  310MOL0     C41776   8.765   9.555   5.050  0.0965 -0.4215  0.1531
  310MOL0     C41777   8.737   9.413   5.099 -0.2032 -0.7518  0.2198
  310MOL0     C41778   8.623   9.396   5.208 -0.0459 -0.2471  0.7084
  310MOL0     C41779   8.591   9.255   5.213  0.1049 -0.9139 -0.4834
  310MOL0     C41780   8.542   9.146   5.218 -0.1805  0.9445 -0.3591
  310MOL0     C41781   9.042   9.813   5.278 -0.4680  0.0796 -0.4525
  310MOL0     C41782   9.144   9.916   5.271  0.4395  0.4126 -0.4567
  310MOL0     H41783   9.328  10.348   5.411 -0.0600  3.5343 -1.0724
  310MOL0     H41784   9.476  10.531   5.405  1.4268 -0.8671  1.3928
  310MOL0     H41785   9.761  10.510   5.069 -0.7045  1.1503 -2.0573
  310MOL0     H41786   9.731  10.676   5.045 -1.1065  1.3649  1.4895
  310MOL0     H41787   9.841  10.750   5.231  0.5835  0.3128 -2.4684
  310MOL0     H41788   9.876  10.586   5.302 -2.1878  2.0271  1.1888
  310MOL0     H41789   9.997  10.527   5.112  0.0640  0.0622 -1.3930
  310MOL0     H41790   9.951  10.686   5.027 -1.6789  1.5586  1.6269
  310MOL0     H41791  10.070  10.815   5.193  0.5266  0.8185 -0.1725
  310MOL0     H41792  10.122  10.687   5.289  2.4755  0.9080 -0.6477
  310MOL0     H41793  10.259  10.587   5.095  1.8472  0.9660  0.3058
  310MOL0     H41794  10.199  10.724   4.996 -1.1436 -1.1460 -0.7754
  310MOL0     H41795  10.300  10.884   5.142  0.4631  0.8159 -1.3352
  310MOL0     H41796  10.368  10.758   5.256 -2.9507 -0.1793  1.3293
  310MOL0     H41797  10.506  10.664   5.087 -2.6674  0.1108  3.0523
  310MOL0     H41798  10.464  10.784   4.968 -0.8078  2.9810 -0.2488
  310MOL0     H41799  10.599  10.841   5.226 -0.3347 -2.0986 -0.1919
  310MOL0     H41800  10.520  10.960   5.122 -1.4754 -1.1154  1.3043
  310MOL0     H41801  10.703  10.695   4.903  0.5341 -0.7784  1.4349
  310MOL0     H41802  11.024  10.751   4.811  0.2752  2.1877 -0.3078
  310MOL0     H41803  10.879  10.706   4.737 -1.4508  1.1401  1.6570
  310MOL0     H41804  10.854  10.951   4.667 -0.8371 -0.9924  1.0483
  310MOL0     H41805  10.952  10.835   4.573  0.5337  1.8389 -1.2894
  310MOL0     H41806  11.055  11.037   4.772 -0.0997  1.4530 -0.7995
  310MOL0     H41807  11.051  11.070   4.606  0.5887  0.8973 -0.0333
  310MOL0     H41808  11.200  10.845   4.592 -0.4819 -1.7675  0.6115
  310MOL0     H41809  11.243  10.900   4.759 -0.7379  2.2083 -0.2966
  310MOL0     H41810  11.409  10.782   4.534  0.7686 -0.3894 -1.1723
  310MOL0     H41811  11.562  10.660   4.427  0.4729  0.5796  1.7086
  310MOL0     H41812  11.705  10.726   4.357  0.3716 -0.0353 -0.1620
  310MOL0     H41813  11.699  10.686   4.539  4.1053  0.4367 -0.8764
  310MOL0     H41814  12.070  11.230   4.605  0.7008 -0.9129  1.4767
  310MOL0     H41815  12.320  11.248   4.548  1.2553 -0.4171 -1.0666
  310MOL0     H41816  12.450  11.362   4.388  2.0749  1.5534  0.4727
  310MOL0     H41817  12.533  11.254   4.489  2.0776  0.4904 -0.0917
  310MOL0     H41818  12.674  11.197   4.253 -3.1365 -1.8074  0.2478
  310MOL0     H41819  12.610  11.364   4.222 -0.2990  1.7524  1.2153
  310MOL0     H41820  12.759  11.287   4.471  0.3962  1.3263  1.8649
  310MOL0     H41821  12.722  11.457   4.414  0.9546  0.5702  1.5181
  310MOL0     H41822  12.948  11.352   4.411  0.6269  0.5454  0.4109
  310MOL0     H41823  12.906  11.265   4.263  2.7092  1.0883 -0.2225
  310MOL0     H41824  13.026  11.438   4.183  0.2130  1.2894  0.6651
  310MOL0     H41825  12.949  11.554   4.298  0.0140 -0.1188 -0.0575
  310MOL0     H41826  12.794  11.428   4.079  0.0143 -0.7228  1.3955
  310MOL0     H41827  12.755  11.577   4.167 -0.5952 -1.1132  1.8554
  310MOL0     H41828  12.984  11.540   3.968 -2.0664 -3.4026 -0.0800
  310MOL0     H41829  12.959  11.685   4.061  1.2730 -1.1163 -0.5716
  310MOL0     H41830  12.752  11.568   3.865  1.5882 -1.8252  0.4246
  310MOL0     H41831  12.882  11.672   3.818 -1.3455  1.1249  0.1788
  310MOL0     H41832  12.252  11.066   4.171  4.6200 -1.5646  1.4979
  310MOL0     H41833  12.030  11.017   4.234  0.5382  2.0174 -2.3739
  310MOL0     H41834  11.689  11.197   4.489 -0.1426  0.7831 -3.1948
  310MOL0     H41835  11.463  11.213   4.561 -1.4139 -1.1173  1.2584
  310MOL0     H41836   9.564  10.438   4.991 -1.6846  2.1416 -0.2988
  310MOL0     H41837   9.440  10.227   5.011 -0.6425 -2.3636  1.9136
  310MOL0     H41838   9.353   9.779   5.047 -1.9347  1.5835 -2.8679
  310MOL0     H41839   9.211   9.588   5.074  4.3587 -0.3425  1.9344
  310MOL0     H41840   8.772   9.666   5.245  0.8265  1.2163  0.2425
  310MOL0     H41841   8.844   9.751   5.104  4.1238  0.8621  2.5830
  310MOL0     H41842   8.827   9.556   4.960 -2.4885  2.1990 -1.7872
  310MOL0     H41843   8.665   9.593   5.026  0.1315 -1.8669 -2.6627
  310MOL0     H41844   8.832   9.393   5.150 -0.6221 -1.0204  0.9006
  310MOL0     H41845   8.720   9.356   5.007 -1.6982 -2.8939  1.7496
  310MOL0     H41846   8.538   9.463   5.191  1.1417  0.9847 -0.7518
  310MOL0     H41847   8.669   9.429   5.302  0.5368 -0.7680  0.6123
  310MOL0     H41848   8.478   9.061   5.228 -1.0490  1.4754 -1.2466
  310MOL0     H41849   8.958   9.831   5.344  0.1416  0.2499  0.2986
  310MOL0     H41850   9.128  10.006   5.330  0.6442 -0.1373  0.4564
  311MOL0     O41851   5.326   4.176   1.486  0.0585 -0.3285 -0.4202
  311MOL0     C41852   5.279   4.078   1.425  0.6298  0.8647  0.5546
  311MOL0     O41853   5.352   4.003   1.342 -0.5455  0.3994  0.5262
  311MOL0     C41854   5.485   4.017   1.367 -0.3481 -0.4461  0.4221
  311MOL0     C41855   5.554   3.939   1.464  0.5167 -0.5434  0.6507
  311MOL0     C41856   5.690   3.955   1.478  0.1659 -1.0983  0.1085
  311MOL0     C41857   5.771   4.051   1.415 -0.0992 -0.0825 -0.0737
  311MOL0     O41858   5.911   4.067   1.443  0.5100 -0.0324 -0.1217
  311MOL0     C41859   5.996   3.957   1.489  0.4631 -0.2381  0.2612
  311MOL0     C41860   5.996   3.841   1.392 -0.4048  0.2141  0.6231
  311MOL0     C41861   6.138   3.775   1.358  0.2293 -0.3171  0.3663
  311MOL0     C41862   6.119   3.631   1.322  0.0886  0.1022 -0.3069
  311MOL0     C41863   6.253   3.563   1.300  0.0991  0.1166 -0.8234
  311MOL0     C41864   6.344   3.627   1.192  0.2793 -0.4047 -0.3488
  311MOL0     C41865   6.460   3.538   1.142  0.1500  0.0625  0.4106
  311MOL0     C41866   6.559   3.612   1.058 -0.4055 -0.1677 -0.3308
  311MOL0     N41867   6.607   3.533   0.947 -0.1936 -0.3000 -0.6803
  311MOL0     C41868   6.540   3.522   0.829 -0.5630 -0.2710  0.9350
  311MOL0     C41869   6.620   3.459   0.742 -0.4129 -0.3367 -1.1846
  311MOL0     C41870   6.590   3.438   0.604 -0.0781  0.5311 -0.3311
  311MOL0     C41871   6.713   3.452   0.508 -0.0945 -0.0247 -0.5191
  311MOL0     C41872   6.659   3.434   0.367 -0.6496 -0.0642  0.7969
  311MOL0     C41873   6.779   3.420   0.275 -0.6460 -0.6024  0.2785
  311MOL0     O41874   6.745   3.400   0.138 -0.2893  0.6007 -0.0770
  311MOL0     C41875   6.844   3.377   0.041 -0.4223  0.5943 -0.3941
  311MOL0     C41876   6.812   3.297  -0.074  0.5833 -0.6061 -1.1044
  311MOL0     C41877   6.903   3.275  -0.171  0.6497  0.8329  0.0108
  311MOL0     C41878   6.851   3.199  -0.295 -0.2883 -1.0055  0.1584
  311MOL0     C41879   7.041   3.315  -0.149 -0.2663  0.1936 -0.5596
  311MOL0     C41880   7.147   3.288  -0.239 -0.7669  0.5816  0.4384
  311MOL0     O41881   7.275   3.295  -0.190  0.4908  0.5002  0.0793
  311MOL0     C41882   7.388   3.264  -0.256  1.2760  0.5397  0.8491
  311MOL0     C41883   7.501   3.319  -0.201  0.1786 -0.6427 -0.6384
  311MOL0     C41884   7.627   3.312  -0.256 -0.2491 -0.0516 -0.2656
  311MOL0     C41885   7.644   3.234  -0.370  0.3724  0.2448 -0.4556
  311MOL0     O41886   7.767   3.220  -0.425 -0.1544  0.8242  0.7142
  311MOL0     C41887   7.797   3.105  -0.516  0.2737 -1.1013 -0.5856
  311MOL0     C41888   7.948   3.111  -0.560  0.7696  0.3684 -0.7186
  311MOL0     C41889   8.029   3.018  -0.470 -0.6276 -0.7006  0.1817
  311MOL0     C41890   8.036   2.879  -0.526 -0.0339  0.2527  0.0003
  311MOL0     C41891   8.155   2.792  -0.476  0.0545 -0.3815 -0.6004
  311MOL0     C41892   8.121   2.738  -0.341 -0.0615 -0.0182  0.1899
  311MOL0     C41893   7.978   2.681  -0.306 -0.1970 -1.2853  0.1403
  311MOL0     C41894   7.983   2.579  -0.191 -0.4983  0.8823 -0.3931
  311MOL0    Cl41895   8.016   2.664  -0.043 -0.3941 -0.0159 -0.5886
  311MOL0     C41896   7.534   3.164  -0.425  0.8629  0.6368  0.3589
  311MOL0     C41897   7.404   3.184  -0.372 -0.6249  0.2381  0.0931
  311MOL0     O41898   7.113   3.248  -0.351  0.0232 -0.1404  0.3067
  311MOL0     C41899   7.075   3.374  -0.022 -0.6120 -0.2101  0.0063
  311MOL0     C41900   6.974   3.401   0.067 -0.3260 -0.5850 -1.3924
  311MOL0     N41901   6.738   3.415   0.812  0.3174 -0.7957 -0.8867
  311MOL0     N41902   6.726   3.464   0.932  0.3867 -0.6280  0.1234
  311MOL0     C41903   5.698   4.131   1.325  0.2036 -0.3555 -0.6039
  311MOL0     C41904   5.559   4.115   1.303 -0.1721  1.3047 -0.1131
  311MOL0     C41905   5.134   4.078   1.392 -0.0187 -0.0604 -0.6497
  311MOL0     C41906   5.048   4.121   1.490  0.6079  0.2180 -0.6792
  311MOL0     C41907   4.908   4.088   1.475 -0.1641 -0.1524  1.7026
  311MOL0     C41908   4.852   4.041   1.348 -0.2496  0.6168 -0.6015
  311MOL0     O41909   4.718   4.025   1.342  0.1506 -0.2145  0.9944
  311MOL0     C41910   4.656   3.939   1.238  0.5551 -0.0938  1.2319
  311MOL0     C41911   4.507   3.997   1.244 -0.6223 -0.3471  0.1213
  311MOL0     C41912   4.426   3.946   1.356  0.4690 -0.5671  0.1336
  311MOL0     C41913   4.282   3.980   1.340 -0.2582 -0.5460 -0.3375
  311MOL0     C41914   4.211   3.973   1.467  0.4885  0.5369  0.4753
  311MOL0     C41915   4.143   3.965   1.567 -0.2048  0.9520  0.7869
  311MOL0     C41916   4.949   4.008   1.247  0.2818 -0.3091  0.0176
  311MOL0     C41917   5.085   4.017   1.275  0.5463 -0.3307 -1.0290
  311MOL0     H41918   5.498   3.862   1.516  0.5388  0.4532  2.2058
  311MOL0     H41919   5.738   3.888   1.549 -2.6721 -1.9929  1.3209
  311MOL0     H41920   6.095   3.997   1.512 -0.0953  0.2739  1.8984
  311MOL0     H41921   5.974   3.925   1.591  0.8770  2.7771  1.3721
  311MOL0     H41922   5.927   3.766   1.433 -3.7049  1.8443 -1.4856
  311MOL0     H41923   5.957   3.879   1.297  4.4969  2.3156 -0.8691
  311MOL0     H41924   6.185   3.826   1.273  1.0720  0.0311  1.0273
  311MOL0     H41925   6.202   3.793   1.445 -3.0158  4.5394  2.1399
  311MOL0     H41926   6.065   3.593   1.409 -1.4006 -0.1932 -1.3182
  311MOL0     H41927   6.052   3.636   1.235 -2.5943  0.4036  1.6515
  311MOL0     H41928   6.311   3.565   1.392  1.0506  1.0362 -1.4263
  311MOL0     H41929   6.227   3.461   1.269  1.5228 -0.8519  1.0018
  311MOL0     H41930   6.291   3.665   1.104 -2.1596  1.4234  1.7293
  311MOL0     H41931   6.382   3.718   1.239  0.3591  0.7538 -2.5176
  311MOL0     H41932   6.518   3.492   1.223 -0.5077  2.5438  2.4223
  311MOL0     H41933   6.423   3.462   1.073 -0.7743  1.3703 -0.5881
  311MOL0     H41934   6.639   3.644   1.126 -0.6604 -0.3877  0.0797
  311MOL0     H41935   6.534   3.713   1.025  1.9198  0.6590  0.2062
  311MOL0     H41936   6.447   3.570   0.802 -0.2946 -0.5002 -0.4723
  311MOL0     H41937   6.563   3.332   0.608 -0.8865  0.7310  3.1159
  311MOL0     H41938   6.510   3.505   0.572  0.6426  0.9418 -1.3454
  311MOL0     H41939   6.799   3.391   0.534  0.7911  1.7916  1.1151
  311MOL0     H41940   6.751   3.554   0.510  0.4408 -0.2312  0.1942
  311MOL0     H41941   6.604   3.523   0.332 -0.2764  0.3306  1.2102
  311MOL0     H41942   6.602   3.342   0.351  1.3529 -0.8003 -4.0331
  311MOL0     H41943   6.839   3.337   0.312  0.3122  0.4307  1.1113
  311MOL0     H41944   6.846   3.506   0.284 -1.0677 -0.3001  0.6010
  311MOL0     H41945   6.708   3.269  -0.083  0.4614 -0.5701  0.0153
  311MOL0     H41946   6.905   3.104  -0.298  1.8564  0.1462  0.1761
  311MOL0     H41947   6.744   3.176  -0.292 -0.4138 -0.7706 -1.5886
  311MOL0     H41948   6.881   3.254  -0.384  1.5458 -1.1301  0.6598
  311MOL0     H41949   7.491   3.377  -0.110 -1.8273 -0.6631 -0.8004
  311MOL0     H41950   7.714   3.360  -0.212 -1.1283  3.5018 -1.9879
  311MOL0     H41951   7.778   3.014  -0.457 -3.3160 -0.3700 -0.3982
  311MOL0     H41952   7.735   3.114  -0.605  2.1325  2.2221 -1.7015
  311MOL0     H41953   7.967   3.076  -0.662  1.4679 -2.5070  0.3220
  311MOL0     H41954   7.977   3.216  -0.554  0.4974  0.6134 -2.8927
  311MOL0     H41955   7.975   3.002  -0.376 -2.0412  1.1936 -0.2464
  311MOL0     H41956   8.122   3.059  -0.431 -1.6288  1.2176  0.6757
  311MOL0     H41957   7.940   2.831  -0.501  0.3052  1.0400  3.1828
  311MOL0     H41958   8.040   2.881  -0.635  4.5154 -0.7210 -0.0093
  311MOL0     H41959   8.249   2.848  -0.471 -1.4578  2.4031 -1.1166
  311MOL0     H41960   8.182   2.705  -0.537 -0.5933 -0.9843 -0.0513
  311MOL0     H41961   8.200   2.666  -0.316 -0.4531 -0.4337  0.2361
  311MOL0     H41962   8.134   2.818  -0.268 -0.4023  2.8873 -2.6980
  311MOL0     H41963   7.942   2.627  -0.394 -1.2613 -0.8657  0.3142
  311MOL0     H41964   7.897   2.752  -0.288 -1.6295 -3.0551  1.0447
  311MOL0     H41965   8.058   2.504  -0.219 -0.8753  1.5887 -3.6572
  311MOL0     H41966   7.896   2.514  -0.179 -1.0935  1.7672  0.1864
  311MOL0     H41967   7.530   3.091  -0.506 -3.6566  0.8378  0.1423
  311MOL0     H41968   7.325   3.135  -0.427  0.6633 -0.1153 -1.5382
  311MOL0     H41969   7.179   3.404  -0.017 -1.0355  1.8211 -1.6879
  311MOL0     H41970   7.005   3.459   0.153 -1.2434 -0.0466 -1.4124
  311MOL0     H41971   5.766   4.191   1.266  0.3174 -0.9816 -1.1137
  311MOL0     H41972   5.509   4.167   1.222 -1.6735  0.5934  0.3002
  311MOL0     H41973   5.096   4.154   1.582  0.7838 -3.2625  0.6093
  311MOL0     H41974   4.839   4.129   1.548 -1.0134  1.1658  0.2233
  311MOL0     H41975   4.701   3.948   1.139  1.5714 -1.2710  1.5704
  311MOL0     H41976   4.649   3.834   1.266  0.0101 -0.4058 -0.0438
  311MOL0     H41977   4.444   3.973   1.158 -1.6593 -0.4878  0.9067
  311MOL0     H41978   4.520   4.105   1.254  1.2770 -0.7328  3.0186
  311MOL0     H41979   4.466   3.983   1.451 -1.0859 -0.8369  0.9223
  311MOL0     H41980   4.422   3.837   1.361 -0.7370 -0.4772  3.1177
  311MOL0     H41981   4.241   3.916   1.262 -0.4418  0.8452 -1.4339
  311MOL0     H41982   4.281   4.084   1.305  0.3988 -0.2873  0.3720
  311MOL0     H41983   4.075   3.946   1.648 -0.3737  0.8838  0.6297
  311MOL0     H41984   4.922   3.961   1.153  1.2802  1.2024 -1.0881
  311MOL0     H41985   5.145   3.952   1.212 -1.5465 -3.2639 -0.1833
  312MOL0     O41986  10.188   2.121   0.068 -0.0890  0.1803  0.1749
  312MOL0     C41987  10.296   2.117   0.130 -0.2458 -0.2129  0.0542
  312MOL0     O41988  10.312   2.141   0.262  0.5800 -0.8645  0.4581
  312MOL0     C41989  10.200   2.145   0.346 -0.1461  0.8730  0.8622
  312MOL0     C41990  10.205   2.230   0.457 -0.1850 -0.0791 -0.1398
  312MOL0     C41991  10.104   2.247   0.553  0.0327 -0.1968  0.6871
  312MOL0     C41992   9.985   2.179   0.535  0.4428 -0.3666  0.1087
  312MOL0     O41993   9.884   2.196   0.627 -0.3609 -0.2149 -0.0197
  312MOL0     C41994   9.799   2.074   0.631 -0.8206  0.1947  0.2620
  312MOL0     C41995   9.731   2.089   0.767  0.1910 -1.1189  0.1795
  312MOL0     C41996   9.610   1.993   0.799 -0.3044  0.1045 -0.2478
  312MOL0     C41997   9.508   2.033   0.694  0.4740  0.8063  0.3006
  312MOL0     C41998   9.363   2.044   0.745  0.9413  0.3607  0.4864
  312MOL0     C41999   9.315   1.905   0.804 -1.2434  0.0174  0.2914
  312MOL0     C42000   9.166   1.908   0.838 -0.0449  0.3775 -0.1230
  312MOL0     C42001   9.144   2.022   0.928 -0.2385 -0.4277 -1.0192
  312MOL0     N42002   9.024   2.008   1.024  0.0113 -0.2490 -0.7963
  312MOL0     C42003   9.019   1.922   1.136  0.3781 -0.1982  0.2358
  312MOL0     C42004   8.885   1.933   1.172 -1.1655 -0.3727 -0.2644
  312MOL0     C42005   8.834   1.852   1.286  0.5508  0.4236  0.1423
  312MOL0     C42006   8.681   1.821   1.279  0.1617 -0.0537  0.1691
  312MOL0     C42007   8.648   1.713   1.379 -0.0181 -0.0001 -0.5724
  312MOL0     C42008   8.502   1.683   1.384 -0.1450  0.2593 -0.4863
  312MOL0     O42009   8.467   1.625   1.261 -0.4768  0.2342  0.3341
  312MOL0     C42010   8.343   1.576   1.253 -0.0022 -0.5167  0.2051
  312MOL0     C42011   8.236   1.648   1.298 -0.1423 -0.4163  0.1823
  312MOL0     C42012   8.107   1.610   1.288  0.4817 -0.4174 -0.6876
  312MOL0     C42013   7.995   1.704   1.340  0.8456 -0.0375  0.2090
  312MOL0     C42014   8.080   1.489   1.224  0.6390 -0.5097 -0.0637
  312MOL0     C42015   7.931   1.450   1.192 -0.3731  0.3101  0.0555
  312MOL0     O42016   7.916   1.361   1.095  0.6663 -0.6737  0.4732
  312MOL0     C42017   7.799   1.300   1.056  0.1319  0.1373 -0.3305
  312MOL0     C42018   7.665   1.339   1.081 -0.2104 -0.3067  0.6091
  312MOL0     C42019   7.559   1.276   1.021 -0.2038  0.4255  1.4158
  312MOL0     C42020   7.586   1.177   0.926  0.2497  0.6486 -0.6970
  312MOL0     O42021   7.482   1.105   0.860  0.4390  0.2622 -0.4291
  312MOL0     C42022   7.340   1.144   0.871 -0.3801 -0.2136  0.1052
  312MOL0     C42023   7.271   1.110   0.742  1.0979  0.4660 -0.5551
  312MOL0     C42024   7.121   1.110   0.779 -0.2865  0.3188  0.1572
  312MOL0     C42025   7.052   1.246   0.782 -0.3170 -0.5987 -0.0501
  312MOL0     C42026   6.904   1.223   0.756  0.1513 -0.4220  0.2548
  312MOL0     C42027   6.831   1.345   0.709  0.5800 -1.3830  0.1060
  312MOL0     C42028   6.687   1.348   0.737  0.6611  0.1429 -0.0376
  312MOL0     C42029   6.606   1.240   0.655  0.2185 -0.0183  0.1440
  312MOL0    Cl42030   6.437   1.249   0.702  0.6655 -0.4205 -0.0948
  312MOL0     C42031   7.713   1.125   0.916  0.2048  0.4556  0.4588
  312MOL0     C42032   7.816   1.189   0.975 -0.0662  0.1770 -0.3061
  312MOL0     O42033   7.842   1.482   1.274  0.1511  0.3790  0.8723
  312MOL0     C42034   8.187   1.408   1.176 -0.3008 -0.5387 -0.4524
  312MOL0     C42035   8.319   1.454   1.190 -0.8279 -0.4135 -0.3845
  312MOL0     N42036   8.821   2.017   1.089  0.2723  0.3043 -0.1168
  312MOL0     N42037   8.895   2.057   0.996 -0.3556  0.3982  0.3685
  312MOL0     C42038   9.976   2.099   0.421 -0.7639 -0.0190  0.4825
  312MOL0     C42039  10.074   2.079   0.329  0.4021  0.6249 -0.1095
  312MOL0     C42040  10.429   2.092   0.062  0.3410  0.7158 -0.3473
  312MOL0     C42041  10.426   2.035  -0.064 -0.0071  0.0890  0.6496
  312MOL0     C42042  10.552   2.004  -0.117  0.3144  0.2668 -0.7471
  312MOL0     C42043  10.672   2.037  -0.054 -0.1992 -0.5866 -0.0550
  312MOL0     O42044  10.788   1.987  -0.114 -0.1294 -0.0603 -0.3797
  312MOL0     C42045  10.924   2.042  -0.077  0.3305  0.6832 -0.3075
  312MOL0     C42046  10.945   2.179  -0.130  0.1037 -0.7670  0.3965
  312MOL0     C42047  11.071   2.239  -0.069 -0.7154 -0.0854 -0.0939
  312MOL0     C42048  11.069   2.391  -0.058  0.1452  0.5937 -0.2739
  312MOL0     C42049  11.064   2.447  -0.189 -0.9763  0.2479 -0.7303
  312MOL0     C42050  11.090   2.490  -0.301  0.4849 -0.8909 -0.4412
  312MOL0     C42051  10.664   2.096   0.071  0.4940 -0.8898 -0.3037
  312MOL0     C42052  10.546   2.135   0.126 -0.9627  0.3734 -0.0992
  312MOL0     H42053  10.306   2.270   0.466  0.1295 -0.8105 -0.2945
  312MOL0     H42054  10.110   2.308   0.643 -0.8250 -0.9466  1.2701
  312MOL0     H42055   9.730   2.080   0.545  0.2811  1.9957 -0.5410
  312MOL0     H42056   9.855   1.980   0.629  0.8700  1.1057 -2.8835
  312MOL0     H42057   9.800   2.093   0.852 -2.9863  2.3459  2.9584
  312MOL0     H42058   9.686   2.189   0.762  1.1388 -0.6865  0.0518
  312MOL0     H42059   9.628   1.885   0.791  0.1723 -0.0759  2.3802
  312MOL0     H42060   9.573   2.012   0.900  1.1796 -1.1907  0.5970
  312MOL0     H42061   9.536   2.122   0.637  1.5014 -0.7600 -1.7293
  312MOL0     H42062   9.502   1.959   0.614  1.6567 -2.4533  2.9831
  312MOL0     H42063   9.347   2.118   0.824  1.8530  0.3799  0.6618
  312MOL0     H42064   9.298   2.072   0.662  2.3664  2.4289 -0.0227
  312MOL0     H42065   9.320   1.829   0.725  0.8027 -1.3344  1.6088
  312MOL0     H42066   9.379   1.867   0.884 -1.4355 -3.0340 -0.8515
  312MOL0     H42067   9.104   1.919   0.749  1.3898 -1.4812 -1.4221
  312MOL0     H42068   9.137   1.815   0.889 -0.0190  0.7480  0.5767
  312MOL0     H42069   9.120   2.115   0.876 -2.3331  0.3092  1.0626
  312MOL0     H42070   9.236   2.043   0.983 -1.6492  1.5357  0.7702
  312MOL0     H42071   9.105   1.861   1.165  0.9969 -0.0810 -1.2776
  312MOL0     H42072   8.890   1.758   1.275  2.3665  1.4232  0.4280
  312MOL0     H42073   8.862   1.897   1.382  0.4244  0.1711  0.2996
  312MOL0     H42074   8.669   1.779   1.179  1.5685  0.2981 -0.1676
  312MOL0     H42075   8.620   1.910   1.295 -0.6044 -0.3528 -0.9893
  312MOL0     H42076   8.682   1.718   1.483 -3.8609  0.0617  0.8439
  312MOL0     H42077   8.697   1.626   1.334  1.8902 -0.2403  1.7474
  312MOL0     H42078   8.454   1.779   1.409  1.3109  1.3585 -1.7643
  312MOL0     H42079   8.474   1.599   1.448  0.5281 -0.7664 -1.5107
  312MOL0     H42080   8.259   1.740   1.349  3.0181  0.2664 -2.1508
  312MOL0     H42081   8.033   1.807   1.338 -2.7369  1.4375  0.7252
  312MOL0     H42082   7.919   1.703   1.262 -0.0924  1.4773  1.0665
  312MOL0     H42083   7.970   1.683   1.444 -0.5311  1.6906  0.2657
  312MOL0     H42084   7.654   1.430   1.140 -1.2941 -0.8843  1.3235
  312MOL0     H42085   7.460   1.311   1.048 -2.6874 -3.6539 -1.3055
  312MOL0     H42086   7.294   1.104   0.962  0.9683  0.7353  1.2572
  312MOL0     H42087   7.331   1.253   0.875  1.7301 -0.0151  0.7350
  312MOL0     H42088   7.292   1.193   0.674  2.2848  1.8774  1.4423
  312MOL0     H42089   7.304   1.009   0.714 -0.3237  0.2717 -1.6786
  312MOL0     H42090   7.111   1.068   0.880 -0.2418  2.9074  1.3079
  312MOL0     H42091   7.074   1.038   0.711  1.3940 -0.1366 -0.5673
  312MOL0     H42092   7.075   1.302   0.873 -0.8219  0.7838 -0.7435
  312MOL0     H42093   7.097   1.304   0.700 -2.7215  0.3021 -0.8213
  312MOL0     H42094   6.856   1.181   0.845 -0.2804  1.5248  0.9910
  312MOL0     H42095   6.892   1.146   0.679 -1.1737  0.2491 -0.2386
  312MOL0     H42096   6.865   1.432   0.766 -1.3787  0.9788 -2.0319
  312MOL0     H42097   6.851   1.354   0.602  1.4861  2.6114  0.4524
  312MOL0     H42098   6.646   1.440   0.696  1.0211 -1.1067 -3.5259
  312MOL0     H42099   6.668   1.343   0.845  0.6506  1.4803  0.0297
  312MOL0     H42100   6.645   1.143   0.689  1.8200  0.2918 -0.7345
  312MOL0     H42101   6.627   1.260   0.550  0.9151  1.3293  0.5236
  312MOL0     H42102   7.721   1.041   0.846 -0.8735 -0.3831  1.3106
  312MOL0     H42103   7.916   1.148   0.962 -1.2775 -2.9999 -0.2929
  312MOL0     H42104   8.165   1.313   1.130 -0.1937 -1.0646  0.5403
  312MOL0     H42105   8.405   1.400   1.154 -1.0988 -1.2738  0.2355
  312MOL0     H42106   9.893   2.035   0.396 -0.4997 -0.2945  0.2992
  312MOL0     H42107  10.053   2.010   0.247 -1.1365 -1.0803  1.6413
  312MOL0     H42108  10.331   2.013  -0.111  1.1163  0.3017 -1.8936
  312MOL0     H42109  10.543   1.953  -0.212 -0.3044 -2.3987  0.6613
  312MOL0     H42110  10.943   2.032   0.031 -2.0633 -0.1192  0.1035
  312MOL0     H42111  11.005   1.982  -0.119 -1.0594 -1.0970 -0.5714
  312MOL0     H42112  10.866   2.241  -0.085 -0.4000 -1.3508  0.3379
  312MOL0     H42113  10.941   2.170  -0.239  1.7688  0.4270  0.2112
  312MOL0     H42114  11.161   2.200  -0.116 -1.4496  0.0902 -1.7104
  312MOL0     H42115  11.092   2.201   0.032  2.1645 -2.4221 -1.4175
  312MOL0     H42116  11.154   2.430  -0.002  0.0624 -1.5491  1.4782
  312MOL0     H42117  10.981   2.417   0.001 -0.6434 -0.6561 -0.8536
  312MOL0     H42118  11.107   2.534  -0.397  0.6778  1.3119  0.5446
  312MOL0     H42119  10.756   2.115   0.124  0.7757  0.3006 -1.1751
  312MOL0     H42120  10.547   2.193   0.217  4.2445 -1.2506  1.2049
  313MOL0     O42121  10.932   4.456   7.407 -0.2671  1.1253 -0.3533
  313MOL0     C42122  10.967   4.541   7.493 -0.1463 -0.0771  0.5670
  313MOL0     O42123  10.885   4.624   7.555 -0.4349  0.0846 -0.2334
  313MOL0     C42124  10.762   4.648   7.490 -0.9372  0.0891  0.2194
  313MOL0     C42125  10.760   4.735   7.386  0.6113 -0.1101 -0.0277
  313MOL0     C42126  10.634   4.773   7.332 -0.2703  0.3316 -0.1085
  313MOL0     C42127  10.512   4.715   7.382  0.4472  0.0804 -0.0791
  313MOL0     O42128  10.391   4.741   7.322  0.4527  0.3424 -0.1389
  313MOL0     C42129  10.358   4.879   7.317 -0.3094 -0.3609 -0.2627
  313MOL0     C42130  10.207   4.904   7.351 -0.4638 -0.8812  0.6714
  313MOL0     C42131  10.160   5.035   7.279  0.2773 -0.0926 -0.0322
  313MOL0     C42132  10.004   5.048   7.286  0.0500 -0.5006  1.2090
  313MOL0     C42133   9.970   5.200   7.279  0.4586 -1.0094 -0.1540
  313MOL0     C42134   9.826   5.231   7.249 -0.1656  0.1713 -0.0968
  313MOL0     C42135   9.737   5.163   7.363 -0.0101  0.4758  0.9668
  313MOL0     C42136   9.605   5.234   7.367 -0.3626  0.5806  0.3885
  313MOL0     N42137   9.522   5.200   7.482  0.2594  0.1096  0.6733
  313MOL0     C42138   9.472   5.278   7.585  0.2942 -0.0889  0.9157
  313MOL0     C42139   9.401   5.195   7.666  1.0064  0.8119 -0.5908
  313MOL0     C42140   9.345   5.237   7.798  0.4809  0.2238  0.9114
  313MOL0     C42141   9.203   5.294   7.795  0.8029  0.0540  1.1080
  313MOL0     C42142   9.092   5.186   7.774 -0.5267 -0.3350 -0.4168
  313MOL0     C42143   8.961   5.253   7.736 -0.0557  0.1761  0.1612
  313MOL0     O42144   8.928   5.350   7.838  0.4204  0.3407  0.3887
  313MOL0     C42145   8.801   5.334   7.885 -0.4434 -0.6362 -0.1893
  313MOL0     C42146   8.774   5.284   8.011 -0.3944  0.1547  0.5396
  313MOL0     C42147   8.645   5.285   8.066 -0.2403  0.2997 -0.1105
  313MOL0     C42148   8.625   5.239   8.209 -0.1179  0.5209  0.8015
  313MOL0     C42149   8.541   5.325   7.985 -0.2123  0.5359 -0.4506
  313MOL0     C42150   8.399   5.319   8.022  0.6224 -0.2724  0.2784
  313MOL0     O42151   8.312   5.396   7.946  0.2687 -0.1041 -0.0673
  313MOL0     C42152   8.186   5.417   7.990  0.7824  0.3736  0.3063
  313MOL0     C42153   8.150   5.458   8.121 -0.9443 -1.3710 -0.0697
  313MOL0     C42154   8.017   5.477   8.153 -0.6797  0.2869  0.6018
  313MOL0     C42155   7.917   5.453   8.054 -0.1169  0.4637 -1.4559
  313MOL0     O42156   7.795   5.502   8.085  0.9166  0.0053  0.2920
  313MOL0     C42157   7.699   5.397   8.103 -0.2641 -0.0969 -0.4707
  313MOL0     C42158   7.715   5.316   8.232 -0.2040 -0.4245 -1.6791
  313MOL0     C42159   7.643   5.387   8.345  0.1015  0.5308  0.2817
  313MOL0     C42160   7.489   5.365   8.339 -0.6978  0.3122  0.1246
  313MOL0     C42161   7.416   5.433   8.458  0.6253  0.5261  0.1666
  313MOL0     C42162   7.478   5.412   8.597 -0.0296 -0.3278 -1.1901
  313MOL0     C42163   7.460   5.267   8.632  0.4568  0.4417 -0.6007
  313MOL0     C42164   7.542   5.243   8.754  0.6156  0.4995  0.1968
  313MOL0    Cl42165   7.720   5.224   8.735 -0.1830 -0.1571  0.4130
  313MOL0     C42166   7.952   5.414   7.920  0.1480  0.8958 -0.2873
  313MOL0     C42167   8.087   5.403   7.893 -0.0574 -0.2257 -0.5117
  313MOL0     O42168   8.354   5.235   8.099 -0.4519  0.2353 -0.3794
  313MOL0     C42169   8.565   5.363   7.851  0.7481  0.0595 -0.1222
  313MOL0     C42170   8.697   5.371   7.800 -0.1835 -0.5938 -0.4067
  313MOL0     N42171   9.396   5.072   7.598  0.8125 -0.1671 -0.3759
  313MOL0     N42172   9.466   5.073   7.493 -0.0763  0.8444  1.0850
  313MOL0     C42173  10.529   4.620   7.485  0.5814 -0.3902 -0.0937
  313MOL0     C42174  10.648   4.584   7.547  0.0048 -0.3445  0.3706
  313MOL0     C42175  11.110   4.540   7.527  0.3708 -0.4434 -0.0864
  313MOL0     C42176  11.159   4.639   7.612  0.0184 -0.4310  0.9833
  313MOL0     C42177  11.286   4.636   7.650 -0.1114  0.8825 -0.1664
  313MOL0     C42178  11.384   4.549   7.596 -0.0274 -1.2392 -0.7791
  313MOL0     O42179  11.515   4.575   7.633  0.1549 -0.8113  0.6394
  313MOL0     C42180  11.622   4.503   7.557 -0.8406  1.0788  0.9223
  313MOL0     C42181  11.737   4.591   7.573  0.7004  0.3599 -0.3215
  313MOL0     C42182  11.726   4.727   7.514  0.0834 -0.3932  0.8916
  313MOL0     C42183  11.856   4.810   7.504 -0.4465 -0.3526 -0.0429
  313MOL0     C42184  11.921   4.813   7.633  0.7898 -0.3782 -0.2840
  313MOL0     C42185  11.963   4.782   7.741  0.5235  0.8743 -0.0858
  313MOL0     C42186  11.339   4.453   7.509  0.7697  0.9148 -0.7965
  313MOL0     C42187  11.200   4.450   7.477 -1.0731  0.3441  0.4314
  313MOL0     H42188  10.858   4.769   7.355 -0.1352  1.2760 -0.9716
  313MOL0     H42189  10.625   4.841   7.248  1.0826  0.3865 -0.2163
  313MOL0     H42190  10.421   4.945   7.377  0.2625  0.0645 -1.2954
  313MOL0     H42191  10.378   4.898   7.211 -0.4661 -2.6778 -0.7623
  313MOL0     H42192  10.160   4.816   7.307  1.7548 -1.3464 -0.9386
  313MOL0     H42193  10.182   4.909   7.458 -0.4072 -0.4589  0.6702
  313MOL0     H42194  10.203   5.123   7.327 -0.1007 -1.6694  3.5295
  313MOL0     H42195  10.191   5.034   7.175 -0.7329 -0.4913 -0.3482
  313MOL0     H42196   9.968   4.993   7.198 -1.4729  0.9329  0.8960
  313MOL0     H42197   9.967   5.003   7.378  1.0711 -4.7197 -0.1932
  313MOL0     H42198  10.004   5.263   7.362 -0.6686 -0.0580 -0.3757
  313MOL0     H42199  10.015   5.247   7.191 -1.0119 -0.4492 -0.6489
  313MOL0     H42200   9.808   5.338   7.238 -0.0716  0.0067 -2.5955
  313MOL0     H42201   9.803   5.186   7.151 -3.7203  0.3231  0.5173
  313MOL0     H42202   9.720   5.056   7.350  2.2840  0.2422 -0.6640
  313MOL0     H42203   9.784   5.183   7.460 -0.7937  0.4267  1.3647
  313MOL0     H42204   9.554   5.202   7.275  1.8265 -0.2066 -0.6165
  313MOL0     H42205   9.621   5.342   7.364  3.4067  0.1276 -0.0506
  313MOL0     H42206   9.493   5.385   7.593  1.1052 -0.2766  1.5384
  313MOL0     H42207   9.359   5.158   7.872 -0.6229 -2.1516 -1.2736
  313MOL0     H42208   9.408   5.321   7.829 -0.6537  1.7746 -0.8019
  313MOL0     H42209   9.186   5.360   7.710 -0.8807  0.6998  1.9057
  313MOL0     H42210   9.189   5.333   7.897  2.8497  1.8761  0.7739
  313MOL0     H42211   9.079   5.129   7.866  5.8443  0.5100  1.5045
  313MOL0     H42212   9.127   5.108   7.707  1.7377 -1.7729  2.2165
  313MOL0     H42213   8.893   5.167   7.729  1.9283 -1.4200 -0.6346
  313MOL0     H42214   8.983   5.299   7.639 -2.5144 -1.8242 -1.5019
  313MOL0     H42215   8.860   5.248   8.067 -1.3867 -1.3954  1.1360
  313MOL0     H42216   8.717   5.251   8.266  2.1348  0.0370 -2.4689
  313MOL0     H42217   8.540   5.289   8.258 -0.4971 -1.7721  2.6659
  313MOL0     H42218   8.602   5.132   8.211  2.2386 -0.0703 -0.4060
  313MOL0     H42219   8.218   5.484   8.201 -0.8731  2.2679 -1.0986
  313MOL0     H42220   7.991   5.508   8.253  2.0407 -2.7448  2.4827
  313MOL0     H42221   7.604   5.450   8.091 -0.3267  0.5925  2.3125
  313MOL0     H42222   7.699   5.320   8.025  0.7907  0.1762 -0.7523
  313MOL0     H42223   7.678   5.213   8.226  2.2516 -1.3722 -1.5125
  313MOL0     H42224   7.823   5.307   8.248 -0.0624 -4.2937 -3.5761
  313MOL0     H42225   7.665   5.494   8.353  3.6511  0.0036 -0.8976
  313MOL0     H42226   7.672   5.331   8.435 -1.4726  0.7637  0.9654
  313MOL0     H42227   7.452   5.399   8.241  0.6049 -1.3694 -1.0236
  313MOL0     H42228   7.480   5.256   8.340 -2.1116  0.3949 -0.7143
  313MOL0     H42229   7.316   5.390   8.455  1.5970 -2.1421  2.3333
  313MOL0     H42230   7.417   5.537   8.423 -2.3384  0.6145  0.0768
  313MOL0     H42231   7.583   5.441   8.600  0.1432 -0.9831  1.4480
  313MOL0     H42232   7.438   5.480   8.672  2.8892 -0.9511  1.1227
  313MOL0     H42233   7.476   5.204   8.543 -2.6330 -0.8556 -0.3929
  313MOL0     H42234   7.355   5.249   8.660  0.9362 -1.4550  0.1079
  313MOL0     H42235   7.506   5.152   8.803  1.7020  0.5208  1.0892
  313MOL0     H42236   7.514   5.326   8.819  0.4893  0.4434  0.2151
  313MOL0     H42237   7.869   5.398   7.851 -1.4079  1.8456  1.2854
  313MOL0     H42238   8.112   5.374   7.791 -0.4790 -3.4047  0.2069
  313MOL0     H42239   8.474   5.382   7.794 -1.8516 -2.6857  2.6943
  313MOL0     H42240   8.715   5.415   7.702 -1.6062 -1.5546 -1.1348
  313MOL0     H42241  10.439   4.571   7.520  0.8237 -0.2444  0.7444
  313MOL0     H42242  10.655   4.518   7.632 -2.6029 -3.5503 -1.6413
  313MOL0     H42243  11.096   4.716   7.655  3.3672  3.1535 -0.0204
  313MOL0     H42244  11.319   4.706   7.726 -1.6304 -0.5032  1.8728
  313MOL0     H42245  11.634   4.404   7.601 -2.8608 -0.8451 -2.4049
  313MOL0     H42246  11.606   4.493   7.450 -1.7535 -1.0703  1.2123
  313MOL0     H42247  11.825   4.540   7.532  1.6253  1.2882  0.4433
  313MOL0     H42248  11.761   4.607   7.679  0.8762  1.1713 -0.4739
  313MOL0     H42249  11.643   4.782   7.559  0.9291 -1.8162  4.5376
  313MOL0     H42250  11.706   4.708   7.408 -1.1692  2.0819  0.5949
  313MOL0     H42251  11.817   4.905   7.468 -2.2593 -1.3519 -0.8616
  313MOL0     H42252  11.923   4.765   7.429 -0.4499 -0.6149  0.1080
  313MOL0     H42253  11.990   4.735   7.833  2.9728 -3.1949 -2.5898
  313MOL0     H42254  11.413   4.388   7.464  2.9787  2.3425  0.5346
  313MOL0     H42255  11.168   4.366   7.415  0.6422 -0.3641  0.4484
  314MOL0     O42256   4.984   0.125   7.539  1.0000  0.2008 -0.6262
  314MOL0     C42257   4.942   0.138   7.656 -0.3047  0.7892 -0.5880
  314MOL0     O42258   5.020   0.189   7.752  0.1055 -0.1857  0.1626
  314MOL0     C42259   5.154   0.212   7.716  1.0341 -0.3515 -0.8695
  314MOL0     C42260   5.200   0.337   7.726 -0.0075 -0.5088  0.2033
  314MOL0     C42261   5.334   0.372   7.696 -0.4823  0.4825 -0.2234
  314MOL0     C42262   5.427   0.270   7.660  0.1776 -0.5767 -0.0097
  314MOL0     O42263   5.555   0.308   7.616  0.1407 -0.2556  0.0275
  314MOL0     C42264   5.658   0.213   7.633 -0.5947  0.7871  0.3136
  314MOL0     C42265   5.797   0.254   7.598 -1.2276 -0.1458 -0.2933
  314MOL0     C42266   5.829   0.306   7.454  0.6340  0.5273 -0.2378
  314MOL0     C42267   5.982   0.314   7.439 -0.2012 -0.8160  0.2264
  314MOL0     C42268   6.039   0.382   7.307  0.2023  1.2425 -0.5065
  314MOL0     C42269   5.994   0.304   7.187 -0.6914  0.0033  0.0362
  314MOL0     C42270   6.052   0.162   7.166 -0.3753  0.7478  0.0351
  314MOL0     C42271   6.189   0.151   7.088  0.0203 -0.2375 -0.1424
  314MOL0     N42272   6.229   0.016   7.056  0.2712  0.0151 -0.4342
  314MOL0     C42273   6.267  -0.087   7.142  0.0516 -0.4030  0.3902
  314MOL0     C42274   6.267  -0.201   7.060 -0.5954  0.3287  0.1771
  314MOL0     C42275   6.268  -0.340   7.110  0.6152  0.2581  0.4547
  314MOL0     C42276   6.163  -0.429   7.051  0.9026 -0.8111  0.5589
  314MOL0     C42277   6.179  -0.578   7.086  0.0064  0.2740  0.0572
  314MOL0     C42278   6.066  -0.670   7.041 -0.2376  0.3087  0.7339
  314MOL0     O42279   6.087  -0.809   7.065 -0.0065  1.3087 -0.3106
  314MOL0     C42280   6.179  -0.897   7.007  0.4337 -0.2081 -0.9506
  314MOL0     C42281   6.264  -0.860   6.902 -0.2748  0.4062 -0.7688
  314MOL0     C42282   6.355  -0.941   6.842 -0.0962 -0.3763 -0.7879
  314MOL0     C42283   6.438  -0.875   6.730  0.1648  0.0468 -0.1279
  314MOL0     C42284   6.355  -1.082   6.875  0.9242 -0.2453  1.1460
  314MOL0     C42285   6.440  -1.190   6.810 -0.0306 -0.2408  0.9300
  314MOL0     O42286   6.426  -1.323   6.854 -0.3499 -0.1358 -0.3705
  314MOL0     C42287   6.527  -1.422   6.831 -0.2640  0.7594 -0.2098
  314MOL0     C42288   6.665  -1.395   6.820 -0.1022 -0.7790  0.1136
  314MOL0     C42289   6.762  -1.503   6.814  0.0378 -0.1813  0.0804
  314MOL0     C42290   6.728  -1.638   6.807  1.6940 -0.3354 -0.6359
  314MOL0     O42291   6.832  -1.726   6.815  0.2043 -0.3994 -0.1554
  314MOL0     C42292   6.820  -1.862   6.790 -0.8204  0.0231 -0.6881
  314MOL0     C42293   6.772  -1.900   6.651 -0.1434 -0.1864  0.5697
  314MOL0     C42294   6.739  -2.044   6.637  0.0970  0.5796  0.4325
  314MOL0     C42295   6.856  -2.141   6.660 -0.6042  0.2130 -0.7579
  314MOL0     C42296   6.827  -2.272   6.588  1.0974  0.1524  0.0007
  314MOL0     C42297   6.946  -2.349   6.585  0.1856  0.0434 -0.8473
  314MOL0     C42298   6.944  -2.479   6.500  0.2128  0.8772  0.5818
  314MOL0     C42299   7.093  -2.519   6.468 -0.2225  0.5109  0.0947
  314MOL0    Cl42300   7.182  -2.528   6.626  0.2911 -0.2248 -0.2141
  314MOL0     C42301   6.591  -1.665   6.804 -0.9657 -0.5035  0.3574
  314MOL0     C42302   6.495  -1.564   6.813  0.2499 -1.2625 -0.4863
  314MOL0     O42303   6.523  -1.148   6.729  0.0047  0.0609  0.1485
  314MOL0     C42304   6.257  -1.124   6.970  0.4423 -0.7178  0.4662
  314MOL0     C42305   6.178  -1.030   7.045 -0.1561  0.5038  0.4276
  314MOL0     N42306   6.246  -0.159   6.931 -0.1119 -0.0159 -0.4263
  314MOL0     N42307   6.236  -0.029   6.926 -0.5399 -0.1210  0.6619
  314MOL0     C42308   5.373   0.138   7.649  0.5176 -0.8380 -0.5406
  314MOL0     C42309   5.242   0.110   7.682  0.3227  0.2404  1.1259
  314MOL0     C42310   4.797   0.104   7.690 -0.0282 -0.4800 -0.0574
  314MOL0     C42311   4.763   0.089   7.825  0.5892  0.4990  0.3530
  314MOL0     C42312   4.629   0.063   7.860 -0.2481 -0.8714 -0.2924
  314MOL0     C42313   4.536   0.053   7.761 -0.5042  0.1138 -0.0680
  314MOL0     O42314   4.403   0.044   7.785 -0.0112  0.0383 -0.0271
  314MOL0     C42315   4.361   0.012   7.911 -0.1678  0.1049 -0.4691
  314MOL0     C42316   4.210  -0.006   7.902  0.3394  0.0196 -0.3330
  314MOL0     C42317   4.164  -0.134   7.821 -0.1107  0.2584 -0.9645
  314MOL0     C42318   4.017  -0.172   7.812  0.0677 -0.0150  0.8238
  314MOL0     C42319   3.961  -0.174   7.945  0.7807 -0.4817 -0.6752
  314MOL0     C42320   3.922  -0.166   8.065  0.1786  0.7085 -0.0065
  314MOL0     C42321   4.569   0.072   7.627  0.2981  0.5723  0.1731
  314MOL0     C42322   4.705   0.081   7.590  0.0407  0.2615  0.1610
  314MOL0     H42323   5.140   0.409   7.781 -0.2603 -1.3776  1.0763
  314MOL0     H42324   5.363   0.476   7.699 -0.6855  0.5868 -1.5173
  314MOL0     H42325   5.670   0.187   7.739  0.6857 -2.7676 -0.5569
  314MOL0     H42326   5.639   0.117   7.584  3.8871 -0.2858  0.2656
  314MOL0     H42327   5.827   0.331   7.669 -0.9903  2.4385 -3.0211
  314MOL0     H42328   5.862   0.167   7.591  1.8390  1.8744  1.2700
  314MOL0     H42329   5.791   0.230   7.385  0.4614  0.1226  0.3036
  314MOL0     H42330   5.776   0.399   7.429 -2.0338 -0.2832  1.9466
  314MOL0     H42331   6.027   0.379   7.515  0.8226 -0.4305 -0.6905
  314MOL0     H42332   6.010   0.209   7.453 -3.1408 -1.5280  1.6899
  314MOL0     H42333   5.988   0.477   7.289 -1.2124  0.2267 -2.1705
  314MOL0     H42334   6.147   0.399   7.310  0.8656 -2.2266 -0.7693
  314MOL0     H42335   5.886   0.299   7.176 -0.9257  1.9234  1.0322
  314MOL0     H42336   6.013   0.357   7.093  1.8341 -0.7925  0.0218
  314MOL0     H42337   6.067   0.112   7.262  2.1254  1.3017 -0.0019
  314MOL0     H42338   5.982   0.102   7.107  0.2129 -0.3672  0.4430
  314MOL0     H42339   6.265   0.195   7.153  2.4831 -2.8467 -1.0401
  314MOL0     H42340   6.175   0.212   6.998 -0.3651  0.0442  0.1063
  314MOL0     H42341   6.275  -0.073   7.250 -0.3369 -0.2300  0.3987
  314MOL0     H42342   6.367  -0.382   7.087  1.3267 -0.2288  3.8315
  314MOL0     H42343   6.268  -0.336   7.219  1.4171 -2.2515  0.6120
  314MOL0     H42344   6.180  -0.418   6.944  0.1881  0.0338  0.5221
  314MOL0     H42345   6.063  -0.406   7.090  1.4158 -2.7150  3.3041
  314MOL0     H42346   6.178  -0.587   7.196  0.3269  0.5337  0.0828
  314MOL0     H42347   6.279  -0.612   7.058  0.5604 -1.7086  3.6741
  314MOL0     H42348   6.054  -0.659   6.933 -0.1951  0.4158  0.7398
  314MOL0     H42349   5.977  -0.637   7.095 -0.0109 -2.9507  3.4362
  314MOL0     H42350   6.271  -0.755   6.875  0.0792  0.6599  0.2675
  314MOL0     H42351   6.393  -0.902   6.634  2.6668 -2.5024 -0.7108
  314MOL0     H42352   6.439  -0.765   6.727 -0.7756  0.0762  0.2343
  314MOL0     H42353   6.546  -0.888   6.722  0.2391  0.9586 -0.8003
  314MOL0     H42354   6.705  -1.294   6.825 -2.7351  0.3241  0.6108
  314MOL0     H42355   6.870  -1.493   6.812 -0.0509  1.2177 -3.0841
  314MOL0     H42356   6.917  -1.905   6.818  0.6822  3.2844 -0.3684
  314MOL0     H42357   6.745  -1.905   6.856  0.3098 -2.6916 -1.0427
  314MOL0     H42358   6.686  -1.836   6.630  1.1396  1.0896 -1.0566
  314MOL0     H42359   6.848  -1.875   6.577 -0.1951 -1.3741  0.0941
  314MOL0     H42360   6.708  -2.057   6.533  3.1755  1.3780 -0.6997
  314MOL0     H42361   6.657  -2.063   6.706 -0.7461 -2.8852 -1.2978
  314MOL0     H42362   6.948  -2.091   6.629 -0.6825  1.5392  0.9533
  314MOL0     H42363   6.874  -2.162   6.766  3.4177  1.7799 -0.9397
  314MOL0     H42364   6.785  -2.261   6.488 -2.6527  1.3198  1.5645
  314MOL0     H42365   6.750  -2.329   6.640  1.1028  1.1618  1.1342
  314MOL0     H42366   7.035  -2.294   6.554  0.2498 -0.3573 -1.3806
  314MOL0     H42367   6.970  -2.371   6.689 -0.4688  0.7559 -0.5288
  314MOL0     H42368   6.891  -2.453   6.408 -0.2294  1.5182  1.0063
  314MOL0     H42369   6.888  -2.567   6.536 -0.2734  1.0054  0.1556
  314MOL0     H42370   7.131  -2.444   6.398  0.4132 -0.3131 -0.4602
  314MOL0     H42371   7.100  -2.614   6.413  0.1707 -0.7197  2.1416
  314MOL0     H42372   6.551  -1.766   6.800  0.2690 -1.0894  1.7111
  314MOL0     H42373   6.395  -1.605   6.822  0.8801 -2.7465 -0.0380
  314MOL0     H42374   6.242  -1.230   6.985 -2.4036 -0.5730 -0.8098
  314MOL0     H42375   6.098  -1.061   7.111 -1.2219 -1.0608 -1.4589
  314MOL0     H42376   5.430   0.058   7.602 -1.9379 -0.7723 -4.0451
  314MOL0     H42377   5.218   0.004   7.669  2.7215  0.0523 -5.0375
  314MOL0     H42378   4.833   0.099   7.908  1.2154  2.9991 -0.3886
  314MOL0     H42379   4.609   0.055   7.967  0.5242  0.1600 -0.0461
  314MOL0     H42380   4.394  -0.080   7.959  0.5015  0.0163 -1.0825
  314MOL0     H42381   4.383   0.096   7.978 -0.3849  1.2128 -1.7416
  314MOL0     H42382   4.153   0.079   7.865 -0.4850 -0.6751 -0.6688
  314MOL0     H42383   4.175  -0.017   8.005  0.2777 -3.2352 -0.6120
  314MOL0     H42384   4.206  -0.214   7.884  0.6238  1.2783 -0.1182
  314MOL0     H42385   4.207  -0.137   7.721  1.6744  2.4380 -0.3466
  314MOL0     H42386   4.000  -0.268   7.762 -1.0775 -0.1688  1.4716
  314MOL0     H42387   3.972  -0.095   7.749  2.7104 -0.1559 -1.4401
  314MOL0     H42388   3.876  -0.161   8.162 -2.4191  0.6823 -1.1576
  314MOL0     H42389   4.493   0.080   7.550 -0.8754 -2.3957  0.9102
  314MOL0     H42390   4.743   0.092   7.489  2.9053  1.3953  1.2609
  315MOL0     O42391   6.571   0.718   3.980  0.0018  0.4641  0.4690
  315MOL0     C42392   6.573   0.835   3.999  0.0406  0.3991  0.0334
  315MOL0     O42393   6.677   0.919   3.999  0.3933 -0.1085 -0.1273
  315MOL0     C42394   6.799   0.890   3.948  0.2646 -0.0249 -0.6478
  315MOL0     C42395   6.872   0.787   3.997  0.4009  0.0175 -0.6438
  315MOL0     C42396   6.999   0.753   3.938  0.3252 -0.7320 -0.3501
  315MOL0     C42397   7.058   0.830   3.849  0.2036  0.2200  0.3760
  315MOL0     O42398   7.188   0.801   3.815 -0.1034  0.8200  0.2817
  315MOL0     C42399   7.275   0.894   3.753  0.3064 -0.1359 -0.1262
  315MOL0     C42400   7.415   0.848   3.750  0.4226 -0.0848  0.2739
  315MOL0     C42401   7.464   0.819   3.890  0.5635  0.6699  0.7331
  315MOL0     C42402   7.590   0.726   3.894 -0.4365 -0.7780  0.5474
  315MOL0     C42403   7.649   0.706   4.027 -0.2617 -0.8522  0.0576
  315MOL0     C42404   7.740   0.830   4.061  0.8689 -0.4269  0.3255
  315MOL0     C42405   7.800   0.794   4.201 -0.3631  0.4116  0.0033
  315MOL0     C42406   7.900   0.673   4.191  0.9913  0.8613 -0.3906
  315MOL0     N42407   7.842   0.545   4.238  0.8698 -0.0974 -0.3302
  315MOL0     C42408   7.775   0.523   4.360 -0.5516 -0.1039 -0.1618
  315MOL0     C42409   7.754   0.388   4.365  0.0312 -0.1128  0.6206
  315MOL0     C42410   7.675   0.297   4.456  0.2128  0.3017 -0.2547
  315MOL0     C42411   7.689   0.341   4.601  0.1812 -0.2758 -0.6650
  315MOL0     C42412   7.675   0.226   4.702  1.1707 -0.6227 -0.3633
  315MOL0     C42413   7.681   0.291   4.840  0.7010  0.6230  0.0094
  315MOL0     O42414   7.788   0.384   4.841  0.1075 -0.1784  0.2670
  315MOL0     C42415   7.815   0.451   4.954  0.8080 -0.1186  0.1606
  315MOL0     C42416   7.715   0.497   5.036  0.9074  0.3629  0.4111
  315MOL0     C42417   7.735   0.557   5.168 -0.6373  0.3703  0.8222
  315MOL0     C42418   7.609   0.589   5.246  0.0227 -0.2813 -0.0663
  315MOL0     C42419   7.871   0.586   5.208 -0.3740 -0.5722 -0.5494
  315MOL0     C42420   7.920   0.667   5.314  0.2417 -0.0346  0.2771
  315MOL0     O42421   8.028   0.627   5.387  0.0310 -0.3022  0.6721
  315MOL0     C42422   8.121   0.732   5.402  1.3128  0.1019 -0.7608
  315MOL0     C42423   8.244   0.716   5.343  0.3095 -0.2651  0.0900
  315MOL0     C42424   8.341   0.800   5.386 -0.1068  0.0478 -0.3044
  315MOL0     C42425   8.317   0.910   5.467  0.1822 -0.5724 -0.3205
  315MOL0     O42426   8.416   0.998   5.519  0.0532 -0.2922  0.8124
  315MOL0     C42427   8.555   0.969   5.491 -0.1359 -0.1299 -1.1452
  315MOL0     C42428   8.637   1.077   5.580 -0.7350 -0.2031 -0.4611
  315MOL0     C42429   8.614   1.045   5.725  0.6917  0.0727 -2.0368
  315MOL0     C42430   8.646   1.161   5.826  0.2215 -0.3455  0.4656
  315MOL0     C42431   8.632   1.136   5.976  0.1119  0.3991 -0.9217
  315MOL0     C42432   8.714   1.014   6.008  0.9663 -0.4020 -0.6070
  315MOL0     C42433   8.706   1.006   6.157  0.4926 -0.3985  0.2559
  315MOL0     C42434   8.797   0.900   6.226 -0.8131 -0.6907 -0.2342
  315MOL0    Cl42435   8.974   0.941   6.197  0.0010 -0.2495  0.2886
  315MOL0     C42436   8.189   0.931   5.516  0.3523  0.3144 -0.2450
  315MOL0     C42437   8.088   0.837   5.486  0.2688 -0.2363 -0.5063
  315MOL0     O42438   7.852   0.766   5.342  0.1156  0.4900  0.0812
  315MOL0     C42439   7.975   0.538   5.117 -0.2881 -0.5178 -0.5040
  315MOL0     C42440   7.944   0.471   4.999 -1.1667 -0.0790 -0.5485
  315MOL0     N42441   7.829   0.326   4.257  0.1889  0.0971 -0.6646
  315MOL0     N42442   7.872   0.427   4.187 -0.1885 -0.1296 -0.6280
  315MOL0     C42443   6.991   0.946   3.808  0.3041 -0.2215  0.3593
  315MOL0     C42444   6.859   0.961   3.842 -0.3161  0.4532 -0.0808
  315MOL0     C42445   6.437   0.897   4.018  0.8383  0.0046 -0.0173
  315MOL0     C42446   6.320   0.819   4.038 -0.7278  0.4763  0.2765
  315MOL0     C42447   6.199   0.875   4.054 -0.2028 -0.4864  0.6330
  315MOL0     C42448   6.191   1.011   4.061  0.2198  0.1905 -0.4480
  315MOL0     O42449   6.068   1.068   4.101  0.2594 -0.4549  0.4132
  315MOL0     C42450   6.053   1.214   4.098  0.3428 -0.3677  0.2511
  315MOL0     C42451   5.908   1.259   4.126  0.4260  0.5517 -0.2179
  315MOL0     C42452   5.858   1.211   4.260  0.0401 -0.2384  0.6116
  315MOL0     C42453   5.710   1.242   4.286  0.3962 -0.3478 -0.4477
  315MOL0     C42454   5.662   1.209   4.419 -0.0641  0.1571  0.3616
  315MOL0     C42455   5.633   1.181   4.536  0.8835  0.3388  0.2378
  315MOL0     C42456   6.307   1.092   4.034 -0.3593 -0.2716  0.2109
  315MOL0     C42457   6.432   1.041   4.008 -0.0305  0.7682  0.0187
  315MOL0     H42458   6.825   0.729   4.077  1.3490 -0.7095 -0.5878
  315MOL0     H42459   7.057   0.665   3.964  0.9710 -0.2634 -0.1948
  315MOL0     H42460   7.236   0.918   3.654  0.1888  1.3842  0.2569
  315MOL0     H42461   7.281   0.989   3.807 -1.4886  1.2494 -2.1871
  315MOL0     H42462   7.406   0.758   3.688 -2.0593  1.4874 -1.8728
  315MOL0     H42463   7.490   0.903   3.692  1.8118 -3.5413 -1.5133
  315MOL0     H42464   7.481   0.916   3.938 -0.8525 -0.2394  3.2387
  315MOL0     H42465   7.385   0.773   3.950 -1.3229  2.0645 -0.5602
  315MOL0     H42466   7.550   0.638   3.843 -2.3394  1.0401 -1.3251
  315MOL0     H42467   7.670   0.750   3.824 -0.3966 -0.5877  0.6572
  315MOL0     H42468   7.577   0.687   4.107  0.3054  0.2657  0.8596
  315MOL0     H42469   7.704   0.612   4.013 -0.7123 -1.2220  0.7065
  315MOL0     H42470   7.815   0.851   3.984  0.9340  0.3127  0.5850
  315MOL0     H42471   7.674   0.917   4.069  0.7790 -0.5903  1.4894
  315MOL0     H42472   7.850   0.877   4.252 -0.4565 -0.4896  1.6300
  315MOL0     H42473   7.735   0.778   4.288  2.3177  2.2732  2.5603
  315MOL0     H42474   7.991   0.695   4.248 -0.9010  0.8169  2.8825
  315MOL0     H42475   7.931   0.647   4.090  1.6673  2.4013 -0.6054
  315MOL0     H42476   7.736   0.596   4.430 -4.0241 -2.9676  1.1605
  315MOL0     H42477   7.572   0.323   4.429  0.9784 -0.2294 -4.3119
  315MOL0     H42478   7.695   0.190   4.442  3.3231  0.9256 -1.3108
  315MOL0     H42479   7.621   0.427   4.605  2.2712  1.4290  0.3450
  315MOL0     H42480   7.789   0.384   4.606 -0.6699  2.0594 -1.8558
  315MOL0     H42481   7.754   0.152   4.685  4.5710  3.3195 -4.4851
  315MOL0     H42482   7.575   0.183   4.692  0.1022  1.4718  0.6980
  315MOL0     H42483   7.710   0.216   4.914  2.3653 -1.9759 -3.0069
  315MOL0     H42484   7.589   0.343   4.869  0.5729 -0.4927  1.7142
  315MOL0     H42485   7.608   0.488   5.018  1.1621 -1.2243 -0.5748
  315MOL0     H42486   7.590   0.530   5.336 -0.6732  3.4010  2.4329
  315MOL0     H42487   7.603   0.690   5.287  5.0052  1.1661 -2.0469
  315MOL0     H42488   7.522   0.571   5.183 -0.3219 -1.2177  0.6573
  315MOL0     H42489   8.265   0.648   5.261 -0.1899  2.1865 -2.1969
  315MOL0     H42490   8.445   0.777   5.361  0.3947 -0.7756  2.2573
  315MOL0     H42491   8.589   0.870   5.523  0.4550  1.1410  2.6210
  315MOL0     H42492   8.584   0.975   5.385  1.2414 -0.6465 -0.8201
  315MOL0     H42493   8.743   1.066   5.555 -0.6513 -3.3339  0.8177
  315MOL0     H42494   8.599   1.174   5.548 -0.4500 -0.6076 -2.1779
  315MOL0     H42495   8.687   0.965   5.742  2.3464  2.1016  1.4972
  315MOL0     H42496   8.514   1.006   5.746  0.6869  1.0422  0.0065
  315MOL0     H42497   8.750   1.187   5.806  0.4073 -0.9551  0.6268
  315MOL0     H42498   8.581   1.245   5.800  1.7977  0.6138 -0.4558
  315MOL0     H42499   8.524   1.116   5.982 -0.6528  4.2490  1.5426
  315MOL0     H42500   8.670   1.220   6.034 -2.1738  1.4586 -0.8453
  315MOL0     H42501   8.658   0.935   5.958 -0.9111  0.2951  0.2994
  315MOL0     H42502   8.818   1.026   5.975  1.4497 -2.0094  0.2142
  315MOL0     H42503   8.599   1.001   6.181 -0.2673  2.1888 -2.0559
  315MOL0     H42504   8.740   1.104   6.190 -0.3362  0.4969 -1.4515
  315MOL0     H42505   8.784   0.795   6.198  0.2216 -1.0144  0.4579
  315MOL0     H42506   8.777   0.897   6.333  1.4742 -1.8399  0.2184
  315MOL0     H42507   8.171   1.022   5.572 -1.7736 -0.2162 -0.0073
  315MOL0     H42508   8.002   0.854   5.550  1.4532 -1.5474  1.5665
  315MOL0     H42509   8.081   0.549   5.137 -0.8527 -0.7464  3.6400
  315MOL0     H42510   8.025   0.432   4.938 -0.6082 -2.5555  1.6270
  315MOL0     H42511   7.041   1.009   3.735 -2.7090  1.0254 -0.8028
  315MOL0     H42512   6.798   1.042   3.802  0.6557  0.4485 -1.6733
  315MOL0     H42513   6.329   0.711   4.035  0.7369  0.6004 -0.8223
  315MOL0     H42514   6.109   0.819   4.075 -0.3414 -0.9065 -0.9754
  315MOL0     H42515   6.129   1.259   4.163 -0.5421 -1.4455  2.1157
  315MOL0     H42516   6.075   1.246   3.996  0.5988  1.6015  0.8902
  315MOL0     H42517   5.837   1.231   4.049 -0.5122 -1.3518  1.2377
  315MOL0     H42518   5.905   1.368   4.127 -0.6309  0.5321 -0.4025
  315MOL0     H42519   5.919   1.265   4.333  0.2395  2.5963 -1.4381
  315MOL0     H42520   5.883   1.105   4.270  1.3649  0.1130  1.2877
  315MOL0     H42521   5.649   1.187   4.214 -4.3558  2.5478  0.8555
  315MOL0     H42522   5.679   1.347   4.282  0.4937 -0.2832  0.3021
  315MOL0     H42523   5.596   1.136   4.625  0.1103 -0.1895 -0.3315
  315MOL0     H42524   6.297   1.200   4.036 -1.0254 -0.2619 -1.8623
  315MOL0     H42525   6.515   1.111   4.003 -1.1483  2.0834 -1.1551
  316MOL0     O42526   6.344   7.317   0.197  0.0863  0.2020  0.0697
  316MOL0     C42527   6.392   7.323   0.315  0.4717  0.0797  0.0678
  316MOL0     O42528   6.325   7.344   0.429  0.2909  0.5257  0.5173
  316MOL0     C42529   6.186   7.344   0.421  0.2297  0.8046  0.2087
  316MOL0     C42530   6.099   7.349   0.311  0.1838  0.0149  0.2054
  316MOL0     C42531   5.958   7.357   0.331 -0.2200  0.0328 -0.4313
  316MOL0     C42532   5.904   7.334   0.457  1.2667 -0.2386 -0.8718
  316MOL0     O42533   5.764   7.333   0.471 -0.0005 -0.4392  0.7083
  316MOL0     C42534   5.703   7.284   0.585 -0.1043  0.4035 -0.3984
  316MOL0     C42535   5.563   7.254   0.562 -0.2232 -0.0699  0.1137
  316MOL0     C42536   5.464   7.374   0.582  0.9436  0.3680 -0.3651
  316MOL0     C42537   5.325   7.322   0.556 -0.5465 -0.6838 -0.0027
  316MOL0     C42538   5.232   7.442   0.532  0.4511  0.4946 -0.0866
  316MOL0     C42539   5.085   7.406   0.556  0.4594 -0.0859  0.7979
  316MOL0     C42540   5.037   7.284   0.480 -0.4037  0.1077  0.1634
  316MOL0     C42541   4.896   7.265   0.476  1.1388 -0.8432 -0.4325
  316MOL0     N42542   4.822   7.263   0.600 -0.0736  0.6909 -0.5207
  316MOL0     C42543   4.857   7.203   0.720 -0.2664 -0.2840  0.5356
  316MOL0     C42544   4.742   7.213   0.793  0.6281  0.6316  0.3777
  316MOL0     C42545   4.726   7.170   0.933 -0.1296 -0.1754 -1.4043
  316MOL0     C42546   4.713   7.016   0.952 -0.9851  0.1376 -0.0381
  316MOL0     C42547   4.605   6.973   0.861  0.7973  0.3863  0.2071
  316MOL0     C42548   4.470   7.039   0.886 -0.0768  0.0940 -0.8955
  316MOL0     O42549   4.366   6.958   0.831  0.2237 -0.0337  0.1249
  316MOL0     C42550   4.236   6.997   0.851 -0.4556 -1.0768 -0.5221
  316MOL0     C42551   4.202   7.133   0.891 -0.1457  0.4591  0.0744
  316MOL0     C42552   4.064   7.162   0.917  1.0028 -0.4838  0.6247
  316MOL0     C42553   4.041   7.306   0.951  0.2845  0.4202  0.0685
  316MOL0     C42554   3.959   7.069   0.899  0.0660  0.5139  0.9251
  316MOL0     C42555   3.812   7.084   0.918 -0.3808 -0.1546  0.4963
  316MOL0     O42556   3.743   6.980   0.870 -1.1331 -0.0865  0.2344
  316MOL0     C42557   3.609   6.986   0.886 -0.0566 -0.3852  0.0229
  316MOL0     C42558   3.532   7.074   0.811 -0.5220  0.3887 -0.0489
  316MOL0     C42559   3.390   7.077   0.814 -0.5224  0.0965 -0.6326
  316MOL0     C42560   3.325   6.986   0.901 -0.0041  0.3079 -0.2299
  316MOL0     O42561   3.191   6.973   0.914  0.3109  0.8568  0.2595
  316MOL0     C42562   3.116   7.092   0.888  1.3741  0.3767 -0.3158
  316MOL0     C42563   2.970   7.066   0.934 -0.5075 -0.5944  0.2571
  316MOL0     C42564   2.912   6.945   0.871 -0.8396 -0.3686  0.0700
  316MOL0     C42565   2.768   6.938   0.883  1.1895  0.2738  0.2983
  316MOL0     C42566   2.698   6.832   0.795  0.3626 -0.6126  0.2457
  316MOL0     C42567   2.540   6.848   0.825  0.3815  0.2310 -0.2551
  316MOL0     C42568   2.455   6.737   0.760 -0.5939 -0.2613 -0.0363
  316MOL0     C42569   2.321   6.753   0.814  0.5718 -0.5992  0.2255
  316MOL0    Cl42570   2.243   6.915   0.782 -0.6613 -0.0125  0.0105
  316MOL0     C42571   3.399   6.887   0.968 -0.4072  0.9270 -0.2639
  316MOL0     C42572   3.545   6.892   0.970  0.5693 -0.2008  0.0099
  316MOL0     O42573   3.767   7.181   0.980  0.5056  0.2132  0.7541
  316MOL0     C42574   4.007   6.943   0.841  0.4044  0.1754 -0.9776
  316MOL0     C42575   4.140   6.910   0.815 -0.3958  0.1561  0.1445
  316MOL0     N42576   4.645   7.274   0.719  0.0950 -0.3622 -0.0772
  316MOL0     N42577   4.694   7.308   0.608  0.3069  0.0853 -0.5802
  316MOL0     C42578   5.986   7.311   0.563 -0.1772 -0.9258 -0.7370
  316MOL0     C42579   6.127   7.314   0.545 -1.2588 -0.3545 -0.0417
  316MOL0     C42580   6.535   7.288   0.327 -0.7989 -0.6340 -0.0585
  316MOL0     C42581   6.629   7.249   0.221 -0.1417  0.3317  0.5084
  316MOL0     C42582   6.766   7.227   0.245  0.3907  0.5686 -0.1584
  316MOL0     C42583   6.819   7.230   0.372 -0.4322 -0.8176 -0.2859
  316MOL0     O42584   6.954   7.217   0.393  0.2846 -0.2448 -0.0134
  316MOL0     C42585   7.023   7.118   0.312  0.4469 -0.0296  0.1673
  316MOL0     C42586   7.152   7.054   0.375 -0.3652  0.0205 -0.2898
  316MOL0     C42587   7.118   6.951   0.476 -0.7543 -0.0354  0.3205
  316MOL0     C42588   7.246   6.880   0.521 -0.5836 -0.2767 -0.2308
  316MOL0     C42589   7.339   6.978   0.582  0.2736 -0.3632 -0.7285
  316MOL0     C42590   7.422   7.067   0.605  0.4520  0.9066  0.0081
  316MOL0     C42591   6.734   7.281   0.479 -0.4918  0.5369  0.4578
  316MOL0     C42592   6.600   7.311   0.452  0.1267 -0.3985  0.2881
  316MOL0     H42593   6.125   7.356   0.205  0.4759  1.4252  0.3469
  316MOL0     H42594   5.886   7.396   0.259  0.3104  1.9432  0.0016
  316MOL0     H42595   5.759   7.192   0.609 -3.7658 -2.1229 -0.6467
  316MOL0     H42596   5.705   7.351   0.671 -0.9745 -0.4578  0.3214
  316MOL0     H42597   5.556   7.221   0.458 -1.3190 -4.6129  1.3850
  316MOL0     H42598   5.524   7.170   0.620 -0.7026  0.1671  0.1337
  316MOL0     H42599   5.476   7.394   0.689 -2.9786  2.3119 -0.1052
  316MOL0     H42600   5.487   7.468   0.531  0.2071  0.8173  0.1155
  316MOL0     H42601   5.332   7.258   0.467 -2.1416 -2.4734  1.0877
  316MOL0     H42602   5.296   7.261   0.642 -0.5749  1.4792  1.6177
  316MOL0     H42603   5.257   7.519   0.606 -1.3465 -1.0783  2.3060
  316MOL0     H42604   5.244   7.493   0.436  1.5399  3.0743  1.2916
  316MOL0     H42605   5.068   7.383   0.662 -3.2726  4.5536  1.5209
  316MOL0     H42606   5.013   7.481   0.522  2.6193  1.2845 -0.9896
  316MOL0     H42607   5.073   7.289   0.376  1.3680 -0.0641  0.7330
  316MOL0     H42608   5.082   7.191   0.518  1.4552  0.2907 -1.4215
  316MOL0     H42609   4.880   7.171   0.421 -1.5605 -0.4142 -0.5234
  316MOL0     H42610   4.849   7.349   0.424  3.5643  0.9818  0.1124
  316MOL0     H42611   4.953   7.154   0.735  0.5223 -0.6954 -4.3340
  316MOL0     H42612   4.803   7.214   0.997 -1.1762 -0.9832  0.5025
  316MOL0     H42613   4.635   7.217   0.971  1.1941  0.0649  1.8304
  316MOL0     H42614   4.699   6.987   1.056  2.7182 -1.1405  0.2230
  316MOL0     H42615   4.813   6.974   0.939 -0.8278  0.4235  0.2210
  316MOL0     H42616   4.577   6.869   0.880 -4.2899  1.2874 -0.8487
  316MOL0     H42617   4.630   6.985   0.755 -3.0354 -0.7083 -0.9732
  316MOL0     H42618   4.466   7.138   0.839 -1.0709  0.2322 -0.5323
  316MOL0     H42619   4.453   7.049   0.993 -0.2581  2.9640 -1.1039
  316MOL0     H42620   4.274   7.213   0.903  1.6050 -1.3818  3.2076
  316MOL0     H42621   3.939   7.336   0.925  1.6977  2.7130 -3.6354
  316MOL0     H42622   4.062   7.314   1.058  0.7255 -0.9099  0.1004
  316MOL0     H42623   4.106   7.375   0.897 -0.0457  0.4966 -0.2358
  316MOL0     H42624   3.581   7.144   0.744 -1.8755  2.4485  0.9800
  316MOL0     H42625   3.347   7.146   0.741  5.4688  0.1658 -4.7920
  316MOL0     H42626   3.155   7.185   0.932 -1.8629  1.9468 -0.4983
  316MOL0     H42627   3.118   7.105   0.779 -2.1395  0.3780 -0.4712
  316MOL0     H42628   2.982   7.047   1.041  2.3724 -1.6201 -0.1613
  316MOL0     H42629   2.909   7.157   0.928 -2.3007 -1.2956  4.2471
  316MOL0     H42630   2.955   6.853   0.911 -3.4746 -0.8161  2.1405
  316MOL0     H42631   2.943   6.948   0.766 -1.8127  0.9613 -0.2142
  316MOL0     H42632   2.737   6.915   0.985 -0.0900 -0.0998 -0.1583
  316MOL0     H42633   2.732   7.039   0.863  0.9518  0.0450 -0.4382
  316MOL0     H42634   2.740   6.736   0.826  0.9149 -0.0042  1.4376
  316MOL0     H42635   2.719   6.857   0.691  0.3802  0.7262  0.5535
  316MOL0     H42636   2.518   6.845   0.932 -0.7989 -1.6180 -0.5056
  316MOL0     H42637   2.503   6.941   0.782  1.6442  0.2748 -1.2860
  316MOL0     H42638   2.507   6.648   0.799  0.2620  1.0504  1.9883
  316MOL0     H42639   2.447   6.749   0.652 -4.5076 -0.0911  0.1074
  316MOL0     H42640   2.319   6.724   0.919  2.9208  0.9195  0.7615
  316MOL0     H42641   2.259   6.676   0.769 -1.6620  1.0793  0.2604
  316MOL0     H42642   3.346   6.815   1.030  2.8280  0.0412  1.7095
  316MOL0     H42643   3.605   6.830   1.035 -0.2640 -0.2573  0.7395
  316MOL0     H42644   3.941   6.868   0.799  1.9016 -2.6081  1.2893
  316MOL0     H42645   4.153   6.817   0.760 -1.8662  0.8142 -1.3901
  316MOL0     H42646   5.939   7.282   0.657  2.3859 -0.9717  0.6132
  316MOL0     H42647   6.193   7.323   0.630  0.2363 -0.1455 -1.1808
  316MOL0     H42648   6.595   7.232   0.119 -0.5732 -0.7777  0.8228
  316MOL0     H42649   6.820   7.189   0.159  0.3105  0.0363  0.0247
  316MOL0     H42650   6.948   7.042   0.289  1.4109 -0.2335 -2.7481
  316MOL0     H42651   7.054   7.176   0.224  0.5386  0.9141  0.8053
  316MOL0     H42652   7.199   7.131   0.437 -0.1122  0.3570 -0.9010
  316MOL0     H42653   7.230   7.027   0.305 -0.9495  4.5535 -3.1014
  316MOL0     H42654   7.053   6.870   0.442 -0.8457  0.0683  0.2468
  316MOL0     H42655   7.068   7.009   0.554  1.3530 -0.3343  2.0069
  316MOL0     H42656   7.301   6.837   0.436 -1.5932  0.7924 -1.4585
  316MOL0     H42657   7.220   6.805   0.597 -0.7811 -0.2316 -0.2556
  316MOL0     H42658   7.501   7.139   0.610 -0.1836  1.9108 -2.7975
  316MOL0     H42659   6.779   7.284   0.578 -1.0769 -0.5423  0.7657
  316MOL0     H42660   6.548   7.347   0.540  2.3485  1.1417  1.0523
  317MOL0     O42661   5.491   9.997   9.468 -0.5979 -0.2834  1.0246
  317MOL0     C42662   5.474   9.994   9.340 -0.6349  0.8817 -1.0409
  317MOL0     O42663   5.354  10.021   9.272  0.0837  0.1487  0.2841
  317MOL0     C42664   5.238  10.047   9.343 -0.2641  0.0538 -0.0758
  317MOL0     C42665   5.233  10.143   9.446  0.0933 -0.1726 -0.1228
  317MOL0     C42666   5.106  10.175   9.504 -0.4253  0.1936  0.5391
  317MOL0     C42667   4.989  10.110   9.473 -0.5608  0.2811 -0.0127
  317MOL0     O42668   4.870  10.142   9.547  0.3875 -0.5767 -0.7548
  317MOL0     C42669   4.747  10.132   9.467  0.0381 -0.9243 -0.0956
  317MOL0     C42670   4.624  10.208   9.534 -0.5667  0.4749  0.3038
  317MOL0     C42671   4.549  10.134   9.644 -0.3678  0.1775 -0.7104
  317MOL0     C42672   4.402  10.184   9.645 -0.1917  0.1447  0.5394
  317MOL0     C42673   4.307  10.090   9.721  0.0323 -0.6040 -0.6005
  317MOL0     C42674   4.180  10.168   9.765  0.0225  0.0156  0.9087
  317MOL0     C42675   4.078  10.070   9.836 -0.5483 -0.0762 -0.1535
  317MOL0     C42676   3.939  10.127   9.841 -0.4408  0.1951 -0.1067
  317MOL0     N42677   3.874  10.111   9.710 -0.0951 -0.5885 -0.3060
  317MOL0     C42678   3.743  10.093   9.705  0.6641  0.0227  0.5645
  317MOL0     C42679   3.705  10.111   9.572 -0.0531  0.6213  0.9035
  317MOL0     C42680   3.566  10.093   9.518  0.3261 -0.4559 -0.3300
  317MOL0     C42681   3.542   9.960   9.438  0.6239  0.0913  0.0672
  317MOL0     C42682   3.633   9.930   9.323 -0.3571 -0.4548  0.6022
  317MOL0     C42683   3.602  10.033   9.206  0.1149 -0.7330  0.6907
  317MOL0     O42684   3.634   9.987   9.070  0.1422 -0.3732 -0.2568
  317MOL0     C42685   3.760  10.005   9.020 -0.6387 -0.1336 -0.5634
  317MOL0     C42686   3.769   9.972   8.885 -0.2954  0.1295 -0.1768
  317MOL0     C42687   3.890   9.988   8.815 -0.4400 -0.0370  0.6711
  317MOL0     C42688   3.877   9.941   8.673 -0.5295  0.1711 -0.2095
  317MOL0     C42689   3.999  10.048   8.880  0.0928  0.7543  0.0071
  317MOL0     C42690   4.140  10.087   8.821  1.5162  0.4731  0.6185
  317MOL0     O42691   4.218  10.171   8.894 -0.1870  0.0811  0.5671
  317MOL0     C42692   4.345  10.206   8.854  0.4847  0.1850 -0.3320
  317MOL0     C42693   4.438  10.113   8.804 -0.0151  0.6060  0.2940
  317MOL0     C42694   4.575  10.144   8.775  0.6703  0.0516  0.5266
  317MOL0     C42695   4.617  10.272   8.817 -0.9019 -0.3267  0.3038
  317MOL0     O42696   4.747  10.313   8.814  0.7354  0.0443 -1.1369
  317MOL0     C42697   4.783  10.397   8.702  0.7890 -0.4461 -0.6731
  317MOL0     C42698   4.839  10.525   8.753 -0.3057  0.0051  0.2266
  317MOL0     C42699   4.982  10.502   8.811  0.2610 -0.0689  0.1101
  317MOL0     C42700   5.090  10.509   8.702  0.4340  0.2869  0.1443
  317MOL0     C42701   5.221  10.445   8.756  0.4291 -0.0407 -0.2729
  317MOL0     C42702   5.328  10.422   8.648  0.6120 -0.6546 -0.3583
  317MOL0     C42703   5.401  10.545   8.609 -1.1932  0.1320  0.2839
  317MOL0     C42704   5.521  10.500   8.524 -0.5368 -0.7237 -0.0769
  317MOL0    Cl42705   5.609  10.659   8.485 -0.0758 -0.2768 -0.0631
  317MOL0     C42706   4.523  10.366   8.871  0.2215  0.0648 -0.2767
  317MOL0     C42707   4.384  10.331   8.884  0.1146  1.1007  1.1367
  317MOL0     O42708   4.172  10.019   8.728  0.2197  0.1941  0.0090
  317MOL0     C42709   3.987  10.077   9.018 -0.0993  0.3402 -0.8765
  317MOL0     C42710   3.872  10.046   9.091  0.0713  0.4156  0.2353
  317MOL0     N42711   3.824  10.156   9.506 -0.1655 -0.5887  0.0293
  317MOL0     N42712   3.920  10.137   9.589 -0.1992  1.1805  0.1938
  317MOL0     C42713   4.997  10.018   9.364 -0.2716 -0.1582 -0.7028
  317MOL0     C42714   5.117   9.990   9.302  0.1507 -0.6006  0.5144
  317MOL0     C42715   5.593   9.957   9.260  0.8574  0.4941  0.0495
  317MOL0     C42716   5.716   9.916   9.307 -0.6697 -0.9762 -1.3364
  317MOL0     C42717   5.820   9.870   9.231  0.2113 -0.3027  0.3929
  317MOL0     C42718   5.796   9.831   9.100  1.4343 -0.5135 -0.1266
  317MOL0     O42719   5.888   9.751   9.047  0.4021  0.2800 -0.0731
  317MOL0     C42720   5.871   9.696   8.919  0.7391  0.1273  0.3955
  317MOL0     C42721   6.014   9.657   8.860 -0.2580 -0.4335 -0.0552
  317MOL0     C42722   6.091   9.789   8.823 -0.1203  0.3286 -0.0264
  317MOL0     C42723   6.230   9.774   8.756 -0.0984  0.4869 -0.3492
  317MOL0     C42724   6.307   9.657   8.799 -0.6235 -0.2190 -1.1463
  317MOL0     C42725   6.369   9.561   8.837 -0.4220  0.4456  0.3140
  317MOL0     C42726   5.671   9.864   9.041 -0.0285 -0.1784  0.0729
  317MOL0     C42727   5.575   9.923   9.128 -0.9895  0.3324  0.9020
  317MOL0     H42728   5.323  10.203   9.457  0.0311  0.3899 -2.2166
  317MOL0     H42729   5.104  10.247   9.585  2.4016 -0.3503  1.2168
  317MOL0     H42730   4.772  10.194   9.381  1.3545 -2.1653 -0.6394
  317MOL0     H42731   4.717  10.031   9.439 -1.4472 -0.1357 -1.5383
  317MOL0     H42732   4.670  10.293   9.583  1.6483  0.5231 -1.6536
  317MOL0     H42733   4.555  10.251   9.461 -1.6091  1.7161  1.9556
  317MOL0     H42734   4.558  10.029   9.615 -0.1899 -0.4273  1.3581
  317MOL0     H42735   4.594  10.144   9.743  1.0606  3.1335 -1.5248
  317MOL0     H42736   4.405  10.281   9.695 -3.6795 -0.1031  1.5144
  317MOL0     H42737   4.360  10.195   9.545  1.5453 -0.5625 -0.3030
  317MOL0     H42738   4.278  10.014   9.648  1.4688 -0.2481 -1.5987
  317MOL0     H42739   4.347  10.059   9.818 -1.0744  1.5640  0.6341
  317MOL0     H42740   4.224  10.245   9.830  3.3907  0.4253 -1.5709
  317MOL0     H42741   4.140  10.214   9.675 -2.6670  0.9362  2.4398
  317MOL0     H42742   4.069   9.977   9.778  2.4501 -1.1218  0.8357
  317MOL0     H42743   4.110  10.035   9.935  1.3915  0.2729 -0.6162
  317MOL0     H42744   3.941  10.224   9.891  1.2791 -0.2933  0.8694
  317MOL0     H42745   3.888  10.065   9.915  1.3961 -2.0518 -0.5944
  317MOL0     H42746   3.675  10.059   9.782 -0.1993 -1.3410 -0.7231
  317MOL0     H42747   3.488  10.092   9.594  0.7867  1.0027  0.1961
  317MOL0     H42748   3.546  10.185   9.463  0.7404  1.0719  1.9162
  317MOL0     H42749   3.437   9.941   9.413  0.4762 -0.7666  1.2248
  317MOL0     H42750   3.571   9.873   9.499  1.0662 -0.7896 -1.3364
  317MOL0     H42751   3.630   9.826   9.289  0.3621 -0.9671  2.0336
  317MOL0     H42752   3.734   9.954   9.357 -1.7197  0.8696  4.1050
  317MOL0     H42753   3.647  10.130   9.229  0.0775 -0.4377 -0.4144
  317MOL0     H42754   3.496  10.058   9.212  0.8198  2.2385  4.6833
  317MOL0     H42755   3.679   9.930   8.840  0.4938  0.4786 -2.1952
  317MOL0     H42756   3.962   9.966   8.609  0.7896  0.0326  1.4223
  317MOL0     H42757   3.856   9.834   8.668 -3.3529  0.1796  4.7183
  317MOL0     H42758   3.792   9.990   8.625 -1.2073 -1.2777 -0.5367
  317MOL0     H42759   4.405  10.013   8.781 -1.6484  1.2579 -0.3221
  317MOL0     H42760   4.640  10.064   8.740 -0.5507 -0.1969 -1.3571
  317MOL0     H42761   4.851  10.338   8.641  4.4614  0.5940  2.0430
  317MOL0     H42762   4.692  10.430   8.652 -0.0516  1.6745  1.9691
  317MOL0     H42763   4.835  10.594   8.668 -1.9417 -1.0678 -0.5954
  317MOL0     H42764   4.768  10.554   8.831  0.6922 -2.6929  2.3044
  317MOL0     H42765   4.995  10.408   8.866  0.4014 -0.9842 -1.4378
  317MOL0     H42766   5.001  10.587   8.878  0.4787  0.9777 -1.2410
  317MOL0     H42767   5.055  10.450   8.617  3.2236  0.4938 -1.2760
  317MOL0     H42768   5.111  10.611   8.667  2.1278  0.1088  0.5404
  317MOL0     H42769   5.201  10.342   8.785  2.5893 -0.7231 -1.0515
  317MOL0     H42770   5.251  10.496   8.848 -1.1628 -1.6869  1.2430
  317MOL0     H42771   5.403  10.355   8.691  2.2496  2.2608  1.6877
  317MOL0     H42772   5.275  10.393   8.557 -0.1965  1.9503 -0.7927
  317MOL0     H42773   5.430  10.593   8.703 -0.3092  1.6042 -0.7114
  317MOL0     H42774   5.338  10.613   8.552  0.3297  1.5119  0.1791
  317MOL0     H42775   5.476  10.469   8.429 -0.7341  0.5005 -0.3962
  317MOL0     H42776   5.583  10.420   8.566 -1.0689 -1.8814 -1.4079
  317MOL0     H42777   4.560  10.465   8.898  0.8781  0.1309 -1.3524
  317MOL0     H42778   4.309  10.398   8.925  1.1514  1.0201  3.2780
  317MOL0     H42779   4.065  10.110   9.085 -1.5435  1.0850  0.5168
  317MOL0     H42780   3.868  10.063   9.198  1.7718 -0.4346  0.4696
  317MOL0     H42781   4.915   9.964   9.317  0.8806 -1.3707 -1.3917
  317MOL0     H42782   5.124   9.929   9.212 -2.5416  0.3459 -0.4335
  317MOL0     H42783   5.743   9.951   9.406  0.6672 -0.3788 -1.8871
  317MOL0     H42784   5.917   9.861   9.279  1.1460 -0.5041 -1.4607
  317MOL0     H42785   5.812   9.606   8.938 -1.6204  1.7593  1.2186
  317MOL0     H42786   5.812   9.754   8.846  3.2205  2.5283  0.1419
  317MOL0     H42787   6.005   9.587   8.777 -1.1593  1.1673 -1.3830
  317MOL0     H42788   6.078   9.607   8.933  1.1861 -2.0068 -2.2663
  317MOL0     H42789   6.108   9.840   8.918 -3.4732  3.2331 -0.7714
  317MOL0     H42790   6.021   9.852   8.767 -1.0661 -0.1094  0.6169
  317MOL0     H42791   6.291   9.863   8.773 -0.3517  0.5044  0.5016
  317MOL0     H42792   6.218   9.753   8.649  1.4741  0.1462 -0.4897
  317MOL0     H42793   6.425   9.473   8.859 -2.9352 -1.8466 -1.7658
  317MOL0     H42794   5.644   9.847   8.937 -2.0217  2.1853  0.1093
  317MOL0     H42795   5.474   9.938   9.089 -0.7693  2.6840  1.0651
  318MOL0     O42796   8.399   7.499   6.067  0.0857  0.2121 -0.2507
  318MOL0     C42797   8.358   7.388   6.093  0.4183 -0.2519  0.8093
  318MOL0     O42798   8.301   7.295   6.007  0.1997 -0.0684 -0.2707
  318MOL0     C42799   8.288   7.339   5.877 -0.3803  0.2682 -0.8211
  318MOL0     C42800   8.366   7.268   5.783 -0.8529 -0.2354 -0.2278
  318MOL0     C42801   8.365   7.319   5.651 -0.3219 -0.0133  0.1188
  318MOL0     C42802   8.279   7.425   5.612  0.3815 -0.5714  0.0673
  318MOL0     O42803   8.284   7.464   5.482  0.1522 -0.0295  0.1062
  318MOL0     C42804   8.279   7.367   5.383  0.3943  0.0382 -0.3521
  318MOL0     C42805   8.393   7.391   5.291  0.4723  0.3559 -0.2525
  318MOL0     C42806   8.381   7.317   5.161  0.3912 -0.5006  0.3552
  318MOL0     C42807   8.277   7.369   5.060 -0.2179 -0.5246  0.3678
  318MOL0     C42808   8.264   7.272   4.943  0.3828  0.0667 -0.7156
  318MOL0     C42809   8.143   7.306   4.853 -0.5922 -0.2439  0.8373
  318MOL0     C42810   8.165   7.419   4.758  0.2165  0.1609 -0.3795
  318MOL0     C42811   8.061   7.411   4.642  0.2036 -0.1081  0.2236
  318MOL0     N42812   8.046   7.538   4.578  0.2110  0.4994  0.5913
  318MOL0     C42813   8.132   7.580   4.479  0.0623  0.7484 -0.2368
  318MOL0     C42814   8.075   7.696   4.432  0.0987 -0.4327  0.5587
  318MOL0     C42815   8.146   7.797   4.351  0.5730  0.0882 -0.1038
  318MOL0     C42816   8.131   7.771   4.201  0.0960  0.2915  0.2240
  318MOL0     C42817   8.162   7.876   4.093 -0.6365 -0.1248  0.4267
  318MOL0     C42818   8.044   7.977   4.068 -0.9090 -1.0721  0.1573
  318MOL0     O42819   7.928   7.906   4.028  0.4433  0.7791 -0.7947
  318MOL0     C42820   7.827   7.973   3.954  0.2522 -0.8981  0.4782
  318MOL0     C42821   7.793   8.110   3.984 -0.8284  0.4159 -0.5232
  318MOL0     C42822   7.691   8.168   3.928 -1.3822  0.4374  0.2580
  318MOL0     C42823   7.675   8.318   3.949 -0.6244  0.5623  0.0825
  318MOL0     C42824   7.610   8.088   3.833  0.3786  0.3036 -0.4937
  318MOL0     C42825   7.480   8.140   3.764  0.6160  1.2076 -1.1590
  318MOL0     O42826   7.466   8.276   3.744 -0.2308 -0.4586  0.3381
  318MOL0     C42827   7.344   8.342   3.760 -0.0470 -0.8250  0.0147
  318MOL0     C42828   7.220   8.302   3.701 -0.4888 -1.3069  0.1414
  318MOL0     C42829   7.095   8.362   3.739 -0.4319  0.4280  0.6821
  318MOL0     C42830   7.095   8.474   3.830 -0.6930  0.1836 -0.4052
  318MOL0     O42831   6.971   8.527   3.852  0.0878 -0.4879 -0.0658
  318MOL0     C42832   6.950   8.633   3.949 -0.5865  0.3513  0.2373
  318MOL0     C42833   6.808   8.689   3.943  0.3056 -0.6712  0.1698
  318MOL0     C42834   6.701   8.587   3.973 -0.4689  0.6930 -0.0991
  318MOL0     C42835   6.555   8.650   3.979 -0.9646  0.3205 -0.6431
  318MOL0     C42836   6.435   8.564   4.010 -0.6498 -0.6439  0.3405
  318MOL0     C42837   6.385   8.484   3.891 -0.3530 -0.1523  0.1215
  318MOL0     C42838   6.254   8.402   3.927  0.4830 -0.0404  0.6844
  318MOL0     C42839   6.281   8.275   4.018 -0.5366 -0.4646 -1.2706
  318MOL0    Cl42840   6.175   8.150   3.966 -0.1768  0.5757  0.4901
  318MOL0     C42841   7.219   8.515   3.883 -0.2283  0.0897  0.7605
  318MOL0     C42842   7.337   8.451   3.843 -0.1617  0.7122  0.3293
  318MOL0     O42843   7.408   8.060   3.703 -0.4897  0.6652 -0.8647
  318MOL0     C42844   7.634   7.949   3.821  0.0961  0.4151  0.5715
  318MOL0     C42845   7.740   7.888   3.879  0.1974  0.1553 -0.1228
  318MOL0     N42846   7.947   7.710   4.489  0.0189 -0.2544  0.2907
  318MOL0     N42847   7.937   7.621   4.582  0.0814 -0.2709 -0.1126
  318MOL0     C42848   8.205   7.494   5.709  0.4099 -0.4235 -0.5787
  318MOL0     C42849   8.208   7.447   5.842 -0.3242  1.0640  1.0871
  318MOL0     C42850   8.387   7.344   6.228  0.3712  0.1377  0.7803
  318MOL0     C42851   8.472   7.408   6.323  0.6809 -0.2616  0.2381
  318MOL0     C42852   8.502   7.361   6.452  0.2584 -0.2375  0.1409
  318MOL0     C42853   8.446   7.242   6.491 -1.1076 -0.3013  0.1569
  318MOL0     O42854   8.463   7.199   6.619 -0.5642 -0.5289 -0.3095
  318MOL0     C42855   8.553   7.087   6.640  0.3587 -1.2910  0.9667
  318MOL0     C42856   8.616   7.077   6.786  0.5554 -0.5031  0.5874
  318MOL0     C42857   8.759   7.032   6.801 -0.0021  0.1444  0.0405
  318MOL0     C42858   8.771   6.893   6.735  0.2320 -0.3127  0.4217
  318MOL0     C42859   8.896   6.820   6.768 -0.3994  0.8146 -0.0224
  318MOL0     C42860   9.002   6.769   6.800 -0.4538  0.3995 -0.2562
  318MOL0     C42861   8.375   7.164   6.399 -0.4546  0.7254  0.6312
  318MOL0     C42862   8.344   7.214   6.270  0.3316 -0.8701 -0.3991
  318MOL0     H42863   8.427   7.187   5.821 -0.7167 -0.0215  0.0130
  318MOL0     H42864   8.432   7.268   5.582 -1.7820  0.2648 -1.5885
  318MOL0     H42865   8.279   7.262   5.415 -1.1624 -0.3829 -1.5950
  318MOL0     H42866   8.188   7.373   5.323  0.2742  1.3983 -0.0660
  318MOL0     H42867   8.404   7.499   5.278  3.1035  0.4225  1.6326
  318MOL0     H42868   8.486   7.364   5.342 -1.4931 -3.8808  1.5941
  318MOL0     H42869   8.482   7.327   5.121  0.9711 -3.0290  1.0352
  318MOL0     H42870   8.357   7.214   5.188 -0.2288  0.0745  2.2268
  318MOL0     H42871   8.177   7.374   5.104 -0.2304 -0.9723  0.3926
  318MOL0     H42872   8.291   7.477   5.043 -1.8211 -0.3160  0.2518
  318MOL0     H42873   8.355   7.268   4.884  2.8495  3.3794  2.4276
  318MOL0     H42874   8.256   7.168   4.978 -1.2304 -0.2439 -1.8857
  318MOL0     H42875   8.125   7.209   4.806  2.8483 -1.8636  2.5145
  318MOL0     H42876   8.070   7.345   4.925  0.3157  0.6253  1.3057
  318MOL0     H42877   8.150   7.518   4.804  1.4250  0.2805 -0.2144
  318MOL0     H42878   8.267   7.421   4.719  0.8660 -1.5234  1.1133
  318MOL0     H42879   7.961   7.387   4.677  1.1096  0.4365  3.4792
  318MOL0     H42880   8.077   7.327   4.574 -0.7447  0.3049 -0.5275
  318MOL0     H42881   8.234   7.550   4.458  0.3464  2.5849 -1.7503
  318MOL0     H42882   8.084   7.887   4.360  0.0556  0.1898 -3.4322
  318MOL0     H42883   8.245   7.814   4.394 -0.0729  0.0893  1.4415
  318MOL0     H42884   8.033   7.727   4.182  1.2050 -2.2890  0.0222
  318MOL0     H42885   8.193   7.683   4.179 -1.6660 -1.0591  0.4393
  318MOL0     H42886   8.168   7.828   3.995 -0.9251  4.8725 -2.3631
  318MOL0     H42887   8.255   7.924   4.127  0.2034 -1.6636  0.4067
  318MOL0     H42888   8.070   8.045   3.987  2.1560 -1.5489  0.5776
  318MOL0     H42889   8.032   8.028   4.164 -0.6982 -0.4922 -0.1222
  318MOL0     H42890   7.850   8.160   4.062 -0.2546  0.5087 -0.9937
  318MOL0     H42891   7.637   8.383   3.870  0.5286  2.0128  0.6752
  318MOL0     H42892   7.619   8.336   4.042 -0.9014  1.5830 -0.2656
  318MOL0     H42893   7.774   8.363   3.958 -0.6328  0.8879 -1.3231
  318MOL0     H42894   7.217   8.224   3.625  1.2956 -0.0698 -1.2695
  318MOL0     H42895   7.007   8.313   3.699  0.4601 -3.8677  3.3780
  318MOL0     H42896   6.967   8.597   4.051  0.7102 -0.6911 -0.3326
  318MOL0     H42897   7.010   8.721   3.926 -2.9709  1.5341 -1.9932
  318MOL0     H42898   6.793   8.775   4.009  2.5284  1.2073 -1.6062
  318MOL0     H42899   6.796   8.731   3.843  0.9000 -0.2335  0.2754
  318MOL0     H42900   6.725   8.535   4.065 -0.0643  0.7486 -0.1736
  318MOL0     H42901   6.701   8.526   3.882 -2.7716  1.3464 -0.6065
  318MOL0     H42902   6.559   8.724   4.060  1.7156 -1.9090  1.4555
  318MOL0     H42903   6.541   8.710   3.889  0.0226 -0.2715 -1.2167
  318MOL0     H42904   6.358   8.636   4.038 -0.6695 -1.0713  1.4398
  318MOL0     H42905   6.456   8.501   4.097  3.3672  1.5428  1.1980
  318MOL0     H42906   6.369   8.554   3.809  4.0669  1.3836  0.3220
  318MOL0     H42907   6.468   8.415   3.871  0.6902  0.6864  1.4022
  318MOL0     H42908   6.199   8.362   3.841 -0.9409  1.0094  1.0758
  318MOL0     H42909   6.181   8.460   3.984 -0.6946  0.2350 -1.0122
  318MOL0     H42910   6.261   8.292   4.124 -1.6803 -4.4063 -0.6943
  318MOL0     H42911   6.380   8.231   4.006  0.2407  0.4844  1.1257
  318MOL0     H42912   7.216   8.594   3.958 -1.1145  1.2275 -0.4405
  318MOL0     H42913   7.433   8.472   3.890 -1.1182  0.7716  2.3349
  318MOL0     H42914   7.574   7.885   3.756  2.2000 -1.6457  0.4997
  318MOL0     H42915   7.759   7.782   3.879  0.6142  0.1770  2.0428
  318MOL0     H42916   8.151   7.585   5.685 -0.6075  0.1956  3.3391
  318MOL0     H42917   8.156   7.494   5.925  0.9591 -0.3857  2.7890
  318MOL0     H42918   8.518   7.506   6.311 -1.2424  0.8846  1.7043
  318MOL0     H42919   8.572   7.413   6.516  0.4509 -0.1472 -0.1431
  318MOL0     H42920   8.490   6.999   6.623 -3.6989  1.3037  1.2591
  318MOL0     H42921   8.631   7.102   6.565  0.2203  0.4940  1.1248
  318MOL0     H42922   8.550   7.009   6.841 -2.4616  0.6063 -1.4037
  318MOL0     H42923   8.592   7.172   6.835 -0.0076 -0.4692  0.2582
  318MOL0     H42924   8.802   7.030   6.901  0.5086  1.4669 -0.1253
  318MOL0     H42925   8.829   7.095   6.744 -2.0491  2.5037 -0.0597
  318MOL0     H42926   8.760   6.899   6.626 -0.5085  0.9553  0.5587
  318MOL0     H42927   8.695   6.818   6.759  1.3270 -1.6123 -0.0328
  318MOL0     H42928   9.095   6.726   6.828 -0.8567 -1.7495 -1.9977
  318MOL0     H42929   8.330   7.072   6.435  0.1500  0.4596  0.7234
  318MOL0     H42930   8.273   7.153   6.217 -1.7310 -0.0328  1.2501
  319MOL0     O42931   1.816   7.770   5.068  0.6851  0.3281 -0.6289
  319MOL0     C42932   1.920   7.808   5.028  0.5308 -0.4667 -0.2714
  319MOL0     O42933   1.942   7.929   4.970  0.4162 -0.3857  0.5233
  319MOL0     C42934   1.842   8.018   4.939  1.0987 -0.5664  0.2156
  319MOL0     C42935   1.727   8.051   5.017  0.4868 -0.0297 -0.1160
  319MOL0     C42936   1.647   8.157   4.982  0.9693 -0.3483 -0.1715
  319MOL0     C42937   1.657   8.231   4.865 -0.0796 -0.2512  0.2553
  319MOL0     O42938   1.576   8.328   4.807  0.2064 -0.3454 -0.6886
  319MOL0     C42939   1.454   8.373   4.881 -0.8320  0.6178  0.2995
  319MOL0     C42940   1.389   8.490   4.810 -0.9293  0.0675 -0.7378
  319MOL0     C42941   1.344   8.459   4.666  0.3118 -0.3042  0.3981
  319MOL0     C42942   1.197   8.457   4.648  0.6597  0.8157 -0.3123
  319MOL0     C42943   1.166   8.560   4.540 -0.2323 -0.4821  0.4810
  319MOL0     C42944   1.017   8.573   4.515 -0.8358  0.3253 -1.0586
  319MOL0     C42945   0.959   8.449   4.457 -0.3130 -0.0509  0.9246
  319MOL0     C42946   0.815   8.477   4.433 -0.2237 -0.6693  0.7235
  319MOL0     N42947   0.728   8.366   4.381 -0.3324 -0.7757  0.7438
  319MOL0     C42948   0.756   8.276   4.275 -0.4448  0.4835 -0.0574
  319MOL0     C42949   0.634   8.220   4.251  0.5357 -1.0732  0.5322
  319MOL0     C42950   0.612   8.106   4.162 -0.0604  0.1681  0.0065
  319MOL0     C42951   0.642   8.119   4.011 -0.4511  0.3995  0.4895
  319MOL0     C42952   0.633   8.001   3.912 -0.3172  0.4769 -0.1963
  319MOL0     C42953   0.703   8.039   3.789  0.7413 -0.2170 -0.1410
  319MOL0     O42954   0.681   7.950   3.675  0.1053  1.0941  0.1751
  319MOL0     C42955   0.557   7.957   3.608 -0.1366  0.6738 -1.0668
  319MOL0     C42956   0.450   8.044   3.641 -1.5754 -0.0233  0.1141
  319MOL0     C42957   0.330   8.035   3.568  0.1062 -0.4604 -0.2200
  319MOL0     C42958   0.216   8.123   3.618  0.2673  0.1330 -0.0107
  319MOL0     C42959   0.317   7.942   3.464 -0.0407 -0.2383 -0.0946
  319MOL0     C42960   0.180   7.905   3.395  0.6991 -0.6622  0.6240
  319MOL0     O42961   0.075   7.979   3.429  0.5656 -1.0245  0.0030
  319MOL0     C42962  -0.052   7.966   3.377  0.6325  0.4603 -1.0677
  319MOL0     C42963  -0.154   8.036   3.448 -0.4467  0.3395 -0.0661
  319MOL0     C42964  -0.286   8.043   3.401 -0.0582  0.0144 -0.4879
  319MOL0     C42965  -0.323   7.984   3.281  0.2054 -0.5981 -0.2490
  319MOL0     O42966  -0.463   7.978   3.255 -0.1135 -0.1345 -0.2228
  319MOL0     C42967  -0.497   7.845   3.230 -0.3306  0.8831 -0.5118
  319MOL0     C42968  -0.652   7.820   3.232  0.3120  0.3347 -0.4168
  319MOL0     C42969  -0.726   7.870   3.103 -0.3078  0.5107  0.2053
  319MOL0     C42970  -0.885   7.868   3.120 -0.2152 -0.3414  0.0166
  319MOL0     C42971  -0.959   7.972   3.044 -0.7335  0.5002 -0.0411
  319MOL0     C42972  -0.974   7.914   2.901 -0.4800 -1.5675  1.1189
  319MOL0     C42973  -1.038   8.012   2.804 -0.5016 -0.2807 -0.1735
  319MOL0     C42974  -1.143   8.099   2.871 -0.2060 -0.4396  0.8546
  319MOL0    Cl42975  -1.238   8.194   2.746 -0.2408  0.0408 -0.3257
  319MOL0     C42976  -0.219   7.925   3.201 -0.2840 -0.8719 -0.6026
  319MOL0     C42977  -0.089   7.913   3.250  0.0600  0.5621  0.0489
  319MOL0     O42978   0.182   7.803   3.321 -0.2513 -0.3273  0.0286
  319MOL0     C42979   0.429   7.867   3.426 -0.3428  0.3493 -0.0666
  319MOL0     C42980   0.547   7.874   3.492 -0.1464  0.9716 -0.2593
  319MOL0     N42981   0.537   8.280   4.329  0.4598  0.2298  0.4728
  319MOL0     N42982   0.588   8.364   4.413 -0.1582 -0.2487  0.9912
  319MOL0     C42983   1.765   8.196   4.781 -0.1183 -0.7114 -0.7367
  319MOL0     C42984   1.860   8.105   4.830  0.1193 -0.2764  0.4469
  319MOL0     C42985   2.039   7.730   5.044 -0.9685 -0.3026 -0.9371
  319MOL0     C42986   2.158   7.776   4.989  0.1901 -0.1255 -0.4895
  319MOL0     C42987   2.276   7.701   5.016  1.1415  1.0240  0.0954
  319MOL0     C42988   2.274   7.587   5.089  0.5378 -0.2739 -0.8099
  319MOL0     O42989   2.396   7.536   5.118  0.3395  0.2472  0.0416
  319MOL0     C42990   2.417   7.409   5.178 -0.8206  0.5040  0.0894
  319MOL0     C42991   2.538   7.358   5.104 -0.1512  0.3307  0.0891
  319MOL0     C42992   2.520   7.329   4.946  0.2852 -0.0618  0.1400
  319MOL0     C42993   2.449   7.195   4.921  0.4390  0.5783 -0.6340
  319MOL0     C42994   2.304   7.202   4.960  0.4282 -0.7733 -0.0269
  319MOL0     C42995   2.186   7.192   5.003 -0.6010  0.6177  0.6097
  319MOL0     C42996   2.151   7.531   5.149  0.5399  0.0859  0.8151
  319MOL0     C42997   2.031   7.605   5.125 -0.5952  0.9502 -1.7222
  319MOL0     H42998   1.714   8.007   5.116  0.1791  1.1551  0.3842
  319MOL0     H42999   1.566   8.169   5.052 -0.3910  0.4805 -1.8167
  319MOL0     H43000   1.385   8.290   4.898  0.1819 -0.4717 -0.7287
  319MOL0     H43001   1.490   8.404   4.980 -0.4369 -1.3336  0.7987
  319MOL0     H43002   1.297   8.526   4.857  0.9234  2.5237  1.3028
  319MOL0     H43003   1.462   8.570   4.823 -1.4702  0.2423  1.8931
  319MOL0     H43004   1.391   8.535   4.604 -1.7519  2.2761  1.8238
  319MOL0     H43005   1.384   8.364   4.628  0.7537 -0.5410  1.4135
  319MOL0     H43006   1.171   8.357   4.612  1.5496  0.6038 -0.3887
  319MOL0     H43007   1.130   8.473   4.733 -0.6291 -1.5468 -0.7842
  319MOL0     H43008   1.199   8.655   4.584  0.8369 -0.9849  0.7954
  319MOL0     H43009   1.217   8.549   4.444 -0.8491  0.6153  0.0056
  319MOL0     H43010   0.976   8.611   4.609  1.4733 -0.1168  0.1798
  319MOL0     H43011   1.000   8.660   4.450  2.4382  1.4072 -0.6391
  319MOL0     H43012   1.011   8.411   4.369 -0.8124 -1.5504  1.2546
  319MOL0     H43013   0.971   8.373   4.534 -4.2228 -1.2870  0.5339
  319MOL0     H43014   0.810   8.556   4.357 -0.7160 -1.8674 -0.5302
  319MOL0     H43015   0.774   8.519   4.526 -0.2937  2.4646 -0.5850
  319MOL0     H43016   0.853   8.244   4.238  0.3479  0.9464  1.5441
  319MOL0     H43017   0.673   8.023   4.198  0.7200  0.4287 -0.6989
  319MOL0     H43018   0.509   8.072   4.183  1.1268 -2.4030  2.3580
  319MOL0     H43019   0.724   8.185   3.979 -1.7096  1.0861 -1.5286
  319MOL0     H43020   0.564   8.183   3.969 -2.0873 -1.3502  0.7282
  319MOL0     H43021   0.527   7.977   3.900 -0.6303  0.5381  2.0292
  319MOL0     H43022   0.684   7.918   3.963  0.9471  0.7058 -1.0394
  319MOL0     H43023   0.810   8.047   3.811  0.2189  2.3908  2.0576
  319MOL0     H43024   0.682   8.146   3.775  2.6805  0.0587 -1.3523
  319MOL0     H43025   0.461   8.108   3.728  1.3818 -2.2651  1.5867
  319MOL0     H43026   0.172   8.184   3.539  0.4112  0.2969  0.0344
  319MOL0     H43027   0.145   8.063   3.675 -0.9018 -1.3071 -2.7992
  319MOL0     H43028   0.259   8.198   3.686 -0.1013  0.1732  0.1795
  319MOL0     H43029  -0.132   8.083   3.542  0.3558  0.8960 -0.5233
  319MOL0     H43030  -0.362   8.087   3.464 -0.1591 -2.8666  1.5937
  319MOL0     H43031  -0.453   7.805   3.138 -0.7509 -2.6145  0.6550
  319MOL0     H43032  -0.453   7.772   3.298  0.8897  0.3037 -1.8666
  319MOL0     H43033  -0.666   7.711   3.229  0.9509  0.1735  1.3056
  319MOL0     H43034  -0.696   7.856   3.325  2.8032  0.6305  0.7134
  319MOL0     H43035  -0.696   7.805   3.021 -0.7096  1.4526 -0.7179
  319MOL0     H43036  -0.680   7.966   3.076 -0.4153  0.6906  0.6385
  319MOL0     H43037  -0.925   7.768   3.101 -1.1518 -0.1113  0.7045
  319MOL0     H43038  -0.905   7.888   3.226  1.7074  0.5943  0.2536
  319MOL0     H43039  -0.893   8.059   3.041  0.2288 -0.2431 -1.1328
  319MOL0     H43040  -1.054   8.005   3.087 -0.3540  4.3826 -1.8389
  319MOL0     H43041  -0.875   7.899   2.858  0.9931  2.2971  2.6379
  319MOL0     H43042  -1.030   7.822   2.918  0.4910 -1.9996  2.1442
  319MOL0     H43043  -1.084   7.957   2.722 -0.5210 -2.5690  1.2760
  319MOL0     H43044  -0.961   8.080   2.767 -1.5761 -0.1653 -2.3124
  319MOL0     H43045  -1.106   8.159   2.955 -0.9707 -1.1475  1.7187
  319MOL0     H43046  -1.216   8.031   2.915  1.1386 -3.8047 -1.7335
  319MOL0     H43047  -0.228   7.877   3.103 -0.2505 -1.9798 -0.0829
  319MOL0     H43048  -0.008   7.872   3.191  1.5054  2.9864  0.2016
  319MOL0     H43049   0.415   7.818   3.330 -0.0312  1.2851 -0.5996
  319MOL0     H43050   0.615   7.796   3.459 -2.2085 -1.1215  0.1354
  319MOL0     H43051   1.791   8.251   4.691 -0.7664 -0.1283 -0.5722
  319MOL0     H43052   1.954   8.083   4.780  0.5593  0.4955  0.9206
  319MOL0     H43053   2.171   7.871   4.937 -0.8862  0.6871  0.6520
  319MOL0     H43054   2.364   7.750   4.977  3.1341  0.6620  3.7337
  319MOL0     H43055   2.440   7.413   5.285 -1.0044 -0.9123  0.1973
  319MOL0     H43056   2.337   7.336   5.167  0.9819 -1.5083 -0.3019
  319MOL0     H43057   2.582   7.273   5.156  1.6508  1.6525  0.8326
  319MOL0     H43058   2.618   7.431   5.123  0.8830 -0.1443 -2.0558
  319MOL0     H43059   2.616   7.324   4.894  0.2017  1.0547 -0.1482
  319MOL0     H43060   2.476   7.418   4.901  0.0969  1.2214  2.6714
  319MOL0     H43061   2.497   7.111   4.971  0.3804  0.2302 -1.1538
  319MOL0     H43062   2.471   7.179   4.815  4.2262 -2.0292  0.3218
  319MOL0     H43063   2.086   7.188   5.040 -0.4423 -1.9968  0.9358
  319MOL0     H43064   2.148   7.446   5.217 -0.2117 -0.9890 -0.5204
  319MOL0     H43065   1.931   7.577   5.158 -1.4796  0.1847 -4.7318
  320MOL0     O43066   6.637   1.080   3.179  1.0209 -0.0480 -0.7423
  320MOL0     C43067   6.546   1.062   3.256  1.0259 -0.4282 -0.5870
  320MOL0     O43068   6.537   0.958   3.346 -0.3658 -0.1415  0.1429
  320MOL0     C43069   6.641   0.868   3.351 -0.1208 -0.7375  0.4260
  320MOL0     C43070   6.716   0.863   3.464  0.9154 -0.0452  0.1986
  320MOL0     C43071   6.823   0.772   3.469 -0.1095  0.5660  0.3599
  320MOL0     C43072   6.850   0.687   3.362  0.2372  0.8327  0.7270
  320MOL0     O43073   6.958   0.591   3.363 -0.0616 -0.2661  0.0186
  320MOL0     C43074   7.054   0.588   3.472 -0.2867  0.2618  0.5619
  320MOL0     C43075   6.992   0.502   3.595  0.6589 -0.8973  0.0477
  320MOL0     C43076   7.093   0.470   3.709  0.9664 -0.1731  0.3556
  320MOL0     C43077   7.199   0.369   3.677  0.0984 -0.5494  0.7189
  320MOL0     C43078   7.149   0.224   3.667 -0.7904  0.2670 -0.0993
  320MOL0     C43079   7.201   0.144   3.785 -0.3246  1.6284 -0.9231
  320MOL0     C43080   7.152  -0.002   3.754 -0.2081  1.8145  0.1133
  320MOL0     C43081   7.177  -0.102   3.875  0.6623 -0.0472 -0.2302
  320MOL0     N43082   7.128  -0.243   3.867  0.0624 -0.3891 -0.1727
  320MOL0     C43083   7.182  -0.349   3.813 -0.8402 -0.1109 -0.1889
  320MOL0     C43084   7.099  -0.448   3.817  0.8483  0.4335 -0.8073
  320MOL0     C43085   7.122  -0.581   3.761  0.0064 -0.0808 -0.7277
  320MOL0     C43086   7.136  -0.589   3.608 -0.2089  0.3137  0.7213
  320MOL0     C43087   7.027  -0.497   3.538  0.2289 -0.5899  0.0691
  320MOL0     C43088   6.883  -0.533   3.552  0.6226 -0.1732 -0.3037
  320MOL0     O43089   6.810  -0.410   3.528  0.3947 -0.3881 -0.3093
  320MOL0     C43090   6.691  -0.409   3.596  0.9719 -1.0269 -0.8193
  320MOL0     C43091   6.687  -0.360   3.727 -0.1727 -0.2265  0.5718
  320MOL0     C43092   6.556  -0.344   3.790  0.6788 -0.8538  0.1560
  320MOL0     C43093   6.546  -0.278   3.927  0.0964 -0.8809 -0.2034
  320MOL0     C43094   6.437  -0.376   3.719 -0.1162 -0.7130  0.3619
  320MOL0     C43095   6.296  -0.359   3.775  0.8324  0.2841  0.7408
  320MOL0     O43096   6.281  -0.377   3.910  0.3746 -0.4621 -0.5801
  320MOL0     C43097   6.148  -0.375   3.950  0.0321  0.3855 -0.4929
  320MOL0     C43098   6.119  -0.289   4.062  0.4463 -0.3240  0.3130
  320MOL0     C43099   5.991  -0.278   4.113  0.2883 -0.2212  0.1013
  320MOL0     C43100   5.892  -0.363   4.060 -1.0698  0.3898 -0.4119
  320MOL0     O43101   5.773  -0.386   4.124  0.0088  0.2544 -0.0091
  320MOL0     C43102   5.710  -0.266   4.179  0.3041 -0.2445 -0.4297
  320MOL0     C43103   5.700  -0.292   4.329  0.8003  0.2539  0.3343
  320MOL0     C43104   5.574  -0.223   4.373  1.0410 -0.1312 -0.4014
  320MOL0     C43105   5.442  -0.302   4.363 -0.4155 -0.7973  0.7653
  320MOL0     C43106   5.419  -0.410   4.474  0.4491  0.2420  0.4758
  320MOL0     C43107   5.275  -0.457   4.466 -0.7996  0.3056  0.4115
  320MOL0     C43108   5.238  -0.531   4.337  0.1729 -0.7635  0.0930
  320MOL0     C43109   5.087  -0.556   4.337 -0.1632  0.2259 -1.0273
  320MOL0    Cl43110   5.042  -0.680   4.465  0.0119 -0.1284 -0.0875
  320MOL0     C43111   5.923  -0.459   3.961  0.3316 -0.9886 -0.1088
  320MOL0     C43112   6.047  -0.461   3.910 -0.0251  0.7651 -0.5113
  320MOL0     O43113   6.205  -0.345   3.690 -0.3628  0.3484  0.4702
  320MOL0     C43114   6.450  -0.423   3.584  0.5724 -0.6260 -1.0742
  320MOL0     C43115   6.570  -0.429   3.528 -0.2941  0.9962  0.5232
  320MOL0     N43116   6.983  -0.401   3.884 -1.2308  0.3473 -0.0349
  320MOL0     N43117   7.000  -0.276   3.901 -0.1287 -0.8244 -1.0844
  320MOL0     C43118   6.780   0.706   3.240  0.4125 -0.0427  0.0973
  320MOL0     C43119   6.669   0.791   3.234  0.0577  1.6421 -0.5604
  320MOL0     C43120   6.439   1.162   3.263 -0.3455 -0.4072  0.4721
  320MOL0     C43121   6.308   1.131   3.299  0.6120  0.3106 -0.9443
  320MOL0     C43122   6.214   1.235   3.308  0.1401  0.9495 -0.3206
  320MOL0     C43123   6.238   1.373   3.272  0.1096  0.8332  0.3372
  320MOL0     O43124   6.150   1.472   3.277  0.6357  0.0186 -0.3179
  320MOL0     C43125   6.029   1.455   3.350  0.4016  0.7102 -0.2237
  320MOL0     C43126   5.937   1.574   3.336 -0.4815 -0.2283 -0.0444
  320MOL0     C43127   5.803   1.544   3.409  0.6931 -0.2983 -0.2970
  320MOL0     C43128   5.713   1.668   3.426 -0.0614 -0.0659 -0.9002
  320MOL0     C43129   5.584   1.631   3.482 -0.2389 -0.5296  0.2725
  320MOL0     C43130   5.478   1.632   3.540 -0.8905 -0.2078  1.7019
  320MOL0     C43131   6.368   1.401   3.229  0.3722  0.2780 -0.2898
  320MOL0     C43132   6.464   1.296   3.216 -1.0893 -0.5757  0.2625
  320MOL0     H43133   6.687   0.933   3.543 -0.1336  1.6108 -1.5637
  320MOL0     H43134   6.887   0.787   3.556 -0.5611 -0.4671  0.8825
  320MOL0     H43135   7.150   0.549   3.438 -0.4978  0.0039  0.2607
  320MOL0     H43136   7.082   0.691   3.495  0.5260  0.0134  0.6984
  320MOL0     H43137   6.912   0.564   3.637 -0.4504 -1.4225 -1.1978
  320MOL0     H43138   6.943   0.411   3.558 -3.7906 -0.2587  3.5458
  320MOL0     H43139   7.144   0.562   3.738  0.8973  0.9763 -2.7687
  320MOL0     H43140   7.040   0.433   3.797 -0.7867 -2.7725 -1.6174
  320MOL0     H43141   7.243   0.390   3.579  2.3088  1.7535  2.0825
  320MOL0     H43142   7.288   0.387   3.738  0.7329  3.1432 -1.0631
  320MOL0     H43143   7.041   0.210   3.650 -0.5717 -0.9618 -0.6236
  320MOL0     H43144   7.199   0.174   3.584 -0.6344 -1.3898  0.9399
  320MOL0     H43145   7.310   0.155   3.792 -0.1879  1.2331 -2.1372
  320MOL0     H43146   7.155   0.186   3.875  1.0142  0.1655  0.5101
  320MOL0     H43147   7.046  -0.017   3.729 -0.8693 -0.2891  3.5739
  320MOL0     H43148   7.200  -0.049   3.667 -0.1413 -0.1167  1.1416
  320MOL0     H43149   7.126  -0.057   3.961  1.5554  1.8876 -0.6603
  320MOL0     H43150   7.284  -0.104   3.897  0.1115 -1.8082  2.7311
  320MOL0     H43151   7.279  -0.335   3.765 -0.4184  3.8848  1.3749
  320MOL0     H43152   7.207  -0.629   3.812 -0.0676  1.5280  1.0147
  320MOL0     H43153   7.038  -0.643   3.793  0.7008 -1.4537 -1.4444
  320MOL0     H43154   7.129  -0.692   3.572  1.6842  0.6438 -0.7104
  320MOL0     H43155   7.237  -0.562   3.578  0.0258 -1.5059 -0.2600
  320MOL0     H43156   7.048  -0.505   3.430 -2.7373 -0.4741 -0.6066
  320MOL0     H43157   7.041  -0.393   3.569 -1.5432 -0.2458 -0.1558
  320MOL0     H43158   6.864  -0.594   3.640  2.0893 -0.5678 -0.2389
  320MOL0     H43159   6.853  -0.612   3.482 -1.0205 -0.7282  0.9619
  320MOL0     H43160   6.777  -0.329   3.779 -1.6281 -0.8786  3.7025
  320MOL0     H43161   6.494  -0.341   4.000 -4.3913  1.0369 -1.3821
  320MOL0     H43162   6.649  -0.257   3.955  0.2161 -0.5098 -0.8905
  320MOL0     H43163   6.502  -0.178   3.926  2.2614  0.1612  1.7677
  320MOL0     H43164   6.203  -0.246   4.116  1.2658 -0.9581 -0.4047
  320MOL0     H43165   5.973  -0.228   4.208  0.3366 -0.7891  0.4136
  320MOL0     H43166   5.762  -0.170   4.170 -0.2557 -0.1117 -3.3587
  320MOL0     H43167   5.610  -0.254   4.136  0.0710 -0.1563  0.1380
  320MOL0     H43168   5.691  -0.400   4.342 -2.2210  0.3237 -0.2917
  320MOL0     H43169   5.787  -0.260   4.386 -0.5472  1.1292  1.9836
  320MOL0     H43170   5.551  -0.132   4.317 -1.2029  1.4609  2.8126
  320MOL0     H43171   5.584  -0.188   4.477  1.4557 -0.8636 -0.1867
  320MOL0     H43172   5.354  -0.239   4.377 -0.5990 -1.0692  0.8383
  320MOL0     H43173   5.439  -0.345   4.263 -1.5434  1.6101 -0.3137
  320MOL0     H43174   5.443  -0.378   4.576  0.6820 -0.5449  0.6767
  320MOL0     H43175   5.488  -0.489   4.442  0.2767  1.7643 -4.4518
  320MOL0     H43176   5.267  -0.534   4.544 -1.3941 -0.8560 -0.7499
  320MOL0     H43177   5.209  -0.370   4.477  0.8939  1.6792  0.1024
  320MOL0     H43178   5.287  -0.628   4.325  1.2071 -0.8185  3.7119
  320MOL0     H43179   5.271  -0.472   4.251 -1.6595  2.0121  1.1332
  320MOL0     H43180   5.059  -0.596   4.239  0.1884 -3.6656  0.2857
  320MOL0     H43181   5.036  -0.461   4.358 -2.6268 -1.5907  2.2409
  320MOL0     H43182   5.845  -0.525   3.925 -0.1319 -0.0189 -0.9237
  320MOL0     H43183   6.060  -0.529   3.826  0.0889  3.7034 -3.0231
  320MOL0     H43184   6.354  -0.437   3.534 -0.7094 -2.0899  1.5277
  320MOL0     H43185   6.565  -0.456   3.423 -3.1948  0.2148  0.8010
  320MOL0     H43186   6.807   0.645   3.155  0.7275  0.1216  0.0805
  320MOL0     H43187   6.625   0.817   3.139  0.8832  1.3897 -1.0229
  320MOL0     H43188   6.284   1.030   3.333 -0.4955  1.3448  1.5557
  320MOL0     H43189   6.115   1.202   3.338  0.2244  0.0221 -1.0324
  320MOL0     H43190   5.970   1.373   3.307 -2.5398  1.6410  1.7340
  320MOL0     H43191   6.049   1.448   3.457  1.9702  1.1539 -0.4684
  320MOL0     H43192   5.907   1.589   3.232  1.6519  1.1603 -0.5077
  320MOL0     H43193   5.985   1.666   3.371  0.0525  1.1226 -3.8458
  320MOL0     H43194   5.810   1.500   3.509 -1.5362 -2.3016 -0.9317
  320MOL0     H43195   5.752   1.472   3.344 -0.4382  1.8274 -1.8942
  320MOL0     H43196   5.707   1.718   3.329  0.1422  1.5343 -0.1250
  320MOL0     H43197   5.771   1.728   3.497  0.2265 -0.9717 -0.3600
  320MOL0     H43198   5.391   1.639   3.602  0.5525 -0.0759  3.8126
  320MOL0     H43199   6.397   1.504   3.215  4.2158 -0.6118  0.1208
  320MOL0     H43200   6.559   1.327   3.175 -1.3425 -0.9250 -0.6073
  321MOL0     O43201  10.155   1.041  10.528 -0.0148 -0.4171  0.1854
  321MOL0     C43202  10.226   1.134  10.493 -0.3547 -0.1376  0.2942
  321MOL0     O43203  10.202   1.261  10.515  0.3705 -0.1259  0.8479
  321MOL0     C43204  10.091   1.306  10.579  0.4973 -0.6636 -0.0464
  321MOL0     C43205  10.010   1.404  10.524  0.0454 -0.8021 -0.5524
  321MOL0     C43206   9.902   1.464  10.591  0.1185 -0.1242 -0.2936
  321MOL0     C43207   9.856   1.414  10.706  0.1054  0.5336 -0.3698
  321MOL0     O43208   9.744   1.459  10.781 -0.0393 -0.5883 -0.0819
  321MOL0     C43209   9.660   1.574  10.743 -0.0236  0.2624 -0.1656
  321MOL0     C43210   9.537   1.524  10.661 -1.1407  0.5875 -0.1143
  321MOL0     C43211   9.445   1.636  10.626 -0.9263  0.4113  0.6880
  321MOL0     C43212   9.322   1.606  10.542 -0.5829 -0.2959 -0.0694
  321MOL0     C43213   9.192   1.599  10.618  0.4131 -0.6415  0.4351
  321MOL0     C43214   9.131   1.737  10.666  0.6178  0.8014  0.3962
  321MOL0     C43215   8.989   1.726  10.732 -0.4382  0.3915 -0.0982
  321MOL0     C43216   8.931   1.859  10.784 -0.6714 -0.0921  0.2525
  321MOL0     N43217   8.788   1.839  10.823 -0.5631  0.0595  0.0523
  321MOL0     C43218   8.692   1.931  10.809  0.9479 -0.4028  0.3202
  321MOL0     C43219   8.587   1.889  10.879 -0.0687  0.5769 -0.1683
  321MOL0     C43220   8.465   1.977  10.883 -0.1541  0.2737  0.0506
  321MOL0     C43221   8.333   1.897  10.913 -0.4532 -0.1218 -0.3357
  321MOL0     C43222   8.296   1.818  10.794  0.2295  0.9699  0.2755
  321MOL0     C43223   8.165   1.733  10.828 -0.2675 -0.0345 -0.5650
  321MOL0     O43224   8.111   1.686  10.707  0.7905  0.6959  0.3572
  321MOL0     C43225   7.995   1.747  10.658 -0.1924  1.0884  0.7743
  321MOL0     C43226   7.959   1.884  10.667  0.3073 -0.6170  0.3507
  321MOL0     C43227   7.835   1.936  10.624 -0.7432  0.7480  0.1259
  321MOL0     C43228   7.814   2.088  10.625 -0.5477 -0.1137 -0.8427
  321MOL0     C43229   7.742   1.840  10.590  1.3206  1.3346  0.4327
  321MOL0     C43230   7.602   1.885  10.567  0.1661  0.1660  0.4939
  321MOL0     O43231   7.540   1.849  10.449 -0.5270 -0.0200 -0.2406
  321MOL0     C43232   7.399   1.865  10.442  0.2948 -0.0030 -0.4494
  321MOL0     C43233   7.344   1.989  10.466 -0.4076 -0.7151 -0.8790
  321MOL0     C43234   7.206   2.016  10.467  1.0280  0.2179 -0.0661
  321MOL0     C43235   7.118   1.915  10.439  0.8161 -0.2906 -0.1759
  321MOL0     O43236   6.979   1.938  10.420  0.3573  0.2776  0.1676
  321MOL0     C43237   6.897   1.874  10.522 -0.1524  0.7302  0.0159
  321MOL0     C43238   6.762   1.936  10.530  0.2548  0.4056  1.4554
  321MOL0     C43239   6.675   1.906  10.648  0.5931  1.1218 -0.0663
  321MOL0     C43240   6.535   1.967  10.629  0.3462  0.2350  0.1951
  321MOL0     C43241   6.440   1.884  10.725 -0.2182 -0.4364 -0.4317
  321MOL0     C43242   6.287   1.898  10.702 -0.1962  0.1315 -0.0806
  321MOL0     C43243   6.234   2.044  10.686  0.3592 -0.4173  0.6892
  321MOL0     C43244   6.077   2.040  10.677 -0.4653 -0.4185  0.2576
  321MOL0    Cl43245   6.025   2.193  10.587 -0.1841  0.1323 -0.1439
  321MOL0     C43246   7.165   1.792  10.400 -0.1602  0.2571  0.1396
  321MOL0     C43247   7.299   1.762  10.409 -0.2109  0.7480  0.7466
  321MOL0     O43248   7.547   1.945  10.655  0.6721  0.2048  0.8734
  321MOL0     C43249   7.773   1.696  10.577 -0.3906 -0.2639 -0.1236
  321MOL0     C43250   7.900   1.659  10.602  0.4203  0.6630  0.7043
  321MOL0     N43251   8.628   1.785  10.959 -0.3027 -0.8321 -0.7507
  321MOL0     N43252   8.747   1.755  10.913  0.5274 -0.2933  0.1131
  321MOL0     C43253   9.927   1.306  10.756  1.1572 -0.1885  0.3325
  321MOL0     C43254  10.039   1.254  10.700 -1.0798  0.3023 -0.0902
  321MOL0     C43255  10.343   1.099  10.411 -0.6182 -0.3943 -0.0569
  321MOL0     C43256  10.379   0.970  10.373 -0.6574 -0.3587  0.6575
  321MOL0     C43257  10.498   0.939  10.305  0.0246 -0.2251  0.7226
  321MOL0     C43258  10.581   1.041  10.264  1.1713 -0.4282 -0.8724
  321MOL0     O43259  10.694   1.014  10.189  0.5558 -0.1688 -0.0178
  321MOL0     C43260  10.707   0.898  10.100 -0.0604  0.1935 -0.9706
  321MOL0     C43261  10.833   0.920  10.013  0.0790 -0.9221 -0.2404
  321MOL0     C43262  10.955   0.918  10.104 -0.3885 -1.2225 -0.0089
  321MOL0     C43263  11.089   0.876  10.040  0.1249 -0.5384  0.9861
  321MOL0     C43264  11.211   0.899  10.116  0.0509  0.1567 -1.4294
  321MOL0     C43265  11.317   0.940  10.171  0.7223  0.5235 -0.4294
  321MOL0     C43266  10.545   1.170  10.312 -0.7400 -0.5480  0.2813
  321MOL0     C43267  10.429   1.198  10.381 -0.5066  0.0942 -0.7196
  321MOL0     H43268  10.019   1.445  10.424  2.0366 -0.3379 -0.2172
  321MOL0     H43269   9.837   1.534  10.539  2.2179  1.5887 -0.7938
  321MOL0     H43270   9.623   1.634  10.826  1.5271 -0.5614  1.1862
  321MOL0     H43271   9.716   1.647  10.684 -0.8493 -0.6157 -2.1056
  321MOL0     H43272   9.581   1.485  10.569  1.5304  2.4559  0.2622
  321MOL0     H43273   9.492   1.448  10.725 -0.0807  1.1494  1.3404
  321MOL0     H43274   9.414   1.681  10.721  1.0387  1.6769  0.8171
  321MOL0     H43275   9.510   1.711  10.579  2.5808 -2.2296  0.8714
  321MOL0     H43276   9.316   1.675  10.457 -3.7836 -1.6054 -1.0470
  321MOL0     H43277   9.345   1.511  10.494  0.7880  0.0283 -0.0869
  321MOL0     H43278   9.119   1.538  10.565 -1.7907  1.4029  0.9286
  321MOL0     H43279   9.214   1.545  10.710  2.0061  0.5924  0.8323
  321MOL0     H43280   9.208   1.776  10.733  0.5136  2.1196 -0.2179
  321MOL0     H43281   9.121   1.802  10.579 -1.8236 -3.7401 -3.2208
  321MOL0     H43282   8.924   1.678  10.659  0.7978 -1.0443 -0.3171
  321MOL0     H43283   8.997   1.667  10.824 -5.5575 -0.1810  0.2427
  321MOL0     H43284   8.949   1.925  10.699 -1.2428 -0.0136  0.1885
  321MOL0     H43285   8.987   1.894  10.871  1.1064 -1.1113 -0.4423
  321MOL0     H43286   8.693   2.015  10.741  4.0326 -0.2268  0.4629
  321MOL0     H43287   8.473   2.045  10.968 -1.7773  1.5009 -0.7270
  321MOL0     H43288   8.439   2.036  10.795 -0.4676  0.0237 -0.0277
  321MOL0     H43289   8.248   1.961  10.937  0.0207 -0.2215  1.8653
  321MOL0     H43290   8.353   1.828  10.996  0.6049  1.1052  0.4797
  321MOL0     H43291   8.382   1.757  10.765 -0.2794  0.2126  0.3185
  321MOL0     H43292   8.266   1.887  10.715 -0.7489  0.5334  0.2392
  321MOL0     H43293   8.090   1.789  10.884  0.7248  0.2739  0.5104
  321MOL0     H43294   8.199   1.653  10.894 -0.1421  0.7532  0.3469
  321MOL0     H43295   8.026   1.958  10.709  0.2981  0.7726 -1.8966
  321MOL0     H43296   7.710   2.101  10.594 -0.7541 -3.3714 -1.8032
  321MOL0     H43297   7.830   2.135  10.723  2.4094 -0.2677 -1.1585
  321MOL0     H43298   7.869   2.131  10.541 -1.9401 -0.8625 -2.1680
  321MOL0     H43299   7.411   2.074  10.474  1.5053 -2.2710  0.3909
  321MOL0     H43300   7.178   2.119  10.487  1.6875  0.1681  1.2944
  321MOL0     H43301   6.890   1.770  10.490  0.0073  0.3640  1.1204
  321MOL0     H43302   6.943   1.897  10.619  0.9817  3.9309 -1.1410
  321MOL0     H43303   6.772   2.043  10.550  0.6464  0.2786  1.9631
  321MOL0     H43304   6.712   1.930  10.433  1.7093  1.2840  0.6075
  321MOL0     H43305   6.724   1.935  10.742 -0.1629  3.6139 -0.3481
  321MOL0     H43306   6.678   1.797  10.651  2.2021  1.0875 -1.5917
  321MOL0     H43307   6.543   2.075  10.648  2.6093 -0.0051  0.8701
  321MOL0     H43308   6.487   1.957  10.531 -0.8317 -0.4424  0.8336
  321MOL0     H43309   6.468   1.903  10.830 -1.1652  0.2809 -0.2966
  321MOL0     H43310   6.457   1.778  10.702  1.1473 -0.1815 -0.6524
  321MOL0     H43311   6.259   1.840  10.613 -0.6603  0.7301 -0.3369
  321MOL0     H43312   6.228   1.853  10.782  2.1588  0.6964  2.0948
  321MOL0     H43313   6.283   2.089  10.600 -2.9361  0.0942 -1.0807
  321MOL0     H43314   6.264   2.112  10.767  0.9309  2.6128 -1.8758
  321MOL0     H43315   6.019   2.028  10.770 -0.7779 -1.9319 -0.1006
  321MOL0     H43316   6.057   1.956  10.611  2.4576 -0.6375 -0.4635
  321MOL0     H43317   7.089   1.715  10.385 -2.3167  2.3570 -0.4335
  321MOL0     H43318   7.340   1.665  10.381 -2.6384  0.7311 -3.5505
  321MOL0     H43319   7.701   1.623  10.540  1.4333 -1.1529 -2.1338
  321MOL0     H43320   7.918   1.552  10.589 -3.3595 -0.0790  0.3996
  321MOL0     H43321   9.896   1.252  10.844  4.5712  0.2269  1.9332
  321MOL0     H43322  10.102   1.188  10.758  0.6718  0.4866 -1.6838
  321MOL0     H43323  10.324   0.881  10.400 -1.3371 -0.7399 -1.7777
  321MOL0     H43324  10.532   0.848  10.257  1.0898  1.7315 -2.5272
  321MOL0     H43325  10.722   0.808  10.160  2.4253  1.7779  0.9624
  321MOL0     H43326  10.621   0.892  10.032  1.0161 -2.0692 -2.2656
  321MOL0     H43327  10.812   1.016   9.966 -1.4041 -1.2963 -0.3835
  321MOL0     H43328  10.854   0.846   9.935 -1.2143 -1.4797 -0.0796
  321MOL0     H43329  10.936   0.857  10.193  2.7718 -0.1052  1.5726
  321MOL0     H43330  10.960   1.016  10.151  0.4614 -1.0242 -0.5050
  321MOL0     H43331  11.105   0.926   9.944 -2.9392  1.7178  1.5094
  321MOL0     H43332  11.087   0.769  10.022 -1.7136 -0.3710 -0.0024
  321MOL0     H43333  11.413   0.950  10.218  1.4664 -0.5368 -1.6501
  321MOL0     H43334  10.621   1.247  10.303  0.9040 -2.1321  0.0878
  321MOL0     H43335  10.423   1.302  10.410 -0.3069 -0.0978  0.0535
  322MOL0     O43336   2.104   0.021   3.667  0.3282  0.4124  0.3973
  322MOL0     C43337   2.219  -0.024   3.645  0.4281 -0.5127 -0.4435
  322MOL0     O43338   2.340   0.028   3.697  0.2802  0.3291 -0.2298
  322MOL0     C43339   2.318   0.142   3.776 -0.2476 -0.0875 -0.4280
  322MOL0     C43340   2.290   0.266   3.734  0.5960 -0.0563  0.4048
  322MOL0     C43341   2.273   0.379   3.820 -0.1790  0.6406  0.9905
  322MOL0     C43342   2.303   0.371   3.953 -0.2580 -0.4875  0.1573
  322MOL0     O43343   2.291   0.477   4.037  0.9009  0.1964  0.6018
  322MOL0     C43344   2.322   0.464   4.173 -0.2932 -1.2856 -0.6040
  322MOL0     C43345   2.308   0.605   4.232  0.4040  0.8904  1.2421
  322MOL0     C43346   2.315   0.591   4.381  0.5005  0.4490  0.0917
  322MOL0     C43347   2.321   0.729   4.449  0.1497 -0.3779 -0.2517
  322MOL0     C43348   2.291   0.704   4.603  0.2069 -0.1883  1.1025
  322MOL0     C43349   2.421   0.690   4.672 -0.6746 -0.8861  0.5361
  322MOL0     C43350   2.403   0.665   4.827  0.0634  0.0564  0.0901
  322MOL0     C43351   2.373   0.780   4.932  0.0656  0.4813  0.5905
  322MOL0     N43352   2.307   0.728   5.049  0.1187 -0.2152  0.5841
  322MOL0     C43353   2.367   0.642   5.134  0.4621 -0.1699 -0.0484
  322MOL0     C43354   2.272   0.619   5.238 -0.1536  0.5015 -0.4549
  322MOL0     C43355   2.283   0.527   5.357  0.9894  0.1019  0.5158
  322MOL0     C43356   2.202   0.582   5.477 -0.6767  0.3199 -0.7767
  322MOL0     C43357   2.238   0.476   5.587 -0.0097  0.2296  0.8334
  322MOL0     C43358   2.148   0.504   5.707 -0.8014  0.6638  0.1662
  322MOL0     O43359   2.175   0.626   5.763 -0.2321 -0.2904 -0.1364
  322MOL0     C43360   2.097   0.683   5.855  0.5189 -0.9446 -0.1598
  322MOL0     C43361   2.150   0.786   5.931 -0.3704  0.3345 -0.4400
  322MOL0     C43362   2.083   0.849   6.031  0.2344  0.8780  0.1838
  322MOL0     C43363   2.147   0.963   6.108  1.3449  1.2022  0.5487
  322MOL0     C43364   1.950   0.804   6.057  0.3407 -0.1205 -0.0307
  322MOL0     C43365   1.868   0.873   6.158  0.1752 -1.0117 -0.1516
  322MOL0     O43366   1.801   0.803   6.254 -0.0441 -0.3011 -0.0483
  322MOL0     C43367   1.712   0.867   6.338 -0.1839  0.3194 -0.3485
  322MOL0     C43368   1.712   0.847   6.473 -0.3554  0.1071  0.1784
  322MOL0     C43369   1.605   0.890   6.553  0.6736  1.0471  0.2092
  322MOL0     C43370   1.493   0.953   6.492 -1.5242  0.1932 -0.3212
  322MOL0     O43371   1.387   1.002   6.559  0.3950 -0.3779 -0.1645
  322MOL0     C43372   1.360   1.144   6.536  1.0010 -0.5909 -0.3954
  322MOL0     C43373   1.293   1.193   6.668 -0.8226  0.8118  0.6912
  322MOL0     C43374   1.383   1.190   6.791 -0.1060  0.5090 -0.7570
  322MOL0     C43375   1.304   1.262   6.899 -0.0239  0.1536 -0.1198
  322MOL0     C43376   1.370   1.229   7.038 -0.4451 -0.1238 -0.0444
  322MOL0     C43377   1.268   1.276   7.137  0.5454  0.5892  0.1995
  322MOL0     C43378   1.308   1.287   7.282 -0.6685 -0.0989  0.7745
  322MOL0     C43379   1.434   1.362   7.307  0.1423  0.5475 -0.1721
  322MOL0    Cl43380   1.458   1.373   7.486 -0.5159 -0.0141  0.1726
  322MOL0     C43381   1.498   0.976   6.363  0.0935 -0.2260  0.3928
  322MOL0     C43382   1.604   0.932   6.284 -0.0713 -0.1002  0.1238
  322MOL0     O43383   1.846   0.991   6.117  0.7726  0.2938 -0.1210
  322MOL0     C43384   1.887   0.708   5.981  0.4275  0.0259  0.3692
  322MOL0     C43385   1.960   0.649   5.879  0.5092  0.9770  1.1005
  322MOL0     N43386   2.175   0.714   5.223  0.0137 -0.2272 -0.1429
  322MOL0     N43387   2.198   0.772   5.107  0.3840 -0.0656  0.7339
  322MOL0     C43388   2.346   0.244   3.992  0.6032 -0.6797 -0.6509
  322MOL0     C43389   2.360   0.133   3.913  1.2652  1.0132 -0.5152
  322MOL0     C43390   2.244  -0.131   3.548  0.2970  0.0926 -0.8353
  322MOL0     C43391   2.142  -0.195   3.482 -0.0443 -0.2852 -0.8374
  322MOL0     C43392   2.161  -0.303   3.390  0.8286 -1.1540 -0.2745
  322MOL0     C43393   2.286  -0.347   3.374 -0.7994 -0.3737  0.2555
  322MOL0     O43394   2.302  -0.454   3.292  0.0825  0.0675 -0.4348
  322MOL0     C43395   2.429  -0.487   3.225  0.0024  0.3284  0.4772
  322MOL0     C43396   2.436  -0.593   3.113 -0.2029  0.5750  0.4287
  322MOL0     C43397   2.564  -0.569   3.033 -0.3473  0.0632  0.1094
  322MOL0     C43398   2.595  -0.706   2.957  0.0437  0.4388  0.2061
  322MOL0     C43399   2.726  -0.704   2.889  0.9930  0.1414 -0.9787
  322MOL0     C43400   2.829  -0.697   2.824  1.1414  1.2161  0.4793
  322MOL0     C43401   2.399  -0.271   3.428  0.1751 -0.8338  0.2108
  322MOL0     C43402   2.376  -0.170   3.522 -0.0485 -0.0402  0.2844
  322MOL0     H43403   2.270   0.275   3.628 -0.2158  3.9124  0.7347
  322MOL0     H43404   2.240   0.471   3.773 -0.3263 -0.7834 -1.9321
  322MOL0     H43405   2.265   0.391   4.231 -3.3539  0.2324 -1.4679
  322MOL0     H43406   2.428   0.436   4.175 -0.0254 -0.5005 -2.0868
  322MOL0     H43407   2.398   0.658   4.202 -0.5558  2.6778  1.3872
  322MOL0     H43408   2.221   0.656   4.190 -0.2732 -1.2461 -0.0860
  322MOL0     H43409   2.238   0.523   4.415 -1.9053  3.3148  0.8023
  322MOL0     H43410   2.407   0.538   4.407 -0.8513 -2.7733 -1.1900
  322MOL0     H43411   2.416   0.781   4.435 -1.0881  1.3205 -3.5894
  322MOL0     H43412   2.240   0.794   4.414  0.8666  0.5918 -0.1594
  322MOL0     H43413   2.241   0.791   4.647  1.9044  1.2669  0.2989
  322MOL0     H43414   2.216   0.626   4.620 -1.7550  1.2897 -0.1446
  322MOL0     H43415   2.479   0.605   4.636  2.3597 -0.1184  3.0882
  322MOL0     H43416   2.496   0.769   4.663 -0.3951 -0.9918  1.7585
  322MOL0     H43417   2.311   0.606   4.826  0.4630 -0.5857  0.3505
  322MOL0     H43418   2.486   0.600   4.857  1.5419  2.4495  1.5063
  322MOL0     H43419   2.314   0.855   4.880  0.7393 -0.3689 -1.4938
  322MOL0     H43420   2.469   0.820   4.967 -0.6134  1.0095  1.9558
  322MOL0     H43421   2.469   0.604   5.126  2.3039  4.3572 -1.3979
  322MOL0     H43422   2.237   0.431   5.330  0.2492 -0.0549  2.2332
  322MOL0     H43423   2.389   0.528   5.386  1.2855  1.9350 -0.4531
  322MOL0     H43424   2.093   0.595   5.480 -0.4222  2.8787 -0.5708
  322MOL0     H43425   2.246   0.679   5.501  1.2114 -0.2834 -1.5894
  322MOL0     H43426   2.346   0.481   5.600  0.4765  1.7871 -2.6437
  322MOL0     H43427   2.222   0.370   5.566  0.8220 -0.1749  2.1139
  322MOL0     H43428   2.168   0.425   5.780  0.0824  0.6352 -0.0999
  322MOL0     H43429   2.044   0.500   5.673 -0.2336 -1.0512 -1.6284
  322MOL0     H43430   2.253   0.813   5.911  0.3952 -1.2365  1.0088
  322MOL0     H43431   2.098   0.977   6.205 -1.6003 -1.7257 -0.3420
  322MOL0     H43432   2.254   0.946   6.119  1.3052  0.5268 -0.0527
  322MOL0     H43433   2.129   1.057   6.055  0.1388 -0.2592 -1.7876
  322MOL0     H43434   1.792   0.808   6.535  1.4007  2.0903 -0.6854
  322MOL0     H43435   1.610   0.881   6.661 -0.6247 -1.2834  0.1309
  322MOL0     H43436   1.449   1.203   6.511 -2.4326  3.4850 -4.7624
  322MOL0     H43437   1.280   1.148   6.461  0.5909 -1.0597  0.0049
  322MOL0     H43438   1.278   1.300   6.648 -0.7317  0.5508 -0.8781
  322MOL0     H43439   1.200   1.138   6.683  0.5827 -2.2341 -0.8640
  322MOL0     H43440   1.473   1.247   6.767 -0.3924  1.3183  0.0236
  322MOL0     H43441   1.414   1.090   6.821  0.5633  0.6051 -1.1169
  322MOL0     H43442   1.307   1.371   6.886 -4.0410  0.6752  1.8126
  322MOL0     H43443   1.201   1.226   6.897  0.4433 -1.1881 -1.1053
  322MOL0     H43444   1.463   1.286   7.043  0.2076 -0.6822 -3.4515
  322MOL0     H43445   1.382   1.122   7.061 -1.9897 -0.2190  0.4730
  322MOL0     H43446   1.221   1.365   7.095 -2.8207 -0.9171  0.4498
  322MOL0     H43447   1.182   1.209   7.152 -0.5498  1.9414  0.1744
  322MOL0     H43448   1.312   1.186   7.324  0.1598 -0.3906 -0.0049
  322MOL0     H43449   1.229   1.347   7.329 -0.7832  2.5818 -2.4932
  322MOL0     H43450   1.437   1.459   7.256 -0.4709 -0.8573 -3.1531
  322MOL0     H43451   1.523   1.311   7.268 -0.7561 -0.8151 -0.4945
  322MOL0     H43452   1.418   1.040   6.328 -1.4402 -1.6665  1.1554
  322MOL0     H43453   1.622   0.946   6.178  4.2866  0.5067  0.7616
  322MOL0     H43454   1.782   0.679   5.984  0.9333 -1.9355  1.7361
  322MOL0     H43455   1.907   0.580   5.815  1.5383  1.1619  0.0134
  322MOL0     H43456   2.363   0.226   4.097  0.3190  4.2036  0.4766
  322MOL0     H43457   2.400   0.042   3.957 -2.5470  0.3190  2.0083
  322MOL0     H43458   2.040  -0.170   3.510 -0.6461 -1.2106 -2.1031
  322MOL0     H43459   2.077  -0.349   3.339 -0.6759 -1.4273  2.2744
  322MOL0     H43460   2.474  -0.398   3.180  0.5939 -0.7852 -1.2378
  322MOL0     H43461   2.494  -0.531   3.301  1.5234 -1.5655 -1.7766
  322MOL0     H43462   2.353  -0.581   3.043 -0.7009 -0.4949  0.8220
  322MOL0     H43463   2.437  -0.689   3.166  0.7076  0.0555 -0.4828
  322MOL0     H43464   2.649  -0.550   3.099 -0.7080 -1.0784  0.9465
  322MOL0     H43465   2.550  -0.490   2.959  1.5027  0.9316  0.6181
  322MOL0     H43466   2.517  -0.736   2.886  0.1598  0.8222 -0.0859
  322MOL0     H43467   2.604  -0.795   3.020 -1.2956 -1.0990 -1.6599
  322MOL0     H43468   2.915  -0.694   2.761  0.0610 -0.8717 -1.2332
  322MOL0     H43469   2.503  -0.292   3.407 -0.3175 -4.0159  0.3794
  322MOL0     H43470   2.461  -0.127   3.573  2.0332 -2.9965 -0.3866
  323MOL0     O43471   2.861   3.656   1.025 -0.7716  0.0596 -0.9191
  323MOL0     C43472   2.873   3.776   0.990 -0.1250  0.2612  0.2178
  323MOL0     O43473   2.825   3.825   0.869  0.8974  0.2963  0.1241
  323MOL0     C43474   2.753   3.730   0.801 -0.2742  1.0377 -0.0415
  323MOL0     C43475   2.613   3.722   0.805 -0.9735  0.9538  0.1142
  323MOL0     C43476   2.551   3.615   0.737 -0.6535 -0.1880 -0.3558
  323MOL0     C43477   2.619   3.522   0.655 -0.0632 -0.0610  1.4154
  323MOL0     O43478   2.558   3.416   0.578  0.1874  0.2249  0.7370
  323MOL0     C43479   2.638   3.305   0.598  0.1750 -0.3469 -0.1775
  323MOL0     C43480   2.553   3.189   0.542 -1.2429 -0.1184 -0.5019
  323MOL0     C43481   2.611   3.052   0.581  0.2904 -0.0879 -0.3116
  323MOL0     C43482   2.731   3.006   0.502 -0.2404 -0.0234  0.4153
  323MOL0     C43483   2.808   2.882   0.550  0.7261  1.1136 -0.0942
  323MOL0     C43484   2.862   2.793   0.434  0.8908  0.0784  0.7293
  323MOL0     C43485   2.955   2.866   0.337  0.5689 -0.2150  0.4187
  323MOL0     C43486   3.018   2.780   0.232 -0.7785 -0.3928 -0.0233
  323MOL0     N43487   2.931   2.725   0.131  0.0532 -0.4418 -0.2868
  323MOL0     C43488   2.839   2.797   0.059 -0.4633 -0.6719 -0.7386
  323MOL0     C43489   2.778   2.705  -0.016  0.2568  0.5079 -0.6356
  323MOL0     C43490   2.663   2.718  -0.117 -0.1495 -0.1417  0.1582
  323MOL0     C43491   2.558   2.632  -0.052 -0.2412 -0.4869 -0.3250
  323MOL0     C43492   2.450   2.617  -0.157  0.4473 -0.2636 -0.3708
  323MOL0     C43493   2.422   2.745  -0.245  0.5993 -0.6507 -0.4562
  323MOL0     O43494   2.323   2.709  -0.340 -0.4027  0.2888 -0.4923
  323MOL0     C43495   2.192   2.747  -0.316 -0.0551 -0.2207  0.8199
  323MOL0     C43496   2.131   2.782  -0.196 -0.4401  0.7261 -0.1650
  323MOL0     C43497   1.989   2.808  -0.182 -0.3991 -0.3953  0.1787
  323MOL0     C43498   1.942   2.811  -0.041  0.0639 -0.1823 -0.0514
  323MOL0     C43499   1.922   2.827  -0.308 -0.7784 -0.5648  0.1382
  323MOL0     C43500   1.786   2.866  -0.312  0.7356  0.5205 -0.1150
  323MOL0     O43501   1.725   2.861  -0.432  0.2002  0.1630 -0.2674
  323MOL0     C43502   1.589   2.899  -0.443 -1.0884  0.3094 -0.4909
  323MOL0     C43503   1.502   2.808  -0.510  0.5354  0.2964 -0.2833
  323MOL0     C43504   1.360   2.828  -0.502  0.0709  0.0262  0.4310
  323MOL0     C43505   1.303   2.936  -0.427  0.0896  0.6244  0.4216
  323MOL0     O43506   1.166   2.966  -0.413 -0.1453  0.0121 -0.0037
  323MOL0     C43507   1.072   2.865  -0.378 -0.4312  1.2213 -0.8102
  323MOL0     C43508   0.926   2.906  -0.341  0.2285  0.4325  0.1793
  323MOL0     C43509   0.924   2.970  -0.203  0.4942 -0.8186 -0.4142
  323MOL0     C43510   0.785   2.990  -0.161  1.1368 -0.3321 -0.7956
  323MOL0     C43511   0.766   3.007  -0.005  0.4799 -0.0711  1.1431
  323MOL0     C43512   0.807   2.900   0.091  0.4614 -0.0394 -0.0528
  323MOL0     C43513   0.757   2.754   0.061  0.1018 -0.2245  0.9300
  323MOL0     C43514   0.864   2.654   0.118  0.0730  0.0153  0.0169
  323MOL0    Cl43515   1.040   2.678   0.074  0.2091  0.3627  0.6647
  323MOL0     C43516   1.394   3.029  -0.370  0.8240  0.3390 -0.6831
  323MOL0     C43517   1.530   3.006  -0.371 -0.0707 -0.3526 -0.3449
  323MOL0     O43518   1.728   2.906  -0.203  0.1161  0.2590  0.1328
  323MOL0     C43519   1.989   2.813  -0.429  0.0234 -0.6931  0.4339
  323MOL0     C43520   2.122   2.772  -0.444  0.3415  0.7543 -0.2564
  323MOL0     N43521   2.841   2.582   0.014 -0.5691 -0.1407 -0.2062
  323MOL0     N43522   2.940   2.597   0.093 -0.6263 -0.3746 -1.2237
  323MOL0     C43523   2.758   3.553   0.636 -0.0749 -1.1285  1.2782
  323MOL0     C43524   2.830   3.654   0.705  0.7993 -0.2400  0.1127
  323MOL0     C43525   2.954   3.859   1.085  0.9367  0.9132  0.7192
  323MOL0     C43526   2.985   3.805   1.214  1.1657  0.1228 -0.3076
  323MOL0     C43527   3.051   3.884   1.304 -1.3285 -0.6535  0.3541
  323MOL0     C43528   3.106   4.002   1.260  0.4170 -0.3718 -0.0838
  323MOL0     O43529   3.161   4.075   1.361  0.6146  0.2093  0.0322
  323MOL0     C43530   3.254   4.184   1.338  0.2341 -0.7228  0.2503
  323MOL0     C43531   3.300   4.234   1.471 -0.0680  0.4189  0.5423
  323MOL0     C43532   3.394   4.357   1.452  0.4244 -0.5556  0.0920
  323MOL0     C43533   3.529   4.306   1.401 -0.1378 -0.7702 -1.1023
  323MOL0     C43534   3.529   4.302   1.259  0.7577  0.2613 -0.7833
  323MOL0     C43535   3.525   4.294   1.143  0.0849  0.4776 -0.0133
  323MOL0     C43536   3.090   4.046   1.124  0.2611 -0.4351 -0.6574
  323MOL0     C43537   3.006   3.982   1.038  0.1274  0.1907 -0.1836
  323MOL0     H43538   2.555   3.805   0.845 -2.9618  0.3049 -1.2675
  323MOL0     H43539   2.444   3.597   0.742 -0.5453 -0.5165  2.7071
  323MOL0     H43540   2.732   3.308   0.542  0.9289  1.7682  1.0683
  323MOL0     H43541   2.648   3.289   0.706 -0.1510 -0.4974 -0.1679
  323MOL0     H43542   2.452   3.208   0.580 -0.5703 -1.0401  1.9594
  323MOL0     H43543   2.559   3.196   0.433 -0.7575  0.7340 -0.4314
  323MOL0     H43544   2.626   3.039   0.689  0.2611 -0.6447 -0.3703
  323MOL0     H43545   2.524   2.987   0.568 -0.0925  0.4720 -0.6047
  323MOL0     H43546   2.683   2.973   0.409 -2.7758  1.3175  1.1579
  323MOL0     H43547   2.799   3.089   0.479  0.6788 -1.7780 -4.2693
  323MOL0     H43548   2.894   2.909   0.613 -1.8056 -0.1417  4.3051
  323MOL0     H43549   2.744   2.817   0.610 -1.2143  0.7464 -2.4174
  323MOL0     H43550   2.912   2.703   0.471 -1.0062 -1.9473 -1.2867
  323MOL0     H43551   2.781   2.757   0.369  1.6803  2.0378 -1.4941
  323MOL0     H43552   2.899   2.942   0.283  1.0945 -1.5862 -2.1893
  323MOL0     H43553   3.040   2.906   0.393  0.2829  2.3437 -0.8334
  323MOL0     H43554   3.069   2.708   0.296 -1.2166 -1.0694 -0.4220
  323MOL0     H43555   3.092   2.838   0.177 -3.7510  2.3325 -1.4478
  323MOL0     H43556   2.808   2.902   0.062 -3.3076 -1.4376  0.4345
  323MOL0     H43557   2.641   2.824  -0.132 -0.1987 -0.1926 -0.1329
  323MOL0     H43558   2.685   2.689  -0.220  0.9406 -0.3907  0.4471
  323MOL0     H43559   2.518   2.670   0.042  2.2812 -1.8530  1.4325
  323MOL0     H43560   2.602   2.535  -0.024 -0.8912 -0.5310  0.6006
  323MOL0     H43561   2.354   2.582  -0.117 -0.1879 -1.3899 -2.6779
  323MOL0     H43562   2.489   2.536  -0.219 -0.0366 -1.8271  1.3037
  323MOL0     H43563   2.504   2.777  -0.309 -1.8288  2.5239 -2.2756
  323MOL0     H43564   2.404   2.831  -0.180 -0.1292 -0.5770 -0.7482
  323MOL0     H43565   2.189   2.779  -0.105 -0.3376  2.2283 -0.1659
  323MOL0     H43566   1.989   2.729   0.013 -2.7710 -0.3275  2.4577
  323MOL0     H43567   1.953   2.909   0.007 -0.0720 -0.3725  0.3681
  323MOL0     H43568   1.836   2.783  -0.040 -0.5620  2.0199  0.8496
  323MOL0     H43569   1.538   2.721  -0.562  1.5758 -1.7349  3.4804
  323MOL0     H43570   1.304   2.755  -0.560 -0.4573  1.1228 -0.4742
  323MOL0     H43571   1.082   2.791  -0.458  0.7096  0.8098 -0.2976
  323MOL0     H43572   1.115   2.813  -0.292  1.0923  2.2210 -0.9311
  323MOL0     H43573   0.908   2.990  -0.410  2.5501  0.5341 -0.3979
  323MOL0     H43574   0.847   2.832  -0.352 -1.1709  1.9538 -0.6078
  323MOL0     H43575   0.963   3.071  -0.218 -1.5263 -0.0838 -1.0233
  323MOL0     H43576   0.990   2.915  -0.135 -2.2872 -3.5343  0.3333
  323MOL0     H43577   0.743   3.076  -0.213 -0.4096 -1.8871 -2.2585
  323MOL0     H43578   0.722   2.908  -0.198  0.2141  0.9194 -2.1373
  323MOL0     H43579   0.659   3.027   0.006 -0.1320 -2.8736  1.0109
  323MOL0     H43580   0.827   3.095   0.016 -2.8956  2.0787  2.7323
  323MOL0     H43581   0.916   2.911   0.097  0.4787  0.9530 -1.6634
  323MOL0     H43582   0.765   2.927   0.188 -0.3768  0.8372 -0.6407
  323MOL0     H43583   0.739   2.742  -0.046 -0.4065  0.4165  0.9338
  323MOL0     H43584   0.659   2.747   0.111 -0.9232  1.6986 -0.6596
  323MOL0     H43585   0.835   2.555   0.080  0.8473  0.5307 -2.0564
  323MOL0     H43586   0.862   2.656   0.227 -0.2108  0.6184  0.0027
  323MOL0     H43587   1.343   3.117  -0.334 -0.7095 -0.7808 -0.0135
  323MOL0     H43588   1.580   3.083  -0.313 -1.9055  1.1631 -0.6727
  323MOL0     H43589   1.950   2.828  -0.529  3.6255  2.3034 -0.7650
  323MOL0     H43590   2.178   2.756  -0.535 -1.3137  0.0532 -1.1998
  323MOL0     H43591   2.819   3.490   0.572 -1.6250 -2.0089  0.6087
  323MOL0     H43592   2.938   3.661   0.704  0.7448  0.7606 -0.8381
  323MOL0     H43593   2.946   3.713   1.257 -1.9090  1.0987 -0.7437
  323MOL0     H43594   3.055   3.838   1.403 -0.4803 -1.9643 -0.2593
  323MOL0     H43595   3.341   4.144   1.285  1.6066  2.0127  0.2270
  323MOL0     H43596   3.212   4.268   1.281  1.4898  0.1995  0.6465
  323MOL0     H43597   3.359   4.152   1.513 -0.7753  0.3545  1.4230
  323MOL0     H43598   3.224   4.266   1.542  1.3206  0.1118  2.2447
  323MOL0     H43599   3.408   4.399   1.552  1.7703  4.6528 -1.9521
  323MOL0     H43600   3.368   4.442   1.387 -1.5071  0.0217  1.5255
  323MOL0     H43601   3.554   4.210   1.447 -0.9491 -0.9100 -0.9411
  323MOL0     H43602   3.603   4.376   1.440 -0.3895 -1.1099  0.0205
  323MOL0     H43603   3.524   4.262   1.041 -0.4240 -0.5298  0.2935
  323MOL0     H43604   3.143   4.130   1.081 -0.8598 -1.2472 -3.9354
  323MOL0     H43605   2.991   4.019   0.937  1.3930  2.2695  0.3167
  324MOL0     O43606  11.295   5.835   7.102  0.3356  0.3054  0.1093
  324MOL0     C43607  11.374   5.870   7.009  0.0687  0.1925 -0.1416
  324MOL0     O43608  11.422   5.787   6.907  0.6613 -0.3078 -0.2408
  324MOL0     C43609  11.353   5.678   6.880  0.3453 -0.0968 -1.4015
  324MOL0     C43610  11.411   5.554   6.886  0.1102 -0.5255  0.3764
  324MOL0     C43611  11.338   5.441   6.845 -0.8828 -0.8040  0.0723
  324MOL0     C43612  11.214   5.453   6.785 -0.3344 -0.3110 -0.0946
  324MOL0     O43613  11.133   5.353   6.740  0.0464  1.0066  0.2941
  324MOL0     C43614  11.191   5.220   6.718 -0.2831 -0.4267  0.5140
  324MOL0     C43615  11.102   5.137   6.630 -0.9877  1.1741 -0.6813
  324MOL0     C43616  10.984   5.076   6.715 -0.3376 -0.6359  0.5685
  324MOL0     C43617  10.862   5.020   6.635 -0.0702  0.2587  0.4651
  324MOL0     C43618  10.889   4.880   6.583  0.5055  0.3852 -0.3117
  324MOL0     C43619  10.772   4.845   6.496 -0.4515 -0.2770 -0.4892
  324MOL0     C43620  10.806   4.713   6.422  0.5545  0.0011 -0.5534
  324MOL0     C43621  10.869   4.719   6.286  0.0825  0.4957  0.1304
  324MOL0     N43622  10.785   4.777   6.185 -0.2404 -0.4641  0.2862
  324MOL0     C43623  10.693   4.707   6.110 -0.1774 -0.3501  1.2422
  324MOL0     C43624  10.639   4.803   6.020 -0.1650  0.4605  0.1753
  324MOL0     C43625  10.566   4.748   5.895  0.0500  0.4804  0.0011
  324MOL0     C43626  10.527   4.868   5.798 -0.1547 -0.3591  0.3339
  324MOL0     C43627  10.408   4.950   5.860  0.1273 -0.7501 -0.7179
  324MOL0     C43628  10.401   5.087   5.791  0.0316 -0.4650 -0.5097
  324MOL0     O43629  10.381   5.078   5.643  0.4434  0.1754 -0.3010
  324MOL0     C43630  10.258   5.026   5.618 -0.6027 -0.1252 -0.3537
  324MOL0     C43631  10.142   5.099   5.623 -0.5207 -0.2789  0.3822
  324MOL0     C43632  10.014   5.038   5.593 -0.0049  0.4431  0.4506
  324MOL0     C43633   9.891   5.123   5.616  0.6304  1.0336  0.4927
  324MOL0     C43634  10.018   4.903   5.539  0.4449 -0.9136  0.3130
  324MOL0     C43635   9.887   4.840   5.485 -0.1053 -0.2982 -0.1670
  324MOL0     O43636   9.783   4.926   5.445 -0.3631  0.2740 -0.0976
  324MOL0     C43637   9.657   4.861   5.430 -0.5247  0.4779 -0.6799
  324MOL0     C43638   9.580   4.829   5.541 -1.0584 -0.2661 -0.5704
  324MOL0     C43639   9.464   4.764   5.521  0.0325  0.4555  0.4621
  324MOL0     C43640   9.412   4.732   5.390 -0.8414  0.4505  0.3626
  324MOL0     O43641   9.300   4.652   5.380 -0.9006 -0.1856 -0.3513
  324MOL0     C43642   9.221   4.677   5.253  0.2986  0.8494 -0.2243
  324MOL0     C43643   9.090   4.603   5.262  0.4488  0.1827 -0.0330
  324MOL0     C43644   9.003   4.645   5.378 -1.0041 -0.1510  0.0436
  324MOL0     C43645   8.853   4.597   5.373  0.7502 -0.0264 -0.1673
  324MOL0     C43646   8.789   4.602   5.511  0.3660  0.4179  0.4685
  324MOL0     C43647   8.633   4.587   5.494 -0.3413  0.3406  0.4331
  324MOL0     C43648   8.542   4.584   5.617  0.1198 -0.1464  0.5488
  324MOL0     C43649   8.513   4.720   5.685  0.7020 -0.5863  0.1959
  324MOL0    Cl43650   8.398   4.694   5.831  0.2965 -0.0230 -0.4079
  324MOL0     C43651   9.484   4.775   5.281  0.2701 -0.7907 -0.1794
  324MOL0     C43652   9.606   4.836   5.303  0.4285 -0.3860 -0.9754
  324MOL0     O43653   9.888   4.719   5.483  0.0593 -0.0216 -0.1840
  324MOL0     C43654  10.137   4.839   5.523 -0.4280  0.2661  0.6748
  324MOL0     C43655  10.247   4.904   5.562 -0.4559  0.5503  0.6790
  324MOL0     N43656  10.712   4.919   6.039 -0.4894 -0.2307  0.1698
  324MOL0     N43657  10.794   4.901   6.130 -0.7108 -0.1161 -0.3940
  324MOL0     C43658  11.172   5.582   6.763  0.0623  0.0799  0.1890
  324MOL0     C43659  11.234   5.694   6.811  0.2130  0.2940  0.0734
  324MOL0     C43660  11.426   6.011   7.000 -0.6986 -0.7758  0.2717
  324MOL0     C43661  11.502   6.068   6.901  0.2956 -0.3860  0.3504
  324MOL0     C43662  11.551   6.200   6.907  0.7829 -0.1647  0.3819
  324MOL0     C43663  11.519   6.279   7.020  0.2081  0.0639 -0.4632
  324MOL0     O43664  11.580   6.406   7.026 -0.3819 -0.0703 -0.6620
  324MOL0     C43665  11.525   6.510   7.112 -0.1757  0.8853  0.2126
  324MOL0     C43666  11.568   6.503   7.263 -0.0093 -0.3536  0.0451
  324MOL0     C43667  11.683   6.604   7.305  0.5146  1.4918 -0.2824
  324MOL0     C43668  11.803   6.587   7.213 -0.3363  0.6419  0.0181
  324MOL0     C43669  11.933   6.620   7.288  0.5280 -1.5096 -0.6367
  324MOL0     C43670  12.040   6.658   7.337 -1.2045  0.6501 -0.1256
  324MOL0     C43671  11.435   6.224   7.123 -0.5190  0.6560  0.0824
  324MOL0     C43672  11.384   6.100   7.109  0.5240  0.3721  0.1644
  324MOL0     H43673  11.507   5.535   6.932  1.2667  1.0986 -1.2532
  324MOL0     H43674  11.392   5.348   6.864  1.5230 -0.3841 -3.6779
  324MOL0     H43675  11.293   5.230   6.680 -1.8526  1.0885 -4.0263
  324MOL0     H43676  11.198   5.164   6.811  0.0351 -0.1949  0.6327
  324MOL0     H43677  11.072   5.188   6.538 -0.6994 -0.0535 -1.4793
  324MOL0     H43678  11.156   5.049   6.595 -3.0595 -0.9998  1.1611
  324MOL0     H43679  11.012   4.989   6.776 -0.5147 -2.6551 -2.0376
  324MOL0     H43680  10.963   5.161   6.780  2.6615  0.1076  0.7174
  324MOL0     H43681  10.779   5.019   6.706 -0.3680 -1.2761  0.1264
  324MOL0     H43682  10.841   5.090   6.553  1.8309 -0.3371 -0.6065
  324MOL0     H43683  10.984   4.875   6.528  0.4867  1.9808 -0.5225
  324MOL0     H43684  10.905   4.802   6.659 -3.5738 -1.4529 -1.0765
  324MOL0     H43685  10.692   4.831   6.569  1.1641  0.3684  1.4734
  324MOL0     H43686  10.740   4.925   6.428 -2.8931 -0.5889  0.1973
  324MOL0     H43687  10.874   4.648   6.478 -0.2169 -1.3420 -1.1080
  324MOL0     H43688  10.711   4.660   6.410  0.2798  0.7137 -1.6745
  324MOL0     H43689  10.895   4.618   6.252  1.6126  0.7241  0.5296
  324MOL0     H43690  10.968   4.765   6.289  0.2970  0.0125  2.7089
  324MOL0     H43691  10.676   4.600   6.116 -3.9825  0.0200 -0.2156
  324MOL0     H43692  10.627   4.680   5.835  0.5133  2.0811 -1.4290
  324MOL0     H43693  10.476   4.692   5.922  0.1040 -0.4736 -1.7027
  324MOL0     H43694  10.497   4.838   5.697 -0.5756  0.5518  0.1834
  324MOL0     H43695  10.613   4.935   5.792  0.5787 -0.6863  4.4801
  324MOL0     H43696  10.432   4.978   5.963 -1.6589 -1.5064 -0.0563
  324MOL0     H43697  10.311   4.901   5.850 -0.1315 -0.3614 -0.2013
  324MOL0     H43698  10.488   5.149   5.811 -0.4925  0.0961  0.1026
  324MOL0     H43699  10.317   5.143   5.835 -2.3659 -4.4349  0.4777
  324MOL0     H43700  10.147   5.205   5.646 -0.8610 -0.2017  0.1063
  324MOL0     H43701   9.816   5.051   5.650  0.3045  1.6253  1.0256
  324MOL0     H43702   9.913   5.189   5.701  1.5563  0.8417  0.4160
  324MOL0     H43703   9.851   5.175   5.529  1.8375  1.7607  0.3484
  324MOL0     H43704   9.612   4.851   5.642 -0.1982 -0.6676 -0.7504
  324MOL0     H43705   9.407   4.724   5.604 -1.5799  1.5758 -0.0403
  324MOL0     H43706   9.200   4.784   5.243  1.8234  1.0035 -2.7184
  324MOL0     H43707   9.279   4.648   5.165  0.7060  0.3571  0.2016
  324MOL0     H43708   9.038   4.630   5.169  1.6161  1.5236 -0.3432
  324MOL0     H43709   9.104   4.495   5.260 -0.5183  0.0556 -1.0654
  324MOL0     H43710   9.011   4.751   5.405  0.4787 -0.4636  0.9825
  324MOL0     H43711   9.045   4.591   5.464 -2.7430  1.5200  2.0751
  324MOL0     H43712   8.791   4.655   5.304 -2.8787 -0.3905  2.5108
  324MOL0     H43713   8.847   4.491   5.347 -0.9711 -0.1624  0.6779
  324MOL0     H43714   8.810   4.697   5.560  0.2632  0.0669  1.2085
  324MOL0     H43715   8.822   4.520   5.576  0.1805 -1.3562 -1.5646
  324MOL0     H43716   8.615   4.675   5.431 -0.5977 -0.8381 -1.1817
  324MOL0     H43717   8.615   4.499   5.432 -0.7104 -1.2431  2.6385
  324MOL0     H43718   8.587   4.526   5.698 -2.6855 -1.1809  1.5078
  324MOL0     H43719   8.445   4.544   5.583 -0.4643  2.3710 -0.9910
  324MOL0     H43720   8.459   4.780   5.612 -1.5541 -0.2869  1.9979
  324MOL0     H43721   8.599   4.781   5.715 -0.5597  1.5266 -0.2646
  324MOL0     H43722   9.462   4.777   5.175 -0.9899  2.4918  0.0058
  324MOL0     H43723   9.647   4.863   5.207  0.3260 -1.3364 -1.3032
  324MOL0     H43724  10.157   4.752   5.462  1.2890  1.9326 -1.3083
  324MOL0     H43725  10.340   4.853   5.539  0.2765  1.0890  2.2799
  324MOL0     H43726  11.083   5.603   6.704 -0.3383  0.2167  0.8289
  324MOL0     H43727  11.196   5.793   6.788  0.8949  0.6277  0.3564
  324MOL0     H43728  11.538   6.005   6.820  0.9015 -0.7770  0.9023
  324MOL0     H43729  11.604   6.240   6.821 -2.6022 -2.0134 -2.8757
  324MOL0     H43730  11.532   6.604   7.057 -1.6368  0.9930  0.1887
  324MOL0     H43731  11.419   6.488   7.125  0.0137 -0.0646  0.1645
  324MOL0     H43732  11.584   6.398   7.290  3.0301  0.1182  0.3635
  324MOL0     H43733  11.477   6.525   7.319 -1.2069 -2.4262 -0.9364
  324MOL0     H43734  11.704   6.576   7.409  0.7607 -0.0641 -0.7287
  324MOL0     H43735  11.640   6.704   7.294 -1.4773  0.6790 -0.2597
  324MOL0     H43736  11.795   6.656   7.128  1.3069  1.7225  0.6708
  324MOL0     H43737  11.830   6.490   7.172  0.4679  0.6278  0.5532
  324MOL0     H43738  12.130   6.713   7.358 -0.6666 -0.1047 -0.3796
  324MOL0     H43739  11.390   6.287   7.200 -1.2291  1.3126 -0.8472
  324MOL0     H43740  11.322   6.060   7.188  3.8002  0.0519  2.8028
  325MOL0     O43741  11.299   0.159   8.615  1.0318 -0.0668 -0.0773
  325MOL0     C43742  11.272   0.242   8.529  0.3032 -0.5649  0.1686
  325MOL0     O43743  11.345   0.354   8.514 -0.5492 -0.1637  0.6602
  325MOL0     C43744  11.451   0.386   8.596 -0.4947 -0.2614 -0.1217
  325MOL0     C43745  11.479   0.521   8.628  0.7207  0.2066  0.2820
  325MOL0     C43746  11.584   0.566   8.699 -1.0716 -0.0031  0.4920
  325MOL0     C43747  11.672   0.472   8.748  0.1399  0.6318  0.0858
  325MOL0     O43748  11.776   0.510   8.832 -0.0028 -0.3651  0.5289
  325MOL0     C43749  11.881   0.591   8.772 -0.0114  0.8649 -0.3030
  325MOL0     C43750  11.971   0.510   8.664 -0.4648 -0.4728  0.1327
  325MOL0     C43751  12.100   0.590   8.609 -0.3658 -0.4127 -0.4304
  325MOL0     C43752  12.212   0.584   8.715  0.6394 -0.7226  0.6481
  325MOL0     C43753  12.332   0.677   8.676 -0.2742 -0.1523 -0.5240
  325MOL0     C43754  12.443   0.662   8.782  0.8487  0.8102  0.0957
  325MOL0     C43755  12.558   0.762   8.783  0.2593  0.5385  0.6410
  325MOL0     C43756  12.683   0.694   8.840  0.2200  0.5468 -0.3749
  325MOL0     N43757  12.816   0.754   8.825 -0.1479 -0.3920 -0.2758
  325MOL0     C43758  12.904   0.725   8.722  1.3216  0.1503 -0.4490
  325MOL0     C43759  13.008   0.796   8.756  0.3472  0.8686 -0.0356
  325MOL0     C43760  13.128   0.777   8.677  0.4220 -0.0058  0.1306
  325MOL0     C43761  13.187   0.639   8.713  0.1197  0.1730  0.5163
  325MOL0     C43762  13.296   0.617   8.613 -0.0741 -0.0955 -0.0013
  325MOL0     C43763  13.348   0.472   8.624 -1.4622 -1.2074 -0.3812
  325MOL0     O43764  13.411   0.437   8.751 -0.4137  0.2760 -0.1700
  325MOL0     C43765  13.546   0.450   8.783 -0.3734 -0.0722  0.5013
  325MOL0     C43766  13.584   0.413   8.911  0.5277  0.0159  0.6607
  325MOL0     C43767  13.715   0.434   8.967  0.4151  0.5049  0.7504
  325MOL0     C43768  13.730   0.399   9.110 -0.3203  0.0114 -0.1225
  325MOL0     C43769  13.803   0.505   8.888 -0.1824 -0.0821  0.3288
  325MOL0     C43770  13.936   0.571   8.930 -0.2667 -0.4184 -0.4419
  325MOL0     O43771  13.968   0.679   8.855 -0.2909  0.3556  0.1465
  325MOL0     C43772  14.097   0.725   8.855 -0.6318  0.8333  0.2608
  325MOL0     C43773  14.206   0.638   8.829  0.0761  0.1254 -0.4337
  325MOL0     C43774  14.335   0.688   8.814 -0.5777 -0.1040  0.1693
  325MOL0     C43775  14.360   0.827   8.826 -0.0189 -0.2462 -0.8754
  325MOL0     O43776  14.487   0.884   8.818  0.0669 -0.3261 -0.1660
  325MOL0     C43777  14.601   0.799   8.799  0.2369  0.0427 -1.2417
  325MOL0     C43778  14.633   0.747   8.938 -0.0818  0.4256  0.3513
  325MOL0     C43779  14.644   0.847   9.053 -0.3038  0.6736  0.5595
  325MOL0     C43780  14.675   0.784   9.195 -0.2381 -0.8794  0.0850
  325MOL0     C43781  14.582   0.680   9.251 -0.7369 -0.3728 -0.2298
  325MOL0     C43782  14.441   0.726   9.251  0.1449 -0.0220  0.3851
  325MOL0     C43783  14.351   0.613   9.314  0.3143 -0.2562  0.2364
  325MOL0     C43784  14.216   0.666   9.360  0.0929  0.4635 -0.4524
  325MOL0    Cl43785  14.252   0.764   9.500 -0.3802  0.3479 -0.3064
  325MOL0     C43786  14.254   0.912   8.853 -0.4281  1.4765 -0.5363
  325MOL0     C43787  14.122   0.864   8.866  0.4883 -0.4951 -0.3739
  325MOL0     O43788  14.017   0.521   9.013  0.2073 -0.0591 -0.0325
  325MOL0     C43789  13.767   0.533   8.758  1.0491 -0.2164  0.0695
  325MOL0     C43790  13.637   0.513   8.706  1.1748  0.7922  0.4436
  325MOL0     N43791  12.994   0.853   8.885 -0.6683  0.1935 -0.6541
  325MOL0     N43792  12.874   0.837   8.919  0.4036 -0.0611 -0.8903
  325MOL0     C43793  11.668   0.338   8.708  0.9635 -0.5428 -0.1106
  325MOL0     C43794  11.553   0.297   8.643 -0.3250  0.4156  0.2365
  325MOL0     C43795  11.149   0.231   8.445 -0.5761 -0.4143 -0.8225
  325MOL0     C43796  11.036   0.165   8.491 -0.7882  0.1353 -0.7489
  325MOL0     C43797  10.922   0.164   8.417  0.7808 -0.2398 -0.2942
  325MOL0     C43798  10.922   0.221   8.291  0.7606 -0.0314  0.6431
  325MOL0     O43799  10.800   0.221   8.225  0.6304 -0.5299  0.1227
  325MOL0     C43800  10.779   0.237   8.086  0.1391  0.7508 -0.3924
  325MOL0     C43801  10.636   0.285   8.056 -0.5435  0.1710  0.2496
  325MOL0     C43802  10.531   0.177   8.094 -0.5486 -0.3372 -0.4846
  325MOL0     C43803  10.383   0.221   8.067  0.1797  0.2811 -0.5593
  325MOL0     C43804  10.358   0.250   7.929  0.3358  0.4169  0.1596
  325MOL0     C43805  10.314   0.277   7.813  0.3002  0.7944 -0.3417
  325MOL0     C43806  11.033   0.295   8.243 -0.2986 -0.3504 -0.4363
  325MOL0     C43807  11.149   0.296   8.322 -0.0638  0.6372 -0.6083
  325MOL0     H43808  11.410   0.597   8.592  1.0157  0.5859  0.5081
  325MOL0     H43809  11.595   0.668   8.732 -2.0715  0.4447 -0.4719
  325MOL0     H43810  11.841   0.688   8.743  0.8772  1.3923  0.1768
  325MOL0     H43811  11.948   0.623   8.853 -1.3969  0.2454  1.1321
  325MOL0     H43812  12.004   0.415   8.707 -1.9446 -1.3218 -0.5342
  325MOL0     H43813  11.911   0.494   8.574 -0.1863 -1.2713  0.0883
  325MOL0     H43814  12.144   0.532   8.526  1.2436 -2.1533  1.5069
  325MOL0     H43815  12.070   0.694   8.595 -1.5241 -0.8315 -1.2706
  325MOL0     H43816  12.185   0.598   8.820 -2.3521  0.1242 -0.1525
  325MOL0     H43817  12.238   0.478   8.709 -0.1211 -0.8252 -2.7602
  325MOL0     H43818  12.373   0.644   8.580 -0.1436  2.2898 -1.3635
  325MOL0     H43819  12.298   0.780   8.663  1.2493  1.0197  3.4554
  325MOL0     H43820  12.411   0.671   8.886  4.1148  2.1873  1.0955
  325MOL0     H43821  12.481   0.560   8.773 -0.6479  0.1471  0.8794
  325MOL0     H43822  12.561   0.808   8.684 -0.9767  3.8833  2.0131
  325MOL0     H43823  12.538   0.852   8.842  0.5502  1.4652 -0.6107
  325MOL0     H43824  12.695   0.588   8.817  0.9095  0.2026  1.4395
  325MOL0     H43825  12.664   0.693   8.947  0.8939 -2.0221 -0.2098
  325MOL0     H43826  12.895   0.656   8.639  1.1197 -2.5286  1.6478
  325MOL0     H43827  13.109   0.784   8.569 -0.8286 -0.7742  0.2753
  325MOL0     H43828  13.193   0.861   8.702 -0.0850  0.7299 -0.9407
  325MOL0     H43829  13.107   0.566   8.696 -3.6161  4.1464 -1.2400
  325MOL0     H43830  13.221   0.634   8.817  1.3592 -0.1789  0.0982
  325MOL0     H43831  13.381   0.686   8.613  0.9179 -1.2203 -2.2018
  325MOL0     H43832  13.261   0.639   8.512  0.9400 -0.5708 -0.4733
  325MOL0     H43833  13.417   0.446   8.544 -0.7620  0.2849 -0.2983
  325MOL0     H43834  13.264   0.404   8.611 -2.6722  0.2626 -0.6106
  325MOL0     H43835  13.504   0.370   8.970  0.9939 -0.4441  0.9692
  325MOL0     H43836  13.644   0.435   9.166  1.2775  2.6302  0.8269
  325MOL0     H43837  13.748   0.292   9.121  1.3879  0.2887  0.0440
  325MOL0     H43838  13.817   0.456   9.144  0.0562  0.9375 -2.4222
  325MOL0     H43839  14.184   0.533   8.816  2.0167 -0.5533  1.2730
  325MOL0     H43840  14.415   0.617   8.793 -0.2020  1.2262 -3.7441
  325MOL0     H43841  14.590   0.727   8.717 -0.3407  0.1257 -1.2465
  325MOL0     H43842  14.694   0.854   8.783  2.1033 -2.1952  1.0672
  325MOL0     H43843  14.570   0.663   8.969 -2.0254  0.4864 -2.9251
  325MOL0     H43844  14.728   0.694   8.931 -0.3963 -0.1347  0.1741
  325MOL0     H43845  14.545   0.892   9.064  0.7372  3.2435  0.1009
  325MOL0     H43846  14.719   0.923   9.030 -0.8063  1.7993  2.4725
  325MOL0     H43847  14.779   0.748   9.204  0.4098  1.0981  1.1010
  325MOL0     H43848  14.661   0.865   9.267  0.8072  1.1281 -1.8582
  325MOL0     H43849  14.619   0.643   9.347 -1.3103  0.6855  0.4099
  325MOL0     H43850  14.592   0.596   9.181 -1.2912 -0.4180 -0.2546
  325MOL0     H43851  14.437   0.829   9.286  2.6412 -0.0758  1.0164
  325MOL0     H43852  14.418   0.738   9.145  0.5842  0.7813  0.3731
  325MOL0     H43853  14.395   0.590   9.412 -2.4550  2.9964  2.4315
  325MOL0     H43854  14.331   0.520   9.259 -2.7744 -0.5269  1.6164
  325MOL0     H43855  14.161   0.574   9.381  1.5035 -0.1647  0.7030
  325MOL0     H43856  14.158   0.730   9.293 -0.5388  3.1946  2.4710
  325MOL0     H43857  14.285   1.015   8.869  1.2791  0.8250  0.7088
  325MOL0     H43858  14.043   0.938   8.880  3.2094  2.3419  1.4383
  325MOL0     H43859  13.839   0.552   8.679  0.5027 -2.0208 -0.9256
  325MOL0     H43860  13.612   0.540   8.604  1.1720  0.1731  0.2703
  325MOL0     H43861  11.732   0.262   8.751 -0.2277 -0.8148  1.2740
  325MOL0     H43862  11.546   0.189   8.630 -0.5458  0.2367  1.6049
  325MOL0     H43863  11.032   0.105   8.581  2.9530 -1.6790 -1.5615
  325MOL0     H43864  10.847   0.099   8.462 -0.0364  2.2450  2.1725
  325MOL0     H43865  10.849   0.306   8.038  0.3506  1.2394  0.5792
  325MOL0     H43866  10.791   0.137   8.044 -0.5996  0.7014 -0.5033
  325MOL0     H43867  10.636   0.309   7.950  0.8040 -0.5842  0.0467
  325MOL0     H43868  10.620   0.377   8.113 -5.1822  1.2816 -2.3624
  325MOL0     H43869  10.547   0.156   8.200 -0.1787 -1.6923 -0.7903
  325MOL0     H43870  10.533   0.085   8.034 -2.0685  0.4906 -1.8609
  325MOL0     H43871  10.360   0.310   8.126  4.4129  0.8501  0.5983
  325MOL0     H43872  10.317   0.146   8.112  1.4366  1.4243  3.6340
  325MOL0     H43873  10.281   0.284   7.712 -1.7416 -0.5977  0.1619
  325MOL0     H43874  11.038   0.347   8.148 -2.9705  0.9755  0.0810
  325MOL0     H43875  11.230   0.347   8.272 -0.8118  0.2218 -2.3098
  326MOL0     O43876   4.745   5.603   2.200 -0.0487 -0.9266  0.2689
  326MOL0     C43877   4.763   5.714   2.169  0.4638  0.2907  0.5635
  326MOL0     O43878   4.671   5.812   2.132  0.9481  0.0606 -0.2607
  326MOL0     C43879   4.537   5.761   2.131  0.2603 -0.1166  0.7286
  326MOL0     C43880   4.468   5.745   2.005 -0.1577 -0.7939 -0.5399
  326MOL0     C43881   4.337   5.696   2.010  0.2119  0.1431 -0.5725
  326MOL0     C43882   4.276   5.667   2.138  1.1009  0.1643  0.4365
  326MOL0     O43883   4.139   5.640   2.150  0.2344 -0.3545  0.1089
  326MOL0     C43884   4.060   5.584   2.046 -0.9673  0.8831 -0.8398
  326MOL0     C43885   3.989   5.689   1.949 -0.6590  0.4915 -0.5378
  326MOL0     C43886   3.876   5.626   1.870  0.7452  0.4145 -0.4804
  326MOL0     C43887   3.923   5.578   1.734  0.1624 -0.2999  0.8175
  326MOL0     C43888   4.018   5.456   1.734  0.2955  0.1435  0.2140
  326MOL0     C43889   3.982   5.345   1.630  0.5299 -0.2920  0.5192
  326MOL0     C43890   3.864   5.266   1.673  0.4239  0.8641  0.9913
  326MOL0     C43891   3.909   5.145   1.762 -0.5692  0.3085 -1.0321
  326MOL0     N43892   3.816   5.034   1.766 -0.2535 -0.2803 -0.0163
  326MOL0     C43893   3.799   4.954   1.658 -0.2371  0.2202  0.1194
  326MOL0     C43894   3.714   4.858   1.699  0.1363  1.4469  0.0185
  326MOL0     C43895   3.660   4.741   1.614 -0.0894  0.6976  0.2118
  326MOL0     C43896   3.774   4.649   1.570  0.2883  0.0918  0.6878
  326MOL0     C43897   3.840   4.582   1.695  0.1715  0.5128 -0.1401
  326MOL0     C43898   3.977   4.515   1.669 -0.4606 -0.4826 -0.2436
  326MOL0     O43899   3.989   4.421   1.562  0.2835  0.0034  1.0166
  326MOL0     C43900   3.905   4.307   1.566  0.4468  0.3336  0.0018
  326MOL0     C43901   3.888   4.240   1.441 -0.0746 -0.2388 -0.0193
  326MOL0     C43902   3.825   4.119   1.422  0.0466 -0.0635  0.2052
  326MOL0     C43903   3.823   4.061   1.285 -1.0359 -0.6442  0.4878
  326MOL0     C43904   3.773   4.057   1.533 -0.3240 -0.6396 -0.1850
  326MOL0     C43905   3.697   3.928   1.530 -0.2205 -0.3718 -0.0460
  326MOL0     O43906   3.610   3.917   1.424  0.6153  0.1655  0.3826
  326MOL0     C43907   3.565   3.794   1.393  1.6271  1.2455 -0.2998
  326MOL0     C43908   3.620   3.670   1.437  0.2648 -1.0634  0.2028
  326MOL0     C43909   3.549   3.553   1.422 -0.5565 -0.0925 -0.2757
  326MOL0     C43910   3.421   3.548   1.361  0.6417  0.3736  0.1916
  326MOL0     O43911   3.366   3.436   1.309 -0.2880 -0.0170  0.3141
  326MOL0     C43912   3.438   3.316   1.329 -0.9484 -0.3248  0.5788
  326MOL0     C43913   3.354   3.200   1.279 -0.6187  0.1333  0.0727
  326MOL0     C43914   3.401   3.061   1.331 -0.8716 -0.6141  0.3161
  326MOL0     C43915   3.317   2.945   1.283  0.0547  0.0084 -0.8230
  326MOL0     C43916   3.349   2.804   1.340 -0.2233  0.0635 -0.0568
  326MOL0     C43917   3.312   2.690   1.240  0.4505  0.0517  0.0287
  326MOL0     C43918   3.292   2.560   1.319  0.7257 -0.3982 -0.1778
  326MOL0     C43919   3.426   2.509   1.368 -0.1464  0.1892 -0.1077
  326MOL0    Cl43920   3.457   2.576   1.521 -0.0737 -0.1708 -0.3698
  326MOL0     C43921   3.365   3.669   1.324  0.4527 -0.1919 -0.0346
  326MOL0     C43922   3.437   3.785   1.340  0.4803  0.0952  0.5397
  326MOL0     O43923   3.703   3.854   1.626  0.1422 -0.7130  0.2319
  326MOL0     C43924   3.785   4.117   1.662  0.7251 -0.0776 -0.4949
  326MOL0     C43925   3.852   4.237   1.679  0.3062  0.4908  0.5178
  326MOL0     N43926   3.688   4.881   1.835  1.0118 -1.5029  0.6458
  326MOL0     N43927   3.749   4.995   1.872  0.1271  0.3663  0.1883
  326MOL0     C43928   4.346   5.688   2.258 -0.9666 -0.6883 -0.1298
  326MOL0     C43929   4.474   5.736   2.255 -0.5679 -0.6457 -0.0963
  326MOL0     C43930   4.897   5.752   2.156 -0.0556  0.4980 -0.7780
  326MOL0     C43931   4.998   5.653   2.162  0.2208  1.2696  0.5473
  326MOL0     C43932   5.131   5.683   2.146  0.4838 -0.6067 -0.1401
  326MOL0     C43933   5.170   5.816   2.127 -0.0791 -0.2385 -0.6595
  326MOL0     O43934   5.299   5.854   2.126 -0.0849 -0.6963 -0.0803
  326MOL0     C43935   5.408   5.760   2.107 -0.3106 -0.0264  0.8581
  326MOL0     C43936   5.534   5.842   2.109 -0.3658 -0.2237  0.9299
  326MOL0     C43937   5.583   5.886   2.246  0.1871  0.1116  0.3747
  326MOL0     C43938   5.713   5.973   2.239  0.7532 -0.2113  0.7878
  326MOL0     C43939   5.834   5.894   2.208 -0.0162 -0.3167  0.4967
  326MOL0     C43940   5.924   5.823   2.182 -0.4631 -0.4268 -1.0883
  326MOL0     C43941   5.073   5.918   2.134  0.5660  1.0548  0.1643
  326MOL0     C43942   4.934   5.888   2.137 -0.6072  0.6584  0.6398
  326MOL0     H43943   4.522   5.770   1.915  2.4728  1.6112  1.5243
  326MOL0     H43944   4.282   5.692   1.916  0.8205  2.5184 -1.0985
  326MOL0     H43945   4.132   5.522   1.993 -1.2253  1.6351 -2.1119
  326MOL0     H43946   3.985   5.518   2.091  1.9406 -0.2345  2.9477
  326MOL0     H43947   3.948   5.769   2.011 -0.8947 -1.4024  1.9218
  326MOL0     H43948   4.061   5.729   1.877  0.7542 -1.6058 -0.4038
  326MOL0     H43949   3.833   5.538   1.918  0.2357 -0.5565 -2.6078
  326MOL0     H43950   3.791   5.691   1.847 -0.4675 -0.0875  2.2315
  326MOL0     H43951   3.837   5.543   1.677 -1.1604 -1.0580  3.1531
  326MOL0     H43952   3.955   5.672   1.688 -2.2764  0.5055  0.6492
  326MOL0     H43953   4.121   5.473   1.700  0.7756 -3.9019 -0.8865
  326MOL0     H43954   4.037   5.413   1.832  2.6227 -0.6534 -0.5167
  326MOL0     H43955   3.971   5.401   1.536  2.5294  6.1715  3.5229
  326MOL0     H43956   4.070   5.286   1.607  0.1092 -0.8970  0.4317
  326MOL0     H43957   3.780   5.317   1.720 -1.3249 -0.9712  0.0457
  326MOL0     H43958   3.815   5.226   1.583  1.9683  2.9130 -0.8613
  326MOL0     H43959   3.941   5.182   1.859 -2.3834  1.4192 -0.8078
  326MOL0     H43960   3.996   5.090   1.723 -0.8252  0.7947 -2.3410
  326MOL0     H43961   3.843   4.945   1.560 -1.1560 -3.2512 -0.1110
  326MOL0     H43962   3.593   4.688   1.683  1.4301 -0.1404  1.1184
  326MOL0     H43963   3.605   4.779   1.528 -0.7096 -0.3756  0.1153
  326MOL0     H43964   3.856   4.701   1.520  0.8115 -1.5830 -0.2828
  326MOL0     H43965   3.753   4.558   1.512  1.5369  1.0796 -1.3971
  326MOL0     H43966   3.776   4.504   1.737  1.9660 -0.3079  1.1810
  326MOL0     H43967   3.856   4.658   1.771  0.3018  2.8054 -2.3311
  326MOL0     H43968   4.005   4.452   1.755 -1.3891 -0.4407  0.1004
  326MOL0     H43969   4.055   4.592   1.661 -1.6618  0.8805  0.6821
  326MOL0     H43970   3.930   4.281   1.349  0.0801  1.1105  0.6230
  326MOL0     H43971   3.894   4.101   1.212 -2.2667 -0.1606 -0.4915
  326MOL0     H43972   3.841   3.954   1.296  1.7733 -0.7745 -3.2949
  326MOL0     H43973   3.723   4.075   1.242 -0.1138 -0.9571 -1.9613
  326MOL0     H43974   3.718   3.683   1.483  0.0446  1.9104 -0.0100
  326MOL0     H43975   3.590   3.466   1.473  2.2356  0.0029 -2.1614
  326MOL0     H43976   3.527   3.318   1.265 -1.3528 -0.3208  0.0077
  326MOL0     H43977   3.473   3.303   1.432 -0.4075  0.6188  0.5222
  326MOL0     H43978   3.256   3.211   1.325 -0.4073  0.9292  0.3457
  326MOL0     H43979   3.352   3.210   1.170  0.8662  1.1572  0.1133
  326MOL0     H43980   3.399   3.052   1.440 -3.0922 -1.3151  0.2712
  326MOL0     H43981   3.500   3.045   1.286  1.3079  2.4637  3.4497
  326MOL0     H43982   3.211   2.955   1.309  0.7436 -0.3562  2.5991
  326MOL0     H43983   3.330   2.938   1.174  0.6791  1.4872 -0.8602
  326MOL0     H43984   3.286   2.791   1.428 -0.7541  1.9366 -0.1192
  326MOL0     H43985   3.456   2.791   1.357 -0.1626  0.5468 -0.0555
  326MOL0     H43986   3.217   2.717   1.192  0.8216 -1.2694 -1.5225
  326MOL0     H43987   3.380   2.680   1.156 -0.9142  1.9194 -1.3846
  326MOL0     H43988   3.261   2.480   1.251  0.3127 -0.6931  0.3574
  326MOL0     H43989   3.223   2.557   1.403  0.0578  2.5694 -0.5425
  326MOL0     H43990   3.510   2.528   1.300  1.5409  0.7665  2.0197
  326MOL0     H43991   3.426   2.403   1.395  0.5343 -0.7761 -3.4753
  326MOL0     H43992   3.269   3.669   1.274  0.4136  0.5230  0.0283
  326MOL0     H43993   3.383   3.876   1.316  0.4071 -0.4636 -1.6092
  326MOL0     H43994   3.753   4.065   1.751 -0.1445  0.8898 -0.2160
  326MOL0     H43995   3.859   4.277   1.780  0.4947  0.4055  0.5396
  326MOL0     H43996   4.302   5.659   2.352 -0.1271 -1.1765  0.1249
  326MOL0     H43997   4.526   5.757   2.348  0.1663  1.2785 -0.8826
  326MOL0     H43998   4.972   5.548   2.175  2.9142  0.3422 -0.7606
  326MOL0     H43999   5.215   5.615   2.154  3.1206  2.4307  0.5288
  326MOL0     H44000   5.410   5.684   2.186  1.7305  1.7041  2.5841
  326MOL0     H44001   5.404   5.713   2.008  0.9007  1.7839 -0.1058
  326MOL0     H44002   5.513   5.936   2.058  3.0754  1.6274  2.5395
  326MOL0     H44003   5.614   5.790   2.054  0.4692 -0.2825  2.1686
  326MOL0     H44004   5.604   5.795   2.303 -0.1554  0.1898  0.6252
  326MOL0     H44005   5.514   5.953   2.298  1.3749  0.5532  1.4422
  326MOL0     H44006   5.728   6.028   2.333  1.0357  1.7248 -0.3281
  326MOL0     H44007   5.690   6.057   2.172  0.5483  0.3138  1.5028
  326MOL0     H44008   6.009   5.762   2.158  0.2241  0.4596 -0.9601
  326MOL0     H44009   5.091   6.025   2.137 -0.8527  1.3707 -1.0728
  326MOL0     H44010   4.861   5.967   2.150  0.6734  1.8406  0.7735
  327MOL0     O44011   5.401   6.475   1.349 -0.2920 -0.8761  0.3866
  327MOL0     C44012   5.515   6.500   1.345 -0.0909 -0.2691  0.0432
  327MOL0     O44013   5.595   6.489   1.229  0.2208 -0.1649 -0.5046
  327MOL0     C44014   5.533   6.421   1.121 -0.0595 -0.1483 -0.7629
  327MOL0     C44015   5.578   6.298   1.085 -0.1154  0.9232 -0.3695
  327MOL0     C44016   5.511   6.229   0.976 -0.5105 -0.1409 -0.0179
  327MOL0     C44017   5.400   6.289   0.910 -0.5280 -0.4557 -0.7576
  327MOL0     O44018   5.326   6.230   0.816 -0.2687  0.1440  0.9219
  327MOL0     C44019   5.205   6.163   0.858  0.5839 -0.2811 -0.1327
  327MOL0     C44020   5.226   6.017   0.866 -0.7648  0.5634  0.7654
  327MOL0     C44021   5.111   5.925   0.902  0.6799  0.5985  0.1020
  327MOL0     C44022   5.157   5.783   0.936 -0.7646  0.1147  0.3336
  327MOL0     C44023   5.051   5.670   0.966 -0.3918 -0.2683 -0.1997
  327MOL0     C44024   4.916   5.682   0.884  0.6283  0.1168 -0.1775
  327MOL0     C44025   4.809   5.572   0.915 -0.1205 -0.5893 -0.0442
  327MOL0     C44026   4.675   5.616   0.847 -0.6159 -0.6571 -0.2351
  327MOL0     N44027   4.562   5.537   0.899 -0.1125  0.1737  1.1390
  327MOL0     C44028   4.512   5.423   0.834 -0.0418  0.0649 -0.6190
  327MOL0     C44029   4.405   5.379   0.919 -0.6882 -0.5391 -0.2067
  327MOL0     C44030   4.323   5.250   0.920 -0.8501  0.0163 -0.4062
  327MOL0     C44031   4.171   5.276   0.914 -0.4412 -0.5666  0.4234
  327MOL0     C44032   4.077   5.158   0.953  0.0686 -0.2184  0.0210
  327MOL0     C44033   4.093   5.030   0.867 -0.3644  0.0311  0.3546
  327MOL0     O44034   4.218   4.959   0.896 -0.7981  0.8764 -0.1167
  327MOL0     C44035   4.244   4.900   1.024  0.5474 -1.0393  1.2135
  327MOL0     C44036   4.143   4.857   1.115  0.1687  0.1757  0.0125
  327MOL0     C44037   4.171   4.794   1.240 -0.3952 -0.3439  0.0359
  327MOL0     C44038   4.054   4.736   1.324  0.0979 -0.7019 -0.7520
  327MOL0     C44039   4.317   4.788   1.280  0.1259 -0.2014  0.4173
  327MOL0     C44040   4.359   4.734   1.412  1.5508  0.4491 -0.2037
  327MOL0     O44041   4.486   4.760   1.436  0.7770 -0.3391 -0.0339
  327MOL0     C44042   4.552   4.690   1.537 -0.3648 -0.2912 -0.3978
  327MOL0     C44043   4.548   4.547   1.535  0.0636  0.5790 -0.0469
  327MOL0     C44044   4.580   4.478   1.655  0.5687  0.6757  0.7635
  327MOL0     C44045   4.616   4.541   1.770  0.1204  0.3798 -0.6613
  327MOL0     O44046   4.627   4.468   1.887  0.3099 -0.4593  0.5989
  327MOL0     C44047   4.733   4.503   1.977 -1.1897 -0.2809  1.2835
  327MOL0     C44048   4.673   4.569   2.105  0.1688 -0.2611  0.7672
  327MOL0     C44049   4.782   4.596   2.210 -0.2709 -0.6229  0.1964
  327MOL0     C44050   4.715   4.662   2.327 -0.5903 -0.3840  0.3918
  327MOL0     C44051   4.834   4.710   2.422  0.1766  0.8004  0.0900
  327MOL0     C44052   4.896   4.599   2.509 -0.3265  0.0149  0.7593
  327MOL0     C44053   4.796   4.535   2.605 -0.8626  0.8887 -1.0689
  327MOL0     C44054   4.759   4.631   2.714 -0.2644  0.2450  0.7726
  327MOL0    Cl44055   4.730   4.545   2.866 -0.1196 -0.4401  0.4675
  327MOL0     C44056   4.626   4.684   1.767  0.1747  0.0425  0.5829
  327MOL0     C44057   4.602   4.755   1.649 -0.2086 -0.5151 -0.0610
  327MOL0     O44058   4.270   4.689   1.496  0.0573 -1.4036  1.4079
  327MOL0     C44059   4.412   4.832   1.187 -0.2673  0.4086  0.6697
  327MOL0     C44060   4.374   4.889   1.065  0.3742  0.5643 -0.5305
  327MOL0     N44061   4.391   5.473   1.015 -0.2620 -0.7472 -0.4448
  327MOL0     N44062   4.471   5.574   0.994 -0.0019 -0.3474  0.2094
  327MOL0     C44063   5.364   6.418   0.950  0.6389  0.4526  0.6433
  327MOL0     C44064   5.433   6.480   1.051  0.3173  0.2670 -1.0095
  327MOL0     C44065   5.573   6.536   1.476 -0.0015 -1.0725  0.7886
  327MOL0     C44066   5.690   6.609   1.476 -0.3122 -0.4257 -0.2593
  327MOL0     C44067   5.762   6.623   1.598  0.3099  0.0374 -0.8632
  327MOL0     C44068   5.710   6.568   1.716  0.2192  0.8955  0.5711
  327MOL0     O44069   5.762   6.584   1.836  0.0212 -0.2703 -0.1163
  327MOL0     C44070   5.903   6.592   1.848 -0.3982  1.1317 -0.4532
  327MOL0     C44071   5.943   6.600   1.993  0.3371 -0.7183 -0.1951
  327MOL0     C44072   6.095   6.571   2.023  0.4446  0.4007 -0.8824
  327MOL0     C44073   6.174   6.455   1.960  0.3308  0.7298 -0.3303
  327MOL0     C44074   6.110   6.330   1.972 -0.5293  0.5537  0.1434
  327MOL0     C44075   6.067   6.214   1.989 -0.3994  0.2672  0.0209
  327MOL0     C44076   5.590   6.507   1.720 -0.7318 -0.6408 -0.5107
  327MOL0     C44077   5.515   6.501   1.605 -0.1826  0.6842  0.5037
  327MOL0     H44078   5.660   6.244   1.131 -0.0562  0.8582 -0.5520
  327MOL0     H44079   5.539   6.131   0.939 -0.7346 -1.0119  1.9828
  327MOL0     H44080   5.189   6.191   0.963  2.0644 -1.0745  0.3357
  327MOL0     H44081   5.119   6.184   0.794 -0.0593 -0.7713  0.5437
  327MOL0     H44082   5.278   5.990   0.773 -5.0426  0.8821 -1.9866
  327MOL0     H44083   5.293   6.005   0.951  1.4003 -2.4562 -1.1174
  327MOL0     H44084   5.056   5.968   0.986  0.3887 -1.1232  0.8352
  327MOL0     H44085   5.057   5.920   0.807  1.6946  1.8793 -0.5760
  327MOL0     H44086   5.224   5.753   0.855 -0.5311 -0.7786  0.8435
  327MOL0     H44087   5.220   5.800   1.024  1.0247 -1.2819 -0.6108
  327MOL0     H44088   5.095   5.570   0.953 -0.3530 -0.7034  2.6703
  327MOL0     H44089   5.011   5.676   1.067  0.2076  0.1397  0.0225
  327MOL0     H44090   4.876   5.779   0.915  2.7084  0.9193  0.2147
  327MOL0     H44091   4.935   5.701   0.778 -0.9122 -2.3363 -0.9656
  327MOL0     H44092   4.849   5.480   0.872 -2.6952 -2.3486  1.1391
  327MOL0     H44093   4.799   5.567   1.024 -1.7362  3.1166  0.1557
  327MOL0     H44094   4.685   5.617   0.738  1.2107 -0.2190 -0.1016
  327MOL0     H44095   4.654   5.720   0.872 -1.5053 -0.7725 -0.4644
  327MOL0     H44096   4.561   5.374   0.750  1.3621  1.1839 -0.4972
  327MOL0     H44097   4.346   5.190   0.831 -1.2687 -0.3703 -0.2600
  327MOL0     H44098   4.341   5.206   1.019 -1.3345  1.3196  0.2790
  327MOL0     H44099   4.158   5.282   0.806  0.6809 -0.9563  0.2518
  327MOL0     H44100   4.141   5.369   0.962  3.1062  0.9690 -0.0275
  327MOL0     H44101   3.973   5.192   0.950  0.0122 -0.3866 -2.8711
  327MOL0     H44102   4.102   5.144   1.059 -1.5009  0.9512  0.5921
  327MOL0     H44103   4.085   5.055   0.761  0.7764  1.6394  0.5931
  327MOL0     H44104   4.011   4.963   0.894 -0.9586  0.5259 -0.1971
  327MOL0     H44105   4.039   4.875   1.093  0.0757  1.9975  1.7724
  327MOL0     H44106   4.039   4.794   1.415 -1.2893  0.6970 -1.8214
  327MOL0     H44107   3.964   4.738   1.262  0.1322 -0.2675 -0.7909
  327MOL0     H44108   4.072   4.631   1.349 -1.1131 -0.9450 -0.8312
  327MOL0     H44109   4.504   4.501   1.448  1.1596  1.0792 -0.8941
  327MOL0     H44110   4.592   4.370   1.660  1.1319  0.7028  0.1179
  327MOL0     H44111   4.795   4.418   2.007  0.6690  0.8727  0.9035
  327MOL0     H44112   4.808   4.567   1.931 -1.0812 -1.3781 -0.1390
  327MOL0     H44113   4.619   4.661   2.081  0.9363 -0.3699 -1.6010
  327MOL0     H44114   4.595   4.496   2.130 -1.9871  1.9316  0.7971
  327MOL0     H44115   4.861   4.657   2.166 -0.9917  0.6694  0.6393
  327MOL0     H44116   4.817   4.502   2.254 -0.1064 -1.3039 -1.3539
  327MOL0     H44117   4.662   4.752   2.293  1.0997  0.7605  0.6619
  327MOL0     H44118   4.657   4.581   2.372  2.0182 -2.4921  0.2317
  327MOL0     H44119   4.794   4.791   2.484  1.3031  0.7354  0.9273
  327MOL0     H44120   4.915   4.750   2.361  2.8689  0.3707  3.1100
  327MOL0     H44121   4.934   4.521   2.443 -1.7055  0.4151 -0.5527
  327MOL0     H44122   4.979   4.642   2.566  0.3282  0.6558 -0.6260
  327MOL0     H44123   4.856   4.455   2.651  1.7123  3.8374  1.0802
  327MOL0     H44124   4.703   4.484   2.575 -2.6686  1.6069  2.7652
  327MOL0     H44125   4.665   4.682   2.691 -2.6113 -3.9220  0.3072
  327MOL0     H44126   4.837   4.707   2.725 -1.7203  2.9839 -4.5464
  327MOL0     H44127   4.648   4.740   1.857  0.8177  0.3725  0.2320
  327MOL0     H44128   4.614   4.863   1.648 -3.7771  0.0990  2.6649
  327MOL0     H44129   4.518   4.827   1.211 -0.3130 -0.8676  0.6867
  327MOL0     H44130   4.447   4.933   0.998  0.5031 -1.1011 -1.5214
  327MOL0     H44131   5.285   6.469   0.897  0.0976  1.3809  2.2821
  327MOL0     H44132   5.409   6.584   1.071  3.4643  1.0993 -0.8869
  327MOL0     H44133   5.752   6.650   1.397  0.5360 -1.5464 -0.2096
  327MOL0     H44134   5.857   6.676   1.606 -0.6903  1.8062 -0.1111
  327MOL0     H44135   5.950   6.505   1.802 -0.7352  1.2017 -0.9318
  327MOL0     H44136   5.950   6.680   1.803  1.2363  2.1232  2.8124
  327MOL0     H44137   5.891   6.521   2.048 -2.4676  0.9795 -0.2454
  327MOL0     H44138   5.919   6.697   2.038 -0.5782 -1.6768  1.4861
  327MOL0     H44139   6.102   6.563   2.132 -0.3650 -2.7317 -0.9580
  327MOL0     H44140   6.145   6.666   2.002 -2.2597  2.2679  0.4476
  327MOL0     H44141   6.273   6.456   2.005  0.7164 -0.1077 -1.1139
  327MOL0     H44142   6.191   6.481   1.855 -1.3459  0.6051 -0.6659
  327MOL0     H44143   6.021   6.121   2.015  0.6697 -0.8416 -1.8644
  327MOL0     H44144   5.564   6.455   1.811 -0.0966 -1.1314 -0.5997
  327MOL0     H44145   5.423   6.443   1.608 -0.0571  0.3359 -1.1358
  328MOL0     O44146   4.688   2.590   6.723 -0.2482 -0.2055 -0.2624
  328MOL0     C44147   4.661   2.544   6.612 -0.0237  0.0605 -0.6873
  328MOL0     O44148   4.747   2.527   6.507  0.5372 -0.6707 -0.5815
  328MOL0     C44149   4.880   2.570   6.508  0.2840  1.0909 -0.0736
  328MOL0     C44150   4.961   2.557   6.628  0.3315  0.5608 -0.2300
  328MOL0     C44151   5.096   2.595   6.621 -0.4218 -0.1334  0.4373
  328MOL0     C44152   5.162   2.625   6.501 -0.2389 -0.6766  0.0992
  328MOL0     O44153   5.301   2.648   6.497  0.8099 -0.0252 -0.4448
  328MOL0     C44154   5.373   2.696   6.604 -0.0088  0.1764 -0.2190
  328MOL0     C44155   5.509   2.750   6.575  0.2866  1.0565 -0.7626
  328MOL0     C44156   5.577   2.827   6.702 -0.1765 -0.7735  0.0041
  328MOL0     C44157   5.588   2.750   6.831 -0.0235  0.3073  0.0660
  328MOL0     C44158   5.459   2.753   6.915  0.0351 -0.0160 -0.0130
  328MOL0     C44159   5.487   2.722   7.062  0.3270  0.1390  1.3193
  328MOL0     C44160   5.359   2.767   7.140  0.0603  0.5278  0.6556
  328MOL0     C44161   5.365   2.761   7.294  1.3653  0.4814 -0.2220
  328MOL0     N44162   5.227   2.729   7.341  0.4702 -0.0762 -0.5615
  328MOL0     C44163   5.157   2.611   7.309 -0.0474 -0.1263  1.0917
  328MOL0     C44164   5.039   2.620   7.380  0.0908  0.2654 -0.3226
  328MOL0     C44165   4.932   2.516   7.367  0.7930 -0.6732  0.3285
  328MOL0     C44166   4.935   2.425   7.491 -1.4367 -0.5836  1.1310
  328MOL0     C44167   4.841   2.301   7.469  0.0561  0.6499  0.9433
  328MOL0     C44168   4.832   2.214   7.596  1.1627 -0.8109 -0.0158
  328MOL0     O44169   4.766   2.080   7.571 -0.0136 -0.0393 -0.0784
  328MOL0     C44170   4.628   2.092   7.552  0.3794  0.4814  0.3651
  328MOL0     C44171   4.535   2.187   7.606 -0.0849  0.1253 -0.0050
  328MOL0     C44172   4.396   2.177   7.584  0.6632 -0.1326  1.1133
  328MOL0     C44173   4.309   2.277   7.660  1.3675 -0.0563 -0.5542
  328MOL0     C44174   4.343   2.082   7.493  0.0540 -0.6550 -0.9677
  328MOL0     C44175   4.194   2.063   7.476  0.0992  0.2836 -0.1572
  328MOL0     O44176   4.154   1.925   7.452 -0.0730 -0.5742 -0.1518
  328MOL0     C44177   4.025   1.917   7.416  0.0510  0.5467 -0.0430
  328MOL0     C44178   3.989   1.920   7.281 -0.9607  1.6931  0.3611
  328MOL0     C44179   3.857   1.918   7.244  0.0299  0.0572  0.1199
  328MOL0     C44180   3.749   1.895   7.337 -0.6586  0.0942  0.1882
  328MOL0     O44181   3.617   1.870   7.307  0.1992  0.2200 -0.4464
  328MOL0     C44182   3.560   1.941   7.200  0.3609  0.0832 -0.3648
  328MOL0     C44183   3.408   1.942   7.213  0.0893 -0.4652 -0.9515
  328MOL0     C44184   3.352   1.848   7.110 -0.2811 -0.1151 -0.6621
  328MOL0     C44185   3.286   1.917   6.993  0.0667  0.4076  0.2130
  328MOL0     C44186   3.234   1.811   6.904  0.1391  1.0922 -0.0635
  328MOL0     C44187   3.190   1.863   6.768  0.0109  0.3606 -0.3715
  328MOL0     C44188   3.112   1.762   6.689 -0.1507  0.8870  0.6789
  328MOL0     C44189   2.957   1.770   6.713 -0.7167 -1.0107 -0.4970
  328MOL0    Cl44190   2.898   1.925   6.668 -0.2026 -0.0933  0.3668
  328MOL0     C44191   3.788   1.903   7.476 -0.3425  1.4181 -0.7191
  328MOL0     C44192   3.921   1.928   7.512  0.0778 -0.5215  0.9942
  328MOL0     O44193   4.128   2.163   7.461 -0.7844 -0.8148 -0.0150
  328MOL0     C44194   4.431   1.986   7.445 -0.1253 -0.3492 -0.3645
  328MOL0     C44195   4.568   1.995   7.467  0.0478 -0.3567 -0.5240
  328MOL0     N44196   5.041   2.738   7.444  0.7883  0.2852 -0.8721
  328MOL0     N44197   5.149   2.803   7.421 -0.9772  0.4242  0.1182
  328MOL0     C44198   5.086   2.632   6.382  0.6159 -0.0957 -0.7408
  328MOL0     C44199   4.947   2.598   6.384 -0.2981 -0.4691 -0.3642
  328MOL0     C44200   4.509   2.514   6.593  0.2235 -0.3995  0.2751
  328MOL0     C44201   4.417   2.540   6.694  0.5835 -1.1958  0.3833
  328MOL0     C44202   4.285   2.498   6.674  0.5074  0.2792 -0.7258
  328MOL0     C44203   4.224   2.458   6.554  0.0949  0.6900  0.1688
  328MOL0     O44204   4.097   2.434   6.521  0.5786 -0.7046 -0.2530
  328MOL0     C44205   4.010   2.517   6.598  0.1757 -0.1570  0.2672
  328MOL0     C44206   3.868   2.485   6.551  0.2872 -0.9993 -0.5123
  328MOL0     C44207   3.751   2.575   6.618 -0.2290  0.5516  0.1096
  328MOL0     C44208   3.611   2.553   6.558  1.1350  0.1628  0.2342
  328MOL0     C44209   3.552   2.420   6.586  1.1454 -1.1711 -0.4351
  328MOL0     C44210   3.504   2.317   6.632 -0.3487  1.0236 -0.2509
  328MOL0     C44211   4.319   2.429   6.455 -0.2655  0.4432 -0.4598
  328MOL0     C44212   4.460   2.455   6.473  0.1764 -0.1697  0.3404
  328MOL0     H44213   4.916   2.516   6.718  0.0243 -0.6503 -0.9052
  328MOL0     H44214   5.153   2.578   6.711  1.5009 -2.6757 -1.1172
  328MOL0     H44215   5.320   2.785   6.638 -0.9533 -0.0306 -1.0926
  328MOL0     H44216   5.378   2.626   6.687  1.1601  1.1065  0.5153
  328MOL0     H44217   5.579   2.673   6.542  1.7082  2.1489 -0.4266
  328MOL0     H44218   5.515   2.815   6.488  0.7308 -2.5759 -3.6725
  328MOL0     H44219   5.676   2.865   6.676  0.6927 -0.9678  2.6725
  328MOL0     H44220   5.516   2.915   6.726  2.6733  1.6798 -1.0457
  328MOL0     H44221   5.610   2.646   6.804  0.6204 -0.2310  2.4455
  328MOL0     H44222   5.669   2.796   6.888 -0.5866 -1.4317  2.4105
  328MOL0     H44223   5.419   2.855   6.912  0.0127 -0.0208  0.0968
  328MOL0     H44224   5.376   2.694   6.874 -0.9594  0.6091  1.0424
  328MOL0     H44225   5.506   2.614   7.070  3.0297  0.5521  1.4328
  328MOL0     H44226   5.570   2.778   7.106  1.3969 -0.5002  0.1935
  328MOL0     H44227   5.353   2.873   7.114 -0.7230  0.7999  1.8762
  328MOL0     H44228   5.275   2.709   7.098  1.7632 -3.7177  2.5682
  328MOL0     H44229   5.398   2.849   7.351 -0.7604  0.2779  1.4313
  328MOL0     H44230   5.435   2.686   7.331 -0.2498 -0.5421  0.8555
  328MOL0     H44231   5.191   2.541   7.234 -0.0549  0.5387  0.4588
  328MOL0     H44232   4.834   2.565   7.357  1.9638  3.0934  4.1708
  328MOL0     H44233   4.959   2.470   7.271  0.7981  2.1718 -1.1379
  328MOL0     H44234   4.908   2.475   7.585 -1.5212  2.1133 -0.2146
  328MOL0     H44235   5.041   2.398   7.488 -1.2242  0.2721 -1.2533
  328MOL0     H44236   4.866   2.246   7.378 -2.5043  1.9678 -0.6653
  328MOL0     H44237   4.744   2.346   7.447 -0.2339 -0.1653  0.5119
  328MOL0     H44238   4.788   2.279   7.672  0.8874  1.4991 -2.0480
  328MOL0     H44239   4.935   2.199   7.631  0.8182 -0.4793  1.2062
  328MOL0     H44240   4.581   2.268   7.662  0.7517  0.2112 -0.7989
  328MOL0     H44241   4.370   2.334   7.731  0.8753 -1.3735  0.9825
  328MOL0     H44242   4.269   2.353   7.592  0.0558  0.8584  1.1340
  328MOL0     H44243   4.215   2.238   7.702 -0.1710  2.1788 -1.7067
  328MOL0     H44244   4.056   1.909   7.195 -0.2415 -4.0773  1.2367
  328MOL0     H44245   3.826   1.924   7.140 -1.2413  3.6149  0.5559
  328MOL0     H44246   3.586   2.047   7.194 -1.6866  0.6246 -0.3091
  328MOL0     H44247   3.598   1.896   7.108  5.5824 -0.1103  1.5200
  328MOL0     H44248   3.376   1.899   7.309  0.4621  1.1466 -0.0805
  328MOL0     H44249   3.378   2.046   7.199  4.0912  1.0289  0.1458
  328MOL0     H44250   3.269   1.793   7.156 -0.2653  0.7283  0.4141
  328MOL0     H44251   3.424   1.768   7.091 -0.2635 -0.3328  0.2811
  328MOL0     H44252   3.213   1.986   7.036  2.2051  3.9068 -1.2749
  328MOL0     H44253   3.354   1.979   6.934 -1.3132  1.8467  0.0653
  328MOL0     H44254   3.161   1.758   6.965  1.5212  0.9618  1.5363
  328MOL0     H44255   3.321   1.746   6.887  1.4629  2.7147  0.1979
  328MOL0     H44256   3.134   1.950   6.802 -2.2239 -1.9989  2.6758
  328MOL0     H44257   3.277   1.885   6.706 -0.2176 -1.3606 -1.3721
  328MOL0     H44258   3.153   1.663   6.709 -1.8199  0.6125  3.1716
  328MOL0     H44259   3.127   1.772   6.581 -0.5928  0.3527  0.5666
  328MOL0     H44260   2.927   1.750   6.816 -1.9131  3.4224  0.2194
  328MOL0     H44261   2.911   1.694   6.649  1.1878  0.6370 -4.1114
  328MOL0     H44262   3.726   1.906   7.565  1.1954  2.7957  0.3491
  328MOL0     H44263   3.938   1.943   7.618  0.8134  2.3761  0.5435
  328MOL0     H44264   4.390   1.906   7.384 -2.5944  1.1815 -0.8216
  328MOL0     H44265   4.644   1.926   7.433  0.3110 -0.2382 -0.1797
  328MOL0     H44266   5.123   2.649   6.282 -2.5839  1.1300 -1.8355
  328MOL0     H44267   4.896   2.596   6.288  1.0599 -0.1600 -1.1200
  328MOL0     H44268   4.461   2.572   6.788  0.8656 -3.9771  1.2843
  328MOL0     H44269   4.204   2.494   6.745 -1.1751 -4.0219 -2.5247
  328MOL0     H44270   4.027   2.482   6.700  3.4633 -0.9868 -0.4408
  328MOL0     H44271   4.028   2.624   6.586 -1.5747 -0.0494 -2.2144
  328MOL0     H44272   3.853   2.380   6.581 -1.7439 -0.8276 -0.7540
  328MOL0     H44273   3.864   2.503   6.444 -1.4392  1.5652 -0.1017
  328MOL0     H44274   3.785   2.679   6.622  1.0428  0.2037 -0.8436
  328MOL0     H44275   3.741   2.553   6.724 -1.5430 -1.6057 -0.3990
  328MOL0     H44276   3.587   2.577   6.455  1.9521  2.2669  0.4901
  328MOL0     H44277   3.555   2.632   6.609  2.2251 -0.4781  2.5675
  328MOL0     H44278   3.462   2.224   6.662 -0.5762  2.2314  3.6766
  328MOL0     H44279   4.291   2.406   6.353 -0.1782 -0.4971 -0.2854
  328MOL0     H44280   4.535   2.431   6.398  0.7851  1.1179  0.5096
  329MOL0     O44281   2.395   0.928   6.396 -0.0468  0.4968 -0.1853
  329MOL0     C44282   2.511   0.899   6.365 -0.0303 -0.6683 -0.4110
  329MOL0     O44283   2.607   0.994   6.327 -0.0357 -0.0928  0.1671
  329MOL0     C44284   2.591   1.127   6.297  0.2955 -0.3241 -1.0529
  329MOL0     C44285   2.473   1.203   6.314 -0.0531 -0.5718  0.1068
  329MOL0     C44286   2.471   1.342   6.293  0.8201  0.3737  0.1824
  329MOL0     C44287   2.581   1.410   6.259  0.2191 -1.0171  0.0245
  329MOL0     O44288   2.567   1.550   6.228  0.3682  0.2369 -0.0426
  329MOL0     C44289   2.685   1.627   6.195 -0.4265  0.1631 -0.0093
  329MOL0     C44290   2.643   1.767   6.157 -1.4865  0.0037 -0.1800
  329MOL0     C44291   2.550   1.835   6.262 -0.2950 -0.6791  0.2072
  329MOL0     C44292   2.617   1.871   6.389  0.4516  0.1149 -0.2648
  329MOL0     C44293   2.522   1.971   6.464  0.6780  0.9629  0.6963
  329MOL0     C44294   2.596   2.023   6.581 -0.0197 -0.3235 -0.2984
  329MOL0     C44295   2.512   2.110   6.673 -0.0838  0.4161  0.3730
  329MOL0     C44296   2.585   2.151   6.793 -0.0396  0.0194 -0.6540
  329MOL0     N44297   2.496   2.174   6.907 -0.3233 -0.9173  0.9725
  329MOL0     C44298   2.475   2.082   7.018  0.8495 -0.9231  0.6992
  329MOL0     C44299   2.379   2.150   7.088  0.1161 -0.5559 -0.2519
  329MOL0     C44300   2.324   2.110   7.229 -0.1826  0.0101 -0.3945
  329MOL0     C44301   2.194   2.018   7.214  0.9005 -0.4134  0.1941
  329MOL0     C44302   2.084   2.073   7.125  0.4402 -0.3478 -0.6919
  329MOL0     C44303   1.952   1.997   7.131 -0.2449  0.2511 -0.2428
  329MOL0     O44304   1.889   2.046   7.250  1.0084  1.0222  0.9781
  329MOL0     C44305   1.757   2.015   7.269  0.1140  0.1539 -1.2856
  329MOL0     C44306   1.696   2.076   7.386 -0.2759 -0.4360  0.0944
  329MOL0     C44307   1.558   2.056   7.412  0.4815  0.1119  0.3797
  329MOL0     C44308   1.495   2.119   7.537 -0.5517  0.4708  0.1138
  329MOL0     C44309   1.479   1.974   7.332  0.4022  0.8365 -0.2739
  329MOL0     C44310   1.335   1.932   7.355 -0.0040  0.1071 -0.7948
  329MOL0     O44311   1.311   1.803   7.321  0.1609  0.6084 -0.0905
  329MOL0     C44312   1.182   1.749   7.317 -0.6804  0.0328 -0.1961
  329MOL0     C44313   1.145   1.615   7.359 -0.3218 -0.1413  0.0845
  329MOL0     C44314   1.015   1.569   7.340 -0.2999  0.5600 -0.3009
  329MOL0     C44315   0.919   1.658   7.301 -0.5091  0.5486 -0.8726
  329MOL0     O44316   0.786   1.621   7.294 -0.6115 -0.0426 -0.2353
  329MOL0     C44317   0.747   1.485   7.286  0.1816  0.8681  0.2554
  329MOL0     C44318   0.604   1.455   7.249  0.7836 -1.1783  0.7069
  329MOL0     C44319   0.569   1.554   7.134 -0.0794  0.8827  0.3029
  329MOL0     C44320   0.465   1.492   7.043 -0.2020 -0.0960 -0.4440
  329MOL0     C44321   0.433   1.595   6.939  0.5160  0.6847 -0.1659
  329MOL0     C44322   0.345   1.546   6.829 -0.0886  0.3787 -0.9159
  329MOL0     C44323   0.418   1.479   6.713  0.3302 -0.4384  0.2609
  329MOL0     C44324   0.400   1.328   6.734  0.2176  0.3340 -0.3189
  329MOL0    Cl44325   0.231   1.292   6.677 -0.2606  0.2701  0.4412
  329MOL0     C44326   0.950   1.792   7.263 -0.1554  0.3724 -0.0052
  329MOL0     C44327   1.080   1.834   7.264 -0.2779  0.6011 -0.2071
  329MOL0     O44328   1.255   2.007   7.413 -0.7071  0.1824  0.6280
  329MOL0     C44329   1.540   1.906   7.224 -1.4138  0.3054  0.7709
  329MOL0     C44330   1.682   1.932   7.187 -0.5687  0.7670  0.6238
  329MOL0     N44331   2.340   2.265   7.026 -0.5731 -0.2880 -0.1376
  329MOL0     N44332   2.416   2.283   6.922  0.3429  0.0494  0.2397
  329MOL0     C44333   2.706   1.346   6.267  1.2624 -0.0684  0.6878
  329MOL0     C44334   2.706   1.204   6.280  0.5251  1.0252  0.3521
  329MOL0     C44335   2.549   0.756   6.360  0.9265  1.0371 -0.4733
  329MOL0     C44336   2.681   0.721   6.337 -0.1945 -0.6738  0.1722
  329MOL0     C44337   2.722   0.586   6.348 -0.0019 -0.3558  0.4954
  329MOL0     C44338   2.622   0.487   6.374 -0.1902 -0.0336  0.4414
  329MOL0     O44339   2.658   0.353   6.381 -0.2569 -0.2796 -0.0492
  329MOL0     C44340   2.590   0.275   6.284  0.0024 -0.0627 -0.0008
  329MOL0     C44341   2.506   0.168   6.342  0.8188 -0.1346  0.7328
  329MOL0     C44342   2.578   0.079   6.443 -0.3660 -0.5785  0.7073
  329MOL0     C44343   2.679  -0.009   6.370  0.3360 -0.7444  0.4592
  329MOL0     C44344   2.762  -0.073   6.471  0.0601  0.4694  0.8462
  329MOL0     C44345   2.830  -0.127   6.559  0.6059  0.1857  0.3641
  329MOL0     C44346   2.491   0.528   6.383 -0.6841  0.1856  0.1324
  329MOL0     C44347   2.453   0.661   6.386  0.1804 -0.5266  0.5076
  329MOL0     H44348   2.374   1.160   6.324  0.3583 -1.1530  2.0761
  329MOL0     H44349   2.381   1.403   6.293  1.0754  0.7656 -0.8124
  329MOL0     H44350   2.753   1.627   6.280  0.7631 -0.7421 -0.9215
  329MOL0     H44351   2.752   1.591   6.117  0.0381 -1.1099  0.9320
  329MOL0     H44352   2.731   1.832   6.162  0.5876 -2.6694  0.5973
  329MOL0     H44353   2.606   1.763   6.054 -0.2603 -1.3866 -0.6086
  329MOL0     H44354   2.511   1.925   6.214 -2.5976 -0.2044  2.7307
  329MOL0     H44355   2.468   1.770   6.294  0.7700 -2.7547 -1.0904
  329MOL0     H44356   2.643   1.790   6.458  2.1043  0.9116  0.0980
  329MOL0     H44357   2.706   1.930   6.368  1.9306 -2.4088 -1.5028
  329MOL0     H44358   2.496   2.052   6.396 -0.8737  0.0616  0.1819
  329MOL0     H44359   2.431   1.920   6.496  1.1872 -0.8553 -0.5803
  329MOL0     H44360   2.634   1.942   6.644 -1.0328  0.3245  1.1990
  329MOL0     H44361   2.684   2.078   6.545 -1.1077  2.2774  0.8075
  329MOL0     H44362   2.485   2.203   6.622 -0.4602 -0.8373 -1.8767
  329MOL0     H44363   2.428   2.050   6.708  2.5969 -3.3373  0.9294
  329MOL0     H44364   2.642   2.244   6.780 -0.0060  0.0415 -0.3490
  329MOL0     H44365   2.667   2.084   6.820  1.5711  2.1909  0.1664
  329MOL0     H44366   2.526   1.988   7.036  0.6695 -0.8022  1.8900
  329MOL0     H44367   2.396   2.067   7.299  0.2754  1.7981  0.2868
  329MOL0     H44368   2.287   2.205   7.269 -2.3353  0.4874 -3.2321
  329MOL0     H44369   2.157   1.989   7.313  1.6560 -2.7290 -0.1373
  329MOL0     H44370   2.222   1.922   7.168  1.9442  1.2414 -2.9435
  329MOL0     H44371   2.116   2.062   7.021 -0.9177 -0.7674 -1.0855
  329MOL0     H44372   2.066   2.181   7.124  0.2040 -0.3803 -0.3404
  329MOL0     H44373   1.987   1.894   7.139  0.1084  0.3365 -0.6860
  329MOL0     H44374   1.896   2.009   7.038  2.3275 -1.0677 -2.0628
  329MOL0     H44375   1.751   2.136   7.458 -0.6871  1.4407 -1.0915
  329MOL0     H44376   1.395   2.158   7.518 -2.7319 -5.4113 -3.4600
  329MOL0     H44377   1.481   2.044   7.615  0.2539  0.6796  0.4652
  329MOL0     H44378   1.562   2.200   7.567 -0.2785  0.0680  0.5932
  329MOL0     H44379   1.233   1.567   7.400 -0.6547 -0.0012  0.9772
  329MOL0     H44380   1.000   1.464   7.363 -0.6559  0.5289 -0.6668
  329MOL0     H44381   0.799   1.429   7.207 -1.2774 -2.5922  1.5488
  329MOL0     H44382   0.764   1.438   7.382 -3.1475  2.0642  1.5915
  329MOL0     H44383   0.595   1.350   7.221  0.1615 -0.7990 -0.6292
  329MOL0     H44384   0.526   1.470   7.323 -2.8087  2.6156 -3.2719
  329MOL0     H44385   0.653   1.551   7.064  0.3868 -3.0912  0.7878
  329MOL0     H44386   0.538   1.649   7.176  1.1843  1.1576  0.6441
  329MOL0     H44387   0.502   1.405   6.988 -0.8939 -0.6499 -0.0505
  329MOL0     H44388   0.381   1.456   7.102  1.9206 -1.2687  2.0214
  329MOL0     H44389   0.528   1.628   6.897 -0.2064  0.2694 -2.2518
  329MOL0     H44390   0.388   1.680   6.990  1.8618  1.5043 -0.3134
  329MOL0     H44391   0.260   1.489   6.867  2.2499 -2.7714  0.0148
  329MOL0     H44392   0.296   1.636   6.791  0.8146  1.4326  0.3067
  329MOL0     H44393   0.521   1.516   6.713  1.1340 -2.4768 -1.6328
  329MOL0     H44394   0.378   1.494   6.612 -0.2165 -2.8089  0.0789
  329MOL0     H44395   0.409   1.294   6.838  2.9282 -0.9009 -0.8638
  329MOL0     H44396   0.469   1.261   6.682 -0.1358 -1.3459  1.2588
  329MOL0     H44397   0.880   1.870   7.235  0.4453  0.1344 -2.3938
  329MOL0     H44398   1.109   1.932   7.228  2.9787 -0.9958 -2.4752
  329MOL0     H44399   1.496   1.838   7.152  3.2744  0.0038 -2.3054
  329MOL0     H44400   1.720   1.881   7.099  0.6583 -1.7747  2.5084
  329MOL0     H44401   2.797   1.405   6.258 -0.0564  1.7177 -3.0622
  329MOL0     H44402   2.802   1.154   6.290 -0.0189  0.3496  2.6552
  329MOL0     H44403   2.746   0.804   6.313 -2.1417  1.1195  0.8209
  329MOL0     H44404   2.822   0.544   6.342 -1.2140 -3.3182 -0.8526
  329MOL0     H44405   2.531   0.338   6.217  0.6183 -2.4118 -2.9732
  329MOL0     H44406   2.665   0.232   6.217  0.5350 -2.4689  1.9791
  329MOL0     H44407   2.471   0.100   6.264 -2.6896 -0.0467  2.0541
  329MOL0     H44408   2.415   0.211   6.385  1.0004  0.1722  0.8160
  329MOL0     H44409   2.509   0.028   6.511  0.0517  0.2084  1.7496
  329MOL0     H44410   2.633   0.152   6.504 -1.3544  2.0196 -1.2797
  329MOL0     H44411   2.738   0.049   6.298  0.0975 -1.3333 -0.2284
  329MOL0     H44412   2.626  -0.080   6.305 -0.4566  1.3953 -1.3843
  329MOL0     H44413   2.877  -0.173   6.643 -1.9335 -0.7485  1.3954
  329MOL0     H44414   2.418   0.449   6.401  0.1330 -0.4393  0.7747
  329MOL0     H44415   2.354   0.697   6.409  0.1769 -0.2006 -0.0295
  330MOL0     O44416   5.672   1.422   1.778 -0.3728  0.8993 -0.2754
  330MOL0     C44417   5.785   1.468   1.760 -0.1458  0.4246  1.6011
  330MOL0     O44418   5.842   1.560   1.842 -0.0745 -0.6965  0.2648
  330MOL0     C44419   5.793   1.577   1.969 -0.8173 -1.5558  0.3285
  330MOL0     C44420   5.773   1.464   2.057  0.5170 -0.4964 -0.7764
  330MOL0     C44421   5.689   1.484   2.173  0.1750  0.3551  0.9616
  330MOL0     C44422   5.636   1.607   2.202 -0.1404  0.4470 -0.9251
  330MOL0     O44423   5.559   1.615   2.319 -0.3376 -0.4761  0.4963
  330MOL0     C44424   5.493   1.740   2.350  0.3715  0.1295 -0.7870
  330MOL0     C44425   5.364   1.775   2.280  0.1966 -0.6722  0.5418
  330MOL0     C44426   5.250   1.676   2.281  0.0652 -0.6257 -0.0881
  330MOL0     C44427   5.235   1.568   2.170 -0.1996  0.1324 -0.5712
  330MOL0     C44428   5.111   1.478   2.187  0.5369 -0.2225 -0.4499
  330MOL0     C44429   5.077   1.399   2.056 -0.0792  0.2921 -0.3979
  330MOL0     C44430   5.074   1.467   1.914 -0.3485 -0.2400 -0.4434
  330MOL0     C44431   4.969   1.575   1.878  0.2126  0.5164 -0.5685
  330MOL0     N44432   4.828   1.533   1.890  0.1800 -0.3120  0.1307
  330MOL0     C44433   4.764   1.411   1.859 -0.2729  0.1069 -0.1272
  330MOL0     C44434   4.631   1.422   1.888 -0.5692 -0.4767 -0.2410
  330MOL0     C44435   4.532   1.319   1.858 -0.7219  0.0232 -0.2188
  330MOL0     C44436   4.420   1.365   1.780  1.0376 -1.1186 -0.0673
  330MOL0     C44437   4.349   1.491   1.837 -0.1898  0.6034  0.0738
  330MOL0     C44438   4.314   1.481   1.998  0.2117 -0.2449  0.5205
  330MOL0     O44439   4.179   1.420   2.017  0.1710  0.8512  0.4436
  330MOL0     C44440   4.113   1.437   2.135 -0.0965 -0.4683 -0.7662
  330MOL0     C44441   4.153   1.531   2.231 -0.6521 -0.4070  0.0315
  330MOL0     C44442   4.097   1.529   2.363  0.7608 -0.1469  0.0373
  330MOL0     C44443   4.153   1.613   2.480 -0.3009  0.3955 -0.8537
  330MOL0     C44444   3.983   1.447   2.385  0.6176  0.6184  0.0311
  330MOL0     C44445   3.906   1.427   2.513  0.8351  0.5978  0.0292
  330MOL0     O44446   3.867   1.297   2.545  0.1137  0.4412  0.4460
  330MOL0     C44447   3.851   1.251   2.670  0.4906 -0.8648 -0.0409
  330MOL0     C44448   3.873   1.118   2.691  0.5439  0.7402  0.3364
  330MOL0     C44449   3.848   1.067   2.822 -0.3933  0.0596  0.1269
  330MOL0     C44450   3.784   1.145   2.927 -0.2940  0.1739 -0.0785
  330MOL0     O44451   3.754   1.085   3.046  0.6174 -0.2468  0.6051
  330MOL0     C44452   3.783   0.948   3.076  0.4408  0.2872  0.3414
  330MOL0     C44453   3.739   0.905   3.214 -0.2752  1.2093 -0.2300
  330MOL0     C44454   3.597   0.925   3.249  0.7541 -0.5532 -0.4308
  330MOL0     C44455   3.570   0.887   3.396  1.0072 -0.0102  0.1171
  330MOL0     C44456   3.418   0.877   3.420  0.2480  0.9655 -0.6328
  330MOL0     C44457   3.381   0.838   3.567 -1.3105 -0.5911  0.0271
  330MOL0     C44458   3.231   0.857   3.601  0.8851  0.2354 -0.7839
  330MOL0     C44459   3.184   0.759   3.714  0.4689 -0.3326  0.0524
  330MOL0    Cl44460   3.058   0.843   3.821  0.3943  0.0577 -0.1577
  330MOL0     C44461   3.749   1.273   2.891 -0.3565 -0.5766 -0.0141
  330MOL0     C44462   3.797   1.331   2.773 -0.5734 -0.0820 -0.4666
  330MOL0     O44463   3.886   1.528   2.581 -0.0825  0.0536 -0.2188
  330MOL0     C44464   3.939   1.356   2.284 -0.7747 -0.0105  0.1746
  330MOL0     C44465   4.011   1.350   2.163 -0.4853  0.2748  0.5079
  330MOL0     N44466   4.621   1.532   1.961 -0.1977 -0.7425 -0.4814
  330MOL0     N44467   4.732   1.604   1.951  0.1514 -0.5901 -0.0886
  330MOL0     C44468   5.669   1.722   2.114  0.4819 -1.3993 -0.3943
  330MOL0     C44469   5.734   1.701   1.995 -0.3221 -0.1699  0.4512
  330MOL0     C44470   5.865   1.425   1.643 -0.3160 -0.2857  0.1663
  330MOL0     C44471   6.005   1.457   1.634  0.2322 -0.0147  0.5085
  330MOL0     C44472   6.083   1.408   1.521 -0.5195 -0.4348  0.4970
  330MOL0     C44473   6.018   1.340   1.415 -0.0296  0.2307 -0.2028
  330MOL0     O44474   6.091   1.280   1.307  0.4404 -0.3366  0.3015
  330MOL0     C44475   6.229   1.279   1.300 -0.0017  0.5482  0.0686
  330MOL0     C44476   6.271   1.190   1.186 -0.6195  0.6273  0.4976
  330MOL0     C44477   6.419   1.150   1.183  0.1697 -0.0550 -0.9555
  330MOL0     C44478   6.475   1.142   1.041 -0.2014 -0.4573  1.1091
  330MOL0     C44479   6.610   1.081   1.032  0.7888  0.1240  0.5871
  330MOL0     C44480   6.718   1.023   1.022 -0.5476 -1.1409  0.7285
  330MOL0     C44481   5.881   1.329   1.419  0.5140 -0.0719 -0.3776
  330MOL0     C44482   5.805   1.357   1.538  0.4848 -0.0318 -0.1558
  330MOL0     H44483   5.814   1.365   2.041 -2.8824 -2.0103 -0.7229
  330MOL0     H44484   5.647   1.403   2.231  0.0147 -0.3483 -0.1009
  330MOL0     H44485   5.483   1.744   2.459  0.2780 -2.9297 -0.6053
  330MOL0     H44486   5.572   1.813   2.328 -0.0716  0.8875  0.0701
  330MOL0     H44487   5.325   1.870   2.319 -1.1188 -0.2226 -1.7136
  330MOL0     H44488   5.383   1.775   2.173  1.0824  1.8273  0.6447
  330MOL0     H44489   5.242   1.621   2.376 -3.3678  0.3897  0.3245
  330MOL0     H44490   5.164   1.742   2.275  1.9810  1.8979 -3.2981
  330MOL0     H44491   5.232   1.621   2.074 -0.7184  1.7552  0.2996
  330MOL0     H44492   5.324   1.506   2.184 -0.9457 -0.5152  1.5009
  330MOL0     H44493   5.140   1.417   2.273 -1.3338  1.5568  1.6036
  330MOL0     H44494   5.030   1.545   2.220  1.2745 -0.2856  1.6245
  330MOL0     H44495   5.150   1.319   2.044 -1.3145 -1.2054  1.4271
  330MOL0     H44496   4.979   1.352   2.066  0.8925 -1.6902  0.3520
  330MOL0     H44497   5.174   1.503   1.886 -1.2823  1.8445 -1.3384
  330MOL0     H44498   5.055   1.379   1.853 -3.2084 -1.3558  1.8285
  330MOL0     H44499   4.996   1.595   1.774  1.2009 -0.3392 -0.4960
  330MOL0     H44500   4.989   1.670   1.928 -2.0649  0.1594  1.1796
  330MOL0     H44501   4.817   1.324   1.822  4.0569 -0.1634  5.4414
  330MOL0     H44502   4.588   1.254   1.790  1.3721 -2.8229  3.8374
  330MOL0     H44503   4.493   1.265   1.944 -0.6672  0.8193  0.3113
  330MOL0     H44504   4.341   1.289   1.776 -1.8182  1.3828  2.7156
  330MOL0     H44505   4.440   1.390   1.676 -1.0610 -1.5403 -0.6311
  330MOL0     H44506   4.269   1.507   1.765 -1.2341  1.1574  1.3162
  330MOL0     H44507   4.415   1.577   1.826 -0.9966  1.1070 -0.9853
  330MOL0     H44508   4.310   1.586   2.025  0.8597  0.6590 -2.4906
  330MOL0     H44509   4.382   1.422   2.060  3.1194  2.9152  0.5918
  330MOL0     H44510   4.240   1.588   2.201  0.7207 -4.1962 -4.2784
  330MOL0     H44511   4.256   1.585   2.504 -0.6912 -0.8504 -0.5173
  330MOL0     H44512   4.139   1.717   2.450  0.8980  1.5886  2.3301
  330MOL0     H44513   4.102   1.601   2.576  2.7084 -1.1744  0.6854
  330MOL0     H44514   3.910   1.048   2.617  1.9488 -0.2200  1.8924
  330MOL0     H44515   3.873   0.964   2.847 -0.3618  0.6346  2.7584
  330MOL0     H44516   3.725   0.886   3.006  3.0917 -0.4724 -1.3282
  330MOL0     H44517   3.883   0.910   3.054 -0.9569 -2.4360 -2.1399
  330MOL0     H44518   3.746   0.796   3.222 -2.8772  0.5210 -4.3784
  330MOL0     H44519   3.806   0.961   3.280  0.1405  1.5352 -0.9174
  330MOL0     H44520   3.532   0.887   3.170  0.4548  3.0400 -2.1113
  330MOL0     H44521   3.574   1.032   3.244 -0.4201 -0.8348 -1.6789
  330MOL0     H44522   3.619   0.796   3.432  0.8567  0.5608  1.8857
  330MOL0     H44523   3.607   0.967   3.461  0.6226  0.4855 -0.2669
  330MOL0     H44524   3.375   0.798   3.359 -0.7653 -1.3800  2.8206
  330MOL0     H44525   3.370   0.974   3.405  0.8127  1.2077 -0.9060
  330MOL0     H44526   3.420   0.737   3.584 -1.5341 -0.3635  2.1149
  330MOL0     H44527   3.436   0.906   3.633 -0.0810 -1.1223 -0.4221
  330MOL0     H44528   3.161   0.830   3.521  1.0272  0.4362 -0.9752
  330MOL0     H44529   3.198   0.960   3.618  3.0210  1.1480 -1.8050
  330MOL0     H44530   3.258   0.729   3.789 -1.2169  0.0511  1.9661
  330MOL0     H44531   3.127   0.680   3.665  0.2507 -0.2188  0.1204
  330MOL0     H44532   3.704   1.343   2.961  0.0018  0.7352 -1.0337
  330MOL0     H44533   3.769   1.434   2.753  3.0457  0.7844 -1.8985
  330MOL0     H44534   3.851   1.296   2.306 -2.3105  2.0368 -0.1301
  330MOL0     H44535   3.973   1.284   2.086  1.1066  0.0873 -0.1407
  330MOL0     H44536   5.629   1.821   2.131  1.0837 -1.0463 -1.0022
  330MOL0     H44537   5.734   1.783   1.923 -1.3175 -1.2965 -0.9010
  330MOL0     H44538   6.059   1.500   1.718  2.4779  1.5322 -1.5799
  330MOL0     H44539   6.191   1.408   1.528 -0.4325  0.4229 -0.6106
  330MOL0     H44540   6.275   1.377   1.288  1.4753 -0.3400 -2.2562
  330MOL0     H44541   6.257   1.236   1.397  2.7516  1.1690 -0.3721
  330MOL0     H44542   6.248   1.254   1.100 -0.6640  2.1232  1.5839
  330MOL0     H44543   6.221   1.093   1.174  0.9285 -0.0654 -0.8133
  330MOL0     H44544   6.430   1.070   1.256 -1.5280  2.4735  2.3126
  330MOL0     H44545   6.468   1.236   1.230 -1.0826  0.3540 -0.3453
  330MOL0     H44546   6.477   1.245   1.003 -0.5877 -1.3266 -1.4565
  330MOL0     H44547   6.409   1.086   0.974  3.3782 -2.5411 -0.9522
  330MOL0     H44548   6.815   0.979   1.028  0.5022  0.8012 -0.7629
  330MOL0     H44549   5.826   1.297   1.330  1.2854 -0.0594 -0.8688
  330MOL0     H44550   5.698   1.340   1.536  0.1275  1.5611  1.7175
  331MOL0     O44551  10.296   4.499   3.663 -0.1603  0.1959  0.4675
  331MOL0     C44552  10.260   4.388   3.632 -1.0820  0.3074  0.3552
  331MOL0     O44553  10.134   4.335   3.638  0.4647  0.3041 -0.4737
  331MOL0     C44554  10.026   4.424   3.642  0.7337 -0.4689  0.7303
  331MOL0     C44555   9.927   4.400   3.555  0.2377  0.0661  1.0555
  331MOL0     C44556   9.815   4.486   3.537 -0.4100 -0.3045 -0.3397
  331MOL0     C44557   9.803   4.605   3.612  0.1610  0.2337  0.2096
  331MOL0     O44558   9.698   4.684   3.583 -0.4256  0.2744 -0.6283
  331MOL0     C44559   9.570   4.629   3.597  0.7345 -0.2384  0.3464
  331MOL0     C44560   9.534   4.622   3.744 -0.2468 -0.0859 -0.5534
  331MOL0     C44561   9.392   4.562   3.755  0.9270  0.0430 -0.3090
  331MOL0     C44562   9.324   4.616   3.875  0.0816 -0.0875  0.0911
  331MOL0     C44563   9.200   4.530   3.897 -0.4075  0.4450  0.1962
  331MOL0     C44564   9.116   4.604   3.997  1.0238  0.1674  0.4228
  331MOL0     C44565   8.970   4.558   3.986 -0.7291  0.3164  1.0135
  331MOL0     C44566   8.897   4.620   4.106  0.2666 -0.5338 -0.4386
  331MOL0     N44567   8.762   4.557   4.116 -0.0060 -0.0057  0.0891
  331MOL0     C44568   8.721   4.478   4.220  0.0622  0.6409 -0.0254
  331MOL0     C44569   8.590   4.440   4.201  0.2071 -0.3569 -0.6379
  331MOL0     C44570   8.502   4.376   4.304  1.0051 -0.4157 -0.0443
  331MOL0     C44571   8.358   4.358   4.247  1.0204 -0.5722  0.5106
  331MOL0     C44572   8.269   4.289   4.344  0.2543  0.6566 -0.2464
  331MOL0     C44573   8.124   4.280   4.316  0.0868  0.8665  0.0969
  331MOL0     O44574   8.068   4.402   4.354 -0.0101 -0.3589 -1.0724
  331MOL0     C44575   7.934   4.423   4.351 -0.1508  0.0805  1.6425
  331MOL0     C44576   7.887   4.516   4.436 -0.0453  0.7517 -0.3751
  331MOL0     C44577   7.755   4.533   4.460 -0.0192  0.5963 -0.2714
  331MOL0     C44578   7.711   4.641   4.553  0.2129  0.2472  0.5533
  331MOL0     C44579   7.657   4.445   4.404  0.0002 -0.2343  0.2213
  331MOL0     C44580   7.507   4.440   4.442 -0.1189  0.3611  0.4294
  331MOL0     O44581   7.461   4.317   4.410  1.1927 -0.9512 -0.0115
  331MOL0     C44582   7.325   4.311   4.383 -0.1536  0.2994 -0.2514
  331MOL0     C44583   7.298   4.252   4.257  0.7810 -0.2527  0.1911
  331MOL0     C44584   7.167   4.209   4.225 -0.3280 -0.0903 -0.2875
  331MOL0     C44585   7.060   4.241   4.312  0.5397 -0.6878 -0.1140
  331MOL0     O44586   6.932   4.196   4.279 -0.1911 -0.4116 -0.3986
  331MOL0     C44587   6.822   4.222   4.364 -0.1944 -0.3015  0.2711
  331MOL0     C44588   6.714   4.130   4.304  0.5359 -0.5955  0.2338
  331MOL0     C44589   6.576   4.184   4.343 -0.5528  0.5127 -0.5045
  331MOL0     C44590   6.466   4.092   4.287  0.6555 -1.0883 -0.1233
  331MOL0     C44591   6.327   4.138   4.341  0.7485  0.5242  0.1764
  331MOL0     C44592   6.216   4.033   4.317 -0.2061 -0.2534 -0.0981
  331MOL0     C44593   6.075   4.091   4.335  0.2706  0.9774 -0.6014
  331MOL0     C44594   5.972   3.973   4.313  0.0330  0.5716 -0.6480
  331MOL0    Cl44595   5.801   4.028   4.302  0.0882  0.5013 -0.1040
  331MOL0     C44596   7.083   4.309   4.435  0.0505 -0.3034 -0.0008
  331MOL0     C44597   7.217   4.344   4.471  0.4594 -0.5485 -0.3506
  331MOL0     O44598   7.447   4.533   4.488 -0.0738 -0.4362  0.9528
  331MOL0     C44599   7.716   4.345   4.316  0.3868 -0.1716 -0.1502
  331MOL0     C44600   7.849   4.345   4.281  0.6149  1.2004 -0.4075
  331MOL0     N44601   8.560   4.514   4.080 -0.1893 -0.9087  0.4898
  331MOL0     N44602   8.655   4.596   4.042 -0.0295  0.6843  0.6677
  331MOL0     C44603   9.908   4.640   3.700  1.2560  0.4245  0.4353
  331MOL0     C44604  10.017   4.551   3.711  0.3138 -0.3702  0.5815
  331MOL0     C44605  10.365   4.315   3.551  0.1085 -0.8660 -0.5297
  331MOL0     C44606  10.496   4.359   3.522  0.6713 -0.2843 -0.4064
  331MOL0     C44607  10.581   4.281   3.435  0.3215 -0.4361 -1.3431
  331MOL0     C44608  10.537   4.158   3.385  1.4553  0.5332 -0.1978
  331MOL0     O44609  10.626   4.091   3.303 -0.4284 -0.3436 -0.3669
  331MOL0     C44610  10.627   3.951   3.308  0.8582 -0.0994 -0.4436
  331MOL0     C44611  10.755   3.896   3.260 -0.2493  0.2236  0.0865
  331MOL0     C44612  10.757   3.737   3.235  0.2571 -0.1630  0.0304
  331MOL0     C44613  10.722   3.689   3.093 -0.3822  0.3010 -1.1085
  331MOL0     C44614  10.599   3.748   3.045 -0.7173  0.0573  0.3907
  331MOL0     C44615  10.500   3.806   3.006  0.0250  1.0300 -0.1633
  331MOL0     C44616  10.410   4.110   3.425 -1.1308 -0.0962 -0.2644
  331MOL0     C44617  10.331   4.188   3.507 -0.9066  0.0390 -0.1187
  331MOL0     H44618   9.946   4.308   3.499  2.0281 -0.1036  1.8606
  331MOL0     H44619   9.737   4.464   3.465  1.0285  1.9980 -2.7961
  331MOL0     H44620   9.507   4.695   3.537  2.5758  1.3397  0.0546
  331MOL0     H44621   9.562   4.529   3.555 -2.6976 -0.2626  0.7712
  331MOL0     H44622   9.611   4.559   3.789  1.8873  3.5767  1.4240
  331MOL0     H44623   9.546   4.723   3.785 -0.8065 -0.7136  1.2604
  331MOL0     H44624   9.346   4.580   3.658  1.7932 -1.2584 -0.9948
  331MOL0     H44625   9.401   4.453   3.765 -2.8489 -0.3336  0.6159
  331MOL0     H44626   9.398   4.617   3.955 -2.0411 -1.0317  2.1580
  331MOL0     H44627   9.295   4.720   3.855 -1.9338 -0.6673 -0.1995
  331MOL0     H44628   9.153   4.500   3.802  1.7930 -1.0414 -0.4999
  331MOL0     H44629   9.226   4.432   3.938 -1.8007 -1.9634 -3.9921
  331MOL0     H44630   9.162   4.602   4.096  0.4033  3.7691  0.9237
  331MOL0     H44631   9.107   4.709   3.966  1.9947  0.5872  1.4916
  331MOL0     H44632   8.924   4.600   3.896 -0.5613 -0.0658  0.7439
  331MOL0     H44633   8.955   4.449   3.979 -1.8120  0.4932  0.3254
  331MOL0     H44634   8.904   4.729   4.105 -0.5660 -0.4397  0.8599
  331MOL0     H44635   8.950   4.592   4.198 -2.9388  2.4688  2.6464
  331MOL0     H44636   8.795   4.436   4.288 -1.0290 -0.4981  0.4939
  331MOL0     H44637   8.542   4.276   4.325 -0.1726 -1.0680 -0.7278
  331MOL0     H44638   8.507   4.433   4.397  1.7238 -0.3078 -0.1410
  331MOL0     H44639   8.367   4.305   4.152 -3.4434  1.1488 -1.1484
  331MOL0     H44640   8.309   4.449   4.210 -0.2807 -0.6280  1.9578
  331MOL0     H44641   8.282   4.335   4.442 -0.5029  2.1329 -0.8149
  331MOL0     H44642   8.303   4.187   4.366  1.6459  1.0536 -0.4774
  331MOL0     H44643   8.068   4.198   4.362  1.4991 -1.2701 -1.7733
  331MOL0     H44644   8.100   4.269   4.210 -3.0410  1.0604  0.6950
  331MOL0     H44645   7.961   4.578   4.486 -0.4924 -1.1509  2.8729
  331MOL0     H44646   7.652   4.589   4.630 -1.4926 -0.9484 -1.4716
  331MOL0     H44647   7.805   4.684   4.589  2.0167 -3.4521  0.6168
  331MOL0     H44648   7.648   4.709   4.494 -0.7512 -1.1045 -0.0125
  331MOL0     H44649   7.382   4.218   4.197 -0.9517 -0.7100 -2.1537
  331MOL0     H44650   7.152   4.151   4.135 -1.1887  0.7624 -0.7127
  331MOL0     H44651   6.838   4.180   4.464  2.9051 -1.8890 -0.7702
  331MOL0     H44652   6.790   4.327   4.365 -1.5456 -0.6424 -1.5794
  331MOL0     H44653   6.711   4.152   4.197 -0.4201  0.7346  0.5151
  331MOL0     H44654   6.730   4.024   4.328  1.8045  0.0496  2.7021
  331MOL0     H44655   6.555   4.288   4.316  1.0033  1.1754  0.7138
  331MOL0     H44656   6.570   4.188   4.452  1.9674  0.7034 -0.3123
  331MOL0     H44657   6.459   4.097   4.178 -3.5277  2.9606  0.0122
  331MOL0     H44658   6.499   3.991   4.311 -0.7651 -1.5735 -0.1438
  331MOL0     H44659   6.298   4.224   4.281 -2.2829  1.0955  2.2222
  331MOL0     H44660   6.325   4.158   4.449 -2.1313  1.2498  0.0712
  331MOL0     H44661   6.212   4.002   4.212 -0.4927  0.1994 -0.2248
  331MOL0     H44662   6.239   3.947   4.381 -1.4189  0.4600  1.3901
  331MOL0     H44663   6.050   4.165   4.258 -1.3648  1.3520  0.2561
  331MOL0     H44664   6.061   4.125   4.438 -0.2687  1.4529 -0.8304
  331MOL0     H44665   5.985   3.892   4.385 -1.0889  1.6669  0.8536
  331MOL0     H44666   5.977   3.927   4.214 -0.2046 -1.5611  0.2755
  331MOL0     H44667   6.999   4.316   4.503  0.0812 -1.1768  0.1405
  331MOL0     H44668   7.232   4.385   4.570 -1.9450 -0.1329 -0.0973
  331MOL0     H44669   7.651   4.273   4.266  0.6174 -0.8832  0.5466
  331MOL0     H44670   7.881   4.277   4.202 -1.9180 -0.6620  0.0532
  331MOL0     H44671   9.895   4.732   3.756  0.3615  1.4631 -1.3806
  331MOL0     H44672  10.098   4.569   3.781 -0.6050  1.7041  1.1900
  331MOL0     H44673  10.525   4.453   3.568 -0.4310 -0.7406  1.3037
  331MOL0     H44674  10.683   4.311   3.411  0.6733 -2.2966 -2.4031
  331MOL0     H44675  10.614   3.919   3.412  0.3307 -1.3947 -0.8826
  331MOL0     H44676  10.555   3.916   3.233 -0.8988 -0.1429  1.1795
  331MOL0     H44677  10.848   3.919   3.313  0.1208  1.8306 -1.1809
  331MOL0     H44678  10.751   3.943   3.161 -2.8295  1.3744  0.6562
  331MOL0     H44679  10.686   3.685   3.300 -0.3254 -0.6585 -0.9758
  331MOL0     H44680  10.856   3.696   3.254 -0.1926 -1.2948  0.0202
  331MOL0     H44681  10.717   3.580   3.085 -0.3885  0.2518 -0.5315
  331MOL0     H44682  10.799   3.722   3.023 -0.0171  0.9538 -0.4164
  331MOL0     H44683  10.412   3.851   2.965 -0.5666 -1.4177 -1.8376
  331MOL0     H44684  10.361   4.021   3.386 -1.1084  0.1182 -0.7776
  331MOL0     H44685  10.230   4.151   3.523  0.2033 -2.2289  2.3112
  332MOL0     O44686   1.222   8.068   0.400  0.4799  0.3969 -0.0310
  332MOL0     C44687   1.173   8.170   0.439 -0.2274  0.8621 -0.5235
  332MOL0     O44688   1.234   8.266   0.513  0.1193  0.3501  0.2106
  332MOL0     C44689   1.367   8.255   0.551  0.9852 -0.0018  0.7894
  332MOL0     C44690   1.427   8.156   0.623 -1.0812 -0.4017  0.5059
  332MOL0     C44691   1.565   8.153   0.628 -0.2794 -0.2121 -0.3000
  332MOL0     C44692   1.646   8.260   0.585 -1.2246 -0.9173  0.0174
  332MOL0     O44693   1.782   8.258   0.599 -0.7019  0.5975 -0.8500
  332MOL0     C44694   1.851   8.359   0.529 -0.5546  0.4806 -0.4015
  332MOL0     C44695   1.994   8.320   0.504 -1.1302  0.0963  0.1416
  332MOL0     C44696   2.019   8.187   0.427 -0.2291  0.4908 -0.0970
  332MOL0     C44697   2.153   8.184   0.355 -0.6135  0.3991  0.3049
  332MOL0     C44698   2.263   8.132   0.456 -0.4634 -0.8375 -0.8876
  332MOL0     C44699   2.405   8.137   0.385 -0.1597  0.4456  0.3595
  332MOL0     C44700   2.518   8.129   0.489  0.4816 -0.3875 -0.1279
  332MOL0     C44701   2.652   8.114   0.421 -1.2543 -0.1854 -0.5772
  332MOL0     N44702   2.672   8.220   0.334  0.7503  0.0303  0.4544
  332MOL0     C44703   2.675   8.358   0.371 -1.1007  1.2026 -0.4851
  332MOL0     C44704   2.698   8.424   0.262 -0.3844 -0.1173  0.2462
  332MOL0     C44705   2.708   8.576   0.253  0.7772 -1.2173  0.3957
  332MOL0     C44706   2.577   8.642   0.213  0.1189 -0.3733 -0.1142
  332MOL0     C44707   2.529   8.580   0.077 -0.4174 -0.0278  0.6407
  332MOL0     C44708   2.405   8.670   0.036  0.1378 -0.1609  0.3592
  332MOL0     O44709   2.372   8.643  -0.098 -0.1913  0.2946  1.1259
  332MOL0     C44710   2.254   8.674  -0.152 -0.4652 -0.9840 -0.6509
  332MOL0     C44711   2.205   8.806  -0.137  0.4935  1.2324 -0.2966
  332MOL0     C44712   2.071   8.840  -0.154  0.8476 -0.0801  0.3768
  332MOL0     C44713   2.034   8.988  -0.137  0.2801 -0.4621  0.1455
  332MOL0     C44714   1.980   8.736  -0.192 -0.9199 -0.4785  0.2100
  332MOL0     C44715   1.830   8.756  -0.214 -0.6321  0.6236 -0.2918
  332MOL0     O44716   1.758   8.638  -0.232  0.3997 -0.6388 -0.2556
  332MOL0     C44717   1.623   8.646  -0.244 -0.0403  0.4782  0.1956
  332MOL0     C44718   1.545   8.723  -0.158  0.0219  0.1991 -0.4871
  332MOL0     C44719   1.404   8.719  -0.169 -0.1794 -1.0123 -0.5602
  332MOL0     C44720   1.343   8.656  -0.280 -0.4110  0.2139 -0.2345
  332MOL0     O44721   1.211   8.653  -0.281  0.0861  0.4125 -0.3347
  332MOL0     C44722   1.143   8.780  -0.254  0.5751 -0.8679 -0.2797
  332MOL0     C44723   0.998   8.759  -0.311  0.2370 -0.4645  0.1557
  332MOL0     C44724   0.988   8.750  -0.464  0.3656 -0.3734  0.6251
  332MOL0     C44725   0.853   8.704  -0.514  0.1942  0.0549 -0.6703
  332MOL0     C44726   0.844   8.706  -0.659 -0.6844 -0.5565  0.4699
  332MOL0     C44727   0.703   8.678  -0.710  0.6384 -0.4435  0.1811
  332MOL0     C44728   0.677   8.709  -0.859 -0.7126  0.3733  0.4659
  332MOL0     C44729   0.662   8.853  -0.909  0.7930 -0.9403  0.0299
  332MOL0    Cl44730   0.541   8.846  -1.043 -0.5837 -0.2466  0.1188
  332MOL0     C44731   1.415   8.587  -0.378  0.5805  0.5900 -0.3891
  332MOL0     C44732   1.556   8.579  -0.354  0.2849 -0.0564 -0.4610
  332MOL0     O44733   1.781   8.865  -0.238  0.1198  0.1089 -0.5402
  332MOL0     C44734   2.028   8.604  -0.215 -0.2741  0.1321  0.0175
  332MOL0     C44735   2.164   8.582  -0.195 -0.2994  0.0410  0.0096
  332MOL0     N44736   2.723   8.330   0.163  0.4013 -0.0071  0.2924
  332MOL0     N44737   2.693   8.214   0.201  0.0985  0.1937  0.1878
  332MOL0     C44738   1.582   8.371   0.539  0.4817  0.1575 -0.5601
  332MOL0     C44739   1.444   8.365   0.508 -0.0447 -0.0115  0.1103
  332MOL0     C44740   1.031   8.197   0.400 -0.4645 -0.5101  0.0191
  332MOL0     C44741   0.954   8.106   0.320 -0.1287 -0.4806 -0.5310
  332MOL0     C44742   0.823   8.147   0.279 -0.9629 -0.3739 -0.6438
  332MOL0     C44743   0.777   8.278   0.306  0.3328  0.2383 -0.3813
  332MOL0     O44744   0.661   8.330   0.253  0.5188 -0.0573  0.6597
  332MOL0     C44745   0.555   8.246   0.210  1.1553 -1.1941 -0.6896
  332MOL0     C44746   0.421   8.324   0.208 -0.1551  0.0025 -0.0954
  332MOL0     C44747   0.311   8.231   0.152  0.3985  1.4033  0.3319
  332MOL0     C44748   0.172   8.298   0.161  1.9083 -0.0629 -0.5979
  332MOL0     C44749   0.079   8.194   0.128  0.7448  0.6827  0.0032
  332MOL0     C44750  -0.015   8.112   0.115 -0.0493  1.0667  0.0204
  332MOL0     C44751   0.844   8.359   0.387  0.4438  0.0540 -0.4291
  332MOL0     C44752   0.969   8.321   0.442  0.1500  0.2083  0.5902
  332MOL0     H44753   1.365   8.078   0.666 -0.6860 -1.7646 -1.2811
  332MOL0     H44754   1.614   8.074   0.684 -0.4980  1.7039  2.8364
  332MOL0     H44755   1.816   8.374   0.426 -1.6637  0.0228 -0.1057
  332MOL0     H44756   1.847   8.453   0.585 -2.8406 -1.7492  3.6497
  332MOL0     H44757   2.053   8.393   0.448  0.2560 -1.0569  0.0204
  332MOL0     H44758   2.050   8.322   0.598  1.2412  2.3956 -1.1755
  332MOL0     H44759   1.998   8.106   0.498  0.3311  1.6534  1.4536
  332MOL0     H44760   1.952   8.158   0.345 -0.1975 -2.9181  0.9390
  332MOL0     H44761   2.137   8.098   0.290 -0.0731 -1.3171  2.3165
  332MOL0     H44762   2.175   8.275   0.299 -1.2874 -1.3792 -3.1776
  332MOL0     H44763   2.276   8.203   0.539  2.7157 -3.2609  0.8811
  332MOL0     H44764   2.231   8.036   0.497 -2.0983 -0.4065 -1.0438
  332MOL0     H44765   2.412   8.041   0.332  2.6553 -0.5816  2.3333
  332MOL0     H44766   2.412   8.214   0.308 -0.4816 -1.4729 -1.6846
  332MOL0     H44767   2.519   8.217   0.554  0.1504 -0.5128  0.0499
  332MOL0     H44768   2.503   8.043   0.555 -0.1863  1.6332  2.5113
  332MOL0     H44769   2.652   8.015   0.375  0.2054 -0.3326 -0.2884
  332MOL0     H44770   2.733   8.115   0.493 -1.7075  0.4312 -0.0628
  332MOL0     H44771   2.640   8.404   0.463  1.8613  2.4141  0.1638
  332MOL0     H44772   2.735   8.619   0.350  0.3569  0.3012 -0.1279
  332MOL0     H44773   2.781   8.621   0.184 -0.2532 -0.0846  0.0027
  332MOL0     H44774   2.583   8.751   0.214  0.8430 -0.4046  0.7399
  332MOL0     H44775   2.508   8.613   0.293  1.4609 -4.7755 -0.2852
  332MOL0     H44776   2.494   8.479   0.099  2.5506 -0.7093  2.8130
  332MOL0     H44777   2.609   8.576   0.003 -1.5219 -0.6736 -0.5547
  332MOL0     H44778   2.436   8.775   0.039 -1.7871  0.4681 -0.5323
  332MOL0     H44779   2.327   8.654   0.111  1.0550 -0.2459  1.3197
  332MOL0     H44780   2.262   8.892  -0.100 -0.3484  0.9539  1.8057
  332MOL0     H44781   2.120   9.051  -0.111  2.2499 -2.3235 -1.5458
  332MOL0     H44782   1.984   9.028  -0.226  0.4650  0.8829  0.6172
  332MOL0     H44783   1.972   8.998  -0.047  1.5691 -1.3482  1.1647
  332MOL0     H44784   1.600   8.786  -0.089 -0.7474  1.8199 -1.3106
  332MOL0     H44785   1.353   8.777  -0.092  0.1241 -1.8386  0.2734
  332MOL0     H44786   1.135   8.812  -0.150 -1.2116  2.4289 -1.3167
  332MOL0     H44787   1.195   8.861  -0.306  2.3503 -0.8961  1.3136
  332MOL0     H44788   0.954   8.667  -0.270 -0.9861 -0.8130 -1.8126
  332MOL0     H44789   0.933   8.841  -0.281 -1.1916 -1.2567 -0.6610
  332MOL0     H44790   1.062   8.676  -0.496  0.2598 -0.9181  1.5799
  332MOL0     H44791   1.014   8.841  -0.518  1.2448 -0.6492  0.5666
  332MOL0     H44792   0.832   8.607  -0.466  2.2669 -0.4820 -0.7316
  332MOL0     H44793   0.778   8.775  -0.478  1.8753  1.0168  1.1596
  332MOL0     H44794   0.915   8.632  -0.698 -0.9426  0.9511 -3.3444
  332MOL0     H44795   0.878   8.802  -0.700  1.3534 -1.2232  0.5081
  332MOL0     H44796   0.687   8.571  -0.696  0.6144 -0.8791 -2.5954
  332MOL0     H44797   0.623   8.734  -0.659 -0.8853 -0.0567 -2.4540
  332MOL0     H44798   0.580   8.663  -0.881 -1.3865  1.6535  0.6271
  332MOL0     H44799   0.759   8.661  -0.912  0.4031  1.3510  1.2559
  332MOL0     H44800   0.756   8.906  -0.928 -0.1760  0.1717 -2.1353
  332MOL0     H44801   0.612   8.919  -0.838  3.2737  0.7661  0.3100
  332MOL0     H44802   1.363   8.538  -0.461 -0.7517  0.1268  0.6767
  332MOL0     H44803   1.618   8.516  -0.417 -0.0270 -1.0637  0.2140
  332MOL0     H44804   1.964   8.520  -0.238 -0.4662  1.0052 -3.1234
  332MOL0     H44805   2.202   8.481  -0.212  1.5109  0.7585 -0.4230
  332MOL0     H44806   1.626   8.465   0.507 -0.1193  0.5393 -0.2757
  332MOL0     H44807   1.393   8.442   0.451  0.8935  0.0529 -0.6611
  332MOL0     H44808   0.995   8.009   0.293  2.0397  1.0322 -3.1010
  332MOL0     H44809   0.760   8.084   0.218 -2.0874  0.1074 -0.0059
  332MOL0     H44810   0.575   8.203   0.112 -3.2333  0.8378 -2.7825
  332MOL0     H44811   0.541   8.166   0.284  1.1757 -1.0177 -0.4931
  332MOL0     H44812   0.427   8.421   0.157  2.0124  0.8363  1.5595
  332MOL0     H44813   0.399   8.354   0.311  1.0589  1.0839 -0.1182
  332MOL0     H44814   0.307   8.130   0.192  0.6281  1.0881 -0.4188
  332MOL0     H44815   0.336   8.222   0.046  0.9382  1.7789  0.4245
  332MOL0     H44816   0.161   8.378   0.088 -1.7685 -0.1464 -0.3110
  332MOL0     H44817   0.166   8.338   0.263  2.6334 -1.6295  0.1026
  332MOL0     H44818  -0.099   8.048   0.098  0.0059  1.2431 -0.9274
  332MOL0     H44819   0.812   8.460   0.410  2.1055  0.3117  1.0325
  332MOL0     H44820   1.019   8.389   0.509 -3.0320 -0.2255  3.7010
  333MOL0     O44821   4.952   9.255   9.053  0.6651  0.7812  0.0044
  333MOL0     C44822   4.911   9.249   9.171 -0.2242  0.8207  0.4279
  333MOL0     O44823   4.991   9.212   9.286  0.4275  0.2928  1.0602
  333MOL0     C44824   5.127   9.179   9.265 -0.5057 -0.4173 -0.4649
  333MOL0     C44825   5.163   9.076   9.163 -0.3559 -0.6338 -0.4837
  333MOL0     C44826   5.288   9.026   9.167 -0.6016 -0.1183  0.2455
  333MOL0     C44827   5.382   9.070   9.252 -0.6363  0.4586 -1.2729
  333MOL0     O44828   5.507   9.013   9.237  0.1852 -0.8428 -0.6132
  333MOL0     C44829   5.573   8.969   9.357 -0.0626 -0.2561  0.6531
  333MOL0     C44830   5.707   8.892   9.322 -1.4554 -0.7866 -0.7845
  333MOL0     C44831   5.801   8.995   9.247 -0.0449 -0.0229  0.0027
  333MOL0     C44832   5.930   8.933   9.211 -0.7994  0.2110  0.4827
  333MOL0     C44833   6.044   9.032   9.171 -0.8494 -0.2749  0.1918
  333MOL0     C44834   6.185   8.975   9.169 -0.7198 -0.1638 -0.4866
  333MOL0     C44835   6.290   9.090   9.165  0.6875 -0.1391 -0.6106
  333MOL0     C44836   6.430   9.037   9.139  0.6407 -0.0710  0.0692
  333MOL0     N44837   6.521   9.145   9.166  0.0010  0.2113  0.2675
  333MOL0     C44838   6.610   9.206   9.079 -0.4807  0.7449 -0.4105
  333MOL0     C44839   6.690   9.281   9.165 -0.5074 -0.0856 -0.5028
  333MOL0     C44840   6.806   9.366   9.136 -1.0764 -0.2908 -0.8864
  333MOL0     C44841   6.770   9.509   9.155  0.6599  1.1440 -0.1941
  333MOL0     C44842   6.878   9.605   9.104  0.0091  0.0018 -0.6068
  333MOL0     C44843   6.848   9.762   9.106 -0.3487 -0.6755 -0.1276
  333MOL0     O44844   6.748   9.781   9.009  0.0503  0.0336  0.6542
  333MOL0     C44845   6.635   9.854   9.061 -0.3133  0.6405  0.8461
  333MOL0     C44846   6.640   9.990   9.048 -0.9083 -0.3611 -0.1463
  333MOL0     C44847   6.541  10.075   9.108 -0.0774 -0.3917  0.1227
  333MOL0     C44848   6.537  10.229   9.083 -0.1829  0.9996 -0.2336
  333MOL0     C44849   6.432  10.019   9.177  0.3066  0.5858 -1.0203
  333MOL0     C44850   6.320  10.086   9.252 -0.9937 -0.5139 -0.0374
  333MOL0     O44851   6.200  10.023   9.259 -0.0933  0.0719  0.2672
  333MOL0     C44852   6.092  10.102   9.283 -0.2534 -0.6531  0.4626
  333MOL0     C44853   6.058  10.132   9.418  0.3591  0.6424 -0.2559
  333MOL0     C44854   5.954  10.226   9.446  0.2777 -0.3670 -0.6149
  333MOL0     C44855   5.876  10.274   9.342 -0.7386 -0.3495  0.4535
  333MOL0     O44856   5.773  10.365   9.365 -0.3853  0.3459 -0.4172
  333MOL0     C44857   5.748  10.426   9.489  0.4380 -0.0392  0.1174
  333MOL0     C44858   5.666  10.336   9.577  0.0275 -0.0343 -0.0937
  333MOL0     C44859   5.645  10.389   9.719 -1.2020 -0.5826  0.4905
  333MOL0     C44860   5.597  10.293   9.821 -0.3037  0.1588 -0.0463
  333MOL0     C44861   5.470  10.234   9.783  0.7256 -0.0729  0.1251
  333MOL0     C44862   5.414  10.146   9.891  0.6858  0.4651 -0.2223
  333MOL0     C44863   5.271  10.098   9.854 -0.2531  0.1610 -0.2675
  333MOL0     C44864   5.227   9.994   9.956  0.4573  1.0107 -0.2691
  333MOL0    Cl44865   5.066   9.920   9.921 -0.0501 -0.1659  0.0041
  333MOL0     C44866   5.900  10.232   9.208  0.6125  0.2587 -0.3554
  333MOL0     C44867   6.015  10.159   9.181 -0.7594 -0.3364  0.0903
  333MOL0     O44868   6.349  10.187   9.317  0.2044  0.5349  0.2138
  333MOL0     C44869   6.415   9.876   9.161  0.7802  0.5483  0.2501
  333MOL0     C44870   6.517   9.792   9.108  0.3004 -0.6492 -0.4758
  333MOL0     N44871   6.652   9.260   9.303  0.2121  0.9660  0.6624
  333MOL0     N44872   6.556   9.179   9.294  0.5061  0.1171 -0.1671
  333MOL0     C44873   5.351   9.168   9.349 -0.0813 -0.1483  1.2338
  333MOL0     C44874   5.228   9.227   9.356  0.2672  1.5385  0.5822
  333MOL0     C44875   4.764   9.259   9.194  0.5919 -0.1518 -0.5799
  333MOL0     C44876   4.707   9.230   9.321  0.2045 -0.3524 -0.4782
  333MOL0     C44877   4.570   9.221   9.328  1.0260  0.3996 -0.5652
  333MOL0     C44878   4.482   9.246   9.218  0.2212 -0.2615 -0.9839
  333MOL0     O44879   4.339   9.240   9.212 -0.2886 -0.3068 -0.5610
  333MOL0     C44880   4.273   9.163   9.311 -0.0675  0.0195 -0.1349
  333MOL0     C44881   4.131   9.149   9.277  0.4965  0.4043  0.2072
  333MOL0     C44882   4.052   9.072   9.393  0.5451  0.6299  0.6312
  333MOL0     C44883   3.895   9.084   9.374 -0.1428  0.2586  1.3168
  333MOL0     C44884   3.819   9.003   9.465  0.7971  0.2244  0.2886
  333MOL0     C44885   3.740   8.934   9.521 -0.4419  0.1468 -0.5622
  333MOL0     C44886   4.543   9.286   9.095  0.0178 -0.0677  0.0910
  333MOL0     C44887   4.679   9.286   9.091 -1.1086 -0.1188 -0.0552
  333MOL0     H44888   5.101   9.034   9.084 -1.5410 -0.0296  0.0997
  333MOL0     H44889   5.321   8.956   9.090  1.6464  2.2699 -1.1499
  333MOL0     H44890   5.595   9.065   9.405 -2.8353  1.1325 -0.5897
  333MOL0     H44891   5.506   8.902   9.411  0.7212 -1.7538 -0.1834
  333MOL0     H44892   5.757   8.858   9.413  0.5623 -3.0043 -2.6003
  333MOL0     H44893   5.684   8.807   9.257 -4.6210 -0.4553 -0.3002
  333MOL0     H44894   5.746   9.030   9.159 -0.7989 -2.3534 -0.5316
  333MOL0     H44895   5.829   9.081   9.308  2.8931 -0.4438 -0.5911
  333MOL0     H44896   5.978   8.876   9.291  1.3755 -0.5514 -1.2491
  333MOL0     H44897   5.917   8.865   9.125 -0.3996 -3.5449  3.1331
  333MOL0     H44898   6.015   9.077   9.076 -1.2909  3.0603  1.7712
  333MOL0     H44899   6.053   9.115   9.242 -0.5329 -0.4408  0.3477
  333MOL0     H44900   6.208   8.916   9.258  0.8941  0.2964 -0.5653
  333MOL0     H44901   6.195   8.911   9.081  2.0892  2.1408 -2.0151
  333MOL0     H44902   6.271   9.157   9.081 -0.3777 -0.9554 -1.0367
  333MOL0     H44903   6.273   9.152   9.254  0.3084 -0.5171 -0.4112
  333MOL0     H44904   6.440   8.995   9.039 -4.7421 -1.2763 -0.2703
  333MOL0     H44905   6.447   8.960   9.215 -1.8389 -1.1477 -0.3739
  333MOL0     H44906   6.607   9.207   8.970 -0.9596  2.5384 -0.4124
  333MOL0     H44907   6.889   9.345   9.205 -0.8199  0.3147 -1.0039
  333MOL0     H44908   6.841   9.347   9.034  2.6552  3.5443 -0.6366
  333MOL0     H44909   6.750   9.533   9.259 -2.3920  1.0840 -0.6672
  333MOL0     H44910   6.672   9.522   9.107  0.8005  1.3699 -0.4273
  333MOL0     H44911   6.908   9.576   9.002 -3.0193  0.1791 -1.6381
  333MOL0     H44912   6.958   9.591   9.178 -1.0901  1.5639  0.9601
  333MOL0     H44913   6.941   9.813   9.078  0.3192 -1.8590 -0.1465
  333MOL0     H44914   6.820   9.793   9.207  2.2390 -3.0132  1.4568
  333MOL0     H44915   6.722  10.042   8.999  1.1518 -2.0666  1.3013
  333MOL0     H44916   6.458  10.253   9.011  1.9281  3.2933 -1.9493
  333MOL0     H44917   6.511  10.283   9.175 -0.5049  0.9142 -0.2723
  333MOL0     H44918   6.633  10.268   9.049  0.3727  1.6739  1.9821
  333MOL0     H44919   6.119  10.090   9.497 -2.0679 -2.2535  0.2675
  333MOL0     H44920   5.941  10.242   9.552  0.7868 -0.8084 -0.4788
  333MOL0     H44921   5.838  10.469   9.534 -0.7364  3.4927 -0.5737
  333MOL0     H44922   5.687  10.516   9.472 -0.3600 -0.5563  0.1728
  333MOL0     H44923   5.568  10.312   9.533  0.5757 -1.2219 -0.7309
  333MOL0     H44924   5.725  10.244   9.575  3.3133  1.8224 -4.1682
  333MOL0     H44925   5.575  10.472   9.735 -1.1200 -0.2479 -0.7993
  333MOL0     H44926   5.742  10.424   9.754 -0.8512 -2.5725  1.6580
  333MOL0     H44927   5.679  10.224   9.846 -1.6463 -0.9257  1.5805
  333MOL0     H44928   5.584  10.343   9.917  0.7767  0.5682 -0.1014
  333MOL0     H44929   5.481  10.173   9.693  1.6681  0.1431  0.0755
  333MOL0     H44930   5.401  10.317   9.770  1.7294  1.3863  3.0370
  333MOL0     H44931   5.485  10.062   9.893  4.1163  3.1474  2.0785
  333MOL0     H44932   5.419  10.193   9.989 -0.0388 -0.1136  0.0990
  333MOL0     H44933   5.271  10.055   9.753  0.0831  0.2847 -0.3235
  333MOL0     H44934   5.204  10.185   9.851 -1.2867 -0.2908  4.0512
  333MOL0     H44935   5.221  10.035  10.057 -2.9288  1.1839 -0.4476
  333MOL0     H44936   5.300   9.912   9.967  0.4159  0.8792 -0.9326
  333MOL0     H44937   5.833  10.268   9.130  2.8710  2.1925 -1.5329
  333MOL0     H44938   6.047  10.134   9.080  2.4391  0.0436  0.9015
  333MOL0     H44939   6.327   9.827   9.203 -0.0039 -0.3732 -2.2711
  333MOL0     H44940   6.493   9.686   9.101 -2.6344  0.0001 -1.7902
  333MOL0     H44941   5.432   9.205   9.411  1.5184 -1.0745 -0.2048
  333MOL0     H44942   5.191   9.294   9.432 -0.8814  0.6427  0.8448
  333MOL0     H44943   4.767   9.202   9.407 -0.1467  0.1612 -0.0596
  333MOL0     H44944   4.520   9.204   9.423 -1.0031 -0.5020 -1.7296
  333MOL0     H44945   4.321   9.065   9.306  2.3827  1.0463  1.4339
  333MOL0     H44946   4.287   9.197   9.414 -1.7246 -0.7026  0.3680
  333MOL0     H44947   4.112   9.093   9.185  0.4387 -2.2941  1.7303
  333MOL0     H44948   4.098   9.253   9.270  0.1783  0.4000  1.3105
  333MOL0     H44949   4.076   9.096   9.497  0.4813  2.7960  0.1864
  333MOL0     H44950   4.081   8.967   9.381  1.2090  0.5751  2.3905
  333MOL0     H44951   3.862   9.063   9.272  2.2362  2.8250 -0.1470
  333MOL0     H44952   3.879   9.192   9.385 -0.6927  0.2608  0.5048
  333MOL0     H44953   3.676   8.870   9.579 -0.2081  0.1934 -0.2534
  333MOL0     H44954   4.491   9.301   9.001  3.1973 -0.1270 -1.8427
  333MOL0     H44955   4.719   9.279   8.990 -1.7444 -1.5480 -0.2329
  334MOL0     O44956   1.107   8.042   5.676  0.3606  0.2278 -0.4102
  334MOL0     C44957   1.083   8.059   5.799 -0.2407  0.1455  1.4752
  334MOL0     O44958   1.177   8.016   5.899 -0.3440 -0.2751  0.2465
  334MOL0     C44959   1.274   7.938   5.859  0.3725  0.7795  0.4036
  334MOL0     C44960   1.402   7.966   5.810  0.3563 -0.7562 -0.3449
  334MOL0     C44961   1.490   7.856   5.775 -0.3767  0.5178  0.5040
  334MOL0     C44962   1.447   7.724   5.785 -0.3049 -0.6554 -0.2820
  334MOL0     O44963   1.526   7.609   5.769 -0.2389 -0.0858  0.6421
  334MOL0     C44964   1.671   7.621   5.770  0.3285  0.1470  0.4917
  334MOL0     C44965   1.745   7.495   5.804  0.0140  0.6906  0.1902
  334MOL0     C44966   1.900   7.509   5.793 -0.3338  0.0271  0.9775
  334MOL0     C44967   1.982   7.384   5.828  0.6274 -0.2074 -0.2861
  334MOL0     C44968   2.130   7.407   5.838  0.3293  0.7323  0.1788
  334MOL0     C44969   2.206   7.280   5.888  0.1015 -0.2042  0.2053
  334MOL0     C44970   2.354   7.287   5.856  0.0901  0.1111 -0.1836
  334MOL0     C44971   2.430   7.380   5.955 -0.8057  0.0701  0.2151
  334MOL0     N44972   2.494   7.311   6.065  0.6306  0.0256  0.9405
  334MOL0     C44973   2.624   7.262   6.066 -0.0304 -0.4698  0.4515
  334MOL0     C44974   2.649   7.223   6.193  0.7834  0.2900  0.4406
  334MOL0     C44975   2.760   7.149   6.255 -0.5791 -0.5659  0.1250
  334MOL0     C44976   2.894   7.232   6.270  0.3317 -0.2193  0.5665
  334MOL0     C44977   2.885   7.309   6.399  0.8386 -0.6318  0.6683
  334MOL0     C44978   3.013   7.381   6.420 -0.3663 -0.4944  0.6589
  334MOL0     O44979   3.003   7.462   6.541 -0.0935 -0.1200 -0.1921
  334MOL0     C44980   3.116   7.525   6.602  0.0921 -0.0376  0.2326
  334MOL0     C44981   3.104   7.590   6.726 -0.2936  0.0193  0.5046
  334MOL0     C44982   3.211   7.654   6.786 -0.7374  0.6996  0.0511
  334MOL0     C44983   3.175   7.734   6.916  0.2631  0.8052 -0.0414
  334MOL0     C44984   3.343   7.660   6.728 -0.2769 -0.3206  0.2292
  334MOL0     C44985   3.463   7.731   6.777  0.4347  0.3955 -0.1689
  334MOL0     O44986   3.454   7.781   6.903 -0.8469 -0.0072  0.6262
  334MOL0     C44987   3.574   7.835   6.950 -0.5391  0.2683 -0.1720
  334MOL0     C44988   3.621   7.962   6.914  0.7506 -0.0649 -0.2230
  334MOL0     C44989   3.739   8.014   6.953 -0.1649 -0.0864 -0.1718
  334MOL0     C44990   3.820   7.953   7.049  1.0631  0.5221 -0.7720
  334MOL0     O44991   3.930   8.013   7.103 -0.5598  0.0287 -0.5069
  334MOL0     C44992   3.916   8.148   7.150  0.1776 -0.7706 -0.5090
  334MOL0     C44993   3.882   8.161   7.295 -0.0040  0.2249  0.6862
  334MOL0     C44994   3.884   8.298   7.329 -0.3356 -0.4500  0.5651
  334MOL0     C44995   3.820   8.311   7.470  0.3629 -0.3171 -0.0867
  334MOL0     C44996   3.828   8.446   7.523 -0.3870 -0.4776  0.2262
  334MOL0     C44997   3.701   8.530   7.498  0.6057 -0.6938 -0.5010
  334MOL0     C44998   3.740   8.677   7.535  0.5055  0.4103 -0.3491
  334MOL0     C44999   3.749   8.701   7.681 -0.3234  0.6039 -0.5708
  334MOL0    Cl45000   3.818   8.859   7.709 -0.0046 -0.3462  0.1555
  334MOL0     C45001   3.782   7.825   7.088 -0.2413 -0.3743 -0.2730
  334MOL0     C45002   3.658   7.768   7.037 -0.5525 -0.3593  0.1963
  334MOL0     O45003   3.565   7.714   6.709  0.2408  0.0352 -0.9445
  334MOL0     C45004   3.355   7.572   6.615  0.4156 -0.2357  0.2357
  334MOL0     C45005   3.242   7.517   6.552 -1.1637  1.2111  0.1895
  334MOL0     N45006   2.535   7.250   6.262  0.6783  0.2643 -0.8132
  334MOL0     N45007   2.446   7.307   6.188 -0.8729  1.2679 -0.2665
  334MOL0     C45008   1.316   7.704   5.826  0.0838  0.8651  0.1044
  334MOL0     C45009   1.224   7.806   5.865 -0.3865  0.2915 -0.7652
  334MOL0     C45010   0.955   8.115   5.844  0.0080  0.1511  0.0287
  334MOL0     C45011   0.841   8.113   5.759 -0.6385  0.7238  0.1356
  334MOL0     C45012   0.722   8.176   5.799  0.0274 -0.3214 -0.3708
  334MOL0     C45013   0.722   8.245   5.917  0.3062 -0.2481  0.9406
  334MOL0     O45014   0.604   8.313   5.939 -0.0881 -0.3110 -0.3710
  334MOL0     C45015   0.575   8.352   6.075 -0.3805  0.0348 -0.0847
  334MOL0     C45016   0.420   8.365   6.098 -0.4743 -0.2766  0.9021
  334MOL0     C45017   0.335   8.242   6.067  0.4248  0.3684  0.7286
  334MOL0     C45018   0.205   8.253   6.134  0.6813  0.2214  0.1760
  334MOL0     C45019   0.117   8.358   6.082  0.1987  0.2456 -0.5693
  334MOL0     C45020   0.051   8.460   6.059  0.6202 -0.0505 -0.2256
  334MOL0     C45021   0.826   8.238   6.006 -0.0815  0.6257  0.2047
  334MOL0     C45022   0.951   8.173   5.968  0.3188  0.2587 -1.1669
  334MOL0     H45023   1.417   8.072   5.793  2.1296 -0.2495  3.3631
  334MOL0     H45024   1.592   7.871   5.740 -0.2348 -2.8150 -0.8355
  334MOL0     H45025   1.691   7.647   5.666 -1.0067 -0.9258 -0.0616
  334MOL0     H45026   1.711   7.701   5.834  1.4998 -0.2430  0.2577
  334MOL0     H45027   1.716   7.473   5.908 -2.1218  1.6930 -0.1537
  334MOL0     H45028   1.713   7.409   5.746  4.3657 -0.8365 -0.3094
  334MOL0     H45029   1.927   7.548   5.695 -1.9337 -0.4759  0.3093
  334MOL0     H45030   1.926   7.583   5.870 -1.2021  1.8909 -0.4515
  334MOL0     H45031   1.945   7.349   5.925 -2.0569 -0.5703 -1.3296
  334MOL0     H45032   1.976   7.304   5.753 -0.0427  0.4351 -0.9461
  334MOL0     H45033   2.158   7.423   5.733 -1.3034 -2.1678 -0.8352
  334MOL0     H45034   2.144   7.501   5.892 -1.2111  1.8373 -1.2062
  334MOL0     H45035   2.189   7.277   5.996  1.1198  1.5861  0.4712
  334MOL0     H45036   2.161   7.194   5.838  1.3611  0.3090 -1.9355
  334MOL0     H45037   2.390   7.184   5.847  2.3358  0.8750 -0.6929
  334MOL0     H45038   2.360   7.326   5.754  1.7631  2.8680  0.8650
  334MOL0     H45039   2.369   7.466   5.984  0.4395  1.6653 -1.6139
  334MOL0     H45040   2.514   7.418   5.896 -1.2235  1.0944  0.2622
  334MOL0     H45041   2.688   7.244   5.981 -1.6361 -0.2743 -0.8631
  334MOL0     H45042   2.729   7.118   6.355  1.1183  1.0582  1.2098
  334MOL0     H45043   2.787   7.063   6.194 -0.4776  1.6404 -3.2471
  334MOL0     H45044   2.905   7.306   6.190 -0.6897  0.4711  1.0310
  334MOL0     H45045   2.980   7.165   6.272  0.4254 -0.0898  2.0606
  334MOL0     H45046   2.870   7.244   6.485 -0.2493 -0.4444  0.6351
  334MOL0     H45047   2.805   7.384   6.392  2.6799  1.4224  0.4944
  334MOL0     H45048   3.045   7.444   6.336 -0.0678 -0.7340  0.5928
  334MOL0     H45049   3.091   7.306   6.435 -1.1963 -1.5152  0.0522
  334MOL0     H45050   3.006   7.585   6.772 -0.5231  0.8969  0.1202
  334MOL0     H45051   3.177   7.841   6.893 -3.3211  1.1068  0.4152
  334MOL0     H45052   3.073   7.713   6.951  1.1997 -0.0670  2.3638
  334MOL0     H45053   3.240   7.708   7.000 -1.2225  0.2924  1.0097
  334MOL0     H45054   3.563   8.007   6.834  0.3646 -1.4460 -0.7391
  334MOL0     H45055   3.763   8.117   6.928  2.4092 -0.6007 -0.0713
  334MOL0     H45056   4.015   8.194   7.143 -0.7244  1.2118 -1.1441
  334MOL0     H45057   3.839   8.211   7.102 -1.4417 -0.2647  2.5089
  334MOL0     H45058   3.783   8.114   7.301 -0.1067  0.5259  1.4219
  334MOL0     H45059   3.958   8.106   7.351  0.0460  1.2682  1.6731
  334MOL0     H45060   3.821   8.358   7.262 -0.3483  2.2161  2.7675
  334MOL0     H45061   3.984   8.340   7.316 -0.6363 -0.0737 -0.6864
  334MOL0     H45062   3.716   8.277   7.478  0.5256 -0.4651  1.7537
  334MOL0     H45063   3.881   8.249   7.536 -0.3557  0.4404  1.3359
  334MOL0     H45064   3.907   8.498   7.469  0.3452  1.3985  2.9220
  334MOL0     H45065   3.850   8.445   7.630  0.3359 -1.1379  0.0810
  334MOL0     H45066   3.663   8.515   7.396 -1.4773 -0.3066  0.1587
  334MOL0     H45067   3.625   8.485   7.563  0.2275 -1.5044 -1.4705
  334MOL0     H45068   3.663   8.732   7.481 -3.6126 -5.2899 -1.1516
  334MOL0     H45069   3.837   8.716   7.503 -0.0400  1.9864 -0.1616
  334MOL0     H45070   3.826   8.636   7.722  1.1711  1.3032 -2.1050
  334MOL0     H45071   3.653   8.686   7.731  0.2948  0.3228  0.5596
  334MOL0     H45072   3.841   7.771   7.161  0.3712 -2.0721 -1.9399
  334MOL0     H45073   3.647   7.665   7.071  0.9366 -0.4134  0.5875
  334MOL0     H45074   3.455   7.541   6.587  1.5493  2.0489  1.5044
  334MOL0     H45075   3.258   7.452   6.466 -3.6923 -0.5445  0.9343
  334MOL0     H45076   1.276   7.604   5.840 -2.7582  2.0223  0.9272
  334MOL0     H45077   1.123   7.793   5.902  0.4451 -1.8504  0.9508
  334MOL0     H45078   0.849   8.071   5.659  2.0402 -0.2135  0.6685
  334MOL0     H45079   0.625   8.174   5.750 -0.2837  3.4314 -0.1856
  334MOL0     H45080   0.619   8.300   6.160 -0.0332  0.0358 -0.2632
  334MOL0     H45081   0.611   8.456   6.079 -3.0558  1.0156  1.2389
  334MOL0     H45082   0.380   8.449   6.041 -1.7532 -0.2454  1.8228
  334MOL0     H45083   0.406   8.387   6.205  1.5784 -0.4549  1.2536
  334MOL0     H45084   0.378   8.144   6.090 -0.0704  0.6541  3.1656
  334MOL0     H45085   0.323   8.241   5.958  1.7971  0.8670  0.5546
  334MOL0     H45086   0.212   8.256   6.243 -1.8583  1.5184  0.3759
  334MOL0     H45087   0.149   8.160   6.119 -2.0460  1.7064  0.6601
  334MOL0     H45088  -0.014   8.540   6.028  1.5374  1.7396  2.1486
  334MOL0     H45089   0.817   8.279   6.106 -0.0141 -2.4751  1.6064
  334MOL0     H45090   1.033   8.155   6.038 -1.8012  0.2910  1.4793
  335MOL0     O45091   1.909   7.130   3.647 -0.1952 -0.0099 -0.2495
  335MOL0     C45092   1.936   7.087   3.530 -0.1903  0.1201 -0.4827
  335MOL0     O45093   1.848   7.051   3.433  0.2609 -0.2458 -0.0847
  335MOL0     C45094   1.712   7.052   3.460 -1.6934  0.1454  0.0944
  335MOL0     C45095   1.637   7.171   3.462  0.2441  0.5213  0.1793
  335MOL0     C45096   1.509   7.170   3.510  0.6906  0.2955  0.6032
  335MOL0     C45097   1.455   7.062   3.574 -0.2389  0.5397  0.1662
  335MOL0     O45098   1.330   7.081   3.628  0.6002  0.0180 -0.0834
  335MOL0     C45099   1.248   6.962   3.625 -0.7786 -0.0572  0.1408
  335MOL0     C45100   1.101   7.015   3.663 -0.5146 -0.1971  0.1399
  335MOL0     C45101   1.086   7.128   3.771 -0.2364  0.8728  0.5101
  335MOL0     C45102   0.933   7.131   3.801  0.3429 -0.2903 -0.2721
  335MOL0     C45103   0.897   7.277   3.839  0.5611  1.2474 -0.1476
  335MOL0     C45104   0.752   7.293   3.899 -0.1702 -0.7434  0.1991
  335MOL0     C45105   0.636   7.283   3.799  0.4032 -0.0601 -1.3030
  335MOL0     C45106   0.645   7.377   3.685  0.4316 -0.4492 -0.4060
  335MOL0     N45107   0.518   7.373   3.613 -0.0123 -0.7158 -0.0757
  335MOL0     C45108   0.472   7.483   3.539  0.6702  0.8816 -0.0309
  335MOL0     C45109   0.352   7.436   3.489 -0.4361  0.0030  0.7785
  335MOL0     C45110   0.259   7.508   3.401 -0.3065 -0.2248 -0.2370
  335MOL0     C45111   0.126   7.529   3.465  0.0199  0.1028 -0.3558
  335MOL0     C45112   0.010   7.541   3.378  0.1494 -0.4751 -0.1451
  335MOL0     C45113  -0.112   7.591   3.465  0.2918  0.3967 -0.0622
  335MOL0     O45114  -0.170   7.479   3.532 -0.1013  0.6803  0.2602
  335MOL0     C45115  -0.300   7.445   3.514 -0.4213  1.0229  0.2892
  335MOL0     C45116  -0.331   7.308   3.541  0.0817  0.7477 -0.3379
  335MOL0     C45117  -0.466   7.254   3.543  0.7589 -0.2741  0.5254
  335MOL0     C45118  -0.478   7.105   3.571 -0.3969  0.3040  0.7494
  335MOL0     C45119  -0.572   7.336   3.504 -0.6666  0.1445  0.3268
  335MOL0     C45120  -0.708   7.276   3.482 -0.9034  0.1544 -1.1376
  335MOL0     O45121  -0.804   7.358   3.477 -0.0515 -0.0799 -0.1019
  335MOL0     C45122  -0.930   7.323   3.432  0.3534 -0.6045  0.2615
  335MOL0     C45123  -0.955   7.244   3.320  0.3741  0.0230  0.3820
  335MOL0     C45124  -1.081   7.221   3.269  0.3699  0.4852 -1.5226
  335MOL0     C45125  -1.197   7.287   3.334 -1.1305 -0.8592 -0.8891
  335MOL0     O45126  -1.329   7.265   3.306  0.3087 -0.3333  0.3929
  335MOL0     C45127  -1.355   7.167   3.204  0.6198  0.5739 -0.5472
  335MOL0     C45128  -1.506   7.128   3.183  0.5682 -0.8320  0.2812
  335MOL0     C45129  -1.568   7.084   3.314 -0.2657  0.2024 -0.0273
  335MOL0     C45130  -1.722   7.084   3.297  0.3359  0.0097  0.0857
  335MOL0     C45131  -1.784   6.989   3.396 -0.5249 -0.7424 -0.3947
  335MOL0     C45132  -1.936   6.973   3.378  0.4728 -0.2772 -0.0587
  335MOL0     C45133  -1.989   6.894   3.493 -0.7394  0.2283 -0.0016
  335MOL0     C45134  -2.133   6.870   3.486  0.4660  0.2630 -0.8071
  335MOL0    Cl45135  -2.182   6.733   3.375  0.0873 -0.3466  0.2432
  335MOL0     C45136  -1.169   7.375   3.441  1.0689 -0.1104  0.5746
  335MOL0     C45137  -1.040   7.399   3.486  0.5417  0.0957  0.6895
  335MOL0     O45138  -0.711   7.158   3.464  0.9912  0.4369  0.0955
  335MOL0     C45139  -0.546   7.473   3.479  0.0527  0.3764  0.5537
  335MOL0     C45140  -0.412   7.524   3.483  0.7377  0.3300 -0.3942
  335MOL0     N45141   0.332   7.303   3.527 -0.5179 -0.3046  0.5073
  335MOL0     N45142   0.436   7.270   3.593  0.1457  0.0512 -0.2225
  335MOL0     C45143   1.534   6.941   3.571 -0.4353  0.7663 -0.1672
  335MOL0     C45144   1.658   6.932   3.515  0.4791 -1.1090  0.6305
  335MOL0     C45145   2.078   7.053   3.508 -0.3649 -0.3663  0.0840
  335MOL0     C45146   2.177   7.069   3.612  0.0440  0.4575  0.9110
  335MOL0     C45147   2.312   7.037   3.576 -0.4616 -0.3196 -0.2230
  335MOL0     C45148   2.353   7.004   3.446 -0.5690 -0.5934 -0.1496
  335MOL0     O45149   2.489   7.006   3.408 -0.7371 -0.2157 -0.3350
  335MOL0     C45150   2.581   6.983   3.515 -0.4486  1.0144  0.0166
  335MOL0     C45151   2.632   7.107   3.585 -0.1833 -0.0278 -0.5307
  335MOL0     C45152   2.739   7.177   3.487  0.2924 -0.2099 -0.1787
  335MOL0     C45153   2.799   7.301   3.562  0.9731 -1.1313 -0.1332
  335MOL0     C45154   2.694   7.383   3.633  1.0652  0.9201  0.2074
  335MOL0     C45155   2.601   7.430   3.703  0.2925 -0.5818  0.1903
  335MOL0     C45156   2.252   6.978   3.358  0.1264 -0.1259 -0.3227
  335MOL0     C45157   2.116   7.001   3.382  0.0202  0.3115  0.5647
  335MOL0     H45158   1.669   7.260   3.409 -0.3654 -0.9179 -2.8001
  335MOL0     H45159   1.439   7.252   3.491 -0.2729  0.2923  3.6901
  335MOL0     H45160   1.239   6.917   3.525  0.5453 -1.4998  0.6277
  335MOL0     H45161   1.294   6.890   3.693  2.4369 -0.3134 -2.0558
  335MOL0     H45162   1.051   7.044   3.570 -0.7340 -0.7270  0.0882
  335MOL0     H45163   1.044   6.927   3.696 -1.1942 -1.1087 -3.0822
  335MOL0     H45164   1.141   7.099   3.861  2.4802 -1.1816 -1.6435
  335MOL0     H45165   1.125   7.226   3.740  0.2240  1.2832  2.2826
  335MOL0     H45166   0.882   7.101   3.709  0.7546 -0.1611 -0.5444
  335MOL0     H45167   0.900   7.064   3.881 -0.0703 -1.7906 -1.6586
  335MOL0     H45168   0.972   7.306   3.914  0.1530  2.6228 -0.2537
  335MOL0     H45169   0.925   7.348   3.762  1.3591  0.8860 -0.2029
  335MOL0     H45170   0.737   7.218   3.977  1.1878  1.2449  2.4947
  335MOL0     H45171   0.730   7.395   3.931  0.0586 -0.9580  1.0586
  335MOL0     H45172   0.630   7.179   3.767 -1.0220 -2.1906  4.5923
  335MOL0     H45173   0.544   7.301   3.855  0.1970 -1.1175 -1.2814
  335MOL0     H45174   0.731   7.344   3.626  0.3604 -0.0599 -0.7293
  335MOL0     H45175   0.667   7.481   3.711  2.2671 -0.8425 -0.2808
  335MOL0     H45176   0.533   7.571   3.522  1.7974  0.4334  1.3999
  335MOL0     H45177   0.317   7.596   3.370 -2.2064  0.0035 -3.6811
  335MOL0     H45178   0.246   7.465   3.301  1.6757  0.1288 -0.6928
  335MOL0     H45179   0.140   7.620   3.525  2.6998 -0.1128 -0.5443
  335MOL0     H45180   0.109   7.450   3.539 -2.3528  0.8822  0.0226
  335MOL0     H45181  -0.006   7.438   3.345  1.7578 -0.4150 -1.2470
  335MOL0     H45182   0.013   7.599   3.285 -1.2483 -1.2065 -0.6735
  335MOL0     H45183  -0.189   7.622   3.393  0.7919  0.3858 -0.6087
  335MOL0     H45184  -0.084   7.674   3.529 -1.3053  1.7549 -1.0280
  335MOL0     H45185  -0.261   7.229   3.565 -2.8199 -1.5002  1.5490
  335MOL0     H45186  -0.473   7.041   3.482 -1.1133 -0.9881  1.5945
  335MOL0     H45187  -0.386   7.082   3.625  1.6895  3.5913 -1.0678
  335MOL0     H45188  -0.568   7.076   3.627  0.4058  0.0245  1.9178
  335MOL0     H45189  -0.869   7.196   3.274  3.1541  1.2433  3.8614
  335MOL0     H45190  -1.090   7.147   3.191  0.9680 -4.0228  2.2687
  335MOL0     H45191  -1.320   7.200   3.105  0.1599 -1.7191 -1.5277
  335MOL0     H45192  -1.296   7.075   3.213  1.9090  1.1403 -2.4526
  335MOL0     H45193  -1.552   7.224   3.156  1.8407 -0.4209 -0.5627
  335MOL0     H45194  -1.515   7.066   3.094  2.9858 -0.7502 -0.0765
  335MOL0     H45195  -1.532   7.152   3.392  2.3936 -1.2493  0.1012
  335MOL0     H45196  -1.526   6.985   3.331  0.3862  0.1901 -1.5770
  335MOL0     H45197  -1.754   7.184   3.326  2.1008  0.0157  2.3736
  335MOL0     H45198  -1.761   7.068   3.197  1.3344  3.0830 -0.8956
  335MOL0     H45199  -1.761   7.010   3.501  2.0838 -0.2101 -0.9909
  335MOL0     H45200  -1.731   6.896   3.374 -0.6477 -0.4996 -1.8093
  335MOL0     H45201  -1.987   7.069   3.370 -0.3114 -0.7678 -1.2178
  335MOL0     H45202  -1.952   6.922   3.283  3.5092  1.6400 -1.7736
  335MOL0     H45203  -1.946   6.936   3.585  1.6128 -1.3424 -0.2918
  335MOL0     H45204  -1.942   6.795   3.495 -0.8951  0.1451 -0.4437
  335MOL0     H45205  -2.189   6.957   3.451  0.0599  0.7331  0.9265
  335MOL0     H45206  -2.166   6.835   3.584  3.6589 -3.5061 -0.8386
  335MOL0     H45207  -1.255   7.418   3.492  1.8099  1.6897  0.3624
  335MOL0     H45208  -1.023   7.460   3.574  2.1848 -0.2818  0.6727
  335MOL0     H45209  -0.630   7.536   3.452  1.1292  1.1539 -1.1693
  335MOL0     H45210  -0.401   7.630   3.459  0.1685  0.7015  0.8604
  335MOL0     H45211   1.486   6.855   3.617 -1.2652  1.3902  0.1630
  335MOL0     H45212   1.705   6.835   3.522  1.0278 -1.1232 -2.0938
  335MOL0     H45213   2.167   7.100   3.716  1.3128  1.7886  0.6872
  335MOL0     H45214   2.383   7.053   3.658  0.9568 -0.8003 -1.3089
  335MOL0     H45215   2.547   6.910   3.589  0.7349  1.3994  0.9516
  335MOL0     H45216   2.663   6.936   3.461 -2.4353 -2.4661 -0.2851
  335MOL0     H45217   2.670   7.090   3.686 -0.1654 -0.4866 -0.6124
  335MOL0     H45218   2.546   7.174   3.591  0.3145  0.4920  1.5461
  335MOL0     H45219   2.680   7.210   3.401 -1.3397 -0.2659  0.8629
  335MOL0     H45220   2.816   7.111   3.447  1.3390 -0.0777  1.5163
  335MOL0     H45221   2.857   7.355   3.486  0.0470  0.7240  0.4203
  335MOL0     H45222   2.875   7.271   3.635  0.6148  0.3321  0.8734
  335MOL0     H45223   2.525   7.466   3.769  0.4400  0.7753 -0.3458
  335MOL0     H45224   2.288   6.949   3.260  0.1691  1.1315 -0.7053
  335MOL0     H45225   2.046   6.986   3.300  0.5479  1.2241 -0.0790
  336MOL0     O45226   7.251  11.131   0.508 -0.2975 -0.3273 -0.1461
  336MOL0     C45227   7.299  11.191   0.598  0.1103 -0.3802 -0.6860
  336MOL0     O45228   7.231  11.285   0.665 -0.9565  0.2850  0.0569
  336MOL0     C45229   7.110  11.335   0.618 -1.3554 -0.5532 -0.3033
  336MOL0     C45230   7.029  11.371   0.719 -0.8396 -0.5753 -0.1471
  336MOL0     C45231   6.898  11.421   0.695 -0.9725  1.2515 -0.5151
  336MOL0     C45232   6.860  11.441   0.557  1.0649  0.7005 -0.0429
  336MOL0     O45233   6.737  11.509   0.544  0.5735  0.1468 -1.0541
  336MOL0     C45234   6.707  11.557   0.416 -0.8634  0.8361 -0.3659
  336MOL0     C45235   6.579  11.647   0.410  0.3210  0.6581 -0.7206
  336MOL0     C45236   6.597  11.783   0.480 -0.1363  0.0029  0.1643
  336MOL0     C45237   6.463  11.839   0.542 -0.1021 -0.1138 -0.1167
  336MOL0     C45238   6.495  11.932   0.665  0.0291 -0.4196 -0.2274
  336MOL0     C45239   6.370  12.017   0.695  0.9124  0.2416  0.0856
  336MOL0     C45240   6.397  12.128   0.801 -0.1053  0.5009 -0.7918
  336MOL0     C45241   6.268  12.200   0.838  0.4864 -1.2614 -0.3119
  336MOL0     N45242   6.166  12.121   0.897  0.4825 -0.0587 -0.0566
  336MOL0     C45243   6.118  12.141   1.022  0.2843 -0.3545 -0.3256
  336MOL0     C45244   6.002  12.072   1.023 -0.3348  0.0117  0.9648
  336MOL0     C45245   5.928  12.061   1.149 -1.0954  1.0843  0.3611
  336MOL0     C45246   5.780  12.038   1.132 -0.5256 -1.3383 -0.2362
  336MOL0     C45247   5.729  11.995   1.276  0.1239  1.2831  0.2661
  336MOL0     C45248   5.577  11.970   1.288  0.0699 -0.0675  0.5002
  336MOL0     O45249   5.495  12.071   1.226  1.0168  0.1767  0.6427
  336MOL0     C45250   5.362  12.062   1.248  1.0836  0.2353 -0.0303
  336MOL0     C45251   5.290  11.939   1.270  0.0309 -1.0138  0.6806
  336MOL0     C45252   5.148  11.933   1.284 -0.6434 -0.9075  0.7355
  336MOL0     C45253   5.075  11.801   1.312  0.0831 -0.1393  0.0074
  336MOL0     C45254   5.083  12.064   1.298  0.1800 -0.6217  0.0048
  336MOL0     C45255   4.940  12.072   1.322  0.3237  0.3397  1.0788
  336MOL0     O45256   4.853  11.980   1.268  0.4494  0.5590 -0.0019
  336MOL0     C45257   4.719  11.963   1.307 -0.0729 -0.1259  0.4400
  336MOL0     C45258   4.636  12.050   1.379 -0.6794 -0.0075  0.5803
  336MOL0     C45259   4.499  12.029   1.401  0.5343  0.0944  0.0194
  336MOL0     C45260   4.439  11.913   1.351  0.4146 -0.4908  0.2945
  336MOL0     O45261   4.304  11.889   1.383 -0.2590 -0.4618 -0.5865
  336MOL0     C45262   4.239  11.777   1.323 -0.5489 -0.0360 -0.1863
  336MOL0     C45263   4.104  11.772   1.382  0.9195  1.3800 -0.0302
  336MOL0     C45264   4.046  11.629   1.341  0.1489 -0.0953  0.0728
  336MOL0     C45265   3.952  11.578   1.457  0.3008  1.6589 -0.0048
  336MOL0     C45266   3.827  11.658   1.496 -0.4070  0.3136 -0.6543
  336MOL0     C45267   3.712  11.594   1.425  0.3297 -1.1655 -0.3267
  336MOL0     C45268   3.585  11.684   1.450 -0.5380 -0.8253 -0.1701
  336MOL0     C45269   3.451  11.608   1.415  0.5010  0.3540  0.0163
  336MOL0    Cl45270   3.462  11.583   1.235 -0.6775  0.0607 -0.2755
  336MOL0     C45271   4.515  11.819   1.280  0.5654  0.0623  0.1865
  336MOL0     C45272   4.653  11.844   1.271  0.1424  0.3183 -0.4873
  336MOL0     O45273   4.921  12.150   1.418 -0.2853  0.8042 -0.3936
  336MOL0     C45274   5.154  12.183   1.281  0.1486  0.4814 -0.6324
  336MOL0     C45275   5.292  12.182   1.256 -0.8848 -0.4220  0.7781
  336MOL0     N45276   5.986  12.008   0.904  0.2900 -0.5315  0.6487
  336MOL0     N45277   6.079  12.052   0.825 -0.2127  0.3517 -0.3052
  336MOL0     C45278   6.951  11.407   0.451 -0.2695 -0.3804  0.4366
  336MOL0     C45279   7.077  11.358   0.487  0.1975  0.5928  0.0060
  336MOL0     C45280   7.447  11.174   0.636  0.0703  0.4691 -0.2153
  336MOL0     C45281   7.538  11.097   0.559  0.4509  0.2155  0.2479
  336MOL0     C45282   7.663  11.073   0.605  0.0644  0.3343 -0.2418
  336MOL0     C45283   7.718  11.156   0.703  0.1532  0.0099  0.2047
  336MOL0     O45284   7.858  11.162   0.712  0.4960  0.4621  0.5892
  336MOL0     C45285   7.930  11.226   0.818  0.5763  0.5011  0.2559
  336MOL0     C45286   8.063  11.165   0.821 -0.0546  0.0337 -0.4066
  336MOL0     C45287   8.137  11.193   0.951  0.2480  0.9087  0.8606
  336MOL0     C45288   8.203  11.330   0.984  0.6588 -0.6697 -0.4533
  336MOL0     C45289   8.265  11.335   1.113 -0.5997  0.5622 -1.0831
  336MOL0     C45290   8.304  11.362   1.228 -0.8420 -1.2787  1.0222
  336MOL0     C45291   7.632  11.234   0.777  0.1474  0.2525  0.0758
  336MOL0     C45292   7.496  11.245   0.742  0.0782 -0.2983 -0.3439
  336MOL0     H45293   7.077  11.360   0.815  2.2353  0.3027 -1.4746
  336MOL0     H45294   6.838  11.456   0.778 -1.1939  1.8958 -0.9376
  336MOL0     H45295   6.796  11.613   0.387  1.3119 -2.9170 -1.5837
  336MOL0     H45296   6.692  11.481   0.339 -0.3932 -0.6281  0.9549
  336MOL0     H45297   6.543  11.660   0.307 -0.6226 -0.3075 -0.5346
  336MOL0     H45298   6.504  11.580   0.454  1.9666 -0.0851  1.0943
  336MOL0     H45299   6.673  11.776   0.559 -1.2379 -2.5936  1.1022
  336MOL0     H45300   6.639  11.858   0.412  1.2172 -2.1509 -1.5258
  336MOL0     H45301   6.416  11.893   0.460  2.1394  0.5508 -1.0350
  336MOL0     H45302   6.401  11.755   0.576 -1.9687  1.2367 -0.0012
  336MOL0     H45303   6.523  11.871   0.751 -2.0682 -0.0733  0.7645
  336MOL0     H45304   6.574  12.003   0.637 -1.9042  1.9775  0.0179
  336MOL0     H45305   6.351  12.065   0.599 -2.5354 -1.9523 -0.5096
  336MOL0     H45306   6.290  11.950   0.729  2.0274 -1.4633 -0.5357
  336MOL0     H45307   6.436  12.094   0.898  4.2710  2.9018 -1.4577
  336MOL0     H45308   6.473  12.195   0.761 -1.5863  0.8367 -3.1901
  336MOL0     H45309   6.233  12.247   0.746 -0.5415 -1.1333  0.1332
  336MOL0     H45310   6.305  12.279   0.904  0.5351  0.4859 -2.3462
  336MOL0     H45311   6.155  12.205   1.101  1.5324  0.0433 -1.2034
  336MOL0     H45312   5.971  11.972   1.196 -1.7629  0.7851  0.4125
  336MOL0     H45313   5.947  12.149   1.210  1.3833  2.1140 -1.6745
  336MOL0     H45314   5.754  11.963   1.056  0.3892 -0.5400 -1.3789
  336MOL0     H45315   5.731  12.134   1.117  0.8659  0.0610  3.2812
  336MOL0     H45316   5.760  12.070   1.349  1.6049  2.0789 -1.1220
  336MOL0     H45317   5.788  11.912   1.315  0.4956  1.5860  0.3562
  336MOL0     H45318   5.543  11.949   1.390  1.5734 -0.3169  0.9763
  336MOL0     H45319   5.559  11.880   1.228 -1.5537  0.7434 -0.2801
  336MOL0     H45320   5.335  11.841   1.276  0.5132 -0.7907  0.7050
  336MOL0     H45321   5.039  11.807   1.415 -2.4869 -0.6530 -0.7903
  336MOL0     H45322   4.990  11.791   1.244  0.5299 -0.1274 -0.5559
  336MOL0     H45323   5.132  11.709   1.297 -1.1853 -0.8448 -0.6416
  336MOL0     H45324   4.685  12.140   1.414  2.0121 -1.2071  0.1239
  336MOL0     H45325   4.447  12.105   1.459  0.5822  0.1487 -0.0088
  336MOL0     H45326   4.236  11.788   1.214 -1.9891  3.1068  0.0697
  336MOL0     H45327   4.290  11.686   1.356 -0.6489 -0.4715 -1.1770
  336MOL0     H45328   4.100  11.784   1.491  0.3102  0.0853  0.1074
  336MOL0     H45329   4.038  11.850   1.343 -4.8185 -0.3991  4.5386
  336MOL0     H45330   4.123  11.555   1.320 -0.0748  0.2286 -2.2012
  336MOL0     H45331   3.993  11.654   1.249  0.9722  3.0806  0.3382
  336MOL0     H45332   3.916  11.475   1.450  0.0799  1.4182  3.1801
  336MOL0     H45333   4.010  11.572   1.549  0.8776  1.5234 -0.3694
  336MOL0     H45334   3.848  11.762   1.471  2.0249  0.5755  1.9502
  336MOL0     H45335   3.807  11.659   1.603  0.9637 -0.0530 -0.3783
  336MOL0     H45336   3.734  11.585   1.318  0.3983 -0.4048 -0.3808
  336MOL0     H45337   3.687  11.496   1.468 -0.3656  0.3462  3.0318
  336MOL0     H45338   3.586  11.771   1.384 -0.0217 -1.2639 -0.7453
  336MOL0     H45339   3.570  11.702   1.557 -0.6927 -4.0375  0.4659
  336MOL0     H45340   3.364  11.670   1.439 -0.4098 -0.5700 -0.7880
  336MOL0     H45341   3.438  11.523   1.483 -2.4437  2.6113  2.5680
  336MOL0     H45342   4.474  11.726   1.241  0.4545  0.7437 -1.4204
  336MOL0     H45343   4.709  11.763   1.225 -0.2814 -1.4315  1.8684
  336MOL0     H45344   5.084  12.266   1.279  0.7537  1.1388  1.9036
  336MOL0     H45345   5.347  12.273   1.233 -0.7248 -1.6519 -5.1156
  336MOL0     H45346   6.935  11.420   0.345 -0.4815 -2.4288  0.1666
  336MOL0     H45347   7.148  11.331   0.409  0.8190 -0.2827  0.8412
  336MOL0     H45348   7.509  11.030   0.478 -1.7624 -0.6171  1.6197
  336MOL0     H45349   7.732  11.010   0.549  0.4248  1.8770 -1.6068
  336MOL0     H45350   7.930  11.332   0.792 -3.1583  0.7622  0.8379
  336MOL0     H45351   7.883  11.217   0.916  0.7642 -1.6050  0.1944
  336MOL0     H45352   8.118  11.197   0.733 -3.4826 -1.5942 -3.4137
  336MOL0     H45353   8.051  11.056   0.817 -2.4084  0.2661 -1.9814
  336MOL0     H45354   8.232  11.139   0.953 -0.5572 -0.6695 -0.6279
  336MOL0     H45355   8.069  11.163   1.032 -0.6500 -1.5348 -0.6854
  336MOL0     H45356   8.131  11.410   0.968 -0.6996 -1.7744 -0.1099
  336MOL0     H45357   8.278  11.365   0.913  1.1961  2.9149  1.6777
  336MOL0     H45358   8.335  11.390   1.326  0.5731 -2.0507  0.8302
  336MOL0     H45359   7.666  11.293   0.862  0.2107 -0.3176  0.4473
  336MOL0     H45360   7.425  11.302   0.801  0.5040  1.5158 -1.5019
  337MOL0     O45361   8.986   7.053  11.197  0.1020  0.1347 -0.0021
  337MOL0     C45362   9.038   6.948  11.167 -0.3443  0.2111  0.6649
  337MOL0     O45363   8.973   6.827  11.165  0.7565 -0.0582  0.0676
  337MOL0     C45364   8.836   6.823  11.189 -0.2763 -0.4242  0.2828
  337MOL0     C45365   8.755   6.855  11.076  0.0713 -0.4402  0.6572
  337MOL0     C45366   8.613   6.832  11.084  0.0184  0.1559 -0.2448
  337MOL0     C45367   8.553   6.807  11.209  1.0248 -0.2527  0.6704
  337MOL0     O45368   8.418   6.802  11.217 -0.3474  0.2137  0.2516
  337MOL0     C45369   8.364   6.667  11.226  0.1048  0.5565 -0.2218
  337MOL0     C45370   8.218   6.684  11.218 -0.5294  0.4466 -0.4262
  337MOL0     C45371   8.152   6.551  11.222  1.2073  0.2573  0.3822
  337MOL0     C45372   7.998   6.569  11.238 -0.2112 -0.7348  0.4686
  337MOL0     C45373   7.920   6.441  11.271  0.1296 -0.6044  0.1976
  337MOL0     C45374   7.777   6.482  11.306  0.1885  0.3297 -0.7609
  337MOL0     C45375   7.687   6.355  11.323 -0.0417 -1.4977  0.3517
  337MOL0     C45376   7.647   6.297  11.184 -0.3847  0.0244  1.4970
  337MOL0     N45377   7.520   6.225  11.201 -1.0069  0.2833  0.8993
  337MOL0     C45378   7.515   6.115  11.289  0.1375  0.4881  0.1003
  337MOL0     C45379   7.379   6.080  11.295 -0.3459  0.4285  0.6450
  337MOL0     C45380   7.326   5.965  11.377  0.6217 -0.8006  0.8965
  337MOL0     C45381   7.250   6.013  11.510 -0.1934  0.4759  0.3045
  337MOL0     C45382   7.130   6.101  11.478  0.6124 -0.9012 -1.0516
  337MOL0     C45383   7.028   6.139  11.594  0.0395  0.1043 -0.3449
  337MOL0     O45384   6.925   6.037  11.606  0.2911 -0.0099  0.3639
  337MOL0     C45385   6.835   6.031  11.705  0.3887 -0.2330 -0.2868
  337MOL0     C45386   6.783   6.151  11.770  0.6693  0.4645 -0.4574
  337MOL0     C45387   6.689   6.144  11.875 -0.3106 -0.1306  1.0416
  337MOL0     C45388   6.643   6.278  11.937  1.1167  0.3557  0.6807
  337MOL0     C45389   6.648   6.020  11.924 -0.0331 -1.0700  0.1427
  337MOL0     C45390   6.570   6.007  12.045 -0.3072  0.5607 -0.0166
  337MOL0     O45391   6.578   6.092  12.144 -0.1794 -0.6342 -0.9346
  337MOL0     C45392   6.496   6.077  12.248 -0.1477  0.8152 -0.3009
  337MOL0     C45393   6.527   6.025  12.372 -0.3937  0.2280  0.1589
  337MOL0     C45394   6.435   6.016  12.482 -0.6030  0.2164 -0.5738
  337MOL0     C45395   6.312   6.070  12.461 -0.2296  0.4662 -0.2851
  337MOL0     O45396   6.203   6.063  12.550  0.2815  0.7787  0.1080
  337MOL0     C45397   6.231   6.060  12.695  0.1241  0.0250 -0.0895
  337MOL0     C45398   6.108   6.111  12.773  0.2716 -1.0206  0.0978
  337MOL0     C45399   6.133   6.128  12.931  0.4398 -0.3842 -0.7315
  337MOL0     C45400   6.023   6.211  13.010 -0.9602  0.0163 -0.3772
  337MOL0     C45401   5.893   6.144  13.004  0.1951  0.8120  0.3327
  337MOL0     C45402   5.784   6.200  13.090  0.1157  0.5820  0.4097
  337MOL0     C45403   5.659   6.114  13.088 -0.7090 -0.6545  0.5145
  337MOL0     C45404   5.638   6.024  13.212  0.6545 -0.1736 -0.3912
  337MOL0    Cl45405   5.482   5.930  13.199  0.0442 -0.3198  0.0802
  337MOL0     C45406   6.282   6.149  12.348 -0.8506 -0.3595 -0.5980
  337MOL0     C45407   6.372   6.147  12.245  0.5701 -0.1567  0.3714
  337MOL0     O45408   6.495   5.910  12.036  0.4878  0.1216 -0.1731
  337MOL0     C45409   6.715   5.899  11.862  1.1482  0.0720  0.4021
  337MOL0     C45410   6.789   5.904  11.745 -0.1373 -0.2077  0.1895
  337MOL0     N45411   7.311   6.168  11.219 -0.0552 -0.0294  0.1353
  337MOL0     N45412   7.391   6.256  11.160  0.1978 -0.4110  0.4152
  337MOL0     C45413   8.632   6.784  11.324  0.4124 -0.1729 -0.4147
  337MOL0     C45414   8.773   6.806  11.308 -0.5502  0.4508  0.1304
  337MOL0     C45415   9.176   6.963  11.117  0.3444  0.5185 -0.6161
  337MOL0     C45416   9.241   6.842  11.084 -0.1093 -0.4753 -0.2350
  337MOL0     C45417   9.365   6.849  11.008  1.0050 -0.2892 -0.4675
  337MOL0     C45418   9.426   6.969  10.985 -0.3798  0.3353  0.3849
  337MOL0     O45419   9.541   6.968  10.905  0.0282  0.1423  0.0292
  337MOL0     C45420   9.600   7.092  10.851 -0.1165 -0.1018  0.3302
  337MOL0     C45421   9.709   7.133  10.958 -0.1368 -0.3106  0.1731
  337MOL0     C45422   9.806   7.017  10.969 -0.5787  0.6754 -0.2473
  337MOL0     C45423   9.914   7.051  11.078 -0.3528  0.0492 -0.3893
  337MOL0     C45424  10.004   7.171  11.064 -0.4883  0.0903  0.1933
  337MOL0     C45425  10.085   7.253  11.045  0.2305 -1.1005  0.3577
  337MOL0     C45426   9.357   7.092  11.020 -0.3090 -0.4652  0.0174
  337MOL0     C45427   9.228   7.082  11.075  0.0239 -0.3032 -0.0429
  337MOL0     H45428   8.814   6.880  10.988 -2.3303  0.2644 -0.8653
  337MOL0     H45429   8.550   6.842  10.995 -2.0911 -1.2590  0.9964
  337MOL0     H45430   8.387   6.608  11.137 -1.0186  1.5787 -1.2211
  337MOL0     H45431   8.380   6.615  11.321 -0.7605  0.3807 -0.1706
  337MOL0     H45432   8.178   6.753  11.292  0.2621  2.6660 -1.9850
  337MOL0     H45433   8.199   6.732  11.122  0.9564  1.4420 -0.2431
  337MOL0     H45434   8.166   6.491  11.131  0.1471 -2.7135  2.0439
  337MOL0     H45435   8.179   6.482  11.303 -0.8564 -1.0614  0.0300
  337MOL0     H45436   7.986   6.630  11.328  0.3578 -0.2397  0.2198
  337MOL0     H45437   7.957   6.627  11.155 -0.4672  0.9317  1.7008
  337MOL0     H45438   7.925   6.385  11.178 -0.7654 -0.5725  0.1204
  337MOL0     H45439   7.967   6.384  11.352 -0.2457  1.4671  1.9753
  337MOL0     H45440   7.778   6.538  11.400 -0.3927 -2.7359  1.2179
  337MOL0     H45441   7.743   6.538  11.219 -2.1227 -1.9016 -1.4038
  337MOL0     H45442   7.743   6.296  11.396 -1.3995 -0.8713  1.9446
  337MOL0     H45443   7.596   6.390  11.374 -0.2462 -0.0424 -0.9490
  337MOL0     H45444   7.725   6.230  11.147 -0.1187  0.8188  0.5939
  337MOL0     H45445   7.628   6.371  11.105 -1.4572 -1.3291  0.4192
  337MOL0     H45446   7.601   6.071  11.337 -0.8461  0.8216  2.2620
  337MOL0     H45447   7.257   5.917  11.306 -2.9283  1.2744  2.6884
  337MOL0     H45448   7.399   5.890  11.410  0.9517 -0.7100  0.3896
  337MOL0     H45449   7.313   6.071  11.578 -0.5241 -0.0117  1.0377
  337MOL0     H45450   7.203   5.925  11.555 -1.2195 -0.2435 -2.0072
  337MOL0     H45451   7.092   6.046  11.391  1.5138 -1.8091 -0.8863
  337MOL0     H45452   7.167   6.199  11.446  0.3956 -0.1466  0.8722
  337MOL0     H45453   6.985   6.233  11.558  0.7019  0.9526  1.0377
  337MOL0     H45454   7.080   6.148  11.689 -1.4831 -1.6608  0.7418
  337MOL0     H45455   6.822   6.241  11.722 -0.3660 -0.0397 -2.3691
  337MOL0     H45456   6.612   6.355  11.866 -3.5941 -0.7051  1.2658
  337MOL0     H45457   6.550   6.270  11.994  2.4532  2.5592  3.4220
  337MOL0     H45458   6.710   6.321  12.012  2.9025 -1.7962  0.4046
  337MOL0     H45459   6.631   5.995  12.381 -0.4972 -1.1743 -2.3389
  337MOL0     H45460   6.456   5.953  12.568 -0.5608 -0.6556 -1.2059
  337MOL0     H45461   6.261   5.959  12.726  1.6385 -0.6169 -3.2267
  337MOL0     H45462   6.320   6.121  12.708 -0.8600  1.6366 -0.6028
  337MOL0     H45463   6.084   6.209  12.731  3.2514 -0.9481 -1.6864
  337MOL0     H45464   6.027   6.041  12.755 -0.4501 -0.5455  1.3823
  337MOL0     H45465   6.222   6.190  12.950 -0.2520  0.0332  1.5439
  337MOL0     H45466   6.133   6.027  12.972 -4.7688  0.0453  0.9992
  337MOL0     H45467   6.058   6.216  13.114  0.0446  0.5656 -0.7236
  337MOL0     H45468   6.019   6.317  12.983 -1.8093 -0.3797 -1.8927
  337MOL0     H45469   5.903   6.038  13.026 -3.1654  0.0881 -0.9598
  337MOL0     H45470   5.866   6.141  12.898  0.4972 -2.4957  0.2409
  337MOL0     H45471   5.811   6.213  13.195  1.0427 -0.2510  0.2929
  337MOL0     H45472   5.756   6.302  13.062  0.0071  0.8009  1.2842
  337MOL0     H45473   5.654   6.059  12.994  0.6852  1.9151 -1.1561
  337MOL0     H45474   5.577   6.185  13.096 -1.5104 -1.4002 -0.8149
  337MOL0     H45475   5.640   6.085  13.303 -1.1684 -1.4069  0.5301
  337MOL0     H45476   5.727   5.961  13.205  2.0745  1.4095  2.0581
  337MOL0     H45477   6.185   6.198  12.337  1.1474  3.9946 -0.9450
  337MOL0     H45478   6.345   6.185  12.147 -0.5924  1.0359  1.1141
  337MOL0     H45479   6.691   5.811  11.922  1.1936  0.2517  0.6857
  337MOL0     H45480   6.851   5.817  11.726  0.5264  0.2969 -0.0021
  337MOL0     H45481   8.584   6.760  11.418  0.0055  2.6938  0.1978
  337MOL0     H45482   8.840   6.798  11.392  0.4260 -1.6663 -0.7857
  337MOL0     H45483   9.203   6.744  11.110 -0.1617 -0.4887 -0.3621
  337MOL0     H45484   9.424   6.761  10.988  1.1170 -1.0333  2.6385
  337MOL0     H45485   9.647   7.081  10.752  1.9995  1.9654  0.9920
  337MOL0     H45486   9.524   7.170  10.840  0.9341  0.7573 -1.4869
  337MOL0     H45487   9.654   7.139  11.053 -2.1596  2.4243 -1.0387
  337MOL0     H45488   9.749   7.232  10.931 -0.9986 -0.1322 -0.4832
  337MOL0     H45489   9.846   7.002  10.868 -0.0509  1.0811 -0.1060
  337MOL0     H45490   9.757   6.921  10.987 -0.1933 -0.3054 -3.5850
  337MOL0     H45491   9.987   6.970  11.089 -0.5766 -0.7111 -3.5886
  337MOL0     H45492   9.865   7.037  11.174 -0.1528  1.3091 -0.0896
  337MOL0     H45493  10.137   7.343  11.018 -1.3159 -0.7500 -1.8039
  337MOL0     H45494   9.408   7.187  11.009  0.1254 -0.3167  2.6346
  337MOL0     H45495   9.186   7.174  11.115  2.1708 -0.6408  3.3662
  338MOL0     O45496  10.233   4.172   7.113 -0.7955 -0.4948  0.4732
  338MOL0     C45497  10.238   4.254   7.025  0.0152 -1.0055 -0.2425
  338MOL0     O45498  10.186   4.378   7.036  0.1744 -0.1323 -0.5030
  338MOL0     C45499  10.105   4.406   7.143 -0.3472  0.0408 -0.0963
  338MOL0     C45500   9.981   4.338   7.154 -0.0345 -0.0937  0.2369
  338MOL0     C45501   9.890   4.379   7.255  0.9482 -0.1781 -0.0757
  338MOL0     C45502   9.925   4.483   7.347 -0.3656  0.0768  0.2083
  338MOL0     O45503   9.848   4.522   7.451  0.1369  0.2150 -0.4975
  338MOL0     C45504   9.770   4.639   7.441  0.3003 -0.3497  0.2095
  338MOL0     C45505   9.768   4.698   7.587  0.5261 -0.3415 -0.2435
  338MOL0     C45506   9.659   4.811   7.579 -0.0323 -0.6282 -0.0604
  338MOL0     C45507   9.644   4.857   7.726 -0.6416 -0.6812 -0.5055
  338MOL0     C45508   9.767   4.947   7.764  0.1076  0.4992 -0.1074
  338MOL0     C45509   9.738   5.022   7.902 -0.1880  0.5217 -0.0244
  338MOL0     C45510   9.841   5.116   7.945  0.3111 -0.4096  0.4738
  338MOL0     C45511   9.829   5.166   8.091 -0.0466  0.6951 -0.2562
  338MOL0     N45512   9.701   5.217   8.122  0.7372 -0.3863 -0.1002
  338MOL0     C45513   9.611   5.161   8.204  0.5972  0.2689  0.1408
  338MOL0     C45514   9.497   5.231   8.189  0.2416  0.0874  0.3311
  338MOL0     C45515   9.365   5.228   8.265  0.6826 -0.7428 -0.7573
  338MOL0     C45516   9.260   5.154   8.185  1.9181  0.7846 -0.0853
  338MOL0     C45517   9.137   5.114   8.273 -0.7828  0.2931 -0.4094
  338MOL0     C45518   9.169   5.031   8.395  0.5320 -0.6845 -0.5413
  338MOL0     O45519   9.199   5.108   8.511 -0.7326  0.0699  0.4047
  338MOL0     C45520   9.122   5.113   8.622 -0.7605  1.2079 -0.0001
  338MOL0     C45521   9.131   5.218   8.711 -0.6019 -0.2621 -0.4650
  338MOL0     C45522   9.044   5.226   8.830  0.0302 -0.7658  0.6265
  338MOL0     C45523   9.064   5.352   8.917 -0.0851  0.8093  0.3854
  338MOL0     C45524   8.937   5.133   8.841 -0.1963  0.0244 -0.6131
  338MOL0     C45525   8.829   5.145   8.935  0.8046 -1.0049 -0.1467
  338MOL0     O45526   8.775   5.029   8.977 -0.1859  0.3893 -0.2031
  338MOL0     C45527   8.675   5.020   9.072  0.8052  0.1548 -0.3757
  338MOL0     C45528   8.593   4.906   9.081  0.5618 -0.5250 -0.9138
  338MOL0     C45529   8.498   4.877   9.184  0.0432 -0.6261 -0.0773
  338MOL0     C45530   8.493   4.966   9.295 -0.9435 -0.5108 -1.1117
  338MOL0     O45531   8.422   4.947   9.406  0.6112  0.6315 -0.4903
  338MOL0     C45532   8.291   4.998   9.391 -0.4528  1.2042  0.7998
  338MOL0     C45533   8.277   5.114   9.511  0.5980  0.3448  0.4008
  338MOL0     C45534   8.129   5.140   9.537 -0.5154 -0.1192 -0.2722
  338MOL0     C45535   8.066   5.041   9.647  0.1774 -0.8110  0.6310
  338MOL0     C45536   7.915   5.017   9.624 -0.1567  0.2761  0.8894
  338MOL0     C45537   7.892   4.944   9.481  0.2373  0.0105  0.4199
  338MOL0     C45538   7.753   4.892   9.475 -0.2729  0.2758 -0.4191
  338MOL0     C45539   7.719   4.830   9.354  0.2821  1.0117 -0.0969
  338MOL0    Cl45540   7.843   4.697   9.309  0.0898  0.8794  0.5591
  338MOL0     C45541   8.582   5.083   9.293 -0.0111 -0.0688  0.0586
  338MOL0     C45542   8.669   5.106   9.184  0.1198 -0.5639 -0.0201
  338MOL0     O45543   8.777   5.258   8.958 -0.2919  0.2914 -0.3059
  338MOL0     C45544   8.931   5.029   8.755 -0.1058 -0.0934  0.1782
  338MOL0     C45545   9.025   5.012   8.650  0.1052 -0.0853 -0.2446
  338MOL0     N45546   9.516   5.328   8.092 -0.1003  0.4290  0.1908
  338MOL0     N45547   9.645   5.329   8.065 -0.3339  1.1849 -0.7436
  338MOL0     C45548  10.054   4.537   7.342 -0.2952 -1.3982 -0.6644
  338MOL0     C45549  10.142   4.500   7.242 -0.6649  0.5855 -1.1002
  338MOL0     C45550  10.299   4.215   6.902  0.1790 -0.2864 -0.1451
  338MOL0     C45551  10.392   4.102   6.901 -0.4118 -0.6475 -0.4467
  338MOL0     C45552  10.450   4.079   6.775  0.9325  0.2815 -0.3881
  338MOL0     C45553  10.410   4.138   6.650  0.1205 -0.3577 -0.0636
  338MOL0     O45554  10.479   4.106   6.540 -0.0394 -0.9090  0.3334
  338MOL0     C45555  10.428   4.156   6.414 -0.2705 -0.4665 -0.4757
  338MOL0     C45556  10.515   4.089   6.300  0.5442 -0.4953  0.5452
  338MOL0     C45557  10.488   4.159   6.164  0.1311  0.5609 -0.3993
  338MOL0     C45558  10.477   4.065   6.041 -0.6115  0.5220 -0.2495
  338MOL0     C45559  10.609   4.007   6.012  0.8878  0.0709 -0.2567
  338MOL0     C45560  10.713   3.953   5.980  0.2138 -0.0127 -0.6941
  338MOL0     C45561  10.327   4.252   6.662  0.0687  0.3555 -0.3674
  338MOL0     C45562  10.272   4.285   6.784  0.0086  0.4434  0.5970
  338MOL0     H45563   9.938   4.279   7.074 -0.2788  2.4851 -1.6166
  338MOL0     H45564   9.786   4.350   7.265  0.5930  1.4630  1.6137
  338MOL0     H45565   9.826   4.711   7.382  1.2535  1.1345  2.7532
  338MOL0     H45566   9.670   4.612   7.403 -0.4556  2.5304 -0.0232
  338MOL0     H45567   9.738   4.627   7.664 -0.4069  0.9873  0.6577
  338MOL0     H45568   9.865   4.740   7.615 -0.5034  0.4256  2.5688
  338MOL0     H45569   9.693   4.886   7.507  0.6913 -0.9103 -0.0265
  338MOL0     H45570   9.565   4.778   7.536  1.9144 -3.0347 -2.8201
  338MOL0     H45571   9.549   4.908   7.740 -0.3947  0.6229 -3.0341
  338MOL0     H45572   9.647   4.779   7.803  3.3104  1.8926  2.3914
  338MOL0     H45573   9.862   4.893   7.767 -0.4477 -0.5039  0.0171
  338MOL0     H45574   9.774   5.020   7.683  2.9611  0.9961  0.4571
  338MOL0     H45575   9.642   5.072   7.885  0.6534  1.1359 -4.0253
  338MOL0     H45576   9.717   4.948   7.980  2.0330 -0.0261  0.1238
  338MOL0     H45577   9.941   5.079   7.918  0.1150  0.0464 -0.9827
  338MOL0     H45578   9.839   5.208   7.886  2.2206 -0.4824  0.2096
  338MOL0     H45579   9.903   5.241   8.118  0.3243  0.2026  0.1271
  338MOL0     H45580   9.842   5.076   8.153 -4.1711  0.5034  0.6330
  338MOL0     H45581   9.636   5.089   8.281  2.2709  2.3766  1.6579
  338MOL0     H45582   9.378   5.171   8.358  0.2371 -0.2325 -0.3772
  338MOL0     H45583   9.333   5.327   8.296  0.1226 -2.0630  3.5896
  338MOL0     H45584   9.308   5.066   8.142  0.4931  0.8562 -1.9381
  338MOL0     H45585   9.232   5.216   8.099  1.1193 -1.2597 -1.3583
  338MOL0     H45586   9.064   5.055   8.216  0.2452 -1.8617  0.3819
  338MOL0     H45587   9.086   5.205   8.306  0.3349  0.4557  0.9553
  338MOL0     H45588   9.255   4.969   8.368  0.1045 -1.5645  0.0626
  338MOL0     H45589   9.087   4.959   8.409 -2.3677  2.6055  0.7756
  338MOL0     H45590   9.217   5.284   8.705 -0.6491 -0.0932  0.4894
  338MOL0     H45591   9.172   5.362   8.933  1.0726 -3.1825 -3.1080
  338MOL0     H45592   9.011   5.431   8.864 -2.2044  0.2280  1.5280
  338MOL0     H45593   9.009   5.347   9.012 -1.6473  0.3463 -0.5059
  338MOL0     H45594   8.605   4.845   8.992  1.8711  0.2504 -1.2895
  338MOL0     H45595   8.426   4.796   9.186  0.0436 -0.6356 -0.3962
  338MOL0     H45596   8.275   5.050   9.297  1.6590 -0.5018 -0.6224
  338MOL0     H45597   8.234   4.906   9.410  0.9677 -0.5732 -2.6314
  338MOL0     H45598   8.319   5.081   9.606 -1.0993  1.8960  1.7725
  338MOL0     H45599   8.340   5.200   9.484  0.3778 -0.0761 -1.6828
  338MOL0     H45600   8.071   5.134   9.444 -1.3219  1.7233  0.0846
  338MOL0     H45601   8.115   5.245   9.561  1.2094  1.1982 -4.1696
  338MOL0     H45602   8.125   4.949   9.641 -0.5150 -1.2925  1.0548
  338MOL0     H45603   8.087   5.078   9.748 -0.3578  0.1059  0.4206
  338MOL0     H45604   7.856   5.108   9.639 -0.8492 -0.2338  1.2968
  338MOL0     H45605   7.878   4.958   9.708  0.9171 -0.4571  0.8744
  338MOL0     H45606   7.898   5.016   9.399  0.5097 -0.7961 -0.2797
  338MOL0     H45607   7.972   4.876   9.454  1.7889  0.9258  2.4048
  338MOL0     H45608   7.695   4.985   9.477 -0.3058  0.2520 -0.2857
  338MOL0     H45609   7.739   4.826   9.561  1.8506 -0.7951 -0.8197
  338MOL0     H45610   7.727   4.903   9.273  0.5896  0.9182 -0.1514
  338MOL0     H45611   7.619   4.786   9.359  0.6173 -0.4102 -3.3195
  338MOL0     H45612   8.599   5.141   9.383  0.4050 -1.7559  1.1080
  338MOL0     H45613   8.744   5.185   9.189 -1.5048  1.0217  0.1598
  338MOL0     H45614   8.857   4.951   8.765  1.1291 -1.7207 -2.3156
  338MOL0     H45615   9.021   4.920   8.593  1.6813  1.1734 -2.5704
  338MOL0     H45616  10.085   4.604   7.421 -2.8789  1.6727 -2.0209
  338MOL0     H45617  10.245   4.533   7.250 -0.4862 -0.4856  2.8918
  338MOL0     H45618  10.438   4.059   6.989  0.4098  1.5353  0.2564
  338MOL0     H45619  10.541   4.020   6.771  2.1825  2.1552 -0.7327
  338MOL0     H45620  10.321   4.151   6.394 -0.5001  1.8726 -0.1574
  338MOL0     H45621  10.453   4.263   6.413  0.1040 -0.5496 -0.2487
  338MOL0     H45622  10.501   3.982   6.287 -0.8682 -0.1867 -0.6546
  338MOL0     H45623  10.619   4.106   6.331 -0.2265  1.5834  2.2379
  338MOL0     H45624  10.569   4.233   6.159  3.5161 -2.5320  2.7739
  338MOL0     H45625  10.391   4.209   6.176  0.0783  0.8666 -1.9045
  338MOL0     H45626  10.460   4.129   5.954 -2.4313 -1.2200 -1.2394
  338MOL0     H45627  10.402   3.986   6.051 -1.6784  1.5350 -0.0328
  338MOL0     H45628  10.793   3.883   5.962 -2.4961 -3.5478 -0.0813
  338MOL0     H45629  10.302   4.315   6.577 -3.5501  3.0886  2.3884
  338MOL0     H45630  10.201   4.368   6.779 -4.0033 -2.7648 -2.1236
  339MOL0     O45631   4.403   9.392   8.102 -0.5905 -0.9303  0.0703
  339MOL0     C45632   4.380   9.498   8.047 -0.0935  1.0564 -0.2160
  339MOL0     O45633   4.451   9.555   7.953  0.1419  0.3828 -0.0988
  339MOL0     C45634   4.559   9.486   7.909  0.2991 -0.4555 -0.8431
  339MOL0     C45635   4.673   9.570   7.889 -0.3873 -0.0518  0.0366
  339MOL0     C45636   4.796   9.505   7.854  0.3095 -0.4261 -0.2773
  339MOL0     C45637   4.791   9.367   7.826 -0.6057 -0.8709 -0.4819
  339MOL0     O45638   4.906   9.291   7.797  0.6165 -0.2599 -0.0451
  339MOL0     C45639   5.006   9.303   7.901 -0.2573 -0.0560 -0.1106
  339MOL0     C45640   5.074   9.173   7.920 -0.8136  1.0995 -0.1231
  339MOL0     C45641   5.147   9.134   7.790  0.9218  0.0100  0.7807
  339MOL0     C45642   5.170   8.978   7.797 -0.0678  0.5902  0.1061
  339MOL0     C45643   5.191   8.918   7.658  0.0655  0.4579  0.6131
  339MOL0     C45644   5.332   8.960   7.615 -0.6771  0.7054 -0.5666
  339MOL0     C45645   5.396   8.854   7.513  1.0855 -0.9692  0.9048
  339MOL0     C45646   5.422   8.921   7.372 -0.0100  0.4008 -0.7731
  339MOL0     N45647   5.305   8.979   7.306  0.3143  0.0553 -0.0848
  339MOL0     C45648   5.233   9.097   7.333  0.1846  0.1419  0.4890
  339MOL0     C45649   5.125   9.086   7.255 -0.3636 -0.6949 -0.1070
  339MOL0     C45650   5.021   9.205   7.241 -0.3431 -0.1484 -0.1333
  339MOL0     C45651   4.962   9.258   7.372 -0.0730  0.3384 -1.0563
  339MOL0     C45652   4.865   9.373   7.378  0.5170 -0.2241  0.0694
  339MOL0     C45653   4.927   9.514   7.338 -0.3698  0.3488 -0.4400
  339MOL0     O45654   4.823   9.591   7.273  0.4172  0.0904  0.3540
  339MOL0     C45655   4.762   9.673   7.353  0.4740 -0.2970  0.2553
  339MOL0     C45656   4.693   9.767   7.288 -0.3203 -0.5881  0.0601
  339MOL0     C45657   4.617   9.862   7.350 -0.7896  0.6387 -0.5570
  339MOL0     C45658   4.556   9.966   7.270 -0.0089 -0.3107  0.0567
  339MOL0     C45659   4.604   9.862   7.496 -0.1380 -0.2117  0.2441
  339MOL0     C45660   4.514   9.946   7.572  0.1522 -0.3090  0.1989
  339MOL0     O45661   4.446   9.893   7.680 -0.0058  0.2098 -0.6350
  339MOL0     C45662   4.393   9.988   7.764 -0.3002 -0.6313 -0.5061
  339MOL0     C45663   4.259  10.030   7.756 -0.2636  0.1124  0.5849
  339MOL0     C45664   4.212  10.118   7.846  0.2831  0.9796  0.0952
  339MOL0     C45665   4.285  10.166   7.954 -0.5669  0.3109 -0.3866
  339MOL0     O45666   4.240  10.243   8.054  0.2921  0.4750 -0.4461
  339MOL0     C45667   4.099  10.233   8.075  0.6662 -0.0473  0.5753
  339MOL0     C45668   4.059  10.344   8.169 -1.3762 -0.6139 -0.5260
  339MOL0     C45669   4.102  10.318   8.314  0.0635  0.6125  0.4153
  339MOL0     C45670   4.081  10.442   8.401  0.3558 -0.3726  0.1977
  339MOL0     C45671   4.160  10.439   8.537 -0.0506 -0.8711  0.2074
  339MOL0     C45672   4.178  10.590   8.566  0.1691 -0.1154  0.4108
  339MOL0     C45673   4.263  10.604   8.695 -0.3415  0.4930  0.1136
  339MOL0     C45674   4.251  10.737   8.764  0.6137 -0.2188 -0.1551
  339MOL0    Cl45675   4.376  10.849   8.703  0.2013  0.2252  0.2633
  339MOL0     C45676   4.420  10.134   7.952  0.7255  0.2930 -0.6355
  339MOL0     C45677   4.478  10.048   7.865  0.1784  0.0164  0.0305
  339MOL0     O45678   4.522  10.071   7.547  0.0092  0.5022 -0.1124
  339MOL0     C45679   4.676   9.761   7.571  0.1083 -0.8257  0.0576
  339MOL0     C45680   4.757   9.667   7.493 -0.2485  0.6878 -1.0870
  339MOL0     N45681   5.127   8.965   7.187  0.2098  0.2370  0.0963
  339MOL0     N45682   5.225   8.900   7.233 -0.0808 -0.0837  0.4738
  339MOL0     C45683   4.671   9.295   7.821 -0.0926  0.0138  0.3561
  339MOL0     C45684   4.558   9.350   7.875  0.7465 -0.4756  0.0970
  339MOL0     C45685   4.276   9.598   8.099 -1.1129 -0.7167  0.7032
  339MOL0     C45686   4.244   9.717   8.029  0.1228 -0.0389 -0.5975
  339MOL0     C45687   4.143   9.808   8.083 -0.1034 -0.4438 -0.6499
  339MOL0     C45688   4.083   9.788   8.204 -0.1617 -0.2159 -0.0493
  339MOL0     O45689   4.013   9.886   8.258  0.0631  0.2102  0.4648
  339MOL0     C45690   3.918   9.867   8.357  0.1717 -0.0169  0.3518
  339MOL0     C45691   3.795   9.780   8.307 -1.0141  0.1619  0.5928
  339MOL0     C45692   3.732   9.843   8.179  0.5119 -0.2325 -0.2686
  339MOL0     C45693   3.624   9.742   8.125 -0.2763 -0.6521  0.0949
  339MOL0     C45694   3.560   9.815   8.012  0.7688  0.2536  0.3199
  339MOL0     C45695   3.502   9.872   7.925  0.7499  0.0580  0.0887
  339MOL0     C45696   4.121   9.666   8.271  0.2458  0.1208 -0.7165
  339MOL0     C45697   4.215   9.574   8.223  0.4958 -0.3189  0.2301
  339MOL0     H45698   4.671   9.677   7.907  2.3407 -0.0628  0.8715
  339MOL0     H45699   4.891   9.557   7.852 -0.2598  0.9092  2.2126
  339MOL0     H45700   5.083   9.372   7.866 -1.0239  1.1868  0.5860
  339MOL0     H45701   4.972   9.334   8.000  0.1019 -1.8988  0.6265
  339MOL0     H45702   5.146   9.179   8.002  1.4249  0.5544 -1.9459
  339MOL0     H45703   5.002   9.095   7.945  0.3631 -1.0932 -2.9510
  339MOL0     H45704   5.070   9.153   7.714  0.1710 -3.0765  0.6304
  339MOL0     H45705   5.236   9.195   7.773 -0.7404  2.7225  1.0378
  339MOL0     H45706   5.250   8.965   7.870  1.7563  1.4145 -1.6762
  339MOL0     H45707   5.077   8.929   7.828  0.0032 -0.4755 -1.2723
  339MOL0     H45708   5.185   8.809   7.660  0.4910  0.4312  0.5600
  339MOL0     H45709   5.122   8.956   7.581  2.5582  1.3252 -1.3223
  339MOL0     H45710   5.327   9.061   7.574 -0.2457  1.1918  0.5259
  339MOL0     H45711   5.394   8.968   7.705 -0.8077  0.1461 -0.4235
  339MOL0     H45712   5.485   8.812   7.558  1.2497 -0.5738  0.9573
  339MOL0     H45713   5.330   8.768   7.496 -1.7448  1.1397  0.3027
  339MOL0     H45714   5.460   8.835   7.317 -1.0715 -1.2877  1.0417
  339MOL0     H45715   5.500   8.999   7.376 -1.7096  2.2566 -1.7482
  339MOL0     H45716   5.252   9.173   7.408  0.3938  0.4937  0.0874
  339MOL0     H45717   5.071   9.287   7.189  0.6595  0.2867  1.4412
  339MOL0     H45718   4.941   9.167   7.176  0.0535  0.2405 -0.8647
  339MOL0     H45719   5.043   9.285   7.442 -1.9732  0.4980  1.2214
  339MOL0     H45720   4.904   9.174   7.413  0.7140 -1.2103 -2.9742
  339MOL0     H45721   4.829   9.378   7.481 -0.2170 -0.8764 -0.1419
  339MOL0     H45722   4.781   9.340   7.316 -1.7389  0.2538  2.6835
  339MOL0     H45723   5.001   9.489   7.261 -1.7765 -1.6506 -1.2338
  339MOL0     H45724   4.983   9.559   7.421 -2.7481  1.0581  0.8770
  339MOL0     H45725   4.715   9.760   7.182 -1.1344  1.4899 -0.3070
  339MOL0     H45726   4.572  10.068   7.306 -1.3996  0.3800 -1.1772
  339MOL0     H45727   4.580   9.960   7.163 -3.4277  1.0855 -0.9414
  339MOL0     H45728   4.447   9.956   7.270 -0.0407  0.0162 -0.4691
  339MOL0     H45729   4.185   9.994   7.684 -2.3180  0.6210  2.3383
  339MOL0     H45730   4.110  10.148   7.825 -0.3881 -2.4076 -2.2328
  339MOL0     H45731   4.041  10.260   7.986 -0.8171  0.3584  1.6380
  339MOL0     H45732   4.066  10.140   8.122 -0.4731  0.8888  1.7004
  339MOL0     H45733   4.104  10.433   8.122 -0.7140 -0.0116  1.1855
  339MOL0     H45734   3.951  10.363   8.169 -1.3123 -0.2198 -0.1774
  339MOL0     H45735   4.204  10.279   8.315  0.3058  1.2205  0.2844
  339MOL0     H45736   4.026  10.247   8.347 -0.6123  2.0798  2.2490
  339MOL0     H45737   4.100  10.533   8.344  0.9614  1.6082  3.2945
  339MOL0     H45738   3.974  10.444   8.425  0.3642 -2.6689  0.6201
  339MOL0     H45739   4.251  10.378   8.530  0.5198 -0.6806  4.1213
  339MOL0     H45740   4.101  10.379   8.606 -2.2890  2.4661  1.4603
  339MOL0     H45741   4.222  10.649   8.485 -2.6568 -0.3483 -1.4343
  339MOL0     H45742   4.082  10.638   8.583 -0.1418  0.2394 -2.0298
  339MOL0     H45743   4.370  10.589   8.684  0.0944  2.8489  0.6198
  339MOL0     H45744   4.225  10.524   8.760  0.3309  0.9236  1.0501
  339MOL0     H45745   4.264  10.729   8.872 -4.1593 -3.7761  0.5150
  339MOL0     H45746   4.151  10.780   8.754  0.5153 -0.6003 -0.9276
  339MOL0     H45747   4.492  10.169   8.025 -1.6806 -2.1887  3.3335
  339MOL0     H45748   4.576  10.007   7.887 -0.6021 -1.2904  1.3150
  339MOL0     H45749   4.659   9.751   7.678  2.0938 -1.0541  0.3759
  339MOL0     H45750   4.807   9.590   7.551  0.5274  0.7511 -1.6674
  339MOL0     H45751   4.669   9.192   7.786  1.1204  1.0046 -2.9850
  339MOL0     H45752   4.475   9.282   7.892  1.0264 -0.3861  1.9426
  339MOL0     H45753   4.295   9.727   7.934  0.4298  1.9885 -0.2674
  339MOL0     H45754   4.114   9.904   8.041  0.6552 -0.1177 -0.4528
  339MOL0     H45755   3.962   9.803   8.434 -0.0328 -1.4910 -0.7071
  339MOL0     H45756   3.893   9.968   8.389  2.2799  1.6150 -2.6348
  339MOL0     H45757   3.727   9.751   8.388  1.2224 -2.8272  1.5956
  339MOL0     H45758   3.845   9.689   8.271  2.0435  0.3107  3.9026
  339MOL0     H45759   3.797   9.875   8.098 -0.3663 -0.6185 -1.1448
  339MOL0     H45760   3.683   9.935   8.212  0.7425 -0.6219  1.2889
  339MOL0     H45761   3.546   9.727   8.200 -1.2603  1.2737 -0.4663
  339MOL0     H45762   3.669   9.649   8.090 -0.2753  0.2185 -2.4675
  339MOL0     H45763   3.460   9.943   7.856  0.1115 -0.2509  0.1585
  339MOL0     H45764   4.083   9.634   8.367 -1.9703  1.9889 -0.8714
  339MOL0     H45765   4.228   9.488   8.288  0.2033 -1.1425 -0.7724
  340MOL0     O45766   2.995   0.140   2.032  0.5476 -0.1464 -0.0679
  340MOL0     C45767   2.995   0.091   2.141 -0.1129 -0.4875  0.3725
  340MOL0     O45768   2.900   0.012   2.193 -0.6008 -0.2060 -0.5398
  340MOL0     C45769   2.766   0.008   2.148 -0.1614 -0.3635 -0.1990
  340MOL0     C45770   2.702   0.114   2.090 -0.1855  0.0417  0.0436
  340MOL0     C45771   2.567   0.096   2.056  0.6382  0.3385 -0.3008
  340MOL0     C45772   2.504  -0.024   2.079  0.0761 -0.4669 -0.0215
  340MOL0     O45773   2.372  -0.047   2.046  0.6879 -0.1077 -0.8758
  340MOL0     C45774   2.288   0.060   1.998  0.4920 -0.9005  0.5103
  340MOL0     C45775   2.142   0.024   2.002  0.6546 -0.1860 -0.6944
  340MOL0     C45776   2.087  -0.005   2.138 -0.3721  0.1011 -0.9531
  340MOL0     C45777   1.938   0.015   2.129 -0.4216 -0.7088  0.2847
  340MOL0     C45778   1.843  -0.015   2.244  0.5536 -0.1115 -0.5249
  340MOL0     C45779   1.693  -0.022   2.180 -0.7066 -0.0131 -0.2869
  340MOL0     C45780   1.589  -0.015   2.286 -0.3016 -0.4552  0.1321
  340MOL0     C45781   1.570  -0.148   2.372  0.0867 -0.7368  0.3435
  340MOL0     N45782   1.431  -0.163   2.387  0.7147  0.0152 -0.1619
  340MOL0     C45783   1.351  -0.074   2.465 -1.1953  0.6815  0.0511
  340MOL0     C45784   1.235  -0.149   2.482 -0.0471 -0.5211  0.2004
  340MOL0     C45785   1.106  -0.098   2.549 -0.2713  0.0232 -0.1087
  340MOL0     C45786   1.135  -0.038   2.679  0.3934  0.0041  0.0293
  340MOL0     C45787   1.196  -0.123   2.790 -0.7931 -0.2939 -0.5685
  340MOL0     C45788   1.213  -0.015   2.906 -0.2185 -0.3293  0.1423
  340MOL0     O45789   1.319   0.067   2.868 -0.1775 -0.5501  0.8888
  340MOL0     C45790   1.362   0.154   2.968  1.1894 -0.9441 -0.3433
  340MOL0     C45791   1.457   0.243   2.925  0.1459 -0.7061 -0.7338
  340MOL0     C45792   1.497   0.351   3.001  0.8489  0.2557 -0.1031
  340MOL0     C45793   1.608   0.438   2.939  0.9136 -1.0077 -0.5182
  340MOL0     C45794   1.441   0.367   3.130  0.0596  0.3849  0.0244
  340MOL0     C45795   1.476   0.484   3.209 -0.7102  0.2552 -0.3076
  340MOL0     O45796   1.449   0.479   3.335  0.5712  0.6119 -0.3773
  340MOL0     C45797   1.490   0.565   3.432 -0.0928 -0.5451 -0.5669
  340MOL0     C45798   1.483   0.524   3.560 -0.0759 -0.4944 -0.1204
  340MOL0     C45799   1.515   0.600   3.672  0.3916 -0.2855 -0.9456
  340MOL0     C45800   1.543   0.737   3.654 -0.8111 -0.1004 -0.3325
  340MOL0     O45801   1.568   0.817   3.760  1.0325 -1.0121 -0.0747
  340MOL0     C45802   1.550   0.960   3.735  0.2424 -0.6572  0.3451
  340MOL0     C45803   1.677   1.038   3.690 -0.7583  0.6679 -0.8410
  340MOL0     C45804   1.648   1.169   3.629 -0.0854  0.1907 -0.0751
  340MOL0     C45805   1.610   1.274   3.735 -0.7807  0.1485 -0.5189
  340MOL0     C45806   1.730   1.346   3.802 -0.6148 -0.0044 -0.1019
  340MOL0     C45807   1.666   1.460   3.886  0.1477  0.4065 -0.5768
  340MOL0     C45808   1.622   1.407   4.023  0.5643  0.3226 -0.1825
  340MOL0     C45809   1.686   1.466   4.150 -0.3237  0.0478  0.2156
  340MOL0    Cl45810   1.855   1.473   4.127  0.0972  0.1079  0.0891
  340MOL0     C45811   1.544   0.781   3.522 -0.7164 -0.4848 -0.5711
  340MOL0     C45812   1.524   0.700   3.410  0.3738 -0.2905  1.1748
  340MOL0     O45813   1.520   0.585   3.156  0.2227 -0.3573 -0.9771
  340MOL0     C45814   1.354   0.269   3.181 -0.4228  0.5684 -0.0343
  340MOL0     C45815   1.323   0.155   3.107  0.4096 -0.1069  0.8590
  340MOL0     N45816   1.251  -0.271   2.416 -0.6139 -0.0449 -0.2998
  340MOL0     N45817   1.364  -0.273   2.356 -0.2440  0.4651 -0.4225
  340MOL0     C45818   2.569  -0.132   2.141  0.5869 -0.2399 -0.2341
  340MOL0     C45819   2.702  -0.120   2.169 -0.0755  0.8735  0.4748
  340MOL0     C45820   3.122   0.097   2.222 -0.0933  0.3552 -0.3370
  340MOL0     C45821   3.114   0.078   2.355  0.1472 -0.3047  0.6095
  340MOL0     C45822   3.225   0.095   2.433 -0.3314  0.3408  0.1102
  340MOL0     C45823   3.352   0.129   2.377  0.0201  0.4087  0.1101
  340MOL0     O45824   3.451   0.159   2.469  0.2536  0.1892 -0.6043
  340MOL0     C45825   3.556   0.252   2.434 -0.2014  0.5306 -0.3311
  340MOL0     C45826   3.677   0.166   2.388  0.3617  0.5499  0.2294
  340MOL0     C45827   3.805   0.241   2.348  0.4794 -0.1809  0.6405
  340MOL0     C45828   3.899   0.137   2.282  0.0261 -0.5336  0.1660
  340MOL0     C45829   3.940   0.043   2.383  0.1926 -0.9708 -0.0767
  340MOL0     C45830   3.979  -0.048   2.440  0.3629 -0.2692  0.4709
  340MOL0     C45831   3.362   0.161   2.236  0.7983  0.2915 -0.6082
  340MOL0     C45832   3.243   0.134   2.162  0.2763  0.7250  0.5232
  340MOL0     H45833   2.748   0.210   2.070 -0.7511  0.4391  0.6116
  340MOL0     H45834   2.514   0.182   2.015  1.4635  1.1612  0.3086
  340MOL0     H45835   2.313   0.152   2.051 -3.4331  1.0817 -0.6943
  340MOL0     H45836   2.322   0.063   1.894  0.5370 -1.5197  0.5024
  340MOL0     H45837   2.089   0.112   1.966  0.6909  0.5636  1.0237
  340MOL0     H45838   2.113  -0.066   1.947 -1.4351 -0.4015  0.6495
  340MOL0     H45839   2.115  -0.104   2.174  3.8621  2.1750  2.4240
  340MOL0     H45840   2.133   0.064   2.210 -0.5990 -1.0192  0.3053
  340MOL0     H45841   1.928   0.116   2.087 -0.7040 -1.1495 -0.7503
  340MOL0     H45842   1.903  -0.048   2.047 -2.5930  1.2398 -0.3994
  340MOL0     H45843   1.868  -0.101   2.306 -0.6104  0.9187  1.4949
  340MOL0     H45844   1.845   0.072   2.310  1.2091 -1.0160  0.6700
  340MOL0     H45845   1.675   0.052   2.102 -0.2951  3.2766  2.5208
  340MOL0     H45846   1.679  -0.117   2.127 -1.8138  1.3585 -2.5979
  340MOL0     H45847   1.604   0.079   2.340 -0.5319  1.6633 -3.1735
  340MOL0     H45848   1.502   0.010   2.224  1.5548 -0.0145 -2.4952
  340MOL0     H45849   1.620  -0.157   2.469  2.3691 -2.5195 -0.8839
  340MOL0     H45850   1.609  -0.232   2.314  0.0187 -0.9466  0.6059
  340MOL0     H45851   1.364   0.024   2.508  2.6782  0.3171  0.0894
  340MOL0     H45852   1.061  -0.032   2.474  1.6220 -0.7813 -2.0940
  340MOL0     H45853   1.041  -0.183   2.568  0.5988 -0.1599  2.4660
  340MOL0     H45854   1.037  -0.009   2.718  1.1887  0.5369  1.7523
  340MOL0     H45855   1.203   0.047   2.669 -1.1327  1.3061  0.2455
  340MOL0     H45856   1.287  -0.173   2.755  0.0419 -1.0152  2.3345
  340MOL0     H45857   1.138  -0.204   2.834  1.2606 -1.5895 -0.1164
  340MOL0     H45858   1.257  -0.071   2.989  3.6275  0.5385 -1.1296
  340MOL0     H45859   1.122   0.035   2.939  0.1554 -0.3835  1.3001
  340MOL0     H45860   1.497   0.250   2.824 -0.0357  1.2304 -0.7114
  340MOL0     H45861   1.680   0.463   3.017  0.4946  0.9743 -0.7138
  340MOL0     H45862   1.654   0.389   2.853 -1.0008 -0.7945 -1.7397
  340MOL0     H45863   1.560   0.531   2.907 -0.3268 -1.3186  0.3687
  340MOL0     H45864   1.462   0.418   3.569  1.0864 -1.3229 -4.7385
  340MOL0     H45865   1.492   0.565   3.772 -1.7638 -0.8604 -1.5872
  340MOL0     H45866   1.453   0.978   3.687 -1.0406 -0.1468  2.9209
  340MOL0     H45867   1.521   0.993   3.836 -0.7369 -1.9003  0.5087
  340MOL0     H45868   1.749   1.049   3.772  1.1516  4.2118 -2.7797
  340MOL0     H45869   1.726   0.973   3.617 -0.2595 -0.5643  0.5203
  340MOL0     H45870   1.567   1.162   3.556  0.6437 -0.1596 -0.8560
  340MOL0     H45871   1.729   1.208   3.568  0.5994 -0.5019  0.3789
  340MOL0     H45872   1.543   1.341   3.681 -1.0481  0.1280 -0.2110
  340MOL0     H45873   1.544   1.227   3.808 -1.7006 -2.5973 -2.9343
  340MOL0     H45874   1.798   1.375   3.721 -1.3206 -2.2037 -1.5663
  340MOL0     H45875   1.787   1.268   3.853  1.5744 -0.9743 -3.6574
  340MOL0     H45876   1.745   1.536   3.894  1.1854 -0.5687 -1.4052
  340MOL0     H45877   1.573   1.499   3.842 -0.9222 -2.6410 -1.2459
  340MOL0     H45878   1.643   1.299   4.023  1.3445  0.4695  0.1456
  340MOL0     H45879   1.513   1.407   4.032  0.6286  0.0527  0.7108
  340MOL0     H45880   1.671   1.407   4.241  1.0930  0.8667  1.0209
  340MOL0     H45881   1.647   1.567   4.166 -2.9313 -1.1078  1.9553
  340MOL0     H45882   1.557   0.886   3.498 -1.5516 -0.3762 -0.5546
  340MOL0     H45883   1.523   0.750   3.314 -2.0052  0.5546  1.5792
  340MOL0     H45884   1.315   0.270   3.283  0.9674 -0.3591  0.5388
  340MOL0     H45885   1.261   0.075   3.146  1.4455 -0.9804  0.7641
  340MOL0     H45886   2.521  -0.229   2.153  0.6230 -0.6106 -2.6223
  340MOL0     H45887   2.758  -0.209   2.195 -0.0471  1.2792  1.8772
  340MOL0     H45888   3.020   0.045   2.398  0.8684 -0.3803  2.1942
  340MOL0     H45889   3.207   0.069   2.537 -1.2824  0.3568 -0.0499
  340MOL0     H45890   3.511   0.313   2.354 -5.9367 -0.7135  1.5020
  340MOL0     H45891   3.598   0.317   2.511  0.7095  0.7882 -1.0137
  340MOL0     H45892   3.644   0.095   2.311  1.9244  0.2824 -0.2239
  340MOL0     H45893   3.696   0.104   2.476 -1.5079  0.4791  0.6372
  340MOL0     H45894   3.850   0.287   2.437 -0.2756  1.7280  0.0590
  340MOL0     H45895   3.791   0.325   2.280 -0.6406  2.3833  3.7853
  340MOL0     H45896   3.991   0.175   2.237  1.7656 -3.6837  0.7444
  340MOL0     H45897   3.834   0.093   2.206 -0.3447 -1.2006  0.8495
  340MOL0     H45898   4.027  -0.125   2.497  1.1589  0.2266  0.4966
  340MOL0     H45899   3.462   0.168   2.193  0.2212  0.7194 -1.9029
  340MOL0     H45900   3.261   0.154   2.057  0.0190 -0.9798  0.1214
  341MOL0     O45901   9.368   5.124   3.444 -0.4230 -0.6334 -0.3650
  341MOL0     C45902   9.458   5.034   3.477 -0.4254 -0.4102  0.7852
  341MOL0     O45903   9.431   4.921   3.531  0.0254  0.3323  0.0072
  341MOL0     C45904   9.305   4.862   3.548 -0.3247 -0.4028  1.0026
  341MOL0     C45905   9.243   4.769   3.454 -0.9747 -0.6514 -0.3802
  341MOL0     C45906   9.110   4.723   3.476 -0.3350 -0.9600  0.4280
  341MOL0     C45907   9.043   4.762   3.587 -0.5313 -1.4162 -0.2068
  341MOL0     O45908   8.914   4.729   3.604  0.6633 -0.3384  0.6108
  341MOL0     C45909   8.848   4.619   3.527 -0.7664 -0.6049  0.1798
  341MOL0     C45910   8.701   4.593   3.563 -0.2182  0.4833 -0.2756
  341MOL0     C45911   8.681   4.547   3.713  0.0979 -0.3287 -0.8396
  341MOL0     C45912   8.550   4.474   3.742  0.1401 -0.1588 -0.0487
  341MOL0     C45913   8.424   4.559   3.729 -0.3088 -0.2983  0.7708
  341MOL0     C45914   8.290   4.479   3.747  0.0472 -0.7782  0.0293
  341MOL0     C45915   8.265   4.450   3.894 -0.3285  0.2351  0.0533
  341MOL0     C45916   8.136   4.364   3.906 -0.0318 -0.2107 -0.1015
  341MOL0     N45917   8.008   4.441   3.899 -0.1613 -0.0538  0.1776
  341MOL0     C45918   7.974   4.545   3.978 -0.5557 -0.0684 -0.5169
  341MOL0     C45919   7.847   4.587   3.944  0.2622  0.3732 -0.3006
  341MOL0     C45920   7.757   4.676   4.017 -0.1533  0.2918  0.5227
  341MOL0     C45921   7.608   4.649   4.026  0.2877  0.0742 -0.7041
  341MOL0     C45922   7.529   4.727   4.130  0.1892 -0.1914  0.0140
  341MOL0     C45923   7.385   4.681   4.146 -0.2834 -0.1993 -0.1847
  341MOL0     O45924   7.319   4.695   4.014 -0.6051  0.5125 -0.2282
  341MOL0     C45925   7.185   4.660   4.010 -0.2338 -0.3249  0.4853
  341MOL0     C45926   7.105   4.730   3.927  0.4363 -0.6326  0.6495
  341MOL0     C45927   6.971   4.701   3.923  0.4132 -0.5945 -0.2020
  341MOL0     C45928   6.896   4.783   3.825  0.0299 -0.0939  0.2753
  341MOL0     C45929   6.914   4.587   3.987  0.3106  0.4349  1.2390
  341MOL0     C45930   6.766   4.537   3.977  1.1746 -0.9193 -1.0504
  341MOL0     O45931   6.738   4.403   3.978  0.3519 -0.2101  0.0148
  341MOL0     C45932   6.617   4.351   3.936 -0.6039  0.4973 -0.8455
  341MOL0     C45933   6.498   4.345   4.010 -0.7947 -0.0131 -0.0981
  341MOL0     C45934   6.391   4.274   3.965  0.4822  0.5779  0.4902
  341MOL0     C45935   6.390   4.218   3.829  0.8250 -0.7468 -0.5306
  341MOL0     O45936   6.280   4.155   3.772 -0.1633 -0.3075 -0.2056
  341MOL0     C45937   6.168   4.149   3.850 -0.2156 -0.2437  0.0623
  341MOL0     C45938   6.069   4.063   3.775 -0.0117  0.3494 -0.3389
  341MOL0     C45939   5.941   4.026   3.849  0.3517  0.5714  0.2290
  341MOL0     C45940   5.825   4.121   3.824  0.1526 -0.2436  0.5567
  341MOL0     C45941   5.721   4.090   3.937 -0.1312 -0.5007 -0.6288
  341MOL0     C45942   5.675   3.951   3.952  0.2380  0.1275  0.0286
  341MOL0     C45943   5.550   3.941   4.031 -0.2893 -0.5625 -0.1559
  341MOL0     C45944   5.517   3.801   4.071  0.2416 -0.1319  0.0460
  341MOL0    Cl45945   5.584   3.680   3.963 -0.0908  0.6298  0.1402
  341MOL0     C45946   6.513   4.228   3.759  0.4371 -0.1062  0.1267
  341MOL0     C45947   6.628   4.284   3.813  0.2401  0.1849  0.1486
  341MOL0     O45948   6.682   4.624   3.976 -0.2540 -1.1464 -0.1622
  341MOL0     C45949   7.001   4.516   4.069  0.4419  0.6156 -0.0645
  341MOL0     C45950   7.138   4.552   4.080 -0.7977 -0.5713 -1.1478
  341MOL0     N45951   7.811   4.512   3.829 -0.0622 -0.0170  0.5048
  341MOL0     N45952   7.909   4.432   3.805  1.2190 -0.5447 -0.1222
  341MOL0     C45953   9.111   4.845   3.677  0.0948  0.1789 -0.8263
  341MOL0     C45954   9.243   4.893   3.667 -0.5190 -0.9061 -0.3526
  341MOL0     C45955   9.603   5.058   3.432  0.6981 -0.5761 -0.2836
  341MOL0     C45956   9.712   4.985   3.490  0.1232  0.8702 -0.0840
  341MOL0     C45957   9.847   5.016   3.458  0.1217  1.3245  0.3311
  341MOL0     C45958   9.882   5.127   3.384 -0.4659 -0.0629 -0.0341
  341MOL0     O45959  10.007   5.170   3.358  0.5710  0.5511  0.4542
  341MOL0     C45960  10.126   5.102   3.427  0.5991  0.3995  0.4585
  341MOL0     C45961  10.251   5.154   3.373 -0.4144 -0.7515  0.2142
  341MOL0     C45962  10.265   5.305   3.408  0.3334 -0.0319 -0.0060
  341MOL0     C45963  10.397   5.352   3.355  0.1350  0.0590 -0.6350
  341MOL0     C45964  10.420   5.496   3.382  0.2517 -0.2398 -0.3702
  341MOL0     C45965  10.442   5.604   3.425 -1.0709  0.0402  0.3325
  341MOL0     C45966   9.774   5.195   3.325 -0.2224 -0.2741 -0.1291
  341MOL0     C45967   9.635   5.171   3.352 -1.3561  1.0164 -0.3195
  341MOL0     H45968   9.293   4.748   3.360 -3.8248 -1.5120 -1.8247
  341MOL0     H45969   9.079   4.656   3.397  1.2758 -0.2171 -0.8895
  341MOL0     H45970   8.851   4.650   3.422 -0.6274  0.3078  0.4448
  341MOL0     H45971   8.900   4.523   3.533 -2.0416 -1.2817  0.7646
  341MOL0     H45972   8.647   4.686   3.542 -1.5813  0.9182  4.0984
  341MOL0     H45973   8.655   4.514   3.503 -2.1222  0.5956  0.9554
  341MOL0     H45974   8.759   4.482   3.754  1.4658 -1.2684 -4.5163
  341MOL0     H45975   8.688   4.636   3.777 -1.2696 -1.7495  1.4288
  341MOL0     H45976   8.523   4.383   3.688 -1.2209  0.7726 -1.0141
  341MOL0     H45977   8.562   4.440   3.845  0.8378  2.4341  0.7994
  341MOL0     H45978   8.442   4.631   3.809 -0.1030 -2.4830  2.8028
  341MOL0     H45979   8.435   4.600   3.628 -0.5279  0.8238  1.1857
  341MOL0     H45980   8.215   4.546   3.704  0.2254  0.5890  1.7268
  341MOL0     H45981   8.305   4.386   3.691  0.5353 -0.3644 -0.5319
  341MOL0     H45982   8.348   4.390   3.931 -0.3818  0.2997  0.2740
  341MOL0     H45983   8.260   4.543   3.952  3.8567  1.9313 -1.8882
  341MOL0     H45984   8.157   4.319   4.003 -0.9665 -0.7948 -0.1524
  341MOL0     H45985   8.131   4.280   3.837 -0.5637  1.3637 -2.0932
  341MOL0     H45986   8.034   4.584   4.059  0.5200 -3.1840  0.3539
  341MOL0     H45987   7.789   4.671   4.121 -2.4559  1.1236  1.3238
  341MOL0     H45988   7.775   4.777   3.978 -2.5193  0.3035 -0.6884
  341MOL0     H45989   7.582   4.543   4.035  0.7610  0.0177  0.1850
  341MOL0     H45990   7.575   4.686   3.929  0.1859  1.1497 -0.2681
  341MOL0     H45991   7.521   4.831   4.096 -2.5726  0.8240  3.1466
  341MOL0     H45992   7.576   4.715   4.228 -1.3423 -1.6426  0.6137
  341MOL0     H45993   7.332   4.746   4.216  2.8415 -0.8067  3.0426
  341MOL0     H45994   7.376   4.584   4.196  0.5342 -0.4201 -0.4472
  341MOL0     H45995   7.157   4.805   3.869  2.6657 -0.1144  3.1173
  341MOL0     H45996   6.886   4.729   3.730 -0.2590  2.0535 -0.9872
  341MOL0     H45997   6.793   4.809   3.853 -0.0064  0.6054 -0.4702
  341MOL0     H45998   6.956   4.869   3.795 -0.7592  0.7584  1.0737
  341MOL0     H45999   6.494   4.395   4.106 -2.9759  2.7773 -1.5112
  341MOL0     H46000   6.306   4.261   4.031 -1.3211  0.0034 -1.8145
  341MOL0     H46001   6.184   4.112   3.952  0.8507 -2.1427 -0.7415
  341MOL0     H46002   6.122   4.248   3.846 -0.1093 -0.2136 -0.6480
  341MOL0     H46003   6.054   4.117   3.681 -0.4061  0.5070 -0.1880
  341MOL0     H46004   6.117   3.969   3.745 -0.4028 -0.2463  0.8414
  341MOL0     H46005   5.971   4.000   3.951  0.8593 -2.9214 -0.6868
  341MOL0     H46006   5.909   3.927   3.816 -0.3347  1.8110 -3.2340
  341MOL0     H46007   5.867   4.222   3.822  3.6282 -1.5088  2.2412
  341MOL0     H46008   5.774   4.113   3.727 -2.0838 -0.0989  1.6550
  341MOL0     H46009   5.630   4.144   3.911 -0.5883 -1.1889 -0.4897
  341MOL0     H46010   5.770   4.128   4.027  1.1038  0.3218 -1.6034
  341MOL0     H46011   5.655   3.910   3.853  0.1040  1.1536 -0.3877
  341MOL0     H46012   5.747   3.885   4.001 -1.5205 -0.0984  2.4835
  341MOL0     H46013   5.466   3.990   3.982 -0.2118 -0.0694  0.1919
  341MOL0     H46014   5.557   3.994   4.127 -2.8786 -2.9557  1.4881
  341MOL0     H46015   5.408   3.796   4.078  0.2101 -0.1082 -0.4112
  341MOL0     H46016   5.547   3.786   4.175 -2.9189  3.5033  1.7156
  341MOL0     H46017   6.528   4.182   3.662  1.6447 -0.2650  0.3669
  341MOL0     H46018   6.728   4.293   3.772 -0.1885  1.9875 -0.5689
  341MOL0     H46019   6.956   4.428   4.116 -1.4124  0.7376 -1.4924
  341MOL0     H46020   7.193   4.488   4.148 -2.8486 -3.5274 -2.0533
  341MOL0     H46021   9.053   4.880   3.762  0.0404  0.5395 -1.0071
  341MOL0     H46022   9.289   4.970   3.727 -1.7432 -0.3367 -0.1150
  341MOL0     H46023   9.694   4.913   3.569  3.2250  0.6952  0.6084
  341MOL0     H46024   9.925   4.956   3.504  0.1091  0.5942 -0.5595
  341MOL0     H46025  10.139   5.109   3.536  2.0081  2.9058  0.2111
  341MOL0     H46026  10.126   4.994   3.406 -0.1091  0.8593 -2.2937
  341MOL0     H46027  10.252   5.144   3.264 -3.1318 -2.2889  0.2569
  341MOL0     H46028  10.342   5.109   3.414  1.1520 -1.9271 -4.0234
  341MOL0     H46029  10.263   5.319   3.516  2.9459 -0.8026  0.1926
  341MOL0     H46030  10.187   5.362   3.355  2.8827  1.8496 -1.9565
  341MOL0     H46031  10.388   5.349   3.246  0.0704 -0.8285 -0.6063
  341MOL0     H46032  10.483   5.293   3.388 -2.4999 -1.3943  4.6985
  341MOL0     H46033  10.486   5.692   3.467  2.8338 -2.5502  2.3507
  341MOL0     H46034   9.806   5.284   3.273  1.3274  0.3575  1.7568
  341MOL0     H46035   9.555   5.237   3.321 -2.8831 -0.2001  0.8742
  342MOL0     O46036   6.694   4.048   2.315 -0.2353 -0.0513  0.3075
  342MOL0     C46037   6.810   4.017   2.347 -0.3432 -1.3552 -0.2497
  342MOL0     O46038   6.855   4.070   2.469  0.1536 -0.8769  0.1108
  342MOL0     C46039   6.782   4.171   2.530 -0.7292  0.1186  0.2398
  342MOL0     C46040   6.738   4.285   2.456 -0.8217 -0.6508  0.2513
  342MOL0     C46041   6.669   4.387   2.527 -0.6405 -0.0679  0.2479
  342MOL0     C46042   6.638   4.379   2.666 -0.5959  0.4624  0.6652
  342MOL0     O46043   6.575   4.483   2.723 -0.1748 -0.5282  0.8966
  342MOL0     C46044   6.434   4.469   2.721  0.0506 -0.1817 -0.0685
  342MOL0     C46045   6.352   4.575   2.640  0.6432 -0.1893  0.8316
  342MOL0     C46046   6.210   4.516   2.609 -0.2959 -0.5161  0.0393
  342MOL0     C46047   6.127   4.480   2.740 -0.2666  0.1837 -0.5405
  342MOL0     C46048   5.982   4.454   2.724 -1.2012  0.1562  0.4841
  342MOL0     C46049   5.893   4.568   2.737  0.1863  0.4878 -0.0099
  342MOL0     C46050   5.746   4.520   2.726 -0.4179 -0.0729 -0.0266
  342MOL0     C46051   5.651   4.632   2.724  0.6200 -0.1799 -0.4449
  342MOL0     N46052   5.509   4.613   2.726  0.7170 -0.0020  0.3040
  342MOL0     C46053   5.432   4.518   2.802 -0.5318 -0.8565  0.0991
  342MOL0     C46054   5.306   4.537   2.762  0.1824  0.3237 -0.4639
  342MOL0     C46055   5.185   4.479   2.836  0.1978 -0.0074  0.8514
  342MOL0     C46056   5.191   4.503   2.990 -0.1052 -0.6479 -0.4717
  342MOL0     C46057   5.179   4.649   3.039  0.3587  0.8589  0.6321
  342MOL0     C46058   5.272   4.705   3.151  1.1471 -0.3491  1.0379
  342MOL0     O46059   5.410   4.715   3.113  0.4714  0.9905  0.2867
  342MOL0     C46060   5.510   4.739   3.200  0.7260  0.0160  1.2242
  342MOL0     C46061   5.504   4.742   3.339  0.4934 -0.2178 -0.1422
  342MOL0     C46062   5.612   4.779   3.411  0.2370 -0.6933 -0.1546
  342MOL0     C46063   5.578   4.815   3.555 -0.2861 -0.2118  0.1439
  342MOL0     C46064   5.744   4.796   3.355 -0.1657  0.1495 -0.6267
  342MOL0     C46065   5.867   4.811   3.432  0.7157 -0.0221 -0.2629
  342MOL0     O46066   5.983   4.814   3.349  0.5383  0.3447  0.8756
  342MOL0     C46067   6.095   4.892   3.362 -0.2494  0.6546  0.0499
  342MOL0     C46068   6.199   4.879   3.271  0.3630 -0.2319  0.7681
  342MOL0     C46069   6.315   4.960   3.280  0.7659 -0.7256  0.0613
  342MOL0     C46070   6.329   5.049   3.391  0.7222 -0.4411 -0.2293
  342MOL0     O46071   6.434   5.137   3.391  0.4197 -0.0321 -0.0603
  342MOL0     C46072   6.407   5.275   3.379 -0.0901  0.1950  0.6683
  342MOL0     C46073   6.391   5.307   3.231  0.4299  0.7544 -0.0833
  342MOL0     C46074   6.519   5.367   3.163  0.1715 -0.7207 -0.2198
  342MOL0     C46075   6.659   5.314   3.204 -0.0789  0.1531  0.7380
  342MOL0     C46076   6.772   5.347   3.112 -0.2324  0.5660  0.5443
  342MOL0     C46077   6.904   5.300   3.176  0.1259  0.5013 -0.0528
  342MOL0     C46078   7.027   5.327   3.086  0.0080 -0.7056 -0.5846
  342MOL0     C46079   7.159   5.265   3.148 -0.2510  1.2506  0.4749
  342MOL0    Cl46080   7.148   5.093   3.176 -0.5480  0.0619 -0.2737
  342MOL0     C46081   6.218   5.066   3.479 -0.3235  0.5050 -0.1141
  342MOL0     C46082   6.108   4.990   3.465  0.5612  0.7719 -0.5168
  342MOL0     O46083   5.863   4.815   3.551  0.7433  0.6567 -0.4291
  342MOL0     C46084   5.752   4.780   3.216  0.3091  0.3979  0.0752
  342MOL0     C46085   5.638   4.748   3.145 -0.3559  1.0077 -0.0953
  342MOL0     N46086   5.308   4.623   2.657 -0.0657 -0.3979  0.3526
  342MOL0     N46087   5.427   4.662   2.629  0.8745 -0.1700 -0.1965
  342MOL0     C46088   6.689   4.264   2.733  0.8241  0.3615  0.0029
  342MOL0     C46089   6.749   4.163   2.658 -0.0195 -0.4979 -0.1243
  342MOL0     C46090   6.884   3.923   2.266 -0.4587  0.1233 -0.2678
  342MOL0     C46091   7.029   3.912   2.290 -0.6331 -0.0765  0.2522
  342MOL0     C46092   7.110   3.829   2.205  0.1905 -0.5092 -0.4837
  342MOL0     C46093   7.043   3.761   2.102 -0.0606 -0.1164 -0.1703
  342MOL0     O46094   7.111   3.669   2.020  0.0354 -0.0517 -0.1980
  342MOL0     C46095   7.249   3.643   2.019 -1.3795 -1.4061  0.3272
  342MOL0     C46096   7.304   3.740   1.911  0.7649  0.0318 -0.8392
  342MOL0     C46097   7.252   3.716   1.778 -0.9003 -0.3704  0.3419
  342MOL0     C46098   7.331   3.787   1.678 -0.2125  0.4030  0.3512
  342MOL0     C46099   7.287   3.761   1.542  0.6850 -0.8438 -0.0515
  342MOL0     C46100   7.265   3.741   1.428 -0.1398  0.3542  0.1951
  342MOL0     C46101   6.904   3.776   2.082 -1.3400  0.0498  0.9769
  342MOL0     C46102   6.822   3.854   2.160  0.0576 -0.8111  0.2771
  342MOL0     H46103   6.767   4.296   2.353 -3.2132  3.5861 -0.2021
  342MOL0     H46104   6.629   4.474   2.476  2.7049  1.6446  0.2795
  342MOL0     H46105   6.412   4.373   2.672  1.8457 -0.4113 -0.4751
  342MOL0     H46106   6.400   4.470   2.825  0.6599  0.8912  0.1295
  342MOL0     H46107   6.344   4.673   2.689  1.1241  0.0182  0.4980
  342MOL0     H46108   6.413   4.584   2.550  1.9608 -1.8550  1.5033
  342MOL0     H46109   6.149   4.587   2.552 -2.6770 -2.1105  0.4639
  342MOL0     H46110   6.214   4.430   2.542 -0.3222  0.1153 -0.7929
  342MOL0     H46111   6.166   4.387   2.783  1.1256  0.4115 -1.2699
  342MOL0     H46112   6.145   4.547   2.824  0.6866  0.1620 -0.7204
  342MOL0     H46113   5.962   4.398   2.632 -1.0744  2.9943 -1.3910
  342MOL0     H46114   5.949   4.387   2.803 -1.7650  0.1178  0.2221
  342MOL0     H46115   5.901   4.618   2.834 -2.0486  1.8725 -0.4675
  342MOL0     H46116   5.914   4.637   2.655  0.9373 -1.0982 -1.2202
  342MOL0     H46117   5.729   4.455   2.640 -2.1543 -0.8003  0.8283
  342MOL0     H46118   5.723   4.455   2.811  0.2335 -0.2692  0.0092
  342MOL0     H46119   5.679   4.689   2.636  2.8355 -2.9441 -1.7148
  342MOL0     H46120   5.669   4.703   2.806 -0.8623  1.3084 -1.3741
  342MOL0     H46121   5.490   4.459   2.873  0.2096 -1.1544 -0.7418
  342MOL0     H46122   5.098   4.529   2.792  2.9995  2.9280 -1.8352
  342MOL0     H46123   5.164   4.372   2.825 -2.8844  0.2834  2.6994
  342MOL0     H46124   5.282   4.456   3.029 -1.8156 -2.5120  1.5162
  342MOL0     H46125   5.109   4.449   3.038 -0.8836 -0.3905 -1.4880
  342MOL0     H46126   5.077   4.669   3.072  0.5734 -0.0415  1.9473
  342MOL0     H46127   5.187   4.718   2.954 -0.8433  1.0385  0.6506
  342MOL0     H46128   5.254   4.644   3.240 -0.3774  0.0732  1.0471
  342MOL0     H46129   5.233   4.804   3.176 -1.4205 -1.1929  0.6227
  342MOL0     H46130   5.414   4.735   3.399  1.0910  2.1939  1.1953
  342MOL0     H46131   5.471   4.828   3.576 -0.1571 -1.3438  1.7125
  342MOL0     H46132   5.627   4.744   3.621  0.5492  1.1580  1.0566
  342MOL0     H46133   5.636   4.905   3.579  0.0955 -0.0024 -1.4904
  342MOL0     H46134   6.194   4.792   3.207 -2.2124  1.5302 -1.6676
  342MOL0     H46135   6.396   4.953   3.207 -0.7959  1.1078 -1.9543
  342MOL0     H46136   6.314   5.301   3.430 -0.1676  0.3616  0.4453
  342MOL0     H46137   6.486   5.334   3.426  0.3776  1.3618 -1.4709
  342MOL0     H46138   6.362   5.220   3.171 -1.1382  1.3814 -0.2941
  342MOL0     H46139   6.303   5.372   3.221 -1.9632 -2.4046 -1.1597
  342MOL0     H46140   6.517   5.471   3.199 -3.4535  0.1177 -2.2468
  342MOL0     H46141   6.499   5.375   3.056 -3.3099  3.0100  0.4269
  342MOL0     H46142   6.678   5.336   3.309  1.9726 -1.0171  0.6573
  342MOL0     H46143   6.664   5.205   3.205 -0.5072  0.0450 -1.6243
  342MOL0     H46144   6.775   5.455   3.098 -0.3341  0.1512 -3.8431
  342MOL0     H46145   6.754   5.311   3.010 -2.0306  2.5092  0.1217
  342MOL0     H46146   6.933   5.349   3.269  4.0804 -0.3366 -0.6514
  342MOL0     H46147   6.895   5.191   3.185 -1.1194  0.3784 -2.1649
  342MOL0     H46148   7.027   5.435   3.065  1.1380 -0.5905 -0.0712
  342MOL0     H46149   7.016   5.289   2.984 -0.2290  0.9613 -1.2234
  342MOL0     H46150   7.178   5.308   3.247 -0.6255  0.4357  0.9070
  342MOL0     H46151   7.248   5.280   3.087  1.9356 -0.3218  3.0987
  342MOL0     H46152   6.227   5.134   3.563  0.1701 -0.2441  0.4538
  342MOL0     H46153   6.033   5.000   3.543 -1.0169  0.0627 -1.8926
  342MOL0     H46154   5.842   4.780   3.156 -0.5732 -1.3361 -1.3571
  342MOL0     H46155   5.655   4.732   3.039  0.5316 -3.5753  0.5288
  342MOL0     H46156   6.662   4.233   2.833  2.4332  0.1665  0.4069
  342MOL0     H46157   6.789   4.072   2.702 -1.0784 -2.4067 -2.8411
  342MOL0     H46158   7.083   3.966   2.367 -0.0230  1.3257 -1.1142
  342MOL0     H46159   7.212   3.806   2.234  1.5254  2.6780 -2.1979
  342MOL0     H46160   7.305   3.662   2.111 -0.2702  1.0754 -0.7674
  342MOL0     H46161   7.293   3.545   1.996  3.1710 -0.1078  2.2469
  342MOL0     H46162   7.414   3.742   1.917  0.7128  1.0222  0.1985
  342MOL0     H46163   7.284   3.838   1.954 -0.1211  0.0036 -1.1844
  342MOL0     H46164   7.149   3.753   1.777  0.0621  2.5945 -0.6251
  342MOL0     H46165   7.261   3.608   1.764  1.1905 -0.0908 -0.7668
  342MOL0     H46166   7.431   3.745   1.693 -0.7438 -0.1640  2.8787
  342MOL0     H46167   7.317   3.894   1.692  2.2610  1.0971 -1.8985
  342MOL0     H46168   7.266   3.722   1.322 -0.1408  1.8129 -0.0888
  342MOL0     H46169   6.859   3.721   2.000 -0.5957 -0.0925  0.6586
  342MOL0     H46170   6.718   3.867   2.132  0.1451 -0.7147 -0.0160
  343MOL0     O46171   5.438   2.560   2.792 -0.2333  0.1971 -0.0023
  343MOL0     C46172   5.524   2.569   2.885  0.2357 -0.2709 -0.6156
  343MOL0     O46173   5.494   2.569   3.020  0.2697 -0.3519 -0.0341
  343MOL0     C46174   5.360   2.568   3.074 -0.3745 -0.4670 -0.8294
  343MOL0     C46175   5.339   2.636   3.197  0.8505  0.5260  0.0990
  343MOL0     C46176   5.221   2.636   3.267 -0.0654 -0.2065  0.1116
  343MOL0     C46177   5.112   2.576   3.212 -0.0547 -0.5369  0.7045
  343MOL0     O46178   4.990   2.588   3.276  0.0178 -0.4467 -0.2505
  343MOL0     C46179   4.904   2.680   3.196 -0.2776  0.4285  0.6294
  343MOL0     C46180   4.947   2.826   3.185  0.4248 -0.4245  0.0493
  343MOL0     C46181   4.868   2.925   3.101 -0.6256 -0.5826 -0.7965
  343MOL0     C46182   4.762   2.978   3.202  0.3757 -1.2199 -0.1486
  343MOL0     C46183   4.639   3.024   3.123  0.0283 -0.3529 -0.2281
  343MOL0     C46184   4.682   3.147   3.037 -0.3885 -0.6871  0.0134
  343MOL0     C46185   4.563   3.224   2.986  0.8201 -0.2290  0.6810
  343MOL0     C46186   4.472   3.140   2.896  0.0371 -0.0164  0.4388
  343MOL0     N46187   4.350   3.208   2.876  0.3754 -0.6971  0.3788
  343MOL0     C46188   4.268   3.254   2.983 -0.2068 -0.5742  0.6698
  343MOL0     C46189   4.162   3.307   2.918 -0.4547 -0.0788 -0.1476
  343MOL0     C46190   4.060   3.395   2.983  0.3959  0.2993 -0.0331
  343MOL0     C46191   4.044   3.543   2.921 -0.0108 -0.6312 -0.0628
  343MOL0     C46192   3.944   3.533   2.811 -0.4314  0.2242  0.6922
  343MOL0     C46193   3.883   3.664   2.769  0.2338 -0.0141  0.3257
  343MOL0     O46194   3.793   3.618   2.674  0.2140 -0.7619 -0.1925
  343MOL0     C46195   3.662   3.668   2.677  0.2231 -0.1419  0.2954
  343MOL0     C46196   3.623   3.793   2.722  0.2735 -0.4949 -0.4076
  343MOL0     C46197   3.489   3.841   2.691 -0.5896  0.3258 -0.4039
  343MOL0     C46198   3.444   3.984   2.719  0.2072 -0.2054 -0.3304
  343MOL0     C46199   3.399   3.763   2.620  0.1197 -0.0465  0.2587
  343MOL0     C46200   3.265   3.789   2.598  0.3482  0.4192  1.5828
  343MOL0     O46201   3.203   3.849   2.706 -0.0321 -0.4770  0.0816
  343MOL0     C46202   3.070   3.880   2.709 -0.1613  0.2305 -0.3058
  343MOL0     C46203   3.030   3.966   2.811  0.2743  0.5192 -0.2632
  343MOL0     C46204   2.897   4.005   2.840  0.2600  0.0374 -0.0687
  343MOL0     C46205   2.800   3.966   2.755  0.0000  0.0582  0.0938
  343MOL0     O46206   2.681   4.013   2.766  0.3870 -0.1592  0.2978
  343MOL0     C46207   2.564   3.934   2.740 -0.0904  0.4161  1.1122
  343MOL0     C46208   2.434   4.011   2.764  0.0536  0.0255 -0.7381
  343MOL0     C46209   2.320   3.925   2.713  0.0973  0.8066 -0.1013
  343MOL0     C46210   2.276   3.959   2.565  0.0387  0.4136 -0.0692
  343MOL0     C46211   2.149   3.884   2.523  0.4856 -0.9605 -0.2606
  343MOL0     C46212   2.105   3.953   2.394 -0.2951 -0.5391  0.7923
  343MOL0     C46213   1.974   3.913   2.352  0.0637  0.3346  0.4214
  343MOL0     C46214   1.913   3.968   2.220  0.1230 -0.0283 -0.1573
  343MOL0    Cl46215   1.806   3.835   2.164  0.2584 -0.1333 -0.0243
  343MOL0     C46216   2.829   3.863   2.654  0.1804 -0.1716 -0.1923
  343MOL0     C46217   2.960   3.827   2.629  0.7800 -0.3489  0.3243
  343MOL0     O46218   3.208   3.738   2.504 -0.0745 -0.2133  0.1974
  343MOL0     C46219   3.433   3.630   2.598  0.1312 -0.1192  0.2460
  343MOL0     C46220   3.566   3.592   2.615 -0.1137 -0.7680  0.9748
  343MOL0     N46221   4.168   3.286   2.777 -0.4126 -0.3383 -0.0706
  343MOL0     N46222   4.280   3.225   2.754 -0.1211 -0.4577  0.1978
  343MOL0     C46223   5.125   2.493   3.098 -0.6260 -0.2732 -0.1411
  343MOL0     C46224   5.246   2.491   3.024  0.3138  0.0693 -0.0181
  343MOL0     C46225   5.667   2.589   2.851 -0.2482  0.1274  0.0477
  343MOL0     C46226   5.766   2.588   2.950  0.3317  0.0156  0.0688
  343MOL0     C46227   5.902   2.591   2.923 -0.8409 -0.2470 -0.4936
  343MOL0     C46228   5.944   2.583   2.788 -0.3551 -0.2806 -0.0107
  343MOL0     O46229   6.076   2.577   2.761 -0.1382 -0.1614  0.7786
  343MOL0     C46230   6.145   2.702   2.791  1.3481 -0.1623 -0.7379
  343MOL0     C46231   6.269   2.725   2.707 -0.9083  0.2516 -0.7432
  343MOL0     C46232   6.371   2.615   2.739  0.3311  0.3545  0.0079
  343MOL0     C46233   6.509   2.618   2.656 -0.0527  0.0744  0.2690
  343MOL0     C46234   6.495   2.562   2.522  0.4533 -0.3211 -0.1314
  343MOL0     C46235   6.492   2.508   2.410 -0.6780  0.0543 -0.0390
  343MOL0     C46236   5.841   2.584   2.687  0.4737  0.0580 -0.2702
  343MOL0     C46237   5.708   2.584   2.718  0.1898 -0.1094 -0.2347
  343MOL0     H46238   5.429   2.667   3.251  1.3879 -1.7978  0.6423
  343MOL0     H46239   5.229   2.669   3.370  2.1269  0.9624 -0.3772
  343MOL0     H46240   4.880   2.639   3.097 -2.9781 -0.4776  1.5573
  343MOL0     H46241   4.805   2.682   3.243 -1.0976  1.0070 -1.0350
  343MOL0     H46242   4.955   2.862   3.288 -2.1233 -2.6868  1.1537
  343MOL0     H46243   5.049   2.840   3.148  0.5854 -1.3130  0.1103
  343MOL0     H46244   4.927   3.005   3.055 -0.9435  0.1704  0.0744
  343MOL0     H46245   4.807   2.879   3.022 -1.0012 -1.9742  0.2735
  343MOL0     H46246   4.722   2.896   3.262  0.1951 -2.3328 -1.7337
  343MOL0     H46247   4.811   3.059   3.258  3.3673 -0.5650 -3.3717
  343MOL0     H46248   4.598   2.944   3.060  2.0049 -0.3494 -1.6227
  343MOL0     H46249   4.577   3.052   3.208  1.3461 -0.0693  0.6637
  343MOL0     H46250   4.752   3.208   3.095  0.1016 -0.6432 -0.6130
  343MOL0     H46251   4.736   3.115   2.947 -2.4088  0.9305 -1.9084
  343MOL0     H46252   4.510   3.272   3.068 -0.1193  0.1631 -0.1369
  343MOL0     H46253   4.586   3.311   2.925 -0.5148  0.5088  1.1984
  343MOL0     H46254   4.441   3.040   2.930  2.1070 -1.5208 -1.7839
  343MOL0     H46255   4.527   3.130   2.802  0.1891 -1.6541  0.6640
  343MOL0     H46256   4.286   3.261   3.090 -1.9534  3.3853  0.9032
  343MOL0     H46257   3.963   3.346   2.988 -0.6742  2.3918  3.9134
  343MOL0     H46258   4.079   3.399   3.091  1.5876  0.5023 -0.2371
  343MOL0     H46259   4.141   3.573   2.880  3.3150 -4.6244  3.9084
  343MOL0     H46260   4.016   3.611   3.002  2.1983  0.9089 -0.5099
  343MOL0     H46261   3.867   3.464   2.847  0.8464 -0.9561  1.2553
  343MOL0     H46262   3.990   3.494   2.719 -5.5222 -2.0252 -1.2724
  343MOL0     H46263   3.950   3.733   2.716 -0.3244 -2.4235 -3.9478
  343MOL0     H46264   3.836   3.727   2.846  0.7387  0.0436  0.5962
  343MOL0     H46265   3.691   3.866   2.764 -1.0323  0.0146  0.9364
  343MOL0     H46266   3.385   3.990   2.812  3.9079 -1.8614  2.3466
  343MOL0     H46267   3.526   4.056   2.726  0.0233  0.1816 -1.9324
  343MOL0     H46268   3.392   4.022   2.631 -1.1702  0.3854  0.6910
  343MOL0     H46269   3.117   4.003   2.865  2.3235 -4.2694  0.2670
  343MOL0     H46270   2.874   4.080   2.915  1.7222  1.7496 -1.2634
  343MOL0     H46271   2.556   3.905   2.635 -1.3340  1.5112  0.8754
  343MOL0     H46272   2.566   3.840   2.795 -1.8325 -0.4856 -0.2774
  343MOL0     H46273   2.427   4.022   2.873  0.3032 -2.5032 -0.3914
  343MOL0     H46274   2.429   4.108   2.715  1.0759 -0.3317 -1.6012
  343MOL0     H46275   2.235   3.932   2.781  0.1631 -0.8460  0.1888
  343MOL0     H46276   2.346   3.820   2.700 -2.4355  0.4178 -3.7402
  343MOL0     H46277   2.265   4.068   2.568  0.0563  0.4522 -1.1595
  343MOL0     H46278   2.354   3.925   2.497 -1.0740 -0.1960 -1.0887
  343MOL0     H46279   2.077   3.897   2.604  1.4337  2.3263  0.2227
  343MOL0     H46280   2.159   3.776   2.511  2.1708 -0.8241 -0.3692
  343MOL0     H46281   2.105   4.062   2.403 -0.4708 -0.3657 -0.9596
  343MOL0     H46282   2.178   3.936   2.314 -1.4575 -0.6868 -0.2592
  343MOL0     H46283   1.901   3.919   2.433 -2.2993 -1.3045 -1.4244
  343MOL0     H46284   1.982   3.806   2.331 -0.9843  0.5671 -1.3841
  343MOL0     H46285   1.993   3.984   2.147  1.8205 -0.2081  1.5775
  343MOL0     H46286   1.853   4.057   2.240  2.5887  1.5828  0.4743
  343MOL0     H46287   2.755   3.829   2.583  0.3552 -1.0024  0.0121
  343MOL0     H46288   2.982   3.743   2.564 -2.7659 -1.4712  0.3207
  343MOL0     H46289   3.358   3.560   2.561 -0.1902 -0.0163  0.6940
  343MOL0     H46290   3.587   3.490   2.585  0.6308 -0.8243  1.6495
  343MOL0     H46291   5.034   2.441   3.071 -2.1065  1.2093  1.8080
  343MOL0     H46292   5.249   2.434   2.932 -0.3555  1.3719 -0.8932
  343MOL0     H46293   5.738   2.566   3.053 -0.5648 -1.1510 -0.4020
  343MOL0     H46294   5.982   2.595   2.997  0.3217  1.7313 -1.7962
  343MOL0     H46295   6.079   2.787   2.769  2.4396  0.7757 -0.4442
  343MOL0     H46296   6.154   2.703   2.900 -0.9603 -1.8481 -0.4441
  343MOL0     H46297   6.305   2.824   2.738 -0.1838 -0.0384 -0.6405
  343MOL0     H46298   6.251   2.736   2.600  1.2674  4.4550 -0.9198
  343MOL0     H46299   6.315   2.526   2.709 -1.4340  2.7206 -4.9549
  343MOL0     H46300   6.389   2.629   2.846  0.6014  1.5459 -0.1738
  343MOL0     H46301   6.576   2.543   2.699 -0.1935  1.7741  3.8101
  343MOL0     H46302   6.543   2.722   2.653  1.4172 -0.3583  1.0278
  343MOL0     H46303   6.478   2.454   2.318 -2.0875 -2.9279  1.7824
  343MOL0     H46304   5.872   2.598   2.583  1.1372  2.0348  0.1492
  343MOL0     H46305   5.632   2.583   2.639 -0.0680  1.0707 -0.0279
  344MOL0     O46306  11.314  10.203   8.174 -0.0646  0.6165 -0.5234
  344MOL0     C46307  11.353  10.147   8.277  0.1263 -0.2666  0.2624
  344MOL0     O46308  11.274  10.073   8.371 -0.4588  0.3714  0.5661
  344MOL0     C46309  11.136  10.096   8.362  0.7533  0.0649 -0.1666
  344MOL0     C46310  11.053  10.031   8.280 -0.1619  0.0228  0.0814
  344MOL0     C46311  10.926  10.063   8.252 -0.3695 -0.4981  0.3951
  344MOL0     C46312  10.864  10.167   8.331 -0.1966 -0.3216  0.8317
  344MOL0     O46313  10.732  10.183   8.308  0.1392  0.1841 -0.2262
  344MOL0     C46314  10.659  10.250   8.421 -0.3310 -0.5593  0.1690
  344MOL0     C46315  10.508  10.245   8.418  0.6880  0.4500 -0.3594
  344MOL0     C46316  10.438  10.327   8.306  0.8520 -0.1781  0.8316
  344MOL0     C46317  10.282  10.334   8.328 -0.0462 -0.2096 -0.0745
  344MOL0     C46318  10.218  10.196   8.345  0.1793  0.9697  0.8263
  344MOL0     C46319  10.061  10.191   8.344  0.0374 -0.1009  0.5796
  344MOL0     C46320   9.998  10.245   8.472 -0.6272 -0.6417  0.3512
  344MOL0     C46321   9.856  10.196   8.494 -0.9576 -0.5009 -0.4783
  344MOL0     N46322   9.776  10.232   8.381  0.2749  0.3418 -0.3204
  344MOL0     C46323   9.705  10.133   8.320  0.5345 -0.7353  0.4398
  344MOL0     C46324   9.639  10.200   8.218  0.3730  0.6881 -0.5961
  344MOL0     C46325   9.554  10.126   8.120  0.0997  0.3152  0.1661
  344MOL0     C46326   9.545  10.193   7.982  0.1662 -0.5959 -0.0929
  344MOL0     C46327   9.421  10.150   7.905  0.3439 -0.3675 -0.3977
  344MOL0     C46328   9.293  10.216   7.961 -0.2650 -0.0824 -0.8557
  344MOL0     O46329   9.175  10.168   7.910  0.3140  0.5441  0.8005
  344MOL0     C46330   9.125  10.205   7.783 -0.5313  0.2249  0.2058
  344MOL0     C46331   9.010  10.148   7.739 -0.1221  1.0852  0.6299
  344MOL0     C46332   8.962  10.187   7.614  0.8104 -0.3849  0.8257
  344MOL0     C46333   8.827  10.120   7.565 -0.5911 -1.0513 -0.8433
  344MOL0     C46334   9.032  10.274   7.529 -1.2813  0.2051  0.5016
  344MOL0     C46335   8.985  10.317   7.395 -0.1464  1.0078  0.2043
  344MOL0     O46336   8.995  10.456   7.360  0.3024 -0.2526 -0.4348
  344MOL0     C46337   9.005  10.494   7.229 -0.2748  0.1311 -0.1390
  344MOL0     C46338   8.914  10.460   7.132  0.3462  0.4614  0.4268
  344MOL0     C46339   8.925  10.519   7.002 -0.6979 -0.1519  0.3742
  344MOL0     C46340   9.024  10.617   6.979  0.0524 -0.0443  1.4065
  344MOL0     O46341   9.036  10.696   6.859 -0.9565  0.9593  0.6214
  344MOL0     C46342   8.935  10.675   6.750  1.1315  0.7921 -0.1112
  344MOL0     C46343   8.986  10.740   6.622  0.7347 -0.3727 -0.5692
  344MOL0     C46344   8.873  10.773   6.521 -0.1927  0.7870  0.9865
  344MOL0     C46345   8.842  10.659   6.432  0.4750 -0.2901 -0.3019
  344MOL0     C46346   8.756  10.679   6.312 -0.3381 -0.4037 -0.6022
  344MOL0     C46347   8.619  10.714   6.366 -0.4533 -0.2189 -0.5025
  344MOL0     C46348   8.515  10.704   6.261 -0.3245  0.0500  0.4742
  344MOL0     C46349   8.375  10.738   6.310 -0.4337 -0.3821 -0.3074
  344MOL0    Cl46350   8.247  10.778   6.183 -0.5297  0.1940  0.3702
  344MOL0     C46351   9.116  10.646   7.079  0.1403 -0.3454  0.0439
  344MOL0     C46352   9.108  10.587   7.201  1.3419 -0.0141 -1.3707
  344MOL0     O46353   8.938  10.230   7.324 -0.1632 -0.2551 -0.7071
  344MOL0     C46354   9.155  10.326   7.570 -0.5425 -0.2244  0.4871
  344MOL0     C46355   9.193  10.297   7.697  0.2910  0.0614  0.2559
  344MOL0     N46356   9.656  10.331   8.230 -0.2115 -0.8039  0.2376
  344MOL0     N46357   9.726  10.347   8.340 -0.0757  0.8569  0.5360
  344MOL0     C46358  10.942  10.232   8.425  0.1161  0.3046 -1.6506
  344MOL0     C46359  11.075  10.206   8.429 -0.3173  0.8778 -0.6389
  344MOL0     C46360  11.498  10.157   8.293 -0.4743 -0.1238 -0.2765
  344MOL0     C46361  11.578  10.244   8.219 -0.3829  0.3284 -0.6840
  344MOL0     C46362  11.719  10.241   8.241 -0.2767 -0.7837  0.4710
  344MOL0     C46363  11.780  10.148   8.326  0.8984 -0.0009 -0.0187
  344MOL0     O46364  11.908  10.124   8.348  0.0142  0.2034 -0.1525
  344MOL0     C46365  11.999  10.158   8.241 -0.8616  0.0392 -0.1409
  344MOL0     C46366  12.127  10.079   8.278 -0.7266  0.6505  0.8635
  344MOL0     C46367  12.211  10.135   8.396  0.5500 -0.5112  0.2183
  344MOL0     C46368  12.272  10.272   8.368  0.1394 -0.7294 -0.1455
  344MOL0     C46369  12.358  10.320   8.471  1.2818 -0.6868  0.4693
  344MOL0     C46370  12.422  10.363   8.569  0.3086 -0.7833 -0.7596
  344MOL0     C46371  11.695  10.056   8.392 -0.1570 -0.3563  0.0950
  344MOL0     C46372  11.555  10.060   8.378  0.0110 -0.5630 -0.3511
  344MOL0     H46373  11.099   9.944   8.234  1.5497  2.1479 -2.5267
  344MOL0     H46374  10.859  10.013   8.183 -1.2275  3.2968 -1.8037
  344MOL0     H46375  10.691  10.196   8.510  0.4621 -0.9263 -0.3245
  344MOL0     H46376  10.679  10.357   8.423 -2.4464 -0.0581 -1.2243
  344MOL0     H46377  10.483  10.140   8.402  4.7423 -1.2292  2.6417
  344MOL0     H46378  10.468  10.271   8.517  1.4347  2.3596 -0.5056
  344MOL0     H46379  10.486  10.425   8.307  0.4038  0.0827 -0.6111
  344MOL0     H46380  10.460  10.282   8.209 -0.1053 -0.9884  0.9719
  344MOL0     H46381  10.253  10.402   8.409 -1.3735  0.9816 -1.4894
  344MOL0     H46382  10.227  10.374   8.243 -1.4270 -0.3511  0.7082
  344MOL0     H46383  10.253  10.136   8.261 -1.8043 -0.9541  1.2880
  344MOL0     H46384  10.244  10.143   8.437 -2.8066 -0.3309  1.0166
  344MOL0     H46385  10.037  10.240   8.249 -0.7732 -2.0717 -0.2929
  344MOL0     H46386  10.030  10.087   8.331  0.4104 -0.3843  1.8469
  344MOL0     H46387  10.071  10.225   8.551 -0.7110  1.1402  0.9252
  344MOL0     H46388   9.996  10.353   8.459 -1.8230 -0.4656  1.6717
  344MOL0     H46389   9.831  10.246   8.588  4.9472 -1.0595  1.8781
  344MOL0     H46390   9.853  10.087   8.506 -3.2277 -0.3022  1.4264
  344MOL0     H46391   9.708  10.027   8.344  1.8373 -0.7669  0.2064
  344MOL0     H46392   9.586  10.023   8.107 -1.9948 -0.4166  0.5440
  344MOL0     H46393   9.456  10.124   8.169 -0.1326  2.3173 -0.1005
  344MOL0     H46394   9.633  10.160   7.925  1.1936 -0.6868  1.4643
  344MOL0     H46395   9.555  10.302   7.987  0.4494 -0.4861 -2.1698
  344MOL0     H46396   9.410  10.041   7.902  0.6580 -0.3857 -0.8559
  344MOL0     H46397   9.428  10.178   7.800 -2.1495  0.0715 -0.5011
  344MOL0     H46398   9.291  10.325   7.966 -2.9219 -0.0826  3.9790
  344MOL0     H46399   9.295  10.197   8.068 -0.5271  0.5921 -0.7239
  344MOL0     H46400   8.951  10.093   7.812  1.5050  1.4398  2.3028
  344MOL0     H46401   8.801  10.039   7.633 -0.6908  0.0883  0.5329
  344MOL0     H46402   8.747  10.194   7.559 -0.4173 -0.8923 -1.2302
  344MOL0     H46403   8.827  10.083   7.462 -2.7797 -2.3683 -0.4440
  344MOL0     H46404   8.826  10.397   7.147  0.0802  1.2116  2.3783
  344MOL0     H46405   8.862  10.487   6.919  1.6031 -0.0966 -1.5078
  344MOL0     H46406   8.918  10.570   6.722  0.1635  1.0911 -0.6804
  344MOL0     H46407   8.853  10.735   6.790  1.8316  1.0680  0.9570
  344MOL0     H46408   9.030  10.836   6.651 -0.7450  0.3055 -0.4597
  344MOL0     H46409   9.065  10.679   6.577  1.7911  1.4377 -1.2821
  344MOL0     H46410   8.909  10.853   6.456 -1.2136 -0.6073 -1.4074
  344MOL0     H46411   8.782  10.807   6.571 -1.1664  0.2787 -0.3934
  344MOL0     H46412   8.934  10.611   6.396  0.5154 -1.6546  1.4879
  344MOL0     H46413   8.792  10.578   6.486 -0.3935 -1.3539 -2.5419
  344MOL0     H46414   8.751  10.592   6.247 -0.8389  1.1454 -2.7425
  344MOL0     H46415   8.782  10.768   6.253 -0.0729 -0.8433 -1.1590
  344MOL0     H46416   8.589  10.652   6.451  1.8496  0.5018  0.9363
  344MOL0     H46417   8.619  10.817   6.403 -1.0260 -0.8209  1.2736
  344MOL0     H46418   8.511  10.607   6.210 -2.1739  0.5594 -0.4290
  344MOL0     H46419   8.537  10.778   6.184 -0.9430 -0.2620 -0.0121
  344MOL0     H46420   8.375  10.830   6.368 -2.9274 -0.3837 -0.2278
  344MOL0     H46421   8.343  10.653   6.371  1.1781 -0.4009  0.5816
  344MOL0     H46422   9.203  10.710   7.067 -1.2521  1.4603 -0.9680
  344MOL0     H46423   9.180  10.601   7.282 -3.0447  3.5468  2.5303
  344MOL0     H46424   9.218  10.398   7.518  0.2203 -2.2507 -1.6005
  344MOL0     H46425   9.283  10.344   7.736 -0.4259  0.3723  1.6101
  344MOL0     H46426  10.907  10.300   8.502  1.9105 -0.8973  0.3856
  344MOL0     H46427  11.132  10.271   8.495 -1.0692 -0.6057  1.5616
  344MOL0     H46428  11.529  10.317   8.155 -3.1866 -0.1192  0.7709
  344MOL0     H46429  11.783  10.309   8.187 -1.4915  1.4425  1.6788
  344MOL0     H46430  11.958  10.133   8.142 -1.3284 -3.1943  0.7557
  344MOL0     H46431  12.018  10.266   8.244  1.0569 -0.2790  0.3614
  344MOL0     H46432  12.187  10.075   8.187 -0.1886 -0.5078  1.2509
  344MOL0     H46433  12.100   9.975   8.298 -0.1989  0.1075 -1.0177
  344MOL0     H46434  12.288  10.062   8.423  0.1574 -0.5202  1.3640
  344MOL0     H46435  12.142  10.158   8.477  0.5530 -1.9535  0.6396
  344MOL0     H46436  12.188  10.341   8.354 -0.1446 -0.9063  0.6532
  344MOL0     H46437  12.329  10.279   8.275 -3.4198 -0.5074 -2.4926
  344MOL0     H46438  12.485  10.414   8.639  1.5949  1.7469 -3.5066
  344MOL0     H46439  11.742   9.972   8.443  0.7258  0.8043  1.2592
  344MOL0     H46440  11.513   9.984   8.443  3.3763  0.0342  2.8680
  345MOL0     O46441   9.655   6.537   1.141 -0.2709 -0.6963  0.3603
  345MOL0     C46442   9.701   6.567   1.247 -0.3831 -0.2904 -0.0673
  345MOL0     O46443   9.626   6.627   1.345  0.3304 -0.1162 -0.1257
  345MOL0     C46444   9.486   6.627   1.338  0.1534 -0.6549  0.0654
  345MOL0     C46445   9.412   6.526   1.281 -0.5502  0.1653  0.3149
  345MOL0     C46446   9.271   6.535   1.272  0.0083 -0.4846 -0.3654
  345MOL0     C46447   9.199   6.644   1.326  0.1442  0.3218  0.0986
  345MOL0     O46448   9.061   6.661   1.311 -0.4810  1.2495 -0.4913
  345MOL0     C46449   8.991   6.600   1.207  0.0412  0.1113 -0.5611
  345MOL0     C46450   8.837   6.623   1.234  0.1969 -0.3842  0.1384
  345MOL0     C46451   8.735   6.551   1.144  0.3130  0.4271 -0.2652
  345MOL0     C46452   8.714   6.401   1.187  0.2801 -0.3535 -0.2700
  345MOL0     C46453   8.610   6.330   1.086 -0.5217  0.8685  0.3678
  345MOL0     C46454   8.465   6.359   1.133 -0.5493  0.0160 -0.4797
  345MOL0     C46455   8.385   6.277   1.034  0.3929 -0.3992 -0.2690
  345MOL0     C46456   8.389   6.124   1.039 -0.9154 -0.1753 -0.4989
  345MOL0     N46457   8.272   6.067   0.973  0.0628  0.0278  0.1624
  345MOL0     C46458   8.267   6.034   0.844  0.6906 -0.3805  0.2955
  345MOL0     C46459   8.147   5.975   0.837 -0.6824  0.5477  0.3660
  345MOL0     C46460   8.080   5.935   0.715 -0.5896 -0.3731  0.3181
  345MOL0     C46461   7.973   5.827   0.736  0.8443 -0.4275 -0.3927
  345MOL0     C46462   7.836   5.893   0.739  1.1945  0.0722  0.2329
  345MOL0     C46463   7.717   5.797   0.743  0.8244 -0.0016 -0.4457
  345MOL0     O46464   7.593   5.870   0.778 -0.0268  0.3141 -0.1635
  345MOL0     C46465   7.480   5.795   0.776  0.6575 -0.4010  1.0477
  345MOL0     C46466   7.473   5.655   0.744 -0.4348  0.4409  0.2024
  345MOL0     C46467   7.352   5.589   0.759 -0.2706 -0.2334  0.3438
  345MOL0     C46468   7.357   5.442   0.709 -0.0590 -0.6878  0.8898
  345MOL0     C46469   7.237   5.645   0.832 -1.4667 -0.5505  0.1489
  345MOL0     C46470   7.109   5.583   0.857  0.8903  0.8444  0.1865
  345MOL0     O46471   6.996   5.664   0.865  0.4511 -0.2479  0.9750
  345MOL0     C46472   6.867   5.613   0.888 -0.1871 -0.4751  0.3405
  345MOL0     C46473   6.760   5.682   0.829 -0.9216  0.4244 -0.0301
  345MOL0     C46474   6.626   5.644   0.862  0.0383 -0.6363 -0.3178
  345MOL0     C46475   6.608   5.540   0.953 -0.5036 -0.0287  0.3338
  345MOL0     O46476   6.484   5.498   1.010  0.1491 -0.7051  0.1184
  345MOL0     C46477   6.366   5.539   0.942 -0.8610  0.2294  0.8944
  345MOL0     C46478   6.311   5.664   1.014 -0.2396  0.1171  0.1685
  345MOL0     C46479   6.176   5.712   0.969 -0.1866 -0.6657 -0.5602
  345MOL0     C46480   6.182   5.760   0.820  0.6080 -0.0236 -0.4069
  345MOL0     C46481   6.066   5.855   0.772 -0.4262 -0.5423 -0.5639
  345MOL0     C46482   5.927   5.794   0.798 -0.3414 -0.2341  0.7285
  345MOL0     C46483   5.814   5.877   0.733 -0.0539  0.7961  0.7523
  345MOL0     C46484   5.678   5.825   0.766  0.2516  0.7344 -0.0981
  345MOL0    Cl46485   5.562   5.950   0.724  0.3795  0.4342 -0.9146
  345MOL0     C46486   6.716   5.477   1.016 -0.3153  0.3662 -0.1484
  345MOL0     C46487   6.848   5.517   0.981 -0.3892 -0.0443 -0.0845
  345MOL0     O46488   7.110   5.460   0.876 -0.0150 -0.2199  0.2443
  345MOL0     C46489   7.246   5.782   0.859 -0.5988  0.2295 -0.7260
  345MOL0     C46490   7.371   5.852   0.829 -0.1464 -0.6719  0.3977
  345MOL0     N46491   8.085   5.966   0.965 -0.0563 -0.0958 -0.1806
  345MOL0     N46492   8.161   6.022   1.042 -0.1808 -0.4892 -0.5631
  345MOL0     C46493   9.270   6.737   1.401 -0.1376  0.7821  0.7421
  345MOL0     C46494   9.418   6.732   1.406  1.0421 -0.3159 -0.1462
  345MOL0     C46495   9.859   6.564   1.259  0.9528  0.6058  0.6530
  345MOL0     C46496   9.919   6.608   1.377 -0.2609  0.4329 -0.2398
  345MOL0     C46497  10.053   6.595   1.398 -0.7474 -0.5483  0.1480
  345MOL0     C46498  10.132   6.536   1.295 -0.6893 -0.4417  0.0678
  345MOL0     O46499  10.261   6.501   1.323 -0.6209  0.0450  0.9160
  345MOL0     C46500  10.368   6.607   1.343  0.2876 -0.2377 -0.0779
  345MOL0     C46501  10.373   6.714   1.228  0.3715  0.3066  0.3922
  345MOL0     C46502  10.478   6.832   1.257  0.6174  0.1600 -0.8443
  345MOL0     C46503  10.452   6.949   1.176 -0.1251  0.6566 -0.4914
  345MOL0     C46504  10.483   6.928   1.033  0.3390  0.4718  0.4536
  345MOL0     C46505  10.523   6.917   0.921  0.3869 -0.4361  0.5085
  345MOL0     C46506  10.077   6.500   1.178  0.2046  0.1760  0.6621
  345MOL0     C46507   9.943   6.514   1.156  0.0178 -0.4107  0.6538
  345MOL0     H46508   9.462   6.442   1.234  1.0324 -0.7498  3.3850
  345MOL0     H46509   9.214   6.463   1.214  1.7726 -0.4581 -2.2872
  345MOL0     H46510   9.029   6.638   1.113  1.2651 -0.2605 -0.2349
  345MOL0     H46511   9.012   6.493   1.194  1.0099  0.4084 -1.5146
  345MOL0     H46512   8.826   6.589   1.337  1.7338 -1.2313  0.0493
  345MOL0     H46513   8.825   6.732   1.224  0.9118 -0.3592 -0.5693
  345MOL0     H46514   8.632   6.585   1.157 -0.6667 -2.5329  0.4903
  345MOL0     H46515   8.769   6.561   1.040 -0.4931  1.0976 -0.4826
  345MOL0     H46516   8.814   6.355   1.187 -0.3432 -2.1515 -3.9890
  345MOL0     H46517   8.672   6.392   1.287 -0.1122 -0.5960 -0.4563
  345MOL0     H46518   8.624   6.372   0.986 -4.7045 -0.0877 -0.8036
  345MOL0     H46519   8.640   6.225   1.084 -0.5698  0.8654 -1.2384
  345MOL0     H46520   8.440   6.325   1.234  0.2655  0.0336 -0.2588
  345MOL0     H46521   8.447   6.467   1.139 -0.8676 -0.1294  2.3043
  345MOL0     H46522   8.283   6.312   1.051  0.1732 -0.8091 -0.7455
  345MOL0     H46523   8.399   6.312   0.931 -0.9997 -2.1729 -1.1119
  345MOL0     H46524   8.393   6.111   1.148  1.6160 -0.6107 -0.5882
  345MOL0     H46525   8.481   6.080   1.000 -0.1629 -0.2749  1.2656
  345MOL0     H46526   8.341   6.059   0.768 -0.3025  0.0009 -0.5760
  345MOL0     H46527   8.028   6.021   0.671  3.1974  0.6327 -2.7697
  345MOL0     H46528   8.157   5.901   0.645 -0.4970 -0.2708  0.3717
  345MOL0     H46529   8.000   5.779   0.830 -0.1996  2.3838  1.4436
  345MOL0     H46530   7.984   5.753   0.655  1.1268 -1.6472  0.7283
  345MOL0     H46531   7.817   5.961   0.656 -0.1012  1.2442  1.4510
  345MOL0     H46532   7.828   5.948   0.833 -3.2273  2.3787 -1.1903
  345MOL0     H46533   7.727   5.714   0.814 -1.3798 -1.5610 -1.8067
  345MOL0     H46534   7.704   5.748   0.645 -1.5832 -2.2858  0.8693
  345MOL0     H46535   7.554   5.595   0.705  0.3750  1.1331  0.7831
  345MOL0     H46536   7.362   5.385   0.802  0.5059  2.6379  3.0730
  345MOL0     H46537   7.263   5.423   0.655 -0.1454 -0.0834  0.8143
  345MOL0     H46538   7.445   5.426   0.647 -0.1706  1.1023  0.1934
  345MOL0     H46539   6.784   5.764   0.763  0.4990  1.6158  1.8541
  345MOL0     H46540   6.549   5.711   0.825 -0.9721 -0.5764  1.7777
  345MOL0     H46541   6.383   5.571   0.839 -0.1224  2.0412  1.5337
  345MOL0     H46542   6.296   5.456   0.947  0.5448 -0.9594  1.6448
  345MOL0     H46543   6.298   5.633   1.118 -0.4576  0.6862  0.3148
  345MOL0     H46544   6.388   5.742   1.021 -1.8336  1.6457  1.7138
  345MOL0     H46545   6.138   5.796   1.027 -0.8493  0.4808 -2.5464
  345MOL0     H46546   6.100   5.635   0.984 -2.3539  1.5437  0.4406
  345MOL0     H46547   6.275   5.811   0.794  0.4892  1.6048  1.9647
  345MOL0     H46548   6.183   5.666   0.764  0.3373 -1.5708  2.0076
  345MOL0     H46549   6.077   5.892   0.669 -2.7486 -1.6200 -1.2711
  345MOL0     H46550   6.080   5.946   0.832 -0.3924 -0.6749 -0.3712
  345MOL0     H46551   5.922   5.689   0.768  1.0336 -0.3167  0.7383
  345MOL0     H46552   5.905   5.794   0.905 -0.6172 -0.5430  0.6752
  345MOL0     H46553   5.835   5.888   0.627 -0.7568  1.8775  0.7037
  345MOL0     H46554   5.815   5.982   0.764 -1.2490  1.2793 -0.7562
  345MOL0     H46555   5.679   5.805   0.873  1.2632  0.1174 -0.2115
  345MOL0     H46556   5.659   5.734   0.707 -0.3309  1.1781 -0.5992
  345MOL0     H46557   6.693   5.396   1.085  1.5586  0.1142  0.2230
  345MOL0     H46558   6.935   5.481   1.036  0.4018 -0.2573 -1.4324
  345MOL0     H46559   7.162   5.836   0.901 -1.2948  0.1800 -1.9917
  345MOL0     H46560   7.363   5.960   0.838  0.3475 -0.6410  0.4834
  345MOL0     H46561   9.205   6.819   1.434 -2.7682 -0.3050 -1.3777
  345MOL0     H46562   9.480   6.808   1.452 -1.4672  0.7589  1.6851
  345MOL0     H46563   9.849   6.646   1.451  0.8098  1.9600  0.0471
  345MOL0     H46564  10.098   6.631   1.489  0.6641  0.0373 -0.7439
  345MOL0     H46565  10.340   6.657   1.436  0.2385 -0.4272  0.0087
  345MOL0     H46566  10.463   6.553   1.354  0.5168  0.4133  1.3325
  345MOL0     H46567  10.277   6.765   1.215  0.9930  0.8806 -2.7501
  345MOL0     H46568  10.403   6.657   1.140  2.6698  0.1206  1.2360
  345MOL0     H46569  10.580   6.795   1.240  1.3105  0.5816  1.9655
  345MOL0     H46570  10.467   6.871   1.358  1.0811 -0.4838 -0.5408
  345MOL0     H46571  10.514   7.032   1.213 -0.7325 -0.2632  2.9587
  345MOL0     H46572  10.346   6.975   1.179 -0.3676 -0.1927 -1.2400
  345MOL0     H46573  10.552   6.933   0.819 -3.3519 -1.3034 -0.8484
  345MOL0     H46574  10.134   6.463   1.094 -1.3846  0.4849 -0.5972
  345MOL0     H46575   9.891   6.481   1.067  0.5180 -0.6244  0.4365
  346MOL0     O46576   8.873   4.934   7.666 -0.2138 -0.4875 -0.3123
  346MOL0     C46577   8.792   4.857   7.614  0.2474 -0.4891 -0.0200
  346MOL0     O46578   8.816   4.735   7.554 -0.1795  0.6250  1.3317
  346MOL0     C46579   8.946   4.707   7.511 -0.3026  0.4924 -0.4410
  346MOL0     C46580   9.029   4.802   7.445  0.1612 -0.7586  0.5059
  346MOL0     C46581   9.154   4.775   7.390  0.0604 -0.3248  0.2518
  346MOL0     C46582   9.208   4.644   7.409  0.1837 -0.1742  0.5563
  346MOL0     O46583   9.340   4.622   7.368  1.2273 -0.0446 -0.3058
  346MOL0     C46584   9.343   4.628   7.221 -0.1479 -0.8353  0.5461
  346MOL0     C46585   9.486   4.577   7.189 -0.3131  0.1193 -0.3627
  346MOL0     C46586   9.505   4.576   7.036 -0.3654  0.2869 -0.2788
  346MOL0     C46587   9.647   4.504   7.022  0.7837 -0.1371 -0.3346
  346MOL0     C46588   9.695   4.523   6.872 -0.4350 -0.1329 -0.1281
  346MOL0     C46589   9.823   4.454   6.832  0.0153  0.0829  0.0991
  346MOL0     C46590   9.912   4.526   6.731  0.3115 -0.0011  1.1974
  346MOL0     C46591   9.883   4.493   6.594  0.0106 -0.3146  0.6060
  346MOL0     N46592   9.962   4.579   6.504 -0.8548 -0.3706 -0.0806
  346MOL0     C46593  10.091   4.549   6.480  0.1271  0.2043  0.3231
  346MOL0     C46594  10.142   4.649   6.415  0.5204 -0.1919 -0.7899
  346MOL0     C46595  10.282   4.658   6.367 -1.2389  0.0684 -0.2169
  346MOL0     C46596  10.321   4.551   6.266  0.8424 -1.1554  0.0078
  346MOL0     C46597  10.223   4.545   6.147 -0.4138  0.6558  0.0173
  346MOL0     C46598  10.177   4.684   6.090  0.4809  0.4892 -0.4617
  346MOL0     O46599  10.107   4.677   5.971 -0.0369  0.0944 -0.2875
  346MOL0     C46600   9.973   4.650   5.973  0.2871 -0.1552 -0.4007
  346MOL0     C46601   9.892   4.640   6.083  0.3436  0.4804 -0.1268
  346MOL0     C46602   9.757   4.620   6.074 -0.5356 -0.5693  0.7304
  346MOL0     C46603   9.687   4.625   6.212 -0.2283  0.8023 -0.3230
  346MOL0     C46604   9.693   4.602   5.948  1.0358  0.1962  0.7005
  346MOL0     C46605   9.549   4.547   5.933 -0.4305  0.5413  0.3181
  346MOL0     O46606   9.466   4.622   5.850 -0.5379 -0.3926  0.2631
  346MOL0     C46607   9.341   4.562   5.836 -0.1408 -0.9583  0.5781
  346MOL0     C46608   9.334   4.473   5.731 -0.6021 -0.1212  0.2703
  346MOL0     C46609   9.213   4.409   5.701  0.5911 -0.1589 -0.2226
  346MOL0     C46610   9.104   4.419   5.795 -0.6492  0.0743  0.1079
  346MOL0     O46611   8.993   4.339   5.780  0.1821  0.0162  0.7727
  346MOL0     C46612   8.878   4.352   5.867  0.0799 -0.0154 -0.2677
  346MOL0     C46613   8.761   4.282   5.821 -0.4057  0.6216 -0.6998
  346MOL0     C46614   8.634   4.295   5.919 -0.0787 -0.4860  0.2309
  346MOL0     C46615   8.506   4.245   5.849  0.8792  0.3838  0.3625
  346MOL0     C46616   8.406   4.204   5.961  0.0637  0.3877  0.0065
  346MOL0     C46617   8.270   4.152   5.917 -0.8827 -1.0324  0.0103
  346MOL0     C46618   8.255   4.002   5.937  0.2916  0.4364  0.4072
  346MOL0     C46619   8.118   3.943   5.908 -0.1936 -0.1564  0.0032
  346MOL0    Cl46620   8.130   3.764   5.958 -0.1762 -0.0907 -0.0210
  346MOL0     C46621   9.125   4.499   5.908  0.0703  0.3200  0.1865
  346MOL0     C46622   9.243   4.576   5.938 -0.1447  0.3943 -0.0105
  346MOL0     O46623   9.508   4.449   6.004 -1.0012 -0.0584 -0.1858
  346MOL0     C46624   9.775   4.630   5.834  0.0955  0.5236  0.3280
  346MOL0     C46625   9.912   4.636   5.850 -0.0184 -0.6694  0.5010
  346MOL0     N46626  10.046   4.752   6.412 -0.4511 -0.3227 -0.2192
  346MOL0     N46627   9.941   4.706   6.470 -0.4654  0.0648  0.6079
  346MOL0     C46628   9.131   4.547   7.470 -0.5307  0.0582  0.5215
  346MOL0     C46629   9.002   4.575   7.525  0.5709  0.0993 -0.4639
  346MOL0     C46630   8.649   4.906   7.651 -0.4080  0.1430  0.5294
  346MOL0     C46631   8.546   4.834   7.585  0.4715  1.0377 -0.9200
  346MOL0     C46632   8.405   4.875   7.600  0.8950  0.9322  0.3791
  346MOL0     C46633   8.370   4.984   7.677 -0.3394 -0.3033  0.4344
  346MOL0     O46634   8.239   5.009   7.694  0.4357  0.3042  0.1007
  346MOL0     C46635   8.181   5.075   7.808 -0.9043  0.5200  0.1151
  346MOL0     C46636   8.105   4.963   7.885  0.5479 -0.0240 -0.3622
  346MOL0     C46637   8.051   5.019   8.021 -0.1470 -0.3422  0.7004
  346MOL0     C46638   7.930   4.938   8.070 -0.4359  0.5293  0.1939
  346MOL0     C46639   7.916   4.959   8.209 -0.4658  0.4368 -0.3664
  346MOL0     C46640   7.906   4.992   8.325 -0.7076  0.0127 -0.5070
  346MOL0     C46641   8.475   5.053   7.737 -0.2473 -0.5971  0.2069
  346MOL0     C46642   8.614   5.015   7.730 -0.2122 -0.4681  0.5041
  346MOL0     H46643   8.984   4.901   7.440  1.2381 -0.2068  1.2017
  346MOL0     H46644   9.213   4.850   7.339 -3.5219  1.3375 -1.7846
  346MOL0     H46645   9.271   4.557   7.179  2.7121 -3.7346  0.1250
  346MOL0     H46646   9.340   4.729   7.178  2.2661 -0.3577  1.3396
  346MOL0     H46647   9.567   4.647   7.216  1.3856 -1.9617  0.1802
  346MOL0     H46648   9.518   4.484   7.238 -1.1440  0.1628  0.2826
  346MOL0     H46649   9.424   4.518   6.989 -0.8985  1.8455 -1.3542
  346MOL0     H46650   9.503   4.674   6.987 -0.0812 -0.1104 -1.1096
  346MOL0     H46651   9.721   4.540   7.094  0.4568 -0.6386  0.2589
  346MOL0     H46652   9.645   4.397   7.046  1.1405 -0.0624  0.0349
  346MOL0     H46653   9.619   4.478   6.806  0.6541 -3.2190  0.5494
  346MOL0     H46654   9.694   4.626   6.836 -1.7976  0.0212  0.3069
  346MOL0     H46655   9.872   4.445   6.929 -1.2531  1.5657  0.9239
  346MOL0     H46656   9.798   4.351   6.805 -1.5655  0.7306 -1.0843
  346MOL0     H46657   9.915   4.634   6.746  0.1907  0.2924 -0.7392
  346MOL0     H46658  10.014   4.488   6.738 -0.7752 -3.3833  0.3443
  346MOL0     H46659   9.778   4.504   6.563  0.7142 -0.5388 -2.1070
  346MOL0     H46660   9.914   4.389   6.583 -3.9113 -1.5114 -0.7856
  346MOL0     H46661  10.138   4.452   6.496  3.3038  1.3987 -1.1615
  346MOL0     H46662  10.293   4.758   6.323 -0.1106  0.4613  0.9230
  346MOL0     H46663  10.362   4.653   6.441  1.2600  2.4309 -2.5327
  346MOL0     H46664  10.342   4.458   6.319  2.8818 -0.7089  0.0508
  346MOL0     H46665  10.420   4.570   6.225  0.7793 -2.4127 -0.7904
  346MOL0     H46666  10.142   4.480   6.181  2.6790 -4.9602 -2.0780
  346MOL0     H46667  10.264   4.484   6.066  1.3824 -1.5666  2.4564
  346MOL0     H46668  10.266   4.743   6.065  1.4271  0.3658  2.2613
  346MOL0     H46669  10.128   4.745   6.165  1.1143  0.0901  0.2923
  346MOL0     H46670   9.931   4.659   6.182 -2.1673 -1.7358  1.4318
  346MOL0     H46671   9.747   4.670   6.291 -0.9631 -0.4967  1.0384
  346MOL0     H46672   9.591   4.676   6.201 -0.2782  0.8443  0.2496
  346MOL0     H46673   9.669   4.523   6.249 -1.1261  1.4119  1.0405
  346MOL0     H46674   9.422   4.462   5.669  0.2349  2.5297  0.8854
  346MOL0     H46675   9.208   4.340   5.617  0.4693  0.8251 -1.0415
  346MOL0     H46676   8.917   4.303   5.957 -0.5043  1.4888  0.8380
  346MOL0     H46677   8.846   4.452   5.897 -2.0140 -1.3285  2.3052
  346MOL0     H46678   8.739   4.335   5.727  0.4124  1.6302 -0.3408
  346MOL0     H46679   8.795   4.180   5.802 -0.4827  0.0314  2.0177
  346MOL0     H46680   8.619   4.402   5.933  0.9470 -0.1680 -0.9130
  346MOL0     H46681   8.658   4.234   6.006  0.8781 -1.6082 -0.7704
  346MOL0     H46682   8.451   4.313   5.784  0.4847 -0.5613 -0.3087
  346MOL0     H46683   8.523   4.153   5.792 -1.1148  0.6097 -0.6808
  346MOL0     H46684   8.386   4.302   6.006 -1.3626 -1.1271  3.0071
  346MOL0     H46685   8.446   4.137   6.038  1.4228  1.7864  0.5718
  346MOL0     H46686   8.198   4.185   5.993  0.9832 -1.7700  2.2328
  346MOL0     H46687   8.261   4.186   5.813  0.3597 -2.3714 -0.5587
  346MOL0     H46688   8.260   3.987   6.045 -1.2655 -2.9921  0.1145
  346MOL0     H46689   8.337   3.955   5.882 -0.7075  0.2323 -0.9490
  346MOL0     H46690   8.105   3.941   5.800 -1.6453  0.7876  0.1370
  346MOL0     H46691   8.041   4.000   5.962  1.5289  0.3936  2.0414
  346MOL0     H46692   9.045   4.486   5.981  0.7941  2.1440  1.3737
  346MOL0     H46693   9.263   4.639   6.025  1.1210 -1.5825  1.1960
  346MOL0     H46694   9.722   4.614   5.741  0.5908  1.5490 -0.1435
  346MOL0     H46695   9.969   4.638   5.758  2.4591  1.1411  1.9386
  346MOL0     H46696   9.173   4.447   7.471  0.2694  0.3639 -0.8819
  346MOL0     H46697   8.953   4.485   7.562  1.1011 -1.7373 -3.8668
  346MOL0     H46698   8.578   4.754   7.518  2.8133  1.0171  0.1303
  346MOL0     H46699   8.326   4.816   7.554 -0.0849  2.0428  0.5901
  346MOL0     H46700   8.264   5.117   7.866  0.0779 -0.1152 -0.7687
  346MOL0     H46701   8.110   5.150   7.773 -0.1348  0.3809 -1.8885
  346MOL0     H46702   8.175   4.883   7.914  2.7141  1.8797 -0.0301
  346MOL0     H46703   8.029   4.926   7.815  0.9812 -1.8295  0.0606
  346MOL0     H46704   8.035   5.125   7.998  1.5321  0.4265  2.7802
  346MOL0     H46705   8.127   5.001   8.098 -0.0227  1.4224  1.0230
  346MOL0     H46706   7.955   4.832   8.056 -0.4013  0.4150  1.0871
  346MOL0     H46707   7.838   4.963   8.016 -1.2286 -0.7212  0.9172
  346MOL0     H46708   7.904   5.021   8.428  0.3646  1.9068 -0.9653
  346MOL0     H46709   8.455   5.138   7.802  0.0438  0.2177 -0.7447
  346MOL0     H46710   8.689   5.073   7.783  1.8943 -1.1515 -1.5534
  347MOL0     O46711   2.254   0.777  10.381  0.1565  0.1207  0.2897
  347MOL0     C46712   2.267   0.654  10.390 -0.0944  0.3230  0.4502
  347MOL0     O46713   2.182   0.567  10.334  0.0520 -0.2407  0.3451
  347MOL0     C46714   2.054   0.617  10.301 -0.7736  0.0573  0.2004
  347MOL0     C46715   1.965   0.682  10.385  0.1789 -0.3167  0.4142
  347MOL0     C46716   1.834   0.687  10.342  0.0318 -0.1004  0.1340
  347MOL0     C46717   1.798   0.648  10.207  0.2579  0.4635 -1.0749
  347MOL0     O46718   1.667   0.673  10.167 -0.6154  1.1854  0.4312
  347MOL0     C46719   1.656   0.735  10.038  0.0758 -0.4525 -0.1916
  347MOL0     C46720   1.517   0.786  10.008  0.1230 -0.1312  0.2525
  347MOL0     C46721   1.406   0.683  10.041 -0.1636  0.8770  0.2483
  347MOL0     C46722   1.268   0.738  10.014 -0.3734 -0.7939  0.3061
  347MOL0     C46723   1.155   0.665  10.085 -0.7332 -0.1873  0.4711
  347MOL0     C46724   1.019   0.708  10.022 -0.5475 -0.3834  0.2265
  347MOL0     C46725   0.896   0.648  10.097 -0.0172 -0.5739 -0.2501
  347MOL0     C46726   0.765   0.660  10.005 -1.0475  0.5536 -0.1636
  347MOL0     N46727   0.737   0.539   9.925 -0.5401 -0.2966 -0.6468
  347MOL0     C46728   0.787   0.511   9.802  0.1766  0.7807 -0.3491
  347MOL0     C46729   0.732   0.392   9.767  0.1369  0.0680 -0.7075
  347MOL0     C46730   0.765   0.321   9.635 -0.0704  0.8423  0.0111
  347MOL0     C46731   0.912   0.324   9.593 -0.9567  0.9232 -0.0593
  347MOL0     C46732   1.007   0.225   9.678 -0.6471 -0.0587  1.1185
  347MOL0     C46733   1.162   0.238   9.647  0.8769  0.1078  0.5480
  347MOL0     O46734   1.211   0.366   9.698 -0.2304 -0.3623  0.3493
  347MOL0     C46735   1.335   0.403   9.660 -0.4589  0.2908  0.3384
  347MOL0     C46736   1.423   0.314   9.589  0.0445 -0.9247 -0.5476
  347MOL0     C46737   1.563   0.362   9.558  0.0406 -0.2578 -0.3043
  347MOL0     C46738   1.651   0.257   9.496 -0.3839 -0.7933  0.0327
  347MOL0     C46739   1.598   0.499   9.598 -0.7867 -0.4920  0.6123
  347MOL0     C46740   1.736   0.566   9.573 -0.9293  0.2126 -0.3159
  347MOL0     O46741   1.756   0.682   9.642 -0.4164  0.6563 -0.5347
  347MOL0     C46742   1.884   0.736   9.633  0.2997 -0.3656 -0.3981
  347MOL0     C46743   1.987   0.686   9.711 -0.3904 -0.4176 -0.0539
  347MOL0     C46744   2.116   0.735   9.695  0.2918  0.6493 -0.3812
  347MOL0     C46745   2.145   0.837   9.596  0.8308  1.1985 -0.0708
  347MOL0     O46746   2.272   0.883   9.586 -0.0865  0.0701  0.1003
  347MOL0     C46747   2.351   0.898   9.711  0.2242  0.5813  0.3205
  347MOL0     C46748   2.465   0.994   9.685 -0.3527 -0.0845  0.2730
  347MOL0     C46749   2.596   0.952   9.746 -0.0280 -0.7458  0.1824
  347MOL0     C46750   2.708   1.049   9.717  0.5096 -0.4976 -0.2916
  347MOL0     C46751   2.833   1.014   9.790 -0.3764  0.7953  0.4257
  347MOL0     C46752   2.937   1.113   9.777  0.3451 -0.4788 -0.5068
  347MOL0     C46753   2.995   1.138   9.639 -0.9533  0.5090  0.4323
  347MOL0     C46754   3.115   1.236   9.638  0.1380  0.7417 -0.0756
  347MOL0    Cl46755   3.072   1.406   9.662 -0.4844  1.0381 -0.3112
  347MOL0     C46756   2.041   0.877   9.503  0.0236 -0.6732 -0.9650
  347MOL0     C46757   1.912   0.823   9.527 -0.9996 -0.5987  0.7008
  347MOL0     O46758   1.811   0.514   9.493 -0.1604 -0.4121 -0.0352
  347MOL0     C46759   1.498   0.574   9.647  0.1342 -0.9083 -0.2115
  347MOL0     C46760   1.372   0.529   9.683 -0.0981 -0.4091  1.1500
  347MOL0     N46761   0.650   0.345   9.861  0.1928  0.4093 -0.7230
  347MOL0     N46762   0.651   0.434   9.959 -0.4933  0.2024  0.5302
  347MOL0     C46763   1.895   0.596  10.120 -0.4066  0.4095  0.3984
  347MOL0     C46764   2.022   0.584  10.171  0.1798  0.1841 -1.3916
  347MOL0     C46765   2.390   0.602  10.455 -1.0084  0.5425  0.5152
  347MOL0     C46766   2.410   0.461  10.480  0.0962 -0.5569  0.6159
  347MOL0     C46767   2.517   0.410  10.546 -0.9732  0.9824  0.5049
  347MOL0     C46768   2.617   0.497  10.586 -1.0324  0.1463 -0.0216
  347MOL0     O46769   2.730   0.463  10.660 -0.1309 -0.0933 -0.3255
  347MOL0     C46770   2.741   0.337  10.730 -0.0910  0.6673 -0.1894
  347MOL0     C46771   2.696   0.325  10.877  0.1779 -0.0628  0.5717
  347MOL0     C46772   2.789   0.410  10.970  0.7462 -0.2740  0.1396
  347MOL0     C46773   2.919   0.345  11.014  0.3485  0.7110  0.7709
  347MOL0     C46774   2.999   0.447  11.089 -0.0432 -0.6980 -0.0753
  347MOL0     C46775   3.059   0.531  11.150 -0.2653 -0.2155 -0.4591
  347MOL0     C46776   2.615   0.635  10.549 -0.2970  0.3470  0.0763
  347MOL0     C46777   2.503   0.687  10.481 -0.5310  0.3238  0.8047
  347MOL0     H46778   1.996   0.710  10.485 -0.9738 -3.2550  1.7193
  347MOL0     H46779   1.749   0.734  10.390  0.1084  3.1812 -2.5844
  347MOL0     H46780   1.719   0.825  10.031 -1.5401  1.1661  3.3968
  347MOL0     H46781   1.680   0.660   9.963  2.0403 -0.5902  0.5266
  347MOL0     H46782   1.504   0.876  10.068  3.0536  1.1429 -0.8396
  347MOL0     H46783   1.514   0.822   9.905 -1.2279 -1.3448 -0.1696
  347MOL0     H46784   1.418   0.593   9.979  1.7404  2.1228 -1.2968
  347MOL0     H46785   1.415   0.652  10.145  0.2485  1.6068  0.4339
  347MOL0     H46786   1.278   0.837  10.060 -2.5772 -0.3254 -0.0952
  347MOL0     H46787   1.241   0.745   9.908 -2.0576  1.2881  0.7978
  347MOL0     H46788   1.165   0.556  10.081 -0.1286 -0.0999 -0.6834
  347MOL0     H46789   1.159   0.690  10.191  0.8438  2.9897 -0.2332
  347MOL0     H46790   1.011   0.817  10.020 -1.6535 -0.4599  0.1108
  347MOL0     H46791   1.016   0.669   9.920 -2.6116  0.5120 -0.0932
  347MOL0     H46792   0.916   0.542  10.112  0.0618 -0.6284 -0.7106
  347MOL0     H46793   0.878   0.692  10.195 -0.4248 -2.5559  0.6102
  347MOL0     H46794   0.775   0.743   9.936 -0.3596 -0.1463 -0.9221
  347MOL0     H46795   0.690   0.684  10.081 -0.8750  0.7131 -0.0435
  347MOL0     H46796   0.867   0.568   9.757 -1.3492  1.3311 -2.5335
  347MOL0     H46797   0.741   0.215   9.643  1.9399  0.3737  0.5097
  347MOL0     H46798   0.704   0.365   9.556 -1.7687 -4.0422 -1.7876
  347MOL0     H46799   0.952   0.426   9.590 -0.4733  0.7502  0.2814
  347MOL0     H46800   0.937   0.280   9.496 -0.9332 -3.4354  1.6948
  347MOL0     H46801   0.962   0.128   9.657 -0.1786 -0.9281  3.8482
  347MOL0     H46802   0.997   0.266   9.779  0.0763  1.3097  0.6691
  347MOL0     H46803   1.186   0.208   9.544  0.2679  0.4859  0.2916
  347MOL0     H46804   1.219   0.171   9.712  1.7864 -0.2700 -0.6139
  347MOL0     H46805   1.409   0.210   9.560  1.4755 -1.7843  1.6049
  347MOL0     H46806   1.751   0.252   9.539  1.5943  0.8060 -3.8661
  347MOL0     H46807   1.602   0.160   9.512  1.1447 -1.4003  1.2499
  347MOL0     H46808   1.664   0.274   9.388  0.2254  4.3074  0.6739
  347MOL0     H46809   1.961   0.605   9.778 -1.2007 -0.9288 -0.9607
  347MOL0     H46810   2.184   0.697   9.770 -0.4343 -0.6720 -0.3649
  347MOL0     H46811   2.282   0.922   9.793 -0.3690  1.7959 -0.5114
  347MOL0     H46812   2.398   0.806   9.747 -1.0736  0.5386  2.0433
  347MOL0     H46813   2.478   0.996   9.576 -0.5794 -2.9500  0.1027
  347MOL0     H46814   2.436   1.091   9.726  1.1990  1.3076 -1.6968
  347MOL0     H46815   2.632   0.856   9.707  0.5673  0.1516 -1.6299
  347MOL0     H46816   2.579   0.959   9.854 -0.1352  3.2495  0.0735
  347MOL0     H46817   2.731   1.073   9.613  4.8845  2.5073  1.0904
  347MOL0     H46818   2.680   1.145   9.760  1.7349 -0.4255  0.3994
  347MOL0     H46819   2.866   0.919   9.746 -0.4179 -0.0878  2.1976
  347MOL0     H46820   2.810   0.996   9.895  2.1110  0.0745  0.9062
  347MOL0     H46821   2.885   1.208   9.795  0.0636 -0.4606 -1.4035
  347MOL0     H46822   3.006   1.102   9.862  0.3618 -4.5872 -0.8463
  347MOL0     H46823   2.927   1.165   9.558 -1.0544  0.4453  0.4960
  347MOL0     H46824   3.035   1.042   9.605 -0.2643  1.2261 -0.8390
  347MOL0     H46825   3.175   1.221   9.548  1.9287  0.8956  1.0531
  347MOL0     H46826   3.180   1.218   9.724 -0.1353  0.9073  0.1665
  347MOL0     H46827   2.051   0.946   9.420  0.0475 -1.3328 -1.5230
  347MOL0     H46828   1.834   0.864   9.463 -2.1672 -0.1393  2.3787
  347MOL0     H46829   1.516   0.681   9.657  3.0847 -1.1882 -1.2956
  347MOL0     H46830   1.313   0.609   9.727 -0.2456 -0.7625  1.6087
  347MOL0     H46831   1.864   0.564  10.020  2.8245 -0.1359 -0.5275
  347MOL0     H46832   2.096   0.548  10.100  0.0957 -1.1819 -0.8037
  347MOL0     H46833   2.330   0.392  10.455  0.0546  0.7888 -3.9984
  347MOL0     H46834   2.508   0.302  10.558 -0.8175  0.2496 -4.2053
  347MOL0     H46835   2.681   0.259  10.681  2.9138 -2.5458  0.8588
  347MOL0     H46836   2.845   0.307  10.719 -1.3793 -3.6917 -2.6155
  347MOL0     H46837   2.699   0.221  10.910  1.7823  0.0861  0.9868
  347MOL0     H46838   2.595   0.366  10.886 -0.5173 -1.4355 -0.5476
  347MOL0     H46839   2.731   0.434  11.059  0.7795  0.9584 -0.1547
  347MOL0     H46840   2.810   0.505  10.920 -1.4224  0.4607  0.5262
  347MOL0     H46841   2.977   0.314  10.926 -2.2790 -1.5933 -0.3054
  347MOL0     H46842   2.901   0.255  11.073  0.1503 -1.6222 -2.5590
  347MOL0     H46843   3.105   0.596  11.221 -0.5340 -1.3815  0.8308
  347MOL0     H46844   2.696   0.704  10.566 -1.2388  1.8775 -1.3292
  347MOL0     H46845   2.516   0.788  10.444  2.6452 -0.5921 -0.9886
  348MOL0     O46846   5.551   0.458   5.652  0.3478 -0.3978  0.1541
  348MOL0     C46847   5.636   0.450   5.574 -0.0295  0.6841  1.1337
  348MOL0     O46848   5.634   0.493   5.445  0.3637 -0.0885  0.2910
  348MOL0     C46849   5.535   0.585   5.405 -0.0481  0.5425  0.5067
  348MOL0     C46850   5.514   0.578   5.265 -0.0962  0.1524  1.4344
  348MOL0     C46851   5.394   0.650   5.214  0.5404  0.2953 -0.4221
  348MOL0     C46852   5.316   0.732   5.291  0.0560 -0.2847  0.7330
  348MOL0     O46853   5.207   0.786   5.229  0.0333 -0.2404 -0.5247
  348MOL0     C46854   5.106   0.861   5.305 -0.8812 -1.1435 -0.5326
  348MOL0     C46855   5.028   0.947   5.208  0.2599 -0.1679 -0.0834
  348MOL0     C46856   4.931   0.868   5.124  0.1396 -0.1078 -0.1661
  348MOL0     C46857   4.850   0.972   5.045 -0.0115 -0.3127  0.1846
  348MOL0     C46858   4.758   0.905   4.938 -0.7335  0.6814  1.1263
  348MOL0     C46859   4.661   0.793   4.981  0.2076 -0.4193 -0.0819
  348MOL0     C46860   4.566   0.746   4.869 -0.6807 -0.1275 -0.2528
  348MOL0     C46861   4.480   0.646   4.930  0.9273  0.9984 -0.0329
  348MOL0     N46862   4.383   0.593   4.831  0.0398  0.4715  0.6555
  348MOL0     C46863   4.273   0.668   4.785  0.9252 -1.1329  0.3725
  348MOL0     C46864   4.217   0.594   4.691 -0.3054 -0.2579 -0.2174
  348MOL0     C46865   4.097   0.639   4.603  0.7760  1.1749  0.3620
  348MOL0     C46866   3.958   0.569   4.624 -0.4188  1.1509  0.2793
  348MOL0     C46867   3.890   0.604   4.762  0.0268 -0.1235  0.5305
  348MOL0     C46868   3.810   0.735   4.776  0.2210  0.6392  0.3272
  348MOL0     O46869   3.898   0.851   4.767 -0.1969 -0.7987  0.5288
  348MOL0     C46870   3.989   0.882   4.868 -0.1061 -0.3692 -0.1112
  348MOL0     C46871   3.988   0.828   4.994 -0.7465 -0.2707 -0.9059
  348MOL0     C46872   4.080   0.867   5.096 -0.8050 -1.6370 -0.5779
  348MOL0     C46873   4.080   0.793   5.224  0.7538 -0.3102 -0.2524
  348MOL0     C46874   4.186   0.964   5.063 -0.4762 -0.2472  0.6939
  348MOL0     C46875   4.298   1.011   5.149 -0.2508 -1.3910  0.4039
  348MOL0     O46876   4.337   0.932   5.257  0.3486  0.0816 -0.7762
  348MOL0     C46877   4.450   0.975   5.327  0.5004 -0.5812 -0.2761
  348MOL0     C46878   4.478   1.107   5.368  1.0221 -0.0426 -0.7887
  348MOL0     C46879   4.600   1.142   5.423 -0.5513  0.6064 -0.2046
  348MOL0     C46880   4.692   1.048   5.448  0.2323 -0.1071 -0.8520
  348MOL0     O46881   4.802   1.087   5.513 -0.1325 -0.1936 -0.4065
  348MOL0     C46882   4.837   1.008   5.625  0.3338 -0.6614  0.2473
  348MOL0     C46883   4.980   1.039   5.672  0.1596 -0.8157  0.2014
  348MOL0     C46884   5.041   0.916   5.747 -0.4146 -0.6077  0.3773
  348MOL0     C46885   5.180   0.959   5.798  0.1898  0.6170 -0.4598
  348MOL0     C46886   5.265   0.841   5.832 -0.8458 -0.2107 -0.6714
  348MOL0     C46887   5.409   0.892   5.856  0.6197 -0.4425 -0.4022
  348MOL0     C46888   5.488   0.773   5.895 -0.3015  0.1395 -0.0273
  348MOL0     C46889   5.632   0.822   5.933  0.4920  0.7983  0.8562
  348MOL0    Cl46890   5.751   0.696   5.887 -0.1511  0.1224 -0.6473
  348MOL0     C46891   4.667   0.918   5.409 -0.1501 -0.1121 -0.3479
  348MOL0     C46892   4.552   0.885   5.349 -0.0324  0.0255 -0.2395
  348MOL0     O46893   4.358   1.119   5.118 -0.2013 -0.2794 -0.6469
  348MOL0     C46894   4.170   1.019   4.938 -0.1772 -0.2349  0.5705
  348MOL0     C46895   4.079   0.982   4.841 -0.7455 -0.3972  0.5342
  348MOL0     N46896   4.278   0.474   4.687 -0.3142  0.0761 -0.4112
  348MOL0     N46897   4.376   0.470   4.770 -0.2060  0.0283  0.5697
  348MOL0     C46898   5.349   0.755   5.422  0.7352  0.5338 -0.2361
  348MOL0     C46899   5.451   0.672   5.482 -0.3903 -0.3954  0.4566
  348MOL0     C46900   5.752   0.372   5.611  0.3568  0.3589 -0.8372
  348MOL0     C46901   5.792   0.372   5.748 -0.3461  0.4769  0.0422
  348MOL0     C46902   5.897   0.291   5.789 -0.2035  0.1125 -0.2327
  348MOL0     C46903   5.970   0.211   5.698 -0.1408 -0.2354 -0.2106
  348MOL0     O46904   6.074   0.141   5.745  0.2341 -0.0277 -0.9497
  348MOL0     C46905   6.134   0.025   5.680 -0.2291 -1.1529  0.3862
  348MOL0     C46906   6.180  -0.061   5.789  0.6741  0.6821 -0.8424
  348MOL0     C46907   6.130  -0.215   5.782  0.0263 -0.8284  0.1853
  348MOL0     C46908   6.207  -0.306   5.875 -0.4424  0.9936 -0.1568
  348MOL0     C46909   6.166  -0.281   6.012 -0.5163  0.1239  0.3203
  348MOL0     C46910   6.120  -0.270   6.127 -0.4398  0.1629  0.5507
  348MOL0     C46911   5.924   0.214   5.560  0.7409  0.6949  0.3330
  348MOL0     C46912   5.823   0.297   5.509  0.1287 -0.8574  0.0193
  348MOL0     H46913   5.584   0.512   5.215  2.7787  3.3262  0.8919
  348MOL0     H46914   5.365   0.627   5.112 -1.3979 -2.5864  0.6369
  348MOL0     H46915   5.036   0.799   5.363 -1.0082  0.7441  1.4395
  348MOL0     H46916   5.158   0.929   5.372 -1.9856 -2.1388  1.4321
  348MOL0     H46917   4.964   1.007   5.274 -0.5022 -1.1105  0.0625
  348MOL0     H46918   5.092   1.007   5.142 -0.7242  0.2035 -0.7259
  348MOL0     H46919   4.985   0.805   5.053  0.9378 -0.1882  0.4971
  348MOL0     H46920   4.860   0.807   5.180 -0.4801 -2.0758 -2.8727
  348MOL0     H46921   4.784   1.024   5.115 -3.1410 -3.2090 -0.3337
  348MOL0     H46922   4.920   1.037   4.993  2.3079 -0.6630  2.6342
  348MOL0     H46923   4.709   0.985   4.881  1.1090  1.9259  1.2249
  348MOL0     H46924   4.823   0.856   4.866 -1.9565 -2.1691  1.8146
  348MOL0     H46925   4.698   0.707   5.038 -2.9053  0.0906  3.0965
  348MOL0     H46926   4.590   0.854   5.038 -0.7167  0.1123 -1.7361
  348MOL0     H46927   4.499   0.828   4.839 -0.0130  0.7686  0.6293
  348MOL0     H46928   4.627   0.707   4.787  1.3162  1.7940  0.2208
  348MOL0     H46929   4.420   0.686   5.012  0.0556  1.0740 -0.7029
  348MOL0     H46930   4.533   0.557   4.966 -1.3175 -0.2013  0.4689
  348MOL0     H46931   4.242   0.771   4.800 -2.0951 -1.8524 -0.3260
  348MOL0     H46932   4.086   0.747   4.607  0.6848  1.1784  0.0363
  348MOL0     H46933   4.123   0.609   4.500 -2.1785  1.3656 -0.5166
  348MOL0     H46934   3.970   0.461   4.635 -2.3977  0.7808 -0.6739
  348MOL0     H46935   3.888   0.593   4.543  0.7915 -3.0473 -2.2698
  348MOL0     H46936   3.967   0.608   4.840 -1.5862 -2.5732  2.4499
  348MOL0     H46937   3.824   0.520   4.789  0.1197 -0.8896 -1.4271
  348MOL0     H46938   3.759   0.729   4.873  1.2263 -2.1358  0.7740
  348MOL0     H46939   3.735   0.745   4.697  1.9996  2.0897 -1.2912
  348MOL0     H46940   3.914   0.752   5.017 -1.1400  0.9125  2.4048
  348MOL0     H46941   4.049   0.867   5.298  1.0974 -0.5666  0.1591
  348MOL0     H46942   4.011   0.708   5.232 -0.5055  0.4150 -2.6201
  348MOL0     H46943   4.181   0.758   5.247  0.6016  1.1317  3.1801
  348MOL0     H46944   4.405   1.182   5.340  2.2135  1.0306 -1.1109
  348MOL0     H46945   4.625   1.244   5.450 -3.2577  1.0944  0.7277
  348MOL0     H46946   4.767   1.036   5.705  2.9223 -0.4643  2.5947
  348MOL0     H46947   4.826   0.900   5.609 -1.1983 -0.6588  1.0352
  348MOL0     H46948   5.039   1.039   5.580 -0.1357  0.1994 -0.0099
  348MOL0     H46949   4.992   1.135   5.724 -1.6694 -1.2339  1.5064
  348MOL0     H46950   5.052   0.835   5.675  0.1707 -1.6431  1.5796
  348MOL0     H46951   4.977   0.897   5.834  0.8761  2.7383  2.2488
  348MOL0     H46952   5.237   1.005   5.717 -0.0359 -0.2733 -1.1471
  348MOL0     H46953   5.177   1.031   5.880  2.6744  1.1074 -0.7406
  348MOL0     H46954   5.267   0.766   5.752  0.7633 -2.6334  1.4346
  348MOL0     H46955   5.225   0.794   5.923  1.9269 -0.2313  0.6565
  348MOL0     H46956   5.456   0.922   5.761  3.2597 -1.1111  0.6098
  348MOL0     H46957   5.421   0.976   5.926  0.4389  1.4679 -2.5219
  348MOL0     H46958   5.481   0.708   5.807 -1.9256 -1.2049  1.0115
  348MOL0     H46959   5.436   0.715   5.973  1.9825 -1.4057  0.4470
  348MOL0     H46960   5.639   0.837   6.041  0.6558  0.0351  0.9545
  348MOL0     H46961   5.657   0.916   5.883 -1.4903  1.4689  1.0439
  348MOL0     H46962   4.745   0.847   5.430 -1.3249 -1.1213  0.7584
  348MOL0     H46963   4.524   0.784   5.321 -1.3735  0.4116 -0.3380
  348MOL0     H46964   4.240   1.098   4.911 -0.1900  0.8566  3.3489
  348MOL0     H46965   4.073   1.022   4.740  4.5492  0.6267  0.3227
  348MOL0     H46966   5.287   0.820   5.483 -0.7684 -0.9097 -0.1909
  348MOL0     H46967   5.474   0.669   5.588  1.8429 -0.4721  0.0148
  348MOL0     H46968   5.748   0.434   5.826  1.7247 -0.1923  1.8649
  348MOL0     H46969   5.926   0.296   5.893 -3.1353 -0.6157  0.6963
  348MOL0     H46970   6.061  -0.024   5.614 -1.5447 -2.0480  2.3991
  348MOL0     H46971   6.213   0.069   5.618 -2.4696 -0.4992 -2.2056
  348MOL0     H46972   6.139  -0.026   5.884 -2.0647  0.3438 -1.8012
  348MOL0     H46973   6.289  -0.071   5.784  0.6667  1.0646 -3.4227
  348MOL0     H46974   6.146  -0.252   5.680  1.1798  1.4342 -0.5112
  348MOL0     H46975   6.024  -0.210   5.809  0.0935 -1.7955  0.6501
  348MOL0     H46976   6.316  -0.302   5.863 -0.3967 -0.3749 -0.3234
  348MOL0     H46977   6.170  -0.407   5.856 -4.5642  1.6745  2.8411
  348MOL0     H46978   6.076  -0.270   6.224 -1.4635  0.2131  0.0940
  348MOL0     H46979   5.958   0.136   5.493 -1.5801  0.9423 -1.2257
  348MOL0     H46980   5.774   0.304   5.413  0.5577  2.7489 -0.0823
  349MOL0     O46981   9.849   2.303   6.531  0.3748  0.3976 -0.2040
  349MOL0     C46982   9.832   2.423   6.557 -0.4283 -0.1992 -0.6794
  349MOL0     O46983   9.906   2.528   6.522  0.7171  0.0733 -0.7585
  349MOL0     C46984  10.015   2.522   6.433 -0.5180 -0.7630 -0.2319
  349MOL0     C46985  10.116   2.622   6.442  0.3156  0.4755 -0.1649
  349MOL0     C46986  10.227   2.623   6.358 -0.7829 -0.0058  0.6907
  349MOL0     C46987  10.245   2.514   6.275 -0.2777 -0.5552 -0.4471
  349MOL0     O46988  10.351   2.494   6.190  0.8772 -0.4051  0.1670
  349MOL0     C46989  10.466   2.569   6.217  0.6144 -0.4360  0.3889
  349MOL0     C46990  10.587   2.510   6.151 -0.1344  0.1282 -0.5276
  349MOL0     C46991  10.595   2.354   6.183 -0.5920 -0.8794 -0.0029
  349MOL0     C46992  10.742   2.308   6.209  0.6381  0.6911  0.7541
  349MOL0     C46993  10.758   2.167   6.174  0.8652 -0.0718 -0.2864
  349MOL0     C46994  10.902   2.120   6.164 -0.6083 -0.3527  0.2234
  349MOL0     C46995  10.991   2.202   6.073  0.4065 -1.4466 -0.1533
  349MOL0     C46996  11.117   2.121   6.042  0.2742 -0.2393  0.1512
  349MOL0     N46997  11.191   2.091   6.166  0.0113 -0.4358  0.2052
  349MOL0     C46998  11.227   1.972   6.209  1.0278 -0.6529 -0.6081
  349MOL0     C46999  11.255   1.990   6.340 -0.2275  0.2117  0.2861
  349MOL0     C47000  11.309   1.880   6.434 -0.3570 -0.4689  1.2791
  349MOL0     C47001  11.460   1.872   6.412  0.5818  0.1162  0.4779
  349MOL0     C47002  11.527   1.808   6.530  0.3098 -0.0635 -0.2721
  349MOL0     C47003  11.652   1.742   6.486 -0.1255 -1.1608 -0.3911
  349MOL0     O47004  11.758   1.839   6.469 -0.2591 -0.0462  0.1414
  349MOL0     C47005  11.886   1.801   6.459  0.4460  0.1402 -0.6248
  349MOL0     C47006  11.975   1.912   6.469  0.2606  0.6342 -0.9026
  349MOL0     C47007  12.112   1.894   6.438 -1.0467 -0.2447 -0.2544
  349MOL0     C47008  12.200   2.017   6.451 -0.8441  0.2986 -1.2129
  349MOL0     C47009  12.157   1.762   6.407  0.4111 -0.3487 -0.0955
  349MOL0     C47010  12.292   1.730   6.370  0.5122 -1.2010 -0.5702
  349MOL0     O47011  12.322   1.596   6.386  0.8511  0.7858 -0.0800
  349MOL0     C47012  12.454   1.549   6.406  0.4486  1.3620  0.9436
  349MOL0     C47013  12.492   1.433   6.343 -0.6029  0.6752  0.6829
  349MOL0     C47014  12.625   1.392   6.343  0.0054 -0.3892 -0.5538
  349MOL0     C47015  12.726   1.467   6.403  0.0531 -0.6884  0.2433
  349MOL0     O47016  12.858   1.451   6.381  1.0296  0.0408 -0.3982
  349MOL0     C47017  12.905   1.380   6.261  0.1672 -0.4384 -0.3383
  349MOL0     C47018  13.061   1.383   6.259  0.6047  0.2163 -1.3697
  349MOL0     C47019  13.123   1.312   6.380  0.2730  0.3446 -0.1278
  349MOL0     C47020  13.274   1.326   6.386 -0.4175 -0.2083 -0.7709
  349MOL0     C47021  13.341   1.231   6.484  0.1410  0.5541  0.5506
  349MOL0     C47022  13.300   1.268   6.631 -0.0897  0.3909  0.4819
  349MOL0     C47023  13.184   1.193   6.693  0.3302 -0.6065  0.5287
  349MOL0     C47024  13.182   1.192   6.847 -0.1806  0.9568 -0.4108
  349MOL0    Cl47025  13.232   1.359   6.925 -0.8550  0.1732 -0.3787
  349MOL0     C47026  12.676   1.570   6.482 -0.9544  0.3962 -0.2085
  349MOL0     C47027  12.543   1.617   6.488  1.0099 -0.0662 -0.0404
  349MOL0     O47028  12.373   1.816   6.321 -0.2088 -0.6948  0.0103
  349MOL0     C47029  12.064   1.663   6.387  0.4410 -0.0280  0.6387
  349MOL0     C47030  11.927   1.677   6.405 -1.1418  0.7267 -0.5837
  349MOL0     N47031  11.247   2.126   6.368 -0.2364 -1.5019 -0.0414
  349MOL0     N47032  11.213   2.188   6.256 -0.0928  0.6368 -0.2090
  349MOL0     C47033  10.148   2.417   6.265  0.8492 -0.3825  0.5169
  349MOL0     C47034  10.027   2.420   6.334 -0.0350 -0.8525  0.0331
  349MOL0     C47035   9.700   2.464   6.626  0.8031  1.2701 -0.1981
  349MOL0     C47036   9.636   2.380   6.723  0.9840 -0.1522  0.4718
  349MOL0     C47037   9.512   2.421   6.782 -1.3356 -0.2721  0.2100
  349MOL0     C47038   9.463   2.548   6.752  0.9592 -0.7185 -0.0143
  349MOL0     O47039   9.351   2.614   6.800  0.5984 -0.5346  0.4211
  349MOL0     C47040   9.231   2.531   6.815  0.1992 -0.1023 -0.0856
  349MOL0     C47041   9.136   2.613   6.898  0.0896  0.3741 -0.7155
  349MOL0     C47042   9.085   2.729   6.807  0.9754 -0.5097 -0.1532
  349MOL0     C47043   8.998   2.825   6.893  0.2671 -0.2968  1.3193
  349MOL0     C47044   9.083   2.891   6.996 -0.1269 -0.3157  0.0851
  349MOL0     C47045   9.153   2.943   7.070  0.7005  0.4716  0.4450
  349MOL0     C47046   9.537   2.629   6.664  0.6962 -0.4909  0.5443
  349MOL0     C47047   9.649   2.592   6.599  0.4086  0.6662  0.0412
  349MOL0     H47048  10.107   2.702   6.515 -4.4448 -2.0274  2.5060
  349MOL0     H47049  10.293   2.710   6.360 -0.2588 -0.4051  0.7446
  349MOL0     H47050  10.454   2.674   6.188 -0.4040 -0.6642 -0.0477
  349MOL0     H47051  10.484   2.560   6.325 -4.6350 -0.9814  1.4835
  349MOL0     H47052  10.575   2.539   6.047 -2.8739 -0.5938 -0.4928
  349MOL0     H47053  10.674   2.556   6.197 -0.6109  1.7406 -1.1880
  349MOL0     H47054  10.537   2.335   6.273 -0.0184 -1.6851  0.2053
  349MOL0     H47055  10.542   2.306   6.100 -3.0849 -0.0825  1.0302
  349MOL0     H47056  10.805   2.374   6.147  1.4510 -2.6498 -2.2635
  349MOL0     H47057  10.780   2.324   6.310  0.0446  0.9479  0.9392
  349MOL0     H47058  10.717   2.100   6.249  0.0870  1.5618  0.8195
  349MOL0     H47059  10.714   2.142   6.077  2.9865  0.4225 -1.4478
  349MOL0     H47060  10.942   2.131   6.266 -1.6982  0.2956  0.5916
  349MOL0     H47061  10.910   2.019   6.123 -1.9238 -0.1602 -0.5494
  349MOL0     H47062  10.928   2.204   5.984  0.1020  1.2437  0.0239
  349MOL0     H47063  11.018   2.306   6.096  0.9537 -1.4246 -0.8438
  349MOL0     H47064  11.180   2.184   5.978  0.8552 -1.8549 -0.9157
  349MOL0     H47065  11.099   2.032   5.982 -0.9218  0.4558 -0.5438
  349MOL0     H47066  11.227   1.883   6.148  0.6240 -1.5640  0.6801
  349MOL0     H47067  11.278   1.910   6.534 -0.2512  1.5117  0.7673
  349MOL0     H47068  11.266   1.782   6.414 -1.5740 -0.6984  4.5139
  349MOL0     H47069  11.502   1.973   6.413 -0.5319  0.7819 -3.5672
  349MOL0     H47070  11.486   1.828   6.315 -1.4257  0.6667 -0.3456
  349MOL0     H47071  11.459   1.732   6.570 -0.5632 -0.3813 -2.2698
  349MOL0     H47072  11.554   1.877   6.611  1.1523  1.0561 -1.4746
  349MOL0     H47073  11.634   1.685   6.395 -0.9293  1.0057 -1.6631
  349MOL0     H47074  11.681   1.669   6.562 -1.2367 -1.2014  0.0204
  349MOL0     H47075  11.938   2.013   6.485  1.1683  1.1028 -1.6923
  349MOL0     H47076  12.279   1.998   6.525 -0.5395  1.3545 -1.2573
  349MOL0     H47077  12.236   2.034   6.350  0.2702 -0.7945 -1.0320
  349MOL0     H47078  12.148   2.107   6.485 -1.4168 -0.5947  0.4020
  349MOL0     H47079  12.423   1.366   6.293  1.3631  0.0859 -1.4156
  349MOL0     H47080  12.659   1.308   6.284 -0.0536  0.4667 -1.8548
  349MOL0     H47081  12.873   1.276   6.269 -1.2975  0.0396  0.4245
  349MOL0     H47082  12.872   1.428   6.168  1.2415 -1.8078 -1.4571
  349MOL0     H47083  13.096   1.325   6.172  0.0866 -2.8993  0.3663
  349MOL0     H47084  13.087   1.489   6.252  1.4588  0.1065 -0.0790
  349MOL0     H47085  13.104   1.204   6.371  0.2023  0.2912  0.6210
  349MOL0     H47086  13.083   1.356   6.472  1.3045 -2.9554  2.0806
  349MOL0     H47087  13.314   1.302   6.287 -1.3614 -2.5443 -0.6584
  349MOL0     H47088  13.308   1.428   6.402  1.6581 -0.7841 -1.2729
  349MOL0     H47089  13.447   1.247   6.461  0.3508  0.2566  1.2621
  349MOL0     H47090  13.323   1.129   6.448  1.0980  1.0575 -1.4502
  349MOL0     H47091  13.391   1.254   6.690  1.7080  2.7887 -1.4649
  349MOL0     H47092  13.283   1.376   6.628  3.2595  1.0272 -0.0340
  349MOL0     H47093  13.194   1.092   6.653  0.1258  0.2521 -1.8171
  349MOL0     H47094  13.088   1.239   6.666  1.2701  0.5708 -0.9398
  349MOL0     H47095  13.260   1.122   6.877 -1.2319 -0.1863 -0.2538
  349MOL0     H47096  13.088   1.148   6.883  0.0124 -0.0959 -1.1594
  349MOL0     H47097  12.739   1.621   6.554 -1.6774  3.5047 -1.5713
  349MOL0     H47098  12.510   1.704   6.543 -2.4128 -0.1826 -1.6647
  349MOL0     H47099  12.091   1.572   6.335 -0.9466  0.7084 -1.4991
  349MOL0     H47100  11.860   1.591   6.406 -0.0761 -0.1225 -0.0674
  349MOL0     H47101  10.176   2.336   6.198  2.0399  0.8819 -0.5684
  349MOL0     H47102   9.944   2.351   6.317 -0.3386 -0.7508  1.0327
  349MOL0     H47103   9.671   2.277   6.732 -0.5694 -0.5299  3.4960
  349MOL0     H47104   9.455   2.365   6.855 -0.4453 -0.4749  0.7707
  349MOL0     H47105   9.188   2.503   6.718 -2.1723  0.7359  0.6592
  349MOL0     H47106   9.257   2.435   6.862 -0.4615 -2.6366 -4.3271
  349MOL0     H47107   9.191   2.648   6.986 -2.4699 -0.1556  1.2175
  349MOL0     H47108   9.052   2.553   6.934  1.2602 -1.6988 -1.2423
  349MOL0     H47109   9.042   2.697   6.712  2.1471  0.0454 -0.8931
  349MOL0     H47110   9.176   2.782   6.775  0.8973 -0.3907 -0.1787
  349MOL0     H47111   8.911   2.773   6.933 -2.4249  1.5733 -1.6220
  349MOL0     H47112   8.945   2.890   6.822 -1.2618 -0.1505  2.5522
  349MOL0     H47113   9.216   2.988   7.144  1.7149  4.2258 -2.4142
  349MOL0     H47114   9.505   2.727   6.632  0.9497 -0.2640  0.9883
  349MOL0     H47115   9.690   2.661   6.526  0.7401  1.0743  0.6022
  350MOL0     O47116   5.883  10.782   2.835 -0.0724  0.7619 -0.0379
  350MOL0     C47117   5.880  10.816   2.720 -0.3143 -0.4284 -0.0355
  350MOL0     O47118   5.789  10.763   2.623 -0.2910 -0.5015 -0.7618
  350MOL0     C47119   5.694  10.676   2.672 -0.5402  0.1857  0.0390
  350MOL0     C47120   5.568  10.705   2.671  0.3150 -0.0719  1.3054
  350MOL0     C47121   5.470  10.622   2.731  0.8180  0.3239 -0.5192
  350MOL0     C47122   5.507  10.499   2.797  1.5252 -0.0844 -0.4760
  350MOL0     O47123   5.409  10.432   2.874 -0.6045  0.1534  0.2838
  350MOL0     C47124   5.435  10.297   2.900 -0.0497  0.2783 -0.5124
  350MOL0     C47125   5.314  10.240   2.955  0.1964 -0.1244  0.3255
  350MOL0     C47126   5.347  10.123   3.058  0.3754 -0.3292  0.3026
  350MOL0     C47127   5.223  10.034   3.083  0.5747 -0.2052  0.4795
  350MOL0     C47128   5.243   9.905   3.156 -0.4947  0.4149  0.9103
  350MOL0     C47129   5.104   9.833   3.189  0.4141 -0.4857  0.9051
  350MOL0     C47130   5.128   9.712   3.283  0.2663 -0.5968  0.3243
  350MOL0     C47131   5.175   9.587   3.220  0.0098 -0.1369  0.0855
  350MOL0     N47132   5.225   9.482   3.310  0.1824  0.4880 -0.1380
  350MOL0     C47133   5.166   9.359   3.316 -0.6401  0.8390 -0.6428
  350MOL0     C47134   5.240   9.301   3.413 -0.5970  0.1491  0.2680
  350MOL0     C47135   5.238   9.167   3.468 -0.5317  0.6605  0.0954
  350MOL0     C47136   5.097   9.124   3.521 -0.6796  0.5618 -0.0254
  350MOL0     C47137   5.110   8.971   3.565  0.5623  0.5299  0.7205
  350MOL0     C47138   4.979   8.909   3.623 -0.5589 -0.1048 -0.2100
  350MOL0     O47139   4.889   8.906   3.509  0.1318  0.9015  0.6099
  350MOL0     C47140   4.763   8.858   3.521  0.3747 -0.9404  0.2245
  350MOL0     C47141   4.680   8.860   3.407 -0.4009 -0.4248  0.2116
  350MOL0     C47142   4.557   8.809   3.401  1.2812 -0.1320 -0.1589
  350MOL0     C47143   4.488   8.811   3.270  0.4933  0.2125 -0.5715
  350MOL0     C47144   4.497   8.754   3.517  0.3301  0.2052 -0.1851
  350MOL0     C47145   4.371   8.674   3.518 -0.2307  0.2553 -0.0677
  350MOL0     O47146   4.339   8.600   3.630 -0.3188  0.2994  0.6893
  350MOL0     C47147   4.208   8.563   3.647 -0.8631  0.0887 -0.0524
  350MOL0     C47148   4.177   8.428   3.611 -0.0183 -0.7779  0.3705
  350MOL0     C47149   4.055   8.369   3.636  0.6940 -0.0738 -0.6212
  350MOL0     C47150   3.956   8.453   3.682  0.2067 -0.4966  0.3346
  350MOL0     O47151   3.821   8.410   3.701 -1.1640 -0.6479 -0.1032
  350MOL0     C47152   3.797   8.268   3.673  0.7061  0.4962 -0.4591
  350MOL0     C47153   3.647   8.235   3.701 -0.9589 -0.0731  0.2208
  350MOL0     C47154   3.539   8.345   3.663  0.3167  0.4616  0.0038
  350MOL0     C47155   3.393   8.287   3.688  0.2480  0.6356  0.1280
  350MOL0     C47156   3.339   8.267   3.831 -0.4274  0.4571 -0.5513
  350MOL0     C47157   3.243   8.140   3.832 -0.5267  0.2182 -0.4230
  350MOL0     C47158   3.325   8.009   3.813 -0.1374  1.0801  0.0387
  350MOL0     C47159   3.287   7.892   3.907  0.8817  0.2798  0.2217
  350MOL0    Cl47160   3.103   7.875   3.909 -0.3359  0.0823  0.0357
  350MOL0     C47161   3.984   8.587   3.715 -0.8368 -0.7113 -0.5790
  350MOL0     C47162   4.110   8.649   3.691  0.1890  0.0709  0.4701
  350MOL0     O47163   4.297   8.678   3.418 -0.6673  0.7012 -0.3530
  350MOL0     C47164   4.574   8.752   3.637  0.5727  0.4426  0.5388
  350MOL0     C47165   4.702   8.794   3.629 -0.4588  0.4194 -0.5656
  350MOL0     N47166   5.350   9.377   3.442  0.3782  0.4865 -0.2079
  350MOL0     N47167   5.343   9.488   3.373  0.4860 -0.3416  0.3557
  350MOL0     C47168   5.639  10.464   2.789  0.4326 -0.5270  0.4432
  350MOL0     C47169   5.736  10.550   2.723 -0.9938 -0.3355 -0.2252
  350MOL0     C47170   5.989  10.900   2.658 -0.5562 -0.3212 -0.4313
  350MOL0     C47171   6.007  10.907   2.519 -0.6979 -0.1206  0.0295
  350MOL0     C47172   6.105  10.995   2.459 -0.0137 -0.2687 -0.5039
  350MOL0     C47173   6.186  11.064   2.547  0.4511  0.4421  0.3380
  350MOL0     O47174   6.279  11.146   2.479  0.1541 -1.0878 -0.5707
  350MOL0     C47175   6.394  11.181   2.556 -0.4839 -0.2152  0.1860
  350MOL0     C47176   6.519  11.218   2.468  0.9230 -0.8306  0.6333
  350MOL0     C47177   6.608  11.097   2.426  0.8607 -0.0827 -1.0956
  350MOL0     C47178   6.739  11.158   2.384  0.4092 -0.1342 -0.3187
  350MOL0     C47179   6.838  11.064   2.342 -0.2866 -1.6735 -0.8691
  350MOL0     C47180   6.928  10.990   2.306 -0.2996  0.8934 -0.0037
  350MOL0     C47181   6.165  11.069   2.681 -0.1783  0.3552 -0.0615
  350MOL0     C47182   6.069  10.981   2.737  0.1206 -0.8333  0.1887
  350MOL0     H47183   5.546  10.804   2.631  1.1436 -1.3440 -2.7310
  350MOL0     H47184   5.370  10.663   2.737  0.1343 -1.1449 -1.5109
  350MOL0     H47185   5.483  10.236   2.822 -1.2663  0.2763 -1.2906
  350MOL0     H47186   5.502  10.299   2.986 -0.2028  1.9510 -0.4097
  350MOL0     H47187   5.239  10.308   2.998 -0.7629  0.0364 -1.5067
  350MOL0     H47188   5.258  10.202   2.869  2.0952 -1.5579 -0.3289
  350MOL0     H47189   5.426  10.061   3.015  1.6977 -1.0774  3.5550
  350MOL0     H47190   5.387  10.163   3.151  1.9291 -0.4229 -0.3084
  350MOL0     H47191   5.145  10.093   3.132  1.4450 -0.1167  1.7879
  350MOL0     H47192   5.173  10.013   2.987 -0.9898  2.1240  0.6916
  350MOL0     H47193   5.301   9.838   3.092  0.8838  3.6062 -1.4392
  350MOL0     H47194   5.297   9.923   3.250  1.0634 -0.7901  0.2884
  350MOL0     H47195   5.035   9.903   3.237  0.3519  0.2801 -0.2606
  350MOL0     H47196   5.052   9.796   3.100 -0.6740 -2.1744  2.1922
  350MOL0     H47197   5.194   9.748   3.363  0.0360  1.8812 -0.4889
  350MOL0     H47198   5.037   9.686   3.338  0.9073 -1.8333  0.8338
  350MOL0     H47199   5.256   9.613   3.152  0.0322  0.2314  0.2474
  350MOL0     H47200   5.091   9.548   3.162  0.5103 -0.1641 -0.6273
  350MOL0     H47201   5.081   9.323   3.260  0.5677 -1.7641 -0.9774
  350MOL0     H47202   5.264   9.106   3.381  0.8482  2.0794 -0.5361
  350MOL0     H47203   5.320   9.158   3.539 -1.6786 -0.3632  1.3343
  350MOL0     H47204   5.015   9.138   3.450  0.7926 -1.6255 -2.2954
  350MOL0     H47205   5.078   9.182   3.612  1.5640  0.2609  0.7061
  350MOL0     H47206   5.192   8.969   3.639  0.1789  0.1989  1.1414
  350MOL0     H47207   5.148   8.919   3.477 -0.4481 -1.4956  1.4025
  350MOL0     H47208   4.946   8.974   3.704 -0.8769  0.5527 -0.8606
  350MOL0     H47209   4.997   8.810   3.665 -0.8578 -1.0168 -2.0993
  350MOL0     H47210   4.722   8.885   3.310  0.7374 -3.0055 -0.0420
  350MOL0     H47211   4.546   8.860   3.192 -0.5735  0.3674 -1.2885
  350MOL0     H47212   4.476   8.707   3.240 -0.9178 -0.0375  0.7043
  350MOL0     H47213   4.393   8.865   3.284  1.2620  0.9108  2.8883
  350MOL0     H47214   4.250   8.361   3.568  2.1257  2.4177 -1.3009
  350MOL0     H47215   4.041   8.262   3.624  3.5146 -0.6402  0.4845
  350MOL0     H47216   3.817   8.247   3.568 -1.7175 -3.2311 -0.3538
  350MOL0     H47217   3.863   8.216   3.743 -1.4170  1.2143  2.2986
  350MOL0     H47218   3.615   8.148   3.642  3.5369 -1.3797 -0.6778
  350MOL0     H47219   3.642   8.211   3.807 -3.4314  0.0041  0.1752
  350MOL0     H47220   3.566   8.395   3.569  1.0571  1.4967  0.7467
  350MOL0     H47221   3.551   8.420   3.742  2.1395 -1.1784  1.3761
  350MOL0     H47222   3.315   8.348   3.641 -1.9803 -0.3206  2.3648
  350MOL0     H47223   3.390   8.191   3.637 -0.4101 -1.2400  3.3942
  350MOL0     H47224   3.290   8.357   3.869 -2.2918 -0.9409  0.5368
  350MOL0     H47225   3.422   8.242   3.898  0.5128 -0.2071 -1.9190
  350MOL0     H47226   3.183   8.137   3.924 -1.1879  0.1695 -0.8459
  350MOL0     H47227   3.172   8.146   3.749 -0.1412 -2.8211 -1.0997
  350MOL0     H47228   3.429   8.034   3.836 -0.4003  2.1805  0.0788
  350MOL0     H47229   3.305   7.977   3.711 -0.0951 -1.2161  0.7004
  350MOL0     H47230   3.327   7.920   4.005 -0.8519 -0.2511  1.1199
  350MOL0     H47231   3.338   7.797   3.888 -0.9546 -0.8097  0.4631
  350MOL0     H47232   3.894   8.645   3.735 -2.0713 -2.8054  0.2546
  350MOL0     H47233   4.116   8.754   3.719 -0.2248  0.5804 -1.1952
  350MOL0     H47234   4.537   8.706   3.728  1.6736 -1.2426  0.1896
  350MOL0     H47235   4.762   8.793   3.720  2.1701  2.2540 -2.1426
  350MOL0     H47236   5.685  10.369   2.815  0.3691 -1.2962 -2.0263
  350MOL0     H47237   5.843  10.535   2.734 -1.0826 -0.2982  0.7371
  350MOL0     H47238   5.949  10.846   2.450 -1.0378  1.7412 -1.4067
  350MOL0     H47239   6.123  11.014   2.354  2.1904 -3.6354 -0.8998
  350MOL0     H47240   6.365  11.267   2.618  0.3145  0.3644 -0.2217
  350MOL0     H47241   6.432  11.105   2.625 -0.5568  0.0999  0.5772
  350MOL0     H47242   6.585  11.289   2.518 -0.4001  2.0969 -1.4113
  350MOL0     H47243   6.487  11.273   2.378 -0.0531  0.2849  1.6306
  350MOL0     H47244   6.560  11.038   2.347 -1.2352  1.8993 -1.3969
  350MOL0     H47245   6.626  11.039   2.517 -0.0317 -0.6163 -1.2441
  350MOL0     H47246   6.779  11.214   2.468 -0.5412  0.0806  0.0082
  350MOL0     H47247   6.720  11.230   2.303 -1.1805 -0.1302  0.0112
  350MOL0     H47248   6.998  10.914   2.279 -1.4639 -0.6869  1.2390
  350MOL0     H47249   6.213  11.132   2.755 -0.4430  0.3974  0.0755
  350MOL0     H47250   6.056  10.993   2.844  1.1959  1.8157  0.1015
  351MOL0     O47251   5.616   1.870   7.683  0.5518 -0.8958  0.1036
  351MOL0     C47252   5.644   1.749   7.691 -0.2635 -0.1326 -0.0502
  351MOL0     O47253   5.711   1.691   7.801 -0.6529 -0.2365  0.1260
  351MOL0     C47254   5.809   1.755   7.880  0.8561 -0.5612  0.7632
  351MOL0     C47255   5.828   1.700   8.008  0.0452 -0.2704 -0.3587
  351MOL0     C47256   5.918   1.770   8.093 -1.1812 -0.9509  0.7170
  351MOL0     C47257   5.992   1.884   8.050 -0.3654 -0.1768 -0.5232
  351MOL0     O47258   6.096   1.928   8.125 -0.1251  0.1631  0.0833
  351MOL0     C47259   6.224   1.862   8.082  0.0497 -0.5739  0.4041
  351MOL0     C47260   6.344   1.963   8.119  0.3476 -0.9540 -0.5249
  351MOL0     C47261   6.354   1.962   8.274  0.0679 -0.1671  0.1238
  351MOL0     C47262   6.453   2.077   8.317  0.1592 -1.1394  0.6513
  351MOL0     C47263   6.441   2.098   8.460  0.0110  0.4102 -0.4594
  351MOL0     C47264   6.535   2.213   8.504 -0.2365 -0.8410  0.9429
  351MOL0     C47265   6.526   2.265   8.650 -0.3620 -0.5753 -0.0308
  351MOL0     C47266   6.600   2.389   8.671 -0.9473 -0.7865  0.1862
  351MOL0     N47267   6.747   2.394   8.648 -0.0595 -0.5587 -0.0446
  351MOL0     C47268   6.795   2.408   8.524  0.0539 -0.8880 -0.2491
  351MOL0     C47269   6.930   2.402   8.554 -0.1536 -0.6422 -0.5284
  351MOL0     C47270   7.060   2.410   8.472 -0.2074 -0.0370 -0.5570
  351MOL0     C47271   7.056   2.344   8.333  0.3879 -0.7231 -0.8957
  351MOL0     C47272   7.035   2.194   8.338 -0.6473 -0.0671 -0.4249
  351MOL0     C47273   6.975   2.136   8.218  0.4596 -0.6146 -0.0704
  351MOL0     O47274   6.842   2.184   8.205 -0.0524 -0.3402 -0.5117
  351MOL0     C47275   6.781   2.165   8.090 -0.5147  0.7083  0.9171
  351MOL0     C47276   6.807   2.059   8.007  0.0227 -0.9315  0.4517
  351MOL0     C47277   6.731   2.032   7.889  0.3147  0.5350 -0.3186
  351MOL0     C47278   6.785   1.933   7.789  0.8444 -0.6217  0.7444
  351MOL0     C47279   6.611   2.105   7.863  1.3031 -0.2375 -0.1465
  351MOL0     C47280   6.521   2.087   7.746  0.2143  0.2789  0.2415
  351MOL0     O47281   6.399   2.114   7.776  0.2135 -0.0638 -0.8047
  351MOL0     C47282   6.300   2.090   7.694  0.5958  0.0799 -0.0970
  351MOL0     C47283   6.240   1.970   7.699  0.0676 -0.2911  0.1327
  351MOL0     C47284   6.142   1.946   7.600 -1.0960 -0.2015  0.9739
  351MOL0     C47285   6.105   2.041   7.506  0.4155  0.5594 -0.9906
  351MOL0     O47286   6.009   2.015   7.414 -0.3578  0.0942 -0.0715
  351MOL0     C47287   5.927   1.892   7.415 -0.9763  0.1276 -0.2209
  351MOL0     C47288   5.819   1.899   7.314  1.2669 -1.2072 -0.4946
  351MOL0     C47289   5.749   1.772   7.273  0.1165  0.2059 -0.0365
  351MOL0     C47290   5.832   1.661   7.224 -0.8675  0.2699 -0.2333
  351MOL0     C47291   5.753   1.532   7.197 -0.2836  0.8212  0.3801
  351MOL0     C47292   5.834   1.415   7.148  1.0050 -0.5325 -0.1899
  351MOL0     C47293   5.735   1.304   7.113 -0.4176  0.4605 -0.5731
  351MOL0     C47294   5.790   1.168   7.074 -0.1945  0.6482  0.0120
  351MOL0    Cl47295   5.908   1.191   6.945  0.2800 -0.8624  0.0257
  351MOL0     C47296   6.152   2.170   7.518 -1.0412 -0.2047 -0.2103
  351MOL0     C47297   6.258   2.189   7.605  0.5637 -0.1073  0.1335
  351MOL0     O47298   6.554   2.027   7.644  0.3352  0.1803 -0.7663
  351MOL0     C47299   6.577   2.207   7.956 -0.4873  0.0383 -0.1957
  351MOL0     C47300   6.667   2.234   8.058  0.0631 -0.0345 -0.5404
  351MOL0     N47301   6.947   2.391   8.692 -0.1069  0.2732 -0.1447
  351MOL0     N47302   6.832   2.393   8.749  0.1083 -0.3060  0.3053
  351MOL0     C47303   5.963   1.938   7.926  0.1048 -0.6028  0.1855
  351MOL0     C47304   5.874   1.869   7.836  0.2557 -0.4854 -0.7869
  351MOL0     C47305   5.572   1.652   7.604 -0.3112 -0.3436 -0.3309
  351MOL0     C47306   5.481   1.698   7.503 -0.6744  0.6053 -0.0076
  351MOL0     C47307   5.415   1.607   7.414 -0.0098  0.2836  0.5787
  351MOL0     C47308   5.429   1.472   7.449 -0.4027  0.5958 -0.6882
  351MOL0     O47309   5.365   1.369   7.388  0.3105 -0.4679 -0.1456
  351MOL0     C47310   5.271   1.412   7.287  0.3507 -0.9650  0.4575
  351MOL0     C47311   5.206   1.272   7.256  0.0972  0.6091  0.0657
  351MOL0     C47312   5.292   1.174   7.178 -0.1219  0.1292 -0.1989
  351MOL0     C47313   5.215   1.063   7.114  0.1511  0.1555  0.3630
  351MOL0     C47314   5.127   0.983   7.205  0.6208  0.6376 -0.2999
  351MOL0     C47315   5.052   0.902   7.260  0.0647  0.4660  0.6655
  351MOL0     C47316   5.516   1.428   7.546 -0.2115 -0.6862  0.5037
  351MOL0     C47317   5.586   1.514   7.621 -0.4516  0.1057 -0.1219
  351MOL0     H47318   5.784   1.604   8.032  0.6302 -0.5785 -0.4868
  351MOL0     H47319   5.944   1.710   8.180  4.2268 -1.3146 -0.8215
  351MOL0     H47320   6.236   1.762   8.123  3.6233 -0.4194  0.0854
  351MOL0     H47321   6.230   1.856   7.973 -0.7701  3.3260 -0.0339
  351MOL0     H47322   6.434   1.920   8.074 -0.0040 -1.1267 -1.0723
  351MOL0     H47323   6.324   2.060   8.073 -5.4267 -1.7516 -0.4208
  351MOL0     H47324   6.261   1.984   8.326  0.2328  0.1029  0.3063
  351MOL0     H47325   6.385   1.860   8.300 -0.2760 -0.3563 -0.2016
  351MOL0     H47326   6.558   2.053   8.296  0.5963 -0.1926  1.6369
  351MOL0     H47327   6.419   2.164   8.260 -0.5021 -2.8655 -1.7616
  351MOL0     H47328   6.350   2.139   8.503  0.9889  3.1609 -0.8076
  351MOL0     H47329   6.468   2.004   8.509  0.6594  0.5293 -0.5798
  351MOL0     H47330   6.635   2.186   8.468 -0.3656  0.2441 -0.3027
  351MOL0     H47331   6.509   2.302   8.446  0.8716 -1.5327 -0.6657
  351MOL0     H47332   6.420   2.273   8.676 -0.4745 -1.7315 -0.0845
  351MOL0     H47333   6.570   2.195   8.721  0.1556 -0.2018  0.0201
  351MOL0     H47334   6.585   2.422   8.774 -0.2898 -1.8279  0.6310
  351MOL0     H47335   6.541   2.455   8.607  1.0283 -2.3697 -3.5679
  351MOL0     H47336   6.751   2.411   8.425  1.1235  0.4828 -0.7114
  351MOL0     H47337   7.078   2.517   8.460  4.3889 -0.1638  2.8385
  351MOL0     H47338   7.146   2.376   8.530 -0.8419 -2.5538 -0.9305
  351MOL0     H47339   7.147   2.375   8.280  1.5264 -1.9907  0.2473
  351MOL0     H47340   6.966   2.383   8.283 -0.3058 -1.1029  0.0347
  351MOL0     H47341   6.975   2.158   8.422 -0.6825 -1.8523 -1.1657
  351MOL0     H47342   7.130   2.141   8.350 -0.9601 -0.1697  2.2931
  351MOL0     H47343   6.974   2.033   8.253 -2.5329  0.1121  2.3839
  351MOL0     H47344   7.039   2.145   8.129  1.1138 -0.9107  0.3604
  351MOL0     H47345   6.898   2.000   8.020  0.9534  0.2146 -0.6569
  351MOL0     H47346   6.711   1.858   7.758  1.5694 -0.6811 -0.9507
  351MOL0     H47347   6.826   1.991   7.706 -1.0029  0.9764  0.8847
  351MOL0     H47348   6.872   1.873   7.819  1.3416 -0.8154 -0.9862
  351MOL0     H47349   6.276   1.894   7.767  0.5129  1.5022  2.0160
  351MOL0     H47350   6.092   1.850   7.597  0.5865 -1.0900 -0.7434
  351MOL0     H47351   6.002   1.814   7.395 -1.1708 -0.2834  0.6173
  351MOL0     H47352   5.874   1.862   7.505 -2.1911  0.6619 -0.7470
  351MOL0     H47353   5.742   1.964   7.355  0.1260 -3.2499  0.7768
  351MOL0     H47354   5.852   1.936   7.216 -0.5913  0.4083 -0.5603
  351MOL0     H47355   5.664   1.788   7.205 -0.4161  1.6774  0.9155
  351MOL0     H47356   5.693   1.736   7.359 -1.5544 -3.0454 -2.2563
  351MOL0     H47357   5.889   1.699   7.139 -1.5100  1.6789 -0.0693
  351MOL0     H47358   5.896   1.650   7.312 -0.7310 -0.3672 -0.4074
  351MOL0     H47359   5.683   1.564   7.119  1.0520  2.2852 -0.2771
  351MOL0     H47360   5.704   1.495   7.287 -2.4810 -0.5478 -1.2775
  351MOL0     H47361   5.891   1.452   7.062 -0.2716  1.1639 -0.3652
  351MOL0     H47362   5.904   1.382   7.226  1.8920  2.8359  0.6179
  351MOL0     H47363   5.665   1.326   7.032 -2.6535 -0.9039  0.8758
  351MOL0     H47364   5.668   1.285   7.197  0.4238  1.1409  0.2793
  351MOL0     H47365   5.704   1.109   7.042  0.0400  0.2419  0.1232
  351MOL0     H47366   5.835   1.125   7.164 -0.7629 -2.0868 -0.9191
  351MOL0     H47367   6.110   2.242   7.448 -2.8376  0.4339  1.4632
  351MOL0     H47368   6.309   2.284   7.595 -0.5740  0.3623 -1.8073
  351MOL0     H47369   6.492   2.273   7.944  0.3074  0.7024 -2.8146
  351MOL0     H47370   6.629   2.308   8.128 -3.3203  0.2005 -2.4368
  351MOL0     H47371   6.016   2.030   7.901 -0.8064 -0.8619 -3.2157
  351MOL0     H47372   5.853   1.911   7.738 -1.2928  1.6005  0.3583
  351MOL0     H47373   5.466   1.806   7.499  1.3402  0.9229 -0.0084
  351MOL0     H47374   5.362   1.649   7.329  0.3308 -1.3034 -0.4661
  351MOL0     H47375   5.202   1.483   7.332 -0.3236 -1.1265 -0.3002
  351MOL0     H47376   5.325   1.447   7.198  2.5699 -0.3904  1.9514
  351MOL0     H47377   5.111   1.277   7.203  1.0531 -3.2506 -2.4199
  351MOL0     H47378   5.173   1.218   7.345 -2.7269  1.3604 -0.4279
  351MOL0     H47379   5.369   1.132   7.245 -0.6453 -1.3923 -0.5094
  351MOL0     H47380   5.342   1.237   7.105 -4.5954  3.3845 -0.8452
  351MOL0     H47381   5.285   0.996   7.062  1.9751 -0.2749  3.1440
  351MOL0     H47382   5.153   1.114   7.040  1.6923  1.5633 -0.0230
  351MOL0     H47383   4.983   0.830   7.300  0.2127 -0.5479 -0.8425
  351MOL0     H47384   5.528   1.321   7.556  2.9728 -0.5590 -0.9646
  351MOL0     H47385   5.662   1.468   7.684 -0.4292 -0.6531 -0.6929
  352MOL0     O47386   7.627   7.097   8.682  0.4768  0.1959 -0.4937
  352MOL0     C47387   7.643   7.216   8.703 -0.7919  0.2641  0.4404
  352MOL0     O47388   7.676   7.275   8.829  0.4577 -0.7583 -0.0845
  352MOL0     C47389   7.661   7.204   8.940 -0.4777 -0.7446 -0.2791
  352MOL0     C47390   7.770   7.159   9.002  0.7779  0.4915 -0.5072
  352MOL0     C47391   7.761   7.065   9.102  1.1900  0.1670  0.3156
  352MOL0     C47392   7.641   7.009   9.138  1.2603 -1.0452 -0.8072
  352MOL0     O47393   7.640   6.920   9.239  0.4991  0.0308 -0.1491
  352MOL0     C47394   7.516   6.856   9.289 -0.0932 -0.2255 -0.3234
  352MOL0     C47395   7.532   6.759   9.409 -0.5089 -0.5270 -0.2298
  352MOL0     C47396   7.638   6.651   9.379 -0.0121  0.0647 -0.0612
  352MOL0     C47397   7.667   6.564   9.508 -0.1458  0.4271 -0.8293
  352MOL0     C47398   7.786   6.473   9.492 -0.5256  0.2913  0.2441
  352MOL0     C47399   7.805   6.415   9.632  0.2393  0.4187  0.0046
  352MOL0     C47400   7.925   6.319   9.642  0.5029 -0.0908 -0.7984
  352MOL0     C47401   7.935   6.255   9.783 -0.7567 -0.2878  0.3610
  352MOL0     N47402   8.046   6.159   9.769 -1.1776  0.5045 -0.1734
  352MOL0     C47403   8.181   6.192   9.749  1.1298 -0.0686  0.5143
  352MOL0     C47404   8.237   6.074   9.757  0.2172  0.2671  0.6118
  352MOL0     C47405   8.388   6.050   9.723 -0.4702  0.0061  0.0650
  352MOL0     C47406   8.462   6.009   9.845  0.6259 -0.8240 -0.2094
  352MOL0     C47407   8.606   5.972   9.807  0.3207  0.4873 -0.0996
  352MOL0     C47408   8.687   5.930   9.927 -0.2971  0.6996 -0.1710
  352MOL0     O47409   8.728   6.043  10.014  0.6782  0.0170  0.5475
  352MOL0     C47410   8.850   6.051  10.072  0.2018 -0.1671 -0.4855
  352MOL0     C47411   8.862   6.181  10.127 -0.0306 -0.4888 -0.2902
  352MOL0     C47412   8.972   6.218  10.205 -0.0942  0.3693 -0.0244
  352MOL0     C47413   8.961   6.359  10.266 -0.1359 -0.3695  0.0812
  352MOL0     C47414   9.063   6.114  10.245 -0.1644  0.7953  0.0207
  352MOL0     C47415   9.180   6.142  10.337 -0.1132 -0.7282 -0.4523
  352MOL0     O47416   9.236   6.027  10.387  0.6846  0.1944  0.8285
  352MOL0     C47417   9.361   6.027  10.444 -0.0922  0.4375 -0.9876
  352MOL0     C47418   9.401   6.119  10.542 -1.1233  0.4251 -0.0314
  352MOL0     C47419   9.533   6.119  10.599 -0.5341 -0.2266 -0.8169
  352MOL0     C47420   9.620   6.018  10.560 -0.8871 -0.1653 -0.2408
  352MOL0     O47421   9.756   6.034  10.600 -0.0378 -0.4155 -0.4116
  352MOL0     C47422   9.848   5.934  10.557  0.3515  0.5268 -0.3892
  352MOL0     C47423   9.986   5.979  10.604 -0.0478 -0.8166 -0.1740
  352MOL0     C47424  10.104   5.889  10.552  0.3712  0.3239 -0.0391
  352MOL0     C47425  10.224   5.978  10.512  0.3854 -0.6568  0.3465
  352MOL0     C47426  10.329   5.886  10.437 -0.0029 -0.7802  0.2181
  352MOL0     C47427  10.282   5.816  10.310 -0.0878 -0.0267  0.3285
  352MOL0     C47428  10.224   5.902  10.204  0.0764  0.3666 -0.3780
  352MOL0     C47429  10.213   5.826  10.080 -0.6985  0.0227  0.5762
  352MOL0    Cl47430  10.071   5.723  10.081  0.2999 -0.3949  0.0505
  352MOL0     C47431   9.573   5.912  10.479 -0.0808  0.5764  0.2317
  352MOL0     C47432   9.448   5.926  10.409 -0.8230  0.0142  0.5696
  352MOL0     O47433   9.236   6.257  10.340  0.3200  0.7396 -0.4695
  352MOL0     C47434   9.050   5.985  10.186 -0.2701 -0.1813  1.1440
  352MOL0     C47435   8.947   5.957  10.100  0.7457 -0.3564 -0.2432
  352MOL0     N47436   8.141   5.982   9.797 -0.6081 -0.0679  0.6766
  352MOL0     N47437   8.027   6.031   9.799  0.5868 -0.4513 -0.6713
  352MOL0     C47438   7.526   7.060   9.083 -0.9071 -0.5873 -0.4086
  352MOL0     C47439   7.541   7.152   8.981  1.3557  0.5100  0.9691
  352MOL0     C47440   7.625   7.295   8.582  0.3971 -0.2689  0.2751
  352MOL0     C47441   7.622   7.234   8.448  0.4540  0.2282 -1.1813
  352MOL0     C47442   7.628   7.312   8.337 -0.0074  0.6063  0.1946
  352MOL0     C47443   7.623   7.453   8.334 -0.1862  0.3851 -0.2647
  352MOL0     O47444   7.619   7.529   8.218  0.1698  0.3449  0.8995
  352MOL0     C47445   7.587   7.669   8.219 -0.2528  0.4675  0.2042
  352MOL0     C47446   7.565   7.716   8.074  0.9579  0.0456 -0.4404
  352MOL0     C47447   7.565   7.870   8.058  0.4134  0.3932  0.3032
  352MOL0     C47448   7.544   7.923   7.913 -1.0786  0.6010  0.5847
  352MOL0     C47449   7.414   7.898   7.858  0.5061  0.1746 -0.4738
  352MOL0     C47450   7.298   7.860   7.836 -0.7304 -0.0478 -0.3537
  352MOL0     C47451   7.629   7.516   8.465 -0.8187 -0.3853 -0.0936
  352MOL0     C47452   7.627   7.437   8.583  0.4338 -1.0084 -0.8115
  352MOL0     H47453   7.863   7.205   8.970  0.6819  0.8831 -0.2278
  352MOL0     H47454   7.838   7.028   9.169 -0.0677 -1.0145  1.1726
  352MOL0     H47455   7.458   6.942   9.323 -0.5477 -0.1214 -1.3348
  352MOL0     H47456   7.454   6.809   9.213 -3.1145  0.7365  1.3951
  352MOL0     H47457   7.542   6.809   9.506 -2.1674 -4.0472  1.9622
  352MOL0     H47458   7.438   6.706   9.426 -0.9812  0.6567  1.0127
  352MOL0     H47459   7.602   6.591   9.295  0.2178  0.8496 -0.7331
  352MOL0     H47460   7.731   6.698   9.346  0.1443 -1.2306 -1.5762
  352MOL0     H47461   7.670   6.619   9.602 -0.0582 -1.4133  0.2979
  352MOL0     H47462   7.577   6.501   9.514 -0.5622  1.1122  0.4655
  352MOL0     H47463   7.782   6.397   9.413 -2.6640  1.1552 -0.5327
  352MOL0     H47464   7.873   6.536   9.473  0.5756 -0.1044  3.4184
  352MOL0     H47465   7.825   6.502   9.696 -0.8896  1.5822 -1.1634
  352MOL0     H47466   7.713   6.363   9.660  2.0029 -2.2967  1.2019
  352MOL0     H47467   7.909   6.244   9.564 -2.9452  1.5893 -1.9577
  352MOL0     H47468   8.009   6.383   9.612 -1.0450  2.9908  0.8835
  352MOL0     H47469   7.840   6.212   9.816 -0.4667 -0.7523  0.5956
  352MOL0     H47470   7.967   6.340   9.845  0.2596 -0.3358 -0.0774
  352MOL0     H47471   8.237   6.285   9.740  4.9069 -2.1742  0.5651
  352MOL0     H47472   8.398   5.971   9.649  3.7976  2.7369 -2.7445
  352MOL0     H47473   8.422   6.144   9.679 -2.5935  0.0709 -1.6006
  352MOL0     H47474   8.410   5.926   9.894 -0.6781 -0.0386 -0.2098
  352MOL0     H47475   8.452   6.092   9.915 -1.0676  1.6152 -3.0843
  352MOL0     H47476   8.659   6.056   9.760  1.4162 -1.0183 -1.6488
  352MOL0     H47477   8.599   5.886   9.741  2.1254  0.1474  0.0910
  352MOL0     H47478   8.779   5.875   9.906  1.8162  4.6331 -2.6315
  352MOL0     H47479   8.627   5.856   9.979 -0.6528 -1.6565 -3.5955
  352MOL0     H47480   8.782   6.254  10.132  0.1776 -0.2109 -0.9014
  352MOL0     H47481   9.044   6.418  10.227  1.6280 -2.8725 -0.1973
  352MOL0     H47482   8.868   6.409  10.238 -1.7353 -2.2611  1.6118
  352MOL0     H47483   8.975   6.343  10.374 -0.1702  1.6049  0.4079
  352MOL0     H47484   9.340   6.202  10.575 -2.2922  0.3135 -1.7688
  352MOL0     H47485   9.561   6.207  10.656 -0.4690 -0.1585 -0.9540
  352MOL0     H47486   9.815   5.836  10.591  3.9410 -1.7331 -2.6899
  352MOL0     H47487   9.839   5.929  10.448 -0.5531 -0.3019 -0.2901
  352MOL0     H47488   9.999   6.081  10.567  0.8397 -0.4834  0.9813
  352MOL0     H47489   9.992   6.011  10.709  0.6985 -1.6766  0.0571
  352MOL0     H47490  10.076   5.838  10.460  1.6883 -3.2657  1.3831
  352MOL0     H47491  10.131   5.816  10.629  1.2002 -0.1706 -0.7770
  352MOL0     H47492  10.199   6.063  10.448  1.9571 -1.8842 -2.0696
  352MOL0     H47493  10.273   6.011  10.604 -1.8770 -0.0110  1.3752
  352MOL0     H47494  10.358   5.808  10.508  1.4738 -1.6384 -1.2661
  352MOL0     H47495  10.421   5.942  10.420  0.0669 -0.9510  0.0317
  352MOL0     H47496  10.356   5.748  10.267 -3.1590 -2.3106 -1.7835
  352MOL0     H47497  10.208   5.741  10.340  0.5838 -0.2228  1.5830
  352MOL0     H47498  10.291   5.988  10.197  4.0392 -2.5089 -1.1501
  352MOL0     H47499  10.124   5.937  10.232  0.8886  2.0682  0.5640
  352MOL0     H47500  10.305   5.770  10.060  0.1763  1.4092  0.6064
  352MOL0     H47501  10.198   5.901  10.002  3.0230 -2.5351 -3.0225
  352MOL0     H47502   9.638   5.831  10.448 -0.5709 -0.2043  1.1845
  352MOL0     H47503   9.429   5.843  10.342 -0.1670 -0.1313  0.5619
  352MOL0     H47504   9.133   5.915  10.186  1.2532  1.5108 -0.8130
  352MOL0     H47505   8.948   5.857  10.059  2.1268 -1.2147  1.6903
  352MOL0     H47506   7.426   7.029   9.111 -0.6549 -0.0045  1.2363
  352MOL0     H47507   7.444   7.177   8.940  0.8426 -1.3353  0.9767
  352MOL0     H47508   7.622   7.127   8.432 -2.4047 -0.4624  2.2591
  352MOL0     H47509   7.649   7.263   8.243  0.0883  2.7616 -0.9557
  352MOL0     H47510   7.490   7.696   8.263 -0.3139  1.3846 -0.4594
  352MOL0     H47511   7.659   7.731   8.274  0.0164 -0.2104  0.6260
  352MOL0     H47512   7.466   7.679   8.045 -0.6178  3.6398 -0.2299
  352MOL0     H47513   7.637   7.680   8.000  1.3710 -1.1909  0.5242
  352MOL0     H47514   7.662   7.905   8.094 -0.8533  1.0319  3.4910
  352MOL0     H47515   7.488   7.921   8.117 -0.5071 -0.3511 -0.2293
  352MOL0     H47516   7.621   7.888   7.844 -2.0769  1.0449 -0.8039
  352MOL0     H47517   7.569   8.029   7.917  0.6601  0.3300 -1.4168
  352MOL0     H47518   7.206   7.834   7.789 -0.8326 -1.3657  0.5274
  352MOL0     H47519   7.640   7.624   8.474  1.8798 -0.7357  2.8251
  352MOL0     H47520   7.634   7.492   8.677  2.6552  0.8498 -1.9909
  353MOL0     O47521   1.506   4.411   8.538 -0.2769  0.0955 -0.1743
  353MOL0     C47522   1.558   4.509   8.600  0.7878 -0.0436  1.4524
  353MOL0     O47523   1.490   4.595   8.686  0.1998 -0.7334  0.2347
  353MOL0     C47524   1.361   4.571   8.724 -0.8238  0.7164  0.1855
  353MOL0     C47525   1.308   4.442   8.745  0.0152  0.2583  0.1071
  353MOL0     C47526   1.186   4.422   8.815 -0.2677 -0.5336  0.5126
  353MOL0     C47527   1.118   4.541   8.866 -0.7243  0.5700  0.1396
  353MOL0     O47528   1.005   4.529   8.939  0.1129  0.0416 -0.3052
  353MOL0     C47529   1.006   4.584   9.073  0.1122  0.1479 -0.8267
  353MOL0     C47530   0.885   4.530   9.146  0.7178  0.0374  0.8041
  353MOL0     C47531   0.747   4.577   9.089 -0.6502  0.1037 -0.2661
  353MOL0     C47532   0.644   4.603   9.203 -0.0654 -0.1416 -0.7271
  353MOL0     C47533   0.569   4.478   9.261 -0.5230 -1.2088 -0.5951
  353MOL0     C47534   0.439   4.444   9.178 -0.4723  0.2903  0.7199
  353MOL0     C47535   0.364   4.319   9.241  0.6710 -0.1464  0.2276
  353MOL0     C47536   0.239   4.255   9.167 -0.2041  0.0552 -0.3480
  353MOL0     N47537   0.123   4.341   9.172  1.1927 -0.1327  0.2058
  353MOL0     C47538   0.065   4.414   9.060 -0.7636 -0.1648  0.3388
  353MOL0     C47539  -0.054   4.467   9.103 -0.1744 -0.6771  0.1626
  353MOL0     C47540  -0.152   4.538   9.019 -0.4480 -0.5470  0.0500
  353MOL0     C47541  -0.253   4.436   8.952 -0.2903 -0.2519 -0.6605
  353MOL0     C47542  -0.349   4.517   8.871  0.3553  0.0558 -0.0102
  353MOL0     C47543  -0.457   4.435   8.801 -1.0040 -0.1839  0.0565
  353MOL0     O47544  -0.514   4.525   8.699 -0.7970  0.5712  0.6823
  353MOL0     C47545  -0.637   4.559   8.736  0.5385 -0.4365 -0.1664
  353MOL0     C47546  -0.657   4.669   8.812  0.4368 -0.0374 -0.5365
  353MOL0     C47547  -0.784   4.713   8.839  1.4894 -0.5662 -0.2149
  353MOL0     C47548  -0.776   4.843   8.907 -0.0069  1.2714  0.3065
  353MOL0     C47549  -0.897   4.636   8.802 -0.4240 -0.9464 -0.1542
  353MOL0     C47550  -1.044   4.667   8.823  0.3904 -0.9752 -0.0397
  353MOL0     O47551  -1.077   4.764   8.912  0.1121 -0.0100  0.1469
  353MOL0     C47552  -1.207   4.785   8.942  0.8516  0.3484  0.1364
  353MOL0     C47553  -1.314   4.790   8.848  0.7485  1.1923 -0.3518
  353MOL0     C47554  -1.446   4.820   8.887  0.8327  0.7088 -0.3347
  353MOL0     C47555  -1.478   4.848   9.022  0.9997 -0.2186 -1.1017
  353MOL0     O47556  -1.596   4.885   9.064 -0.2805  0.0134 -0.5908
  353MOL0     C47557  -1.594   4.963   9.182  0.9549  0.2564  0.4849
  353MOL0     C47558  -1.735   4.984   9.232  0.1583 -0.7478  0.1900
  353MOL0     C47559  -1.724   5.059   9.366  0.5141 -0.1625  0.0893
  353MOL0     C47560  -1.852   5.052   9.462 -0.4240 -0.0460  0.7610
  353MOL0     C47561  -1.860   5.144   9.583 -1.0271  0.5265  0.6647
  353MOL0     C47562  -2.002   5.142   9.639 -0.3412  0.1424 -0.5854
  353MOL0     C47563  -2.004   5.216   9.776 -0.1842 -0.0827 -0.1862
  353MOL0     C47564  -2.130   5.302   9.799  0.2909 -0.1954 -0.1133
  353MOL0    Cl47565  -2.263   5.184   9.774 -0.0366 -0.1419  0.2632
  353MOL0     C47566  -1.369   4.842   9.112 -0.1517  0.3269 -0.1268
  353MOL0     C47567  -1.238   4.804   9.075 -0.2177  0.6397  0.3645
  353MOL0     O47568  -1.125   4.603   8.758  0.5245  0.6864  0.1166
  353MOL0     C47569  -0.875   4.507   8.745 -0.6254 -0.1951  0.4008
  353MOL0     C47570  -0.745   4.477   8.695  0.4489 -0.4834 -0.1024
  353MOL0     N47571  -0.063   4.426   9.229  1.0691 -0.2431 -0.6534
  353MOL0     N47572   0.028   4.348   9.267  0.3779 -0.0157  0.1600
  353MOL0     C47573   1.174   4.663   8.857  0.6182  0.5194  0.2995
  353MOL0     C47574   1.293   4.678   8.779 -0.2026 -0.4238 -0.7232
  353MOL0     C47575   1.702   4.522   8.599  0.3031  0.2621 -0.4316
  353MOL0     C47576   1.786   4.405   8.573 -0.3020 -0.0064  0.6698
  353MOL0     C47577   1.917   4.433   8.571 -0.0591  0.4610  0.3375
  353MOL0     C47578   1.975   4.558   8.592  1.4215 -0.0994  0.5016
  353MOL0     O47579   2.109   4.574   8.583  0.0679  0.1578 -0.0041
  353MOL0     C47580   2.191   4.510   8.682 -0.3665  0.6469 -0.0260
  353MOL0     C47581   2.327   4.586   8.704  0.4317  0.1870 -0.0250
  353MOL0     C47582   2.426   4.534   8.604  0.0216 -1.4512  0.7445
  353MOL0     C47583   2.574   4.584   8.619 -0.4350  0.4014 -0.0399
  353MOL0     C47584   2.621   4.665   8.511  0.9100 -0.6695 -0.1534
  353MOL0     C47585   2.667   4.737   8.425 -0.8036 -0.4285 -0.3618
  353MOL0     C47586   1.897   4.660   8.631 -0.7849 -0.6395  0.1266
  353MOL0     C47587   1.754   4.648   8.625  0.3616 -0.4391  0.1241
  353MOL0     H47588   1.341   4.346   8.706 -0.7733  0.4596 -1.1360
  353MOL0     H47589   1.124   4.337   8.841 -3.0153  1.3029  0.3645
  353MOL0     H47590   1.095   4.557   9.131 -1.2370 -1.3753  0.6572
  353MOL0     H47591   1.005   4.693   9.074 -4.4690  0.2993  0.2037
  353MOL0     H47592   0.880   4.421   9.130 -6.0132  0.2464 -1.7925
  353MOL0     H47593   0.903   4.553   9.251  2.6726  0.8338  0.3312
  353MOL0     H47594   0.760   4.669   9.032  0.8885  0.3626  0.4593
  353MOL0     H47595   0.714   4.501   9.018 -0.2728  0.5189 -0.8941
  353MOL0     H47596   0.694   4.661   9.282  0.9206  0.1051 -1.5128
  353MOL0     H47597   0.564   4.674   9.177 -1.4773 -0.1377  3.0206
  353MOL0     H47598   0.635   4.391   9.251  1.5966  0.1086  1.0693
  353MOL0     H47599   0.533   4.506   9.361  3.1944 -0.3423  0.6461
  353MOL0     H47600   0.379   4.535   9.163 -1.9607 -0.5770  1.2499
  353MOL0     H47601   0.458   4.419   9.073 -2.5579  1.2702  0.0507
  353MOL0     H47602   0.426   4.229   9.249  0.7274 -0.3795 -2.1393
  353MOL0     H47603   0.335   4.361   9.337 -0.1878 -0.2552  0.0271
  353MOL0     H47604   0.221   4.160   9.219 -0.2213 -0.3875 -1.1533
  353MOL0     H47605   0.252   4.223   9.064 -1.7365 -5.3129  0.8255
  353MOL0     H47606   0.115   4.433   8.965  2.9117 -2.3449  1.6326
  353MOL0     H47607  -0.216   4.591   9.090  0.5647 -1.3456  1.6120
  353MOL0     H47608  -0.106   4.606   8.946  2.2017 -2.5712 -0.3087
  353MOL0     H47609  -0.300   4.376   9.031  0.2599 -2.5520 -2.0002
  353MOL0     H47610  -0.195   4.371   8.887  1.8998  0.3035  0.6467
  353MOL0     H47611  -0.294   4.569   8.791 -0.0785  0.1942 -0.2190
  353MOL0     H47612  -0.390   4.600   8.927  2.2031  2.4560 -1.9638
  353MOL0     H47613  -0.526   4.386   8.870 -0.8018 -0.5026  0.0388
  353MOL0     H47614  -0.409   4.353   8.746 -1.7774 -1.6011  1.3995
  353MOL0     H47615  -0.568   4.727   8.834  1.8426 -2.3555  0.1808
  353MOL0     H47616  -0.761   4.920   8.831 -1.7938  3.4728  2.0470
  353MOL0     H47617  -0.871   4.850   8.961  0.0687  2.1784  0.3217
  353MOL0     H47618  -0.701   4.847   8.986 -0.8567 -0.7704  1.3019
  353MOL0     H47619  -1.279   4.779   8.746  0.0660  1.9063 -0.6746
  353MOL0     H47620  -1.529   4.840   8.819  0.7216  0.0803 -0.3891
  353MOL0     H47621  -1.543   4.916   9.266 -1.1903  1.4320  2.5534
  353MOL0     H47622  -1.549   5.063   9.171  0.5294  0.5379  1.2939
  353MOL0     H47623  -1.791   5.045   9.160 -0.3186  0.8210  1.8158
  353MOL0     H47624  -1.774   4.884   9.251 -0.8517  0.0168  2.5535
  353MOL0     H47625  -1.698   5.163   9.348  1.0497 -0.3690 -0.3402
  353MOL0     H47626  -1.647   5.015   9.430 -2.2714 -3.5016  1.4991
  353MOL0     H47627  -1.944   5.074   9.407 -0.2408  2.2767  1.2898
  353MOL0     H47628  -1.855   4.955   9.512  0.7531  0.5377  2.0253
  353MOL0     H47629  -1.827   5.244   9.555 -0.4555  0.3297  0.6296
  353MOL0     H47630  -1.794   5.110   9.664 -1.1842  2.1713  1.5181
  353MOL0     H47631  -2.068   5.187   9.564 -2.6063 -1.2980  0.4348
  353MOL0     H47632  -2.041   5.040   9.641  0.5390 -0.2221  2.7562
  353MOL0     H47633  -1.920   5.287   9.779  0.2667 -0.6164  0.2309
  353MOL0     H47634  -1.973   5.153   9.860  2.0157  1.0341 -0.0665
  353MOL0     H47635  -2.145   5.392   9.739  1.1839  0.2767  0.3447
  353MOL0     H47636  -2.125   5.339   9.902 -1.8404  1.0193 -0.3904
  353MOL0     H47637  -1.367   4.879   9.214  1.2846 -0.5832  0.1955
  353MOL0     H47638  -1.158   4.805   9.147  0.4959  2.3167 -0.3941
  353MOL0     H47639  -0.954   4.436   8.725  0.0151 -0.4807 -1.2322
  353MOL0     H47640  -0.728   4.377   8.657  0.1175 -0.4800 -0.2695
  353MOL0     H47641   1.135   4.758   8.892 -1.0394  1.3473 -3.2740
  353MOL0     H47642   1.339   4.776   8.774 -2.8705  1.0695  1.4272
  353MOL0     H47643   1.750   4.305   8.553 -0.5869 -0.2879  2.3755
  353MOL0     H47644   1.986   4.360   8.531  1.3843  2.6148 -1.3432
  353MOL0     H47645   2.151   4.499   8.783  0.1930  1.3713  0.2792
  353MOL0     H47646   2.215   4.412   8.640  0.3941 -0.2372  2.2815
  353MOL0     H47647   2.366   4.572   8.806  0.5025  0.3821 -0.0261
  353MOL0     H47648   2.324   4.694   8.690 -0.7341  0.2792  0.7310
  353MOL0     H47649   2.381   4.560   8.507 -1.7264  0.1410  1.9122
  353MOL0     H47650   2.428   4.427   8.627 -0.4925 -1.1604  2.2224
  353MOL0     H47651   2.643   4.499   8.614  0.2902  0.7844  2.2225
  353MOL0     H47652   2.590   4.635   8.714 -1.4834 -0.9976  0.9298
  353MOL0     H47653   2.697   4.809   8.352 -2.2344  1.0435  0.4330
  353MOL0     H47654   1.935   4.760   8.648 -0.2598 -0.5927 -1.1803
  353MOL0     H47655   1.695   4.738   8.639  1.4119  0.3826 -0.5011
  354MOL0     O47656   7.208   0.453   8.799 -0.5413  0.6355  0.6874
  354MOL0     C47657   7.314   0.527   8.794 -0.2754  0.2065  0.2049
  354MOL0     O47658   7.311   0.653   8.756 -0.6731 -0.6708  0.0196
  354MOL0     C47659   7.196   0.711   8.704  0.3413 -0.1090 -0.5760
  354MOL0     C47660   7.128   0.667   8.587 -0.1676 -0.0684 -0.6643
  354MOL0     C47661   7.014   0.725   8.537 -0.0118  1.1774  0.3658
  354MOL0     C47662   6.963   0.830   8.608  1.0537 -0.3626  0.5065
  354MOL0     O47663   6.853   0.908   8.566 -0.5533  0.0388 -0.4706
  354MOL0     C47664   6.803   0.895   8.431 -0.3280 -0.3637 -0.0419
  354MOL0     C47665   6.665   0.954   8.433 -0.4578  0.2591  0.5425
  354MOL0     C47666   6.586   0.902   8.551  0.5435 -0.3652  0.5466
  354MOL0     C47667   6.438   0.911   8.542 -0.1687 -0.6776 -0.4828
  354MOL0     C47668   6.359   0.813   8.449  0.1774  0.1771  0.6357
  354MOL0     C47669   6.203   0.833   8.471 -0.6813  0.4700  0.0847
  354MOL0     C47670   6.125   0.908   8.371 -0.8022 -0.8157  0.8889
  354MOL0     C47671   5.985   0.941   8.420  0.3726 -0.5226 -0.2013
  354MOL0     N47672   5.916   1.035   8.325  0.2302  0.2488  0.0849
  354MOL0     C47673   5.926   1.174   8.312  0.3545 -0.2969  0.3258
  354MOL0     C47674   5.841   1.205   8.207  0.1080 -0.3822  0.7507
  354MOL0     C47675   5.782   1.338   8.173 -0.0677 -0.6261  0.4852
  354MOL0     C47676   5.711   1.405   8.293  0.0532  0.5874 -0.1671
  354MOL0     C47677   5.619   1.290   8.359  0.0136  0.4395 -0.6982
  354MOL0     C47678   5.502   1.336   8.453  0.2720  0.5959 -0.2277
  354MOL0     O47679   5.423   1.421   8.366 -0.2771  0.6800 -0.4753
  354MOL0     C47680   5.297   1.454   8.399  0.1860  0.4676  0.1337
  354MOL0     C47681   5.240   1.457   8.523  0.2976 -0.0029 -0.6314
  354MOL0     C47682   5.108   1.481   8.545  1.2109 -0.0998 -1.0367
  354MOL0     C47683   5.075   1.471   8.695  0.6422  0.3029 -0.6979
  354MOL0     C47684   5.013   1.510   8.441 -1.0280 -0.1760  0.0271
  354MOL0     C47685   4.870   1.548   8.463 -0.3501  1.3159 -0.2794
  354MOL0     O47686   4.804   1.559   8.345  0.5599 -0.4126 -0.2978
  354MOL0     C47687   4.670   1.546   8.329 -1.5798 -0.3967 -0.0002
  354MOL0     C47688   4.634   1.503   8.207  0.1304 -0.1715  0.2238
  354MOL0     C47689   4.494   1.488   8.170 -0.2816  0.1567 -1.4538
  354MOL0     C47690   4.386   1.529   8.251  0.0286  0.0970 -0.3735
  354MOL0     O47691   4.252   1.517   8.233 -0.2145  0.3338 -0.4451
  354MOL0     C47692   4.193   1.449   8.119 -0.6703  0.5747  1.0398
  354MOL0     C47693   4.184   1.289   8.141  0.1112 -0.0481  0.6325
  354MOL0     C47694   4.076   1.247   8.241 -0.4314 -0.2591  0.0823
  354MOL0     C47695   4.070   1.095   8.260  0.4315 -0.5574  0.7093
  354MOL0     C47696   4.040   1.017   8.134 -0.0069 -0.7396 -0.4078
  354MOL0     C47697   4.002   0.871   8.174 -0.3646 -0.4758 -0.3657
  354MOL0     C47698   3.962   0.795   8.037 -0.2457  0.1620 -0.2656
  354MOL0     C47699   3.898   0.654   8.053  0.0621  0.6346  0.0060
  354MOL0    Cl47700   3.740   0.653   8.160 -0.9801  0.1182  0.1756
  354MOL0     C47701   4.430   1.580   8.375 -0.5790  1.0336 -1.9204
  354MOL0     C47702   4.562   1.585   8.417 -0.0479 -0.7532 -0.2767
  354MOL0     O47703   4.821   1.546   8.576  0.0489  0.5141  0.3069
  354MOL0     C47704   5.072   1.519   8.311  0.0096  0.3324 -0.9051
  354MOL0     C47705   5.205   1.479   8.286  0.3151  0.0728 -0.0898
  354MOL0     N47706   5.794   1.079   8.158  0.6091 -0.0836 -0.5387
  354MOL0     N47707   5.827   0.987   8.234  0.0600 -0.3322  1.0258
  354MOL0     C47708   7.016   0.871   8.730 -0.1288 -0.3291 -0.0703
  354MOL0     C47709   7.138   0.814   8.780 -0.0413  0.3721 -0.8717
  354MOL0     C47710   7.449   0.480   8.833 -0.9007  0.1811 -0.0511
  354MOL0     C47711   7.578   0.544   8.793  1.0243  0.0628 -0.0877
  354MOL0     C47712   7.702   0.493   8.826  0.3972 -0.1103  0.4667
  354MOL0     C47713   7.712   0.377   8.903 -0.0403 -0.2243 -0.9837
  354MOL0     O47714   7.836   0.338   8.935 -0.1649  0.3050  0.1847
  354MOL0     C47715   7.870   0.203   8.957  0.1343  0.0462  0.0199
  354MOL0     C47716   8.012   0.177   8.907  0.4122 -0.8692 -0.1989
  354MOL0     C47717   8.009   0.177   8.758 -0.5538 -0.4994 -0.3327
  354MOL0     C47718   8.153   0.143   8.712 -0.3193  0.2809 -0.2498
  354MOL0     C47719   8.177  -0.002   8.700  0.1513  0.7699 -0.3261
  354MOL0     C47720   8.190  -0.125   8.683  0.3308 -0.6445  0.5991
  354MOL0     C47721   7.594   0.314   8.945  0.1225 -0.1711  0.1181
  354MOL0     C47722   7.464   0.369   8.910 -0.1115 -0.0084 -0.0144
  354MOL0     H47723   7.173   0.575   8.551 -0.0852 -0.3914  0.2569
  354MOL0     H47724   6.977   0.673   8.449  3.0807 -0.4734 -0.1329
  354MOL0     H47725   6.870   0.947   8.363  0.7064 -1.0123  0.4692
  354MOL0     H47726   6.797   0.790   8.400 -2.4492 -0.9161  1.9288
  354MOL0     H47727   6.657   1.063   8.424  2.6880  0.3980 -4.7347
  354MOL0     H47728   6.621   0.931   8.335  2.1492 -2.1916 -0.1572
  354MOL0     H47729   6.606   0.795   8.566 -1.0457 -0.7985 -0.2066
  354MOL0     H47730   6.617   0.957   8.640  2.4991  1.1905 -0.9913
  354MOL0     H47731   6.399   0.891   8.642 -0.6568  0.0634 -0.5159
  354MOL0     H47732   6.408   1.012   8.511 -3.4256 -0.9320  1.4225
  354MOL0     H47733   6.382   0.804   8.343 -1.4818 -4.7544  0.4575
  354MOL0     H47734   6.388   0.712   8.481 -2.1317 -1.2682 -1.5306
  354MOL0     H47735   6.160   0.734   8.487 -0.8207  0.7879  2.0196
  354MOL0     H47736   6.196   0.899   8.558  0.9877  3.2960 -1.7629
  354MOL0     H47737   6.179   0.985   8.316  1.5641 -3.0698 -0.1803
  354MOL0     H47738   6.109   0.840   8.287 -0.2125 -1.5592  1.3648
  354MOL0     H47739   5.990   0.989   8.518  2.1360 -0.5351 -0.2587
  354MOL0     H47740   5.924   0.853   8.443  0.6170 -0.6923 -0.1937
  354MOL0     H47741   5.993   1.239   8.368  1.8984 -1.8849  0.4188
  354MOL0     H47742   5.865   1.405   8.148  0.2685 -1.9311 -2.2139
  354MOL0     H47743   5.715   1.326   8.088  0.0496  1.2668  0.0648
  354MOL0     H47744   5.646   1.489   8.264 -1.2894  0.3079  1.7874
  354MOL0     H47745   5.783   1.437   8.369  1.8878 -0.5559 -1.3571
  354MOL0     H47746   5.680   1.231   8.428 -2.4642  1.3324  2.5129
  354MOL0     H47747   5.573   1.232   8.279  1.0920 -1.5001  0.0256
  354MOL0     H47748   5.538   1.391   8.540  3.1464  0.1850 -1.0487
  354MOL0     H47749   5.455   1.247   8.495  0.3927  1.0161  0.8233
  354MOL0     H47750   5.306   1.440   8.607  0.5851  3.2798 -0.0497
  354MOL0     H47751   5.146   1.406   8.747  0.6859 -0.2779 -1.4625
  354MOL0     H47752   5.074   1.571   8.740  2.4778  0.6692 -1.3755
  354MOL0     H47753   4.981   1.418   8.708  1.0346 -0.5428 -1.1780
  354MOL0     H47754   4.706   1.485   8.129  1.2044  0.0840  1.1369
  354MOL0     H47755   4.475   1.434   8.078 -0.7214  0.3227 -1.4651
  354MOL0     H47756   4.093   1.485   8.092 -1.0839 -0.0259  1.7500
  354MOL0     H47757   4.251   1.465   8.027 -1.2251  1.2171  0.7966
  354MOL0     H47758   4.159   1.240   8.047  1.7028  1.2535 -0.5262
  354MOL0     H47759   4.279   1.247   8.175  0.7780 -1.6548 -2.8157
  354MOL0     H47760   3.981   1.279   8.197 -0.8830 -0.3835  0.9450
  354MOL0     H47761   4.091   1.288   8.341 -2.1810 -0.1386  0.3192
  354MOL0     H47762   4.168   1.067   8.299  0.6223  2.9642  3.3183
  354MOL0     H47763   4.003   1.070   8.343 -0.6914  1.9664  0.6705
  354MOL0     H47764   4.122   1.021   8.061 -0.7771 -1.4669 -1.3566
  354MOL0     H47765   3.958   1.072   8.087  0.0413  1.6391  2.0843
  354MOL0     H47766   4.089   0.827   8.224 -2.0544 -3.6999 -0.0052
  354MOL0     H47767   3.927   0.864   8.253  0.3065  0.0392  0.3295
  354MOL0     H47768   4.053   0.756   7.990  0.5845  0.5990  0.9365
  354MOL0     H47769   3.908   0.860   7.968  0.3118  1.4096  0.4284
  354MOL0     H47770   3.972   0.587   8.096 -0.8989 -0.4272  0.0613
  354MOL0     H47771   3.880   0.609   7.955  0.8648 -3.5734  1.6073
  354MOL0     H47772   4.352   1.611   8.443  0.7791  0.3422  0.0325
  354MOL0     H47773   4.576   1.622   8.518 -4.3766  0.3116  0.1107
  354MOL0     H47774   5.007   1.525   8.224 -1.6047 -2.3783  0.0026
  354MOL0     H47775   5.235   1.464   8.183  0.0926  1.8889 -0.4395
  354MOL0     H47776   6.977   0.946   8.797  0.7380 -1.1441  1.3888
  354MOL0     H47777   7.184   0.849   8.872 -0.7251  2.0581 -1.1256
  354MOL0     H47778   7.563   0.636   8.738  1.4927  0.4822  0.4723
  354MOL0     H47779   7.792   0.547   8.796  1.6450 -3.1200 -1.6827
  354MOL0     H47780   7.862   0.178   9.063  0.9478  2.1884  0.6482
  354MOL0     H47781   7.802   0.133   8.908  2.5621 -2.6113  0.2074
  354MOL0     H47782   8.037   0.077   8.945  1.5108 -0.2331  0.8253
  354MOL0     H47783   8.084   0.249   8.948  0.3571 -1.5218  1.0921
  354MOL0     H47784   7.980   0.281   8.740 -0.3458  0.1469  2.5258
  354MOL0     H47785   7.924   0.121   8.718 -2.0338  0.6543  1.0349
  354MOL0     H47786   8.232   0.182   8.777 -0.5052  1.6531 -0.8212
  354MOL0     H47787   8.159   0.176   8.608 -0.8353 -2.3021 -1.1747
  354MOL0     H47788   8.203  -0.232   8.679 -1.8166 -1.0745  2.6886
  354MOL0     H47789   7.602   0.225   9.007 -0.7590 -0.4226 -0.1192
  354MOL0     H47790   7.370   0.329   8.947 -0.8138  3.7705  2.8741
  355MOL0     O47791   4.502   7.676   7.675 -0.3777 -0.1766  0.0587
  355MOL0     C47792   4.590   7.765   7.672 -0.0509  0.8084  0.8814
  355MOL0     O47793   4.605   7.853   7.565  0.6607  0.6562  0.4469
  355MOL0     C47794   4.519   7.826   7.455 -1.1960 -0.6718 -0.3327
  355MOL0     C47795   4.552   7.716   7.371 -0.0710 -0.0041 -0.4707
  355MOL0     C47796   4.461   7.687   7.266 -0.5055 -1.3753  0.3788
  355MOL0     C47797   4.345   7.772   7.241 -0.8057  0.7256  0.2710
  355MOL0     O47798   4.258   7.730   7.144  1.1083  0.1206  0.4560
  355MOL0     C47799   4.210   7.832   7.055 -0.4545  0.1681 -0.3600
  355MOL0     C47800   4.111   7.782   6.951  0.4973 -0.0234  1.2236
  355MOL0     C47801   4.191   7.714   6.830  0.8443 -0.7090 -0.7089
  355MOL0     C47802   4.086   7.656   6.737 -0.7813 -0.4439  0.6306
  355MOL0     C47803   4.148   7.614   6.607  0.8231  0.2471  0.5959
  355MOL0     C47804   4.035   7.545   6.521 -0.1576  0.8147 -0.3872
  355MOL0     C47805   4.093   7.475   6.399  0.5671  0.3729  0.2454
  355MOL0     C47806   3.998   7.474   6.280 -1.2400  0.5367  0.0497
  355MOL0     N47807   3.981   7.595   6.190  0.2818 -0.0996  0.0435
  355MOL0     C47808   3.918   7.710   6.235  0.3776  1.3251 -0.4455
  355MOL0     C47809   3.950   7.796   6.136  0.6246 -0.3484  0.3680
  355MOL0     C47810   3.920   7.940   6.134 -0.4985 -0.2961 -0.1337
  355MOL0     C47811   4.039   8.035   6.140  0.2266  0.9137  0.5004
  355MOL0     C47812   4.007   8.169   6.073 -0.3653 -0.8549 -0.1284
  355MOL0     C47813   3.870   8.227   6.121  0.3309  0.2897 -0.4294
  355MOL0     O47814   3.875   8.226   6.270  0.0687 -0.2048  0.1371
  355MOL0     C47815   3.882   8.350   6.316  1.2734  0.2559 -0.9303
  355MOL0     C47816   3.999   8.410   6.347 -0.2364  0.4129 -0.4030
  355MOL0     C47817   4.006   8.523   6.424 -0.3460 -0.0127 -0.2586
  355MOL0     C47818   4.136   8.568   6.477  0.2477 -0.2635  0.4371
  355MOL0     C47819   3.892   8.604   6.450  0.4514 -0.1338  0.2767
  355MOL0     C47820   3.884   8.745   6.514 -0.1072  0.1191  0.2089
  355MOL0     O47821   3.770   8.779   6.570  0.3674  0.0264  0.3129
  355MOL0     C47822   3.769   8.900   6.621  0.0732  0.2775 -0.1665
  355MOL0     C47823   3.687   8.995   6.555  0.2603  0.2216 -0.3190
  355MOL0     C47824   3.679   9.127   6.600  0.9705 -0.2372 -0.1445
  355MOL0     C47825   3.733   9.159   6.723 -1.1400  0.1152 -0.2498
  355MOL0     O47826   3.719   9.288   6.772  0.0005  0.2269 -0.1223
  355MOL0     C47827   3.717   9.326   6.909  0.1418 -0.2949  0.3179
  355MOL0     C47828   3.594   9.261   6.987  0.4830 -0.3761 -0.3250
  355MOL0     C47829   3.614   9.286   7.139 -0.8462 -0.7829  0.3201
  355MOL0     C47830   3.494   9.245   7.227  1.1249  0.4930  0.5021
  355MOL0     C47831   3.522   9.267   7.375  0.2929  0.6829 -0.3779
  355MOL0     C47832   3.406   9.230   7.469  0.6081  0.2899 -0.0497
  355MOL0     C47833   3.361   9.085   7.476  0.2148  0.4669  0.5121
  355MOL0     C47834   3.210   9.076   7.504  0.0517  0.1307 -0.2800
  355MOL0    Cl47835   3.169   9.166   7.649 -0.3577  0.1273  0.1154
  355MOL0     C47836   3.816   9.072   6.782 -0.0201 -0.9737 -0.4603
  355MOL0     C47837   3.839   8.940   6.734 -0.4855 -0.5989 -0.3273
  355MOL0     O47838   3.984   8.814   6.493  0.5156  0.0361 -0.4406
  355MOL0     C47839   3.773   8.545   6.411 -0.6003  0.2722  0.0162
  355MOL0     C47840   3.764   8.423   6.348  0.1935  0.4281 -0.3042
  355MOL0     N47841   4.006   7.727   6.032  0.1737  0.4089 -0.1248
  355MOL0     N47842   4.045   7.611   6.068 -0.4009 -0.6949 -1.0541
  355MOL0     C47843   4.329   7.891   7.320 -0.0702  0.4803 -0.5894
  355MOL0     C47844   4.419   7.921   7.426  0.3357  0.2396  0.1208
  355MOL0     C47845   4.689   7.771   7.782  0.6201  0.4758 -0.4364
  355MOL0     C47846   4.661   7.704   7.902 -0.0029  0.0067 -0.5193
  355MOL0     C47847   4.750   7.706   8.010  0.5037  0.3145  0.7052
  355MOL0     C47848   4.874   7.770   8.009 -1.0724 -0.2877  0.2899
  355MOL0     O47849   4.951   7.768   8.121 -0.0776  0.4406 -0.0759
  355MOL0     C47850   5.087   7.774   8.090 -0.9102 -0.3397 -0.1362
  355MOL0     C47851   5.141   7.645   8.013  0.2388 -0.6809  0.1055
  355MOL0     C47852   5.289   7.625   8.028  0.1091 -0.2267  0.6882
  355MOL0     C47853   5.372   7.739   7.974 -0.3220  0.4139  0.4694
  355MOL0     C47854   5.349   7.770   7.828  0.2744  0.8765 -0.1493
  355MOL0     C47855   5.327   7.782   7.710  0.3869  0.6221 -0.1285
  355MOL0     C47856   4.902   7.844   7.888  0.5811  0.4165  0.1010
  355MOL0     C47857   4.804   7.842   7.783  0.3520  0.6674 -0.3232
  355MOL0     H47858   4.643   7.658   7.379  0.0928  0.1283 -1.3094
  355MOL0     H47859   4.484   7.597   7.210 -3.0044 -3.1953  2.0046
  355MOL0     H47860   4.151   7.907   7.109 -0.6387  0.6962 -1.2716
  355MOL0     H47861   4.297   7.882   7.012  0.3645 -3.1002 -2.9123
  355MOL0     H47862   4.046   7.705   6.994  1.2514 -2.5912 -1.8616
  355MOL0     H47863   4.061   7.873   6.919 -0.5722  1.0482  5.3640
  355MOL0     H47864   4.242   7.798   6.782 -0.5007  1.2398  1.0436
  355MOL0     H47865   4.262   7.643   6.873  1.0827 -0.8679 -1.3677
  355MOL0     H47866   4.033   7.581   6.797  0.2111  0.0087  2.1216
  355MOL0     H47867   4.015   7.735   6.710 -2.5141 -2.1005  0.1476
  355MOL0     H47868   4.178   7.694   6.538 -2.0401  0.1347 -0.9250
  355MOL0     H47869   4.229   7.543   6.626  1.9534  1.4816  0.5389
  355MOL0     H47870   3.989   7.473   6.591  1.0323  1.8382  1.5428
  355MOL0     H47871   3.957   7.616   6.493 -0.7832  0.0252 -0.6823
  355MOL0     H47872   4.184   7.527   6.368 -0.8921  2.0592 -1.4002
  355MOL0     H47873   4.130   7.378   6.435  0.3434  0.7222  1.4899
  355MOL0     H47874   3.899   7.440   6.313 -1.5029 -1.0369 -2.1515
  355MOL0     H47875   4.044   7.405   6.209  0.1881  0.5789  0.8863
  355MOL0     H47876   3.859   7.718   6.325 -1.0398 -1.6911 -0.9829
  355MOL0     H47877   3.854   7.953   6.048  0.9929  0.6218 -1.1944
  355MOL0     H47878   3.869   7.961   6.229 -1.4376  0.2055 -0.7381
  355MOL0     H47879   4.114   7.991   6.074 -0.3745  2.1629 -1.0974
  355MOL0     H47880   4.088   8.054   6.236 -0.5696 -1.5670  1.4677
  355MOL0     H47881   4.008   8.152   5.965 -3.3665 -2.0524 -0.0788
  355MOL0     H47882   4.086   8.237   6.106 -0.3071 -2.4375  3.4321
  355MOL0     H47883   3.782   8.170   6.090  0.8462 -1.8003  1.6635
  355MOL0     H47884   3.859   8.327   6.079 -0.9380  1.2621  2.0533
  355MOL0     H47885   4.087   8.358   6.313  1.0887  2.3833 -0.1729
  355MOL0     H47886   4.210   8.490   6.458  1.9810  1.8740 -2.4506
  355MOL0     H47887   4.168   8.653   6.416  0.0999  0.2047  1.0105
  355MOL0     H47888   4.136   8.598   6.582 -0.5627 -0.9428  0.6427
  355MOL0     H47889   3.624   8.963   6.472 -1.4859  2.2401  0.1432
  355MOL0     H47890   3.605   9.197   6.563 -2.4843 -0.6743  4.9480
  355MOL0     H47891   3.813   9.297   6.951 -0.3589 -0.1045  1.6640
  355MOL0     H47892   3.708   9.435   6.913 -1.0909  0.1355 -5.2502
  355MOL0     H47893   3.510   9.329   6.969 -0.2356 -0.4966  2.1152
  355MOL0     H47894   3.575   9.154   6.978 -1.0003 -0.2820  1.1821
  355MOL0     H47895   3.634   9.391   7.163 -0.7782 -0.7157 -0.0335
  355MOL0     H47896   3.696   9.219   7.169  1.1723  1.6715  0.6037
  355MOL0     H47897   3.403   9.299   7.199  0.0896 -0.6894  1.4705
  355MOL0     H47898   3.482   9.137   7.215  0.9761  0.5753 -0.1304
  355MOL0     H47899   3.540   9.372   7.400 -0.9486  0.3716  2.2458
  355MOL0     H47900   3.610   9.207   7.403 -1.4741 -0.3342  3.8075
  355MOL0     H47901   3.441   9.259   7.569  1.2798 -1.8726  0.4094
  355MOL0     H47902   3.317   9.292   7.455 -1.0248 -1.9998 -0.3678
  355MOL0     H47903   3.419   9.034   7.553  0.9648  0.6217  0.0724
  355MOL0     H47904   3.380   9.028   7.385 -2.9802 -1.5000  0.9390
  355MOL0     H47905   3.187   8.971   7.526 -2.0412  0.6383  0.1783
  355MOL0     H47906   3.156   9.117   7.419 -2.4198 -3.3861 -0.5761
  355MOL0     H47907   3.863   9.109   6.873  0.6739 -0.2249 -1.0977
  355MOL0     H47908   3.900   8.867   6.785  1.2624  2.4516  2.2662
  355MOL0     H47909   3.683   8.595   6.445 -0.6485 -2.1169  4.0400
  355MOL0     H47910   3.665   8.387   6.323  1.3985 -3.2811 -0.3518
  355MOL0     H47911   4.233   7.941   7.307 -0.0431  0.6438 -0.1645
  355MOL0     H47912   4.398   8.005   7.490  3.1635  0.9598  0.2336
  355MOL0     H47913   4.568   7.654   7.925 -0.0195  1.1087  2.2980
  355MOL0     H47914   4.716   7.667   8.106 -2.5770  1.1021  0.0512
  355MOL0     H47915   5.108   7.869   8.040  1.5422  0.0241  1.3948
  355MOL0     H47916   5.138   7.779   8.187 -0.9115  0.5755 -0.1721
  355MOL0     H47917   5.123   7.641   7.905  1.0842 -2.1961 -0.0168
  355MOL0     H47918   5.094   7.550   8.043 -0.5914 -1.3404 -2.9149
  355MOL0     H47919   5.322   7.536   7.974  0.2940 -0.4525  1.1699
  355MOL0     H47920   5.307   7.606   8.134 -1.8233 -0.1425  1.0669
  355MOL0     H47921   5.477   7.713   7.994 -0.2680  0.0954 -0.2021
  355MOL0     H47922   5.360   7.831   8.032  3.1573  0.5217  1.2639
  355MOL0     H47923   5.293   7.805   7.611  3.7000  0.9454 -1.2937
  355MOL0     H47924   4.984   7.910   7.862 -0.5139  1.1766 -1.6065
  355MOL0     H47925   4.835   7.891   7.692 -1.1240 -1.1106 -1.8610
  356MOL0     O47926   1.103   8.556   9.755  0.6731 -0.1151 -0.2027
  356MOL0     C47927   1.160   8.445   9.748 -0.6561  0.6358  0.2591
  356MOL0     O47928   1.296   8.417   9.772 -0.3089 -0.0923 -0.4262
  356MOL0     C47929   1.365   8.520   9.830 -0.1707 -0.6598 -0.0420
  356MOL0     C47930   1.344   8.558   9.964 -0.7841 -0.3700  0.0424
  356MOL0     C47931   1.414   8.663  10.026 -0.1183  0.8552  0.4045
  356MOL0     C47932   1.510   8.734   9.958 -0.5177 -0.1653  0.2583
  356MOL0     O47933   1.572   8.835  10.013 -0.2044 -0.1781  0.2057
  356MOL0     C47934   1.548   8.965   9.949  0.4217  0.0953  0.1857
  356MOL0     C47935   1.683   9.037   9.984  0.5453 -0.1772 -0.3115
  356MOL0     C47936   1.799   9.001   9.889 -0.5354  0.1484  0.1639
  356MOL0     C47937   1.932   9.018   9.962 -0.1996 -0.3114  0.5804
  356MOL0     C47938   2.055   8.983   9.865  0.5438 -0.6127 -0.6192
  356MOL0     C47939   2.191   9.009   9.932  0.2922  0.4577 -0.2375
  356MOL0     C47940   2.271   8.875   9.946 -0.2679  0.1729  0.0896
  356MOL0     C47941   2.347   8.838   9.811  1.0772 -0.3688  0.2067
  356MOL0     N47942   2.370   8.696   9.802 -0.3750  0.7300 -0.0429
  356MOL0     C47943   2.475   8.628   9.867 -0.5525  0.5955  1.3080
  356MOL0     C47944   2.464   8.497   9.824 -0.5093  0.5137  0.0300
  356MOL0     C47945   2.557   8.384   9.852 -0.2212 -0.3593  0.2623
  356MOL0     C47946   2.490   8.259   9.904  1.4726  0.7936  0.0259
  356MOL0     C47947   2.563   8.127   9.869 -0.1335  0.1446  0.0128
  356MOL0     C47948   2.621   8.058   9.987  0.6047  1.0464  0.5165
  356MOL0     O47949   2.701   7.947   9.939  0.1574  0.6689  0.0717
  356MOL0     C47950   2.780   7.868  10.018 -0.0458 -0.3604  0.4485
  356MOL0     C47951   2.776   7.864  10.157 -0.2092  0.1536 -0.6797
  356MOL0     C47952   2.869   7.796  10.238  0.6058  0.2166  0.5016
  356MOL0     C47953   2.833   7.795  10.384  0.7162  0.7281  0.4477
  356MOL0     C47954   2.964   7.717  10.170 -0.2301  0.2610 -0.0168
  356MOL0     C47955   3.069   7.634  10.235  0.8496  0.2178  0.7372
  356MOL0     O47956   3.168   7.570  10.163  0.2627 -0.7078  0.4418
  356MOL0     C47957   3.262   7.483  10.211 -0.8634 -0.9485  1.0647
  356MOL0     C47958   3.360   7.448  10.115  0.4444 -0.5381  0.7028
  356MOL0     C47959   3.459   7.358  10.149 -0.6420 -0.6536 -0.4684
  356MOL0     C47960   3.469   7.301  10.279  0.1768 -0.0899  0.4668
  356MOL0     O47961   3.570   7.216  10.321 -0.2563  0.0229 -0.4278
  356MOL0     C47962   3.695   7.273  10.279  0.1337 -0.1888 -0.2009
  356MOL0     C47963   3.808   7.216  10.353  0.3271  0.1442  0.0133
  356MOL0     C47964   3.933   7.306  10.367 -0.4453 -0.1447 -0.2169
  356MOL0     C47965   4.054   7.233  10.420 -0.1355 -1.0422  0.5600
  356MOL0     C47966   4.170   7.328  10.419 -0.6309  0.4405  0.2994
  356MOL0     C47967   4.301   7.253  10.470  0.3713 -0.8797  0.1226
  356MOL0     C47968   4.428   7.341  10.468 -0.2619  0.2256  0.0644
  356MOL0     C47969   4.547   7.270  10.534 -0.5580 -0.2175 -0.2116
  356MOL0    Cl47970   4.682   7.405  10.559  0.1921  0.4143  0.2073
  356MOL0     C47971   3.364   7.333  10.370  0.0027 -0.0970 -0.2420
  356MOL0     C47972   3.259   7.426  10.337 -0.3632 -0.6207 -0.1536
  356MOL0     O47973   3.058   7.634  10.352  0.6489 -0.1827 -0.5401
  356MOL0     C47974   2.959   7.707  10.029  0.3002  0.0179  0.3629
  356MOL0     C47975   2.868   7.779   9.954 -0.3350  0.9763  0.2143
  356MOL0     N47976   2.344   8.487   9.753  0.1109  0.1713  0.1156
  356MOL0     N47977   2.286   8.598   9.753 -0.3593 -0.0418 -0.0892
  356MOL0     C47978   1.541   8.691   9.825  0.2132  0.6684  0.4452
  356MOL0     C47979   1.476   8.585   9.765 -0.2948  0.6376 -0.0615
  356MOL0     C47980   1.073   8.334   9.698 -0.2075  0.5613 -0.6551
  356MOL0     C47981   0.954   8.307   9.751 -0.3895 -0.7971  0.6217
  356MOL0     C47982   0.866   8.222   9.695  0.2556  1.1986  0.2129
  356MOL0     C47983   0.903   8.127   9.599  0.0638 -0.3257 -0.0303
  356MOL0     O47984   0.811   8.039   9.555 -0.2328 -0.9802  0.3720
  356MOL0     C47985   0.708   8.083   9.465 -0.6100 -0.2988  0.2287
  356MOL0     C47986   0.743   8.040   9.320 -0.2057 -0.1033 -0.5837
  356MOL0     C47987   0.651   8.104   9.213  0.9296 -0.5496 -0.8705
  356MOL0     C47988   0.716   8.224   9.144  0.4740 -0.1958 -0.1801
  356MOL0     C47989   0.621   8.308   9.080  0.3914 -0.6712 -0.2527
  356MOL0     C47990   0.523   8.373   9.035 -0.2053  0.9719  0.6286
  356MOL0     C47991   1.033   8.137   9.549 -0.4578 -0.6907  0.5531
  356MOL0     C47992   1.112   8.247   9.589 -0.2728 -0.1715 -1.2181
  356MOL0     H47993   1.269   8.520  10.033  0.6244  1.2428  2.6348
  356MOL0     H47994   1.386   8.693  10.126  1.3816 -0.1628  1.1757
  356MOL0     H47995   1.534   8.948   9.842  3.5551  0.7433 -0.4270
  356MOL0     H47996   1.465   9.022   9.990  0.2158 -0.0220 -0.0668
  356MOL0     H47997   1.669   9.146   9.987 -1.0997 -0.3910  1.5593
  356MOL0     H47998   1.702   9.015  10.090  4.6941 -0.9737 -1.0372
  356MOL0     H47999   1.800   8.898   9.852  2.7501  0.5140 -1.0695
  356MOL0     H48000   1.797   9.071   9.805  1.0658 -1.0322 -0.9194
  356MOL0     H48001   1.951   9.118  10.002 -2.4829 -0.7437  3.0606
  356MOL0     H48002   1.935   8.956  10.052  0.7144  0.8740  1.4074
  356MOL0     H48003   2.037   8.877   9.847 -0.6974 -0.2014 -1.9957
  356MOL0     H48004   2.046   9.047   9.777 -3.1592 -1.6595 -1.1836
  356MOL0     H48005   2.249   9.079   9.871 -0.2349 -0.2135 -1.5748
  356MOL0     H48006   2.183   9.043  10.035  1.3361 -3.3833  1.2773
  356MOL0     H48007   2.348   8.881  10.024  0.1307 -3.8623  0.2015
  356MOL0     H48008   2.214   8.792   9.988  0.3319  0.1223  0.8257
  356MOL0     H48009   2.447   8.883   9.821 -0.1810  2.2868  1.7992
  356MOL0     H48010   2.299   8.871   9.719  2.7279 -1.2223 -1.0319
  356MOL0     H48011   2.546   8.667   9.938 -2.8098 -1.3887  4.9827
  356MOL0     H48012   2.609   8.347   9.763 -0.2839 -1.4593  0.6672
  356MOL0     H48013   2.640   8.414   9.916  2.2520  0.3487 -2.9895
  356MOL0     H48014   2.388   8.252   9.865  1.1026  1.8257  0.7609
  356MOL0     H48015   2.484   8.268  10.013  2.4145  0.6234  0.0991
  356MOL0     H48016   2.659   8.153   9.822  0.2821  0.9200  1.2297
  356MOL0     H48017   2.500   8.061   9.810  0.4303  1.2066 -1.8592
  356MOL0     H48018   2.536   8.012  10.040  1.0075 -2.2431 -1.3872
  356MOL0     H48019   2.684   8.119  10.052  2.2886 -0.0023 -0.0495
  356MOL0     H48020   2.705   7.928  10.208 -0.0023 -0.0181 -0.1687
  356MOL0     H48021   2.809   7.692  10.409  0.3304  0.4662 -0.9449
  356MOL0     H48022   2.915   7.818  10.454  2.7909 -0.8155 -1.3577
  356MOL0     H48023   2.749   7.862  10.408 -0.2970 -0.5728  0.6539
  356MOL0     H48024   3.336   7.481  10.014 -2.8051 -1.2052  1.1206
  356MOL0     H48025   3.537   7.328  10.079  0.8138 -0.3631  0.9622
  356MOL0     H48026   3.714   7.256  10.172  2.9053 -4.0799  0.6629
  356MOL0     H48027   3.701   7.379  10.305  2.4818 -0.2534 -0.2941
  356MOL0     H48028   3.760   7.191  10.448  0.6803 -1.2766 -0.1529
  356MOL0     H48029   3.849   7.129  10.300  1.6482  1.9063 -2.0481
  356MOL0     H48030   3.906   7.385  10.438  0.4513  0.4840 -0.5528
  356MOL0     H48031   3.952   7.364  10.276 -1.4006  1.8843  0.8064
  356MOL0     H48032   4.033   7.177  10.511  0.8392 -1.3739  0.5829
  356MOL0     H48033   4.078   7.153  10.349 -1.2858  0.5483 -1.7792
  356MOL0     H48034   4.155   7.414  10.484  3.0757  1.2626  0.2729
  356MOL0     H48035   4.184   7.356  10.314 -0.0972  0.5529  0.3966
  356MOL0     H48036   4.295   7.224  10.575  2.5899 -2.1142 -0.0440
  356MOL0     H48037   4.308   7.165  10.405 -2.4654 -1.5253  0.5457
  356MOL0     H48038   4.401   7.425  10.534 -0.8079 -0.1732  0.3593
  356MOL0     H48039   4.444   7.371  10.364  1.3730  1.5780  0.6547
  356MOL0     H48040   4.577   7.186  10.470  2.5413  1.9324 -1.8397
  356MOL0     H48041   4.529   7.222  10.631  0.0551 -1.1706 -0.5478
  356MOL0     H48042   3.372   7.283  10.466  2.8254  1.7176  0.6021
  356MOL0     H48043   3.199   7.443  10.426  2.5870 -3.0837  2.5785
  356MOL0     H48044   3.027   7.638   9.979 -2.9619 -1.1114 -2.9326
  356MOL0     H48045   2.858   7.757   9.848 -0.1637 -2.7247  0.8234
  356MOL0     H48046   1.620   8.741   9.770  0.5687 -2.3836 -2.1142
  356MOL0     H48047   1.511   8.551   9.668  0.3519 -1.4015  0.8217
  356MOL0     H48048   0.935   8.370   9.838  2.3074 -0.5880  1.1637
  356MOL0     H48049   0.765   8.230   9.736 -0.8159 -2.4028 -1.3348
  356MOL0     H48050   0.616   8.032   9.495 -1.1401  0.3236 -0.3008
  356MOL0     H48051   0.701   8.192   9.466  1.6531 -0.1084  1.2027
  356MOL0     H48052   0.740   7.931   9.323  3.2483 -0.3022 -0.2850
  356MOL0     H48053   0.851   8.053   9.308  0.0926 -1.4259  0.4841
  356MOL0     H48054   0.550   8.127   9.248  1.6169  2.0622 -0.3943
  356MOL0     H48055   0.640   8.027   9.136 -0.0955 -0.4428 -0.8511
  356MOL0     H48056   0.775   8.193   9.057 -0.4161 -0.0765 -0.8466
  356MOL0     H48057   0.784   8.282   9.206  0.0106  0.7780 -0.5512
  356MOL0     H48058   0.433   8.428   9.013 -0.2636  1.3184  1.6898
  356MOL0     H48059   1.068   8.062   9.479 -1.4877 -1.1201  0.4733
  356MOL0     H48060   1.216   8.248   9.558 -0.0033  2.8637 -0.5368
  357MOL0     O48061   0.354   2.066   3.377 -0.4405 -0.0171 -0.1240
  357MOL0     C48062   0.306   1.983   3.450  0.8583 -0.0957 -0.8950
  357MOL0     O48063   0.357   1.949   3.573 -0.2584 -0.4819  0.0397
  357MOL0     C48064   0.428   2.032   3.645 -0.0950 -0.9787 -0.7446
  357MOL0     C48065   0.419   2.177   3.645 -0.0133  0.6748  0.1064
  357MOL0     C48066   0.502   2.266   3.720  0.5665 -0.1725  0.1699
  357MOL0     C48067   0.624   2.201   3.784  0.0096 -0.0131  0.4390
  357MOL0     O48068   0.738   2.267   3.825  0.1584 -0.0207 -0.1664
  357MOL0     C48069   0.745   2.413   3.812  0.5079 -0.2371  0.4034
  357MOL0     C48070   0.873   2.465   3.879 -0.8137  0.0081  0.5852
  357MOL0     C48071   0.989   2.438   3.778  0.0369  0.9622 -0.2810
  357MOL0     C48072   1.101   2.353   3.844 -0.8003 -0.6235 -0.3664
  357MOL0     C48073   1.229   2.321   3.768  0.3206  0.2909 -0.0966
  357MOL0     C48074   1.314   2.220   3.843 -0.0868  0.1712  1.4386
  357MOL0     C48075   1.399   2.134   3.747 -0.1529 -0.2010 -0.0357
  357MOL0     C48076   1.512   2.207   3.668 -0.2405  0.1312  0.2351
  357MOL0     N48077   1.622   2.258   3.759 -0.6673  0.6231  0.4582
  357MOL0     C48078   1.710   2.181   3.830  0.1287  0.0693 -0.1824
  357MOL0     C48079   1.777   2.272   3.904 -0.0319  1.0271  0.9408
  357MOL0     C48080   1.890   2.254   3.997  0.5961 -0.7673 -0.3327
  357MOL0     C48081   1.843   2.298   4.143 -1.4525  0.3471  0.3428
  357MOL0     C48082   1.838   2.168   4.226 -1.0960  0.8901 -1.4108
  357MOL0     C48083   1.861   2.192   4.374  0.5350  0.1266 -0.2379
  357MOL0     O48084   1.818   2.076   4.448  0.5131 -0.8791 -0.3014
  357MOL0     C48085   1.826   2.092   4.583 -0.4994  0.4604 -0.8481
  357MOL0     C48086   1.945   2.100   4.656 -0.1490 -0.4416  0.9260
  357MOL0     C48087   1.948   2.102   4.799  0.2364  0.2863 -0.1364
  357MOL0     C48088   2.086   2.116   4.846  0.1801  0.2913 -0.7527
  357MOL0     C48089   1.832   2.098   4.876  0.3282 -0.0837 -0.0430
  357MOL0     C48090   1.833   2.105   5.023  0.0565 -0.4009 -0.7767
  357MOL0     O48091   1.723   2.159   5.081  0.3865  0.5559 -0.5751
  357MOL0     C48092   1.704   2.162   5.219 -0.5565  0.9346 -0.5060
  357MOL0     C48093   1.715   2.288   5.276 -0.6967 -0.2167 -0.0047
  357MOL0     C48094   1.690   2.303   5.416 -0.0463  0.7912  0.2572
  357MOL0     C48095   1.661   2.187   5.498 -0.0662 -0.2518  1.2344
  357MOL0     O48096   1.632   2.214   5.629 -0.2434  0.0950 -0.9285
  357MOL0     C48097   1.547   2.130   5.706 -0.8471 -0.6609  0.1406
  357MOL0     C48098   1.397   2.178   5.703 -1.0819 -0.0951 -0.4256
  357MOL0     C48099   1.298   2.066   5.738  0.1784 -1.5682 -0.4497
  357MOL0     C48100   1.155   2.110   5.774 -0.5821 -0.3894 -1.2354
  357MOL0     C48101   1.075   1.989   5.830 -0.5552 -0.3597  0.0011
  357MOL0     C48102   0.934   2.042   5.867 -0.4059 -0.3391  0.2321
  357MOL0     C48103   0.831   1.930   5.895  0.1945  0.2158  0.1985
  357MOL0     C48104   0.857   1.861   6.032 -0.2357  0.4361  0.2319
  357MOL0    Cl48105   0.727   1.729   6.045  0.1428  0.4913  0.5122
  357MOL0     C48106   1.652   2.062   5.436 -0.5634 -0.2745  0.2324
  357MOL0     C48107   1.680   2.053   5.299 -0.1622  0.0628 -0.0112
  357MOL0     O48108   1.918   2.043   5.087 -0.0128  0.2327  0.0339
  357MOL0     C48109   1.708   2.096   4.808  0.0110  0.0479  1.1042
  357MOL0     C48110   1.713   2.087   4.669 -1.1455 -0.3957 -0.7674
  357MOL0     N48111   1.735   2.396   3.872 -0.0483 -0.0586  0.0854
  357MOL0     N48112   1.636   2.383   3.789  1.0268 -0.6145 -0.7048
  357MOL0     C48113   0.627   2.063   3.785 -0.0581  0.6369  0.0917
  357MOL0     C48114   0.533   1.983   3.724 -0.0915  0.2906  1.2149
  357MOL0     C48115   0.194   1.896   3.408  0.5978 -0.0669  1.1860
  357MOL0     C48116   0.134   1.798   3.492  0.1801  1.1418 -0.7810
  357MOL0     C48117   0.028   1.720   3.442 -0.0145 -0.1334 -0.6872
  357MOL0     C48118  -0.025   1.732   3.309 -0.4959  0.4987  0.3694
  357MOL0     O48119  -0.133   1.661   3.278 -0.3808  0.2420  0.5663
  357MOL0     C48120  -0.095   1.526   3.244 -0.6163  1.0637  0.2844
  357MOL0     C48121  -0.075   1.502   3.086  0.3611 -0.2012 -0.6555
  357MOL0     C48122  -0.042   1.357   3.042 -0.4275 -0.3272 -0.6439
  357MOL0     C48123  -0.162   1.288   2.974 -0.5243  0.2042 -1.7122
  357MOL0     C48124  -0.112   1.155   2.936  0.2142 -0.0506 -0.5173
  357MOL0     C48125  -0.066   1.058   2.894  0.3510 -0.1458  0.6369
  357MOL0     C48126   0.043   1.819   3.221  0.0244 -0.3424  0.4615
  357MOL0     C48127   0.143   1.907   3.271  0.2853  0.4804 -0.4290
  357MOL0     H48128   0.330   2.215   3.596 -1.6240 -1.6609  1.0507
  357MOL0     H48129   0.495   2.374   3.705  0.2684  0.0721  1.9192
  357MOL0     H48130   0.726   2.447   3.710  2.3918  3.0870  0.9966
  357MOL0     H48131   0.672   2.462   3.876  1.3200  1.8581 -0.1811
  357MOL0     H48132   0.876   2.570   3.907 -1.7101  0.0825  0.4080
  357MOL0     H48133   0.900   2.404   3.966  1.5847 -0.5911 -0.4743
  357MOL0     H48134   0.954   2.387   3.688 -5.1125 -0.1383  1.9995
  357MOL0     H48135   1.033   2.535   3.752 -0.3064  1.1939 -0.0090
  357MOL0     H48136   1.134   2.396   3.939  1.3805  3.4142 -2.6363
  357MOL0     H48137   1.050   2.258   3.860  0.2142 -0.8957  1.6024
  357MOL0     H48138   1.192   2.281   3.673 -0.8055 -1.3838  0.9923
  357MOL0     H48139   1.294   2.408   3.751  1.5489 -0.2337  1.6642
  357MOL0     H48140   1.373   2.267   3.922  0.9783  1.3045  0.0289
  357MOL0     H48141   1.259   2.140   3.894 -1.4031  0.1532  0.0720
  357MOL0     H48142   1.452   2.065   3.814  0.0597 -0.3427 -0.3460
  357MOL0     H48143   1.345   2.075   3.673  1.8793 -2.1288 -0.1114
  357MOL0     H48144   1.473   2.288   3.606 -4.3641 -1.6398  0.1810
  357MOL0     H48145   1.556   2.125   3.610 -3.0140 -1.3244  0.0280
  357MOL0     H48146   1.720   2.073   3.828 -0.3947 -0.0041  0.5003
  357MOL0     H48147   1.935   2.154   3.994  0.6652 -0.7241 -1.0914
  357MOL0     H48148   1.965   2.321   3.955 -1.9260  2.5984  0.1698
  357MOL0     H48149   1.749   2.352   4.156 -1.1130  0.3871  3.2413
  357MOL0     H48150   1.921   2.367   4.177  0.2562 -1.2518 -0.1444
  357MOL0     H48151   1.919   2.101   4.194  1.7391  1.1321  4.0653
  357MOL0     H48152   1.751   2.102   4.222 -0.7802  0.0269  2.1523
  357MOL0     H48153   1.800   2.277   4.405 -1.7715 -0.5558 -2.5077
  357MOL0     H48154   1.964   2.221   4.398  0.5162  0.2369 -0.2904
  357MOL0     H48155   2.026   2.092   4.585 -2.1066  0.0261 -1.5068
  357MOL0     H48156   2.144   2.165   4.768 -2.4292  2.8837 -1.2287
  357MOL0     H48157   2.099   2.188   4.927 -0.9759 -0.8244  0.4933
  357MOL0     H48158   2.133   2.021   4.876 -1.6606 -0.1573  0.9101
  357MOL0     H48159   1.751   2.376   5.223 -0.9012 -1.1016 -1.6901
  357MOL0     H48160   1.688   2.397   5.469 -1.9414  2.0926 -1.9307
  357MOL0     H48161   1.560   2.026   5.676 -1.8746 -0.5790 -0.6469
  357MOL0     H48162   1.584   2.120   5.809  0.4794 -1.6084 -0.3977
  357MOL0     H48163   1.386   2.256   5.779 -2.1162  0.4936 -1.1482
  357MOL0     H48164   1.385   2.215   5.601 -1.7400 -0.5835 -0.5346
  357MOL0     H48165   1.339   2.014   5.824  1.4177 -0.8080 -0.5548
  357MOL0     H48166   1.291   1.998   5.652  2.1774 -1.3818 -0.8119
  357MOL0     H48167   1.167   2.196   5.840 -1.4097 -1.8511  0.9218
  357MOL0     H48168   1.110   2.129   5.676  0.6677  0.4101 -1.6890
  357MOL0     H48169   1.120   1.953   5.923 -0.2602  0.1386  0.0502
  357MOL0     H48170   1.074   1.914   5.750 -1.8505  0.9037 -1.2149
  357MOL0     H48171   0.945   2.103   5.957  0.7698 -0.4828  0.1975
  357MOL0     H48172   0.902   2.104   5.783  0.2082 -0.9194 -0.4326
  357MOL0     H48173   0.834   1.856   5.815 -0.5896  2.9315 -2.5303
  357MOL0     H48174   0.730   1.971   5.906 -0.8311 -2.1064  0.0706
  357MOL0     H48175   0.839   1.937   6.108 -0.9640 -0.0492  0.5616
  357MOL0     H48176   0.957   1.817   6.031  0.0610  1.0232 -1.9812
  357MOL0     H48177   1.641   1.975   5.500 -1.0668  1.2088  2.2518
  357MOL0     H48178   1.702   1.960   5.247  0.4656  0.6594 -0.8348
  357MOL0     H48179   1.613   2.092   4.861 -0.1820 -3.6503  0.7032
  357MOL0     H48180   1.618   2.074   4.618 -0.1033 -4.2994 -2.0284
  357MOL0     H48181   0.716   2.023   3.832  1.3562  2.1710 -1.1728
  357MOL0     H48182   0.550   1.875   3.725  1.7360  0.4961 -0.6526
  357MOL0     H48183   0.170   1.774   3.592 -1.8605 -2.4205 -0.7489
  357MOL0     H48184  -0.012   1.639   3.503  0.1206  0.6710  0.4989
  357MOL0     H48185  -0.014   1.484   3.304 -1.4334  1.2586  1.5489
  357MOL0     H48186  -0.177   1.459   3.270 -2.0227  3.4040  2.4366
  357MOL0     H48187  -0.000   1.570   3.045 -1.4255  1.7437 -0.8464
  357MOL0     H48188  -0.174   1.531   3.050 -0.5072 -2.3332 -0.1081
  357MOL0     H48189  -0.004   1.294   3.123 -1.0601  0.6880  0.4699
  357MOL0     H48190   0.042   1.365   2.972 -2.1733 -0.9625 -2.9152
  357MOL0     H48191  -0.211   1.339   2.891  1.5790  1.7718 -2.0694
  357MOL0     H48192  -0.237   1.264   3.050  2.1592 -0.1199  1.0740
  357MOL0     H48193  -0.010   0.974   2.859 -0.1135 -0.1370 -0.1449
  357MOL0     H48194   0.013   1.813   3.117 -1.2514 -1.4125  0.8637
  357MOL0     H48195   0.187   1.975   3.200  0.8250 -0.1767 -0.7326
  358MOL0     O48196   1.603  10.345   5.684 -0.5655 -0.1076  0.2586
  358MOL0     C48197   1.617  10.289   5.786  0.0686  0.4687 -0.2883
  358MOL0     O48198   1.515  10.251   5.875  0.1816 -0.3221  0.6690
  358MOL0     C48199   1.392  10.287   5.830 -0.3688  0.0782 -0.7834
  358MOL0     C48200   1.317  10.366   5.917 -0.0823 -0.6672 -0.1094
  358MOL0     C48201   1.184  10.393   5.895 -0.6324 -0.0906  0.7559
  358MOL0     C48202   1.134  10.360   5.767  1.1291 -0.0677 -0.4372
  358MOL0     O48203   1.006  10.397   5.718 -0.5106  0.1813  0.4732
  358MOL0     C48204   0.909  10.447   5.804  0.3238  0.2034  0.3275
  358MOL0     C48205   0.856  10.359   5.922  0.1592 -1.0226  0.4656
  358MOL0     C48206   0.757  10.255   5.871  1.2004 -0.8982 -0.5933
  358MOL0     C48207   0.789  10.194   5.731 -0.2198  0.2418 -0.4662
  358MOL0     C48208   0.714  10.062   5.693  0.0547 -0.4205 -0.2127
  358MOL0     C48209   0.562  10.080   5.683 -0.2653 -0.0979  0.1277
  358MOL0     C48210   0.497   9.957   5.614 -0.3870 -0.6667 -0.2524
  358MOL0     C48211   0.495   9.830   5.695 -0.2418  0.5529 -0.6620
  358MOL0     N48212   0.458   9.848   5.836 -0.6913  0.2031  0.1691
  358MOL0     C48213   0.544   9.856   5.940 -0.5807 -0.0115  0.2491
  358MOL0     C48214   0.467   9.834   6.051  0.6468 -0.9757  0.2763
  358MOL0     C48215   0.505   9.821   6.199  0.3806 -0.1733  0.0002
  358MOL0     C48216   0.562   9.682   6.226  0.4107 -0.2034 -0.5736
  358MOL0     C48217   0.687   9.652   6.139 -0.6301  0.2697 -0.4330
  358MOL0     C48218   0.771   9.550   6.201  0.4614 -0.9598 -0.5041
  358MOL0     O48219   0.886   9.536   6.122 -0.6855  0.2914 -0.1424
  358MOL0     C48220   0.992   9.468   6.164  1.0231  0.6989  0.5647
  358MOL0     C48221   1.107   9.484   6.090 -0.5234 -0.9321 -0.4301
  358MOL0     C48222   1.236   9.434   6.136 -0.0268  0.6832  0.0582
  358MOL0     C48223   1.348   9.448   6.042  0.1424  0.0804  0.1856
  358MOL0     C48224   1.247   9.366   6.262  0.5700  0.1036 -0.5798
  358MOL0     C48225   1.369   9.302   6.312  1.3313  0.2724 -0.1218
  358MOL0     O48226   1.393   9.300   6.445  0.1690 -0.8957  0.0591
  358MOL0     C48227   1.491   9.215   6.488 -0.9463 -0.1317 -1.0623
  358MOL0     C48228   1.444   9.105   6.560 -0.1337 -0.5131  0.2501
  358MOL0     C48229   1.537   9.022   6.633  0.0801 -0.2949  0.4220
  358MOL0     C48230   1.670   9.052   6.635  0.3753 -0.1807  0.2047
  358MOL0     O48231   1.760   8.992   6.723  0.4305 -0.0805  0.3503
  358MOL0     C48232   1.726   8.865   6.781 -0.5119  0.0383  0.3737
  358MOL0     C48233   1.849   8.785   6.821 -0.6386  0.0779 -0.2265
  358MOL0     C48234   1.870   8.782   6.969  0.4184  0.4766 -0.0703
  358MOL0     C48235   1.987   8.683   7.002  0.4638  0.3298 -0.2597
  358MOL0     C48236   2.012   8.672   7.158  0.1789  0.1251 -0.5409
  358MOL0     C48237   1.907   8.589   7.229  0.3036 -0.7141  0.3765
  358MOL0     C48238   1.926   8.607   7.380  0.6421  0.3624 -0.0548
  358MOL0     C48239   1.800   8.589   7.454  0.2044  0.1395 -0.3375
  358MOL0    Cl48240   1.678   8.725   7.438  0.3010  0.3517 -0.4546
  358MOL0     C48241   1.721   9.155   6.551  0.2999 -0.2921  0.0125
  358MOL0     C48242   1.629   9.242   6.484 -0.2325 -1.0751 -0.3475
  358MOL0     O48243   1.435   9.243   6.235 -0.1234 -0.4244  0.0795
  358MOL0     C48244   1.125   9.334   6.331  0.6592 -0.7345 -0.3822
  358MOL0     C48245   1.003   9.383   6.281 -0.3641  0.4792  0.6799
  358MOL0     N48246   0.331   9.829   6.010 -0.2184 -0.7761 -0.1492
  358MOL0     N48247   0.334   9.833   5.884  0.2309 -0.2312  0.2057
  358MOL0     C48248   1.214  10.285   5.671 -0.5548 -0.2990 -0.4303
  358MOL0     C48249   1.340  10.238   5.711 -0.6256  0.6091 -0.1953
  358MOL0     C48250   1.750  10.231   5.822 -0.2885  0.2187  0.2720
  358MOL0     C48251   1.875  10.284   5.763  0.0368 -0.0968 -0.8224
  358MOL0     C48252   1.999  10.250   5.823  0.0271 -0.2458  0.1119
  358MOL0     C48253   2.003  10.163   5.930 -0.9768  0.0657  0.1736
  358MOL0     O48254   2.120  10.129   5.988 -0.5396 -0.3287 -0.3273
  358MOL0     C48255   2.243  10.205   5.956  0.0387  0.5001  1.5892
  358MOL0     C48256   2.361  10.155   6.037 -0.5551 -0.8606  0.3134
  358MOL0     C48257   2.352  10.193   6.180  0.0180  0.1261  0.0046
  358MOL0     C48258   2.473  10.137   6.266  1.0573  1.0669  0.3865
  358MOL0     C48259   2.589  10.213   6.230  0.1852  0.7947 -0.2758
  358MOL0     C48260   2.704  10.253   6.193  0.0479 -0.0784 -0.9003
  358MOL0     C48261   1.886  10.114   5.986  0.1258  0.9300 -1.1442
  358MOL0     C48262   1.760  10.142   5.930  1.0842  0.1177  0.1582
  358MOL0     H48263   1.359  10.388   6.015  0.1972 -4.7293  0.8663
  358MOL0     H48264   1.126  10.451   5.966  0.0674 -0.5863  1.7610
  358MOL0     H48265   0.945  10.543   5.842 -2.3397  0.9158  1.2705
  358MOL0     H48266   0.822  10.465   5.740  1.1416  0.7837 -0.6433
  358MOL0     H48267   0.932  10.308   5.982  0.0454 -0.7590  0.8372
  358MOL0     H48268   0.821  10.432   5.995  1.3270  0.0732 -0.0347
  358MOL0     H48269   0.759  10.174   5.945  1.1034 -1.0429 -0.7511
  358MOL0     H48270   0.659  10.304   5.869  1.6088  0.0131  0.4646
  358MOL0     H48271   0.783  10.268   5.651 -1.2203  2.0820  1.2400
  358MOL0     H48272   0.896  10.174   5.745 -0.3996  0.6039  1.7776
  358MOL0     H48273   0.750  10.021   5.599  1.0329  0.8635 -0.4379
  358MOL0     H48274   0.744   9.998   5.776  0.9961  0.1976 -0.0571
  358MOL0     H48275   0.512  10.101   5.778 -0.2227 -1.6854  0.5334
  358MOL0     H48276   0.559  10.163   5.612  2.8904 -0.0707 -0.1139
  358MOL0     H48277   0.394   9.977   5.582 -0.5960 -0.4641  0.5250
  358MOL0     H48278   0.562   9.946   5.526 -0.1854  4.1802 -0.9901
  358MOL0     H48279   0.591   9.777   5.686  0.2688  1.0259  1.4855
  358MOL0     H48280   0.424   9.760   5.649  0.6554 -1.6689  1.1238
  358MOL0     H48281   0.653   9.862   5.947 -0.6930  0.9670  1.5746
  358MOL0     H48282   0.578   9.892   6.239  3.2732 -1.6686 -2.2242
  358MOL0     H48283   0.412   9.841   6.253 -0.5277  1.8102 -2.1472
  358MOL0     H48284   0.484   9.605   6.223  0.3833 -0.1443 -2.1782
  358MOL0     H48285   0.595   9.698   6.329 -3.4973 -0.7382  0.9501
  358MOL0     H48286   0.751   9.741   6.131 -0.8193  0.3531 -1.0449
  358MOL0     H48287   0.664   9.636   6.033 -1.6465  0.6245 -0.2682
  358MOL0     H48288   0.719   9.454   6.198 -1.4557 -0.0048  0.6773
  358MOL0     H48289   0.802   9.579   6.302 -0.4177  1.6243 -0.9105
  358MOL0     H48290   1.093   9.521   5.989 -2.8502  2.0305  0.8480
  358MOL0     H48291   1.360   9.550   6.005 -1.8204  0.0231 -0.7538
  358MOL0     H48292   1.446   9.427   6.086  0.5606  0.8539 -0.3705
  358MOL0     H48293   1.310   9.383   5.963  0.3959 -0.3671  0.4256
  358MOL0     H48294   1.339   9.088   6.583 -0.8313  1.7767 -0.9014
  358MOL0     H48295   1.495   8.940   6.690  0.1472  1.0180  2.4555
  358MOL0     H48296   1.669   8.882   6.873 -0.3150 -4.2309  1.5293
  358MOL0     H48297   1.669   8.805   6.709  1.0117 -0.5990 -0.3518
  358MOL0     H48298   1.837   8.679   6.796  0.7159 -0.4423  1.2140
  358MOL0     H48299   1.937   8.825   6.770 -0.5270  0.1805  0.0465
  358MOL0     H48300   1.779   8.753   7.022 -0.3148  1.6484 -0.6317
  358MOL0     H48301   1.890   8.884   7.004 -1.9335  0.4398  1.6143
  358MOL0     H48302   1.966   8.587   6.953  0.2012  0.7043 -0.8981
  358MOL0     H48303   2.076   8.719   6.950 -0.5721  0.2739 -2.2016
  358MOL0     H48304   2.014   8.775   7.195 -0.9841 -0.7475  2.2390
  358MOL0     H48305   2.109   8.630   7.183 -0.1708 -1.0896 -1.1773
  358MOL0     H48306   1.806   8.621   7.202  0.7432  0.1250 -0.3047
  358MOL0     H48307   1.904   8.484   7.199 -0.6938  0.1914 -3.1642
  358MOL0     H48308   1.974   8.702   7.404 -0.5303  1.3575 -1.4554
  358MOL0     H48309   1.999   8.527   7.400  0.1181 -0.8574 -2.6388
  358MOL0     H48310   1.821   8.566   7.559  1.6324  0.0456 -0.6146
  358MOL0     H48311   1.753   8.502   7.408 -2.8348  0.5701  1.6713
  358MOL0     H48312   1.826   9.177   6.534  0.1184  0.3569 -0.3185
  358MOL0     H48313   1.662   9.332   6.433  1.0967 -0.8009  0.9469
  358MOL0     H48314   1.124   9.288   6.429  0.8872 -0.6729 -0.3496
  358MOL0     H48315   0.915   9.361   6.340 -0.3566 -1.2131  0.1016
  358MOL0     H48316   1.186  10.255   5.571  2.0699 -3.6946 -0.3378
  358MOL0     H48317   1.404  10.170   5.656  0.5423  1.9979 -0.5962
  358MOL0     H48318   1.870  10.343   5.673 -1.1730 -1.9530 -2.0524
  358MOL0     H48319   2.086  10.293   5.774  0.3958 -2.2542 -1.1046
  358MOL0     H48320   2.270  10.187   5.851 -0.2115  1.4469  1.3473
  358MOL0     H48321   2.220  10.310   5.975 -3.2761  1.1242 -3.8254
  358MOL0     H48322   2.458  10.180   5.992 -0.4686  1.3068  1.5819
  358MOL0     H48323   2.352  10.046   6.035  1.3339 -1.0699  0.6815
  358MOL0     H48324   2.256  10.157   6.218  0.8471 -2.4236 -0.1246
  358MOL0     H48325   2.344  10.302   6.178  0.4723  0.1720  0.5492
  358MOL0     H48326   2.480  10.028   6.256 -0.3854  0.7857  1.9670
  358MOL0     H48327   2.442  10.164   6.368  0.1307 -1.8340  0.9712
  358MOL0     H48328   2.796  10.296   6.157  0.5912 -0.1805  0.3032
  358MOL0     H48329   1.896  10.045   6.069 -1.2794  2.1927  0.1407
  358MOL0     H48330   1.675  10.109   5.988 -0.6877  1.6795 -1.4472
  359MOL0     O48331   1.494   3.064   9.950 -0.0236 -0.1158 -0.3242
  359MOL0     C48332   1.464   3.049   9.832  0.9146 -0.6360 -0.4580
  359MOL0     O48333   1.349   3.099   9.768 -0.4430  0.8004 -0.1764
  359MOL0     C48334   1.267   3.192   9.820 -0.3949  0.0395  0.4320
  359MOL0     C48335   1.133   3.183   9.788  0.3711 -0.9093  0.2402
  359MOL0     C48336   1.041   3.276   9.834  0.1576 -0.0748  0.5100
  359MOL0     C48337   1.083   3.381   9.917  0.5145  0.3174  0.5131
  359MOL0     O48338   0.991   3.463   9.978  0.0734 -0.3669  0.1056
  359MOL0     C48339   0.998   3.596   9.921 -0.3239  0.1054 -0.6208
  359MOL0     C48340   0.866   3.658   9.890  0.4589 -0.3528 -0.4426
  359MOL0     C48341   0.774   3.667  10.016  1.2883  0.3667 -0.8280
  359MOL0     C48342   0.638   3.727   9.958 -0.9951 -0.4611  0.1642
  359MOL0     C48343   0.547   3.769  10.078 -0.1125 -0.1136 -0.1021
  359MOL0     C48344   0.402   3.772  10.026  0.2849  0.4989 -0.1611
  359MOL0     C48345   0.304   3.839  10.131 -0.4704 -1.0876  0.2080
  359MOL0     C48346   0.266   3.751  10.245  0.2623  0.0232 -0.1282
  359MOL0     N48347   0.149   3.780  10.323 -0.5166 -0.5328 -1.3559
  359MOL0     C48348   0.014   3.776  10.289  1.1150  0.1000 -0.0114
  359MOL0     C48349  -0.056   3.804  10.405 -0.5935  0.3487 -0.2755
  359MOL0     C48350  -0.211   3.823  10.412 -0.3852  1.1636  0.3776
  359MOL0     C48351  -0.254   3.965  10.383  0.0697  0.1227  0.5403
  359MOL0     C48352  -0.407   3.971  10.389 -0.1617  1.3701  0.2185
  359MOL0     C48353  -0.465   3.970  10.528  0.4061  0.1084  0.2611
  359MOL0     O48354  -0.451   4.098  10.587 -0.2412 -0.7240 -0.1323
  359MOL0     C48355  -0.549   4.150  10.669 -0.6360 -0.0944 -0.3976
  359MOL0     C48356  -0.564   4.288  10.658 -0.9127  0.4438  0.3658
  359MOL0     C48357  -0.654   4.353  10.752 -0.9742 -0.3042  0.5787
  359MOL0     C48358  -0.635   4.499  10.771 -0.1586 -0.3309  0.1077
  359MOL0     C48359  -0.753   4.277  10.826 -0.3921 -0.3385 -0.7454
  359MOL0     C48360  -0.867   4.338  10.906 -0.4907  0.2103 -0.6527
  359MOL0     O48361  -0.885   4.473  10.917  0.0748 -0.7332 -0.5548
  359MOL0     C48362  -0.973   4.515  11.018 -0.2645  0.3478  0.3951
  359MOL0     C48363  -0.925   4.593  11.128 -0.5497  0.1959  0.1497
  359MOL0     C48364  -1.010   4.636  11.224  0.9741 -0.7145  0.5739
  359MOL0     C48365  -1.156   4.625  11.213  0.5141 -0.2093  0.0142
  359MOL0     O48366  -1.238   4.674  11.312  0.8120  0.2688  0.1164
  359MOL0     C48367  -1.373   4.660  11.296  0.1087 -0.1904  0.1245
  359MOL0     C48368  -1.459   4.664  11.420 -0.0146  0.4216 -0.5526
  359MOL0     C48369  -1.429   4.774  11.528 -0.4138 -0.6901 -0.4093
  359MOL0     C48370  -1.559   4.794  11.602  0.9288  0.4136  1.0690
  359MOL0     C48371  -1.549   4.882  11.721 -0.4676 -0.5196  0.1610
  359MOL0     C48372  -1.684   4.916  11.782  0.0052  0.0679 -0.0447
  359MOL0     C48373  -1.680   5.039  11.880 -0.2019  0.8803 -0.6994
  359MOL0     C48374  -1.817   5.084  11.911 -0.2099 -0.2158 -0.6633
  359MOL0    Cl48375  -1.924   4.952  11.968  0.1188  0.2577  0.5938
  359MOL0     C48376  -1.200   4.551  11.095  0.0419  0.7821 -0.3640
  359MOL0     C48377  -1.108   4.499  11.005 -0.1214  0.6920  0.2220
  359MOL0     O48378  -0.931   4.257  10.961  0.5686 -0.4978  0.1553
  359MOL0     C48379  -0.725   4.139  10.833 -0.1414 -0.9819  0.4438
  359MOL0     C48380  -0.626   4.084  10.768 -0.6495  0.3806  0.2569
  359MOL0     N48381   0.041   3.833  10.501  0.8374  0.3758  0.2133
  359MOL0     N48382   0.154   3.815  10.453  0.0880 -0.3657  0.0480
  359MOL0     C48383   1.214   3.392   9.948 -0.1056  0.4314  0.9846
  359MOL0     C48384   1.310   3.300   9.899  0.6983 -0.5002 -0.4572
  359MOL0     C48385   1.563   2.980   9.751  0.6210  0.5984  0.8970
  359MOL0     C48386   1.676   2.927   9.807  0.0336 -1.2899 -0.8486
  359MOL0     C48387   1.758   2.836   9.736  0.0459 -0.6862  0.0955
  359MOL0     C48388   1.728   2.815   9.599  0.4187 -0.4402  0.3617
  359MOL0     O48389   1.794   2.730   9.519  0.7218  0.8286  0.1772
  359MOL0     C48390   1.881   2.633   9.575 -0.0163 -0.0056 -1.2346
  359MOL0     C48391   1.901   2.536   9.458 -0.0248 -0.2561 -0.1359
  359MOL0     C48392   2.040   2.470   9.461  0.4943  0.9332  0.7750
  359MOL0     C48393   2.091   2.399   9.588 -0.5469  0.1802  0.4049
  359MOL0     C48394   2.001   2.304   9.658  0.4530 -0.5155 -0.3729
  359MOL0     C48395   1.909   2.235   9.714 -0.3752 -0.2335 -0.9528
  359MOL0     C48396   1.621   2.884   9.532 -0.1638  0.2223  0.7582
  359MOL0     C48397   1.532   2.961   9.615 -0.7127 -0.2644  0.6398
  359MOL0     H48398   1.089   3.127   9.706 -1.5240  1.0539 -0.1740
  359MOL0     H48399   0.937   3.254   9.816  0.5733 -1.1972 -0.6487
  359MOL0     H48400   1.053   3.673   9.977  2.6641  0.3208 -3.5028
  359MOL0     H48401   1.052   3.602   9.826  0.8654  2.7836  0.1018
  359MOL0     H48402   0.880   3.763   9.861 -1.8114 -0.6744 -3.0916
  359MOL0     H48403   0.817   3.596   9.815  0.2192 -3.2136  1.9165
  359MOL0     H48404   0.765   3.561  10.045 -1.3057  0.6089 -0.4761
  359MOL0     H48405   0.813   3.725  10.100  2.6410 -1.3592 -0.1927
  359MOL0     H48406   0.656   3.821   9.905 -2.4052  2.0719  3.7834
  359MOL0     H48407   0.589   3.650   9.898 -0.5456 -0.7382  0.1470
  359MOL0     H48408   0.567   3.687  10.148  1.8289 -1.1333 -1.7712
  359MOL0     H48409   0.584   3.861  10.125 -1.1676 -0.6894  2.0202
  359MOL0     H48410   0.383   3.822   9.931 -1.6263  1.4247  0.6542
  359MOL0     H48411   0.352   3.676  10.008  1.0386 -0.3586  1.9663
  359MOL0     H48412   0.344   3.938  10.152 -0.0514 -1.1203 -0.4011
  359MOL0     H48413   0.216   3.860  10.068 -4.3965  0.9219  5.5981
  359MOL0     H48414   0.360   3.742  10.301  0.8702 -0.0727 -1.1310
  359MOL0     H48415   0.241   3.661  10.189  0.5816 -0.9347  1.2276
  359MOL0     H48416  -0.023   3.752  10.190 -0.8318  1.2640  0.3752
  359MOL0     H48417  -0.254   3.750  10.343 -1.2962  1.5768  0.4952
  359MOL0     H48418  -0.252   3.783  10.505  0.3965 -1.7595 -0.4147
  359MOL0     H48419  -0.213   3.993  10.286  1.6425  3.1534  1.9289
  359MOL0     H48420  -0.205   4.035  10.452 -0.7738  1.5361 -0.2595
  359MOL0     H48421  -0.443   3.893  10.322 -2.3127  3.0417 -0.6884
  359MOL0     H48422  -0.449   4.063  10.347 -2.9084  1.2759  2.4723
  359MOL0     H48423  -0.413   3.899  10.593  2.3182  2.1954  1.1407
  359MOL0     H48424  -0.572   3.946  10.523 -0.7216  4.4282 -0.7439
  359MOL0     H48425  -0.501   4.351  10.597 -0.4085  0.7489  1.1917
  359MOL0     H48426  -0.713   4.569  10.738  1.9347  2.9023  1.4404
  359MOL0     H48427  -0.627   4.526  10.877 -0.1585  2.7367 -0.5717
  359MOL0     H48428  -0.539   4.534  10.730  0.0696  1.5176  2.0222
  359MOL0     H48429  -0.817   4.601  11.134 -0.6512  0.7191  2.2552
  359MOL0     H48430  -0.969   4.684  11.312 -0.6184 -0.5760  1.2724
  359MOL0     H48431  -1.401   4.741  11.229  0.4316  0.9117  1.2774
  359MOL0     H48432  -1.400   4.565  11.247  1.6041 -0.7975  0.4350
  359MOL0     H48433  -1.558   4.687  11.381  0.3829  2.3780 -0.4806
  359MOL0     H48434  -1.455   4.564  11.464  4.5150  0.1144 -1.1560
  359MOL0     H48435  -1.395   4.869  11.485 -0.1834 -1.0686 -1.0862
  359MOL0     H48436  -1.357   4.737  11.602 -1.8603  0.0207  1.4030
  359MOL0     H48437  -1.641   4.822  11.536 -0.9451 -1.6509  2.3777
  359MOL0     H48438  -1.591   4.693  11.632 -0.1532 -0.0445 -1.3697
  359MOL0     H48439  -1.510   4.969  11.669  0.7009 -1.8448 -1.2870
  359MOL0     H48440  -1.471   4.853  11.792 -0.6625  1.7346  1.3736
  359MOL0     H48441  -1.751   4.930  11.697  0.7656  0.8834 -0.5324
  359MOL0     H48442  -1.715   4.834  11.847 -0.8025  0.0530 -0.4349
  359MOL0     H48443  -1.613   5.106  11.825  2.2983 -0.4369  0.5524
  359MOL0     H48444  -1.633   5.015  11.976 -3.2758  0.2247  0.7443
  359MOL0     H48445  -1.863   5.140  11.829 -0.8828 -1.2175 -0.9851
  359MOL0     H48446  -1.798   5.162  11.985  2.0752 -1.1078 -0.2220
  359MOL0     H48447  -1.303   4.525  11.074 -0.1730  2.6106 -1.9447
  359MOL0     H48448  -1.143   4.438  10.922 -0.9612  0.7727  0.4991
  359MOL0     H48449  -0.785   4.080  10.901 -1.0562  2.6035  3.0421
  359MOL0     H48450  -0.627   3.976  10.783 -1.9165  0.4360  0.6338
  359MOL0     H48451   1.244   3.463  10.025  1.6475 -0.0680  0.8114
  359MOL0     H48452   1.418   3.312   9.908  0.8419 -0.0418 -2.2910
  359MOL0     H48453   1.694   2.947   9.912 -1.9276  3.5039 -1.1535
  359MOL0     H48454   1.844   2.797   9.788  0.6551  0.7753  0.2448
  359MOL0     H48455   1.976   2.673   9.610 -0.8111  1.2144 -0.3626
  359MOL0     H48456   1.830   2.581   9.657  0.5498 -1.2501 -1.6495
  359MOL0     H48457   1.886   2.597   9.368 -3.0154 -1.3642 -0.4810
  359MOL0     H48458   1.811   2.474   9.460 -0.9774  0.9770  3.4193
  359MOL0     H48459   2.121   2.543   9.446  0.7565  0.1911 -2.0130
  359MOL0     H48460   2.053   2.403   9.376  1.8109  1.8849  0.1740
  359MOL0     H48461   2.119   2.478   9.658  1.8151  1.2335 -1.5891
  359MOL0     H48462   2.182   2.344   9.565 -0.4273  0.1970  0.8359
  359MOL0     H48463   1.839   2.204   9.789  1.2800 -0.7174  0.4642
  359MOL0     H48464   1.597   2.874   9.427 -1.8758  1.3274  0.9989
  359MOL0     H48465   1.451   2.982   9.546 -0.2593 -0.4119  0.0464
  360MOL0     O48466   4.985   6.942   0.249 -0.7142 -0.6011 -1.0643
  360MOL0     C48467   5.090   6.970   0.185  0.2097 -0.4715 -0.1270
  360MOL0     O48468   5.095   7.013   0.055  0.2754 -0.0267  0.9076
  360MOL0     C48469   4.972   7.031  -0.005  0.6736 -0.0629  0.5923
  360MOL0     C48470   4.941   6.957  -0.116 -0.7300  0.2214 -0.1905
  360MOL0     C48471   4.821   6.974  -0.188  0.5853  0.2506  0.4952
  360MOL0     C48472   4.723   7.061  -0.135  0.5831 -0.4311  0.0128
  360MOL0     O48473   4.598   7.090  -0.181  0.3517 -0.2910  0.3324
  360MOL0     C48474   4.536   7.023  -0.282 -0.0875 -0.7695 -0.9244
  360MOL0     C48475   4.421   6.941  -0.236 -0.1944 -0.4365 -0.5765
  360MOL0     C48476   4.311   7.028  -0.171 -1.0053 -0.5974  0.1913
  360MOL0     C48477   4.198   6.929  -0.131  0.5751  1.2959 -0.1245
  360MOL0     C48478   4.090   7.006  -0.055  0.2157 -0.1754 -0.1048
  360MOL0     C48479   3.966   6.922  -0.029 -0.3724  0.0006  0.6800
  360MOL0     C48480   3.846   6.987   0.044  0.9241  1.5711  0.4776
  360MOL0     C48481   3.870   7.030   0.181 -0.4678  0.2603 -0.6773
  360MOL0     N48482   3.879   6.914   0.279  0.5262 -0.4434  0.0373
  360MOL0     C48483   3.773   6.826   0.309 -0.5128 -1.4279  0.4449
  360MOL0     C48484   3.811   6.757   0.418 -0.0718  0.0640 -0.5598
  360MOL0     C48485   3.725   6.665   0.495  0.0859  0.3708 -0.0804
  360MOL0     C48486   3.609   6.741   0.543 -0.3363 -0.7623  0.4363
  360MOL0     C48487   3.529   6.666   0.647  0.1178 -0.5734  0.1511
  360MOL0     C48488   3.377   6.722   0.641 -0.2720  1.5235  0.2526
  360MOL0     O48489   3.310   6.681   0.514 -0.3124  0.1701 -0.5595
  360MOL0     C48490   3.318   6.548   0.488  0.6835  1.0986 -0.9548
  360MOL0     C48491   3.337   6.442   0.579 -0.0727 -0.5606  0.3675
  360MOL0     C48492   3.341   6.305   0.547  0.2308 -0.6600 -0.7352
  360MOL0     C48493   3.368   6.201   0.649  1.1964 -0.0020 -0.7543
  360MOL0     C48494   3.336   6.269   0.411  0.0634  0.1629  0.8608
  360MOL0     C48495   3.343   6.125   0.360  0.0996 -0.7247  0.0946
  360MOL0     O48496   3.420   6.029   0.427 -0.7735 -0.1971  0.6315
  360MOL0     C48497   3.428   5.914   0.351 -0.9911 -0.7213  0.2892
  360MOL0     C48498   3.554   5.885   0.305 -0.6319  0.6791  0.3876
  360MOL0     C48499   3.574   5.761   0.234  1.2833 -0.1355  0.6546
  360MOL0     C48500   3.467   5.668   0.221 -0.8403 -0.3826 -0.2735
  360MOL0     O48501   3.484   5.567   0.141  0.0370 -0.3546  0.3915
  360MOL0     C48502   3.527   5.461   0.214 -0.6693  0.1130  0.2627
  360MOL0     C48503   3.580   5.360   0.110  0.3442  0.0757 -0.5452
  360MOL0     C48504   3.721   5.390   0.057  0.2938 -0.8365 -0.2110
  360MOL0     C48505   3.760   5.284  -0.053 -0.5528 -0.3369  0.7768
  360MOL0     C48506   3.895   5.326  -0.120 -0.7446 -0.1532  0.9058
  360MOL0     C48507   3.942   5.225  -0.223  0.1983  0.4839  0.5440
  360MOL0     C48508   4.090   5.184  -0.180  1.2179  0.3003  0.2592
  360MOL0     C48509   4.194   5.298  -0.179  0.8916  0.1163 -0.9000
  360MOL0    Cl48510   4.235   5.367  -0.344  0.1453  0.3061  0.1486
  360MOL0     C48511   3.339   5.703   0.274  0.2489 -0.2705 -0.8073
  360MOL0     C48512   3.322   5.821   0.338  0.3604  0.2649 -1.1214
  360MOL0     O48513   3.275   6.104   0.257  0.2093  0.1120 -0.5078
  360MOL0     C48514   3.322   6.371   0.315 -0.3198 -0.0241 -0.0023
  360MOL0     C48515   3.310   6.505   0.354  0.9015  0.7817  0.1367
  360MOL0     N48516   3.944   6.795   0.445  0.1512  0.1072  0.5954
  360MOL0     N48517   3.980   6.881   0.357 -0.8467  0.1724  0.4620
  360MOL0     C48518   4.765   7.147  -0.031 -0.5644 -0.2041 -0.9217
  360MOL0     C48519   4.886   7.131   0.034  0.0613 -0.5013  0.5007
  360MOL0     C48520   5.222   6.948   0.245  0.6846 -0.1250 -0.7656
  360MOL0     C48521   5.339   6.959   0.172 -0.0053 -0.0538  0.4226
  360MOL0     C48522   5.466   6.957   0.228 -0.0735  0.5051  0.1373
  360MOL0     C48523   5.472   6.930   0.370 -0.2761 -0.0334 -0.3359
  360MOL0     O48524   5.596   6.923   0.440 -0.2698 -0.6210 -0.2128
  360MOL0     C48525   5.720   6.895   0.371 -0.1310 -1.0264  0.3992
  360MOL0     C48526   5.823   7.008   0.357  1.4140 -1.1706 -0.1711
  360MOL0     C48527   5.966   6.965   0.328  0.0754 -0.4998 -0.8420
  360MOL0     C48528   6.028   6.877   0.437  0.2547 -0.1153  0.0660
  360MOL0     C48529   6.176   6.887   0.430 -0.3880 -0.0423 -0.7616
  360MOL0     C48530   6.293   6.909   0.425  0.1199 -0.3625 -0.4820
  360MOL0     C48531   5.355   6.921   0.448  0.5237  0.9682  0.3731
  360MOL0     C48532   5.231   6.926   0.387 -0.5539 -0.0399  0.6440
  360MOL0     H48533   5.013   6.882  -0.146 -2.2723 -1.6661  0.5820
  360MOL0     H48534   4.791   6.903  -0.264 -2.8766  1.7858  0.2439
  360MOL0     H48535   4.504   7.090  -0.363 -0.4665  0.5965  0.3260
  360MOL0     H48536   4.599   6.951  -0.335  1.2290 -0.6687  0.4338
  360MOL0     H48537   4.378   6.893  -0.325  0.5491  0.4963 -1.4608
  360MOL0     H48538   4.447   6.856  -0.173 -2.8381 -1.2999 -0.5064
  360MOL0     H48539   4.338   7.084  -0.082 -1.9875  0.0952  0.0679
  360MOL0     H48540   4.270   7.091  -0.251  0.2943 -3.1853 -2.7424
  360MOL0     H48541   4.155   6.882  -0.220  1.2741 -1.8490  1.0335
  360MOL0     H48542   4.245   6.851  -0.070  2.3503  2.3592 -0.0760
  360MOL0     H48543   4.123   7.039   0.044  0.6299 -0.5314 -0.1221
  360MOL0     H48544   4.055   7.096  -0.107 -1.8667  0.3376  2.0335
  360MOL0     H48545   3.938   6.881  -0.127  0.2387 -1.7617  1.2031
  360MOL0     H48546   3.991   6.844   0.043  4.0926  1.1908  0.6704
  360MOL0     H48547   3.832   7.070  -0.026 -0.5558  1.3219  0.4278
  360MOL0     H48548   3.752   6.933   0.055 -0.4511  3.1131 -2.4108
  360MOL0     H48549   3.783   7.092   0.206  0.7450  2.0443 -0.7102
  360MOL0     H48550   3.963   7.088   0.188 -1.5510  1.8684  2.1193
  360MOL0     H48551   3.678   6.820   0.258 -0.7500 -1.0556  0.8408
  360MOL0     H48552   3.698   6.577   0.436  1.2544 -1.0218  1.3753
  360MOL0     H48553   3.784   6.632   0.580 -0.2056  0.0121 -0.0122
  360MOL0     H48554   3.547   6.778   0.461 -2.1708  2.0852  2.8668
  360MOL0     H48555   3.645   6.832   0.591  0.9195 -0.9867 -0.0437
  360MOL0     H48556   3.574   6.686   0.744 -3.7996 -1.6991  2.4276
  360MOL0     H48557   3.534   6.560   0.624 -0.7199 -0.1805 -2.1738
  360MOL0     H48558   3.380   6.830   0.655  0.2846  1.6116 -0.4810
  360MOL0     H48559   3.331   6.674   0.728  3.7089  1.3225  2.5142
  360MOL0     H48560   3.349   6.455   0.686  3.7202 -2.5925  0.3631
  360MOL0     H48561   3.297   6.119   0.638  0.0465  0.7803  0.5730
  360MOL0     H48562   3.471   6.168   0.632  1.2878  0.3187 -0.8264
  360MOL0     H48563   3.337   6.236   0.748  0.0525  1.0023 -1.4444
  360MOL0     H48564   3.643   5.947   0.320  2.0072 -3.0253  1.3802
  360MOL0     H48565   3.673   5.729   0.205  0.5214 -1.7817 -0.2210
  360MOL0     H48566   3.601   5.492   0.289  0.8884  1.1536 -1.6293
  360MOL0     H48567   3.439   5.409   0.254 -3.0593  2.8218 -1.0497
  360MOL0     H48568   3.584   5.257   0.147 -0.7943 -1.0695 -3.3383
  360MOL0     H48569   3.512   5.361   0.025 -0.2422  0.7199 -0.0837
  360MOL0     H48570   3.790   5.374   0.141  2.9092 -1.0779 -2.2980
  360MOL0     H48571   3.723   5.493   0.019 -1.4173 -0.3634  0.8675
  360MOL0     H48572   3.771   5.189   0.001  0.5594 -0.7780 -0.1880
  360MOL0     H48573   3.677   5.278  -0.123 -0.1204  0.0276  0.2325
  360MOL0     H48574   3.971   5.348  -0.045 -0.6614  3.8145 -0.0997
  360MOL0     H48575   3.869   5.413  -0.182 -2.8826 -1.6966 -0.5332
  360MOL0     H48576   3.874   5.141  -0.237 -1.8345  2.0132  0.7984
  360MOL0     H48577   3.945   5.267  -0.324 -0.9547 -0.2583  0.1832
  360MOL0     H48578   4.130   5.105  -0.244  0.5784  0.8586 -0.8564
  360MOL0     H48579   4.084   5.140  -0.081  0.1148  2.0050  0.9983
  360MOL0     H48580   4.286   5.267  -0.128  1.3480 -1.7561 -2.7161
  360MOL0     H48581   4.156   5.378  -0.116 -0.5622 -0.9650 -0.3541
  360MOL0     H48582   3.248   5.651   0.245 -0.5418  1.9895 -2.7649
  360MOL0     H48583   3.222   5.855   0.365  1.3515  1.2781  1.6659
  360MOL0     H48584   3.324   6.342   0.211 -2.4782  0.0187 -0.0851
  360MOL0     H48585   3.287   6.572   0.271  1.0459  2.5431  1.4539
  360MOL0     H48586   4.710   7.230   0.012  1.6394  0.8443  0.0397
  360MOL0     H48587   4.891   7.198   0.119 -1.8559  2.0216 -1.2181
  360MOL0     H48588   5.345   6.980   0.066  1.6254 -1.2604  0.2433
  360MOL0     H48589   5.559   6.959   0.172 -0.1728  0.0939 -0.0443
  360MOL0     H48590   5.769   6.815   0.427  0.9207 -0.4244  0.3648
  360MOL0     H48591   5.692   6.866   0.269 -0.9228  1.2063 -0.0814
  360MOL0     H48592   5.827   7.043   0.461  0.7257 -1.2660 -0.1100
  360MOL0     H48593   5.783   7.081   0.286  1.4591 -0.0377  0.9325
  360MOL0     H48594   6.014   7.063   0.324 -0.9215  0.0746  0.5115
  360MOL0     H48595   5.967   6.904   0.238 -2.0954 -1.7515 -0.0963
  360MOL0     H48596   6.000   6.774   0.412  0.7788 -0.1905 -0.2188
  360MOL0     H48597   5.988   6.899   0.536 -2.7214  0.6306 -1.1931
  360MOL0     H48598   6.390   6.949   0.405 -1.3438  1.9350 -4.0776
  360MOL0     H48599   5.356   6.926   0.556  0.2987 -0.5803  0.4765
  360MOL0     H48600   5.143   6.922   0.451 -0.4300 -1.8275  0.7419
  361MOL0     O48601   6.221   0.855   3.510 -0.1594 -0.2654  0.3631
  361MOL0     C48602   6.319   0.855   3.584  0.3695 -0.2126  0.4226
  361MOL0     O48603   6.370   0.960   3.654  0.4028  0.0125 -0.6462
  361MOL0     C48604   6.296   1.077   3.664 -0.5423  0.2248 -0.0595
  361MOL0     C48605   6.371   1.199   3.660  0.8253 -0.0433  0.4319
  361MOL0     C48606   6.308   1.325   3.673  0.1769  0.3452 -0.1567
  361MOL0     C48607   6.167   1.325   3.691  1.2408  0.1456 -0.2488
  361MOL0     O48608   6.118   1.451   3.703 -0.4688  0.2718  0.1349
  361MOL0     C48609   5.996   1.485   3.772  0.1562 -0.0575  0.2163
  361MOL0     C48610   5.961   1.631   3.744  0.7038  0.0049 -0.6517
  361MOL0     C48611   5.833   1.685   3.789  0.2411 -0.3112  0.1026
  361MOL0     C48612   5.824   1.836   3.748 -0.7139 -0.2067  0.3192
  361MOL0     C48613   5.678   1.889   3.786  0.1070  0.0678  0.3253
  361MOL0     C48614   5.638   2.026   3.720 -0.2765  0.2138 -1.0171
  361MOL0     C48615   5.499   2.067   3.781 -0.2744  0.9388  0.3055
  361MOL0     C48616   5.384   1.957   3.784 -0.3667  0.7834  0.7125
  361MOL0     N48617   5.259   2.021   3.829  0.2396  0.1381  0.2521
  361MOL0     C48618   5.142   1.995   3.769  0.3445  0.2020  0.6984
  361MOL0     C48619   5.056   2.075   3.822  0.0325 -0.2599  0.4254
  361MOL0     C48620   4.909   2.099   3.773 -0.8132 -0.8704  0.1701
  361MOL0     C48621   4.801   2.150   3.870 -0.3643 -0.5284  0.1267
  361MOL0     C48622   4.687   2.205   3.782  0.0545 -0.7058 -0.4674
  361MOL0     C48623   4.559   2.234   3.869 -0.0666 -0.2851  0.4785
  361MOL0     O48624   4.472   2.126   3.840 -0.0794  0.7276  0.2578
  361MOL0     C48625   4.340   2.129   3.873  0.3959  0.7263  0.4799
  361MOL0     C48626   4.256   2.069   3.782  0.5148  0.4335  0.9258
  361MOL0     C48627   4.120   2.073   3.801 -0.5635  0.4481  0.5164
  361MOL0     C48628   4.043   2.019   3.683  1.0982 -0.0732  0.0346
  361MOL0     C48629   4.066   2.144   3.907  0.4194  0.2280 -1.0032
  361MOL0     C48630   3.913   2.154   3.921 -0.0010 -0.5014 -0.5972
  361MOL0     O48631   3.877   2.234   4.029 -0.1379 -0.1451  0.4044
  361MOL0     C48632   3.744   2.253   4.053 -0.5139 -0.3764  0.4472
  361MOL0     C48633   3.686   2.370   4.014  0.3962 -0.2104  1.0358
  361MOL0     C48634   3.544   2.398   4.035 -0.2858  0.3970  0.2471
  361MOL0     C48635   3.462   2.294   4.094 -0.6638  0.6493  0.1913
  361MOL0     O48636   3.326   2.304   4.109  0.0871 -0.6561 -0.5504
  361MOL0     C48637   3.262   2.229   4.211 -1.1704 -0.5173  0.5294
  361MOL0     C48638   3.125   2.284   4.228 -0.6412  0.4494 -0.1105
  361MOL0     C48639   3.051   2.237   4.353  0.0782  0.3790  0.2396
  361MOL0     C48640   2.978   2.107   4.329 -0.4581 -0.5865  0.3128
  361MOL0     C48641   2.837   2.125   4.252 -0.6194  0.2679 -0.6627
  361MOL0     C48642   2.766   1.997   4.215 -0.9723  1.1017 -0.0074
  361MOL0     C48643   2.635   2.015   4.139 -0.8022 -0.2867  0.4431
  361MOL0     C48644   2.600   1.875   4.084  0.4916 -0.1617  0.4468
  361MOL0    Cl48645   2.475   1.860   3.965  0.3305  0.3131  0.7336
  361MOL0     C48646   3.527   2.182   4.143 -1.0779 -0.5900 -0.3061
  361MOL0     C48647   3.665   2.157   4.113 -0.1272  0.2021 -0.9545
  361MOL0     O48648   3.837   2.099   3.844 -0.0784 -0.6462  0.3729
  361MOL0     C48649   4.161   2.202   4.002  0.3395 -0.6138 -0.1273
  361MOL0     C48650   4.303   2.180   3.989  1.2012  0.3568  0.9877
  361MOL0     N48651   5.113   2.160   3.916 -0.6211  0.0210 -0.0181
  361MOL0     N48652   5.238   2.121   3.923  0.5772  0.4855  0.4010
  361MOL0     C48653   6.094   1.207   3.703  0.0224 -0.1686 -0.5897
  361MOL0     C48654   6.155   1.079   3.682 -0.4889 -0.3500 -0.9444
  361MOL0     C48655   6.385   0.726   3.598 -0.0818  0.5355 -0.5354
  361MOL0     C48656   6.504   0.712   3.664  0.9487 -0.0484  0.1083
  361MOL0     C48657   6.586   0.600   3.654  0.5462  0.3811  0.2568
  361MOL0     C48658   6.549   0.484   3.582 -0.2101 -0.2612 -0.3522
  361MOL0     O48659   6.630   0.369   3.587 -0.3145 -0.1710 -0.4514
  361MOL0     C48660   6.565   0.249   3.554 -0.8906  0.3527  0.1499
  361MOL0     C48661   6.660   0.137   3.603 -0.0807 -0.5794  0.6037
  361MOL0     C48662   6.632   0.089   3.746 -0.1616 -0.2867 -0.3644
  361MOL0     C48663   6.668   0.196   3.852 -0.3011 -0.4813  0.2319
  361MOL0     C48664   6.633   0.138   3.985 -0.1714 -0.1695 -0.3556
  361MOL0     C48665   6.613   0.103   4.101 -0.2929  0.4523  0.3444
  361MOL0     C48666   6.424   0.494   3.525 -0.0339 -0.3869  0.6776
  361MOL0     C48667   6.344   0.609   3.531  0.1599  0.3773  0.2209
  361MOL0     H48668   6.477   1.196   3.634  0.2413  3.3490 -3.1774
  361MOL0     H48669   6.362   1.418   3.686 -0.8585  0.6864  2.0176
  361MOL0     H48670   5.915   1.428   3.726  0.2496 -0.5549  0.6585
  361MOL0     H48671   6.010   1.448   3.874  1.7212 -3.1527 -0.9750
  361MOL0     H48672   6.045   1.679   3.795 -0.2943  2.2598 -1.0299
  361MOL0     H48673   5.967   1.643   3.635  0.3178  0.8572 -0.5872
  361MOL0     H48674   5.747   1.630   3.751 -0.4751 -0.6569  2.0883
  361MOL0     H48675   5.822   1.682   3.898 -3.6154 -1.7764 -0.1581
  361MOL0     H48676   5.891   1.896   3.811 -1.8560  0.1912  1.2028
  361MOL0     H48677   5.850   1.862   3.645  2.1169  0.5573  1.1468
  361MOL0     H48678   5.613   1.805   3.759 -1.2814 -0.3026  4.1893
  361MOL0     H48679   5.670   1.909   3.893  0.5181  0.0433  0.3616
  361MOL0     H48680   5.704   2.110   3.742 -2.9494  2.4969 -1.1001
  361MOL0     H48681   5.632   2.008   3.613  2.8975  0.8594 -1.3925
  361MOL0     H48682   5.511   2.103   3.884 -0.8881  0.7042  0.4647
  361MOL0     H48683   5.470   2.150   3.716  0.6376 -1.4459 -3.4857
  361MOL0     H48684   5.414   1.867   3.838 -1.4405  0.1129  0.2319
  361MOL0     H48685   5.375   1.923   3.680  0.7477 -1.2686  1.2320
  361MOL0     H48686   5.126   1.936   3.680  0.2108  1.3336 -0.0503
  361MOL0     H48687   4.924   2.160   3.683  3.4544  1.2548  2.0019
  361MOL0     H48688   4.875   2.007   3.725 -0.0401  0.2180 -2.6755
  361MOL0     H48689   4.834   2.228   3.939  1.1875 -1.1318  0.0997
  361MOL0     H48690   4.771   2.071   3.940  0.9741 -2.3748 -1.2797
  361MOL0     H48691   4.663   2.145   3.694 -0.1877 -2.8944  1.0003
  361MOL0     H48692   4.724   2.305   3.756 -0.7237  0.6352  2.9793
  361MOL0     H48693   4.506   2.318   3.822 -1.3919 -1.8621 -0.9700
  361MOL0     H48694   4.578   2.253   3.975 -0.9680  0.0746  0.5881
  361MOL0     H48695   4.301   2.029   3.692  2.2542 -1.1404  2.4187
  361MOL0     H48696   4.002   1.921   3.711 -1.1567  0.7237 -0.2686
  361MOL0     H48697   3.976   2.096   3.643  1.8256 -0.3332 -1.7820
  361MOL0     H48698   4.112   1.996   3.601  0.3090  0.0898 -0.6923
  361MOL0     H48699   3.741   2.447   3.960 -1.4337 -1.5164 -3.1024
  361MOL0     H48700   3.498   2.491   4.007 -0.8327 -0.3854 -1.5688
  361MOL0     H48701   3.264   2.120   4.205 -2.9945 -0.7589  2.9057
  361MOL0     H48702   3.317   2.237   4.305 -0.1978 -0.8620  0.0030
  361MOL0     H48703   3.134   2.393   4.230 -1.6819  0.5326  0.8324
  361MOL0     H48704   3.063   2.271   4.139 -3.5510  1.2840  1.6670
  361MOL0     H48705   2.979   2.316   4.375  1.5740  1.4954  1.3819
  361MOL0     H48706   3.133   2.236   4.425  0.2817  0.2643  0.0104
  361MOL0     H48707   3.041   2.051   4.259  0.0532 -2.7138  2.3272
  361MOL0     H48708   2.967   2.054   4.424  0.5972  0.3175  0.9639
  361MOL0     H48709   2.852   2.187   4.163 -1.2406  2.6489  0.7714
  361MOL0     H48710   2.764   2.177   4.315 -1.6341  0.6417 -2.1092
  361MOL0     H48711   2.836   1.929   4.167 -0.1051  1.4109  0.7843
  361MOL0     H48712   2.731   1.947   4.306 -0.8870  0.3590 -0.3770
  361MOL0     H48713   2.641   2.081   4.051 -1.9585  2.5210  2.3286
  361MOL0     H48714   2.554   2.038   4.208 -2.5811 -1.8832 -0.9918
  361MOL0     H48715   2.578   1.806   4.167  1.4207  1.6690  2.3064
  361MOL0     H48716   2.697   1.849   4.040  1.6092 -0.7100  3.0372
  361MOL0     H48717   3.478   2.104   4.199  1.3219 -1.6947  0.3935
  361MOL0     H48718   3.702   2.058   4.136 -1.2892 -0.2792 -1.1068
  361MOL0     H48719   4.131   2.251   4.095  2.4567 -0.0705  0.3172
  361MOL0     H48720   4.378   2.222   4.055  1.8677 -1.4095  1.4015
  361MOL0     H48721   5.987   1.204   3.720 -0.0274  1.3588 -0.5499
  361MOL0     H48722   6.104   0.983   3.682  2.7599 -2.3034  1.1588
  361MOL0     H48723   6.558   0.797   3.706  1.1342 -0.1927  0.1641
  361MOL0     H48724   6.675   0.598   3.716  0.7536 -0.1706 -0.0449
  361MOL0     H48725   6.464   0.247   3.595 -1.1554  1.8390 -0.3453
  361MOL0     H48726   6.560   0.244   3.445  3.3281 -0.1432 -0.2141
  361MOL0     H48727   6.768   0.149   3.593 -0.0539 -1.0787  0.2587
  361MOL0     H48728   6.631   0.053   3.539  0.0206  1.0136 -1.6478
  361MOL0     H48729   6.702   0.006   3.762  1.1744  0.9742  0.5920
  361MOL0     H48730   6.528   0.060   3.760 -1.5673  3.4203 -1.8909
  361MOL0     H48731   6.614   0.289   3.837  1.3739  0.7940  1.7022
  361MOL0     H48732   6.775   0.221   3.854 -0.8154  1.9858  0.1320
  361MOL0     H48733   6.580   0.051   4.189 -1.0693 -1.8356 -1.1845
  361MOL0     H48734   6.374   0.411   3.477  1.6202  0.6123 -3.1538
  361MOL0     H48735   6.253   0.611   3.472 -2.0399 -3.8146  2.9635
  362MOL0     O48736   5.373   2.638   4.948 -0.3298  0.1122  0.1591
  362MOL0     C48737   5.453   2.544   4.957  0.3083 -0.6100  0.0319
  362MOL0     O48738   5.422   2.407   4.977  0.3702 -0.6567  0.1829
  362MOL0     C48739   5.292   2.351   4.978  1.5771 -0.5704  0.6305
  362MOL0     C48740   5.280   2.214   4.955 -0.5112 -0.2225  0.2854
  362MOL0     C48741   5.153   2.159   4.959 -0.9743  0.3261 -0.6176
  362MOL0     C48742   5.040   2.228   4.986 -0.2897  0.6238 -0.0245
  362MOL0     O48743   4.925   2.144   5.000 -0.6353  0.4137  0.2768
  362MOL0     C48744   4.894   2.102   5.132 -0.1756 -0.0423 -0.9853
  362MOL0     C48745   4.799   2.209   5.197 -0.1183  0.3971 -0.1801
  362MOL0     C48746   4.761   2.159   5.337  0.6664  0.5091  0.1329
  362MOL0     C48747   4.682   2.267   5.415 -0.7051 -0.2498  0.7811
  362MOL0     C48748   4.533   2.252   5.416  0.3005  0.4522 -0.1761
  362MOL0     C48749   4.477   2.323   5.290 -0.8004  0.1793 -0.1866
  362MOL0     C48750   4.325   2.342   5.307  0.4001 -0.7232 -0.5262
  362MOL0     C48751   4.283   2.447   5.415 -0.7766  0.7328 -0.2019
  362MOL0     N48752   4.139   2.476   5.398 -0.1289  0.2565 -1.1115
  362MOL0     C48753   4.042   2.385   5.423 -0.8715 -0.1665 -0.0964
  362MOL0     C48754   3.921   2.456   5.423 -0.4045  0.5414 -0.5137
  362MOL0     C48755   3.779   2.411   5.437 -0.6876 -0.4980 -0.4243
  362MOL0     C48756   3.708   2.516   5.521  0.1267 -0.8980  1.3285
  362MOL0     C48757   3.718   2.493   5.669  0.1719  1.1926  0.4793
  362MOL0     C48758   3.853   2.500   5.728 -0.7451  0.1630 -0.2958
  362MOL0     O48759   3.919   2.376   5.748  0.0284  0.6481  0.3293
  362MOL0     C48760   4.030   2.381   5.831 -0.4374  0.1781 -0.5444
  362MOL0     C48761   4.060   2.262   5.896 -0.4762 -0.0305  0.2292
  362MOL0     C48762   4.184   2.255   5.971  0.2996 -0.3512 -0.4713
  362MOL0     C48763   4.211   2.127   6.032 -0.5398 -0.1869 -0.0324
  362MOL0     C48764   4.264   2.373   5.990  0.3266 -0.6654  0.3234
  362MOL0     C48765   4.398   2.372   6.048  0.3829 -1.3333  0.0543
  362MOL0     O48766   4.460   2.258   6.069 -0.1204  0.3825  0.1929
  362MOL0     C48767   4.546   2.248   6.178  0.4901  0.1375  0.5615
  362MOL0     C48768   4.502   2.176   6.288  0.5666 -0.4887 -1.2495
  362MOL0     C48769   4.594   2.167   6.397  0.6470 -1.1179  0.0763
  362MOL0     C48770   4.724   2.221   6.384 -0.2203 -0.1508  0.4949
  362MOL0     O48771   4.824   2.207   6.479  0.4628 -0.1871  0.4166
  362MOL0     C48772   4.784   2.183   6.617  0.8016 -0.4483  0.5289
  362MOL0     C48773   4.921   2.157   6.684 -0.7547  0.0435  0.2266
  362MOL0     C48774   4.966   2.016   6.662  0.1522  1.4668 -0.0544
  362MOL0     C48775   4.899   1.943   6.785 -0.5375 -0.0308  0.2127
  362MOL0     C48776   4.935   1.798   6.780 -0.9697  0.5697 -0.0485
  362MOL0     C48777   4.841   1.701   6.850  0.8315  0.0064  0.5065
  362MOL0     C48778   4.693   1.673   6.794 -0.5750  0.7519 -0.3748
  362MOL0     C48779   4.694   1.552   6.705  0.3253 -0.7534  0.1957
  362MOL0    Cl48780   4.538   1.572   6.611 -0.0353  0.0284  0.1927
  362MOL0     C48781   4.764   2.288   6.278 -0.1430  0.0805  0.1048
  362MOL0     C48782   4.678   2.303   6.164 -0.0966 -0.4176 -0.3337
  362MOL0     O48783   4.432   2.485   6.097 -0.2411 -1.3166  0.2853
  362MOL0     C48784   4.224   2.491   5.925 -0.1045  0.3470 -0.0277
  362MOL0     C48785   4.102   2.495   5.859  0.1310  0.1946 -0.0491
  362MOL0     N48786   3.957   2.586   5.395  0.1278 -0.1934  0.2006
  362MOL0     N48787   4.084   2.599   5.382  0.8844 -0.2676 -0.1908
  362MOL0     C48788   5.053   2.362   5.018  0.7643 -0.3483 -1.1356
  362MOL0     C48789   5.171   2.426   5.003  0.5059  0.3059 -0.6657
  362MOL0     C48790   5.592   2.570   4.959 -0.1172  0.4842  0.1659
  362MOL0     C48791   5.679   2.501   4.869 -0.5232  0.4997  0.3200
  362MOL0     C48792   5.817   2.519   4.866 -0.1425 -0.2720 -0.3471
  362MOL0     C48793   5.877   2.612   4.953  0.5804  1.1027  0.1982
  362MOL0     O48794   6.015   2.619   4.948 -0.6659 -0.2931  0.0507
  362MOL0     C48795   6.085   2.730   5.006 -1.1698  0.2760  0.1296
  362MOL0     C48796   6.057   2.859   4.938  0.6769 -0.0870  0.6137
  362MOL0     C48797   6.084   2.868   4.787 -0.3577  0.0780  0.6380
  362MOL0     C48798   6.110   3.013   4.741  0.3747 -0.5461  0.3951
  362MOL0     C48799   6.249   3.070   4.761  0.3338 -0.2785  0.3656
  362MOL0     C48800   6.361   3.105   4.779  0.4439  1.3661 -1.1729
  362MOL0     C48801   5.797   2.686   5.046  0.2252  0.0274  0.4741
  362MOL0     C48802   5.653   2.675   5.039 -0.0458  1.0332 -0.1795
  362MOL0     H48803   5.371   2.159   4.933 -1.1783 -2.4404  2.5528
  362MOL0     H48804   5.150   2.052   4.942  2.8023 -0.6138  2.9777
  362MOL0     H48805   4.838   2.010   5.114 -3.0221  1.6463 -1.3291
  362MOL0     H48806   4.977   2.075   5.198 -0.4948  1.4508  0.0691
  362MOL0     H48807   4.854   2.302   5.208 -0.9429  0.8096  0.5943
  362MOL0     H48808   4.713   2.233   5.135 -0.3983  0.0888  0.0821
  362MOL0     H48809   4.710   2.063   5.346  1.8857 -0.1695  0.0690
  362MOL0     H48810   4.849   2.147   5.401 -0.0862 -1.9272  0.8216
  362MOL0     H48811   4.712   2.265   5.520 -2.2272 -1.8016  1.2285
  362MOL0     H48812   4.708   2.359   5.361 -2.6271 -1.7636 -3.0892
  362MOL0     H48813   4.504   2.146   5.413  0.9904  0.2414  0.2865
  362MOL0     H48814   4.495   2.299   5.508 -3.7087  3.3447 -2.9854
  362MOL0     H48815   4.519   2.424   5.282 -1.7283  0.8026  1.9796
  362MOL0     H48816   4.500   2.260   5.204 -2.5266 -2.3399  1.0766
  362MOL0     H48817   4.272   2.372   5.216  0.4747  1.8633  0.2082
  362MOL0     H48818   4.280   2.252   5.349 -0.6197  0.4546  1.0005
  362MOL0     H48819   4.346   2.537   5.406 -0.4003  0.8684  2.8697
  362MOL0     H48820   4.305   2.417   5.518 -3.3526  0.4263  0.3186
  362MOL0     H48821   4.067   2.281   5.444  0.3650 -0.4348 -2.4882
  362MOL0     H48822   3.745   2.419   5.333  0.2345 -2.1153 -0.8981
  362MOL0     H48823   3.758   2.306   5.458 -4.1277  0.2467  0.3786
  362MOL0     H48824   3.600   2.500   5.506 -0.0662 -0.0905  1.7968
  362MOL0     H48825   3.730   2.619   5.492 -0.0042 -1.1209  0.4083
  362MOL0     H48826   3.681   2.394   5.695  0.7872  1.9763  5.1906
  362MOL0     H48827   3.663   2.578   5.711  1.0245  0.2346  3.8334
  362MOL0     H48828   3.840   2.544   5.827 -0.8632 -0.8121  0.1334
  362MOL0     H48829   3.921   2.569   5.679 -1.9444  1.5780 -0.0438
  362MOL0     H48830   4.006   2.168   5.888  3.5363 -2.7185  1.3805
  362MOL0     H48831   4.243   2.122   6.136  0.7251  1.3017 -0.3214
  362MOL0     H48832   4.127   2.057   6.021  1.1106 -2.3077  0.2567
  362MOL0     H48833   4.293   2.083   5.976 -2.3755  0.8466 -3.8759
  362MOL0     H48834   4.401   2.136   6.294  0.0463  0.6950 -1.5712
  362MOL0     H48835   4.551   2.109   6.477  0.0497  0.3046  0.8175
  362MOL0     H48836   4.737   2.265   6.674  0.9810 -1.3230  1.9967
  362MOL0     H48837   4.713   2.101   6.629 -1.2902  1.5850  3.8971
  362MOL0     H48838   4.994   2.226   6.639 -1.5868  0.3786 -0.6344
  362MOL0     H48839   4.918   2.189   6.788  2.9402 -2.4724  1.3143
  362MOL0     H48840   5.074   2.011   6.647  0.4151 -0.0764  2.0093
  362MOL0     H48841   4.919   1.977   6.571 -0.9268  2.5368  0.0172
  362MOL0     H48842   4.943   1.977   6.879  1.6076  0.0761 -0.7881
  362MOL0     H48843   4.791   1.963   6.786 -0.9814 -2.1245 -0.6355
  362MOL0     H48844   5.033   1.791   6.828 -2.2881 -0.0969  2.7637
  362MOL0     H48845   4.935   1.770   6.674 -2.0285  1.1349 -0.2088
  362MOL0     H48846   4.894   1.605   6.852 -1.5748 -1.4300 -0.1136
  362MOL0     H48847   4.845   1.735   6.953 -1.1176 -1.6548  1.1920
  362MOL0     H48848   4.662   1.757   6.731 -3.5476 -1.2637 -1.8270
  362MOL0     H48849   4.633   1.648   6.882  2.8784 -1.5001  1.5568
  362MOL0     H48850   4.701   1.451   6.746  0.5842 -2.1329 -2.9679
  362MOL0     H48851   4.780   1.556   6.636 -0.5736 -2.5851 -1.1178
  362MOL0     H48852   4.865   2.328   6.275 -0.2131  0.3239  0.7867
  362MOL0     H48853   4.722   2.332   6.069  2.3998 -1.7761  0.3211
  362MOL0     H48854   4.284   2.581   5.915 -0.5097  0.4552 -1.8272
  362MOL0     H48855   4.065   2.579   5.800  1.0514 -0.1077 -1.0984
  362MOL0     H48856   4.969   2.425   5.045 -0.9689 -2.0815 -2.1951
  362MOL0     H48857   5.185   2.529   5.034 -0.4552  0.4948 -0.8257
  362MOL0     H48858   5.638   2.448   4.784 -1.9284  1.8004  0.1312
  362MOL0     H48859   5.887   2.469   4.800  2.1127 -1.5038  2.7074
  362MOL0     H48860   6.067   2.738   5.113  1.5972  0.8799  0.6158
  362MOL0     H48861   6.187   2.698   4.982 -2.4739 -3.1790 -1.5740
  362MOL0     H48862   6.115   2.939   4.985 -0.8046  0.1010  2.2502
  362MOL0     H48863   5.951   2.877   4.957  0.1609 -0.9455 -1.2521
  362MOL0     H48864   5.994   2.833   4.734  1.1595 -1.9838 -0.8027
  362MOL0     H48865   6.158   2.789   4.765 -0.1437  0.6921 -0.9691
  362MOL0     H48866   6.032   3.073   4.789  0.8815  1.9428 -1.6465
  362MOL0     H48867   6.091   3.010   4.633  1.2281 -1.5631  0.2634
  362MOL0     H48868   6.452   3.151   4.812  0.4358  1.5944 -1.4656
  362MOL0     H48869   5.832   2.753   5.124  0.3853  0.0903  0.3499
  362MOL0     H48870   5.591   2.735   5.105 -0.5812  0.6057 -0.2768
  363MOL0     O48871   0.602  10.018   5.280 -0.1495 -0.0200 -0.0910
  363MOL0     C48872   0.553  10.104   5.198 -0.4323  0.0377  0.0212
  363MOL0     O48873   0.607  10.229   5.162  0.7870  0.7851  0.2630
  363MOL0     C48874   0.726  10.275   5.209  0.7428  0.3758 -0.2363
  363MOL0     C48875   0.794  10.357   5.122  0.1580 -0.5658  0.1619
  363MOL0     C48876   0.916  10.418   5.157 -0.5199  0.2861 -0.0424
  363MOL0     C48877   0.977  10.386   5.281 -1.3402 -0.4399 -0.0606
  363MOL0     O48878   1.100  10.441   5.331  0.0676  0.4240 -0.5553
  363MOL0     C48879   1.211  10.422   5.241  0.4880 -0.0246 -0.3263
  363MOL0     C48880   1.335  10.464   5.316  0.3232  0.4481  0.2377
  363MOL0     C48881   1.468  10.406   5.261  1.0100 -0.0769  0.9361
  363MOL0     C48882   1.587  10.473   5.328 -0.4938  0.3206  0.9429
  363MOL0     C48883   1.719  10.420   5.271  0.1041  0.1762 -0.6808
  363MOL0     C48884   1.837  10.469   5.353  0.1564 -0.4979  0.6661
  363MOL0     C48885   1.966  10.411   5.302  0.1966  0.3036 -0.8243
  363MOL0     C48886   2.074  10.394   5.414 -0.1775  0.8251  0.0189
  363MOL0     N48887   2.113  10.517   5.489  0.3020  0.2476 -0.2476
  363MOL0     C48888   2.123  10.644   5.440  0.2782 -0.5058  0.5456
  363MOL0     C48889   2.160  10.720   5.543 -0.3856  0.4264  0.5191
  363MOL0     C48890   2.164  10.872   5.541  0.4687  0.3460 -0.6390
  363MOL0     C48891   2.034  10.930   5.484 -1.0559 -0.1327  0.1154
  363MOL0     C48892   2.052  11.080   5.462 -0.1023  0.4565 -0.0603
  363MOL0     C48893   1.918  11.137   5.405 -0.2782 -0.7033 -0.1954
  363MOL0     O48894   1.810  11.131   5.504 -0.7037  1.4865 -0.0068
  363MOL0     C48895   1.688  11.171   5.471 -0.5318 -0.3354 -0.8593
  363MOL0     C48896   1.590  11.156   5.562  0.8750  0.7563  0.4384
  363MOL0     C48897   1.453  11.192   5.542 -0.4185  0.3349  0.4158
  363MOL0     C48898   1.366  11.155   5.663  0.5539  1.2121  0.0177
  363MOL0     C48899   1.410  11.243   5.419  0.2196  0.0157 -0.3644
  363MOL0     C48900   1.274  11.287   5.394  0.0712  0.5515 -0.0403
  363MOL0     O48901   1.254  11.329   5.262  0.4246  0.0917  0.2609
  363MOL0     C48902   1.128  11.367   5.216 -0.7395  0.2685 -1.0371
  363MOL0     C48903   1.007  11.301   5.261  0.1944 -0.5551  0.3805
  363MOL0     C48904   0.886  11.354   5.208  0.9184 -0.3292 -0.6337
  363MOL0     C48905   0.882  11.461   5.124 -0.2469  0.6034 -0.5763
  363MOL0     O48906   0.761  11.501   5.078  0.4900 -0.5561 -0.1175
  363MOL0     C48907   0.756  11.527   4.938 -0.1560  0.0903 -1.3048
  363MOL0     C48908   0.648  11.429   4.892 -0.2690  0.1367 -0.2111
  363MOL0     C48909   0.587  11.476   4.759  0.3378 -0.1138 -0.3358
  363MOL0     C48910   0.458  11.400   4.728  0.2562 -0.1449  0.6338
  363MOL0     C48911   0.343  11.420   4.833 -0.3577  0.6201 -0.1401
  363MOL0     C48912   0.219  11.367   4.782  0.7255  0.8191  0.1806
  363MOL0     C48913   0.107  11.393   4.883  0.0006 -0.3384  0.3542
  363MOL0     C48914  -0.033  11.365   4.819  0.5579 -0.6529 -0.2496
  363MOL0    Cl48915  -0.159  11.376   4.954 -0.0141 -0.2102 -0.7133
  363MOL0     C48916   0.999  11.526   5.084  0.3721 -0.7060  0.2620
  363MOL0     C48917   1.123  11.473   5.122  0.2988 -0.1827 -0.7547
  363MOL0     O48918   1.183  11.278   5.479 -1.3633  0.0526 -0.1762
  363MOL0     C48919   1.515  11.272   5.323  0.6464  0.6464  0.7378
  363MOL0     C48920   1.651  11.229   5.356  0.4316 -0.0413 -0.3661
  363MOL0     N48921   2.158  10.636   5.659  0.4958 -0.5476  0.2412
  363MOL0     N48922   2.125  10.514   5.624  0.3680 -0.4327  0.5085
  363MOL0     C48923   0.906  10.311   5.373  0.0380 -0.2645  0.1573
  363MOL0     C48924   0.782  10.252   5.337 -0.3101 -0.1279 -0.1694
  363MOL0     C48925   0.423  10.076   5.133  0.6128  0.3910  0.5851
  363MOL0     C48926   0.333   9.985   5.194 -0.5951  0.0981 -0.3009
  363MOL0     C48927   0.203   9.972   5.151 -1.0141 -0.6581 -0.3777
  363MOL0     C48928   0.166  10.057   5.050 -0.7386 -0.2910  1.1751
  363MOL0     O48929   0.036  10.035   5.009 -0.0139  0.1238 -0.8599
  363MOL0     C48930  -0.010  10.114   4.896  0.6353 -0.4005 -1.2193
  363MOL0     C48931  -0.151  10.061   4.850 -0.1091  0.1672  0.1575
  363MOL0     C48932  -0.207  10.120   4.717  0.5074  0.3097  0.2833
  363MOL0     C48933  -0.340  10.059   4.677 -0.2398  0.1170 -0.4213
  363MOL0     C48934  -0.404  10.102   4.557 -0.4258 -0.2505  0.0866
  363MOL0     C48935  -0.466  10.139   4.461 -0.0664  0.4462  0.3215
  363MOL0     C48936   0.247  10.144   4.978 -0.8799  0.4709 -0.0106
  363MOL0     C48937   0.381  10.145   5.019 -0.1161 -0.3137 -0.0907
  363MOL0     H48938   0.761  10.365   5.019  2.5907 -0.6243 -0.7072
  363MOL0     H48939   0.973  10.485   5.093 -1.8181  2.3737  0.8905
  363MOL0     H48940   1.215  10.315   5.220  1.8143  0.1502 -1.0645
  363MOL0     H48941   1.204  10.471   5.143  2.3522  1.1514  0.0766
  363MOL0     H48942   1.343  10.572   5.329 -0.9180  0.2634  3.2643
  363MOL0     H48943   1.338  10.417   5.414  3.8149 -1.7338 -0.7117
  363MOL0     H48944   1.468  10.298   5.277  2.2616 -0.0247  1.3400
  363MOL0     H48945   1.472  10.424   5.153  0.2517  3.3506  1.3778
  363MOL0     H48946   1.580  10.581   5.318  0.9863  0.2370 -3.9862
  363MOL0     H48947   1.570  10.452   5.434  0.0002  0.5704  1.0731
  363MOL0     H48948   1.720  10.311   5.263 -1.7929 -0.1065  1.6639
  363MOL0     H48949   1.737  10.457   5.170  1.9451  2.3735  0.3423
  363MOL0     H48950   1.840  10.577   5.365  1.6224 -0.5523  0.9423
  363MOL0     H48951   1.825  10.435   5.456 -0.0865  2.2523  1.6052
  363MOL0     H48952   1.944  10.314   5.256 -0.8154 -0.2584  0.7696
  363MOL0     H48953   2.020  10.462   5.222  1.1082 -2.5193 -2.1389
  363MOL0     H48954   2.161  10.363   5.355 -1.7679 -2.4247 -0.9134
  363MOL0     H48955   2.039  10.318   5.485 -4.3187  2.6421  0.2117
  363MOL0     H48956   2.094  10.685   5.343  0.8090 -0.2443  0.4930
  363MOL0     H48957   2.178  10.909   5.644  0.8745  0.4217 -0.7172
  363MOL0     H48958   2.250  10.900   5.479 -1.0268  4.2888 -1.2474
  363MOL0     H48959   1.947  10.918   5.550 -1.5745  1.7238 -0.1698
  363MOL0     H48960   1.999  10.879   5.394  0.2945  1.0818 -1.1607
  363MOL0     H48961   2.138  11.100   5.397 -0.5480 -1.2617 -1.2400
  363MOL0     H48962   2.064  11.129   5.559 -0.2141  0.9139 -0.2768
  363MOL0     H48963   1.889  11.076   5.319 -0.9304 -0.5292 -0.1082
  363MOL0     H48964   1.955  11.235   5.373 -0.8681 -0.0578  1.0463
  363MOL0     H48965   1.636  11.122   5.654 -0.4707 -0.4785  0.6927
  363MOL0     H48966   1.423  11.097   5.737  0.9851 -0.4524 -1.5573
  363MOL0     H48967   1.328  11.246   5.712 -2.6066 -1.4444  3.0345
  363MOL0     H48968   1.281  11.093   5.635 -1.3163  3.1147  1.0976
  363MOL0     H48969   1.018  11.223   5.335  0.0525 -0.4223  0.5430
  363MOL0     H48970   0.797  11.306   5.248 -0.4720  0.5201 -2.5364
  363MOL0     H48971   0.728  11.632   4.924 -3.9602 -0.8761 -2.0686
  363MOL0     H48972   0.845  11.511   4.877  1.4252  0.0500  0.8883
  363MOL0     H48973   0.681  11.326   4.877 -1.7640 -0.2378 -1.0322
  363MOL0     H48974   0.571  11.418   4.969 -0.4855  1.6218 -0.1938
  363MOL0     H48975   0.658  11.458   4.678  1.5773  2.1015  0.1834
  363MOL0     H48976   0.555  11.580   4.764  0.7021 -0.0536  1.4392
  363MOL0     H48977   0.427  11.432   4.628 -0.2873  0.7875  1.0898
  363MOL0     H48978   0.477  11.293   4.725 -0.3735 -0.2771  1.1393
  363MOL0     H48979   0.337  11.527   4.853  0.4224  0.5744  0.4064
  363MOL0     H48980   0.374  11.368   4.924 -3.3670  3.1456  2.5609
  363MOL0     H48981   0.199  11.431   4.695  0.2034  1.0379  0.4567
  363MOL0     H48982   0.229  11.259   4.765  2.1658  0.9296  0.2111
  363MOL0     H48983   0.106  11.500   4.905  0.8007 -0.8276  3.2195
  363MOL0     H48984   0.131  11.352   4.981 -0.2533  1.8381  1.3804
  363MOL0     H48985  -0.045  11.265   4.776 -0.7065 -1.6101  2.1232
  363MOL0     H48986  -0.061  11.425   4.732 -0.6911 -3.9350 -2.2838
  363MOL0     H48987   0.995  11.612   5.017  0.8417 -0.0785  1.0162
  363MOL0     H48988   1.219  11.509   5.086 -0.0413 -1.4572 -3.1340
  363MOL0     H48989   1.497  11.305   5.221  1.5736  0.6338  0.5638
  363MOL0     H48990   1.718  11.250   5.273 -0.1602  2.3232 -0.3200
  363MOL0     H48991   0.945  10.309   5.474  0.3852  0.6171  0.0545
  363MOL0     H48992   0.737  10.183   5.408  0.9074 -0.8873 -0.1077
  363MOL0     H48993   0.377   9.929   5.276  2.0293 -2.7889 -3.3731
  363MOL0     H48994   0.140   9.892   5.187 -2.3269 -0.6054 -2.3959
  363MOL0     H48995  -0.016  10.214   4.939 -2.4037 -1.1968  0.4981
  363MOL0     H48996   0.065  10.116   4.817  2.1588 -0.7721  0.1479
  363MOL0     H48997  -0.234  10.080   4.920 -0.2453  0.0111  0.0410
  363MOL0     H48998  -0.144   9.954   4.828 -0.8907  0.4257 -1.5197
  363MOL0     H48999  -0.134  10.099   4.638  0.0922  0.5264 -0.1602
  363MOL0     H49000  -0.219  10.228   4.728 -2.9645  0.6200 -3.7995
  363MOL0     H49001  -0.415  10.092   4.750  1.2333 -0.4864  1.4303
  363MOL0     H49002  -0.326   9.951   4.683  2.7517  0.2357 -2.9068
  363MOL0     H49003  -0.507  10.175   4.369 -3.3653 -1.9284  0.6941
  363MOL0     H49004   0.218  10.215   4.902 -2.2974 -0.7165 -0.6251
  363MOL0     H49005   0.445  10.217   4.969  2.4271 -1.9182  0.6479
  364MOL0     O49006   3.213   7.975   6.594  0.4861 -0.2047  1.2591
  364MOL0     C49007   3.125   7.981   6.680 -0.5733 -0.0336 -0.0893
  364MOL0     O49008   3.134   8.064   6.793  0.2254 -0.2039 -0.1689
  364MOL0     C49009   3.236   8.156   6.804  0.0263 -0.0247  0.1132
  364MOL0     C49010   3.320   8.159   6.916  0.5356  0.7200 -0.4066
  364MOL0     C49011   3.417   8.254   6.920 -0.0907 -0.2777 -0.6197
  364MOL0     C49012   3.441   8.350   6.817  0.5786 -0.3438 -0.0675
  364MOL0     O49013   3.539   8.455   6.804  0.0451  0.5300 -0.2493
  364MOL0     C49014   3.657   8.451   6.882  0.0563 -0.2079 -0.2646
  364MOL0     C49015   3.738   8.554   6.816  0.2958 -0.3500  0.1920
  364MOL0     C49016   3.857   8.596   6.900  0.2369  0.4046  0.4084
  364MOL0     C49017   3.982   8.516   6.874  0.2781  0.1594 -0.6791
  364MOL0     C49018   4.098   8.579   6.944 -0.6065  0.7000 -0.7953
  364MOL0     C49019   4.231   8.505   6.940 -0.1741 -0.0510 -0.6480
  364MOL0     C49020   4.340   8.596   7.013  0.6499  0.0124 -0.7805
  364MOL0     C49021   4.401   8.719   6.932  0.3316 -0.1606 -0.8835
  364MOL0     N49022   4.505   8.789   7.017  0.5930 -0.2910 -0.2951
  364MOL0     C49023   4.633   8.788   6.974 -0.8568 -1.1704 -0.1283
  364MOL0     C49024   4.705   8.830   7.084 -0.1451 -0.3343 -0.7364
  364MOL0     C49025   4.857   8.838   7.106  0.1605  0.2347  0.3026
  364MOL0     C49026   4.938   8.731   7.031  0.1382  0.6913 -0.4211
  364MOL0     C49027   4.899   8.587   7.081 -0.1980  0.4195 -0.2717
  364MOL0     C49028   4.852   8.496   6.966  0.4076  0.6308  1.1498
  364MOL0     O49029   4.773   8.388   7.023  0.4117 -0.3563 -0.4206
  364MOL0     C49030   4.660   8.349   6.960 -0.2126  0.0760  0.2624
  364MOL0     C49031   4.631   8.366   6.815 -0.0298 -0.3327 -0.0104
  364MOL0     C49032   4.502   8.314   6.771  0.7543  0.7394 -0.0506
  364MOL0     C49033   4.467   8.339   6.631  0.1087 -0.5684  0.3213
  364MOL0     C49034   4.408   8.247   6.858  0.5281 -0.6621 -0.4021
  364MOL0     C49035   4.284   8.167   6.824  0.0713 -0.2251  0.9525
  364MOL0     O49036   4.263   8.141   6.690  0.2108  0.4349 -0.1820
  364MOL0     C49037   4.141   8.092   6.641 -0.2386  0.2222 -0.1239
  364MOL0     C49038   4.135   7.988   6.551 -0.4657  0.2647 -0.9575
  364MOL0     C49039   4.016   7.949   6.497  0.2294 -0.0671  0.2987
  364MOL0     C49040   3.898   8.023   6.517 -1.0056 -0.6475  1.1042
  364MOL0     O49041   3.788   7.980   6.442  0.4461  0.2557 -0.0198
  364MOL0     C49042   3.663   8.055   6.450  0.6464  0.0736  0.2722
  364MOL0     C49043   3.558   7.993   6.365  0.4756 -0.6928  0.6247
  364MOL0     C49044   3.516   7.849   6.402 -0.4523 -0.6227  0.4692
  364MOL0     C49045   3.403   7.799   6.305  0.5893 -1.4660 -0.6457
  364MOL0     C49046   3.439   7.660   6.252 -0.4666 -0.4505 -1.3139
  364MOL0     C49047   3.333   7.614   6.149 -1.2214 -0.1509 -0.2092
  364MOL0     C49048   3.326   7.459   6.146 -1.1104 -0.2395  0.6629
  364MOL0     C49049   3.252   7.402   6.023  0.5221  0.0450  0.1249
  364MOL0    Cl49050   3.077   7.442   6.030  0.2606 -0.2991  0.3559
  364MOL0     C49051   3.895   8.129   6.614  0.4314  0.6199  0.1838
  364MOL0     C49052   4.013   8.161   6.670 -0.0987  0.1156 -0.1787
  364MOL0     O49053   4.207   8.131   6.913  0.5655 -0.4105  0.7747
  364MOL0     C49054   4.438   8.257   6.995 -0.6183  0.3075 -0.8127
  364MOL0     C49055   4.560   8.305   7.045  0.2548 -0.0471 -0.5244
  364MOL0     N49056   4.612   8.854   7.185 -0.3275  0.4386  0.2144
  364MOL0     N49057   4.490   8.837   7.142 -0.0580 -0.0055  0.1277
  364MOL0     C49058   3.353   8.333   6.707 -0.6610 -0.3705 -0.4917
  364MOL0     C49059   3.253   8.244   6.699 -0.5250 -0.3387  0.2131
  364MOL0     C49060   3.007   7.894   6.662  0.6512  0.0851  0.1532
  364MOL0     C49061   2.911   7.873   6.760  0.4033  0.0611 -0.4767
  364MOL0     C49062   2.790   7.802   6.741  0.3299 -0.3410  0.1487
  364MOL0     C49063   2.759   7.743   6.615 -0.4427  0.4498  0.9011
  364MOL0     O49064   2.643   7.664   6.582 -0.1009  0.4948  0.3818
  364MOL0     C49065   2.564   7.621   6.699 -0.5699  0.2495  0.2646
  364MOL0     C49066   2.454   7.521   6.657 -0.4380 -0.4935 -0.5425
  364MOL0     C49067   2.471   7.384   6.723  0.4463 -0.1686 -0.0754
  364MOL0     C49068   2.568   7.290   6.640  0.1934  0.0624 -1.0713
  364MOL0     C49069   2.620   7.178   6.719  0.2483  1.0511 -0.2664
  364MOL0     C49070   2.680   7.096   6.787  0.1719 -0.9064 -0.1427
  364MOL0     C49071   2.847   7.771   6.510 -0.1412  0.2526  0.0806
  364MOL0     C49072   2.969   7.840   6.538  0.5047 -0.5038  0.4150
  364MOL0     H49073   3.303   8.083   6.992  2.2985  0.3209 -0.3547
  364MOL0     H49074   3.489   8.266   7.001  0.1496  1.3224 -1.0451
  364MOL0     H49075   3.639   8.482   6.985 -0.3219  2.1873 -0.9730
  364MOL0     H49076   3.714   8.359   6.873  0.4084 -0.3896  2.8510
  364MOL0     H49077   3.781   8.508   6.726  1.7764 -0.2321  0.7964
  364MOL0     H49078   3.677   8.638   6.782 -0.6267 -2.1150 -2.9340
  364MOL0     H49079   3.875   8.703   6.893 -3.4046  1.1803  0.6194
  364MOL0     H49080   3.832   8.572   7.004  0.5905 -1.3710  0.1262
  364MOL0     H49081   3.979   8.416   6.917  1.7866 -0.6575 -2.3575
  364MOL0     H49082   4.012   8.510   6.769 -0.3769 -2.5214 -0.7733
  364MOL0     H49083   4.114   8.680   6.904  3.2810 -0.2695 -2.1668
  364MOL0     H49084   4.069   8.587   7.049 -0.2211  0.5941 -0.6765
  364MOL0     H49085   4.217   8.404   6.981 -1.6837 -0.6300 -2.4202
  364MOL0     H49086   4.265   8.500   6.836  0.8910 -0.7250 -0.2863
  364MOL0     H49087   4.295   8.627   7.107 -1.8543 -0.5529 -1.7208
  364MOL0     H49088   4.424   8.531   7.041  0.4364 -0.2424 -0.7252
  364MOL0     H49089   4.326   8.792   6.900  1.2819  0.5869 -1.4352
  364MOL0     H49090   4.454   8.680   6.844  0.3093 -1.7860 -0.2113
  364MOL0     H49091   4.678   8.764   6.878  1.4935 -2.1058  1.1445
  364MOL0     H49092   4.890   8.936   7.070  1.5504 -1.1362 -2.3753
  364MOL0     H49093   4.878   8.840   7.214  0.1115  1.6083  0.3019
  364MOL0     H49094   5.041   8.754   7.057 -0.3435  1.2579  1.0661
  364MOL0     H49095   4.919   8.742   6.924  1.5728  3.6762 -0.4664
  364MOL0     H49096   4.818   8.590   7.155 -0.7286 -1.8834 -0.6729
  364MOL0     H49097   4.986   8.535   7.122  0.1356  1.2135  0.0584
  364MOL0     H49098   4.943   8.457   6.921  2.2717  1.9944  3.5270
  364MOL0     H49099   4.802   8.552   6.886  0.6559  0.9897  1.2476
  364MOL0     H49100   4.701   8.412   6.746  0.3617  0.0114  0.6037
  364MOL0     H49101   4.474   8.245   6.575  1.1131  0.4193 -1.2919
  364MOL0     H49102   4.364   8.377   6.623 -0.4566 -1.3773  2.8494
  364MOL0     H49103   4.542   8.407   6.589  0.6425  0.1955  2.4158
  364MOL0     H49104   4.222   7.933   6.518  1.5437  1.7101  1.5133
  364MOL0     H49105   4.023   7.870   6.422 -0.7410 -0.2074  0.3496
  364MOL0     H49106   3.623   8.056   6.552 -0.3146 -1.5356 -0.0563
  364MOL0     H49107   3.671   8.160   6.419  0.8795 -0.7805 -2.8927
  364MOL0     H49108   3.471   8.059   6.360  1.8987  1.3134  1.4719
  364MOL0     H49109   3.601   7.985   6.265  0.9841 -0.7797  0.8477
  364MOL0     H49110   3.479   7.850   6.505  0.3727  1.9737  0.8181
  364MOL0     H49111   3.590   7.769   6.399  0.2264 -0.0707  1.5912
  364MOL0     H49112   3.303   7.801   6.350  0.1656 -1.4937 -1.5701
  364MOL0     H49113   3.406   7.866   6.219 -2.3367  1.4352  1.2677
  364MOL0     H49114   3.440   7.586   6.333 -0.1945  1.9780  1.0215
  364MOL0     H49115   3.539   7.660   6.208  1.2823 -0.6068  2.2703
  364MOL0     H49116   3.237   7.659   6.177 -1.6157  0.4777 -2.4100
  364MOL0     H49117   3.360   7.660   6.053 -3.5188 -0.5346 -1.0814
  364MOL0     H49118   3.291   7.420   6.242  1.4261 -1.3314  1.2298
  364MOL0     H49119   3.429   7.424   6.147 -0.3163  1.9811  2.1849
  364MOL0     H49120   3.262   7.293   6.014  1.3717 -0.1101  2.3043
  364MOL0     H49121   3.291   7.453   5.935  0.7333  2.0783  1.3357
  364MOL0     H49122   3.804   8.186   6.632 -1.1416 -1.8769  0.5967
  364MOL0     H49123   4.011   8.233   6.751 -0.9514 -1.9898  1.7615
  364MOL0     H49124   4.372   8.209   7.067  0.1895 -1.2882 -1.0726
  364MOL0     H49125   4.580   8.308   7.152 -2.1117 -2.0353  0.0768
  364MOL0     H49126   3.373   8.401   6.624 -2.5446 -0.0189 -0.7052
  364MOL0     H49127   3.199   8.235   6.606  2.1526  1.5538 -1.6699
  364MOL0     H49128   2.928   7.915   6.859 -0.5239  1.7498 -0.9961
  364MOL0     H49129   2.711   7.795   6.816 -0.5706 -0.2161 -0.7658
  364MOL0     H49130   2.632   7.582   6.776 -0.1674  5.3030  2.8947
  364MOL0     H49131   2.517   7.705   6.750  0.2735  1.7948 -1.4135
  364MOL0     H49132   2.456   7.493   6.551 -0.2045 -1.0865 -0.3852
  364MOL0     H49133   2.354   7.555   6.684 -1.1222 -3.3533  0.8099
  364MOL0     H49134   2.370   7.343   6.717 -0.0617  0.9024  0.7582
  364MOL0     H49135   2.511   7.392   6.825  1.3454  1.8005 -0.5416
  364MOL0     H49136   2.653   7.353   6.611 -1.5515  2.6959 -0.8139
  364MOL0     H49137   2.514   7.250   6.554 -2.0299  2.4672 -0.9383
  364MOL0     H49138   2.741   7.034   6.849  0.6536  1.0192  1.3660
  364MOL0     H49139   2.823   7.739   6.409  0.6154 -1.3892  0.3975
  364MOL0     H49140   3.028   7.854   6.448 -0.2895 -2.3142 -0.4412
  365MOL0     O49141   5.406   1.402   2.709  0.2974  0.0093  0.2894
  365MOL0     C49142   5.328   1.430   2.801 -0.5941 -0.6097 -0.1599
  365MOL0     O49143   5.294   1.345   2.910 -0.2890  0.0900  0.1372
  365MOL0     C49144   5.350   1.220   2.934  1.2599 -0.6403  0.6841
  365MOL0     C49145   5.453   1.162   2.864  0.5218 -0.1751 -1.1699
  365MOL0     C49146   5.477   1.025   2.882 -0.2893 -0.1688  0.1868
  365MOL0     C49147   5.406   0.953   2.971  0.3763 -1.0475 -0.1041
  365MOL0     O49148   5.431   0.819   2.976 -0.4961  0.2174  0.3872
  365MOL0     C49149   5.367   0.742   2.869 -0.5235  1.0387 -0.4452
  365MOL0     C49150   5.358   0.589   2.909 -0.0706  0.2347 -0.4601
  365MOL0     C49151   5.278   0.554   3.042 -0.1141  0.6053  0.4627
  365MOL0     C49152   5.129   0.610   3.040 -0.3838  0.1952  0.1316
  365MOL0     C49153   5.038   0.566   3.158 -0.2258 -0.2805  0.4545
  365MOL0     C49154   4.994   0.410   3.157  0.8849  0.6759  0.9653
  365MOL0     C49155   4.896   0.382   3.260  0.1938 -0.0432 -0.3538
  365MOL0     C49156   4.884   0.232   3.288 -0.2516 -1.0088  0.2742
  365MOL0     N49157   4.766   0.219   3.372 -0.5060  0.5461 -0.3351
  365MOL0     C49158   4.761   0.221   3.507 -0.2980  0.9824 -0.8617
  365MOL0     C49159   4.623   0.213   3.536  0.1121  0.4262 -0.1952
  365MOL0     C49160   4.547   0.223   3.666  0.3187 -0.5342 -0.4465
  365MOL0     C49161   4.535   0.077   3.723 -0.3488 -0.0969  0.6546
  365MOL0     C49162   4.482   0.072   3.874 -0.4785  0.7960  0.1688
  365MOL0     C49163   4.398  -0.050   3.909 -0.4252  0.1627 -0.1198
  365MOL0     O49164   4.344  -0.028   4.036 -0.3481  0.0552 -0.2579
  365MOL0     C49165   4.288  -0.135   4.108 -0.1118 -0.0142  0.8960
  365MOL0     C49166   4.264  -0.125   4.242 -0.6798 -0.6932 -0.3356
  365MOL0     C49167   4.213  -0.229   4.320 -0.5091 -0.1454 -0.4291
  365MOL0     C49168   4.188  -0.201   4.468  0.0062 -0.0656 -0.2232
  365MOL0     C49169   4.186  -0.356   4.260  0.3320 -0.7993 -0.4773
  365MOL0     C49170   4.139  -0.478   4.336  0.3879  0.2393  0.4224
  365MOL0     O49171   4.150  -0.601   4.261 -0.6031 -0.5796 -0.6176
  365MOL0     C49172   4.124  -0.726   4.315 -0.0416 -0.4592  0.2090
  365MOL0     C49173   4.174  -0.840   4.246  0.4145  0.9937 -0.0321
  365MOL0     C49174   4.158  -0.966   4.296 -0.4190 -0.0657  0.0749
  365MOL0     C49175   4.090  -0.989   4.415  0.1865 -0.0523 -0.6587
  365MOL0     O49176   4.076  -1.127   4.457 -0.4991  0.3106 -0.5172
  365MOL0     C49177   4.003  -1.140   4.574  0.5033  0.2391  0.6949
  365MOL0     C49178   3.977  -1.282   4.612 -0.4581  0.7595 -0.1012
  365MOL0     C49179   3.852  -1.351   4.559 -0.0958  0.3355  0.3442
  365MOL0     C49180   3.854  -1.496   4.596 -0.5376  0.2662 -0.4690
  365MOL0     C49181   3.720  -1.560   4.559  0.3639  0.7331  1.0234
  365MOL0     C49182   3.730  -1.721   4.580  0.2246  0.5559 -0.2901
  365MOL0     C49183   3.623  -1.794   4.512 -0.6190 -0.6245 -0.6085
  365MOL0     C49184   3.655  -1.940   4.519 -0.9103 -0.6786 -0.2826
  365MOL0    Cl49185   3.653  -2.022   4.686 -0.4049 -0.1718  0.0566
  365MOL0     C49186   4.027  -0.879   4.481  0.1279 -0.4792  0.0748
  365MOL0     C49187   4.044  -0.745   4.429 -0.1879 -0.1729 -0.8003
  365MOL0     O49188   4.097  -0.471   4.449 -0.4548 -0.1656 -0.2349
  365MOL0     C49189   4.206  -0.365   4.120 -0.6541  0.0338 -0.2405
  365MOL0     C49190   4.258  -0.263   4.048  0.1470  0.6797  0.5569
  365MOL0     N49191   4.561   0.197   3.413  0.8811 -0.0635 -0.3358
  365MOL0     N49192   4.645   0.185   3.323  0.5966 -0.1382 -0.0429
  365MOL0     C49193   5.300   1.008   3.036 -0.2948  0.6502  0.2446
  365MOL0     C49194   5.268   1.144   3.015 -0.1769 -0.5979 -0.5955
  365MOL0     C49195   5.291   1.570   2.792  0.4344 -0.4135 -0.0336
  365MOL0     C49196   5.267   1.651   2.906  1.0103 -0.2800 -0.0986
  365MOL0     C49197   5.255   1.792   2.899 -0.0842 -0.1839 -0.0362
  365MOL0     C49198   5.269   1.855   2.775 -0.0677 -0.6740 -0.8964
  365MOL0     O49199   5.255   1.985   2.769  0.4457 -0.1739 -0.0036
  365MOL0     C49200   5.348   2.045   2.678 -0.4354  0.3852  0.8690
  365MOL0     C49201   5.275   2.108   2.562  0.4861  0.3370 -0.5420
  365MOL0     C49202   5.192   2.228   2.608 -0.4200  0.0551 -0.2882
  365MOL0     C49203   5.147   2.305   2.476  0.4601 -0.5524 -0.6763
  365MOL0     C49204   5.250   2.338   2.382 -1.0427  0.2674  0.1900
  365MOL0     C49205   5.334   2.369   2.305  0.6799  0.1480  0.2923
  365MOL0     C49206   5.279   1.773   2.656  0.0967  0.6061 -0.9111
  365MOL0     C49207   5.285   1.634   2.668  0.3989 -0.0535 -0.3107
  365MOL0     H49208   5.509   1.214   2.787 -0.2333 -0.8756 -2.2326
  365MOL0     H49209   5.563   0.982   2.831 -0.3252  0.4570 -0.4083
  365MOL0     H49210   5.274   0.779   2.826 -0.6354 -2.6234 -3.9778
  365MOL0     H49211   5.434   0.740   2.783 -0.8094  1.3066 -0.6767
  365MOL0     H49212   5.309   0.527   2.833  1.1128 -1.4093  0.0707
  365MOL0     H49213   5.457   0.546   2.928 -0.7381 -1.6630 -1.0097
  365MOL0     H49214   5.281   0.446   3.052  1.8917  0.5892 -0.0394
  365MOL0     H49215   5.338   0.600   3.121  1.1045  0.1014 -0.1446
  365MOL0     H49216   5.142   0.719   3.036 -0.1113  0.1484 -0.3647
  365MOL0     H49217   5.076   0.594   2.945  0.3790  2.3850 -0.7318
  365MOL0     H49218   5.085   0.591   3.253 -1.5196  1.0691  0.7651
  365MOL0     H49219   4.951   0.632   3.151 -0.5156 -0.6006  0.9937
  365MOL0     H49220   4.957   0.377   3.060 -0.1286 -2.0694  2.1877
  365MOL0     H49221   5.085   0.351   3.170 -0.7849 -2.8344 -1.6025
  365MOL0     H49222   4.913   0.424   3.360 -0.9853  0.1130 -0.2015
  365MOL0     H49223   4.802   0.422   3.221 -0.2549 -1.6357 -0.9838
  365MOL0     H49224   4.975   0.191   3.333  1.9708  1.1742 -1.9535
  365MOL0     H49225   4.861   0.177   3.196 -4.1942 -0.2897  0.6580
  365MOL0     H49226   4.845   0.230   3.574 -0.7663 -1.8267  0.2716
  365MOL0     H49227   4.614   0.281   3.730  0.9137  0.6875 -2.1085
  365MOL0     H49228   4.445   0.262   3.665 -1.0803 -3.8500  0.0068
  365MOL0     H49229   4.630   0.023   3.731  0.8237  1.8512  0.2785
  365MOL0     H49230   4.472   0.022   3.653  0.9338  1.9156 -2.2646
  365MOL0     H49231   4.412   0.152   3.900 -2.9467 -1.8156  2.1654
  365MOL0     H49232   4.570   0.078   3.940 -1.0597 -2.5066  1.4459
  365MOL0     H49233   4.447  -0.148   3.908 -0.9846 -0.1425 -1.8800
  365MOL0     H49234   4.315  -0.055   3.837 -2.7801 -2.7757  2.5097
  365MOL0     H49235   4.280  -0.029   4.289 -0.2451 -1.2286  0.6569
  365MOL0     H49236   4.080  -0.200   4.487  0.0126 -3.0680  0.5625
  365MOL0     H49237   4.237  -0.281   4.526 -1.5922  0.1769  1.5686
  365MOL0     H49238   4.236  -0.107   4.497 -0.0810 -0.0075 -0.2700
  365MOL0     H49239   4.236  -0.838   4.157  2.0158 -1.5317  0.9302
  365MOL0     H49240   4.197  -1.056   4.250  2.7767  0.9165  0.6250
  365MOL0     H49241   4.063  -1.102   4.657 -2.1292  1.8410  1.9785
  365MOL0     H49242   3.910  -1.082   4.576  0.5815  0.4840 -1.1837
  365MOL0     H49243   4.061  -1.341   4.574  0.5399  1.9954  0.0936
  365MOL0     H49244   3.970  -1.288   4.721 -1.0379  1.0854 -0.1154
  365MOL0     H49245   3.854  -1.342   4.450 -0.2594  0.8215  0.3768
  365MOL0     H49246   3.757  -1.305   4.587 -2.0485 -2.8899 -0.4722
  365MOL0     H49247   3.927  -1.541   4.528 -0.4260 -1.9472  1.0126
  365MOL0     H49248   3.888  -1.523   4.696 -0.0732  0.3936 -0.5880
  365MOL0     H49249   3.700  -1.549   4.452  4.6315 -0.1596 -0.0668
  365MOL0     H49250   3.639  -1.515   4.617  0.7278  2.0826  0.5211
  365MOL0     H49251   3.823  -1.759   4.538 -0.5831 -0.0766 -1.5927
  365MOL0     H49252   3.738  -1.746   4.686 -0.8773 -0.6361 -0.4542
  365MOL0     H49253   3.623  -1.755   4.410 -0.1613  1.2410  0.0591
  365MOL0     H49254   3.526  -1.765   4.554 -0.0188  2.5563 -1.1608
  365MOL0     H49255   3.757  -1.957   4.485 -0.7270  1.1768 -0.7528
  365MOL0     H49256   3.573  -1.985   4.462 -1.5056  0.8774 -0.7230
  365MOL0     H49257   3.957  -0.883   4.564 -0.3137  2.1237 -0.0816
  365MOL0     H49258   3.982  -0.677   4.488 -0.7883 -1.3090 -0.0875
  365MOL0     H49259   4.190  -0.458   4.066  1.8305 -0.0098 -1.0609
  365MOL0     H49260   4.285  -0.286   3.945  2.2695  1.0230  0.9956
  365MOL0     H49261   5.229   0.958   3.101  2.0367  0.1681  2.5946
  365MOL0     H49262   5.178   1.180   3.065 -0.7508 -0.3405 -1.7795
  365MOL0     H49263   5.265   1.612   3.007 -1.8927  2.3807  1.0496
  365MOL0     H49264   5.243   1.857   2.984 -0.3763 -0.5235  0.1861
  365MOL0     H49265   5.395   2.127   2.732 -0.3269  3.0718 -2.9037
  365MOL0     H49266   5.430   1.986   2.635  1.8540  2.1402  2.5368
  365MOL0     H49267   5.215   2.033   2.510  0.5746 -1.1079  1.3446
  365MOL0     H49268   5.346   2.119   2.480  0.2304 -0.8879 -0.9389
  365MOL0     H49269   5.250   2.294   2.672  2.8031 -0.6374 -2.2738
  365MOL0     H49270   5.105   2.191   2.663 -0.5831  0.8512 -0.0002
  365MOL0     H49271   5.106   2.395   2.521  0.8357 -0.9508  0.5061
  365MOL0     H49272   5.066   2.256   2.421 -0.7547  1.3738 -0.6864
  365MOL0     H49273   5.386   2.387   2.214 -0.8297 -0.4734 -0.7272
  365MOL0     H49274   5.290   1.810   2.554 -1.9095  2.8754 -0.4101
  365MOL0     H49275   5.320   1.571   2.586 -0.5067 -2.2531  0.9180
  366MOL0     O49276   5.944   4.898   2.777 -0.1071 -0.6508 -0.5967
  366MOL0     C49277   6.018   4.974   2.718  0.4262 -0.4222 -0.1497
  366MOL0     O49278   5.977   5.060   2.615 -0.4594  0.1840 -0.9643
  366MOL0     C49279   5.849   5.061   2.579  0.9125  1.5445 -0.5416
  366MOL0     C49280   5.788   4.960   2.508 -0.1164 -0.0055  0.8640
  366MOL0     C49281   5.646   4.968   2.489 -0.3388 -0.5664 -0.1157
  366MOL0     C49282   5.575   5.077   2.539  0.9827  0.0002  0.1254
  366MOL0     O49283   5.443   5.089   2.512  0.1555  0.3323 -0.5722
  366MOL0     C49284   5.367   4.972   2.553  0.2178 -0.6580  0.4972
  366MOL0     C49285   5.218   5.001   2.512 -0.3143  0.2539  0.8667
  366MOL0     C49286   5.140   5.101   2.603 -0.2641  0.5449 -0.5662
  366MOL0     C49287   4.991   5.053   2.608 -0.4453  0.0805 -0.3385
  366MOL0     C49288   4.911   5.174   2.665  0.0610  0.4452 -0.4581
  366MOL0     C49289   4.779   5.124   2.700 -0.1646  0.5660  0.2845
  366MOL0     C49290   4.688   5.230   2.764  0.4128 -0.5583 -0.2169
  366MOL0     C49291   4.565   5.175   2.831 -0.0878  0.2098 -0.3785
  366MOL0     N49292   4.492   5.082   2.747  0.0818 -0.7554  0.0059
  366MOL0     C49293   4.401   5.119   2.654 -0.2813 -0.6107 -0.3231
  366MOL0     C49294   4.339   5.000   2.624  0.2877 -0.6488  0.1344
  366MOL0     C49295   4.215   4.989   2.532  0.6399 -0.5663  0.4926
  366MOL0     C49296   4.233   4.907   2.407  0.3479  0.8917 -0.3002
  366MOL0     C49297   4.349   4.797   2.415 -0.2375  0.2871  0.2454
  366MOL0     C49298   4.330   4.710   2.288 -0.3016 -0.0993 -0.2858
  366MOL0     O49299   4.238   4.602   2.298 -0.8838 -0.4701 -0.0611
  366MOL0     C49300   4.220   4.504   2.207 -0.4633 -0.4411  0.4366
  366MOL0     C49301   4.264   4.514   2.073 -0.2126 -0.0568  0.7132
  366MOL0     C49302   4.250   4.409   1.984 -0.2381  0.0109  0.4643
  366MOL0     C49303   4.302   4.437   1.842 -0.3176  0.0549  0.1821
  366MOL0     C49304   4.192   4.288   2.032  0.1204  0.5831  0.0593
  366MOL0     C49305   4.190   4.181   1.948  0.6907  0.6082  0.6977
  366MOL0     O49306   4.084   4.100   1.972 -0.0020 -0.5612 -0.4770
  366MOL0     C49307   4.090   3.961   1.945  0.4889  0.6965  0.0054
  366MOL0     C49308   4.217   3.892   1.954  0.5017  0.6713 -0.1790
  366MOL0     C49309   4.216   3.751   1.953 -0.7555 -0.1143 -0.0931
  366MOL0     C49310   4.101   3.679   1.938  0.4125 -0.2951 -0.2799
  366MOL0     O49311   4.097   3.545   1.933 -0.6338 -0.5127  0.2493
  366MOL0     C49312   4.070   3.490   2.058 -0.4234  0.5918 -0.2225
  366MOL0     C49313   3.969   3.370   2.043  0.7884  0.5736  0.2888
  366MOL0     C49314   3.856   3.396   1.948  0.2884 -0.4818  0.0157
  366MOL0     C49315   3.715   3.344   1.986 -0.2758 -0.2559 -0.8727
  366MOL0     C49316   3.601   3.375   1.894  0.2432 -0.3072  0.4966
  366MOL0     C49317   3.474   3.350   1.963  0.3098  0.1378  0.6282
  366MOL0     C49318   3.363   3.400   1.874  0.1082 -0.0909  0.9804
  366MOL0     C49319   3.280   3.277   1.827 -1.2442  0.5437 -0.2553
  366MOL0    Cl49320   3.380   3.181   1.712 -0.1621 -0.1793 -0.4047
  366MOL0     C49321   3.982   3.746   1.906 -0.6519  0.2530 -1.0462
  366MOL0     C49322   3.978   3.889   1.911 -0.4722 -0.0673 -0.3699
  366MOL0     O49323   4.285   4.155   1.879 -0.1453  0.1697  0.5631
  366MOL0     C49324   4.155   4.280   2.165  0.6042 -0.2027 -1.4963
  366MOL0     C49325   4.157   4.385   2.254 -0.0440 -0.5197  1.0777
  366MOL0     N49326   4.386   4.902   2.703 -0.2966  0.3678  0.2604
  366MOL0     N49327   4.478   4.950   2.768 -0.8854 -0.1192 -0.4379
  366MOL0     C49328   5.637   5.176   2.603  0.7457  0.2010 -0.3612
  366MOL0     C49329   5.774   5.169   2.620  0.4624 -0.1481  0.0182
  366MOL0     C49330   6.157   4.974   2.775 -0.5201 -0.2221 -0.5544
  366MOL0     C49331   6.255   5.066   2.724  0.1323 -0.6631 -1.0513
  366MOL0     C49332   6.380   5.052   2.774  0.7012  0.5076  0.7164
  366MOL0     C49333   6.423   4.947   2.849  0.3269  0.4475  0.0839
  366MOL0     O49334   6.562   4.927   2.880  0.2160  0.4985  0.3949
  366MOL0     C49335   6.661   4.928   2.777 -0.6495  0.2923 -0.2691
  366MOL0     C49336   6.791   4.946   2.852 -0.9149 -1.1450  0.6944
  366MOL0     C49337   6.862   4.827   2.905 -0.3719  0.2331 -0.3169
  366MOL0     C49338   7.003   4.874   2.948  0.6686 -0.4557 -0.1150
  366MOL0     C49339   7.091   4.868   2.831  0.6081  0.2609  0.1867
  366MOL0     C49340   7.149   4.874   2.726 -0.1636  0.7390 -0.1333
  366MOL0     C49341   6.324   4.860   2.900 -0.5065  0.1531  0.2014
  366MOL0     C49342   6.187   4.877   2.866 -0.5039 -0.1549  0.8623
  366MOL0     H49343   5.831   4.863   2.488  0.0203  0.3558 -0.7244
  366MOL0     H49344   5.590   4.887   2.442 -1.5838  1.6473 -2.7362
  366MOL0     H49345   5.383   4.877   2.500 -0.3887 -0.2607 -0.4200
  366MOL0     H49346   5.388   4.947   2.657 -1.0578 -2.8948  0.2867
  366MOL0     H49347   5.233   5.039   2.410  1.1304 -1.3011  0.4467
  366MOL0     H49348   5.161   4.908   2.510 -0.3938  0.3057  0.6545
  366MOL0     H49349   5.186   5.099   2.702  1.0759  2.2158 -1.1072
  366MOL0     H49350   5.162   5.199   2.560 -0.1762  1.6800  1.8405
  366MOL0     H49351   4.955   5.023   2.509  0.1584  2.1909 -1.2525
  366MOL0     H49352   4.979   4.975   2.684 -1.5170  0.8922  0.3587
  366MOL0     H49353   4.961   5.210   2.755 -1.1588  1.0904 -0.0137
  366MOL0     H49354   4.900   5.258   2.596 -1.0233  1.0172  0.3787
  366MOL0     H49355   4.723   5.079   2.617  1.3552 -2.4215  0.7336
  366MOL0     H49356   4.796   5.038   2.765  1.3495 -0.3644 -1.2291
  366MOL0     H49357   4.745   5.286   2.838  1.3558  1.3216 -2.2310
  366MOL0     H49358   4.659   5.302   2.687  2.6516  0.3095 -0.3215
  366MOL0     H49359   4.507   5.261   2.867  1.6170  1.1314  0.2319
  366MOL0     H49360   4.581   5.115   2.921 -0.3457 -1.2823 -1.2969
  366MOL0     H49361   4.389   5.220   2.618  2.1152 -0.8438 -1.9586
  366MOL0     H49362   4.140   4.941   2.595 -0.3070 -0.6845 -0.6744
  366MOL0     H49363   4.171   5.084   2.499 -0.3617 -0.9607  0.6548
  366MOL0     H49364   4.232   4.968   2.316 -1.8902 -0.9194 -1.6091
  366MOL0     H49365   4.144   4.845   2.394  1.5372 -0.4192 -2.8462
  366MOL0     H49366   4.358   4.746   2.512  2.7455 -1.4542 -0.8250
  366MOL0     H49367   4.438   4.860   2.403  0.5198 -1.0678 -1.6535
  366MOL0     H49368   4.426   4.681   2.244  0.5306  1.7382  0.2407
  366MOL0     H49369   4.284   4.786   2.223 -3.7283 -0.1972  1.7429
  366MOL0     H49370   4.309   4.604   2.033  2.7738  0.1808  4.1594
  366MOL0     H49371   4.239   4.384   1.769  0.4350  0.4524 -0.7885
  366MOL0     H49372   4.304   4.544   1.821 -2.5475  0.6203  2.4899
  366MOL0     H49373   4.403   4.393   1.839  0.2151  0.8541  3.4830
  366MOL0     H49374   4.316   3.936   1.969  0.0627  1.3578  0.8468
  366MOL0     H49375   4.313   3.703   1.968  0.9325  2.3469 -2.3249
  366MOL0     H49376   4.160   3.443   2.097  0.0209  1.3708 -0.2841
  366MOL0     H49377   4.035   3.562   2.133  1.8510 -1.3852  2.9796
  366MOL0     H49378   4.020   3.290   1.989 -0.3377 -0.3428  0.5547
  366MOL0     H49379   3.940   3.323   2.137  3.3188  0.0838  0.9110
  366MOL0     H49380   3.886   3.368   1.847  1.6704  3.2552 -0.7951
  366MOL0     H49381   3.839   3.505   1.943  1.3055 -0.3628 -2.6103
  366MOL0     H49382   3.720   3.236   2.002  0.1385  0.0553  1.3214
  366MOL0     H49383   3.693   3.386   2.084 -0.0133 -2.3593  0.1548
  366MOL0     H49384   3.609   3.306   1.810  1.2452 -1.5752  1.5917
  366MOL0     H49385   3.620   3.477   1.859 -1.7267 -0.3869 -0.9548
  366MOL0     H49386   3.458   3.247   1.996  1.9610  0.1954  1.6937
  366MOL0     H49387   3.474   3.422   2.045  0.1617  0.6535  0.1816
  366MOL0     H49388   3.398   3.457   1.788  1.4388 -0.3598  1.3137
  366MOL0     H49389   3.292   3.452   1.939  1.2835  1.5263  1.0446
  366MOL0     H49390   3.187   3.308   1.780  0.7619  2.7935 -3.0926
  366MOL0     H49391   3.254   3.203   1.904 -2.0745 -0.8967 -1.8441
  366MOL0     H49392   3.890   3.693   1.886 -0.9548 -0.9368  2.8570
  366MOL0     H49393   3.881   3.935   1.893  0.2136  1.4698 -0.3324
  366MOL0     H49394   4.125   4.184   2.205  0.4196  0.6873  0.6523
  366MOL0     H49395   4.107   4.387   2.351 -1.9189  0.8425  0.1378
  366MOL0     H49396   5.580   5.260   2.643 -0.0573 -0.9599  1.0115
  366MOL0     H49397   5.831   5.255   2.654 -0.6969  0.9712 -0.7769
  366MOL0     H49398   6.226   5.139   2.649  1.7712 -0.3282 -1.4181
  366MOL0     H49399   6.459   5.117   2.737  0.9344  1.0908  2.1840
  366MOL0     H49400   6.664   4.837   2.717  0.6588  0.3431 -0.2997
  366MOL0     H49401   6.645   5.016   2.713  0.3264  0.0292 -0.8936
  366MOL0     H49402   6.778   5.016   2.935  1.3618  0.3216 -0.0837
  366MOL0     H49403   6.851   5.000   2.778 -1.6195 -2.3530 -0.8237
  366MOL0     H49404   6.869   4.745   2.832  1.1343 -0.2696  0.3386
  366MOL0     H49405   6.804   4.800   2.994  0.0782 -0.3691 -0.1955
  366MOL0     H49406   7.047   4.810   3.025 -1.6848 -3.1436 -0.8569
  366MOL0     H49407   6.997   4.972   2.997 -0.2012 -0.4166 -0.2670
  366MOL0     H49408   7.209   4.866   2.638  2.5549  0.3976  1.6599
  366MOL0     H49409   6.351   4.787   2.976 -1.6381  0.0134  0.4953
  366MOL0     H49410   6.119   4.807   2.914  1.4525 -3.1196 -0.3925
  367MOL0     O49411   0.282   8.299   0.628  0.3519  0.6911 -0.5549
  367MOL0     C49412   0.336   8.255   0.735  0.3096 -0.6058 -0.2604
  367MOL0     O49413   0.291   8.282   0.862 -0.5112 -0.0378  0.0551
  367MOL0     C49414   0.175   8.348   0.879  0.2476 -0.1521 -0.7876
  367MOL0     C49415   0.166   8.478   0.928 -0.1205  0.3401  0.0548
  367MOL0     C49416   0.037   8.541   0.926 -0.2507  0.4978 -0.6384
  367MOL0     C49417  -0.075   8.457   0.914 -1.0088  0.8245  0.1440
  367MOL0     O49418  -0.197   8.507   0.931  0.0985 -0.0011 -0.4504
  367MOL0     C49419  -0.253   8.549   0.804  0.2606 -0.1169  0.4228
  367MOL0     C49420  -0.407   8.569   0.819  0.4411 -0.0437 -0.3081
  367MOL0     C49421  -0.493   8.445   0.865  0.4386  0.5411 -0.2197
  367MOL0     C49422  -0.482   8.318   0.781  0.0270  0.4419  0.2066
  367MOL0     C49423  -0.617   8.230   0.782  0.5541  0.2368 -0.3709
  367MOL0     C49424  -0.613   8.102   0.701  0.3432 -0.3989  0.6426
  367MOL0     C49425  -0.713   8.015   0.750 -0.5937  0.5329  0.0362
  367MOL0     C49426  -0.857   8.038   0.709 -0.4548 -0.2835  0.0163
  367MOL0     N49427  -0.929   8.146   0.764  0.5131  0.1290 -0.4575
  367MOL0     C49428  -0.972   8.166   0.892 -0.4699  0.3742 -0.2402
  367MOL0     C49429  -1.057   8.271   0.895 -0.6855 -0.5197  0.0254
  367MOL0     C49430  -1.125   8.331   1.025 -0.0223  1.0848 -0.4921
  367MOL0     C49431  -1.033   8.399   1.124 -0.7208 -0.4104  0.8612
  367MOL0     C49432  -0.974   8.526   1.067  0.6630 -0.5238  0.9339
  367MOL0     C49433  -0.864   8.580   1.154  0.0111 -0.7220 -0.2885
  367MOL0     O49434  -0.757   8.481   1.153  1.0712  0.0554 -0.7526
  367MOL0     C49435  -0.666   8.477   1.253 -0.1222  0.1622  0.4463
  367MOL0     C49436  -0.554   8.401   1.227 -0.4154 -0.1209  0.5331
  367MOL0     C49437  -0.449   8.390   1.321 -0.7152 -0.4730 -0.0997
  367MOL0     C49438  -0.328   8.325   1.273  0.5839  0.3860  0.9116
  367MOL0     C49439  -0.458   8.462   1.440 -0.1695 -0.1240  0.0044
  367MOL0     C49440  -0.361   8.435   1.551 -0.7650 -0.1935 -0.4625
  367MOL0     O49441  -0.345   8.306   1.579  0.4455  0.1421  1.0982
  367MOL0     C49442  -0.230   8.244   1.618 -0.6756  0.2002  0.3812
  367MOL0     C49443  -0.242   8.111   1.654  0.4725 -0.6467 -0.0144
  367MOL0     C49444  -0.129   8.029   1.654  0.3214 -0.2097 -0.9510
  367MOL0     C49445  -0.003   8.079   1.646 -0.4120  0.5066 -1.3653
  367MOL0     O49446   0.101   7.986   1.641  0.3236 -0.0725  0.1680
  367MOL0     C49447   0.228   8.029   1.617 -0.3719  0.3968 -0.2613
  367MOL0     C49448   0.309   7.908   1.613 -0.1758 -0.3526 -0.4357
  367MOL0     C49449   0.454   7.961   1.615 -0.0705 -1.2539  0.1271
  367MOL0     C49450   0.533   7.847   1.577  0.8495  0.7604 -0.7955
  367MOL0     C49451   0.683   7.868   1.608  0.4585  0.5631  1.1300
  367MOL0     C49452   0.763   7.765   1.540 -0.5425 -0.4018 -0.0266
  367MOL0     C49453   0.914   7.771   1.585 -0.3027  0.8873 -0.1805
  367MOL0     C49454   0.979   7.639   1.570 -0.8152  0.5543 -0.2774
  367MOL0    Cl49455   1.126   7.654   1.683 -0.0647  0.2451  0.0562
  367MOL0     C49456   0.014   8.214   1.631  0.1929  0.1342  0.0586
  367MOL0     C49457  -0.097   8.297   1.616  0.8121  0.3742  0.9653
  367MOL0     O49458  -0.305   8.532   1.609  0.3083  0.8855 -0.9841
  367MOL0     C49459  -0.574   8.536   1.473  0.2859 -0.3192  0.1332
  367MOL0     C49460  -0.675   8.548   1.381  0.4515 -0.2593  0.7453
  367MOL0     N49461  -1.082   8.305   0.767 -0.1407 -0.7283 -0.4562
  367MOL0     N49462  -0.996   8.231   0.688  0.5398 -0.8212 -0.2135
  367MOL0     C49463  -0.062   8.322   0.885 -0.0339 -0.9962  0.0057
  367MOL0     C49464   0.059   8.267   0.867 -0.7275 -0.0453  0.2449
  367MOL0     C49465   0.474   8.199   0.724  0.3706 -0.0771 -0.0819
  367MOL0     C49466   0.525   8.140   0.842  0.3901 -0.1026  0.5388
  367MOL0     C49467   0.654   8.087   0.866  0.3123 -0.7004 -0.0552
  367MOL0     C49468   0.741   8.088   0.761  0.3581 -0.0556  0.5501
  367MOL0     O49469   0.873   8.049   0.773  0.0764 -0.3667 -0.0718
  367MOL0     C49470   0.901   7.931   0.702  0.9190  0.8305 -0.3377
  367MOL0     C49471   1.029   7.859   0.754 -0.2842  0.3815  0.0825
  367MOL0     C49472   1.085   7.745   0.671 -0.5360  0.8910 -0.0438
  367MOL0     C49473   1.196   7.801   0.577 -0.0270 -0.0937 -1.4300
  367MOL0     C49474   1.247   7.699   0.490 -0.1852  0.3139  0.6367
  367MOL0     C49475   1.288   7.610   0.412  0.3136  0.5551 -0.6942
  367MOL0     C49476   0.700   8.137   0.642  0.0843 -0.4160 -0.9449
  367MOL0     C49477   0.567   8.196   0.621  0.1826  0.8058 -0.3485
  367MOL0     H49478   0.263   8.524   0.941 -0.3040  0.3355  1.5394
  367MOL0     H49479   0.027   8.642   0.966 -1.4662 -0.8890  2.9484
  367MOL0     H49480  -0.197   8.640   0.783  1.9688 -1.4750 -1.2450
  367MOL0     H49481  -0.239   8.480   0.720 -2.9180  2.2367 -2.3244
  367MOL0     H49482  -0.425   8.641   0.899 -2.5005  0.2537 -1.1086
  367MOL0     H49483  -0.442   8.607   0.723  0.4489  0.4970 -0.0991
  367MOL0     H49484  -0.456   8.413   0.963 -3.3079  1.4213  1.6426
  367MOL0     H49485  -0.600   8.467   0.874 -0.1467 -0.1735 -4.0038
  367MOL0     H49486  -0.446   8.336   0.679  3.8400 -3.2426  0.6213
  367MOL0     H49487  -0.401   8.253   0.815 -0.7545 -1.7015 -1.7306
  367MOL0     H49488  -0.636   8.225   0.889  2.5207  1.2449  0.0675
  367MOL0     H49489  -0.687   8.295   0.728 -1.6920 -2.1632 -0.5666
  367MOL0     H49490  -0.630   8.135   0.598  1.7028  3.1885  1.4140
  367MOL0     H49491  -0.511   8.064   0.708 -0.5441 -3.2539 -0.7157
  367MOL0     H49492  -0.691   7.918   0.706  1.0486 -0.1622  2.2068
  367MOL0     H49493  -0.696   7.990   0.855  2.9230 -1.2668 -0.8114
  367MOL0     H49494  -0.924   7.958   0.742 -2.9793  2.1003  1.0758
  367MOL0     H49495  -0.860   8.046   0.600  0.2859 -0.7204 -0.0413
  367MOL0     H49496  -0.933   8.103   0.971  2.5161  0.2336 -1.6797
  367MOL0     H49497  -1.201   8.398   0.984  1.1287  2.8072  0.0691
  367MOL0     H49498  -1.181   8.262   1.090  1.5517  2.1465  2.1375
  367MOL0     H49499  -0.961   8.322   1.153  2.0770  1.4197 -0.7730
  367MOL0     H49500  -1.092   8.426   1.212 -4.0016 -4.8137  0.3124
  367MOL0     H49501  -1.057   8.597   1.053 -1.5732 -2.8447  1.5048
  367MOL0     H49502  -0.932   8.501   0.969  1.7988 -1.8633  1.7224
  367MOL0     H49503  -0.899   8.604   1.255 -2.6414  2.1134 -1.7191
  367MOL0     H49504  -0.825   8.675   1.116  0.6543 -0.6953  0.3923
  367MOL0     H49505  -0.546   8.351   1.131 -1.0482 -0.0102  0.4222
  367MOL0     H49506  -0.323   8.227   1.322  0.5773  0.4742  1.0908
  367MOL0     H49507  -0.308   8.311   1.167  0.9507  1.0016  0.8954
  367MOL0     H49508  -0.238   8.377   1.308  1.7584 -0.7544 -0.3069
  367MOL0     H49509  -0.333   8.056   1.676 -0.0580  1.0370  2.4436
  367MOL0     H49510  -0.143   7.923   1.672 -2.5134 -0.1683 -2.2392
  367MOL0     H49511   0.249   8.070   1.517  3.3806  2.7833  1.2779
  367MOL0     H49512   0.262   8.090   1.701 -0.1574 -0.3921  0.2310
  367MOL0     H49513   0.302   7.851   1.707 -0.5730 -0.4495 -0.5236
  367MOL0     H49514   0.276   7.848   1.528  0.0592 -2.4354  0.8790
  367MOL0     H49515   0.476   8.002   1.714 -0.5753  5.7816 -2.1278
  367MOL0     H49516   0.471   8.049   1.553  0.8506  0.2783  2.4466
  367MOL0     H49517   0.496   7.753   1.619  1.9015  0.7823  0.2222
  367MOL0     H49518   0.520   7.828   1.470 -0.7890  2.2148 -0.9081
  367MOL0     H49519   0.697   7.863   1.716 -0.4075 -0.3244  1.2189
  367MOL0     H49520   0.722   7.963   1.570  1.7114 -0.4757 -0.3055
  367MOL0     H49521   0.729   7.662   1.555 -2.9695  0.2113 -0.8809
  367MOL0     H49522   0.758   7.789   1.433  0.5549  2.3185  0.4388
  367MOL0     H49523   0.910   7.796   1.692 -1.4701 -0.9371  0.2516
  367MOL0     H49524   0.973   7.848   1.535 -0.1480 -0.7909 -2.8171
  367MOL0     H49525   1.013   7.624   1.467 -2.7312 -0.9472 -0.7520
  367MOL0     H49526   0.904   7.566   1.604 -1.4840  1.6280  0.6097
  367MOL0     H49527   0.116   8.249   1.613 -0.2137  0.3697 -2.1623
  367MOL0     H49528  -0.091   8.402   1.590 -1.7491  0.3699  0.0368
  367MOL0     H49529  -0.576   8.584   1.570  1.5257 -2.5301  1.3511
  367MOL0     H49530  -0.765   8.602   1.410  1.4480  0.9653  1.6229
  367MOL0     H49531  -0.151   8.260   0.878  1.2071 -2.7448 -1.8124
  367MOL0     H49532   0.068   8.165   0.830 -1.0707  0.5997 -1.7305
  367MOL0     H49533   0.459   8.137   0.928 -1.0532  1.9716 -0.4018
  367MOL0     H49534   0.666   8.034   0.960 -2.2171 -2.9091 -0.8527
  367MOL0     H49535   0.822   7.856   0.713  1.8129 -0.3308 -1.4075
  367MOL0     H49536   0.900   7.943   0.593 -1.7146 -1.5757 -0.6992
  367MOL0     H49537   1.000   7.808   0.847 -1.3109 -0.6285 -0.7455
  367MOL0     H49538   1.097   7.937   0.789  0.4460 -1.2683  2.6338
  367MOL0     H49539   1.009   7.690   0.616  0.1021  1.7062 -1.8182
  367MOL0     H49540   1.132   7.678   0.743 -0.3492  3.6854  2.6206
  367MOL0     H49541   1.275   7.850   0.634  0.7184 -1.8212 -0.9146
  367MOL0     H49542   1.150   7.878   0.514  0.6516  0.7527 -0.9229
  367MOL0     H49543   1.288   7.520   0.354  0.8386  0.9102 -1.2613
  367MOL0     H49544   0.780   8.148   0.570  0.8673  4.0765  0.2680
  367MOL0     H49545   0.556   8.236   0.521  1.1027  1.8097 -0.0632
  368MOL0     O49546   4.422   5.378  10.201 -0.3000  0.4135 -0.8413
  368MOL0     C49547   4.456   5.413  10.313 -0.3439 -0.2857  0.1758
  368MOL0     O49548   4.389   5.395  10.425  0.5128  0.4165 -0.2688
  368MOL0     C49549   4.249   5.361  10.412  0.8716 -0.2620  0.5761
  368MOL0     C49550   4.217   5.231  10.393 -0.2052 -0.1448 -0.4358
  368MOL0     C49551   4.082   5.197  10.369 -0.4351 -0.1341 -0.5054
  368MOL0     C49552   3.980   5.293  10.373 -0.1622  0.0585 -0.2807
  368MOL0     O49553   3.841   5.260  10.372  0.4180 -0.2010 -0.0180
  368MOL0     C49554   3.804   5.124  10.381  0.0538  0.1248 -0.1901
  368MOL0     C49555   3.667   5.089  10.426  0.4600 -0.5765  0.2556
  368MOL0     C49556   3.656   4.957  10.496  0.8348  0.2671  0.5387
  368MOL0     C49557   3.756   4.929  10.601 -0.4463 -0.0352 -0.6253
  368MOL0     C49558   3.710   4.812  10.691  0.0490  0.3189 -0.2907
  368MOL0     C49559   3.817   4.782  10.794  0.4761 -0.8000  0.5231
  368MOL0     C49560   3.792   4.649  10.848  0.0781 -0.2165  0.1975
  368MOL0     C49561   3.645   4.634  10.899 -0.7812 -0.5287 -0.0114
  368MOL0     N49562   3.637   4.523  10.982  0.2389  0.2271 -0.2886
  368MOL0     C49563   3.644   4.392  10.932  0.0652 -0.1355  0.6988
  368MOL0     C49564   3.591   4.305  11.020 -0.4142 -0.7233  0.2471
  368MOL0     C49565   3.602   4.155  11.012  0.5643  0.2255 -0.0230
  368MOL0     C49566   3.497   4.097  10.928  0.4479  0.7890 -0.1695
  368MOL0     C49567   3.490   3.947  10.927 -0.3791 -0.0387 -0.5281
  368MOL0     C49568   3.623   3.873  10.901 -0.4568  0.3238  0.3427
  368MOL0     O49569   3.601   3.744  10.845  0.9638  0.4669  0.0224
  368MOL0     C49570   3.708   3.665  10.798 -0.3056  0.1751 -0.8116
  368MOL0     C49571   3.683   3.570  10.702 -0.7619  0.8199 -0.6420
  368MOL0     C49572   3.776   3.469  10.665 -0.4096 -0.9044  0.1493
  368MOL0     C49573   3.725   3.382  10.550  0.0836 -0.5353 -0.0025
  368MOL0     C49574   3.906   3.461  10.722  0.3418  0.8884  0.7490
  368MOL0     C49575   4.014   3.363  10.696  0.3077  0.8486 -0.7430
  368MOL0     O49576   4.024   3.289  10.590 -0.4161  0.3492 -0.4820
  368MOL0     C49577   4.137   3.225  10.553  0.7298  0.6149 -0.8455
  368MOL0     C49578   4.257   3.285  10.547  0.9282  0.2510 -0.9424
  368MOL0     C49579   4.372   3.226  10.508 -0.1347  0.3143 -0.4674
  368MOL0     C49580   4.357   3.098  10.445 -0.1456  0.9058 -0.4789
  368MOL0     O49581   4.466   3.025  10.396 -0.2356  0.5615  0.4253
  368MOL0     C49582   4.598   3.084  10.354 -0.3629 -0.3437  0.7676
  368MOL0     C49583   4.669   2.997  10.246  0.5609 -0.1627  0.1725
  368MOL0     C49584   4.811   3.057  10.211 -0.4704  0.6200 -0.3195
  368MOL0     C49585   4.876   2.961  10.108 -0.2462 -0.1061 -0.4107
  368MOL0     C49586   5.020   3.026  10.091 -0.3640  0.2460 -0.2235
  368MOL0     C49587   5.100   2.941   9.994 -0.0291  0.0598  0.2963
  368MOL0     C49588   5.240   2.998   9.970 -0.5184  0.3031 -0.6571
  368MOL0     C49589   5.316   2.924   9.866 -1.0425 -0.1029 -0.0892
  368MOL0    Cl49590   5.260   2.990   9.706 -0.0397 -0.1683 -0.2248
  368MOL0     C49591   4.234   3.033  10.443 -0.0781  0.4643 -0.2283
  368MOL0     C49592   4.124   3.089  10.506 -0.1680 -0.8920  0.0459
  368MOL0     O49593   4.090   3.349  10.795  1.3381  0.8646  1.3664
  368MOL0     C49594   3.929   3.567  10.820  1.2376  0.2993  0.3099
  368MOL0     C49595   3.831   3.663  10.859 -0.0608  0.5212 -0.1894
  368MOL0     N49596   3.541   4.386  11.129  0.0849  0.8540 -0.2555
  368MOL0     N49597   3.560   4.515  11.094  0.5997 -0.6390  0.4849
  368MOL0     C49598   4.019   5.430  10.397  0.5135  0.8630 -0.6060
  368MOL0     C49599   4.154   5.464  10.410 -0.1054  0.6629  0.7879
  368MOL0     C49600   4.591   5.467  10.331 -0.3459  0.3121  0.2151
  368MOL0     C49601   4.687   5.441  10.241  0.4510 -0.4421 -0.1854
  368MOL0     C49602   4.820   5.481  10.264 -1.2515  1.0028 -0.0646
  368MOL0     C49603   4.865   5.535  10.397 -0.3726  0.8246  0.5878
  368MOL0     O49604   5.003   5.557  10.425  0.6490 -0.7510 -0.0776
  368MOL0     C49605   5.024   5.670  10.514  0.0308  1.1070 -0.3400
  368MOL0     C49606   5.174   5.703  10.503 -0.1882  0.7294 -0.0080
  368MOL0     C49607   5.222   5.820  10.586 -1.3541 -0.1283  1.3281
  368MOL0     C49608   5.361   5.873  10.560  0.6539 -0.0291 -0.4186
  368MOL0     C49609   5.457   5.761  10.571 -0.2508 -1.3826 -0.0248
  368MOL0     C49610   5.540   5.673  10.604 -0.1377 -0.7457  0.0533
  368MOL0     C49611   4.769   5.535  10.491 -0.3073 -0.6357 -0.3258
  368MOL0     C49612   4.637   5.502  10.455  0.1653  0.3356 -0.7638
  368MOL0     H49613   4.303   5.165  10.395  0.0437  0.1640 -0.7980
  368MOL0     H49614   4.076   5.090  10.351 -1.4993  0.0448 -1.3038
  368MOL0     H49615   3.818   5.069  10.288 -1.3659 -0.4245 -0.1009
  368MOL0     H49616   3.872   5.084  10.457  1.9814  1.2106 -1.2487
  368MOL0     H49617   3.630   5.170  10.490  0.7045 -1.3161  1.3773
  368MOL0     H49618   3.605   5.105  10.337  1.6208  2.6883 -0.0767
  368MOL0     H49619   3.555   4.958  10.537 -0.2100  4.3726 -1.6181
  368MOL0     H49620   3.658   4.878  10.421 -2.4420  0.3948  0.1888
  368MOL0     H49621   3.844   4.890  10.550  1.7422  0.2795  2.6337
  368MOL0     H49622   3.789   5.018  10.657  1.8916 -1.2992  0.1593
  368MOL0     H49623   3.619   4.831  10.749  0.0084 -1.1435  0.1604
  368MOL0     H49624   3.699   4.723  10.628 -3.0129  0.4081 -0.0456
  368MOL0     H49625   3.912   4.786  10.739  0.2072  3.2262  0.0093
  368MOL0     H49626   3.823   4.860  10.870 -1.9769 -1.0404  1.0604
  368MOL0     H49627   3.816   4.560  10.788 -0.2310  0.8914 -1.6587
  368MOL0     H49628   3.859   4.646  10.934  0.0895 -1.1338  0.1717
  368MOL0     H49629   3.573   4.622  10.818 -0.0098 -3.2414 -0.3905
  368MOL0     H49630   3.624   4.723  10.959  1.2305 -0.3544  0.4965
  368MOL0     H49631   3.685   4.360  10.836  0.0735  0.8958  0.3407
  368MOL0     H49632   3.699   4.136  10.968 -1.0519 -2.7273 -2.6935
  368MOL0     H49633   3.589   4.116  11.113 -1.3785  2.0275  0.5152
  368MOL0     H49634   3.515   4.141  10.830 -0.2455  3.7774  0.9174
  368MOL0     H49635   3.398   4.136  10.954 -0.4975  0.5607 -3.0652
  368MOL0     H49636   3.418   3.924  10.848  1.1968 -2.3986 -1.3741
  368MOL0     H49637   3.457   3.908  11.023  0.5789  0.4651  0.0211
  368MOL0     H49638   3.682   3.870  10.993  0.1033 -0.1498 -0.0217
  368MOL0     H49639   3.678   3.935  10.830  3.8648  0.7665  3.6477
  368MOL0     H49640   3.594   3.575  10.641 -1.1141 -0.4530 -0.2560
  368MOL0     H49641   3.796   3.313  10.503  2.5145  1.0785  1.1143
  368MOL0     H49642   3.655   3.315  10.600  1.3228 -1.3160  0.7295
  368MOL0     H49643   3.685   3.442  10.468  0.3957  2.6660  2.0257
  368MOL0     H49644   4.242   3.392  10.561  0.0395  0.2767 -1.9956
  368MOL0     H49645   4.470   3.272  10.502  1.0914 -1.6751  2.3195
  368MOL0     H49646   4.583   3.185  10.314 -0.0436 -0.0863  1.2827
  368MOL0     H49647   4.663   3.086  10.442  1.5007  0.5487 -0.5725
  368MOL0     H49648   4.682   2.895  10.283  0.1551 -0.1579  0.3287
  368MOL0     H49649   4.603   3.005  10.159  1.3744  0.2702 -0.4332
  368MOL0     H49650   4.868   3.061  10.304  0.6085 -1.1866 -0.8626
  368MOL0     H49651   4.802   3.159  10.172  0.1054  2.3034  3.4962
  368MOL0     H49652   4.880   2.858  10.143  3.3254 -0.6426 -1.8979
  368MOL0     H49653   4.821   2.964  10.013 -0.3440  0.3067 -0.3437
  368MOL0     H49654   5.070   3.026  10.189  1.9101 -1.3004 -1.3173
  368MOL0     H49655   5.010   3.129  10.053 -4.0033  0.2260  0.3771
  368MOL0     H49656   5.107   2.835  10.022  0.6369 -0.5073 -1.8060
  368MOL0     H49657   5.055   2.953   9.896 -2.6458 -1.1032  1.2756
  368MOL0     H49658   5.283   2.989  10.070  0.3660 -0.6277 -1.0888
  368MOL0     H49659   5.233   3.100   9.933  2.8651  1.2983  0.9885
  368MOL0     H49660   5.311   2.816   9.881  0.1965 -0.3465 -1.2184
  368MOL0     H49661   5.424   2.943   9.873 -0.4370 -2.9394 -0.3279
  368MOL0     H49662   4.217   2.938  10.394  3.4334 -1.9249  2.6361
  368MOL0     H49663   4.027   3.044  10.523 -0.8634  0.9984  1.3723
  368MOL0     H49664   4.023   3.568  10.875 -1.2460  0.8365  5.0577
  368MOL0     H49665   3.854   3.720  10.948  0.1937  0.7922 -0.4281
  368MOL0     H49666   3.944   5.508  10.407  1.2335  1.7506 -1.8535
  368MOL0     H49667   4.188   5.567  10.413  0.8426  0.5084 -1.9049
  368MOL0     H49668   4.672   5.397  10.143 -0.2326  0.0577 -0.3086
  368MOL0     H49669   4.897   5.438  10.201 -0.7310  0.2078  1.0815
  368MOL0     H49670   4.973   5.762  10.482 -0.5609  0.1805 -2.2263
  368MOL0     H49671   5.013   5.638  10.618  0.9570  0.7975 -0.3306
  368MOL0     H49672   5.198   5.712  10.397  0.8657 -0.7511  0.0646
  368MOL0     H49673   5.223   5.615  10.547 -0.1709  0.2455 -0.9764
  368MOL0     H49674   5.214   5.786  10.690 -0.6297 -2.8620  0.5704
  368MOL0     H49675   5.161   5.910  10.573 -0.0442  1.2783  3.9571
  368MOL0     H49676   5.387   5.945  10.638 -0.3801 -0.5524  0.4338
  368MOL0     H49677   5.382   5.922  10.465  0.4841  0.2247 -0.3272
  368MOL0     H49678   5.600   5.585  10.603 -0.9963 -1.3975 -2.1088
  368MOL0     H49679   4.797   5.553  10.594  1.6947 -2.9790 -0.3722
  368MOL0     H49680   4.561   5.505  10.533 -1.7133  2.0565 -2.5573
  369MOL0     O49681   0.870   7.445   4.313 -0.1427 -0.6429 -0.6679
  369MOL0     C49682   0.885   7.328   4.282  0.3492  0.2369  0.8866
  369MOL0     O49683   0.787   7.232   4.292  0.4750 -0.4542 -0.2725
  369MOL0     C49684   0.671   7.274   4.350 -0.7187  0.7523  0.2954
  369MOL0     C49685   0.680   7.325   4.482  0.7585 -0.1555  0.1254
  369MOL0     C49686   0.556   7.332   4.556 -0.2244 -0.6606  0.1408
  369MOL0     C49687   0.436   7.326   4.496  0.7520  1.4677  0.0839
  369MOL0     O49688   0.319   7.319   4.569 -0.1780 -0.3860  0.0653
  369MOL0     C49689   0.318   7.399   4.684  0.0898 -0.7798 -0.1299
  369MOL0     C49690   0.309   7.308   4.806 -0.1997  0.0935  0.6853
  369MOL0     C49691   0.293   7.367   4.946 -0.2821 -0.6755  0.6538
  369MOL0     C49692   0.163   7.449   4.958 -0.4733 -0.2985 -0.4831
  369MOL0     C49693   0.035   7.366   4.931  0.1366  0.4657 -0.1414
  369MOL0     C49694  -0.082   7.439   4.978  1.2521 -0.2135  0.0550
  369MOL0     C49695  -0.223   7.389   4.923  0.8696  0.0441  0.5439
  369MOL0     C49696  -0.252   7.438   4.784 -0.3567 -0.1977  0.4869
  369MOL0     N49697  -0.394   7.437   4.749 -0.7583 -0.9212  0.1592
  369MOL0     C49698  -0.477   7.328   4.746  0.3239  0.3622 -0.0319
  369MOL0     C49699  -0.600   7.387   4.725  0.6012  0.6291  0.2085
  369MOL0     C49700  -0.729   7.309   4.706 -0.7961 -0.1147 -0.1038
  369MOL0     C49701  -0.854   7.387   4.739  0.2384 -0.2018 -0.4389
  369MOL0     C49702  -0.979   7.327   4.674  0.3618  0.1452 -0.8263
  369MOL0     C49703  -1.022   7.213   4.762 -0.1465  0.7133  0.9670
  369MOL0     O49704  -1.139   7.153   4.703 -0.5788 -0.4172 -0.0254
  369MOL0     C49705  -1.258   7.222   4.718 -0.0949 -0.5873 -0.4089
  369MOL0     C49706  -1.305   7.287   4.832  1.1858 -0.6261 -0.0153
  369MOL0     C49707  -1.429   7.349   4.843 -0.3264 -0.8504  0.8938
  369MOL0     C49708  -1.462   7.409   4.980  0.7760  0.6330 -0.5259
  369MOL0     C49709  -1.510   7.365   4.725  0.6083  0.5519  0.0768
  369MOL0     C49710  -1.631   7.440   4.713  0.4067 -0.8337 -0.7969
  369MOL0     O49711  -1.709   7.432   4.603  0.1003 -0.1884  0.5330
  369MOL0     C49712  -1.828   7.496   4.601 -0.1427 -0.5258 -0.0875
  369MOL0     C49713  -1.823   7.636   4.596  0.1147 -0.1404 -0.0985
  369MOL0     C49714  -1.933   7.715   4.583  0.5620 -0.2171  1.6112
  369MOL0     C49715  -2.060   7.649   4.580  0.0291  0.0902  0.9575
  369MOL0     O49716  -2.182   7.715   4.559 -0.3482  0.1136 -0.4581
  369MOL0     C49717  -2.207   7.834   4.641 -0.5882 -0.2360  0.3881
  369MOL0     C49718  -2.302   7.933   4.570 -0.0517  0.3638  0.5472
  369MOL0     C49719  -2.292   8.071   4.629 -0.3887  1.0552  0.5859
  369MOL0     C49720  -2.190   8.152   4.550 -0.1377  0.0664 -0.0146
  369MOL0     C49721  -2.162   8.291   4.595 -0.1348  0.2349 -0.3047
  369MOL0     C49722  -2.255   8.392   4.526  0.0684 -0.2770 -0.3971
  369MOL0     C49723  -2.272   8.515   4.605 -0.1685  0.3455 -1.4672
  369MOL0     C49724  -2.141   8.587   4.641  0.8267  0.3322 -0.4892
  369MOL0    Cl49725  -2.038   8.608   4.505 -0.3537  0.1835 -0.0307
  369MOL0     C49726  -2.069   7.506   4.585 -0.4126 -0.4431  0.2134
  369MOL0     C49727  -1.951   7.432   4.586  0.4232  0.9065 -1.4365
  369MOL0     O49728  -1.662   7.508   4.813 -0.0207 -0.7318  0.2771
  369MOL0     C49729  -1.464   7.303   4.612  1.0026 -1.0310 -0.4547
  369MOL0     C49730  -1.347   7.225   4.609  0.4889 -0.3801 -0.5013
  369MOL0     N49731  -0.581   7.521   4.701  0.2584 -0.2780 -0.0457
  369MOL0     N49732  -0.459   7.552   4.721 -0.1921  0.3494 -0.5154
  369MOL0     C49733   0.435   7.283   4.362 -0.1136  0.8284 -0.6757
  369MOL0     C49734   0.551   7.247   4.293 -0.1094  0.5865 -0.5247
  369MOL0     C49735   1.009   7.293   4.204  0.3635  0.7473 -0.0705
  369MOL0     C49736   1.099   7.384   4.144 -0.7105 -1.0093 -0.6925
  369MOL0     C49737   1.217   7.338   4.083  0.0180 -0.1824 -0.0363
  369MOL0     C49738   1.259   7.207   4.101  0.2661 -0.5060  0.8174
  369MOL0     O49739   1.386   7.155   4.077  0.7881 -0.2653  0.3793
  369MOL0     C49740   1.463   7.224   3.979 -0.6225 -0.3985  0.4209
  369MOL0     C49741   1.571   7.148   3.924 -0.4992 -0.3704  0.1171
  369MOL0     C49742   1.666   7.087   4.031 -0.2357  0.0352  0.7807
  369MOL0     C49743   1.809   7.052   3.980  0.5990 -0.8788 -0.4100
  369MOL0     C49744   1.918   7.056   4.080  0.4019 -0.8802  0.4750
  369MOL0     C49745   2.018   7.066   4.142  0.1771 -0.0972  0.0356
  369MOL0     C49746   1.172   7.120   4.158 -0.4099  0.3490  0.1999
  369MOL0     C49747   1.046   7.157   4.213 -0.6873 -0.1819  0.0140
  369MOL0     H49748   0.774   7.333   4.534 -0.9353  0.6027  3.3450
  369MOL0     H49749   0.565   7.345   4.664 -4.2116 -1.8524  0.7778
  369MOL0     H49750   0.403   7.467   4.696 -2.2513  2.2285  0.5690
  369MOL0     H49751   0.236   7.471   4.673  1.3741  0.9741  1.0873
  369MOL0     H49752   0.229   7.235   4.791 -2.1996  2.5608 -1.6868
  369MOL0     H49753   0.404   7.254   4.808 -1.2585 -2.0684 -1.5726
  369MOL0     H49754   0.289   7.277   5.008 -0.1350 -3.1800 -2.7146
  369MOL0     H49755   0.388   7.415   4.972  0.5576 -0.2882 -2.6650
  369MOL0     H49756   0.162   7.486   5.061  1.2172 -0.4127 -0.3958
  369MOL0     H49757   0.171   7.541   4.898  1.7613  1.7313  2.6207
  369MOL0     H49758   0.033   7.347   4.823 -1.5679  1.4026 -0.3261
  369MOL0     H49759   0.030   7.265   4.972  1.6358  0.9132  1.2141
  369MOL0     H49760  -0.076   7.418   5.086 -2.4001 -2.9487 -0.0899
  369MOL0     H49761  -0.079   7.548   4.967  1.6641  0.3243  3.9818
  369MOL0     H49762  -0.235   7.281   4.936  0.5950  0.2222  1.8832
  369MOL0     H49763  -0.304   7.431   4.984 -0.6574 -1.5075 -0.3101
  369MOL0     H49764  -0.198   7.386   4.705  1.6650  2.1346  0.2340
  369MOL0     H49765  -0.210   7.538   4.772 -1.7606  0.1342 -2.9662
  369MOL0     H49766  -0.460   7.222   4.762 -0.9694  0.1347 -0.0638
  369MOL0     H49767  -0.732   7.267   4.605 -3.8048 -1.5985  0.4775
  369MOL0     H49768  -0.725   7.222   4.771 -0.5146  1.2360  1.7581
  369MOL0     H49769  -0.839   7.488   4.700  0.8145 -0.3156 -0.5244
  369MOL0     H49770  -0.872   7.400   4.846 -0.8943 -1.2547 -0.4842
  369MOL0     H49771  -0.956   7.288   4.574 -0.0810  1.7705 -1.6050
  369MOL0     H49772  -1.060   7.401   4.669 -0.5141 -0.7910 -0.8004
  369MOL0     H49773  -1.048   7.248   4.862  1.7841  1.0392  1.3816
  369MOL0     H49774  -0.946   7.135   4.769 -0.2132  0.0835 -2.9296
  369MOL0     H49775  -1.248   7.277   4.924 -1.1968 -0.5223  1.5476
  369MOL0     H49776  -1.449   7.518   4.985 -0.8975  0.8532 -0.3468
  369MOL0     H49777  -1.566   7.398   5.009  0.9168  1.8857  0.5450
  369MOL0     H49778  -1.400   7.359   5.055  0.6765 -2.2988 -2.2457
  369MOL0     H49779  -1.724   7.679   4.589  1.5642 -3.3821 -1.2958
  369MOL0     H49780  -1.927   7.823   4.571 -2.5569  0.0453  1.6439
  369MOL0     H49781  -2.258   7.797   4.731 -0.8703  0.4412  0.5198
  369MOL0     H49782  -2.115   7.891   4.657 -0.1731 -0.7351 -0.1932
  369MOL0     H49783  -2.285   7.935   4.463 -4.8893  3.2816 -0.4951
  369MOL0     H49784  -2.406   7.900   4.580 -0.7633  1.7227 -1.7780
  369MOL0     H49785  -2.274   8.068   4.737 -0.7663 -0.2035  0.6278
  369MOL0     H49786  -2.393   8.113   4.618 -1.1535 -0.6294  0.9251
  369MOL0     H49787  -2.094   8.102   4.565  1.4216  2.8275 -0.0772
  369MOL0     H49788  -2.206   8.148   4.442  0.2158 -0.5476 -0.0488
  369MOL0     H49789  -2.059   8.326   4.585 -0.3347  2.0359  2.6685
  369MOL0     H49790  -2.174   8.283   4.704  3.1531 -0.3259  0.1081
  369MOL0     H49791  -2.211   8.407   4.426  2.3441 -2.7606  0.1152
  369MOL0     H49792  -2.352   8.343   4.530  0.8494 -1.7833  1.2750
  369MOL0     H49793  -2.323   8.494   4.700  1.0902  1.9661 -0.3682
  369MOL0     H49794  -2.339   8.578   4.546 -3.6078 -0.3803  1.2682
  369MOL0     H49795  -2.091   8.521   4.711 -0.1632 -1.3673 -1.3091
  369MOL0     H49796  -2.146   8.683   4.693  1.6589 -0.7751  1.7354
  369MOL0     H49797  -2.171   7.470   4.593 -1.2841  0.9081 -3.1466
  369MOL0     H49798  -1.971   7.326   4.573 -2.0956  0.5667  3.2138
  369MOL0     H49799  -1.533   7.309   4.528  0.3666 -3.3495 -0.1530
  369MOL0     H49800  -1.321   7.181   4.514  1.9084 -0.9297  0.1117
  369MOL0     H49801   0.340   7.280   4.308 -0.4514 -1.1172 -0.0354
  369MOL0     H49802   0.550   7.206   4.193  1.5923 -0.0809 -0.2967
  369MOL0     H49803   1.065   7.487   4.140 -2.5495 -1.6067 -3.8799
  369MOL0     H49804   1.281   7.404   4.025  1.4606 -0.0487  1.6262
  369MOL0     H49805   1.398   7.258   3.899 -2.1949  0.8611  2.1544
  369MOL0     H49806   1.504   7.309   4.034 -0.7825 -0.5548  0.7861
  369MOL0     H49807   1.635   7.203   3.853 -2.7374 -1.3063 -2.8106
  369MOL0     H49808   1.539   7.076   3.848 -3.2158  1.7334 -0.8869
  369MOL0     H49809   1.623   7.000   4.081 -0.4565  1.7979  3.9222
  369MOL0     H49810   1.675   7.162   4.110 -2.0139  2.0784 -0.8029
  369MOL0     H49811   1.853   7.126   3.913 -0.0692 -0.0898 -0.0023
  369MOL0     H49812   1.814   6.956   3.928  3.4062 -0.0157 -1.8992
  369MOL0     H49813   2.114   7.063   4.189 -0.0625 -0.0756  0.5340
  369MOL0     H49814   1.211   7.021   4.176  0.9999  0.8175 -0.1717
  369MOL0     H49815   0.986   7.079   4.258 -2.9681  2.7599  2.5062
  370MOL0     O49816   5.861   3.948  10.096 -0.0238  0.7585 -0.5715
  370MOL0     C49817   5.931   4.007  10.177  0.6337 -1.2971  0.3819
  370MOL0     O49818   5.901   4.046  10.296 -0.0567  0.0245  0.4814
  370MOL0     C49819   5.765   4.047  10.321  0.0720  0.2329 -0.0301
  370MOL0     C49820   5.735   3.981  10.432  0.7299  0.2532 -0.0129
  370MOL0     C49821   5.602   3.983  10.483  0.2714  0.2959 -0.6340
  370MOL0     C49822   5.495   4.043  10.419 -0.0080  1.2479 -0.0780
  370MOL0     O49823   5.371   4.040  10.462  1.1367 -0.6662 -0.3621
  370MOL0     C49824   5.324   3.928  10.549 -0.1360  0.2489  0.2294
  370MOL0     C49825   5.170   3.920  10.567 -0.1292 -0.3792 -0.1751
  370MOL0     C49826   5.106   3.865  10.445  0.2091  0.6242  1.1064
  370MOL0     C49827   4.956   3.866  10.469  0.4963 -0.9570  0.3469
  370MOL0     C49828   4.883   3.957  10.373  0.1991  0.2205 -0.0271
  370MOL0     C49829   4.733   3.978  10.412  0.0583 -0.7379 -0.3353
  370MOL0     C49830   4.645   4.010  10.286 -0.6510 -0.2488 -0.1812
  370MOL0     C49831   4.685   4.130  10.213  0.0075  0.0355  0.1474
  370MOL0     N49832   4.782   4.108  10.099 -0.2793  0.5458 -0.4864
  370MOL0     C49833   4.904   4.183  10.091  0.6648  0.7638  1.3278
  370MOL0     C49834   4.968   4.116   9.992 -0.5493  0.8531 -0.3972
  370MOL0     C49835   5.097   4.150   9.925  0.3613 -0.3687  0.1763
  370MOL0     C49836   5.229   4.079   9.973 -0.1425  0.1581 -0.6045
  370MOL0     C49837   5.352   4.154   9.924  0.6726 -0.3131 -0.0007
  370MOL0     C49838   5.394   4.128   9.777  0.8293 -0.9248 -0.0265
  370MOL0     O49839   5.470   4.239   9.744 -0.6942  0.0254 -0.3764
  370MOL0     C49840   5.607   4.216   9.726 -0.3515  0.0258 -1.2084
  370MOL0     C49841   5.702   4.264   9.817 -0.8942 -0.0742 -0.6097
  370MOL0     C49842   5.835   4.242   9.796 -0.1926  0.6492  0.9026
  370MOL0     C49843   5.937   4.265   9.905  0.3849  0.2690  0.3840
  370MOL0     C49844   5.888   4.188   9.670  1.0522  0.4347 -0.1771
  370MOL0     C49845   6.032   4.175   9.640 -0.3479 -0.3133 -0.3463
  370MOL0     O49846   6.119   4.264   9.698 -0.0203  0.1642  0.2278
  370MOL0     C49847   6.245   4.256   9.645 -0.5652 -0.5660  0.3817
  370MOL0     C49848   6.264   4.294   9.512 -0.5182 -0.4504  0.1056
  370MOL0     C49849   6.392   4.292   9.459  0.7360 -0.8897  0.6149
  370MOL0     C49850   6.501   4.251   9.540  0.1841 -0.8859  0.2860
  370MOL0     O49851   6.633   4.252   9.498  0.5377  0.9380 -0.9504
  370MOL0     C49852   6.678   4.339   9.390 -0.1395  0.6167  0.0981
  370MOL0     C49853   6.836   4.347   9.368 -0.3108 -0.0182 -0.6453
  370MOL0     C49854   6.909   4.332   9.501 -0.5184 -0.0895  0.1886
  370MOL0     C49855   7.060   4.329   9.501 -0.3574 -0.3231  0.1391
  370MOL0     C49856   7.133   4.464   9.518 -0.0539 -0.2730 -0.4637
  370MOL0     C49857   7.275   4.470   9.464  0.2159 -0.4442 -0.4996
  370MOL0     C49858   7.340   4.603   9.500 -0.7628 -0.9916 -0.2981
  370MOL0     C49859   7.366   4.644   9.646 -0.0544  0.2700  0.0259
  370MOL0    Cl49860   7.417   4.817   9.659  0.3767  0.2085 -0.0605
  370MOL0     C49861   6.474   4.214   9.666  0.1568 -0.3813 -0.5202
  370MOL0     C49862   6.349   4.227   9.725  0.0779 -0.4825  0.2974
  370MOL0     O49863   6.062   4.088   9.558 -0.0857 -0.0119 -0.1656
  370MOL0     C49864   5.789   4.141   9.577  0.6093  0.5080  0.0732
  370MOL0     C49865   5.652   4.155   9.609  0.7072 -0.2812  0.4052
  370MOL0     N49866   4.884   4.021   9.938  0.3157  0.7789  0.2193
  370MOL0     N49867   4.771   4.026   9.995  1.0272 -0.2695 -0.0277
  370MOL0     C49868   5.527   4.110  10.301  0.7563  0.3483  0.3153
  370MOL0     C49869   5.664   4.122  10.254  0.0995  0.7977 -0.6463
  370MOL0     C49870   6.074   4.031  10.152  0.7484 -0.6982 -0.2388
  370MOL0     C49871   6.143   4.117  10.243 -0.2839 -0.0305 -0.5429
  370MOL0     C49872   6.270   4.149  10.203  0.9609  0.3504 -0.2110
  370MOL0     C49873   6.338   4.092  10.089  0.7147 -0.1015  0.9102
  370MOL0     O49874   6.469   4.123  10.050  0.5199 -1.3491 -0.4798
  370MOL0     C49875   6.556   4.187  10.138 -0.2169  0.4258  0.1919
  370MOL0     C49876   6.693   4.130  10.105 -0.1881 -0.2497  0.0969
  370MOL0     C49877   6.705   3.978  10.069  1.4179  0.8920 -0.7241
  370MOL0     C49878   6.841   3.934  10.029  0.7460  0.2212 -0.2256
  370MOL0     C49879   6.935   3.958  10.138  1.0641  1.0586  0.5402
  370MOL0     C49880   7.016   3.967  10.220 -0.1128 -0.6563  0.2527
  370MOL0     C49881   6.269   4.008  10.004  0.3839  0.2847  0.0210
  370MOL0     C49882   6.135   3.977  10.037 -0.0739 -0.1882  0.1237
  370MOL0     H49883   5.807   3.914  10.476 -1.0595 -0.4580  1.9841
  370MOL0     H49884   5.590   3.922  10.573  0.6598 -2.0617 -2.0909
  370MOL0     H49885   5.357   3.831  10.511 -3.2388 -0.4175 -1.0794
  370MOL0     H49886   5.367   3.944  10.648 -1.7319 -0.7435  1.1258
  370MOL0     H49887   5.145   3.860  10.655 -0.5034  2.1500  1.5488
  370MOL0     H49888   5.126   4.020  10.576 -0.1284  0.0022 -3.2721
  370MOL0     H49889   5.150   3.936  10.374  1.1894 -2.0436 -1.1664
  370MOL0     H49890   5.142   3.764  10.424  2.5201  1.5548  0.2216
  370MOL0     H49891   4.917   3.767  10.440  0.6558 -0.9238  0.0220
  370MOL0     H49892   4.933   3.882  10.575  0.2401 -4.2754  0.9013
  370MOL0     H49893   4.935   4.053  10.364 -0.0930  0.3044 -0.9274
  370MOL0     H49894   4.891   3.905  10.277  0.0300  0.4532 -0.1694
  370MOL0     H49895   4.693   3.886  10.455 -2.3032 -1.0400 -2.8882
  370MOL0     H49896   4.735   4.058  10.487 -2.5500 -2.1308  1.3946
  370MOL0     H49897   4.644   3.914  10.232 -1.2103 -1.0245  1.1387
  370MOL0     H49898   4.545   4.039  10.319 -0.4839  1.6922 -1.2586
  370MOL0     H49899   4.725   4.197  10.290 -1.8608  0.7484  0.5483
  370MOL0     H49900   4.599   4.180  10.169  1.6174  2.5682 -0.3107
  370MOL0     H49901   4.938   4.260  10.158 -1.6284  2.6002  0.5182
  370MOL0     H49902   5.092   4.134   9.817 -1.6549 -0.9232  0.3103
  370MOL0     H49903   5.123   4.256   9.934  4.6119 -0.9622 -2.4997
  370MOL0     H49904   5.235   3.970   9.961  0.7375 -0.4316  3.6175
  370MOL0     H49905   5.230   4.071  10.082  0.8118 -1.7934 -0.7177
  370MOL0     H49906   5.434   4.122   9.988  1.2072 -0.7628 -0.8877
  370MOL0     H49907   5.328   4.261   9.932 -0.0568 -0.4938  0.3630
  370MOL0     H49908   5.308   4.115   9.711  0.5697  2.1030 -0.4233
  370MOL0     H49909   5.457   4.039   9.769 -0.6411 -2.2285  2.0118
  370MOL0     H49910   5.670   4.303   9.913 -2.2381 -1.4346 -0.4610
  370MOL0     H49911   5.997   4.174   9.896 -0.1772  0.0452 -1.8443
  370MOL0     H49912   5.997   4.356   9.891  1.8820 -0.7054  0.3054
  370MOL0     H49913   5.884   4.272  10.000  0.7186  3.4712  0.4666
  370MOL0     H49914   6.192   4.325   9.436  1.8545 -0.5309 -2.3265
  370MOL0     H49915   6.398   4.300   9.351 -0.5995  4.0893  0.6712
  370MOL0     H49916   6.620   4.310   9.302  1.0362 -0.7080 -0.2676
  370MOL0     H49917   6.644   4.440   9.417  3.3927  1.9363  0.1475
  370MOL0     H49918   6.849   4.260   9.303 -2.6862  1.2646 -3.0344
  370MOL0     H49919   6.863   4.441   9.318  0.3196 -0.9723 -2.1722
  370MOL0     H49920   6.880   4.232   9.534  2.0900 -0.8067  0.5581
  370MOL0     H49921   6.873   4.405   9.574  2.3865  1.6480  0.0727
  370MOL0     H49922   7.094   4.254   9.573 -1.8590  1.3956  2.8512
  370MOL0     H49923   7.100   4.292   9.407  3.1513  1.6159  0.7016
  370MOL0     H49924   7.128   4.506   9.619 -1.7415  0.4804 -0.8221
  370MOL0     H49925   7.074   4.536   9.461 -2.6956  0.0958  2.4614
  370MOL0     H49926   7.329   4.388   9.511  0.8487 -0.2659 -0.9078
  370MOL0     H49927   7.265   4.453   9.356  2.6157  0.3414 -0.9023
  370MOL0     H49928   7.274   4.685   9.467  0.4188 -1.0362 -3.0753
  370MOL0     H49929   7.433   4.608   9.443 -0.2331  2.9584  0.6166
  370MOL0     H49930   7.438   4.577   9.694 -2.0927 -0.1952  2.6664
  370MOL0     H49931   7.277   4.644   9.709 -0.2168 -0.9453 -0.1775
  370MOL0     H49932   6.559   4.198   9.732 -1.0353  1.2061  1.5571
  370MOL0     H49933   6.332   4.200   9.829  0.1559 -2.6877 -0.2008
  370MOL0     H49934   5.822   4.077   9.496 -2.6210 -1.4644  0.1283
  370MOL0     H49935   5.572   4.118   9.547  0.5368  0.9403 -0.1375
  370MOL0     H49936   5.450   4.164  10.246  0.5250 -0.8587 -0.5880
  370MOL0     H49937   5.678   4.181  10.164  1.2092  2.2564  0.4280
  370MOL0     H49938   6.103   4.159  10.335 -0.4689  1.8744 -1.4453
  370MOL0     H49939   6.323   4.228  10.254 -2.1760  3.0090 -0.7197
  370MOL0     H49940   6.546   4.295  10.118  0.3677 -0.0158 -3.1269
  370MOL0     H49941   6.526   4.160  10.239  0.7056  3.1457  1.2877
  370MOL0     H49942   6.750   4.162  10.193  3.1271  0.7008 -2.1977
  370MOL0     H49943   6.741   4.192  10.028  1.9168 -0.2448  1.3240
  370MOL0     H49944   6.636   3.951   9.989  1.6329  1.6775 -1.1875
  370MOL0     H49945   6.669   3.922  10.156  0.1768 -1.1846 -2.4888
  370MOL0     H49946   6.861   3.982   9.934 -1.9806 -1.0002 -1.5434
  370MOL0     H49947   6.848   3.829  10.000 -0.0825  0.2473 -0.5529
  370MOL0     H49948   7.080   3.978  10.306 -1.4140  0.2866  1.1411
  370MOL0     H49949   6.308   3.966   9.912 -0.6459 -0.5949 -0.0363
  370MOL0     H49950   6.074   3.911   9.975  0.4662 -2.4056  1.8045
  371MOL0     O49951   4.449  10.856   9.908 -0.3874  0.4359 -0.1881
  371MOL0     C49952   4.576  10.849   9.894  0.7146  0.4654  0.2032
  371MOL0     O49953   4.664  10.767   9.961 -0.3052  0.9665 -0.0654
  371MOL0     C49954   4.612  10.649  10.002  0.3416  1.3880  0.3015
  371MOL0     C49955   4.650  10.618  10.137 -0.2507  0.0728  0.7484
  371MOL0     C49956   4.582  10.512  10.202 -0.1165  0.4633  0.2479
  371MOL0     C49957   4.485  10.430  10.133  0.3232  0.4946  0.0800
  371MOL0     O49958   4.420  10.311  10.174 -0.0517 -1.1691 -0.1940
  371MOL0     C49959   4.281  10.322  10.171  0.1569  1.0427  0.7616
  371MOL0     C49960   4.245  10.203  10.250  0.4146  0.5077 -0.1343
  371MOL0     C49961   4.093  10.206  10.282 -0.2268  0.5944 -0.1664
  371MOL0     C49962   4.046  10.061  10.317  0.1244 -0.2810  0.3761
  371MOL0     C49963   3.895  10.071  10.345 -0.6184  0.2013 -0.4046
  371MOL0     C49964   3.842   9.936  10.389  0.6790 -0.1088  0.5527
  371MOL0     C49965   3.694   9.918  10.347  0.2502  0.8055  0.1760
  371MOL0     C49966   3.659   9.770  10.391 -0.5745  0.0934  0.6615
  371MOL0     N49967   3.512   9.733  10.372  0.1181 -0.0823 -0.1943
  371MOL0     C49968   3.447   9.677  10.259  0.6802 -0.0759  0.6054
  371MOL0     C49969   3.324   9.641  10.307  0.2604  0.6780  0.0650
  371MOL0     C49970   3.214   9.608  10.211 -0.4177  0.1191 -0.2410
  371MOL0     C49971   3.254   9.559  10.069 -0.3048  0.4842  0.3614
  371MOL0     C49972   3.318   9.422  10.068 -0.4918  0.1873 -0.1387
  371MOL0     C49973   3.360   9.383   9.923 -0.6656 -0.3346  0.1817
  371MOL0     O49974   3.454   9.474   9.865  0.4531  0.6327  0.2296
  371MOL0     C49975   3.570   9.512   9.928  0.0570  0.7162 -0.9646
  371MOL0     C49976   3.623   9.637   9.898  0.3878  0.4776 -0.5737
  371MOL0     C49977   3.749   9.683   9.945  0.4501 -0.2862 -0.9821
  371MOL0     C49978   3.789   9.826   9.902 -0.5096 -0.3193  0.3961
  371MOL0     C49979   3.830   9.594  10.023 -0.3179  0.1735 -0.4641
  371MOL0     C49980   3.960   9.628  10.087  0.4478  0.0463 -0.0481
  371MOL0     O49981   4.056   9.690  10.013  0.5901 -0.2903 -0.3487
  371MOL0     C49982   4.182   9.721  10.052  0.7660 -1.0009 -0.0624
  371MOL0     C49983   4.270   9.716   9.945 -0.6056  0.1561 -0.3935
  371MOL0     C49984   4.392   9.775   9.972  0.3049 -0.3945  0.2588
  371MOL0     C49985   4.430   9.837  10.091 -0.8563  0.6757  0.6126
  371MOL0     O49986   4.558   9.892  10.094 -0.5372  0.4328 -0.3574
  371MOL0     C49987   4.601   9.977  10.202 -0.4396  0.3942  0.0131
  371MOL0     C49988   4.734  10.028  10.162 -0.6206 -0.3047  0.2307
  371MOL0     C49989   4.723  10.112  10.034  0.1671  0.5115  0.3834
  371MOL0     C49990   4.830  10.216  10.033 -0.6712  0.0069  0.1542
  371MOL0     C49991   4.826  10.315   9.915 -0.9919 -0.7952 -0.2719
  371MOL0     C49992   4.936  10.420   9.949  0.3765 -0.2459  0.0376
  371MOL0     C49993   4.934  10.523   9.834  0.2917  0.6887  0.2218
  371MOL0     C49994   5.019  10.643   9.866  0.0698 -1.1133  0.0663
  371MOL0    Cl49995   5.171  10.594   9.951 -0.2226  0.0838 -0.7649
  371MOL0     C49996   4.337   9.840  10.196 -0.2165 -0.5891  0.2498
  371MOL0     C49997   4.211   9.791  10.173  0.6217  0.2853  0.0261
  371MOL0     O49998   3.966   9.604  10.206 -0.3523 -0.1763  0.2125
  371MOL0     C49999   3.778   9.463  10.058  0.6194  0.7331  0.0116
  371MOL0     C50000   3.647   9.426  10.016 -0.4998 -1.0032 -0.1997
  371MOL0     N50001   3.317   9.658  10.443 -0.4197  0.1596  0.5137
  371MOL0     N50002   3.428   9.714  10.480  0.5280 -0.5475 -0.3445
  371MOL0     C50003   4.465  10.457   9.995  0.6853 -0.2415  0.0508
  371MOL0     C50004   4.525  10.561   9.929  0.9563 -0.8321  0.0800
  371MOL0     C50005   4.636  10.971   9.838 -0.4570 -0.4375  0.1082
  371MOL0     C50006   4.568  11.065   9.751  0.2718  0.0419 -0.6331
  371MOL0     C50007   4.631  11.179   9.701  0.7419  0.4565 -0.5415
  371MOL0     C50008   4.756  11.212   9.751  0.0302 -1.3020  0.4881
  371MOL0     O50009   4.824  11.324   9.717 -0.0347  0.3343 -0.0090
  371MOL0     C50010   4.755  11.453   9.719 -0.5042 -0.7198 -0.2469
  371MOL0     C50011   4.867  11.557   9.728  0.5201 -0.0726 -0.4224
  371MOL0     C50012   4.925  11.583   9.865  0.2327  0.2122 -0.3091
  371MOL0     C50013   5.015  11.468   9.924 -0.7977  0.0281  0.2817
  371MOL0     C50014   5.139  11.456   9.857  0.0138 -0.9179 -0.4028
  371MOL0     C50015   5.247  11.471   9.814 -0.0410 -0.5575  0.2377
  371MOL0     C50016   4.816  11.124   9.841  0.2434 -0.6359  0.2020
  371MOL0     C50017   4.767  11.001   9.877  0.8172  0.1111 -0.4855
  371MOL0     H50018   4.716  10.677  10.201  1.1358 -1.5983  0.9276
  371MOL0     H50019   4.588  10.493  10.308  1.3845  1.6793  0.4139
  371MOL0     H50020   4.242  10.405  10.230 -0.8735 -1.2039  3.4261
  371MOL0     H50021   4.239  10.329  10.070  1.7025 -1.7474 -0.2011
  371MOL0     H50022   4.275  10.118  10.189  1.3810  1.7643 -1.4881
  371MOL0     H50023   4.294  10.191  10.347  0.3305 -2.2015 -0.3410
  371MOL0     H50024   4.088  10.280  10.363  1.6330 -0.3319  0.8707
  371MOL0     H50025   4.043  10.246  10.193 -0.5674  1.2668  0.3155
  371MOL0     H50026   4.078   9.995  10.236  0.4630  0.1812  0.1262
  371MOL0     H50027   4.107  10.021  10.399  0.8005  0.2832  0.1625
  371MOL0     H50028   3.879  10.153  10.417 -1.5460  0.8188 -1.2921
  371MOL0     H50029   3.838  10.103  10.258 -2.0357  2.6502  1.2884
  371MOL0     H50030   3.896   9.847  10.357 -1.0611 -0.1977 -2.5146
  371MOL0     H50031   3.840   9.937  10.499 -0.9264  1.2417  0.5549
  371MOL0     H50032   3.627   9.991  10.395 -0.1067  0.4154  0.2777
  371MOL0     H50033   3.674   9.926  10.240 -0.9553  0.7155  0.3745
  371MOL0     H50034   3.685   9.762  10.497  1.3251  0.8970  0.2948
  371MOL0     H50035   3.733   9.698  10.354  0.5268 -1.2546  4.8525
  371MOL0     H50036   3.482   9.687  10.157  0.3018  0.8018  0.5602
  371MOL0     H50037   3.138   9.542  10.254 -1.0285  1.3818  0.7115
  371MOL0     H50038   3.143   9.688  10.190 -1.4349 -0.5481  0.5641
  371MOL0     H50039   3.313   9.634  10.017 -1.0687  1.3041  0.6529
  371MOL0     H50040   3.166   9.535  10.008 -0.1118 -0.6061  0.4832
  371MOL0     H50041   3.255   9.340  10.103 -1.8601  1.0702 -0.4388
  371MOL0     H50042   3.404   9.420  10.136 -0.5861  1.5102  0.0553
  371MOL0     H50043   3.265   9.379   9.870  0.4618 -0.5175 -1.9550
  371MOL0     H50044   3.411   9.286   9.933  2.0535  1.0585  0.6818
  371MOL0     H50045   3.555   9.697   9.838 -0.3053  0.1825 -0.0902
  371MOL0     H50046   3.738   9.857   9.811 -0.3275 -1.6412 -0.1767
  371MOL0     H50047   3.763   9.897   9.982 -2.4507 -1.0381  0.4528
  371MOL0     H50048   3.898   9.829   9.895 -0.5757  1.4342 -0.3428
  371MOL0     H50049   4.270   9.677   9.844  4.5850 -0.2212 -0.4861
  371MOL0     H50050   4.457   9.765   9.886 -1.1909 -0.7548 -0.8826
  371MOL0     H50051   4.529  10.058  10.222 -0.7817 -0.3162  1.9609
  371MOL0     H50052   4.615   9.927  10.298  0.3265  1.2188  0.3528
  371MOL0     H50053   4.767  10.090  10.246 -2.2442  0.8060  0.1118
  371MOL0     H50054   4.810   9.953  10.141 -0.0592  0.3113  0.0262
  371MOL0     H50055   4.627  10.166  10.030 -0.5091 -0.6918 -0.5657
  371MOL0     H50056   4.726  10.053   9.942 -2.5989 -1.9306  1.6861
  371MOL0     H50057   4.806  10.273  10.123  2.2705 -0.4879  1.3586
  371MOL0     H50058   4.925  10.163  10.034  0.1214  1.3882  1.2026
  371MOL0     H50059   4.724  10.348   9.896 -0.8076 -0.0233  0.0625
  371MOL0     H50060   4.864  10.258   9.829  1.3519 -0.1450  0.2369
  371MOL0     H50061   4.917  10.466  10.046  0.6217  0.4307 -0.2285
  371MOL0     H50062   5.033  10.373   9.934  1.8326  2.4554  0.3614
  371MOL0     H50063   4.835  10.555   9.800  0.3570  0.8267  0.1571
  371MOL0     H50064   4.975  10.471   9.747  1.3324 -1.5297  1.9537
  371MOL0     H50065   4.963  10.708   9.934  1.4934  1.8557 -1.4296
  371MOL0     H50066   5.044  10.693   9.772 -0.0162  3.1733  2.1023
  371MOL0     H50067   4.364   9.887  10.290 -2.1361 -0.4111  0.7484
  371MOL0     H50068   4.127   9.786  10.243  1.9765  1.4160  1.8239
  371MOL0     H50069   3.839   9.395  10.116 -4.1301 -1.6963  2.8398
  371MOL0     H50070   3.606   9.330  10.047  0.0911 -0.2752  3.2971
  371MOL0     H50071   4.418  10.377   9.938 -0.0888  0.0605  0.2541
  371MOL0     H50072   4.517  10.575   9.821  0.5775  1.2980  0.3504
  371MOL0     H50073   4.474  11.024   9.716 -0.6166  1.9936 -0.6929
  371MOL0     H50074   4.594  11.241   9.620  0.0644 -0.1646 -0.7187
  371MOL0     H50075   4.703  11.458   9.623 -0.3286  0.7343 -0.2968
  371MOL0     H50076   4.688  11.456   9.806 -0.9646  2.1493 -0.5960
  371MOL0     H50077   4.833  11.646   9.674 -0.7293 -0.8778 -1.0031
  371MOL0     H50078   4.950  11.531   9.662  0.5130  2.0327 -1.3578
  371MOL0     H50079   4.843  11.607   9.934  0.5814 -2.6454  1.2528
  371MOL0     H50080   4.983  11.676   9.861  0.6120  0.0437  0.7816
  371MOL0     H50081   4.971  11.369   9.911  0.0964 -0.4375  0.7590
  371MOL0     H50082   5.030  11.487  10.030  3.1708 -0.5566 -0.0222
  371MOL0     H50083   5.343  11.471   9.768 -0.4100 -0.3664 -0.5486
  371MOL0     H50084   4.906  11.160   9.889 -0.3103 -1.1578  1.6993
  371MOL0     H50085   4.820  10.952   9.958 -1.1980 -0.7419  0.3836
  372MOL0     O50086   1.582   8.151   1.588 -0.5670  0.2326  0.1617
  372MOL0     C50087   1.487   8.083   1.557  0.9361  0.2003 -0.0655
  372MOL0     O50088   1.490   7.965   1.486 -0.1407 -0.4994 -0.2907
  372MOL0     C50089   1.597   7.914   1.426 -0.3012 -0.5290 -0.0499
  372MOL0     C50090   1.699   7.989   1.365 -0.3160 -0.3789  0.1342
  372MOL0     C50091   1.817   7.931   1.327 -0.0250  0.0208 -0.0151
  372MOL0     C50092   1.835   7.791   1.340  1.0871 -0.1128 -0.9785
  372MOL0     O50093   1.952   7.734   1.286 -0.6559  0.0877 -0.3017
  372MOL0     C50094   1.991   7.601   1.303  0.4283  0.1652 -1.0372
  372MOL0     C50095   2.114   7.566   1.209  0.5889 -0.0972 -0.2717
  372MOL0     C50096   2.236   7.671   1.225  0.5823  0.1859 -1.1619
  372MOL0     C50097   2.341   7.629   1.123 -0.6798  0.2285  0.4632
  372MOL0     C50098   2.461   7.715   1.089 -0.7998  0.9265  0.0856
  372MOL0     C50099   2.436   7.854   1.026  0.0362  0.6786  0.5997
  372MOL0     C50100   2.561   7.931   0.999  0.8038 -0.5289 -0.3657
  372MOL0     C50101   2.525   8.064   0.937  0.0364 -0.2174  0.5753
  372MOL0     N50102   2.654   8.129   0.899  0.0078  0.7532  0.2783
  372MOL0     C50103   2.760   8.150   0.982  0.0624 -0.8496  0.8049
  372MOL0     C50104   2.866   8.201   0.905 -0.4047 -0.4874  0.0807
  372MOL0     C50105   2.991   8.252   0.953  0.0895 -0.4296  1.2296
  372MOL0     C50106   3.040   8.370   0.871 -0.4203  1.1760 -0.4618
  372MOL0     C50107   3.176   8.430   0.924  0.6155 -0.2616  0.4129
  372MOL0     C50108   3.200   8.569   0.854  0.0191  0.4224 -0.8547
  372MOL0     O50109   3.249   8.538   0.722  0.2650  0.0314 -0.1675
  372MOL0     C50110   3.342   8.622   0.664  0.8009 -0.4016 -0.3350
  372MOL0     C50111   3.305   8.720   0.578 -0.2991  0.1898 -0.4256
  372MOL0     C50112   3.408   8.802   0.525  0.0950  0.2680  0.9383
  372MOL0     C50113   3.362   8.896   0.424  0.3433 -0.6887  0.7442
  372MOL0     C50114   3.542   8.790   0.558  0.2799  0.0944 -0.5645
  372MOL0     C50115   3.656   8.858   0.486  0.0612 -0.3951 -1.0027
  372MOL0     O50116   3.777   8.801   0.508  0.2681 -0.3836 -0.1023
  372MOL0     C50117   3.899   8.854   0.468  0.9183 -0.2152 -0.1063
  372MOL0     C50118   4.011   8.787   0.516  0.5093 -0.8752  0.2742
  372MOL0     C50119   4.134   8.825   0.484 -0.2390 -0.5564 -0.1569
  372MOL0     C50120   4.158   8.945   0.411 -0.3507 -0.3694 -0.7095
  372MOL0     O50121   4.292   8.975   0.390  0.3056 -0.2687 -0.0909
  372MOL0     C50122   4.314   9.038   0.265  0.5834 -0.4203 -0.3517
  372MOL0     C50123   4.464   9.017   0.226 -0.1306  0.5029  0.5742
  372MOL0     C50124   4.540   9.106   0.312 -0.1396  0.2227  0.5943
  372MOL0     C50125   4.685   9.109   0.266 -0.4232 -0.0092 -0.1177
  372MOL0     C50126   4.780   9.159   0.379  0.0662 -0.2331 -0.2975
  372MOL0     C50127   4.928   9.186   0.337  0.6110  0.2565  0.4963
  372MOL0     C50128   5.001   9.048   0.315  0.0017  0.0786 -0.9642
  372MOL0     C50129   5.139   9.080   0.258  0.1270  0.2892  0.2727
  372MOL0    Cl50130   5.245   9.159   0.382  0.3053  0.4606  0.5728
  372MOL0     C50131   4.050   9.018   0.360 -0.0928  0.0121  0.2915
  372MOL0     C50132   3.922   8.973   0.398  0.5603  0.4727 -0.1215
  372MOL0     O50133   3.627   8.958   0.420 -0.8693  0.1576  0.6000
  372MOL0     C50134   3.572   8.691   0.650  0.1563 -0.1029 -0.2540
  372MOL0     C50135   3.480   8.600   0.696  0.1892 -0.5237  0.2381
  372MOL0     N50136   2.826   8.175   0.770  0.6921  0.0540  0.7504
  372MOL0     N50137   2.704   8.134   0.767 -0.1110  0.2932  0.3821
  372MOL0     C50138   1.729   7.713   1.384  0.3490 -0.4104 -0.3131
  372MOL0     C50139   1.616   7.774   1.432  0.4667  0.0020 -0.3053
  372MOL0     C50140   1.348   8.124   1.599 -0.1251  0.5918 -0.4752
  372MOL0     C50141   1.245   8.031   1.624  0.7781 -1.1065  0.7479
  372MOL0     C50142   1.120   8.065   1.683  0.5890 -0.8342 -0.1523
  372MOL0     C50143   1.092   8.199   1.706  0.3255 -0.1538  0.2106
  372MOL0     O50144   0.979   8.240   1.768  0.1720 -0.1544 -0.3473
  372MOL0     C50145   0.855   8.195   1.719 -0.3601  0.3034  0.4303
  372MOL0     C50146   0.747   8.298   1.759 -0.4220 -0.5215 -0.3071
  372MOL0     C50147   0.631   8.240   1.835  0.8794 -0.0819 -0.3953
  372MOL0     C50148   0.529   8.343   1.898 -1.6409  0.6814  0.3789
  372MOL0     C50149   0.386   8.305   1.903 -1.3851  0.1205 -0.3022
  372MOL0     C50150   0.273   8.273   1.913 -0.3539  0.7484 -0.4041
  372MOL0     C50151   1.196   8.296   1.697 -0.3312 -0.2616 -0.3251
  372MOL0     C50152   1.320   8.257   1.641 -0.0675 -0.2449  0.0780
  372MOL0     H50153   1.677   8.095   1.364 -0.3416 -0.3872 -0.1664
  372MOL0     H50154   1.909   7.984   1.302  0.9320 -0.6195  1.9560
  372MOL0     H50155   2.008   7.591   1.410 -2.0537 -0.9248 -0.6854
  372MOL0     H50156   1.906   7.536   1.284 -0.8002  1.6511 -0.7944
  372MOL0     H50157   2.135   7.461   1.229 -3.6975 -1.1984 -0.5342
  372MOL0     H50158   2.078   7.576   1.106  2.5204  2.6137 -0.7995
  372MOL0     H50159   2.200   7.772   1.206  2.8504  2.0345  2.9539
  372MOL0     H50160   2.277   7.676   1.326 -0.2636 -0.7439 -0.7471
  372MOL0     H50161   2.372   7.532   1.163 -1.9948 -0.4970 -0.1953
  372MOL0     H50162   2.299   7.590   1.030  3.8613 -2.3270 -0.8028
  372MOL0     H50163   2.521   7.732   1.179  0.7426 -4.7499  0.5242
  372MOL0     H50164   2.522   7.668   1.012 -3.6523  1.4304 -2.6654
  372MOL0     H50165   2.388   7.837   0.929  2.2812  1.4251 -0.6977
  372MOL0     H50166   2.362   7.917   1.077 -2.6480  0.6792 -2.9030
  372MOL0     H50167   2.607   7.939   1.098 -2.3014  0.6244  1.1036
  372MOL0     H50168   2.617   7.874   0.925  0.0669 -0.6393 -0.8512
  372MOL0     H50169   2.469   8.119   1.013 -0.2414 -0.5220  0.5915
  372MOL0     H50170   2.465   8.055   0.846 -0.2235 -1.6068  0.8635
  372MOL0     H50171   2.746   8.154   1.090  0.3803  1.1778  0.8026
  372MOL0     H50172   2.980   8.290   1.055  1.2866  0.6367  0.9849
  372MOL0     H50173   3.066   8.173   0.953  0.1510 -0.3724  1.2743
  372MOL0     H50174   2.968   8.451   0.869  0.8804  2.4965  1.8567
  372MOL0     H50175   3.055   8.331   0.770  2.7274  0.1063  0.2957
  372MOL0     H50176   3.266   8.368   0.911  2.3540  2.1642  0.2811
  372MOL0     H50177   3.175   8.451   1.032  0.1220  0.7248  0.2250
  372MOL0     H50178   3.278   8.617   0.914  0.3656 -2.1106  0.8828
  372MOL0     H50179   3.113   8.635   0.860 -1.1565 -0.8673 -2.7176
  372MOL0     H50180   3.203   8.725   0.541 -0.7256 -0.8907  0.5350
  372MOL0     H50181   3.388   8.999   0.453 -1.9513 -0.1385  1.0368
  372MOL0     H50182   3.406   8.877   0.326 -0.1860 -0.5495  0.4797
  372MOL0     H50183   3.253   8.898   0.415  0.4157  0.4693 -0.1021
  372MOL0     H50184   3.999   8.696   0.574 -0.2085 -2.5306 -2.2954
  372MOL0     H50185   4.219   8.777   0.531  2.2321  2.9925 -0.5452
  372MOL0     H50186   4.248   9.000   0.187  0.7045  0.1939 -0.7649
  372MOL0     H50187   4.306   9.147   0.271  2.0054 -0.2050 -1.6510
  372MOL0     H50188   4.478   8.909   0.234  0.7233  0.7223  2.8550
  372MOL0     H50189   4.479   9.046   0.122 -2.4234 -0.5528 -0.1130
  372MOL0     H50190   4.535   9.078   0.417  0.4208 -0.9983  0.3121
  372MOL0     H50191   4.514   9.212   0.300  3.0568  1.0546  0.2083
  372MOL0     H50192   4.726   9.011   0.238  2.4714  1.0387  0.0470
  372MOL0     H50193   4.687   9.172   0.176  3.2349 -0.7680 -0.7661
  372MOL0     H50194   4.789   9.085   0.458 -0.5293  1.7678  1.7530
  372MOL0     H50195   4.737   9.249   0.425 -0.1301  0.9498 -2.6361
  372MOL0     H50196   4.939   9.248   0.247 -0.3986 -0.8847 -0.4424
  372MOL0     H50197   4.986   9.243   0.410  0.9095  0.7406 -0.1109
  372MOL0     H50198   4.948   8.987   0.241 -2.1651  0.5528  0.1098
  372MOL0     H50199   5.004   9.000   0.413 -0.4356 -1.1551 -1.5350
  372MOL0     H50200   5.134   9.126   0.159 -3.0037  0.0632  0.2130
  372MOL0     H50201   5.200   8.992   0.233 -1.0427 -0.2528 -0.7777
  372MOL0     H50202   4.062   9.109   0.303  0.8567 -0.3499 -0.1074
  372MOL0     H50203   3.841   9.037   0.364  0.8271  0.1760 -1.3898
  372MOL0     H50204   3.676   8.679   0.677  0.1395  1.7554  0.7770
  372MOL0     H50205   3.494   8.519   0.767 -1.8335 -0.9099  0.2496
  372MOL0     H50206   1.727   7.605   1.396  1.4078 -0.2174  2.3896
  372MOL0     H50207   1.525   7.724   1.465 -0.7883  0.2824 -3.0274
  372MOL0     H50208   1.257   7.925   1.605 -2.6030 -1.7320  1.3042
  372MOL0     H50209   1.041   7.995   1.708 -0.5803  0.7177  0.6575
  372MOL0     H50210   0.862   8.195   1.610  0.0040  1.8835  0.4376
  372MOL0     H50211   0.826   8.097   1.759 -0.7363 -0.5936 -1.8836
  372MOL0     H50212   0.709   8.329   1.661  1.6819  3.8744  0.0068
  372MOL0     H50213   0.792   8.386   1.807  1.4050 -0.2368 -2.3824
  372MOL0     H50214   0.671   8.188   1.923  1.9131  0.4896 -0.5062
  372MOL0     H50215   0.581   8.169   1.769  3.0180 -2.7098  0.6247
  372MOL0     H50216   0.536   8.430   1.831  0.5954  0.0616 -0.2703
  372MOL0     H50217   0.568   8.386   1.990  1.6995  2.5306 -1.7012
  372MOL0     H50218   0.173   8.244   1.941  0.7698 -1.4590  1.6126
  372MOL0     H50219   1.183   8.400   1.723 -3.6693 -0.8085  0.7217
  372MOL0     H50220   1.388   8.342   1.633  0.3753 -0.5101  0.9142
  373MOL0     O50221   1.155   4.014   3.220 -0.6032 -0.2459 -0.5030
  373MOL0     C50222   1.120   3.904   3.194  0.1656  0.3925  0.8510
  373MOL0     O50223   1.177   3.817   3.108 -0.0344 -0.3216  0.0051
  373MOL0     C50224   1.260   3.877   3.016  0.1245 -0.9680 -0.1607
  373MOL0     C50225   1.238   3.993   2.939  0.1929  0.9831 -0.5090
  373MOL0     C50226   1.336   4.050   2.859  1.3116 -0.5291 -0.2003
  373MOL0     C50227   1.460   3.987   2.838 -0.3423  0.5057 -0.7877
  373MOL0     O50228   1.546   4.026   2.742 -0.4151 -0.1010  0.2484
  373MOL0     C50229   1.491   4.090   2.623  0.2932  0.1053  0.3692
  373MOL0     C50230   1.609   4.129   2.529  0.4221  0.6648  0.2009
  373MOL0     C50231   1.689   4.256   2.536 -0.2126  0.2716  1.0945
  373MOL0     C50232   1.729   4.299   2.670 -0.0915 -0.6390  0.0680
  373MOL0     C50233   1.826   4.415   2.654 -0.3643  0.0850  0.3534
  373MOL0     C50234   1.866   4.496   2.774 -0.0530 -0.2815  0.2700
  373MOL0     C50235   1.756   4.584   2.851  0.0754  0.1993 -0.5261
  373MOL0     C50236   1.794   4.625   2.994 -0.0442 -0.9093 -0.5632
  373MOL0     N50237   1.935   4.677   3.000 -0.2128 -0.2174  0.4112
  373MOL0     C50238   2.042   4.616   3.067 -0.3433 -0.0257  0.0764
  373MOL0     C50239   2.131   4.718   3.077 -0.7109 -1.0817  0.5587
  373MOL0     C50240   2.258   4.691   3.140 -0.9125  0.3742 -0.0727
  373MOL0     C50241   2.356   4.812   3.150  0.0996  0.4394 -0.9584
  373MOL0     C50242   2.469   4.787   3.251 -0.2097 -0.3612 -0.4017
  373MOL0     C50243   2.567   4.901   3.251 -0.5402 -0.4801  0.4076
  373MOL0     O50244   2.657   4.889   3.143 -0.7222 -0.7656  0.4442
  373MOL0     C50245   2.790   4.930   3.142 -0.1516  0.0566 -0.0471
  373MOL0     C50246   2.864   4.861   3.050  0.4856  0.4321 -0.0744
  373MOL0     C50247   3.006   4.873   3.041 -0.5028  0.9289 -0.3680
  373MOL0     C50248   3.082   4.795   2.936 -0.2977 -0.1040 -0.0928
  373MOL0     C50249   3.077   4.950   3.144 -0.4081 -0.2192 -0.3678
  373MOL0     C50250   3.225   4.936   3.166  0.2420 -0.5352  0.4505
  373MOL0     O50251   3.287   4.822   3.123  0.1397  0.0809 -0.3151
  373MOL0     C50252   3.420   4.816   3.146 -0.1396  0.3491 -0.4052
  373MOL0     C50253   3.471   4.833   3.278  0.0846 -0.4056  0.4871
  373MOL0     C50254   3.604   4.805   3.304  0.2016  0.1871 -0.7380
  373MOL0     C50255   3.680   4.738   3.207  0.4215 -0.1298  0.1736
  373MOL0     O50256   3.811   4.706   3.229 -0.3008  0.3916  0.2504
  373MOL0     C50257   3.839   4.647   3.359 -0.0840  0.0707  0.1056
  373MOL0     C50258   3.948   4.542   3.362  0.5742  0.0179  0.1040
  373MOL0     C50259   3.949   4.447   3.243  0.0086  0.5803  0.3772
  373MOL0     C50260   4.087   4.360   3.249  0.2728  0.1894  0.0373
  373MOL0     C50261   4.092   4.257   3.134  0.1119  0.6673  0.1200
  373MOL0     C50262   4.216   4.167   3.125  0.6844  0.0530 -0.5044
  373MOL0     C50263   4.218   4.059   3.016  0.5294 -0.5139  0.5834
  373MOL0     C50264   4.250   3.916   3.062  0.0335 -0.0913 -0.4102
  373MOL0    Cl50265   4.125   3.845   3.171 -0.0472  0.3087 -0.3439
  373MOL0     C50266   3.628   4.735   3.078 -0.2170 -0.5214  0.9627
  373MOL0     C50267   3.496   4.764   3.050  0.0179  0.1229 -0.6485
  373MOL0     O50268   3.286   5.044   3.193 -0.7438 -0.0458 -0.4512
  373MOL0     C50269   2.999   5.033   3.230  0.2659 -0.1575 -0.6139
  373MOL0     C50270   2.860   5.018   3.231  0.0455  0.6033  0.2695
  373MOL0     N50271   2.091   4.829   3.005  0.0362  0.6821  0.6981
  373MOL0     N50272   1.973   4.796   2.954 -0.2612  0.2764  0.5400
  373MOL0     C50273   1.480   3.860   2.902  0.6607  0.5208 -0.1293
  373MOL0     C50274   1.382   3.817   2.996  0.4777  0.0250 -0.4130
  373MOL0     C50275   1.004   3.856   3.273  0.5554  0.8290 -0.4228
  373MOL0     C50276   0.972   3.717   3.263 -0.0305 -0.0403 -0.3768
  373MOL0     C50277   0.853   3.675   3.330 -0.2336 -0.1860  0.5612
  373MOL0     C50278   0.763   3.760   3.396 -0.6425  0.1561 -0.4660
  373MOL0     O50279   0.636   3.718   3.435 -0.0969  0.4604  0.9125
  373MOL0     C50280   0.641   3.621   3.538 -0.6542 -0.9515  0.6725
  373MOL0     C50281   0.586   3.490   3.483 -0.3773  0.0952 -0.6737
  373MOL0     C50282   0.585   3.382   3.588  0.1934 -0.1070 -0.2088
  373MOL0     C50283   0.478   3.386   3.693 -0.5033  0.0565  0.2001
  373MOL0     C50284   0.337   3.381   3.644 -0.7909  0.4094  0.1583
  373MOL0     C50285   0.226   3.368   3.600 -0.1040  0.4538 -1.3123
  373MOL0     C50286   0.791   3.901   3.390 -0.1817  0.0889 -0.8110
  373MOL0     C50287   0.905   3.953   3.327  0.0827  0.5109  0.2841
  373MOL0     H50288   1.138   4.031   2.955 -0.0747  0.4235 -0.8361
  373MOL0     H50289   1.309   4.142   2.808 -0.0954 -1.8177 -1.9277
  373MOL0     H50290   1.420   4.036   2.560 -1.5966  4.4341 -1.6800
  373MOL0     H50291   1.434   4.180   2.649 -4.1618 -1.7402 -1.9900
  373MOL0     H50292   1.684   4.050   2.536  2.2202  1.8252 -3.3658
  373MOL0     H50293   1.564   4.134   2.430  1.0360 -1.7807 -0.2619
  373MOL0     H50294   1.778   4.249   2.473  1.0896  0.4409  2.8512
  373MOL0     H50295   1.623   4.334   2.497 -1.2750 -1.2763 -0.3653
  373MOL0     H50296   1.641   4.343   2.719  0.2976  1.0007 -0.6661
  373MOL0     H50297   1.760   4.211   2.727  1.5389 -1.3826 -1.8711
  373MOL0     H50298   1.916   4.382   2.601 -0.0248  0.6856  0.5436
  373MOL0     H50299   1.771   4.489   2.595  0.7457  1.2682  0.7526
  373MOL0     H50300   1.914   4.428   2.844  0.1919  0.0444  0.4224
  373MOL0     H50301   1.943   4.568   2.745  0.5421 -1.9857 -2.8425
  373MOL0     H50302   1.748   4.674   2.790  2.1798  2.1075  1.7915
  373MOL0     H50303   1.658   4.536   2.859  1.5221 -2.7960  5.6010
  373MOL0     H50304   1.787   4.544   3.067  0.4829  2.6265  3.8552
  373MOL0     H50305   1.722   4.703   3.023 -0.9949 -1.6948 -0.7659
  373MOL0     H50306   2.060   4.522   3.118 -0.7396 -0.7885 -1.1625
  373MOL0     H50307   2.240   4.644   3.237 -0.0912 -0.7240 -0.4372
  373MOL0     H50308   2.316   4.614   3.089  0.1708  0.9256  0.2976
  373MOL0     H50309   2.303   4.904   3.176  1.9742  1.2078  0.3402
  373MOL0     H50310   2.402   4.827   3.052 -0.1923 -0.2092 -1.2036
  373MOL0     H50311   2.509   4.686   3.236 -0.6518 -0.3460 -1.9024
  373MOL0     H50312   2.426   4.790   3.352  0.2659 -0.6005 -0.1904
  373MOL0     H50313   2.633   4.909   3.338 -0.3443 -0.1309  0.2301
  373MOL0     H50314   2.516   4.996   3.238  2.7721  1.4331  0.3262
  373MOL0     H50315   2.814   4.794   2.981  2.2612 -1.7874  0.6876
  373MOL0     H50316   3.170   4.852   2.903  0.3765 -1.1505 -0.1628
  373MOL0     H50317   3.118   4.706   2.988 -0.2319  0.0017  0.0435
  373MOL0     H50318   3.018   4.754   2.858  0.2466 -0.4603 -0.3626
  373MOL0     H50319   3.398   4.854   3.356  0.3595  1.0990  0.3799
  373MOL0     H50320   3.646   4.804   3.404  3.7813  1.0725 -2.0914
  373MOL0     H50321   3.877   4.724   3.427  2.0884 -2.0016  1.3773
  373MOL0     H50322   3.754   4.590   3.397  0.7025 -1.9259 -1.0221
  373MOL0     H50323   4.049   4.585   3.372  1.5601 -2.0959 -0.1518
  373MOL0     H50324   3.927   4.471   3.443 -3.1060 -0.2623 -0.9503
  373MOL0     H50325   3.948   4.510   3.154  3.0606 -1.1431 -1.0385
  373MOL0     H50326   3.863   4.383   3.266  0.0539  0.9338  1.5903
  373MOL0     H50327   4.174   4.425   3.239  0.1993  1.2121  4.1448
  373MOL0     H50328   4.112   4.310   3.343 -1.8223  1.9784  1.6525
  373MOL0     H50329   4.087   4.301   3.034 -1.6902 -0.6789 -0.4419
  373MOL0     H50330   4.010   4.185   3.127 -0.3306  1.2510 -1.0072
  373MOL0     H50331   4.296   4.239   3.104  0.2165  1.0137  0.8707
  373MOL0     H50332   4.222   4.106   3.215 -4.6032 -3.8175 -2.2893
  373MOL0     H50333   4.300   4.098   2.956 -2.3835  1.5454 -2.3964
  373MOL0     H50334   4.129   4.061   2.954  0.3767 -1.4087  0.7642
  373MOL0     H50335   4.351   3.904   3.101 -0.1865  1.7228  0.8646
  373MOL0     H50336   4.237   3.853   2.974 -1.1475 -1.1515  0.4929
  373MOL0     H50337   3.679   4.705   2.986 -3.6896 -3.1464 -0.3568
  373MOL0     H50338   3.452   4.759   2.951 -1.9496  0.4022  0.1475
  373MOL0     H50339   3.056   5.084   3.306 -1.4443  0.4454  0.3117
  373MOL0     H50340   2.805   5.066   3.311  0.5323  1.2607  0.2178
  373MOL0     H50341   1.565   3.794   2.883 -0.0880 -0.9107  1.2645
  373MOL0     H50342   1.391   3.727   3.056  0.3261  0.2016 -0.1190
  373MOL0     H50343   1.050   3.650   3.229  0.4640 -0.4500  1.4382
  373MOL0     H50344   0.830   3.569   3.328 -1.5118  0.0677  0.9241
  373MOL0     H50345   0.745   3.606   3.570 -0.5690  0.6403  1.2122
  373MOL0     H50346   0.586   3.666   3.621 -0.2132 -1.7633  1.4248
  373MOL0     H50347   0.656   3.458   3.405 -0.6341  0.5890 -1.1073
  373MOL0     H50348   0.490   3.501   3.432 -0.8795  2.6828  0.6789
  373MOL0     H50349   0.683   3.380   3.636  0.9774  0.6786 -1.7015
  373MOL0     H50350   0.571   3.285   3.539 -1.1452  0.1311 -0.3590
  373MOL0     H50351   0.502   3.477   3.749 -0.5784 -0.6645  1.4256
  373MOL0     H50352   0.510   3.300   3.752  2.3641  1.0767  0.2575
  373MOL0     H50353   0.128   3.340   3.567 -0.3551 -0.1988 -0.0719
  373MOL0     H50354   0.706   3.955   3.430 -0.8096  0.3059 -2.3544
  373MOL0     H50355   0.922   4.060   3.321 -1.0578  0.6748 -0.2533
  374MOL0     O50356   5.881   2.233  11.222 -0.0346 -0.6882 -0.6773
  374MOL0     C50357   5.947   2.281  11.319  0.0778 -0.6219  0.0635
  374MOL0     O50358   5.899   2.288  11.447  0.0589  0.3645  0.1961
  374MOL0     C50359   5.765   2.277  11.463  0.5943  0.0086  0.1331
  374MOL0     C50360   5.688   2.161  11.419  0.3496  0.2998 -0.6449
  374MOL0     C50361   5.561   2.148  11.461  0.0494 -0.6425  0.7423
  374MOL0     C50362   5.480   2.262  11.513 -0.5408 -0.3336  0.0335
  374MOL0     O50363   5.341   2.252  11.530 -0.0388  0.3519 -0.0852
  374MOL0     C50364   5.269   2.134  11.482 -0.2392 -0.6178 -1.2893
  374MOL0     C50365   5.118   2.152  11.524 -0.2441 -0.2458  0.2905
  374MOL0     C50366   5.061   2.271  11.458  0.1592  0.5204  0.5587
  374MOL0     C50367   4.996   2.204  11.321 -0.2549 -0.4445  0.1831
  374MOL0     C50368   4.950   2.329  11.244  0.2701  1.7669 -0.8728
  374MOL0     C50369   4.914   2.297  11.094  0.5490 -0.2454 -0.6633
  374MOL0     C50370   4.893   2.423  11.007 -0.5586 -0.0482  0.0435
  374MOL0     C50371   4.861   2.405  10.855 -0.0774  0.4675 -0.5863
  374MOL0     N50372   4.753   2.326  10.826 -0.2344  0.0847 -0.3741
  374MOL0     C50373   4.626   2.369  10.832  0.2280  0.0312  0.3863
  374MOL0     C50374   4.552   2.279  10.762  0.0658 -0.2008  0.6529
  374MOL0     C50375   4.403   2.289  10.734  0.0715  0.5059  0.1149
  374MOL0     C50376   4.352   2.169  10.649 -0.1812  0.3579  0.4576
  374MOL0     C50377   4.369   2.193  10.500  0.2248 -0.2301  0.1662
  374MOL0     C50378   4.316   2.074  10.426  0.7917  0.1271 -0.5428
  374MOL0     O50379   4.332   2.101  10.284 -0.0010 -0.7696  0.0404
  374MOL0     C50380   4.318   1.995  10.196  0.5710  0.2802  0.3128
  374MOL0     C50381   4.418   1.977  10.092  0.2289 -0.0685  0.7376
  374MOL0     C50382   4.419   1.864  10.014  0.3202 -0.4638  0.4999
  374MOL0     C50383   4.520   1.857   9.901  0.2325  0.1673  0.0994
  374MOL0     C50384   4.320   1.768  10.015  0.2025 -0.4514 -0.0239
  374MOL0     C50385   4.302   1.654   9.924 -0.3963 -0.2424  0.8075
  374MOL0     O50386   4.177   1.590   9.926  0.2383  0.0262 -0.8898
  374MOL0     C50387   4.160   1.505   9.820 -0.0757  0.4423 -1.0976
  374MOL0     C50388   4.101   1.542   9.701 -0.3736 -0.6472  0.6466
  374MOL0     C50389   4.088   1.443   9.602  0.7710  0.5440  0.3534
  374MOL0     C50390   4.127   1.312   9.610  0.2122  0.4097 -0.1479
  374MOL0     O50391   4.117   1.225   9.506  0.1717 -0.7392 -0.0878
  374MOL0     C50392   4.016   1.240   9.405  0.9203 -0.0974  0.1930
  374MOL0     C50393   3.862   1.236   9.445  0.3604 -0.5569 -0.5333
  374MOL0     C50394   3.822   1.091   9.495  0.7457 -0.8829  0.1152
  374MOL0     C50395   3.675   1.075   9.533  0.1701  0.5179  0.1024
  374MOL0     C50396   3.658   0.932   9.589 -0.3493 -0.1190 -0.0902
  374MOL0     C50397   3.523   0.881   9.626 -0.0591 -0.4097  0.4655
  374MOL0     C50398   3.417   0.892   9.520  0.5298  0.2645  0.2040
  374MOL0     C50399   3.295   0.806   9.568 -0.5372  0.6751  0.6085
  374MOL0    Cl50400   3.256   0.842   9.743 -0.1303 -0.3122 -0.1990
  374MOL0     C50401   4.174   1.278   9.727 -0.1476  0.3779 -0.3285
  374MOL0     C50402   4.199   1.371   9.834  0.4745 -0.8143  0.8193
  374MOL0     O50403   4.392   1.614   9.847 -0.2173  0.1592 -0.6050
  374MOL0     C50404   4.224   1.786  10.115  0.1844  0.4595  0.4124
  374MOL0     C50405   4.218   1.896  10.201  0.0871 -0.2547 -0.2502
  374MOL0     N50406   4.637   2.185  10.718 -0.6535  0.1493  0.3640
  374MOL0     N50407   4.759   2.216  10.754  0.7414  0.4506 -0.2942
  374MOL0     C50408   5.557   2.376  11.545 -0.2666 -0.4185 -0.9106
  374MOL0     C50409   5.696   2.378  11.534 -0.2504  0.8949  1.2785
  374MOL0     C50410   6.090   2.329  11.298  0.9907  0.3530  1.4481
  374MOL0     C50411   6.148   2.344  11.170  0.3129  0.4948  0.2589
  374MOL0     C50412   6.284   2.373  11.154 -0.4327  0.6123  0.1360
  374MOL0     C50413   6.359   2.405  11.267 -1.3360  0.3352 -0.2182
  374MOL0     O50414   6.488   2.445  11.247 -0.0631  0.0110 -0.3571
  374MOL0     C50415   6.592   2.366  11.319  0.7565 -0.1650  0.1829
  374MOL0     C50416   6.689   2.469  11.376  0.0045 -0.8682  1.2874
  374MOL0     C50417   6.776   2.516  11.254 -0.1617  0.7766 -0.3989
  374MOL0     C50418   6.917   2.555  11.308 -0.4750 -0.2940 -0.5416
  374MOL0     C50419   7.012   2.444  11.336  1.2752  0.1235  0.0970
  374MOL0     C50420   7.098   2.356  11.331 -0.4682  0.8727  1.3070
  374MOL0     C50421   6.295   2.401  11.401  0.1072  0.2744  0.2697
  374MOL0     C50422   6.160   2.357  11.413  0.2390  0.5447 -0.4595
  374MOL0     H50423   5.747   2.085  11.370  0.3381 -0.6110  0.6840
  374MOL0     H50424   5.518   2.060  11.415 -0.5174  0.8567 -1.7770
  374MOL0     H50425   5.271   2.136  11.373 -0.0818 -0.6999 -1.2872
  374MOL0     H50426   5.317   2.045  11.522  1.1250  0.1432 -1.1783
  374MOL0     H50427   5.069   2.058  11.496  0.4040 -0.7013  0.6698
  374MOL0     H50428   5.114   2.171  11.631 -1.3655  0.9226  0.0699
  374MOL0     H50429   4.983   2.304  11.527 -2.1504  1.3815 -2.2735
  374MOL0     H50430   5.130   2.354  11.442 -2.1717  2.2451 -1.3177
  374MOL0     H50431   5.064   2.137  11.267 -0.3826 -0.1952 -0.2952
  374MOL0     H50432   4.907   2.144  11.345  0.4122 -1.2624  0.6631
  374MOL0     H50433   4.858   2.367  11.290  0.2179  2.5711 -1.6145
  374MOL0     H50434   5.026   2.406  11.261  1.5973  0.6951 -1.7092
  374MOL0     H50435   5.004   2.254  11.047  2.5554 -0.4594  3.0051
  374MOL0     H50436   4.827   2.231  11.091 -0.7995  1.5006 -2.2621
  374MOL0     H50437   4.812   2.482  11.051 -1.8461 -0.4278 -1.7126
  374MOL0     H50438   4.982   2.487  11.014 -1.3800  0.9737  1.8040
  374MOL0     H50439   4.947   2.376  10.794 -1.1447 -0.4854 -1.6706
  374MOL0     H50440   4.845   2.506  10.815  1.4692  0.5412 -1.0926
  374MOL0     H50441   4.594   2.463  10.876  0.4736 -0.3466  1.4035
  374MOL0     H50442   4.347   2.305  10.826 -0.5374  2.6244 -0.5706
  374MOL0     H50443   4.380   2.385  10.688  0.3440  0.7815  0.5372
  374MOL0     H50444   4.243   2.158  10.652 -0.3156  0.4460 -2.0448
  374MOL0     H50445   4.389   2.073  10.685 -1.0883  0.2246  1.0710
  374MOL0     H50446   4.470   2.206  10.462 -0.6192  0.1499 -2.0777
  374MOL0     H50447   4.308   2.280  10.477 -0.7959 -1.2902 -1.3592
  374MOL0     H50448   4.214   2.056  10.460  0.7930  1.7792  0.4459
  374MOL0     H50449   4.381   1.991  10.456 -0.1978 -0.9904 -1.4085
  374MOL0     H50450   4.497   2.051  10.079  2.9267 -2.5811  1.5788
  374MOL0     H50451   4.596   1.934   9.914  1.5150 -0.7683 -1.4054
  374MOL0     H50452   4.562   1.756   9.892 -4.1687 -1.8526 -0.1147
  374MOL0     H50453   4.480   1.884   9.803 -1.5509  0.2579  0.8266
  374MOL0     H50454   4.098   1.648   9.678  1.3858 -0.2406  2.0044
  374MOL0     H50455   4.058   1.467   9.500 -1.5661 -2.3590  0.2214
  374MOL0     H50456   4.029   1.320   9.332 -0.9695 -0.0610 -0.1710
  374MOL0     H50457   4.022   1.153   9.339  0.8704 -0.0384  0.1109
  374MOL0     H50458   3.834   1.308   9.523 -1.3443 -2.4349  0.6727
  374MOL0     H50459   3.816   1.264   9.350 -0.2600  0.4053  0.0299
  374MOL0     H50460   3.887   1.051   9.573 -0.5896  0.9327  2.2839
  374MOL0     H50461   3.840   1.022   9.411  0.5610 -0.6051 -0.1556
  374MOL0     H50462   3.653   1.148   9.612  1.9872  2.4639 -1.0906
  374MOL0     H50463   3.607   1.101   9.451 -2.7849 -1.5639  1.6776
  374MOL0     H50464   3.726   0.914   9.674  1.1999 -0.0244 -1.2677
  374MOL0     H50465   3.693   0.873   9.504 -2.3159 -1.4484 -0.0329
  374MOL0     H50466   3.526   0.777   9.658 -1.3408 -0.0022  2.0682
  374MOL0     H50467   3.494   0.938   9.715  0.3436 -2.5315  2.0191
  374MOL0     H50468   3.452   0.862   9.421 -1.3582  1.0709 -0.7541
  374MOL0     H50469   3.388   0.997   9.508 -0.1035 -0.1463 -2.2936
  374MOL0     H50470   3.316   0.699   9.570  3.0994  1.2461  0.4330
  374MOL0     H50471   3.213   0.832   9.500 -0.1476 -0.7185 -0.4382
  374MOL0     H50472   4.209   1.177   9.748 -1.9340  0.1427  1.9257
  374MOL0     H50473   4.238   1.328   9.926 -1.1571 -3.0284  0.5628
  374MOL0     H50474   4.145   1.714  10.134 -1.3418  2.3129  1.6162
  374MOL0     H50475   4.133   1.901  10.268 -0.9972 -1.5683 -1.4588
  374MOL0     H50476   5.493   2.454  11.586 -1.1971 -1.4274 -0.3783
  374MOL0     H50477   5.740   2.471  11.567  2.4919 -0.3857  1.5155
  374MOL0     H50478   6.080   2.314  11.092 -1.1106  3.4424  0.2184
  374MOL0     H50479   6.337   2.358  11.060 -1.7704 -3.4039 -0.1506
  374MOL0     H50480   6.541   2.315  11.401  1.8287 -0.9757  0.3617
  374MOL0     H50481   6.629   2.288  11.252 -0.1032 -0.1877 -0.2837
  374MOL0     H50482   6.754   2.416  11.446  0.5433  0.0880  1.5237
  374MOL0     H50483   6.651   2.558  11.427  2.7819  1.2864 -0.1641
  374MOL0     H50484   6.723   2.600  11.210  1.1440  2.4799  1.1381
  374MOL0     H50485   6.784   2.434  11.182  2.3276  0.4366  0.1621
  374MOL0     H50486   6.903   2.614  11.399 -0.6050 -1.9165  0.5376
  374MOL0     H50487   6.969   2.613  11.232  1.5465 -1.4468 -0.1340
  374MOL0     H50488   7.161   2.271  11.328 -1.1836  0.3467 -1.0865
  374MOL0     H50489   6.351   2.435  11.487  0.5515  1.6375 -0.5318
  374MOL0     H50490   6.114   2.342  11.510  1.2197 -0.0400 -0.0644
  375MOL0     O50491   4.148   0.606   7.637  0.2851 -0.2774 -0.9747
  375MOL0     C50492   4.226   0.514   7.657  0.3130 -0.1797 -0.8844
  375MOL0     O50493   4.200   0.388   7.630  0.1117 -0.1475 -0.0637
  375MOL0     C50494   4.100   0.355   7.542  0.7171 -0.5034  0.1129
  375MOL0     C50495   4.040   0.428   7.433 -0.5563 -0.2624 -0.0450
  375MOL0     C50496   3.927   0.381   7.362 -0.2203 -0.0281  0.7842
  375MOL0     C50497   3.869   0.255   7.386 -0.0499  0.2226  0.3875
  375MOL0     O50498   3.771   0.204   7.299 -0.7871  0.2847 -0.7875
  375MOL0     C50499   3.672   0.291   7.253  0.7427  0.0582 -0.8934
  375MOL0     C50500   3.571   0.223   7.163 -0.0130  0.5594 -0.4479
  375MOL0     C50501   3.495   0.108   7.249  0.5768  0.4025 -0.5267
  375MOL0     C50502   3.343   0.126   7.244 -0.4071 -0.2722 -0.3906
  375MOL0     C50503   3.274   0.061   7.355 -1.1105 -0.9975  0.4686
  375MOL0     C50504   3.121   0.057   7.317  0.6287 -0.4626  0.2320
  375MOL0     C50505   3.060   0.202   7.322 -0.2362 -0.3300 -0.8968
  375MOL0     C50506   2.910   0.206   7.334  0.8913 -0.2987  0.0168
  375MOL0     N50507   2.855   0.344   7.351 -0.9137 -0.1107  0.7917
  375MOL0     C50508   2.859   0.437   7.250 -0.3644 -0.2361 -0.5415
  375MOL0     C50509   2.786   0.538   7.298  0.6733 -0.1768 -0.5288
  375MOL0     C50510   2.770   0.670   7.229  0.5100  0.2275 -0.4424
  375MOL0     C50511   2.656   0.655   7.122  0.5441 -0.5862  0.2333
  375MOL0     C50512   2.517   0.662   7.195 -0.2164  0.4738  0.1147
  375MOL0     C50513   2.405   0.673   7.091 -0.7494 -0.5156  0.9247
  375MOL0     O50514   2.276   0.649   7.144 -0.5375  0.3905  0.9746
  375MOL0     C50515   2.165   0.632   7.067 -0.8475  0.2140 -0.0894
  375MOL0     C50516   2.170   0.649   6.935  0.0026 -0.2579 -0.5388
  375MOL0     C50517   2.061   0.630   6.848  0.9373 -0.9992  0.0940
  375MOL0     C50518   2.088   0.638   6.698 -0.4480 -0.2189  0.4190
  375MOL0     C50519   1.939   0.603   6.908  0.4850  0.3334 -0.6660
  375MOL0     C50520   1.811   0.575   6.835  0.4722  0.4919 -0.2135
  375MOL0     O50521   1.707   0.518   6.902 -0.0807  0.1844  0.4853
  375MOL0     C50522   1.604   0.480   6.817  0.1493  0.6571  0.7168
  375MOL0     C50523   1.588   0.346   6.793 -0.4051 -0.3228  1.2807
  375MOL0     C50524   1.482   0.305   6.717  0.4832  0.5207 -0.9456
  375MOL0     C50525   1.384   0.394   6.664 -0.4015  0.4664  0.0016
  375MOL0     O50526   1.268   0.356   6.596 -0.2311  0.6731 -0.4092
  375MOL0     C50527   1.240   0.206   6.590  0.6711  0.4731  0.0015
  375MOL0     C50528   1.094   0.189   6.552  0.1557 -0.3422  0.4242
  375MOL0     C50529   1.067   0.038   6.516 -1.2778 -0.1282 -0.2020
  375MOL0     C50530   0.922   0.025   6.456 -1.1806  1.2227 -0.0040
  375MOL0     C50531   0.866  -0.114   6.465 -0.3114  0.3779 -0.5454
  375MOL0     C50532   0.826  -0.160   6.608  0.8235 -0.0225 -0.3387
  375MOL0     C50533   0.703  -0.088   6.663  0.5562  0.2894 -0.1337
  375MOL0     C50534   0.566  -0.145   6.625 -0.3621 -0.1537 -0.1955
  375MOL0    Cl50535   0.425  -0.048   6.658 -0.1257  0.1697 -0.0455
  375MOL0     C50536   1.407   0.526   6.676 -0.8034 -0.1067 -0.0355
  375MOL0     C50537   1.512   0.574   6.758  0.4934 -0.4234  0.6780
  375MOL0     O50538   1.806   0.611   6.714  0.0239 -0.4437  0.2014
  375MOL0     C50539   1.939   0.603   7.050  0.8490  0.5069 -0.0129
  375MOL0     C50540   2.050   0.610   7.130 -1.3724  0.3142 -0.3547
  375MOL0     N50541   2.733   0.499   7.424 -0.0321  0.1156  0.6836
  375MOL0     N50542   2.778   0.379   7.453 -0.4213  0.2389 -0.4226
  375MOL0     C50543   3.920   0.189   7.496 -0.1217 -0.2875  0.1159
  375MOL0     C50544   4.026   0.236   7.577 -0.0744 -0.1665  0.6814
  375MOL0     C50545   4.376   0.539   7.681 -0.6400 -0.6047  0.7661
  375MOL0     C50546   4.436   0.668   7.711 -0.5601  0.3006 -0.4733
  375MOL0     C50547   4.560   0.677   7.753  0.1259 -0.0757  0.0987
  375MOL0     C50548   4.637   0.561   7.774  1.0854 -0.4853  0.1951
  375MOL0     O50549   4.766   0.576   7.824  0.6462 -0.0953  0.5158
  375MOL0     C50550   4.835   0.461   7.877 -0.0389 -0.0030  0.7248
  375MOL0     C50551   4.940   0.510   7.961 -0.1383 -0.0826  0.0614
  375MOL0     C50552   4.891   0.597   8.082 -0.2930 -0.1248  0.4009
  375MOL0     C50553   5.007   0.698   8.124  0.0563  0.3152 -0.2903
  375MOL0     C50554   4.960   0.761   8.249 -0.0718  0.4570 -0.0349
  375MOL0     C50555   4.933   0.831   8.343 -0.0025 -0.5194 -0.7264
  375MOL0     C50556   4.588   0.439   7.741  0.1171  0.0872  0.4913
  375MOL0     C50557   4.457   0.420   7.695 -0.5897 -0.8762  0.0569
  375MOL0     H50558   4.084   0.524   7.407 -2.4639  0.6514 -0.0899
  375MOL0     H50559   3.891   0.445   7.282  0.9537  0.2271  0.4501
  375MOL0     H50560   3.610   0.341   7.329 -3.6430 -3.2091 -1.9125
  375MOL0     H50561   3.722   0.374   7.202  0.0200  0.5655 -0.7992
  375MOL0     H50562   3.503   0.300   7.125 -0.5704 -0.1970 -1.0381
  375MOL0     H50563   3.631   0.178   7.083 -0.0600  1.0924 -0.7889
  375MOL0     H50564   3.531   0.008   7.223 -0.3594  0.2182 -1.1701
  375MOL0     H50565   3.522   0.131   7.353  0.7514 -1.8119 -0.0371
  375MOL0     H50566   3.327   0.234   7.256  2.7306  0.0324  2.6442
  375MOL0     H50567   3.306   0.081   7.151 -0.8855 -0.3334 -0.1714
  375MOL0     H50568   3.312  -0.041   7.366 -0.5288 -0.9475 -0.8441
  375MOL0     H50569   3.301   0.118   7.444 -0.2386 -1.4325  0.4925
  375MOL0     H50570   3.109   0.010   7.219  0.5036 -1.5762  0.7569
  375MOL0     H50571   3.061  -0.007   7.384 -1.9362  1.5034 -0.0162
  375MOL0     H50572   3.088   0.249   7.416  1.2470  2.3995 -2.5734
  375MOL0     H50573   3.091   0.254   7.230 -2.0131  0.9655 -0.8213
  375MOL0     H50574   2.877   0.140   7.415  2.9996 -1.5797 -0.0978
  375MOL0     H50575   2.861   0.166   7.245  1.2940  1.0525 -0.8396
  375MOL0     H50576   2.906   0.430   7.153 -2.6087  1.0204 -1.8023
  375MOL0     H50577   2.747   0.743   7.306  0.0481  1.6552 -1.8675
  375MOL0     H50578   2.861   0.701   7.177  1.2717 -1.7884 -0.4350
  375MOL0     H50579   2.661   0.568   7.056  1.5721  0.2622 -0.8438
  375MOL0     H50580   2.655   0.737   7.050 -2.9316  1.5471  2.4068
  375MOL0     H50581   2.513   0.746   7.266 -2.6576 -0.8481  1.6622
  375MOL0     H50582   2.495   0.579   7.262 -2.0852  0.8492 -0.0029
  375MOL0     H50583   2.423   0.596   7.015 -2.2202  0.9670 -1.0235
  375MOL0     H50584   2.412   0.771   7.042  0.3217 -0.2878  1.4879
  375MOL0     H50585   2.271   0.653   6.895  0.3429 -3.2535 -0.2552
  375MOL0     H50586   2.194   0.642   6.669 -0.9005  2.8060 -1.2462
  375MOL0     H50587   2.054   0.537   6.673 -0.5203 -0.6929  2.2630
  375MOL0     H50588   2.038   0.721   6.648  0.8362 -0.1876 -0.8801
  375MOL0     H50589   1.648   0.276   6.851  1.5870  1.2283  1.2273
  375MOL0     H50590   1.462   0.198   6.717  1.4328  0.0097  4.8815
  375MOL0     H50591   1.293   0.142   6.519 -1.7207 -1.0693 -0.4769
  375MOL0     H50592   1.262   0.158   6.686  1.6951 -1.0851 -0.9679
  375MOL0     H50593   1.029   0.211   6.637  0.0146  1.2163 -0.0588
  375MOL0     H50594   1.060   0.257   6.473 -2.4101 -0.8195  1.0238
  375MOL0     H50595   1.087  -0.004   6.615  2.9852 -0.9277 -1.1819
  375MOL0     H50596   1.141  -0.001   6.446 -0.6594 -3.1416  1.9382
  375MOL0     H50597   0.858   0.092   6.514 -2.8840 -1.1048  0.9901
  375MOL0     H50598   0.935   0.051   6.351 -2.8966  1.5498 -0.1614
  375MOL0     H50599   0.938  -0.181   6.418  0.0268  0.7281 -0.5317
  375MOL0     H50600   0.785  -0.133   6.393 -0.4511 -2.3071  0.1868
  375MOL0     H50601   0.807  -0.268   6.601  1.0873  0.0078 -1.9393
  375MOL0     H50602   0.910  -0.145   6.675 -1.1709  2.4685  1.8168
  375MOL0     H50603   0.716   0.016   6.634  1.1288  0.1958 -0.2270
  375MOL0     H50604   0.698  -0.096   6.772 -2.0974 -2.4358 -0.3013
  375MOL0     H50605   0.543  -0.237   6.679 -0.2344  0.2660  0.5815
  375MOL0     H50606   0.566  -0.175   6.520  2.8904 -0.7707 -0.1168
  375MOL0     H50607   1.336   0.595   6.633 -0.0305  1.4682  1.1311
  375MOL0     H50608   1.531   0.681   6.760 -0.8924 -0.1505  0.3900
  375MOL0     H50609   1.841   0.596   7.096 -0.8696 -0.2891 -3.4952
  375MOL0     H50610   2.055   0.621   7.238  1.9833  1.6490 -0.5335
  375MOL0     H50611   3.878   0.095   7.528 -1.1665  0.9520  2.6750
  375MOL0     H50612   4.065   0.162   7.646 -0.5278 -0.4499  0.6347
  375MOL0     H50613   4.373   0.750   7.679  0.0331  0.1399 -2.1639
  375MOL0     H50614   4.601   0.778   7.749  0.3260 -0.1954 -2.2080
  375MOL0     H50615   4.764   0.405   7.939 -0.8084 -0.5038 -0.5648
  375MOL0     H50616   4.872   0.398   7.796  0.4091  3.2193 -1.8078
  375MOL0     H50617   5.000   0.572   7.895 -0.4606  0.9204  0.6861
  375MOL0     H50618   5.001   0.426   7.995 -1.3669 -0.4324  1.4939
  375MOL0     H50619   4.873   0.535   8.170 -1.4465  0.3339  0.5045
  375MOL0     H50620   4.807   0.663   8.058  0.9731  2.4756  2.5905
  375MOL0     H50621   5.026   0.773   8.046 -0.8626  0.2398 -0.5955
  375MOL0     H50622   5.100   0.644   8.145  0.9435  2.4802  1.9131
  375MOL0     H50623   4.892   0.871   8.434 -3.3305  0.0573 -2.3154
  375MOL0     H50624   4.643   0.347   7.724 -1.2023 -0.1786 -3.2192
  375MOL0     H50625   4.427   0.318   7.677  0.2083 -1.3406  1.2699
  376MOL0     O50626   0.100   6.865   4.885  0.2494  0.3707 -0.0904
  376MOL0     C50627   0.152   6.800   4.796  0.3162  0.3534  0.5928
  376MOL0     O50628   0.093   6.720   4.709 -0.0697  0.4443 -0.4958
  376MOL0     C50629  -0.033   6.682   4.736  0.2310  0.7188  0.1061
  376MOL0     C50630  -0.077   6.648   4.866 -0.2347 -0.4535 -0.0790
  376MOL0     C50631  -0.214   6.624   4.887 -0.5239 -0.5029  0.4859
  376MOL0     C50632  -0.302   6.637   4.789 -0.0644 -0.2537 -0.6577
  376MOL0     O50633  -0.438   6.608   4.810 -1.0742  0.1844 -0.3005
  376MOL0     C50634  -0.537   6.692   4.750 -0.5490 -0.4122  0.1903
  376MOL0     C50635  -0.550   6.814   4.830  0.8486 -0.0543  0.4669
  376MOL0     C50636  -0.607   6.934   4.754 -0.4072 -0.5355  0.4699
  376MOL0     C50637  -0.735   6.906   4.665  0.6822  0.4811 -0.3229
  376MOL0     C50638  -0.858   6.861   4.750 -0.3728  0.4115  0.0372
  376MOL0     C50639  -0.991   6.865   4.676  0.0716  0.6157 -0.1471
  376MOL0     C50640  -1.012   6.757   4.565 -0.0329 -0.9315  0.2027
  376MOL0     C50641  -1.025   6.623   4.639 -0.6681  0.3547  0.8871
  376MOL0     N50642  -1.088   6.525   4.551 -0.4194  0.0128 -0.0377
  376MOL0     C50643  -1.032   6.439   4.463 -0.3669  0.0025  0.2336
  376MOL0     C50644  -1.127   6.351   4.427  1.1359 -0.0617  0.3254
  376MOL0     C50645  -1.107   6.222   4.355  0.9553  0.2750 -0.3699
  376MOL0     C50646  -1.224   6.184   4.265  0.5602 -0.0308  0.1833
  376MOL0     C50647  -1.192   6.059   4.176  0.7307 -0.1385  0.1525
  376MOL0     C50648  -1.325   6.002   4.120 -0.5307 -0.1087  1.0881
  376MOL0     O50649  -1.386   6.103   4.037 -0.6934  0.3632  0.1261
  376MOL0     C50650  -1.524   6.124   4.063  0.6311  0.2714 -0.8350
  376MOL0     C50651  -1.571   6.205   4.164 -0.3313  0.2147 -0.1572
  376MOL0     C50652  -1.711   6.226   4.189  0.3593 -0.1005 -0.3503
  376MOL0     C50653  -1.751   6.322   4.306  0.3356 -0.1518  0.7936
  376MOL0     C50654  -1.808   6.171   4.099 -0.8692  0.7557  0.8592
  376MOL0     C50655  -1.955   6.197   4.107 -0.4639 -0.1121 -0.0008
  376MOL0     O50656  -2.036   6.106   4.050 -0.0707 -0.3941  0.7183
  376MOL0     C50657  -2.171   6.104   4.082 -0.7430 -0.7166  0.0736
  376MOL0     C50658  -2.246   6.009   4.005  0.1794 -0.1360 -0.3638
  376MOL0     C50659  -2.382   5.998   4.006 -0.0069  0.3339 -0.0297
  376MOL0     C50660  -2.454   6.073   4.092  0.0772 -0.9240 -0.4045
  376MOL0     O50661  -2.588   6.038   4.098  0.5601 -0.8397 -0.1392
  376MOL0     C50662  -2.674   6.158   4.089 -0.7447 -0.4193  0.6390
  376MOL0     C50663  -2.812   6.110   4.106  0.0500  0.8237 -0.1040
  376MOL0     C50664  -2.844   6.064   4.246  0.1268 -0.3451 -0.0007
  376MOL0     C50665  -2.988   6.010   4.248 -0.1005  0.2844  0.2030
  376MOL0     C50666  -3.005   5.916   4.356 -0.5772 -0.6972  0.1497
  376MOL0     C50667  -2.995   5.980   4.496  0.3025 -0.5939 -0.0984
  376MOL0     C50668  -3.074   5.903   4.596 -0.8028  0.2526 -0.4549
  376MOL0     C50669  -3.032   5.925   4.739  0.8464 -0.2292 -0.6154
  376MOL0    Cl50670  -3.129   5.818   4.838  0.4827 -0.2431 -0.0600
  376MOL0     C50671  -2.386   6.158   4.181  0.6314 -0.3772 -0.5778
  376MOL0     C50672  -2.247   6.176   4.174  1.0342  0.7111  0.5646
  376MOL0     O50673  -1.983   6.311   4.150 -0.7492  0.0581 -0.0533
  376MOL0     C50674  -1.756   6.091   3.997 -0.7338  0.7560 -0.0328
  376MOL0     C50675  -1.620   6.075   3.973  0.8100 -0.7204  0.6347
  376MOL0     N50676  -1.240   6.380   4.497  0.2941 -0.9017 -0.1328
  376MOL0     N50677  -1.218   6.485   4.568  0.2943 -0.2360 -0.2480
  376MOL0     C50678  -0.260   6.665   4.655  0.0803 -0.7936 -0.4271
  376MOL0     C50679  -0.124   6.689   4.634  0.5862 -0.3121 -0.3493
  376MOL0     C50680   0.294   6.828   4.778 -0.5608  0.2448  0.1871
  376MOL0     C50681   0.357   6.937   4.833  0.4279  0.2378  0.1188
  376MOL0     C50682   0.488   6.974   4.811 -0.5732  0.4881 -0.0851
  376MOL0     C50683   0.569   6.899   4.718 -0.3337 -0.1310 -0.0643
  376MOL0     O50684   0.703   6.929   4.691  0.1449 -0.5624  0.7623
  376MOL0     C50685   0.760   7.040   4.757  0.2807 -0.6367 -0.6678
  376MOL0     C50686   0.916   7.035   4.749  0.4660  0.1261 -0.3249
  376MOL0     C50687   0.968   7.027   4.612 -0.6608 -0.2077 -0.1664
  376MOL0     C50688   1.119   7.048   4.607  0.3954 -0.4515  0.4956
  376MOL0     C50689   1.199   6.941   4.664 -0.1228  0.1086 -1.5282
  376MOL0     C50690   1.275   6.860   4.709 -0.8225 -0.4665 -0.3576
  376MOL0     C50691   0.501   6.793   4.648 -0.7587  0.2897 -0.4609
  376MOL0     C50692   0.372   6.754   4.682  0.3347 -0.1158  0.1199
  376MOL0     H50693  -0.002   6.631   4.943  1.3754 -2.8624 -1.9817
  376MOL0     H50694  -0.253   6.590   4.983 -3.1770  1.1514  0.0956
  376MOL0     H50695  -0.507   6.706   4.646  0.1290 -0.3434  0.3923
  376MOL0     H50696  -0.631   6.635   4.756 -0.6755 -0.6405 -2.5743
  376MOL0     H50697  -0.619   6.796   4.913 -3.1419  3.1945 -1.8264
  376MOL0     H50698  -0.459   6.843   4.884  0.6338 -0.5290  1.0982
  376MOL0     H50699  -0.623   7.015   4.826 -1.9516  3.1273 -3.5259
  376MOL0     H50700  -0.534   6.975   4.684 -2.2662  0.0781 -1.2347
  376MOL0     H50701  -0.776   6.995   4.614 -0.1537 -0.0240 -0.5588
  376MOL0     H50702  -0.717   6.836   4.584 -1.6725  0.3179 -0.7936
  376MOL0     H50703  -0.839   6.761   4.790  0.5572  0.3871 -0.4347
  376MOL0     H50704  -0.862   6.926   4.838  2.8272 -0.6859  1.1616
  376MOL0     H50705  -1.069   6.851   4.752 -0.6602  1.2422 -0.7697
  376MOL0     H50706  -0.999   6.962   4.626  2.0302  0.0695 -1.5954
  376MOL0     H50707  -1.101   6.779   4.505 -0.6294 -1.4419  0.8869
  376MOL0     H50708  -0.940   6.761   4.483 -2.3393  1.3140 -1.9150
  376MOL0     H50709  -1.078   6.634   4.734  0.1626 -3.7590  2.0233
  376MOL0     H50710  -0.929   6.579   4.667 -0.1254  1.5550  0.9479
  376MOL0     H50711  -0.932   6.434   4.420 -1.4573 -1.2740 -2.4168
  376MOL0     H50712  -1.016   6.227   4.294 -0.3138 -1.4775 -2.5348
  376MOL0     H50713  -1.104   6.156   4.442  2.3748  0.2119 -0.4527
  376MOL0     H50714  -1.262   6.269   4.208 -1.8486 -0.5908  0.8454
  376MOL0     H50715  -1.312   6.166   4.326  0.6376 -0.0181  0.2984
  376MOL0     H50716  -1.145   5.978   4.233 -1.6907 -1.0957  0.9565
  376MOL0     H50717  -1.130   6.083   4.090 -3.4045  1.8376 -2.6428
  376MOL0     H50718  -1.399   5.982   4.198 -2.6729  3.8119  0.3129
  376MOL0     H50719  -1.307   5.914   4.059 -0.0913  0.4639  0.3731
  376MOL0     H50720  -1.500   6.239   4.238 -1.6757 -2.3787  2.5624
  376MOL0     H50721  -1.674   6.316   4.383  0.6302  1.1140  0.6181
  376MOL0     H50722  -1.742   6.423   4.265  0.2357 -0.6349 -0.4694
  376MOL0     H50723  -1.854   6.305   4.340  0.0028 -0.4246 -0.2847
  376MOL0     H50724  -2.200   5.964   3.918  1.3446  0.5155 -0.1106
  376MOL0     H50725  -2.429   5.931   3.934 -1.1161  2.3044 -1.2302
  376MOL0     H50726  -2.648   6.229   4.167 -3.3939 -0.7311  1.9100
  376MOL0     H50727  -2.651   6.204   3.992 -0.8356  0.1127  0.8672
  376MOL0     H50728  -2.879   6.189   4.072  1.0067  1.8297  0.2630
  376MOL0     H50729  -2.824   6.022   4.042 -1.2867 -1.1365  2.6135
  376MOL0     H50730  -2.824   6.152   4.308 -2.0628 -1.5573  2.6341
  376MOL0     H50731  -2.780   5.988   4.290 -2.1799 -2.4878 -0.1246
  376MOL0     H50732  -3.053   6.098   4.253  3.0510  2.7128  1.5769
  376MOL0     H50733  -3.002   5.956   4.154  0.3337  1.4533 -0.5423
  376MOL0     H50734  -2.931   5.836   4.347  1.3223  1.1275 -1.8269
  376MOL0     H50735  -3.105   5.874   4.344 -0.9414  0.4274 -1.0359
  376MOL0     H50736  -2.890   5.988   4.528 -0.1962 -0.9540  1.7505
  376MOL0     H50737  -3.035   6.082   4.489 -1.5745 -1.3753 -1.9326
  376MOL0     H50738  -3.044   5.799   4.581 -0.3354  0.5985 -2.2023
  376MOL0     H50739  -3.181   5.911   4.574 -0.5552  0.2831 -1.7815
  376MOL0     H50740  -3.056   6.028   4.766  1.7681 -0.4405  1.1834
  376MOL0     H50741  -2.928   5.903   4.765  0.3931 -1.0860  0.5478
  376MOL0     H50742  -2.445   6.206   4.258 -0.5299 -2.6452  0.0173
  376MOL0     H50743  -2.201   6.232   4.254 -0.0663  0.8231  1.1348
  376MOL0     H50744  -1.823   6.041   3.927 -0.6093  0.9776 -0.3134
  376MOL0     H50745  -1.591   6.014   3.888 -0.9613 -0.2872 -0.3414
  376MOL0     H50746  -0.332   6.664   4.574 -1.6725  3.8547  0.7067
  376MOL0     H50747  -0.093   6.729   4.538 -4.4041  0.2170 -2.0674
  376MOL0     H50748   0.296   6.989   4.908  0.8137 -0.6358  1.0599
  376MOL0     H50749   0.524   7.061   4.864 -2.5692 -1.0581  4.3097
  376MOL0     H50750   0.724   7.134   4.715  1.5388  0.5257  0.7364
  376MOL0     H50751   0.740   7.040   4.864 -0.1239 -2.2881 -0.7256
  376MOL0     H50752   0.958   6.957   4.813 -0.3184 -1.4907 -1.7036
  376MOL0     H50753   0.956   7.131   4.784  0.0509  0.6232 -1.1524
  376MOL0     H50754   0.916   7.109   4.560 -1.4932 -1.3957 -1.2634
  376MOL0     H50755   0.942   6.930   4.569 -2.6652  0.3290 -0.2951
  376MOL0     H50756   1.153   7.139   4.657 -0.5700  1.0207 -1.4129
  376MOL0     H50757   1.144   7.060   4.502 -0.8774  1.7374  0.3723
  376MOL0     H50758   1.343   6.779   4.726  1.1335  1.3355  0.9396
  376MOL0     H50759   0.567   6.743   4.578  0.4953 -0.5027  1.1982
  376MOL0     H50760   0.330   6.664   4.637  1.3406 -1.8573  2.4761
  377MOL0     O50761   0.949   0.856   5.698  0.5881 -0.5701 -0.4703
  377MOL0     C50762   0.870   0.756   5.692 -0.5863  0.0959 -0.9265
  377MOL0     O50763   0.902   0.635   5.756 -0.1952  0.5839  0.2397
  377MOL0     C50764   1.034   0.609   5.794 -0.3249  0.0951  0.0835
  377MOL0     C50765   1.077   0.593   5.930  0.1135  0.4542  0.5608
  377MOL0     C50766   1.213   0.582   5.962 -0.9220  0.7788  0.5491
  377MOL0     C50767   1.310   0.579   5.860 -0.0519  0.4406 -0.5615
  377MOL0     O50768   1.440   0.572   5.901 -0.0896  0.2336 -0.7458
  377MOL0     C50769   1.485   0.456   5.970  0.0772  0.3958 -0.5934
  377MOL0     C50770   1.576   0.369   5.883  0.2399 -0.3778  0.1654
  377MOL0     C50771   1.513   0.241   5.816  0.4217  0.2275 -0.3314
  377MOL0     C50772   1.419   0.299   5.714 -0.8726 -0.7620  0.2113
  377MOL0     C50773   1.364   0.189   5.633 -0.3949  0.5221  0.1349
  377MOL0     C50774   1.276   0.235   5.512  0.7359  0.0949 -0.0744
  377MOL0     C50775   1.320   0.341   5.419 -0.2056  1.0708 -0.1186
  377MOL0     C50776   1.227   0.362   5.292 -0.5835 -0.3060 -0.3288
  377MOL0     N50777   1.089   0.396   5.337  0.0285  0.1560  0.2721
  377MOL0     C50778   0.983   0.315   5.372  0.5802 -0.0220 -0.4629
  377MOL0     C50779   0.879   0.397   5.402 -0.3026  0.2814  0.1571
  377MOL0     C50780   0.738   0.372   5.458  0.1072  0.2717  0.1147
  377MOL0     C50781   0.620   0.434   5.376  0.4092  0.2270 -0.1362
  377MOL0     C50782   0.595   0.325   5.260 -0.1441 -0.3669  0.5008
  377MOL0     C50783   0.452   0.348   5.206  0.6266 -0.7951 -0.1416
  377MOL0     O50784   0.362   0.322   5.313  0.3968 -0.1039  0.1038
  377MOL0     C50785   0.223   0.338   5.290 -0.3898  0.2523  0.5312
  377MOL0     C50786   0.145   0.318   5.401 -0.2451  0.1439 -0.2350
  377MOL0     C50787   0.008   0.316   5.399  0.7501 -0.1879 -0.5287
  377MOL0     C50788  -0.052   0.291   5.540  0.2972  0.7169 -0.1601
  377MOL0     C50789  -0.057   0.330   5.280  0.5608 -0.6798  0.8995
  377MOL0     C50790  -0.200   0.325   5.266  0.1666  0.9874  0.5414
  377MOL0     O50791  -0.257   0.325   5.147  0.6751 -0.4627  0.5128
  377MOL0     C50792  -0.391   0.291   5.131  0.3951  0.2928 -0.5765
  377MOL0     C50793  -0.456   0.358   5.028 -0.5825 -0.0066 -0.7535
  377MOL0     C50794  -0.580   0.303   4.991 -0.1401  0.4696  0.1192
  377MOL0     C50795  -0.631   0.182   5.040 -0.4792 -0.5066  0.2619
  377MOL0     O50796  -0.756   0.145   4.994  0.6201  0.2350 -0.2367
  377MOL0     C50797  -0.806   0.020   5.031 -0.0245  0.6018  0.2885
  377MOL0     C50798  -0.952   0.022   4.984  0.0254  0.2004  0.5095
  377MOL0     C50799  -1.003  -0.119   4.995  0.4739  0.6198 -0.0877
  377MOL0     C50800  -1.159  -0.135   4.997 -0.0640  0.1779  0.2939
  377MOL0     C50801  -1.201  -0.283   5.005  1.0035 -0.1859 -0.4246
  377MOL0     C50802  -1.338  -0.311   5.073 -0.3771 -0.4654 -0.0630
  377MOL0     C50803  -1.447  -0.211   5.031 -0.2482 -0.2108  0.4207
  377MOL0     C50804  -1.597  -0.250   5.063 -0.7072  0.5259  0.1453
  377MOL0    Cl50805  -1.625  -0.259   5.227  0.3366  0.2621  0.1134
  377MOL0     C50806  -0.570   0.117   5.138 -0.6004  0.7697 -0.8652
  377MOL0     C50807  -0.445   0.167   5.188 -0.2555 -0.5026 -0.0665
  377MOL0     O50808  -0.268   0.311   5.369 -1.2037 -0.4682  0.4402
  377MOL0     C50809   0.023   0.349   5.166  0.2746  0.2261 -0.5977
  377MOL0     C50810   0.166   0.355   5.167  1.1082 -0.2271  0.0737
  377MOL0     N50811   0.930   0.525   5.385  0.6020 -0.2271  0.1009
  377MOL0     N50812   1.053   0.526   5.351 -1.2162  0.5660 -0.0100
  377MOL0     C50813   1.270   0.577   5.728  0.2667 -1.0412 -0.4195
  377MOL0     C50814   1.137   0.608   5.698  0.0115  0.4502  0.0692
  377MOL0     C50815   0.731   0.784   5.640 -0.1086  0.3172 -0.4919
  377MOL0     C50816   0.634   0.699   5.672 -0.4800  0.3199  0.2178
  377MOL0     C50817   0.502   0.702   5.624  0.4043  0.7788 -0.2057
  377MOL0     C50818   0.473   0.794   5.523  0.6249  0.8780  0.1521
  377MOL0     O50819   0.352   0.804   5.466  0.0775  0.3176 -0.3488
  377MOL0     C50820   0.253   0.696   5.487 -0.8403 -0.4627 -0.1478
  377MOL0     C50821   0.122   0.717   5.420 -0.4005  1.2856 -0.3431
  377MOL0     C50822   0.120   0.718   5.257  0.5950 -0.0041 -0.4743
  377MOL0     C50823   0.003   0.781   5.187  0.0187  0.2985 -0.3529
  377MOL0     C50824  -0.104   0.693   5.139  0.0928  0.4909  0.2934
  377MOL0     C50825  -0.213   0.636   5.111 -0.2059 -0.3212  0.5745
  377MOL0     C50826   0.573   0.883   5.490 -0.1678  0.4143 -0.1403
  377MOL0     C50827   0.701   0.887   5.545 -1.0208  0.2752 -1.3020
  377MOL0     H50828   0.999   0.591   6.006  1.5389 -2.4720  2.1012
  377MOL0     H50829   1.244   0.583   6.066  0.4367 -1.0825  0.2173
  377MOL0     H50830   1.551   0.502   6.045  0.5294  1.5108 -1.6550
  377MOL0     H50831   1.403   0.406   6.023 -0.7137  2.9148  0.7160
  377MOL0     H50832   1.613   0.445   5.814 -1.1886  2.9501  2.7596
  377MOL0     H50833   1.657   0.332   5.946 -1.4342 -2.3990  1.2788
  377MOL0     H50834   1.595   0.188   5.768 -2.2696 -0.5822 -4.5573
  377MOL0     H50835   1.458   0.173   5.882 -0.9649 -1.3001 -2.8834
  377MOL0     H50836   1.331   0.340   5.764 -1.0090  1.8809 -1.9764
  377MOL0     H50837   1.473   0.375   5.656  0.4522 -1.8282 -0.0153
  377MOL0     H50838   1.445   0.129   5.589 -1.3451  1.0608 -2.5327
  377MOL0     H50839   1.302   0.118   5.688 -1.1193  1.3297  0.3744
  377MOL0     H50840   1.243   0.150   5.452 -1.2190  0.9683 -0.3356
  377MOL0     H50841   1.186   0.277   5.559  0.7879 -0.1973  0.2868
  377MOL0     H50842   1.319   0.440   5.465  0.1151  2.5037 -2.9502
  377MOL0     H50843   1.424   0.323   5.389 -0.8863 -0.8620 -1.6258
  377MOL0     H50844   1.221   0.276   5.225 -2.0176  0.1651 -0.8475
  377MOL0     H50845   1.274   0.440   5.231 -2.7861  1.5128  0.1429
  377MOL0     H50846   0.977   0.207   5.368  0.2163  0.0400 -3.5249
  377MOL0     H50847   0.721   0.269   5.492 -0.6665  1.1500  2.6447
  377MOL0     H50848   0.731   0.427   5.552  1.0295  2.8197 -1.2386
  377MOL0     H50849   0.650   0.531   5.336  3.2623 -0.0530  1.1033
  377MOL0     H50850   0.540   0.445   5.450  1.1593 -2.3342  1.1855
  377MOL0     H50851   0.593   0.221   5.296 -2.2715  0.0454  1.8174
  377MOL0     H50852   0.678   0.334   5.190  0.8261  3.6446  1.8699
  377MOL0     H50853   0.419   0.287   5.121  0.3738 -0.7738 -0.0600
  377MOL0     H50854   0.439   0.453   5.177 -2.6714 -1.6687 -2.4416
  377MOL0     H50855   0.195   0.318   5.498  0.8266  0.3071 -0.7760
  377MOL0     H50856  -0.109   0.381   5.563 -2.8295 -1.1090 -0.2767
  377MOL0     H50857  -0.126   0.211   5.530  0.9352  0.3187 -2.2081
  377MOL0     H50858   0.007   0.257   5.626 -1.8530  1.2258  1.6065
  377MOL0     H50859  -0.428   0.447   4.973 -2.5459  1.6878  0.8276
  377MOL0     H50860  -0.630   0.365   4.917  1.7352  2.2172  0.2336
  377MOL0     H50861  -0.750  -0.064   4.989 -1.3367 -1.2799  2.1178
  377MOL0     H50862  -0.809   0.007   5.139  0.9422 -0.4549  0.2052
  377MOL0     H50863  -0.997   0.092   5.055  0.3823  0.4445  0.4979
  377MOL0     H50864  -0.957   0.060   4.881 -2.5267  2.3021  1.3110
  377MOL0     H50865  -0.967  -0.158   5.091  0.6738 -1.8440 -1.0910
  377MOL0     H50866  -0.958  -0.183   4.919 -0.9764 -2.2305  1.2597
  377MOL0     H50867  -1.205  -0.088   5.084 -2.1646 -3.4383  1.3529
  377MOL0     H50868  -1.202  -0.089   4.908  0.0678  3.7557  1.9161
  377MOL0     H50869  -1.118  -0.338   5.051  1.0444  0.6557  0.5393
  377MOL0     H50870  -1.202  -0.316   4.901  0.3401 -0.4721 -0.3284
  377MOL0     H50871  -1.370  -0.413   5.051  1.3197 -0.9874 -0.2271
  377MOL0     H50872  -1.319  -0.296   5.179  0.5249 -1.3125 -0.0962
  377MOL0     H50873  -1.441  -0.205   4.921  0.0666 -0.5050  0.4223
  377MOL0     H50874  -1.434  -0.109   5.067  0.6391 -0.6559  1.3747
  377MOL0     H50875  -1.633  -0.343   5.018 -1.5172  1.5426 -1.4004
  377MOL0     H50876  -1.657  -0.170   5.020 -1.5580 -0.4853 -0.6077
  377MOL0     H50877  -0.597   0.020   5.180  2.6593 -0.1175 -0.5232
  377MOL0     H50878  -0.375   0.107   5.244  1.2424  0.8304 -0.4575
  377MOL0     H50879  -0.023   0.368   5.069  1.9691 -0.6886 -1.6247
  377MOL0     H50880   0.223   0.382   5.079 -0.7832  3.7926 -0.1485
  377MOL0     H50881   1.351   0.563   5.657  0.0408  0.1138 -0.9398
  377MOL0     H50882   1.122   0.625   5.592 -5.0449  2.1530  0.7921
  377MOL0     H50883   0.667   0.615   5.733  1.9711 -0.1791 -1.6388
  377MOL0     H50884   0.428   0.628   5.652  2.6766 -1.7708 -0.4233
  377MOL0     H50885   0.299   0.607   5.442 -3.1603 -1.4962 -0.6250
  377MOL0     H50886   0.230   0.692   5.594 -0.4473 -0.1631 -0.0529
  377MOL0     H50887   0.093   0.815   5.458 -0.0534  1.3496 -0.2442
  377MOL0     H50888   0.049   0.644   5.458  0.9265  0.0486 -0.0519
  377MOL0     H50889   0.138   0.613   5.231  3.0541 -0.1784  1.4667
  377MOL0     H50890   0.204   0.781   5.227  0.7416  1.4775  2.5994
  377MOL0     H50891   0.039   0.846   5.107  0.3303 -1.1873 -1.4769
  377MOL0     H50892  -0.049   0.847   5.256 -0.4647 -1.0705  0.6486
  377MOL0     H50893  -0.295   0.579   5.075 -0.3108  1.2800 -1.9500
  377MOL0     H50894   0.561   0.956   5.411 -2.7316  0.0706 -0.1648
  377MOL0     H50895   0.778   0.960   5.522  1.6112 -2.1307 -0.6925
  378MOL0     O50896   9.479   4.706   6.703 -0.6206  0.5512 -0.4719
  378MOL0     C50897   9.430   4.799   6.646  0.0943  0.8307  0.0155
  378MOL0     O50898   9.293   4.830   6.638  0.4739  0.4053  0.3314
  378MOL0     C50899   9.226   4.751   6.732  0.5688 -0.1553 -0.3160
  378MOL0     C50900   9.221   4.773   6.868  0.3168  0.4215 -0.1643
  378MOL0     C50901   9.139   4.692   6.957  0.4097  0.3776  0.1726
  378MOL0     C50902   9.068   4.584   6.910 -0.6628 -0.8006 -0.8175
  378MOL0     O50903   9.008   4.505   7.005  0.2628  0.0806  0.4486
  378MOL0     C50904   8.871   4.545   7.017  0.2818 -0.7409 -0.2613
  378MOL0     C50905   8.857   4.632   7.143  0.4017  0.0216  0.3150
  378MOL0     C50906   8.712   4.639   7.185 -0.2421 -0.6572 -0.4968
  378MOL0     C50907   8.673   4.784   7.191  0.5138 -0.4301 -0.6078
  378MOL0     C50908   8.518   4.786   7.200  0.4064  0.9623 -0.6239
  378MOL0     C50909   8.494   4.936   7.199  0.2141  0.3186  0.1105
  378MOL0     C50910   8.339   4.966   7.212  0.2332 -0.3118 -0.4109
  378MOL0     C50911   8.313   5.103   7.275 -0.6792 -1.1168 -0.2568
  378MOL0     N50912   8.169   5.115   7.310  0.0228  0.0777 -0.7861
  378MOL0     C50913   8.104   5.032   7.402 -0.7727  0.9067  1.5141
  378MOL0     C50914   7.973   5.070   7.392  1.0062 -0.5606 -0.7346
  378MOL0     C50915   7.852   4.992   7.443  0.2030  0.0871  0.5135
  378MOL0     C50916   7.778   5.062   7.551  0.1007 -0.7538 -0.3027
  378MOL0     C50917   7.755   5.217   7.539  0.4065 -0.2442  0.0543
  378MOL0     C50918   7.622   5.263   7.607  0.2553  0.3109  0.1809
  378MOL0     O50919   7.637   5.240   7.745 -0.5923 -0.6034  0.2377
  378MOL0     C50920   7.523   5.244   7.820 -0.1743 -0.2619 -0.6782
  378MOL0     C50921   7.447   5.365   7.848  0.0812  0.3705 -0.5696
  378MOL0     C50922   7.342   5.361   7.936  0.2824 -0.1794 -0.2344
  378MOL0     C50923   7.270   5.488   7.965  0.1944 -0.4275 -0.7871
  378MOL0     C50924   7.315   5.244   8.014  1.0521 -0.1283  0.0678
  378MOL0     C50925   7.203   5.236   8.110 -0.4582 -0.6358  0.2675
  378MOL0     O50926   7.077   5.284   8.069  1.2511 -0.2962  0.0792
  378MOL0     C50927   6.986   5.298   8.172 -0.4347  0.1284  0.3068
  378MOL0     C50928   6.966   5.420   8.230 -0.4204 -0.1547 -0.4908
  378MOL0     C50929   6.898   5.440   8.355 -0.6238 -0.3233 -0.4958
  378MOL0     C50930   6.839   5.330   8.418 -0.3959  0.6347  1.0644
  378MOL0     O50931   6.791   5.349   8.542  0.3701  0.1884 -0.2398
  378MOL0     C50932   6.745   5.473   8.585 -0.2837 -0.3438  0.1368
  378MOL0     C50933   6.664   5.468   8.716 -0.5964  0.3977 -0.1578
  378MOL0     C50934   6.531   5.404   8.694  0.8943 -0.8859 -0.2828
  378MOL0     C50935   6.415   5.499   8.750 -0.4808  0.2752  0.2975
  378MOL0     C50936   6.279   5.436   8.717  0.2436  0.1918 -0.5759
  378MOL0     C50937   6.241   5.426   8.569 -1.0617  0.2110  0.1977
  378MOL0     C50938   6.099   5.375   8.537 -0.7416 -0.0916 -0.6129
  378MOL0     C50939   6.052   5.415   8.400 -0.0887  0.0875 -0.1640
  378MOL0    Cl50940   5.896   5.342   8.374  0.2033 -0.0734  0.3260
  378MOL0     C50941   6.853   5.204   8.361 -0.3100  0.8096  0.0174
  378MOL0     C50942   6.921   5.185   8.239  0.3144  0.4320  0.5666
  378MOL0     O50943   7.231   5.206   8.224  0.4061 -0.4734 -0.2454
  378MOL0     C50944   7.387   5.123   7.981  0.0421 -1.2284  0.5726
  378MOL0     C50945   7.491   5.129   7.892 -0.4441  0.0651  0.1929
  378MOL0     N50946   7.962   5.180   7.310  0.1990  0.9735 -0.0416
  378MOL0     N50947   8.077   5.198   7.251  0.1524  0.0902  0.2993
  378MOL0     C50948   9.060   4.568   6.774  0.0387 -0.1030  0.3688
  378MOL0     C50949   9.136   4.653   6.686 -0.2551  0.1101  0.1426
  378MOL0     C50950   9.529   4.892   6.589  0.1483 -0.3394  0.3870
  378MOL0     C50951   9.664   4.877   6.601  0.4169 -0.0876 -0.5115
  378MOL0     C50952   9.762   4.961   6.538  0.2415 -0.1151 -0.6811
  378MOL0     C50953   9.722   5.070   6.453  0.7548  0.8455  1.0646
  378MOL0     O50954   9.812   5.150   6.386  0.1142 -0.0790  0.4228
  378MOL0     C50955   9.921   5.077   6.330  0.6162 -0.2739  0.0288
  378MOL0     C50956  10.021   5.186   6.272  0.3429  0.2409 -0.5656
  378MOL0     C50957  10.157   5.120   6.239 -0.6132  0.2133  0.8638
  378MOL0     C50958  10.269   5.134   6.350  0.3217 -0.4217  0.2531
  378MOL0     C50959  10.389   5.059   6.311  0.4655 -0.2682  0.1791
  378MOL0     C50960  10.480   4.988   6.272 -0.0459  0.0822  0.4027
  378MOL0     C50961   9.581   5.096   6.451 -0.6833 -0.4277 -0.0811
  378MOL0     C50962   9.495   5.006   6.516 -0.7354 -0.3216 -0.0419
  378MOL0     H50963   9.296   4.835   6.915  1.0610 -1.8697  1.8671
  378MOL0     H50964   9.154   4.711   7.063 -2.6614  0.2167  0.7364
  378MOL0     H50965   8.842   4.610   6.933  2.4437  1.3090  0.4693
  378MOL0     H50966   8.810   4.455   7.006 -0.0906 -0.4169 -0.9129
  378MOL0     H50967   8.907   4.601   7.236 -3.0061 -1.4463  1.8372
  378MOL0     H50968   8.903   4.728   7.119  0.5954  0.6820  2.9340
  378MOL0     H50969   8.645   4.585   7.117  0.1290  0.0323 -1.4261
  378MOL0     H50970   8.705   4.592   7.284  0.5133  2.6564  1.2878
  378MOL0     H50971   8.712   4.828   7.283 -0.1140  0.4351 -0.7471
  378MOL0     H50972   8.717   4.836   7.105  0.7600 -2.0326 -1.4982
  378MOL0     H50973   8.478   4.732   7.113  0.6794  0.2479 -0.3134
  378MOL0     H50974   8.480   4.739   7.291 -1.0705  0.3997 -1.4934
  378MOL0     H50975   8.541   4.988   7.283  0.3774  0.0703  0.1771
  378MOL0     H50976   8.539   4.988   7.114  0.7524  0.4001  0.4376
  378MOL0     H50977   8.294   4.960   7.113  0.4549  1.7367 -0.6662
  378MOL0     H50978   8.292   4.892   7.278 -2.0338  0.3829 -1.1514
  378MOL0     H50979   8.328   5.167   7.189 -0.9113 -0.7013  0.0091
  378MOL0     H50980   8.382   5.126   7.356 -0.4173 -1.1341 -0.4768
  378MOL0     H50981   8.141   4.940   7.445 -2.4582  0.3607  1.8513
  378MOL0     H50982   7.779   4.985   7.361 -0.0032 -1.6857  0.8258
  378MOL0     H50983   7.882   4.890   7.468  4.2193  1.2542  1.2378
  378MOL0     H50984   7.838   5.051   7.642 -0.5734  0.5993  0.3354
  378MOL0     H50985   7.679   5.020   7.568 -0.9753  1.4586 -0.7202
  378MOL0     H50986   7.738   5.248   7.436 -3.1677  1.4561  0.9970
  378MOL0     H50987   7.841   5.278   7.569 -0.1106  0.2664  0.5307
  378MOL0     H50988   7.530   5.218   7.571 -0.8161  2.2223  0.3697
  378MOL0     H50989   7.608   5.370   7.588  4.6593  0.7303 -2.1628
  378MOL0     H50990   7.479   5.457   7.799 -1.7890  0.4230 -1.8347
  378MOL0     H50991   7.182   5.477   8.028  1.8858  1.4483  2.1461
  378MOL0     H50992   7.333   5.563   8.013  0.6552 -0.5677 -1.1640
  378MOL0     H50993   7.231   5.530   7.872  1.3364 -1.8686 -1.9760
  378MOL0     H50994   7.024   5.496   8.180 -0.3241  0.4041  0.4473
  378MOL0     H50995   6.908   5.536   8.404 -2.0266 -0.2979 -0.2266
  378MOL0     H50996   6.830   5.536   8.610 -2.0509  1.6708  1.4998
  378MOL0     H50997   6.684   5.529   8.514 -0.6985 -1.2586 -0.2417
  378MOL0     H50998   6.712   5.421   8.802  1.9983  0.8937 -1.2614
  378MOL0     H50999   6.649   5.571   8.748 -2.1418 -0.3542  1.8040
  378MOL0     H51000   6.531   5.318   8.760 -0.4784  0.2859  1.3239
  378MOL0     H51001   6.509   5.382   8.589 -0.0890 -2.4790  0.2245
  378MOL0     H51002   6.420   5.527   8.856 -2.5746  0.3474  0.4205
  378MOL0     H51003   6.419   5.597   8.701  2.0304  0.7181  1.2267
  378MOL0     H51004   6.208   5.502   8.768 -1.0497 -0.2794 -1.7070
  378MOL0     H51005   6.269   5.339   8.768 -0.0948  0.0257 -0.9601
  378MOL0     H51006   6.254   5.525   8.525  0.9377 -1.2545 -2.7696
  378MOL0     H51007   6.314   5.360   8.522 -0.8288  1.3197 -1.0335
  378MOL0     H51008   6.026   5.417   8.606  0.6910 -0.2223  1.0762
  378MOL0     H51009   6.097   5.266   8.537  2.4229 -0.2607  0.4006
  378MOL0     H51010   6.127   5.379   8.329 -0.3392  0.1025 -0.4401
  378MOL0     H51011   6.040   5.522   8.377  1.4823  0.3571  0.2095
  378MOL0     H51012   6.803   5.123   8.413 -0.7708  0.6953 -0.5796
  378MOL0     H51013   6.952   5.090   8.197  2.4616  0.9032  0.9549
  378MOL0     H51014   7.356   5.027   8.022 -1.0924 -1.7414 -1.3433
  378MOL0     H51015   7.545   5.038   7.869  0.2537  0.4191  0.4279
  378MOL0     H51016   9.001   4.490   6.726 -0.5065  1.0737 -0.9342
  378MOL0     H51017   9.140   4.641   6.578  4.4961 -0.5299  0.1404
  378MOL0     H51018   9.699   4.806   6.675 -2.7752 -0.7337  0.5451
  378MOL0     H51019   9.868   4.945   6.556 -0.2199  0.1856  3.2558
  378MOL0     H51020   9.981   5.028   6.407  1.4209  2.4117  1.2450
  378MOL0     H51021   9.885   5.011   6.251  2.5851 -3.6952  1.7268
  378MOL0     H51022  10.048   5.259   6.348 -1.3333  1.0739 -0.7266
  378MOL0     H51023   9.978   5.242   6.188  1.2280  0.9750 -0.5523
  378MOL0     H51024  10.196   5.170   6.150 -1.3296  1.1626  1.0698
  378MOL0     H51025  10.135   5.013   6.225 -4.9127  0.9205  0.7932
  378MOL0     H51026  10.240   5.098   6.449  1.1117  0.4678  0.8325
  378MOL0     H51027  10.290   5.241   6.358  1.7802 -0.4982 -1.9269
  378MOL0     H51028  10.558   4.915   6.259 -2.1960 -2.0601 -1.2806
  378MOL0     H51029   9.532   5.184   6.409  1.3952  1.4541  1.2163
  378MOL0     H51030   9.391   5.034   6.529 -0.9153 -1.3711  0.9116
  379MOL0     O51031   6.234   4.207   7.946  0.4509 -0.0110 -0.4184
  379MOL0     C51032   6.316   4.133   7.999 -0.0408 -1.1324 -0.2462
  379MOL0     O51033   6.309   4.082   8.124 -0.2202 -0.2630 -0.1294
  379MOL0     C51034   6.189   4.095   8.197  0.2684  0.9395  0.4718
  379MOL0     C51035   6.209   4.090   8.335  0.0451 -0.6237  0.5176
  379MOL0     C51036   6.105   4.089   8.423  0.2042  0.3679  0.8026
  379MOL0     C51037   5.972   4.085   8.387 -0.0941 -0.1377 -0.1847
  379MOL0     O51038   5.872   4.103   8.485 -0.6062  0.4490 -0.0556
  379MOL0     C51039   5.736   4.099   8.446  0.2059  0.7847 -0.6102
  379MOL0     C51040   5.638   4.088   8.565 -0.4118  0.3434  0.0358
  379MOL0     C51041   5.496   4.095   8.513  1.1724  0.5876 -0.3837
  379MOL0     C51042   5.394   4.047   8.616  0.2237  0.6230  0.1264
  379MOL0     C51043   5.257   4.053   8.541  0.0180 -0.1577 -0.5147
  379MOL0     C51044   5.146   4.013   8.641  0.2587  0.4498  0.0350
  379MOL0     C51045   5.023   3.941   8.588  0.0099  0.9591 -0.4984
  379MOL0     C51046   4.920   3.931   8.706  0.0697  0.1742  0.9534
  379MOL0     N51047   4.804   4.025   8.690  0.2200  0.4088 -0.0992
  379MOL0     C51048   4.811   4.161   8.706 -0.0338  0.6372  1.0098
  379MOL0     C51049   4.686   4.203   8.724 -0.1222 -0.6985  1.2592
  379MOL0     C51050   4.650   4.346   8.759 -0.5629 -0.5952 -0.3736
  379MOL0     C51051   4.513   4.388   8.708  0.5822  0.0663 -0.3757
  379MOL0     C51052   4.523   4.456   8.571 -0.2128 -0.5726 -0.4222
  379MOL0     C51053   4.384   4.502   8.529  0.0641  0.3822  0.6987
  379MOL0     O51054   4.289   4.387   8.536 -0.3563 -0.1834  0.4205
  379MOL0     C51055   4.171   4.393   8.472 -0.1236  0.0817 -0.3410
  379MOL0     C51056   4.085   4.505   8.475  0.1394  0.5309 -0.0785
  379MOL0     C51057   3.974   4.501   8.391 -0.4403  0.3596 -0.2357
  379MOL0     C51058   3.886   4.618   8.394  0.1509  0.9847 -0.5302
  379MOL0     C51059   3.937   4.388   8.313  0.1619 -0.0570 -0.3464
  379MOL0     C51060   3.809   4.370   8.234 -0.7314 -0.9026  0.1644
  379MOL0     O51061   3.812   4.286   8.122  0.0432 -0.8746 -0.5826
  379MOL0     C51062   3.702   4.274   8.038  0.2489  0.1708 -0.0576
  379MOL0     C51063   3.620   4.382   8.009  0.7766 -0.4484 -0.0844
  379MOL0     C51064   3.511   4.371   7.927 -0.3936  0.6152 -0.0546
  379MOL0     C51065   3.473   4.244   7.870 -0.3643  0.0031  0.9669
  379MOL0     O51066   3.369   4.219   7.786 -0.3597 -0.4104 -0.1344
  379MOL0     C51067   3.252   4.304   7.796  0.0657  0.3255  0.2361
  379MOL0     C51068   3.124   4.218   7.753 -0.3496  0.5215 -0.0026
  379MOL0     C51069   2.998   4.296   7.782  0.1147 -0.1833  0.6173
  379MOL0     C51070   2.983   4.404   7.675 -0.1140 -0.5894 -0.5667
  379MOL0     C51071   2.843   4.464   7.694  0.0021  0.1772  0.2812
  379MOL0     C51072   2.828   4.605   7.638 -0.1162 -0.0481 -0.4707
  379MOL0     C51073   2.696   4.674   7.683 -0.0314  0.2132  0.0573
  379MOL0     C51074   2.700   4.827   7.649  0.2991  0.1973  0.2162
  379MOL0    Cl51075   2.551   4.896   7.731 -0.4278 -0.1366  0.4097
  379MOL0     C51076   3.569   4.145   7.883  0.0532 -0.0571 -0.0761
  379MOL0     C51077   3.681   4.154   7.974  0.5725  0.4534  0.0172
  379MOL0     O51078   3.703   4.419   8.275  0.5196 -0.8001 -0.1192
  379MOL0     C51079   4.030   4.281   8.316  0.4520 -0.3551 -1.4850
  379MOL0     C51080   4.145   4.284   8.387 -0.3821  0.1656  0.2548
  379MOL0     N51081   4.597   4.094   8.721 -0.1493  0.7122  0.0252
  379MOL0     N51082   4.670   3.980   8.698  0.0592  0.8231 -0.1365
  379MOL0     C51083   5.946   4.094   8.249  0.0170  0.5094  0.4267
  379MOL0     C51084   6.052   4.101   8.156 -0.3025  0.6496  0.3389
  379MOL0     C51085   6.422   4.089   7.909  0.3626  0.6113 -0.6462
  379MOL0     C51086   6.433   4.146   7.780  0.8152  0.3630 -0.2910
  379MOL0     C51087   6.532   4.110   7.698 -1.1797  0.4816  0.2517
  379MOL0     C51088   6.636   4.022   7.730 -0.2686  0.7191  0.3842
  379MOL0     O51089   6.731   3.999   7.634  0.4554 -0.3298  0.1757
  379MOL0     C51090   6.807   3.879   7.646 -0.9461 -0.1885  0.3404
  379MOL0     C51091   6.916   3.874   7.529  1.5294 -0.0795 -0.0097
  379MOL0     C51092   6.970   3.734   7.520 -0.2563  0.1711 -0.5101
  379MOL0     C51093   7.096   3.719   7.448  0.1760 -0.1568 -0.5671
  379MOL0     C51094   7.174   3.593   7.484  0.3045  0.2181  0.1998
  379MOL0     C51095   7.240   3.490   7.496 -0.0695  0.0914 -0.6607
  379MOL0     C51096   6.621   3.962   7.855 -1.1343  0.6624  0.0904
  379MOL0     C51097   6.511   3.978   7.937 -0.4428 -0.6290  0.3762
  379MOL0     H51098   6.308   4.076   8.376  0.2312 -1.0770 -0.0785
  379MOL0     H51099   6.121   4.077   8.530 -1.4251 -2.3398  0.8123
  379MOL0     H51100   5.712   4.178   8.374 -1.5501 -0.2660 -1.2386
  379MOL0     H51101   5.727   4.004   8.393  3.5718 -0.7238  1.2024
  379MOL0     H51102   5.652   3.987   8.605  1.3844  0.5131 -0.1058
  379MOL0     H51103   5.654   4.160   8.645 -1.2071 -1.9702  2.4460
  379MOL0     H51104   5.466   4.193   8.475 -1.4438  0.4230  1.0459
  379MOL0     H51105   5.498   4.026   8.428  3.6648 -1.6533  1.3284
  379MOL0     H51106   5.423   3.948   8.653  2.3429  1.2122  0.1652
  379MOL0     H51107   5.394   4.117   8.700 -1.5157  0.8779 -0.0408
  379MOL0     H51108   5.246   4.156   8.507 -0.7848 -0.0126  0.1482
  379MOL0     H51109   5.251   3.981   8.459 -2.9270  0.6511 -1.1360
  379MOL0     H51110   5.188   3.946   8.716  0.3111  2.8270  2.2995
  379MOL0     H51111   5.113   4.105   8.690  0.8225  0.2056  0.8966
  379MOL0     H51112   4.977   3.994   8.504 -2.0103  2.6464  1.5308
  379MOL0     H51113   5.049   3.839   8.557  0.0367  0.8656 -0.1737
  379MOL0     H51114   4.960   3.953   8.805 -3.0543  1.1788  2.1186
  379MOL0     H51115   4.872   3.832   8.708  1.3332 -0.5707 -1.4633
  379MOL0     H51116   4.893   4.231   8.706  0.4477  0.1075 -0.5359
  379MOL0     H51117   4.664   4.350   8.867  0.8026 -2.5001 -0.4089
  379MOL0     H51118   4.727   4.410   8.715 -0.1031 -1.3611 -0.7196
  379MOL0     H51119   4.475   4.460   8.781  0.0993 -0.4942 -0.0623
  379MOL0     H51120   4.439   4.307   8.703 -0.5601  0.9940  0.8094
  379MOL0     H51121   4.569   4.388   8.498  2.7153  0.8128  0.0047
  379MOL0     H51122   4.578   4.551   8.575 -3.7537  1.6349  0.0038
  379MOL0     H51123   4.379   4.539   8.426 -4.3059  3.4989  1.7717
  379MOL0     H51124   4.344   4.584   8.588 -2.3192 -0.6398  0.6246
  379MOL0     H51125   4.105   4.594   8.535 -1.9066 -0.0613  1.6301
  379MOL0     H51126   3.797   4.594   8.452 -0.5878  1.6495 -1.3630
  379MOL0     H51127   3.929   4.706   8.443 -1.5437  1.7734 -0.4177
  379MOL0     H51128   3.845   4.644   8.297 -1.5459  2.7197  0.5926
  379MOL0     H51129   3.649   4.480   8.045  2.8143 -2.0353  3.1578
  379MOL0     H51130   3.454   4.460   7.900  1.3158  1.1412 -2.1848
  379MOL0     H51131   3.239   4.348   7.895  1.1747  1.1022  0.0611
  379MOL0     H51132   3.265   4.386   7.725 -1.7788  0.4119 -0.0520
  379MOL0     H51133   3.143   4.182   7.652  3.1883  1.4590  0.2077
  379MOL0     H51134   3.112   4.128   7.814 -0.6376  0.8899  0.4976
  379MOL0     H51135   2.989   4.346   7.878  0.7942  2.4878 -0.6086
  379MOL0     H51136   2.905   4.239   7.780 -3.5387  4.9129  2.3421
  379MOL0     H51137   3.062   4.477   7.697 -0.9011 -0.3394  1.6915
  379MOL0     H51138   3.010   4.370   7.574  3.7917 -1.1225  0.4665
  379MOL0     H51139   2.811   4.445   7.797 -1.4293 -0.2812 -0.2309
  379MOL0     H51140   2.778   4.403   7.631  0.5931  0.2272 -0.3978
  379MOL0     H51141   2.910   4.675   7.657 -0.4227  0.5810 -1.3679
  379MOL0     H51142   2.828   4.592   7.529 -2.2202  0.1310 -0.5453
  379MOL0     H51143   2.696   4.670   7.793 -3.7519  2.0492  0.2789
  379MOL0     H51144   2.611   4.621   7.639  0.1737 -0.3243  0.3013
  379MOL0     H51145   2.699   4.843   7.540 -0.8986 -1.5049 -0.0638
  379MOL0     H51146   2.797   4.860   7.686  0.0323  0.4813  0.6765
  379MOL0     H51147   3.560   4.051   7.831  3.4172  0.6074 -2.2372
  379MOL0     H51148   3.748   4.070   7.989 -0.2213 -0.2876 -0.4868
  379MOL0     H51149   4.024   4.188   8.262  1.5314 -1.3665  0.0514
  379MOL0     H51150   4.212   4.200   8.399  3.2887  3.0833  2.3323
  379MOL0     H51151   5.848   4.085   8.203 -0.0186  2.4656  0.0325
  379MOL0     H51152   6.032   4.101   8.049 -0.1043 -1.5022  0.2555
  379MOL0     H51153   6.369   4.230   7.754 -1.2626 -1.5500 -1.7211
  379MOL0     H51154   6.535   4.172   7.609 -0.6228  2.9472  1.9021
  379MOL0     H51155   6.856   3.866   7.743  0.8167  1.4056 -0.2929
  379MOL0     H51156   6.745   3.789   7.636 -1.0014 -0.8055  4.4935
  379MOL0     H51157   6.995   3.945   7.555  1.3775 -0.8035  2.8215
  379MOL0     H51158   6.879   3.895   7.428 -0.2337 -0.7645  0.4501
  379MOL0     H51159   6.906   3.660   7.470 -3.3467  2.6898 -0.5762
  379MOL0     H51160   6.989   3.703   7.623  2.4125  2.4318 -0.2154
  379MOL0     H51161   7.168   3.797   7.474 -0.6727 -0.2097  2.3590
  379MOL0     H51162   7.070   3.715   7.342 -2.0524  1.0341 -0.1285
  379MOL0     H51163   7.281   3.392   7.495 -1.0103 -0.3841  1.3250
  379MOL0     H51164   6.701   3.891   7.873  0.0686  1.9388 -0.0357
  379MOL0     H51165   6.504   3.921   8.030 -0.9973  2.4817  2.4136
  380MOL0     O51166   8.706   7.561   0.027  0.7793 -0.0623 -0.0059
  380MOL0     C51167   8.776   7.497  -0.052 -0.3896  0.1504  0.5034
  380MOL0     O51168   8.737   7.378  -0.111 -0.1264 -0.1760  0.0614
  380MOL0     C51169   8.605   7.333  -0.093  0.1974  0.2367 -0.0686
  380MOL0     C51170   8.570   7.201  -0.049 -1.0886 -0.5717 -0.1676
  380MOL0     C51171   8.437   7.176  -0.030  0.2172  0.9594  0.5911
  380MOL0     C51172   8.321   7.260  -0.062 -0.1808  0.3486 -0.0097
  380MOL0     O51173   8.185   7.224  -0.067 -0.0474  0.2404 -0.2002
  380MOL0     C51174   8.138   7.087  -0.040 -0.8126  0.2959 -0.9009
  380MOL0     C51175   7.991   7.089  -0.010  0.7375  0.3353  0.4617
  380MOL0     C51176   7.935   6.948  -0.020  0.4590 -0.0349  0.6765
  380MOL0     C51177   7.777   6.959  -0.031  0.1956  0.5848  0.6139
  380MOL0     C51178   7.710   6.830  -0.012  0.6252  0.0860  0.0205
  380MOL0     C51179   7.567   6.827  -0.068  0.2264  0.6218  0.5793
  380MOL0     C51180   7.492   6.719   0.005  0.0437  0.5673 -1.0130
  380MOL0     C51181   7.364   6.674  -0.075 -0.2813  0.1653  0.1469
  380MOL0     N51182   7.270   6.779  -0.048  0.9712  0.7692  0.3247
  380MOL0     C51183   7.258   6.904  -0.118 -0.1023  0.2330 -0.4882
  380MOL0     C51184   7.163   6.965  -0.049  1.0196 -0.7801  0.7139
  380MOL0     C51185   7.116   7.107  -0.084 -0.3136  0.0680 -0.7559
  380MOL0     C51186   6.988   7.111  -0.179 -0.8403  0.7211  0.0807
  380MOL0     C51187   6.856   7.118  -0.099  1.1075  0.0115 -0.2491
  380MOL0     C51188   6.738   7.096  -0.192  0.2348 -0.6438  0.2968
  380MOL0     O51189   6.619   7.101  -0.122  0.7401 -0.1232  0.2005
  380MOL0     C51190   6.499   7.115  -0.193  0.7951  1.0158  0.4577
  380MOL0     C51191   6.381   7.164  -0.124 -0.7223  0.5662  0.3153
  380MOL0     C51192   6.252   7.159  -0.180 -0.7778  0.3577 -0.3128
  380MOL0     C51193   6.152   7.233  -0.100 -0.1446 -0.3867  0.4631
  380MOL0     C51194   6.238   7.109  -0.314 -0.0899  0.0116 -0.0907
  380MOL0     C51195   6.113   7.107  -0.388  0.1573  0.2890  0.8356
  380MOL0     O51196   6.116   7.118  -0.520  0.1694 -0.2306  0.4263
  380MOL0     C51197   6.009   7.098  -0.604  0.9722  0.5745  1.2085
  380MOL0     C51198   5.874   7.066  -0.563  0.3240 -0.5488  0.9781
  380MOL0     C51199   5.778   7.032  -0.666 -0.5156  0.1324 -0.3607
  380MOL0     C51200   5.811   7.003  -0.796 -0.4518  1.0067  0.2600
  380MOL0     O51201   5.713   6.962  -0.885 -0.5203  0.4334 -0.0741
  380MOL0     C51202   5.573   6.946  -0.866 -0.2755 -0.5683 -0.1194
  380MOL0     C51203   5.512   7.074  -0.916 -0.0469 -0.1897 -0.0199
  380MOL0     C51204   5.356   7.056  -0.925  0.2860  0.6780 -1.2931
  380MOL0     C51205   5.295   7.192  -0.943 -0.8087  0.0554 -0.0453
  380MOL0     C51206   5.143   7.191  -0.940  0.4850  1.2866  0.5727
  380MOL0     C51207   5.096   7.142  -1.079  0.2013  0.0061 -0.3265
  380MOL0     C51208   4.939   7.132  -1.083  0.3650  0.3670  0.9982
  380MOL0     C51209   4.901   7.084  -1.226 -0.5843  0.1942  0.6388
  380MOL0    Cl51210   4.718   7.078  -1.227 -0.2531  0.2152 -0.0858
  380MOL0     C51211   5.944   7.023  -0.838 -0.5028 -1.1738 -0.1640
  380MOL0     C51212   6.038   7.080  -0.744  0.7267  0.3402  1.3882
  380MOL0     O51213   6.018   7.086  -0.316 -0.0509 -0.3134 -0.4584
  380MOL0     C51214   6.353   7.072  -0.382 -0.8770 -0.1236 -0.8813
  380MOL0     C51215   6.483   7.071  -0.329 -0.2488  0.2750 -0.0683
  380MOL0     N51216   7.098   6.882   0.039 -0.0476 -0.3299 -1.2531
  380MOL0     N51217   7.165   6.777   0.041  0.4914 -0.0331 -0.0676
  380MOL0     C51218   8.358   7.389  -0.100 -0.3419 -0.9302  1.4776
  380MOL0     C51219   8.498   7.427  -0.115  0.3480 -0.5906 -0.6746
  380MOL0     C51220   8.918   7.525  -0.074  0.3666  0.3581 -0.1860
  380MOL0     C51221   8.999   7.459  -0.173 -0.6927 -0.2258 -1.0375
  380MOL0     C51222   9.132   7.496  -0.195 -0.3001 -0.4531 -1.0905
  380MOL0     C51223   9.190   7.600  -0.119  0.0559 -0.6646  0.6715
  380MOL0     O51224   9.325   7.637  -0.148  0.3968  0.3513 -0.7182
  380MOL0     C51225   9.383   7.764  -0.112 -0.3436  1.1528 -0.3081
  380MOL0     C51226   9.475   7.747   0.007  0.8059 -0.9477 -1.4133
  380MOL0     C51227   9.602   7.655  -0.018  0.2021 -0.4049  0.2039
  380MOL0     C51228   9.582   7.507  -0.033  0.4406  0.9734 -0.3362
  380MOL0     C51229   9.719   7.441  -0.031  0.3239 -0.4727 -0.3274
  380MOL0     C51230   9.813   7.362  -0.037 -0.0240  0.5180  0.1648
  380MOL0     C51231   9.103   7.668  -0.032  0.7053  0.3375 -0.9211
  380MOL0     C51232   8.976   7.627   0.002  0.3304  0.0961  0.4758
  380MOL0     H51233   8.648   7.126  -0.047 -0.2979  0.2311 -0.4550
  380MOL0     H51234   8.418   7.075   0.004  1.5625  1.2629  2.3352
  380MOL0     H51235   8.164   7.006  -0.108 -0.1933 -1.7108  1.5821
  380MOL0     H51236   8.188   7.055   0.053  0.4779 -0.6418 -1.8845
  380MOL0     H51237   7.979   7.125   0.093  2.5749 -0.9450  1.1751
  380MOL0     H51238   7.938   7.153  -0.080 -1.2155 -0.2126  1.3839
  380MOL0     H51239   7.973   6.899  -0.111 -4.0845  0.9082 -2.1006
  380MOL0     H51240   7.967   6.889   0.066 -0.8019 -1.1637  0.4094
  380MOL0     H51241   7.720   7.022   0.038  2.0367  0.9853  1.8257
  380MOL0     H51242   7.745   7.000  -0.127 -1.1455 -0.4646  0.5715
  380MOL0     H51243   7.773   6.762  -0.069  2.0991  3.0021 -2.1350
  380MOL0     H51244   7.712   6.795   0.092 -4.1097 -0.2405  0.2178
  380MOL0     H51245   7.516   6.923  -0.053  2.0751  1.7301  0.1488
  380MOL0     H51246   7.572   6.805  -0.175  1.1858 -1.5451  1.0239
  380MOL0     H51247   7.554   6.631   0.021  0.2219  0.9485  0.6247
  380MOL0     H51248   7.473   6.760   0.105  0.4386  2.9964 -1.8512
  380MOL0     H51249   7.326   6.578  -0.040 -0.7406  0.8639  1.6690
  380MOL0     H51250   7.401   6.667  -0.178  1.4523 -1.2615  0.8133
  380MOL0     H51251   7.332   6.943  -0.187  0.3786 -1.0097 -0.7051
  380MOL0     H51252   7.091   7.152   0.013 -0.7020 -0.1779 -0.7401
  380MOL0     H51253   7.194   7.170  -0.128 -1.4150 -0.6902 -4.0171
  380MOL0     H51254   6.980   7.020  -0.240  0.0405  0.8686 -0.2768
  380MOL0     H51255   6.995   7.193  -0.251 -1.2351  0.1926 -0.5664
  380MOL0     H51256   6.849   7.218  -0.055  0.5730  0.5626 -1.5356
  380MOL0     H51257   6.845   7.052  -0.013 -0.9856  1.0941  0.3852
  380MOL0     H51258   6.746   7.000  -0.245 -2.5534 -1.6385  1.4739
  380MOL0     H51259   6.747   7.179  -0.262  3.7125  0.2471  1.5865
  380MOL0     H51260   6.398   7.185  -0.019 -2.0363 -2.6436  1.2802
  380MOL0     H51261   6.102   7.300  -0.171  0.6075 -2.0997 -1.7801
  380MOL0     H51262   6.087   7.166  -0.044 -1.0222 -1.1440 -1.3962
  380MOL0     H51263   6.200   7.295  -0.024  1.7771 -0.5728 -0.5338
  380MOL0     H51264   5.844   7.069  -0.459  0.1282 -0.7515  0.9286
  380MOL0     H51265   5.683   7.013  -0.616 -1.4068  4.0527 -0.2096
  380MOL0     H51266   5.551   6.857  -0.925  1.2236 -0.0568 -1.4899
  380MOL0     H51267   5.545   6.926  -0.762  1.2815 -2.8220 -0.0757
  380MOL0     H51268   5.531   7.155  -0.844  4.4860  0.0098 -1.0863
  380MOL0     H51269   5.551   7.099  -1.015  0.3630  0.7905  0.3717
  380MOL0     H51270   5.318   7.008  -0.834  1.1633  2.8920  0.3494
  380MOL0     H51271   5.342   6.990  -1.010 -0.1983 -0.9413 -0.0086
  380MOL0     H51272   5.327   7.246  -0.853  1.2024 -0.5669 -0.3549
  380MOL0     H51273   5.331   7.256  -1.023  0.2895  2.8765  2.4980
  380MOL0     H51274   5.110   7.295  -0.929  2.0211  2.1379 -1.9221
  380MOL0     H51275   5.096   7.115  -0.877 -0.1883  0.2638 -1.0721
  380MOL0     H51276   5.119   7.216  -1.156  1.5733 -3.2116 -3.3086
  380MOL0     H51277   5.133   7.044  -1.111 -3.3783 -2.0776  1.3173
  380MOL0     H51278   4.886   7.223  -1.055 -0.5225  0.2742 -0.2750
  380MOL0     H51279   4.904   7.055  -1.014 -2.7392  0.5343 -0.2101
  380MOL0     H51280   4.945   6.985  -1.242 -0.5707  0.2619  0.2491
  380MOL0     H51281   4.937   7.158  -1.298 -2.2993 -0.2420 -0.7447
  380MOL0     H51282   5.987   7.006  -0.936  2.1796  1.1174  0.4624
  380MOL0     H51283   6.132   7.107  -0.791  1.2416 -0.7002  1.7978
  380MOL0     H51284   6.327   7.036  -0.481 -2.5738 -0.3325 -0.3881
  380MOL0     H51285   6.562   7.040  -0.397  0.7779  0.8241  0.8333
  380MOL0     H51286   8.276   7.450  -0.137  1.1780 -0.9010 -2.2977
  380MOL0     H51287   8.510   7.526  -0.155 -0.1286 -0.1155  0.3115
  380MOL0     H51288   8.955   7.378  -0.230  1.0277 -2.0418  0.0668
  380MOL0     H51289   9.194   7.440  -0.264  3.4240 -1.7018  2.8382
  380MOL0     H51290   9.450   7.794  -0.193 -0.1576  1.1519 -0.1574
  380MOL0     H51291   9.317   7.850  -0.099 -1.8469  0.1827 -1.2780
  380MOL0     H51292   9.412   7.710   0.088  0.9041  2.4379  0.4055
  380MOL0     H51293   9.505   7.850   0.031 -0.4139 -0.4376 -2.0080
  380MOL0     H51294   9.662   7.678   0.071  0.2396  1.3149 -0.2283
  380MOL0     H51295   9.660   7.686  -0.106 -0.4910 -0.6650 -0.3463
  380MOL0     H51296   9.543   7.482  -0.131  4.2489 -4.3019 -0.9510
  380MOL0     H51297   9.517   7.480   0.051 -0.5460 -1.7556 -1.8393
  380MOL0     H51298   9.890   7.287  -0.045 -1.7881 -1.2160 -1.7947
  380MOL0     H51299   9.115   7.763   0.018 -1.0446 -1.3361  3.0754
  380MOL0     H51300   8.919   7.684   0.076  0.4027 -0.7177  1.1783
  381MOL0     O51301   9.212   8.853   1.925 -0.5317 -0.0731  0.3570
  381MOL0     C51302   9.287   8.762   1.946  0.6460 -0.3321 -0.0786
  381MOL0     O51303   9.296   8.649   1.874 -0.0194 -0.1008 -0.1995
  381MOL0     C51304   9.216   8.651   1.765 -0.1227  1.0185 -0.2043
  381MOL0     C51305   9.259   8.640   1.632  0.4028  0.8573  0.0626
  381MOL0     C51306   9.171   8.644   1.521  0.2974  0.4897 -0.5420
  381MOL0     C51307   9.036   8.642   1.538 -0.2508  0.6748 -1.3544
  381MOL0     O51308   8.971   8.642   1.421 -0.0144  0.4384  0.6351
  381MOL0     C51309   8.823   8.636   1.407 -0.6948  0.8169  0.1559
  381MOL0     C51310   8.779   8.734   1.299 -0.3772  0.4195 -0.6912
  381MOL0     C51311   8.834   8.876   1.311 -0.1058 -0.7993  0.0458
  381MOL0     C51312   8.816   8.940   1.450 -0.4588 -1.1186  0.2787
  381MOL0     C51313   8.675   8.988   1.491  0.2334  0.2175 -0.3054
  381MOL0     C51314   8.615   8.913   1.610  0.0957 -0.2859 -0.5347
  381MOL0     C51315   8.511   8.998   1.701  0.2657 -0.2026 -1.0378
  381MOL0     C51316   8.387   9.038   1.634 -0.1642 -0.0085  0.0431
  381MOL0     N51317   8.280   8.940   1.632  0.1583 -0.2554  0.3210
  381MOL0     C51318   8.239   8.853   1.528 -0.4936  0.3272 -0.0263
  381MOL0     C51319   8.119   8.800   1.568 -0.4663 -0.7237 -0.2934
  381MOL0     C51320   8.040   8.692   1.502  0.5409  0.0791  0.1127
  381MOL0     C51321   7.964   8.742   1.376 -0.1848 -0.6784 -1.0188
  381MOL0     C51322   7.864   8.852   1.422  0.0427 -0.1504 -0.5238
  381MOL0     C51323   7.784   8.918   1.308  0.4797  0.7146 -1.0182
  381MOL0     O51324   7.698   9.021   1.363  0.1306 -0.0356  0.1737
  381MOL0     C51325   7.610   9.087   1.287  0.2176 -0.2408 -1.1235
  381MOL0     C51326   7.595   9.048   1.153  0.2808  1.1301  0.1226
  381MOL0     C51327   7.495   9.103   1.074 -0.1252 -1.1743 -0.3994
  381MOL0     C51328   7.492   9.057   0.931 -0.0167 -0.1812 -0.8590
  381MOL0     C51329   7.396   9.186   1.133 -0.7358  0.9765  0.0912
  381MOL0     C51330   7.272   9.229   1.060 -0.5806  0.2543 -0.7078
  381MOL0     O51331   7.251   9.363   1.082  0.3924  0.1943 -0.5404
  381MOL0     C51332   7.141   9.411   1.022 -0.4411  0.2184 -0.5453
  381MOL0     C51333   7.159   9.495   0.914 -0.4055  0.5244  0.3188
  381MOL0     C51334   7.047   9.551   0.866  0.7709  0.1148 -0.0144
  381MOL0     C51335   6.919   9.539   0.930 -0.1128  0.5989 -0.0034
  381MOL0     O51336   6.803   9.592   0.886 -0.0741 -0.3173  0.2840
  381MOL0     C51337   6.801   9.674   0.765 -0.5559 -0.0612  0.0403
  381MOL0     C51338   6.669   9.720   0.732  0.1945  0.3336  0.1772
  381MOL0     C51339   6.653   9.789   0.591  0.3811  0.1910 -0.0031
  381MOL0     C51340   6.525   9.866   0.558  0.6860  0.0105 -0.4815
  381MOL0     C51341   6.500   9.984   0.642  0.1973 -0.9356 -0.2527
  381MOL0     C51342   6.346  10.023   0.645 -0.9150  0.6435 -0.3708
  381MOL0     C51343   6.294  10.049   0.506  0.1130 -0.3514  0.5587
  381MOL0     C51344   6.154  10.125   0.489 -0.2939 -0.8852 -1.1145
  381MOL0    Cl51345   6.158  10.275   0.595  0.3822 -0.0290  0.5986
  381MOL0     C51346   6.898   9.449   1.034 -0.1752  0.3599  0.5018
  381MOL0     C51347   7.015   9.392   1.078  0.0963 -0.2077  0.7999
  381MOL0     O51348   7.195   9.156   0.997 -0.2124  0.1959 -0.1576
  381MOL0     C51349   7.408   9.213   1.273 -0.2521  0.3308 -0.5971
  381MOL0     C51350   7.525   9.170   1.353 -0.7678 -0.3550 -0.2510
  381MOL0     N51351   8.093   8.846   1.690 -1.3185 -0.6278  0.7099
  381MOL0     N51352   8.184   8.928   1.726  0.4665  0.1577 -0.4473
  381MOL0     C51353   8.985   8.645   1.666  0.5123 -0.2663  0.9877
  381MOL0     C51354   9.077   8.645   1.782  0.5826 -0.6153 -0.0780
  381MOL0     C51355   9.367   8.762   2.075  1.1916  0.2033 -0.2361
  381MOL0     C51356   9.344   8.873   2.162 -0.6294  0.1829  0.6204
  381MOL0     C51357   9.410   8.880   2.284 -0.4026  0.7659  0.2777
  381MOL0     C51358   9.508   8.784   2.312  0.2910 -0.1407 -0.1799
  381MOL0     O51359   9.565   8.801   2.436 -0.6805 -0.6596  0.4270
  381MOL0     C51360   9.677   8.724   2.480 -0.1230  0.6353  0.4817
  381MOL0     C51361   9.713   8.784   2.607 -0.2534 -0.5212  0.1485
  381MOL0     C51362   9.837   8.704   2.656 -0.9391  0.2218 -0.7009
  381MOL0     C51363   9.825   8.593   2.767  0.2870  0.2943 -0.5061
  381MOL0     C51364   9.950   8.529   2.807  0.5027  0.1932  0.2161
  381MOL0     C51365  10.061   8.491   2.815 -0.2657 -0.2973  0.0531
  381MOL0     C51366   9.533   8.683   2.221  0.2562 -0.0268  0.1638
  381MOL0     C51367   9.462   8.669   2.108  0.4025  0.3414  0.5587
  381MOL0     H51368   9.366   8.646   1.614  0.0752  3.5025 -1.4731
  381MOL0     H51369   9.211   8.641   1.420 -0.6618  0.3987 -0.9323
  381MOL0     H51370   8.798   8.537   1.370 -3.3438  0.7648  1.7867
  381MOL0     H51371   8.760   8.655   1.495 -1.8822 -0.1517 -0.4552
  381MOL0     H51372   8.823   8.697   1.205  1.6386  2.1091 -0.4977
  381MOL0     H51373   8.670   8.741   1.296 -0.5123 -0.0550  1.7339
  381MOL0     H51374   8.940   8.869   1.285 -0.3644 -0.1570 -1.2477
  381MOL0     H51375   8.786   8.936   1.233 -1.6637  1.0231  2.2616
  381MOL0     H51376   8.864   8.885   1.531  0.4681  2.5601  2.4811
  381MOL0     H51377   8.871   9.033   1.432 -2.0226  0.6426  3.7506
  381MOL0     H51378   8.685   9.095   1.512  0.0021  0.6491 -2.1858
  381MOL0     H51379   8.602   8.982   1.410  0.4660 -2.0666 -0.4063
  381MOL0     H51380   8.577   8.813   1.584 -1.2916 -0.3437  1.5009
  381MOL0     H51381   8.696   8.898   1.681 -1.8112  1.1754  2.0956
  381MOL0     H51382   8.481   8.931   1.781 -2.2473 -0.1264 -1.8451
  381MOL0     H51383   8.566   9.085   1.737  0.0275  0.5389 -2.3829
  381MOL0     H51384   8.392   9.070   1.529 -1.5743  0.9334  0.2430
  381MOL0     H51385   8.335   9.114   1.693 -0.9885 -2.2219  2.3156
  381MOL0     H51386   8.300   8.823   1.444 -3.1046 -0.2138 -1.8437
  381MOL0     H51387   8.118   8.624   1.467  0.9244  0.5325  0.0603
  381MOL0     H51388   7.983   8.635   1.575 -0.4023 -1.2249 -1.5695
  381MOL0     H51389   7.907   8.655   1.343 -0.8548 -0.8123  0.4388
  381MOL0     H51390   8.044   8.780   1.312  1.0832 -1.0801  0.2861
  381MOL0     H51391   7.909   8.922   1.492  2.2237 -0.0701 -1.8961
  381MOL0     H51392   7.787   8.811   1.488 -0.0959 -1.0718 -1.2207
  381MOL0     H51393   7.720   8.844   1.259 -1.7842  1.4180  0.6673
  381MOL0     H51394   7.850   8.963   1.233 -0.9351  0.3743 -2.5116
  381MOL0     H51395   7.679   8.995   1.109  1.1798  1.8851  0.8740
  381MOL0     H51396   7.593   9.025   0.905  1.2830  2.3371  0.6880
  381MOL0     H51397   7.421   8.974   0.923  0.5584 -1.3036  3.2490
  381MOL0     H51398   7.450   9.139   0.871 -1.7688 -0.0738  0.4166
  381MOL0     H51399   7.260   9.511   0.880  0.1329  0.5706  1.8950
  381MOL0     H51400   7.061   9.615   0.779 -1.6733  2.2744  1.0538
  381MOL0     H51401   6.863   9.762   0.786 -0.0566  0.2087 -2.3106
  381MOL0     H51402   6.846   9.618   0.683  1.3024 -2.9056  2.7620
  381MOL0     H51403   6.596   9.639   0.744 -1.0714  1.0951 -1.8447
  381MOL0     H51404   6.641   9.805   0.794 -0.8118  0.6329 -0.6590
  381MOL0     H51405   6.672   9.714   0.513  1.7074  0.5779 -0.0697
  381MOL0     H51406   6.737   9.858   0.586  0.3519  0.2339  0.1207
  381MOL0     H51407   6.529   9.904   0.456 -2.4438  2.3647  0.1097
  381MOL0     H51408   6.439   9.798   0.563 -0.0456  0.9574  0.4994
  381MOL0     H51409   6.555  10.071   0.605  0.0770 -0.5478  0.4673
  381MOL0     H51410   6.516   9.970   0.749  1.1834 -0.0883 -0.2678
  381MOL0     H51411   6.293   9.940   0.694  0.5272  1.5158  2.9459
  381MOL0     H51412   6.336  10.118   0.698  0.1723  0.3029  0.4949
  381MOL0     H51413   6.280   9.949   0.464 -0.4402  0.3203 -0.9000
  381MOL0     H51414   6.370  10.103   0.449 -2.2912  2.4870 -0.2189
  381MOL0     H51415   6.072  10.059   0.518  0.7872 -1.4451  0.9299
  381MOL0     H51416   6.144  10.173   0.391 -1.8870  0.9818 -0.1086
  381MOL0     H51417   6.796   9.437   1.068 -1.5324  1.0711 -2.9494
  381MOL0     H51418   6.992   9.321   1.157 -0.6438 -0.5163  0.3181
  381MOL0     H51419   7.338   9.275   1.329  0.0856 -1.0039  1.4058
  381MOL0     H51420   7.534   9.200   1.457 -1.3144  0.4195 -0.4193
  381MOL0     H51421   8.883   8.671   1.689  1.5538  0.9228  4.9095
  381MOL0     H51422   9.042   8.654   1.885 -1.0453  0.2716 -0.6881
  381MOL0     H51423   9.267   8.949   2.155 -2.7497 -1.7849  1.2940
  381MOL0     H51424   9.385   8.966   2.345  1.5590  1.9814 -0.5440
  381MOL0     H51425   9.652   8.618   2.494 -0.6080  1.0409  3.1820
  381MOL0     H51426   9.755   8.724   2.403 -0.3910  2.4799  0.1651
  381MOL0     H51427   9.636   8.780   2.685 -0.4633  0.2432 -0.0062
  381MOL0     H51428   9.745   8.888   2.600  1.6574 -0.9643  1.5688
  381MOL0     H51429   9.911   8.778   2.690  1.5527 -2.8954  1.2513
  381MOL0     H51430   9.893   8.660   2.574  2.4727  0.6136  1.2128
  381MOL0     H51431   9.749   8.518   2.745 -1.3830  1.5125  0.8634
  381MOL0     H51432   9.791   8.646   2.856 -0.9455  0.5919 -1.1383
  381MOL0     H51433  10.162   8.460   2.834 -0.3943  0.0307  1.3472
  381MOL0     H51434   9.612   8.610   2.237 -0.3513 -0.3133  2.1742
  381MOL0     H51435   9.493   8.586   2.045  0.9795  1.1916 -0.3093
  382MOL0     O51436   0.030   4.434   6.362 -0.7620 -0.0571 -0.0348
  382MOL0     C51437  -0.082   4.452   6.315  0.1884 -0.2883 -0.4859
  382MOL0     O51438  -0.167   4.549   6.352  0.0130  0.6098 -0.8171
  382MOL0     C51439  -0.132   4.636   6.452 -0.5966  0.1311 -0.3965
  382MOL0     C51440  -0.216   4.644   6.562  0.5888  0.6328 -1.0089
  382MOL0     C51441  -0.200   4.738   6.665  0.2248 -0.6399 -0.6057
  382MOL0     C51442  -0.105   4.838   6.665 -0.1565 -0.1453 -0.0023
  382MOL0     O51443  -0.100   4.927   6.771 -0.9717  0.3057 -0.1102
  382MOL0     C51444   0.032   4.944   6.833 -1.2069 -0.0173 -0.8371
  382MOL0     C51445   0.021   4.944   6.989 -0.1542 -0.1119 -1.0549
  382MOL0     C51446   0.155   4.975   7.069  0.9416 -0.0994 -0.0179
  382MOL0     C51447   0.241   4.860   7.078  0.3347  0.1917 -0.8520
  382MOL0     C51448   0.371   4.909   7.139 -1.1501 -1.0003  1.0285
  382MOL0     C51449   0.490   4.801   7.135 -0.0173 -0.4775  0.4473
  382MOL0     C51450   0.528   4.763   6.984 -0.6725 -0.0986 -0.5270
  382MOL0     C51451   0.658   4.799   6.937 -0.4006  0.6275 -0.4856
  382MOL0     N51452   0.777   4.740   7.015  0.6326  0.1510  0.2454
  382MOL0     C51453   0.839   4.803   7.115 -0.1339  0.1119  0.2761
  382MOL0     C51454   0.926   4.715   7.165 -0.0175 -0.3403 -0.3406
  382MOL0     C51455   1.026   4.733   7.274 -0.8628  0.6730 -0.3205
  382MOL0     C51456   0.983   4.671   7.412 -0.1643  0.3698  0.0293
  382MOL0     C51457   0.894   4.761   7.489 -0.0759  0.2762  0.5425
  382MOL0     C51458   0.869   4.724   7.636  0.1413 -0.1926 -0.9437
  382MOL0     O51459   0.981   4.698   7.713  0.9105  0.0303 -0.2636
  382MOL0     C51460   1.049   4.811   7.756 -0.2708  0.0469 -0.2221
  382MOL0     C51461   1.017   4.946   7.734  0.0679 -0.4779 -0.0544
  382MOL0     C51462   1.100   5.057   7.780 -0.2043 -0.1506 -0.4330
  382MOL0     C51463   1.066   5.195   7.729 -0.3432  0.0332  0.0951
  382MOL0     C51464   1.225   5.026   7.845 -0.2473  0.5817  1.2724
  382MOL0     C51465   1.322   5.121   7.885 -0.1509 -0.3820  0.0298
  382MOL0     O51466   1.444   5.078   7.922  0.0742  0.7323 -0.0029
  382MOL0     C51467   1.531   5.165   7.968 -0.9257  0.4854  0.1229
  382MOL0     C51468   1.514   5.251   8.077  0.3694 -0.4034 -0.0954
  382MOL0     C51469   1.622   5.327   8.126  1.1757 -0.7240  0.6937
  382MOL0     C51470   1.749   5.312   8.066 -0.4861  1.3321 -1.2387
  382MOL0     O51471   1.861   5.378   8.117  0.8915  0.2510 -0.2422
  382MOL0     C51472   1.843   5.511   8.180  0.8542 -0.1696  0.7412
  382MOL0     C51473   1.968   5.586   8.156 -0.6689 -0.0331  1.0358
  382MOL0     C51474   1.961   5.671   8.026 -0.3968 -1.0311  0.6031
  382MOL0     C51475   2.084   5.766   8.003  0.3529 -0.1780  0.0738
  382MOL0     C51476   2.207   5.683   7.963  0.2959  0.7921 -0.0848
  382MOL0     C51477   2.322   5.770   7.912  0.5067 -0.0610 -0.6442
  382MOL0     C51478   2.448   5.687   7.889 -0.0459  0.6206  0.7207
  382MOL0     C51479   2.561   5.773   7.852  0.9876 -0.0497  0.2316
  382MOL0    Cl51480   2.688   5.681   7.763 -0.1224 -0.1323 -0.3644
  382MOL0     C51481   1.762   5.223   7.964 -1.3986 -0.7998  0.0412
  382MOL0     C51482   1.657   5.145   7.912  0.8268 -0.4585 -0.1314
  382MOL0     O51483   1.295   5.242   7.875  0.7602  0.3466 -0.2548
  382MOL0     C51484   1.253   4.886   7.871 -0.5114  0.2119  0.2608
  382MOL0     C51485   1.170   4.787   7.819  0.2193  0.3621 -0.2343
  382MOL0     N51486   0.921   4.610   7.077  0.4348  1.0699 -0.0893
  382MOL0     N51487   0.829   4.616   6.990 -0.3600  1.0072 -0.0215
  382MOL0     C51488  -0.013   4.827   6.553 -0.2608 -0.3320 -0.0387
  382MOL0     C51489  -0.030   4.728   6.448 -0.1457 -0.2525 -0.6918
  382MOL0     C51490  -0.128   4.361   6.206 -0.1920 -0.6491  0.4248
  382MOL0     C51491  -0.059   4.251   6.155 -0.3529 -0.5904  0.1050
  382MOL0     C51492  -0.109   4.167   6.048 -0.1501  0.5616  0.0750
  382MOL0     C51493  -0.236   4.194   5.990 -0.0073  0.0398 -1.1297
  382MOL0     O51494  -0.280   4.113   5.885  0.7585 -0.1552 -0.3176
  382MOL0     C51495  -0.338   4.193   5.772 -0.5788  0.0590  0.6511
  382MOL0     C51496  -0.264   4.158   5.653  0.0159  0.7528  0.0590
  382MOL0     C51497  -0.301   4.018   5.594  0.1956 -0.2437  0.0173
  382MOL0     C51498  -0.443   3.994   5.536 -0.4390  0.4737 -0.3700
  382MOL0     C51499  -0.478   4.075   5.426  0.1618 -0.1309 -0.4139
  382MOL0     C51500  -0.523   4.150   5.340  0.2385 -0.6077  0.1119
  382MOL0     C51501  -0.314   4.294   6.048 -0.2311  0.2629  0.0796
  382MOL0     C51502  -0.256   4.384   6.143  0.1673  0.0878 -0.6457
  382MOL0     H51503  -0.301   4.579   6.576  0.9279  0.2165 -0.8445
  382MOL0     H51504  -0.258   4.731   6.756  0.1264  1.4323 -0.4681
  382MOL0     H51505   0.094   4.859   6.801  0.8074  0.2824  1.8847
  382MOL0     H51506   0.075   5.040   6.802 -1.5166  0.5216  0.3279
  382MOL0     H51507  -0.049   5.021   7.023  1.9190  1.8299 -0.9561
  382MOL0     H51508  -0.019   4.845   7.013 -0.3830  0.4059  0.9091
  382MOL0     H51509   0.217   5.059   7.034  0.5020  0.6638  0.9797
  382MOL0     H51510   0.118   5.002   7.168 -0.0583 -2.9652  0.4697
  382MOL0     H51511   0.203   4.780   7.143  0.8696  0.8249  0.2858
  382MOL0     H51512   0.249   4.807   6.983 -2.5489 -0.7314 -0.6806
  382MOL0     H51513   0.408   5.000   7.092  2.4234 -1.9211  1.7607
  382MOL0     H51514   0.350   4.945   7.240  1.3201 -0.0608  1.2611
  382MOL0     H51515   0.581   4.843   7.180 -0.7930  1.0973  0.5855
  382MOL0     H51516   0.474   4.705   7.186  1.7508 -1.0561  0.0201
  382MOL0     H51517   0.516   4.655   6.970 -0.0197 -0.1331 -0.8616
  382MOL0     H51518   0.458   4.800   6.909 -1.5306 -2.1923 -0.8131
  382MOL0     H51519   0.654   4.908   6.933 -0.7558  0.6365  0.0341
  382MOL0     H51520   0.668   4.770   6.832 -0.1830 -0.1221 -0.2594
  382MOL0     H51521   0.827   4.901   7.159 -0.0790 -0.1175  0.8085
  382MOL0     H51522   1.112   4.674   7.245 -2.0378 -0.7869 -0.9678
  382MOL0     H51523   1.040   4.841   7.286  2.0398  0.2349  0.8892
  382MOL0     H51524   1.073   4.643   7.467 -0.1437 -0.5462 -0.4487
  382MOL0     H51525   0.926   4.578   7.404  2.6610 -1.3811 -1.1432
  382MOL0     H51526   0.798   4.772   7.437  0.2441  1.8760  0.2363
  382MOL0     H51527   0.932   4.864   7.493 -2.0285  1.2046 -1.9496
  382MOL0     H51528   0.819   4.627   7.646  1.3883 -0.6427  2.0878
  382MOL0     H51529   0.805   4.790   7.695 -0.1450 -1.3318  0.0639
  382MOL0     H51530   0.927   4.977   7.682  0.8652  0.6629 -0.7968
  382MOL0     H51531   0.974   5.181   7.672 -1.9976  1.9313  2.1331
  382MOL0     H51532   1.043   5.272   7.804  0.7380  0.7383 -0.2636
  382MOL0     H51533   1.140   5.231   7.657 -2.1682 -0.4113 -2.1241
  382MOL0     H51534   1.418   5.266   8.125  0.0331  0.2672 -0.9366
  382MOL0     H51535   1.607   5.394   8.210  0.6344 -2.7637  2.3011
  382MOL0     H51536   1.759   5.568   8.139  0.8430 -0.6880  0.0177
  382MOL0     H51537   1.832   5.486   8.286  1.0438 -2.7022  0.2272
  382MOL0     H51538   1.994   5.652   8.238 -1.2725  1.8190 -0.1942
  382MOL0     H51539   2.042   5.508   8.135  1.6115  2.1206  0.6951
  382MOL0     H51540   1.876   5.738   8.039  0.6066  0.6441 -1.0428
  382MOL0     H51541   1.937   5.601   7.946  1.7703  0.7278 -1.7537
  382MOL0     H51542   2.058   5.838   7.925  1.4709  0.7750  0.5611
  382MOL0     H51543   2.102   5.829   8.090 -2.0586 -0.7805  1.1051
  382MOL0     H51544   2.186   5.603   7.892  1.6827 -2.1541  2.5650
  382MOL0     H51545   2.242   5.619   8.045 -1.8841 -1.5782 -0.8820
  382MOL0     H51546   2.294   5.819   7.819  0.0478  0.1530 -0.3972
  382MOL0     H51547   2.346   5.843   7.990 -4.6178 -1.0437  2.3201
  382MOL0     H51548   2.428   5.622   7.803 -2.4788  1.7775  0.3293
  382MOL0     H51549   2.482   5.628   7.975 -1.6638 -0.6154  0.5763
  382MOL0     H51550   2.594   5.830   7.939  0.5080 -3.4292  2.8392
  382MOL0     H51551   2.527   5.853   7.785 -0.3824  1.3536  2.4694
  382MOL0     H51552   1.855   5.189   7.920  0.2790  0.5328  2.3564
  382MOL0     H51553   1.670   5.065   7.840  2.2140 -0.2242 -0.1635
  382MOL0     H51554   1.334   4.846   7.931 -0.1942 -2.8325 -1.9310
  382MOL0     H51555   1.193   4.682   7.833 -0.6840 -0.1025 -1.8667
  382MOL0     H51556   0.078   4.885   6.556  0.9149 -1.1531 -5.9676
  382MOL0     H51557   0.035   4.727   6.361 -0.4403 -2.1172 -0.9246
  382MOL0     H51558   0.038   4.225   6.196  0.9501  0.9166 -1.8582
  382MOL0     H51559  -0.047   4.095   5.997  1.6171  3.1603 -1.6739
  382MOL0     H51560  -0.444   4.169   5.773 -0.8472  1.0583  3.0232
  382MOL0     H51561  -0.338   4.301   5.791 -2.3723  0.3631 -0.8171
  382MOL0     H51562  -0.163   4.167   5.695 -0.4999 -1.6260  2.0663
  382MOL0     H51563  -0.281   4.233   5.576 -0.6021  0.3174 -0.2354
  382MOL0     H51564  -0.291   3.940   5.671 -1.1886 -1.3553 -0.8623
  382MOL0     H51565  -0.229   3.991   5.516  0.3271  0.0594  0.0331
  382MOL0     H51566  -0.513   4.020   5.616  1.1676  2.0735  0.5712
  382MOL0     H51567  -0.460   3.888   5.514 -3.6308  1.2823 -2.4025
  382MOL0     H51568  -0.559   4.218   5.265  0.9953  0.8188  0.9825
  382MOL0     H51569  -0.415   4.304   6.011 -0.5201 -5.2092 -1.5527
  382MOL0     H51570  -0.304   4.479   6.164 -2.4796 -1.6047  1.6373
  383MOL0     O51571   5.889   9.914  10.819  0.0409  0.3342  0.0989
  383MOL0     C51572   5.955   9.966  10.730  0.5999 -0.6842  0.1511
  383MOL0     O51573   5.907  10.053  10.631  0.0019  0.0082 -0.1044
  383MOL0     C51574   5.773  10.093  10.638  1.0634  0.5925  0.2430
  383MOL0     C51575   5.723  10.174  10.744  0.2640  0.7607 -0.0878
  383MOL0     C51576   5.585  10.198  10.750  0.5072  0.2853 -0.6294
  383MOL0     C51577   5.492  10.153  10.652  0.1856 -0.2424 -0.5750
  383MOL0     O51578   5.355  10.163  10.661 -0.8044 -0.6418 -0.1185
  383MOL0     C51579   5.308  10.252  10.760  0.3508 -0.4328 -0.8829
  383MOL0     C51580   5.156  10.229  10.755  0.2522  0.0346 -0.4770
  383MOL0     C51581   5.087  10.280  10.888  0.2099 -0.7963 -0.6068
  383MOL0     C51582   4.937  10.252  10.906  0.0069 -0.3297 -0.0095
  383MOL0     C51583   4.870  10.374  10.975 -1.0527  0.1512 -1.1140
  383MOL0     C51584   4.734  10.347  11.026 -0.1684 -0.1569 -0.3459
  383MOL0     C51585   4.676  10.485  11.078 -0.9044 -0.2685 -0.3976
  383MOL0     C51586   4.536  10.469  11.136 -0.2083 -0.0401 -0.1472
  383MOL0     N51587   4.501  10.606  11.176  0.3786  1.1066 -0.9960
  383MOL0     C51588   4.516  10.664  11.301  0.3199 -0.9327  0.4290
  383MOL0     C51589   4.438  10.775  11.314  0.6565 -0.6309  0.4064
  383MOL0     C51590   4.447  10.888  11.421  0.6561 -0.1470 -0.2857
  383MOL0     C51591   4.386  10.853  11.558 -0.8081  0.3356  0.3066
  383MOL0     C51592   4.386  10.965  11.663  0.6086  0.7865 -0.3844
  383MOL0     C51593   4.367  10.925  11.808  0.6119  0.2767 -0.1565
  383MOL0     O51594   4.248  10.852  11.831 -0.1364  0.7433 -0.3162
  383MOL0     C51595   4.127  10.916  11.824  0.4850 -0.2024  0.0348
  383MOL0     C51596   4.010  10.838  11.824  0.2601  0.2558  0.1712
  383MOL0     C51597   3.883  10.892  11.825  0.7168 -1.2259  0.1280
  383MOL0     C51598   3.773  10.788  11.829  0.2419 -0.0134  0.1209
  383MOL0     C51599   3.866  11.030  11.810 -0.2973 -0.1840 -0.0154
  383MOL0     C51600   3.736  11.090  11.817  0.3471 -0.0621  0.2642
  383MOL0     O51601   3.613  11.026  11.783 -0.3703  0.4133 -0.3220
  383MOL0     C51602   3.504  11.103  11.806 -0.1727 -0.5044 -0.2745
  383MOL0     C51603   3.442  11.087  11.924 -0.7935  0.0330  0.5498
  383MOL0     C51604   3.316  11.138  11.950  0.0202  0.0204  0.0327
  383MOL0     C51605   3.259  11.223  11.851  0.2877  0.2692  0.8631
  383MOL0     O51606   3.134  11.281  11.857  0.1351  0.2427  0.0629
  383MOL0     C51607   3.118  11.321  11.994  0.6144 -0.0358 -0.9188
  383MOL0     C51608   2.994  11.418  12.021 -0.9987  0.5996  0.5782
  383MOL0     C51609   3.016  11.549  11.953  0.4340  0.3301 -0.3742
  383MOL0     C51610   2.879  11.629  11.965  0.6109  0.1828  0.6533
  383MOL0     C51611   2.888  11.752  11.871 -1.5264  0.2530 -1.1509
  383MOL0     C51612   3.004  11.855  11.896 -0.3697  0.3440 -0.9997
  383MOL0     C51613   2.986  11.937  12.017  0.5953 -0.5922 -0.1370
  383MOL0     C51614   2.887  12.049  12.001  0.5477  1.0530 -0.3434
  383MOL0    Cl51615   2.890  12.140  12.150  0.5668  0.3494 -0.5785
  383MOL0     C51616   3.330  11.251  11.729 -0.1853  0.2558 -0.4725
  383MOL0     C51617   3.458  11.194  11.709 -0.1273  0.5575 -0.5906
  383MOL0     O51618   3.741  11.203  11.864 -0.5153 -0.7775  0.7043
  383MOL0     C51619   3.983  11.115  11.808  0.2146  0.6585  0.7603
  383MOL0     C51620   4.110  11.057  11.809 -0.1933  0.3089 -0.8193
  383MOL0     N51621   4.364  10.775  11.193  0.2048  0.2807  0.8689
  383MOL0     N51622   4.400  10.675  11.115 -0.3955 -0.9303  0.6871
  383MOL0     C51623   5.544  10.073  10.547 -0.9312 -0.9664 -0.2623
  383MOL0     C51624   5.684  10.049  10.538  0.2742  1.1557 -0.5032
  383MOL0     C51625   6.100   9.933  10.723  0.3356 -0.8299 -0.3184
  383MOL0     C51626   6.191  10.017  10.658  0.3971 -1.3959 -0.0619
  383MOL0     C51627   6.330   9.979  10.659 -0.2841 -0.9194 -0.2700
  383MOL0     C51628   6.376   9.859  10.730  0.7421 -0.2792 -0.3013
  383MOL0     O51629   6.508   9.831  10.724 -0.3172  0.7678 -0.5287
  383MOL0     C51630   6.578   9.822  10.859  0.2820  0.0970 -0.1421
  383MOL0     C51631   6.563   9.940  10.959  0.2969  0.1992 -0.3943
  383MOL0     C51632   6.592  10.075  10.897  0.2211 -0.1999  1.2693
  383MOL0     C51633   6.740  10.080  10.849 -0.6534 -0.0369  0.2817
  383MOL0     C51634   6.746  10.031  10.712 -0.1836  0.1316  0.3078
  383MOL0     C51635   6.738  10.009  10.595 -0.9543  0.3274 -0.1361
  383MOL0     C51636   6.279   9.772  10.787  1.2405  0.4646  0.4489
  383MOL0     C51637   6.143   9.818  10.784  1.0082 -0.3176  0.4777
  383MOL0     H51638   5.792  10.197  10.824  2.7215 -0.9582 -1.5365
  383MOL0     H51639   5.550  10.243  10.842  0.9661 -3.7013  1.7345
  383MOL0     H51640   5.345  10.230  10.860  2.7959 -0.5746 -1.7654
  383MOL0     H51641   5.330  10.358  10.744 -0.7107 -0.1010 -0.2621
  383MOL0     H51642   5.119  10.288  10.670  0.7075  0.9177 -0.0818
  383MOL0     H51643   5.132  10.125  10.731 -2.8884 -0.4414  3.6725
  383MOL0     H51644   5.135  10.228  10.971  1.4225 -2.3132 -2.1832
  383MOL0     H51645   5.113  10.386  10.894 -0.2065 -0.5573 -2.4167
  383MOL0     H51646   4.894  10.241  10.806 -0.7200 -2.0667  0.4692
  383MOL0     H51647   4.908  10.161  10.958 -1.6011  0.6242  0.8352
  383MOL0     H51648   4.924  10.392  11.069 -0.2572 -0.0743 -1.5184
  383MOL0     H51649   4.875  10.468  10.918  2.3127  1.6673  1.2767
  383MOL0     H51650   4.672  10.308  10.945  0.5926  3.8985 -3.1993
  383MOL0     H51651   4.738  10.274  11.108  0.5680  1.5167  1.1858
  383MOL0     H51652   4.742  10.523  11.156 -1.5151  2.1020 -0.9771
  383MOL0     H51653   4.679  10.552  10.991 -0.8456  3.4087  2.2130
  383MOL0     H51654   4.531  10.402  11.222 -0.8562  1.0263  0.6759
  383MOL0     H51655   4.466  10.439  11.058 -0.1149  0.5101 -0.4482
  383MOL0     H51656   4.597  10.650  11.371  0.5527 -0.6023  0.2272
  383MOL0     H51657   4.551  10.918  11.436  1.0194 -0.7206 -1.5159
  383MOL0     H51658   4.388  10.964  11.368 -1.8831 -1.6010  0.3186
  383MOL0     H51659   4.450  10.771  11.594  0.4527  0.7849 -0.8092
  383MOL0     H51660   4.285  10.816  11.542 -0.3558 -0.3949 -1.0063
  383MOL0     H51661   4.305  11.033  11.634  0.9661  2.0023  1.3137
  383MOL0     H51662   4.478  11.024  11.661  3.1918 -2.8175  0.7350
  383MOL0     H51663   4.380  11.014  11.870 -1.9738  1.4337 -1.1429
  383MOL0     H51664   4.443  10.848  11.822  1.2459  0.7183 -1.0446
  383MOL0     H51665   4.025  10.734  11.849  1.2943  0.5797  0.9777
  383MOL0     H51666   3.812  10.693  11.867  2.3858  1.4755  1.8883
  383MOL0     H51667   3.695  10.828  11.894  0.0760  3.6584 -2.0512
  383MOL0     H51668   3.719  10.772  11.735  2.2965  1.9354 -1.4903
  383MOL0     H51669   3.496  11.036  12.003 -1.3280  0.4218  1.1739
  383MOL0     H51670   3.267  11.113  12.044  1.0725 -1.4220  0.2373
  383MOL0     H51671   3.094  11.231  12.052  1.4707 -1.7608 -3.0995
  383MOL0     H51672   3.205  11.370  12.038  0.2534  1.6239 -1.9702
  383MOL0     H51673   2.909  11.379  11.965 -0.8997  3.8071 -2.1488
  383MOL0     H51674   2.983  11.427  12.129  0.3901  2.2470  0.6380
  383MOL0     H51675   3.040  11.531  11.848 -0.7482 -0.4400 -0.5299
  383MOL0     H51676   3.105  11.584  12.006  0.9771 -3.2290  1.3649
  383MOL0     H51677   2.797  11.576  11.914  0.4625  1.1302 -0.1224
  383MOL0     H51678   2.850  11.646  12.069 -0.1418 -0.9946  0.6593
  383MOL0     H51679   2.795  11.810  11.878 -0.5845  1.8002 -1.0994
  383MOL0     H51680   2.916  11.718  11.771  0.5866 -2.0563  0.1270
  383MOL0     H51681   3.091  11.790  11.908 -0.0605  0.4163 -2.5795
  383MOL0     H51682   3.011  11.916  11.806 -3.1793  2.3867  0.0205
  383MOL0     H51683   3.079  11.990  12.039  0.6746  0.7126 -3.0589
  383MOL0     H51684   2.968  11.877  12.106  0.8126 -1.1878 -0.4946
  383MOL0     H51685   2.784  12.015  11.988 -0.2610  3.0572  0.5281
  383MOL0     H51686   2.897  12.110  11.911 -2.3304 -1.0319 -2.2479
  383MOL0     H51687   3.286  11.312  11.652  0.7506  1.0088 -0.4358
  383MOL0     H51688   3.512  11.204  11.616 -1.9728  1.9361 -1.5879
  383MOL0     H51689   3.990  11.223  11.801  2.9107  0.5359  0.7828
  383MOL0     H51690   4.199  11.117  11.797  0.6163 -0.1137  2.3011
  383MOL0     H51691   5.472  10.020  10.486 -2.3769 -0.0084  0.5673
  383MOL0     H51692   5.717  10.003  10.446 -2.3530 -1.3599 -0.3362
  383MOL0     H51693   6.159  10.116  10.627  1.7980 -1.4558 -1.8787
  383MOL0     H51694   6.402  10.042  10.608 -0.6994  2.6051  3.0483
  383MOL0     H51695   6.539   9.733  10.909 -0.7973  0.0864 -0.9503
  383MOL0     H51696   6.682   9.791  10.847  1.6799  3.0440  2.6722
  383MOL0     H51697   6.620   9.911  11.048  0.5002 -2.1878 -1.2219
  383MOL0     H51698   6.462   9.946  10.998  0.8704  2.7155  0.9032
  383MOL0     H51699   6.578  10.146  10.979  4.5739 -2.3326  4.2834
  383MOL0     H51700   6.520  10.097  10.818  0.3799  1.4443  1.5479
  383MOL0     H51701   6.805  10.019  10.913 -2.9844 -1.8414  1.0798
  383MOL0     H51702   6.771  10.184  10.835 -2.1935  0.2507 -1.4371
  383MOL0     H51703   6.726   9.974  10.494  1.7245 -2.2202  0.2762
  383MOL0     H51704   6.321   9.692  10.848 -1.0484 -0.9910  0.2158
  383MOL0     H51705   6.073   9.759  10.842 -2.8289  1.6406 -1.7663
  384MOL0     O51706   9.881  10.334   0.251 -0.0540 -0.2821  0.7757
  384MOL0     C51707   9.892  10.304   0.135  0.6299 -0.6833  0.6350
  384MOL0     O51708  10.009  10.270   0.072  0.2206 -0.2634  0.1654
  384MOL0     C51709  10.123  10.260   0.140 -0.4110  0.2293 -0.6436
  384MOL0     C51710  10.137  10.212   0.276 -0.2497 -0.1036 -0.0883
  384MOL0     C51711  10.255  10.196   0.342  0.5336  0.5432 -1.4018
  384MOL0     C51712  10.375  10.213   0.263  0.0923 -0.1177 -0.3612
  384MOL0     O51713  10.501  10.194   0.302  0.1180  0.0395  0.1070
  384MOL0     C51714  10.537  10.195   0.446  0.7745 -0.2718  0.6153
  384MOL0     C51715  10.656  10.286   0.461  0.5297  0.1446 -0.0216
  384MOL0     C51716  10.711  10.282   0.606 -0.4677 -0.0079 -0.1373
  384MOL0     C51717  10.845  10.365   0.594 -0.0906  0.1377 -0.3579
  384MOL0     C51718  10.919  10.355   0.721 -0.3844  0.5921 -0.8814
  384MOL0     C51719  11.062  10.404   0.698 -0.3530 -0.6478 -0.3135
  384MOL0     C51720  11.127  10.432   0.839  0.2863  1.2519  0.4288
  384MOL0     C51721  11.282  10.422   0.825 -0.0640 -0.3132 -0.0498
  384MOL0     N51722  11.323  10.420   0.966  0.7286  0.1357  0.9918
  384MOL0     C51723  11.284  10.323   1.051 -0.9172  0.6424  0.3255
  384MOL0     C51724  11.315  10.357   1.174 -0.2136 -0.9625  0.2854
  384MOL0     C51725  11.296  10.284   1.296  0.1241  0.2889  1.2771
  384MOL0     C51726  11.205  10.358   1.397  0.2245 -0.5722 -0.8834
  384MOL0     C51727  11.052  10.342   1.396  0.2306  0.9973 -1.1326
  384MOL0     C51728  10.986  10.421   1.286 -0.2978  0.8128 -0.1444
  384MOL0     O51729  10.875  10.493   1.348 -0.3692  1.0760  0.5476
  384MOL0     C51730  10.744  10.441   1.317 -0.0338 -0.0646  1.2988
  384MOL0     C51731  10.711  10.304   1.295  0.0603  0.5075 -0.0068
  384MOL0     C51732  10.586  10.256   1.275  0.8100 -0.1342 -0.2607
  384MOL0     C51733  10.565  10.114   1.288 -0.0081  0.3563 -0.5911
  384MOL0     C51734  10.485  10.354   1.243 -0.2051  0.5845 -0.4240
  384MOL0     C51735  10.344  10.323   1.219 -0.3813 -0.0748 -0.7090
  384MOL0     O51736  10.264  10.417   1.160 -0.2647  0.0031 -0.2338
  384MOL0     C51737  10.134  10.390   1.132 -0.7724  0.7712  0.1766
  384MOL0     C51738  10.098  10.371   0.999 -0.2612 -0.1854 -0.0363
  384MOL0     C51739   9.961  10.357   0.968  0.7573  0.1780  0.0341
  384MOL0     C51740   9.867  10.341   1.069  0.9010 -0.0873 -0.3269
  384MOL0     O51741   9.737  10.335   1.027  0.6580  0.2530 -0.0795
  384MOL0     C51742   9.632  10.302   1.110 -0.3262 -1.0145 -0.4364
  384MOL0     C51743   9.502  10.310   1.048  0.4249  0.7130  0.5713
  384MOL0     C51744   9.472  10.462   1.027 -0.2233  0.5215 -0.7242
  384MOL0     C51745   9.326  10.484   1.032  0.4037 -0.9646  0.2431
  384MOL0     C51746   9.294  10.633   1.032  0.5800 -0.3231 -0.4010
  384MOL0     C51747   9.140  10.650   1.032 -0.2189  0.0017 -0.4526
  384MOL0     C51748   9.111  10.795   1.043 -0.3170 -0.3263 -0.0090
  384MOL0     C51749   9.005  10.834   1.153  0.3934  0.9559  0.2812
  384MOL0    Cl51750   8.982  11.013   1.145  0.2815  0.2823  0.0634
  384MOL0     C51751   9.910  10.345   1.201  0.6272 -0.1026 -0.4624
  384MOL0     C51752  10.044  10.378   1.234  0.0869  0.3084 -0.2657
  384MOL0     O51753  10.303  10.206   1.250  0.0803 -0.4180 -0.6984
  384MOL0     C51754  10.523  10.494   1.246  0.4334 -0.0586 -0.5870
  384MOL0     C51755  10.645  10.533   1.286 -0.8058 -0.9195 -0.2447
  384MOL0     N51756  11.361  10.489   1.168  0.4134  0.1978  0.0249
  384MOL0     N51757  11.377  10.526   1.040  0.3297 -0.1784 -0.4489
  384MOL0     C51758  10.368  10.261   0.129  0.8251 -0.0895  0.2215
  384MOL0     C51759  10.245  10.278   0.067 -0.8386 -0.2958  0.8780
  384MOL0     C51760   9.775  10.317   0.047  0.0633  1.3423  0.7253
  384MOL0     C51761   9.658  10.367   0.095 -0.1534  0.0087 -0.0551
  384MOL0     C51762   9.540  10.372   0.011 -0.0807 -0.7454  0.0796
  384MOL0     C51763   9.557  10.340  -0.129  0.1092 -0.5660  0.4410
  384MOL0     O51764   9.462  10.348  -0.220  0.1117  0.5956 -0.5331
  384MOL0     C51765   9.332  10.393  -0.186  0.7429  0.7241  0.1025
  384MOL0     C51766   9.234  10.380  -0.304  0.3676  0.0383 -0.3322
  384MOL0     C51767   9.202  10.512  -0.369  0.8098 -1.2099  1.0419
  384MOL0     C51768   9.096  10.483  -0.481 -0.3246  0.5259 -0.5495
  384MOL0     C51769   9.091  10.607  -0.564 -0.8736  0.2729  0.4179
  384MOL0     C51770   9.073  10.713  -0.632  0.4378  0.1698  0.7868
  384MOL0     C51771   9.689  10.308  -0.178  0.1100  0.7248  0.0749
  384MOL0     C51772   9.794  10.286  -0.091  0.1594  0.4896  0.9130
  384MOL0     H51773  10.051  10.185   0.337  0.9792 -2.9125  0.5629
  384MOL0     H51774  10.256  10.175   0.449 -0.6863  0.0002 -1.4777
  384MOL0     H51775  10.464  10.249   0.506 -0.0979  1.1366 -1.5840
  384MOL0     H51776  10.559  10.093   0.477  2.3258 -0.0106  0.4926
  384MOL0     H51777  10.730  10.236   0.397 -1.1062 -0.1592 -1.7517
  384MOL0     H51778  10.635  10.388   0.426 -2.0654 -1.2438 -3.0016
  384MOL0     H51779  10.643  10.331   0.676  0.0891 -0.4566  0.7331
  384MOL0     H51780  10.730  10.179   0.637  1.1465  0.9777  2.5279
  384MOL0     H51781  10.899  10.317   0.512 -2.9153  0.1953 -2.3629
  384MOL0     H51782  10.817  10.468   0.571  2.9438  0.7770 -1.7604
  384MOL0     H51783  10.868  10.395   0.809  0.2460  1.2750 -0.8160
  384MOL0     H51784  10.937  10.254   0.760 -1.1525  1.1511  1.0185
  384MOL0     H51785  11.124  10.326   0.652 -0.9370 -2.6224  2.0256
  384MOL0     H51786  11.072  10.494   0.637 -0.3137 -0.2560  0.2651
  384MOL0     H51787  11.100  10.531   0.878 -3.4449 -0.4133  2.5657
  384MOL0     H51788  11.085  10.361   0.911  2.7103  1.1008  1.8288
  384MOL0     H51789  11.326  10.516   0.791 -0.3323 -0.2185 -0.1331
  384MOL0     H51790  11.315  10.328   0.780 -0.7836 -0.8377  0.4917
  384MOL0     H51791  11.236  10.230   1.021 -1.3439  1.3356 -1.2338
  384MOL0     H51792  11.270  10.182   1.270 -0.2105  1.0242 -1.6346
  384MOL0     H51793  11.397  10.276   1.338  0.7501 -2.8658 -0.5609
  384MOL0     H51794  11.220  10.466   1.391 -0.3235 -0.5071 -1.1315
  384MOL0     H51795  11.236  10.330   1.498 -3.2278  1.6508  0.9944
  384MOL0     H51796  11.015  10.372   1.495 -1.3163 -1.7560 -0.7733
  384MOL0     H51797  11.020  10.238   1.382 -2.4756  1.8130 -1.6756
  384MOL0     H51798  10.960  10.356   1.202  3.0652  3.4500 -3.5539
  384MOL0     H51799  11.043  10.505   1.246 -1.0388  0.0888 -2.9336
  384MOL0     H51800  10.787  10.229   1.311 -0.5253  0.0300  0.5914
  384MOL0     H51801  10.497  10.095   1.371  0.5403  1.6767  0.1919
  384MOL0     H51802  10.527  10.082   1.191 -2.3715  1.1317  0.0143
  384MOL0     H51803  10.663  10.069   1.306 -0.0628  0.2984 -0.4368
  384MOL0     H51804  10.177  10.398   0.930 -0.2397  1.4102  0.5664
  384MOL0     H51805   9.929  10.368   0.865  0.4128 -0.4259  0.0706
  384MOL0     H51806   9.651  10.201   1.146 -0.2912 -0.7074  0.4179
  384MOL0     H51807   9.635  10.372   1.193 -3.1302 -1.0628 -0.2049
  384MOL0     H51808   9.500  10.261   0.950  0.5617  0.4045  0.7227
  384MOL0     H51809   9.429  10.258   1.111 -1.4881  1.7116 -0.7165
  384MOL0     H51810   9.529  10.508   0.946  0.0553  1.4654 -0.0094
  384MOL0     H51811   9.508  10.518   1.114 -4.7896  1.3194  0.9819
  384MOL0     H51812   9.275  10.430   0.951  0.1184  2.6023 -2.1765
  384MOL0     H51813   9.284  10.436   1.120 -4.6942  1.6197 -0.4162
  384MOL0     H51814   9.346  10.675   0.945  3.1509 -3.2080 -0.4437
  384MOL0     H51815   9.344  10.675   1.119  2.5922 -1.2079 -1.0719
  384MOL0     H51816   9.098  10.617   0.937  2.7423  2.0809 -2.6855
  384MOL0     H51817   9.089  10.601   1.115  0.6671 -1.5520 -0.7913
  384MOL0     H51818   9.083  10.837   0.946  0.4147  0.5956  0.1558
  384MOL0     H51819   9.200  10.854   1.067 -0.7366 -0.3170  1.6994
  384MOL0     H51820   9.042  10.815   1.255  0.0484  0.9424  0.4060
  384MOL0     H51821   8.912  10.778   1.137  1.2304 -0.2162 -0.6522
  384MOL0     H51822   9.837  10.329   1.280  1.6838 -0.4897  0.4615
  384MOL0     H51823  10.090  10.388   1.332  0.7843  2.0685 -0.7405
  384MOL0     H51824  10.451  10.569   1.215 -0.3083 -0.9454 -1.0463
  384MOL0     H51825  10.673  10.637   1.299 -2.1991 -0.6965  1.3803
  384MOL0     H51826  10.465  10.278   0.083  0.3024  2.0184 -0.2267
  384MOL0     H51827  10.246  10.288  -0.041 -0.6782 -1.6710  0.7375
  384MOL0     H51828   9.638  10.381   0.200  0.8487 -1.2505  0.3254
  384MOL0     H51829   9.446  10.398   0.058  1.2874  2.5278  1.2795
  384MOL0     H51830   9.302  10.327  -0.104 -0.5053 -0.9732 -1.6420
  384MOL0     H51831   9.338  10.497  -0.151 -0.3655  1.1248 -0.8201
  384MOL0     H51832   9.143  10.337  -0.260  2.1791 -0.9537  2.8000
  384MOL0     H51833   9.271  10.306  -0.375  3.4049  0.9185  0.1969
  384MOL0     H51834   9.288  10.554  -0.423  0.6557 -3.6355 -1.2684
  384MOL0     H51835   9.154  10.584  -0.302 -1.7579 -0.1822 -1.6873
  384MOL0     H51836   8.999  10.463  -0.434 -1.0926 -0.6018 -2.4927
  384MOL0     H51837   9.125  10.394  -0.537  0.4557 -0.8545  1.9281
  384MOL0     H51838   9.047  10.808  -0.673 -1.2483 -0.3990  0.4719
  384MOL0     H51839   9.683  10.291  -0.285 -0.5976  0.9431  0.0748
  384MOL0     H51840   9.891  10.258  -0.131 -2.0784 -2.3319 -3.2451
  385MOL0     O51841   1.926   4.426   9.371  0.6658  0.2882 -0.0338
  385MOL0     C51842   2.015   4.468   9.447 -0.1756  0.3756  0.1039
  385MOL0     O51843   2.003   4.561   9.543 -0.8449 -0.9576  0.0119
  385MOL0     C51844   1.877   4.611   9.584 -0.1277  0.5880 -0.0236
  385MOL0     C51845   1.872   4.740   9.623  0.2331 -0.3531 -0.9441
  385MOL0     C51846   1.753   4.790   9.673  0.6425 -1.0710  0.2355
  385MOL0     C51847   1.631   4.718   9.678 -0.1262  0.1477  0.5998
  385MOL0     O51848   1.516   4.764   9.731  0.0413 -0.0238 -0.2022
  385MOL0     C51849   1.448   4.683   9.834 -0.3296 -0.1395 -0.8065
  385MOL0     C51850   1.544   4.673   9.949  0.0144  0.3508 -0.2568
  385MOL0     C51851   1.488   4.610  10.071 -0.4833  0.5314 -0.1216
  385MOL0     C51852   1.568   4.650  10.191  0.0895 -0.1135  0.3351
  385MOL0     C51853   1.533   4.580  10.324 -0.0399  0.3086  0.4605
  385MOL0     C51854   1.392   4.621  10.372  0.2359  0.6579 -0.2985
  385MOL0     C51855   1.361   4.581  10.520  0.3984  0.1091  0.4705
  385MOL0     C51856   1.242   4.677  10.576  1.1120 -0.2833 -0.5067
  385MOL0     N51857   1.136   4.698  10.480  0.2721  0.3972  0.0251
  385MOL0     C51858   1.069   4.604  10.416  0.3457  1.0575  0.6995
  385MOL0     C51859   0.983   4.660  10.337  0.2371  0.9995 -0.2402
  385MOL0     C51860   0.883   4.592  10.253 -0.0738 -0.9985 -0.2650
  385MOL0     C51861   0.929   4.532  10.119  0.0728 -0.0359 -0.3594
  385MOL0     C51862   1.027   4.620  10.042  0.2104 -0.5209  0.3799
  385MOL0     C51863   0.963   4.754  10.014 -0.0819  0.6482 -0.2845
  385MOL0     O51864   1.030   4.828   9.923 -0.1909 -0.0746  0.4998
  385MOL0     C51865   1.149   4.883   9.939 -0.2767  0.6849 -0.0218
  385MOL0     C51866   1.210   4.897  10.062  0.2182 -0.2642 -0.0131
  385MOL0     C51867   1.331   4.966  10.084  1.0930  0.4821 -0.7030
  385MOL0     C51868   1.355   5.027  10.218 -0.1390 -0.3390  0.0946
  385MOL0     C51869   1.400   5.011   9.968 -0.4023  0.9948 -0.5873
  385MOL0     C51870   1.538   5.084   9.964  0.6115  0.1738  0.6677
  385MOL0     O51871   1.576   5.121   9.831  0.9110 -0.7418 -0.1994
  385MOL0     C51872   1.697   5.191   9.816  0.0597  0.4643 -0.9555
  385MOL0     C51873   1.698   5.323   9.787 -0.3568 -0.7447  0.3536
  385MOL0     C51874   1.811   5.406   9.796 -0.4259  0.0628  0.8526
  385MOL0     C51875   1.936   5.354   9.837  0.0570  0.1261  0.8192
  385MOL0     O51876   2.048   5.440   9.839 -0.7071 -0.6241 -0.1996
  385MOL0     C51877   2.064   5.575   9.779 -0.3722 -0.5884  0.0713
  385MOL0     C51878   2.202   5.624   9.811  0.4331  0.5197 -0.5769
  385MOL0     C51879   2.238   5.768   9.783  0.1017  0.2329  0.4380
  385MOL0     C51880   2.384   5.809   9.823  0.0340 -0.4804 -0.2264
  385MOL0     C51881   2.408   5.957   9.786  0.5847 -0.2791 -0.2265
  385MOL0     C51882   2.426   5.977   9.638 -0.2036 -0.0948  0.5317
  385MOL0     C51883   2.571   5.955   9.614 -0.1513 -0.4676 -0.5798
  385MOL0     C51884   2.633   6.009   9.468  0.1851 -0.0384 -0.3434
  385MOL0    Cl51885   2.663   6.196   9.478 -0.4152  0.3624  0.1694
  385MOL0     C51886   1.943   5.220   9.854 -0.1642  0.1115  0.3204
  385MOL0     C51887   1.824   5.143   9.854  0.1500  0.6856  0.2126
  385MOL0     O51888   1.602   5.102  10.064 -0.1843 -0.0761  0.2093
  385MOL0     C51889   1.336   4.995   9.847 -0.1495 -0.7177 -0.1859
  385MOL0     C51890   1.215   4.931   9.830 -0.0321 -0.0671 -0.3903
  385MOL0     N51891   1.011   4.794  10.349 -0.4309 -0.9438 -0.3690
  385MOL0     N51892   1.095   4.817  10.444 -0.1080  0.2005  0.7102
  385MOL0     C51893   1.639   4.584   9.633 -0.3179  0.5895 -0.0581
  385MOL0     C51894   1.761   4.533   9.588 -0.9893 -0.2980 -0.2200
  385MOL0     C51895   2.162   4.425   9.423 -0.1980 -0.3440  0.2048
  385MOL0     C51896   2.259   4.471   9.512 -0.2982 -1.0555 -0.0524
  385MOL0     C51897   2.393   4.443   9.493 -0.8196  0.1134 -0.8190
  385MOL0     C51898   2.436   4.376   9.377 -0.5967 -0.4551  0.1963
  385MOL0     O51899   2.571   4.356   9.373 -0.2467 -0.3744  0.7408
  385MOL0     C51900   2.629   4.265   9.287 -0.2053 -0.2317 -0.6389
  385MOL0     C51901   2.771   4.257   9.337  0.5477  0.2470  1.4447
  385MOL0     C51902   2.833   4.155   9.239 -0.8020  0.4236  0.8668
  385MOL0     C51903   2.983   4.179   9.196 -0.8276 -0.0682 -0.6967
  385MOL0     C51904   3.080   4.125   9.289 -0.9035  0.5409 -0.4183
  385MOL0     C51905   3.164   4.082   9.375  0.4198 -0.7585 -0.0507
  385MOL0     C51906   2.344   4.326   9.290  0.2690  0.4663  0.3013
  385MOL0     C51907   2.207   4.350   9.307  1.2291  0.4785  0.9167
  385MOL0     H51908   1.964   4.796   9.615  1.7286 -2.5634 -0.1817
  385MOL0     H51909   1.759   4.892   9.710  0.9759 -1.7103  2.0384
  385MOL0     H51910   1.354   4.731   9.863  1.9395  4.1873  0.3017
  385MOL0     H51911   1.417   4.586   9.794  0.5805  0.4857 -3.1927
  385MOL0     H51912   1.641   4.634   9.915  1.0621  3.2020 -0.8229
  385MOL0     H51913   1.570   4.775   9.979 -0.0238  0.7407 -1.5229
  385MOL0     H51914   1.386   4.641  10.097 -0.3247  0.0143  1.2165
  385MOL0     H51915   1.494   4.502  10.057  0.0716  0.6511 -0.8449
  385MOL0     H51916   1.674   4.625  10.175  0.7222  1.9609  0.9225
  385MOL0     H51917   1.576   4.758  10.199  2.9103 -0.3365  2.2434
  385MOL0     H51918   1.529   4.472  10.309 -2.7841  0.7436 -3.3596
  385MOL0     H51919   1.606   4.609  10.400  1.5981 -2.3964  0.0243
  385MOL0     H51920   1.374   4.724  10.342  1.8829  1.0229 -0.0955
  385MOL0     H51921   1.315   4.568  10.315 -0.2855  1.6225 -0.5176
  385MOL0     H51922   1.333   4.475  10.527 -0.5131  0.3412  0.4702
  385MOL0     H51923   1.444   4.605  10.586  0.4821  0.6810  0.1614
  385MOL0     H51924   1.278   4.777  10.600 -0.1981  0.3539 -1.0739
  385MOL0     H51925   1.214   4.631  10.671  3.9636 -1.4231 -0.1359
  385MOL0     H51926   1.084   4.498  10.432  2.4754  1.4533  1.6830
  385MOL0     H51927   0.839   4.513  10.315 -1.5109  2.6239  3.8380
  385MOL0     H51928   0.794   4.653  10.235  1.7493  1.4410 -1.5741
  385MOL0     H51929   0.836   4.517  10.063  1.4193 -3.2880 -1.9744
  385MOL0     H51930   0.970   4.432  10.141 -1.3068 -0.6224 -0.3343
  385MOL0     H51931   1.052   4.570   9.948 -0.9500 -0.1719 -0.1339
  385MOL0     H51932   1.123   4.638  10.091  1.9571  1.5994 -3.3755
  385MOL0     H51933   0.943   4.804  10.109  4.5852 -2.4893  2.8275
  385MOL0     H51934   0.862   4.731   9.981 -0.5404  1.5832  0.4126
  385MOL0     H51935   1.165   4.854  10.151  1.1534 -0.3975  0.4084
  385MOL0     H51936   1.369   5.136  10.218  4.9981 -0.7412  2.6201
  385MOL0     H51937   1.270   5.006  10.284  0.6325 -0.1412  1.1652
  385MOL0     H51938   1.444   4.987  10.266  0.0186  0.1786  0.2449
  385MOL0     H51939   1.605   5.377   9.771  0.3789  0.4907  0.0652
  385MOL0     H51940   1.797   5.511   9.775  3.3379  0.9231  1.7925
  385MOL0     H51941   2.053   5.567   9.670  0.2227 -1.4878  0.0639
  385MOL0     H51942   1.995   5.648   9.823  0.3553 -1.2713  2.4814
  385MOL0     H51943   2.222   5.596   9.915 -0.4744 -2.1689 -1.0490
  385MOL0     H51944   2.277   5.567   9.756  0.4330  0.8076 -0.8838
  385MOL0     H51945   2.166   5.837   9.829  0.0874  0.5410 -0.0392
  385MOL0     H51946   2.241   5.767   9.673 -1.5487  1.9561  0.3329
  385MOL0     H51947   2.383   5.799   9.932 -0.9039  0.2678 -0.1503
  385MOL0     H51948   2.465   5.747   9.784  0.7708  0.8740 -0.8996
  385MOL0     H51949   2.487   6.003   9.846  1.0991  1.0596 -1.8647
  385MOL0     H51950   2.320   6.021   9.803  1.1191  0.3576  0.1766
  385MOL0     H51951   2.373   5.904   9.577  0.0450  0.0708  0.1143
  385MOL0     H51952   2.396   6.079   9.612  1.8847  0.0742 -1.5512
  385MOL0     H51953   2.588   5.847   9.623 -1.7089 -0.5815  1.7755
  385MOL0     H51954   2.636   6.006   9.686  0.6111 -0.0436 -1.5328
  385MOL0     H51955   2.566   5.983   9.385  0.1487  1.0332 -0.6622
  385MOL0     H51956   2.731   5.969   9.442  1.0869  1.3196  0.8371
  385MOL0     H51957   2.041   5.182   9.881 -0.7440 -1.1683  0.6718
  385MOL0     H51958   1.822   5.039   9.885  1.9705  0.9222  1.2843
  385MOL0     H51959   1.382   5.033   9.756 -1.2844 -1.1969 -0.9892
  385MOL0     H51960   1.173   4.939   9.730 -0.5916  0.7356 -0.1076
  385MOL0     H51961   1.550   4.523   9.623  0.0632 -0.5252  2.4606
  385MOL0     H51962   1.763   4.426   9.570 -3.5273 -0.7793  1.8900
  385MOL0     H51963   2.220   4.519   9.601 -0.7080 -0.4478 -0.5493
  385MOL0     H51964   2.472   4.491   9.550  1.0894  0.0227 -3.1778
  385MOL0     H51965   2.567   4.175   9.292  0.5817 -0.7573  3.4618
  385MOL0     H51966   2.619   4.301   9.185 -0.4818  2.5234  0.2853
  385MOL0     H51967   2.780   4.242   9.445 -0.3166  0.3767  1.5406
  385MOL0     H51968   2.815   4.357   9.327 -1.3834  1.0246  0.0263
  385MOL0     H51969   2.779   4.152   9.144 -0.3958 -3.5608  0.6294
  385MOL0     H51970   2.829   4.052   9.275  2.7962  0.1544  0.8689
  385MOL0     H51971   3.012   4.283   9.180  0.3726  0.3245  3.1112
  385MOL0     H51972   3.000   4.126   9.101 -2.5561  0.9990 -1.6508
  385MOL0     H51973   3.253   4.047   9.424  0.8329 -0.0155 -0.2622
  385MOL0     H51974   2.373   4.279   9.197 -1.1270 -2.0240  1.0225
  385MOL0     H51975   2.130   4.308   9.243  0.8649 -2.3155  2.9786
  386MOL0     O51976   0.100   2.712  10.768 -0.3166  0.6177 -0.5269
  386MOL0     C51977   0.081   2.804  10.694 -1.5450  0.8981 -0.0169
  386MOL0     O51978  -0.004   2.901  10.709  0.8174  0.3748  0.3556
  386MOL0     C51979  -0.123   2.881  10.784 -0.5166  0.7890  0.5720
  386MOL0     C51980  -0.212   2.771  10.755 -0.3870 -0.3144  0.2176
  386MOL0     C51981  -0.332   2.759  10.829  0.9329 -1.0340  0.9309
  386MOL0     C51982  -0.361   2.863  10.915  0.8757 -0.1746 -0.0709
  386MOL0     O51983  -0.474   2.849  10.997  0.4172 -0.3517 -0.2883
  386MOL0     C51984  -0.562   2.960  11.000  0.6531 -0.4229 -0.2861
  386MOL0     C51985  -0.567   3.024  11.139 -0.1729  0.0347  0.3729
  386MOL0     C51986  -0.661   3.147  11.158 -0.0873  0.1068 -0.1005
  386MOL0     C51987  -0.621   3.269  11.057  0.0313 -0.4875 -0.1072
  386MOL0     C51988  -0.702   3.391  11.088  0.1853 -0.3403 -0.2035
  386MOL0     C51989  -0.839   3.375  11.017  0.8199 -0.1737  0.1285
  386MOL0     C51990  -0.923   3.510  11.024  1.0856  0.5112  0.1319
  386MOL0     C51991  -0.920   3.598  10.892  1.4252 -0.0246  0.0461
  386MOL0     N51992  -0.785   3.653  10.871 -0.1931  0.5319 -0.1093
  386MOL0     C51993  -0.718   3.727  10.965  0.0673  0.4804 -0.3701
  386MOL0     C51994  -0.593   3.734  10.906  0.1019 -0.5841  0.5159
  386MOL0     C51995  -0.475   3.788  10.977 -0.3070 -0.5232  0.8194
  386MOL0     C51996  -0.333   3.748  10.923 -1.9169  0.5962  0.5266
  386MOL0     C51997  -0.217   3.818  10.994  0.6037 -0.1273 -0.2210
  386MOL0     C51998  -0.082   3.798  10.929  1.2430  0.6383 -0.5854
  386MOL0     O51999  -0.053   3.659  10.938 -0.2739 -0.1472 -0.5843
  386MOL0     C52000   0.045   3.594  10.864  0.2777 -0.0673 -1.0078
  386MOL0     C52001   0.053   3.458  10.876  0.5288  0.4106  0.6491
  386MOL0     C52002   0.151   3.375  10.810  0.4056  0.4210 -0.7228
  386MOL0     C52003   0.138   3.230  10.845 -0.4166  1.1026  0.5273
  386MOL0     C52004   0.230   3.432  10.716 -0.6283  0.3501 -0.5753
  386MOL0     C52005   0.317   3.361  10.620  0.1331 -0.4666  0.3704
  386MOL0     O52006   0.424   3.429  10.585 -0.2215  0.4638 -0.3749
  386MOL0     C52007   0.515   3.371  10.494  0.3026  0.2934 -0.0364
  386MOL0     C52008   0.565   3.235  10.499 -0.4333  0.1669 -0.0389
  386MOL0     C52009   0.659   3.183  10.411  0.0772 -0.5147  0.6926
  386MOL0     C52010   0.700   3.259  10.305  0.3806  0.1195  0.4130
  386MOL0     O52011   0.773   3.205  10.200 -0.1887 -0.3054  0.2595
  386MOL0     C52012   0.754   3.069  10.167 -0.6595  0.2194 -0.0573
  386MOL0     C52013   0.780   3.050  10.021  0.5361  0.4277  0.3722
  386MOL0     C52014   0.744   2.908   9.972  0.9620  0.8998 -0.4169
  386MOL0     C52015   0.758   2.908   9.818  0.1994 -0.1524 -0.2399
  386MOL0     C52016   0.757   2.778   9.748  0.6297 -0.2204  0.6756
  386MOL0     C52017   0.883   2.679   9.739 -0.2403  0.2580 -0.2800
  386MOL0     C52018   1.012   2.743   9.681 -0.0217  0.0408  0.4400
  386MOL0     C52019   1.138   2.659   9.713  0.5377 -0.2743 -0.4626
  386MOL0    Cl52020   1.146   2.503   9.629  0.1778  0.6630 -0.2415
  386MOL0     C52021   0.655   3.384  10.289 -0.1224 -0.0814 -0.0092
  386MOL0     C52022   0.569   3.442  10.387  0.1607  0.6880  0.0449
  386MOL0     O52023   0.293   3.247  10.578 -0.4465 -0.1884  0.1551
  386MOL0     C52024   0.213   3.572  10.694 -0.3141 -0.0757  0.0828
  386MOL0     C52025   0.122   3.653  10.766 -0.2125 -0.5448  0.4682
  386MOL0     N52026  -0.585   3.667  10.785 -0.4590 -0.1611  0.7113
  386MOL0     N52027  -0.702   3.620  10.769  0.1071  0.6366  0.6777
  386MOL0     C52028  -0.282   2.972  10.930  0.2856 -0.1817  0.2320
  386MOL0     C52029  -0.165   2.981  10.862 -0.3025 -0.1185 -0.0738
  386MOL0     C52030   0.161   2.803  10.568  0.2805  0.5357 -0.4381
  386MOL0     C52031   0.192   2.675  10.512 -0.0506  0.6158 -0.1344
  386MOL0     C52032   0.290   2.677  10.406  0.7547  0.2788  0.0961
  386MOL0     C52033   0.339   2.801  10.357  0.2790  0.6327 -0.0431
  386MOL0     O52034   0.437   2.804  10.260  0.2115  0.1054  0.3171
  386MOL0     C52035   0.488   2.690  10.200 -0.5437 -0.2217 -0.2472
  386MOL0     C52036   0.398   2.654  10.075  0.2119  0.3664 -0.4049
  386MOL0     C52037   0.457   2.547   9.983 -0.1664 -0.0745 -0.3375
  386MOL0     C52038   0.367   2.517   9.858 -0.5330  0.6332  0.1373
  386MOL0     C52039   0.435   2.450   9.746  0.2428 -0.0830 -1.1887
  386MOL0     C52040   0.511   2.396   9.672  0.5361  0.2510 -0.5623
  386MOL0     C52041   0.299   2.919  10.415  0.1232  0.7739 -0.2369
  386MOL0     C52042   0.213   2.923  10.528  0.7345  1.6567  0.2889
  386MOL0     H52043  -0.187   2.703  10.674 -2.1333  1.1756 -1.6851
  386MOL0     H52044  -0.407   2.681  10.820 -0.6351  0.5833 -0.8685
  386MOL0     H52045  -0.533   3.040  10.930  1.9511  1.2450  2.0283
  386MOL0     H52046  -0.661   2.928  10.964  0.3659  0.2707 -0.1314
  386MOL0     H52047  -0.604   2.942  11.201 -3.0098  1.5617  0.8638
  386MOL0     H52048  -0.463   3.040  11.171  0.5090 -2.7830 -0.1831
  386MOL0     H52049  -0.762   3.119  11.128 -0.3066  0.9531 -0.1607
  386MOL0     H52050  -0.666   3.173  11.264 -0.9874 -2.4083  0.5499
  386MOL0     H52051  -0.516   3.299  11.059 -0.2207  0.5095 -1.0752
  386MOL0     H52052  -0.637   3.241  10.952  3.9825 -2.0954 -0.4548
  386MOL0     H52053  -0.698   3.405  11.196  0.4514 -2.8228  0.1665
  386MOL0     H52054  -0.653   3.486  11.061  2.6056 -0.7995  2.1193
  386MOL0     H52055  -0.817   3.352  10.912 -1.2657  0.5791 -0.5222
  386MOL0     H52056  -0.888   3.289  11.064 -0.3884  0.3527 -0.1490
  386MOL0     H52057  -1.023   3.494  11.066  0.9433  1.6312  0.2538
  386MOL0     H52058  -0.878   3.566  11.107  0.7228  0.2992  0.4760
  386MOL0     H52059  -0.992   3.678  10.914 -1.0027 -0.8096 -4.0070
  386MOL0     H52060  -0.961   3.543  10.807  0.5983  2.2177 -1.0904
  386MOL0     H52061  -0.744   3.771  11.060 -0.6989 -0.9837  0.1240
  386MOL0     H52062  -0.475   3.896  10.956  0.4270 -1.1767 -3.6039
  386MOL0     H52063  -0.488   3.757  11.081  0.4927 -3.2653  0.1730
  386MOL0     H52064  -0.325   3.779  10.818  2.1219  0.9996  0.8028
  386MOL0     H52065  -0.310   3.642  10.938  1.2240  1.2759  1.3413
  386MOL0     H52066  -0.212   3.790  11.100 -2.4329  0.5014  0.1822
  386MOL0     H52067  -0.228   3.926  10.986 -1.1473 -0.1968  0.7613
  386MOL0     H52068  -0.004   3.854  10.982 -0.1765 -0.2112  2.6016
  386MOL0     H52069  -0.087   3.826  10.823 -1.1778  0.9767 -0.4243
  386MOL0     H52070   0.003   3.407  10.958  1.1064  2.6617  2.5313
  386MOL0     H52071   0.236   3.205  10.885  0.4830 -1.4215 -2.7582
  386MOL0     H52072   0.054   3.210  10.913 -1.1857  0.0758 -0.6627
  386MOL0     H52073   0.118   3.171  10.754 -1.5184  1.8375  0.2750
  386MOL0     H52074   0.535   3.177  10.586  2.6676  0.6295  1.4705
  386MOL0     H52075   0.701   3.086  10.434  0.0330 -1.3433 -2.3120
  386MOL0     H52076   0.826   3.022  10.234 -2.4605 -2.6714  0.0517
  386MOL0     H52077   0.657   3.024  10.193 -1.5901 -0.1906 -3.7153
  386MOL0     H52078   0.711   3.117   9.970  0.6924  0.0912 -0.2908
  386MOL0     H52079   0.884   3.080  10.003  0.9980 -2.3971 -2.5088
  386MOL0     H52080   0.642   2.873   9.991  0.1414  1.7721 -2.8614
  386MOL0     H52081   0.818   2.841  10.017  0.1163  1.5418  2.1294
  386MOL0     H52082   0.666   2.958   9.786 -1.4587 -0.6336  3.2986
  386MOL0     H52083   0.847   2.964   9.789 -0.3912 -0.0634 -2.0569
  386MOL0     H52084   0.715   2.798   9.648 -3.3018 -1.9536  1.7590
  386MOL0     H52085   0.674   2.728   9.798  0.0301  0.5649  0.4890
  386MOL0     H52086   0.909   2.651   9.842  1.2723  2.2517 -0.0703
  386MOL0     H52087   0.858   2.584   9.691 -3.1729  0.5723  0.4491
  386MOL0     H52088   1.026   2.833   9.741  2.9463 -0.8210  1.2366
  386MOL0     H52089   0.998   2.763   9.575  2.9819  2.5629  0.3570
  386MOL0     H52090   1.131   2.644   9.821 -1.9089  0.7376 -0.3991
  386MOL0     H52091   1.226   2.716   9.680  1.7508 -2.5029 -1.2791
  386MOL0     H52092   0.692   3.434  10.200  1.4358 -1.6853 -0.3067
  386MOL0     H52093   0.519   3.536  10.365 -3.3492 -1.3110 -1.3738
  386MOL0     H52094   0.279   3.622  10.623 -2.0360  0.8725 -0.9264
  386MOL0     H52095   0.108   3.757  10.738 -0.9479 -0.6500  0.4228
  386MOL0     H52096  -0.327   3.044  10.997  1.2632  1.4123 -0.7443
  386MOL0     H52097  -0.108   3.069  10.892 -0.5526  0.3108 -0.8295
  386MOL0     H52098   0.142   2.589  10.556 -1.7426  2.2227  1.2612
  386MOL0     H52099   0.325   2.578  10.379 -0.0291 -1.0367  3.4642
  386MOL0     H52100   0.589   2.712  10.165 -0.0728 -2.8792 -0.7919
  386MOL0     H52101   0.496   2.607  10.271  0.6871  0.4625  0.4279
  386MOL0     H52102   0.378   2.744  10.017 -0.6454 -0.1006 -0.8631
  386MOL0     H52103   0.294   2.633  10.102  0.9214 -0.1116  2.1755
  386MOL0     H52104   0.479   2.454  10.037  0.8551 -0.1992 -0.9506
  386MOL0     H52105   0.547   2.587   9.935  2.0521 -2.0136  1.9661
  386MOL0     H52106   0.331   2.611   9.816 -1.0889  0.1455 -0.4912
  386MOL0     H52107   0.276   2.463   9.885 -1.0380  0.9368 -0.9153
  386MOL0     H52108   0.575   2.329   9.618  0.2736 -0.3864 -0.1026
  386MOL0     H52109   0.343   3.008  10.371  2.3819 -0.2518 -0.2051
  386MOL0     H52110   0.202   3.020  10.574 -0.1514  0.5468  2.5552
  387MOL0     O52111   5.682   4.749   9.083  0.3232 -0.2916 -0.4390
  387MOL0     C52112   5.764   4.736   9.173  1.1670  0.1696 -0.0255
  387MOL0     O52113   5.744   4.649   9.279  0.4359 -0.1348 -0.2063
  387MOL0     C52114   5.640   4.557   9.290  0.3030  0.7113  0.4359
  387MOL0     C52115   5.599   4.467   9.189  0.6137  0.1876  0.7476
  387MOL0     C52116   5.489   4.383   9.215  0.7319 -0.3431  0.0748
  387MOL0     C52117   5.409   4.391   9.322  0.1511 -0.2347 -0.1080
  387MOL0     O52118   5.299   4.308   9.345 -0.5092  0.3745 -0.4667
  387MOL0     C52119   5.176   4.385   9.358 -1.3385 -0.5062  0.3755
  387MOL0     C52120   5.056   4.300   9.365  0.6117  0.1316 -0.0129
  387MOL0     C52121   5.062   4.206   9.489  0.0744  0.0643  0.4570
  387MOL0     C52122   4.966   4.091   9.490  0.3858 -0.0245 -0.4389
  387MOL0     C52123   4.814   4.133   9.500 -0.2766 -0.1257  0.3025
  387MOL0     C52124   4.732   4.036   9.596 -0.4382  0.5994 -0.5545
  387MOL0     C52125   4.595   4.090   9.631 -0.1669 -0.4408  0.8651
  387MOL0     C52126   4.498   4.071   9.511  0.6079  0.2433  0.5039
  387MOL0     N52127   4.359   4.121   9.550  0.5530  0.6820  0.1608
  387MOL0     C52128   4.274   4.058   9.637  0.6473 -0.5591 -0.5823
  387MOL0     C52129   4.165   4.125   9.615  1.0757  0.2795  0.0537
  387MOL0     C52130   4.035   4.091   9.696  0.6479  0.1450 -0.5197
  387MOL0     C52131   3.937   3.999   9.624 -0.2364 -0.0173  0.5443
  387MOL0     C52132   3.871   4.064   9.501  0.0293 -0.0188  0.1264
  387MOL0     C52133   3.763   4.162   9.546  0.0896  0.3201 -1.0240
  387MOL0     O52134   3.653   4.092   9.611 -0.2269  0.4534  0.0911
  387MOL0     C52135   3.538   4.161   9.645 -0.7198 -0.6761 -0.1928
  387MOL0     C52136   3.431   4.087   9.688 -0.5068 -0.1337 -0.1639
  387MOL0     C52137   3.313   4.146   9.718  0.2908  0.0077 -0.1962
  387MOL0     C52138   3.195   4.050   9.760  0.3637 -0.2912  0.0359
  387MOL0     C52139   3.293   4.280   9.689  0.1693 -0.3943  0.0091
  387MOL0     C52140   3.159   4.353   9.700  0.2813  0.2084 -0.5128
  387MOL0     O52141   3.172   4.481   9.643 -0.2794  0.4984 -0.0387
  387MOL0     C52142   3.064   4.562   9.611 -0.7795 -0.0048  0.2206
  387MOL0     C52143   3.068   4.695   9.641  0.2731  0.1045 -0.2543
  387MOL0     C52144   2.987   4.785   9.583 -0.3239 -0.3040 -0.4476
  387MOL0     C52145   2.873   4.740   9.507  0.2835  0.2308  0.0222
  387MOL0     O52146   2.782   4.834   9.469 -0.3442  0.4413  0.3447
  387MOL0     C52147   2.676   4.795   9.381  0.0653  0.8296  0.2827
  387MOL0     C52148   2.575   4.911   9.351  0.0473 -0.3154 -0.5446
  387MOL0     C52149   2.645   5.018   9.283 -0.7749 -0.2413  0.1027
  387MOL0     C52150   2.559   5.131   9.233 -1.6414 -0.2038 -0.5810
  387MOL0     C52151   2.480   5.208   9.332  0.2216 -0.0844  0.0844
  387MOL0     C52152   2.561   5.322   9.391  0.0704 -0.1237  0.5851
  387MOL0     C52153   2.476   5.413   9.479 -0.8613 -0.3148  0.8528
  387MOL0     C52154   2.571   5.526   9.543  1.2253  0.5322  0.2070
  387MOL0    Cl52155   2.641   5.630   9.414 -0.5808  0.2729  0.3041
  387MOL0     C52156   2.869   4.606   9.481  0.5473 -0.1929 -0.0298
  387MOL0     C52157   2.956   4.509   9.537  0.5330 -0.0361  0.3505
  387MOL0     O52158   3.053   4.299   9.738  0.6700 -0.6823  0.4405
  387MOL0     C52159   3.403   4.357   9.652 -0.2605 -0.1382  0.4447
  387MOL0     C52160   3.527   4.298   9.636 -0.3668 -0.2247  0.3176
  387MOL0     N52161   4.182   4.220   9.508  0.5353  0.1820 -0.5612
  387MOL0     N52162   4.302   4.223   9.478 -0.5638  0.1022  0.7276
  387MOL0     C52163   5.446   4.474   9.429  0.2570 -0.1445  0.6059
  387MOL0     C52164   5.566   4.551   9.413  0.8035  0.5225  0.9741
  387MOL0     C52165   5.870   4.832   9.182 -0.3328 -0.3963  0.7036
  387MOL0     C52166   5.852   4.961   9.122  0.1939  0.2240 -0.9321
  387MOL0     C52167   5.954   5.055   9.124  0.3293  0.3974  0.2484
  387MOL0     C52168   6.073   5.026   9.188  0.4032  0.1618  0.4805
  387MOL0     O52169   6.146   5.142   9.185  0.2216 -0.0934 -0.0841
  387MOL0     C52170   6.253   5.139   9.283  0.0605  0.8814  0.7372
  387MOL0     C52171   6.387   5.122   9.206  0.1749  1.3985 -0.6773
  387MOL0     C52172   6.418   5.232   9.105 -0.6402  0.6475  0.1084
  387MOL0     C52173   6.472   5.376   9.149  0.3347 -0.0873 -0.1017
  387MOL0     C52174   6.599   5.369   9.226 -0.7012 -0.6901 -0.0804
  387MOL0     C52175   6.714   5.363   9.281 -0.6520 -0.0195  0.1564
  387MOL0     C52176   6.096   4.901   9.246  0.1106  0.5696  0.1421
  387MOL0     C52177   5.996   4.806   9.244  0.1388  0.3802 -0.2455
  387MOL0     H52178   5.641   4.490   9.092 -0.1486  2.7786  0.9392
  387MOL0     H52179   5.448   4.319   9.138  2.0448  0.4642 -1.3484
  387MOL0     H52180   5.179   4.454   9.444  0.8256  2.2443 -1.7159
  387MOL0     H52181   5.167   4.446   9.268 -1.5772  2.6615  2.3688
  387MOL0     H52182   4.962   4.354   9.374  1.5112  1.8138 -0.3954
  387MOL0     H52183   5.045   4.226   9.285  0.9008 -0.0178  0.0826
  387MOL0     H52184   5.162   4.163   9.487 -1.1297 -2.9842 -1.2974
  387MOL0     H52185   5.051   4.258   9.585  0.5875 -2.4438  1.9918
  387MOL0     H52186   4.990   4.031   9.402  1.7392 -1.7334  1.0292
  387MOL0     H52187   4.993   4.035   9.580 -3.7617 -0.0147  1.0232
  387MOL0     H52188   4.798   4.235   9.536 -0.5158 -1.2905  3.9601
  387MOL0     H52189   4.769   4.118   9.401  1.3260 -0.7069 -0.3617
  387MOL0     H52190   4.726   3.940   9.546 -0.3454 -0.4635  1.3844
  387MOL0     H52191   4.782   4.023   9.693  1.2746 -2.8606 -1.7355
  387MOL0     H52192   4.558   4.042   9.722  1.9224 -0.1955  1.9081
  387MOL0     H52193   4.601   4.198   9.651 -0.5059 -0.2611  0.0271
  387MOL0     H52194   4.482   3.968   9.479 -1.4596  1.4483 -2.9292
  387MOL0     H52195   4.536   4.132   9.428 -0.8519  3.3954  1.9726
  387MOL0     H52196   4.286   3.975   9.706  0.2860  1.1673  1.6691
  387MOL0     H52197   4.058   4.038   9.789  0.2536 -0.2680 -0.6585
  387MOL0     H52198   3.988   4.181   9.737 -1.6716 -1.8552  1.5333
  387MOL0     H52199   3.863   3.957   9.693  0.6120 -0.7248  1.0509
  387MOL0     H52200   3.987   3.906   9.597  2.9436  1.4670  0.9386
  387MOL0     H52201   3.829   3.987   9.436 -1.2766  1.0328 -0.3232
  387MOL0     H52202   3.951   4.103   9.437  0.3594  0.2249  0.6808
  387MOL0     H52203   3.740   4.225   9.460  1.1480  2.7351  0.3461
  387MOL0     H52204   3.801   4.229   9.624  2.1046 -1.0295 -0.7535
  387MOL0     H52205   3.443   3.980   9.700 -1.5159 -0.1408  0.9473
  387MOL0     H52206   3.234   3.948   9.774  3.2489  0.5425 -1.2196
  387MOL0     H52207   3.154   4.077   9.858 -1.1228  1.8068 -1.0731
  387MOL0     H52208   3.110   4.067   9.694 -1.0362  4.5326  2.6162
  387MOL0     H52209   3.148   4.740   9.698  2.3851  0.1396 -3.0343
  387MOL0     H52210   2.996   4.889   9.611 -3.9805  0.3680 -1.1480
  387MOL0     H52211   2.715   4.753   9.289  0.3192  0.7533  0.4239
  387MOL0     H52212   2.623   4.711   9.427  0.8562 -0.4112 -1.0228
  387MOL0     H52213   2.487   4.873   9.298  0.6676 -1.0268 -1.0817
  387MOL0     H52214   2.539   4.936   9.451  0.7377 -1.4977  0.0244
  387MOL0     H52215   2.705   4.974   9.203  0.7191  0.7299  0.6506
  387MOL0     H52216   2.727   5.059   9.342 -0.4845 -1.5523  0.6372
  387MOL0     H52217   2.629   5.195   9.178 -0.8550 -1.7609 -1.4402
  387MOL0     H52218   2.488   5.097   9.157 -2.1941  0.3870 -0.3416
  387MOL0     H52219   2.442   5.141   9.409 -1.9428  0.0707 -0.7857
  387MOL0     H52220   2.394   5.248   9.277  1.4922  0.5141 -1.5621
  387MOL0     H52221   2.652   5.289   9.442  1.6617  2.7813 -0.1684
  387MOL0     H52222   2.604   5.380   9.310  2.0066 -2.0025  0.1709
  387MOL0     H52223   2.446   5.350   9.563  1.2924 -1.7125  0.6669
  387MOL0     H52224   2.388   5.453   9.427  0.5643  1.2332 -0.4663
  387MOL0     H52225   2.651   5.479   9.601 -1.3187 -2.0712  1.9125
  387MOL0     H52226   2.515   5.570   9.626  1.2810  1.1903 -0.0945
  387MOL0     H52227   2.782   4.572   9.425  1.1960 -0.2032 -1.0448
  387MOL0     H52228   2.944   4.402   9.520 -2.2791  0.0261  1.3910
  387MOL0     H52229   3.401   4.463   9.626 -0.3357 -0.3759 -0.5891
  387MOL0     H52230   3.607   4.364   9.606 -0.9197 -0.7278 -2.5822
  387MOL0     H52231   5.384   4.487   9.518 -1.4685 -2.5576 -0.1263
  387MOL0     H52232   5.594   4.626   9.487 -0.8959  1.5362  0.6487
  387MOL0     H52233   5.755   4.986   9.083 -0.1485  0.7551  0.1981
  387MOL0     H52234   5.933   5.155   9.088 -0.4986 -0.6413 -2.3482
  387MOL0     H52235   6.267   5.237   9.331  4.4922  0.2187  1.2332
  387MOL0     H52236   6.243   5.070   9.368 -2.7076 -0.6207 -0.6631
  387MOL0     H52237   6.385   5.028   9.149  0.4445  1.3906 -0.6800
  387MOL0     H52238   6.470   5.126   9.277  0.1628  2.3126 -0.7088
  387MOL0     H52239   6.329   5.238   9.042 -1.2993 -2.3469  0.6073
  387MOL0     H52240   6.495   5.180   9.047 -3.5426 -3.1044 -0.7563
  387MOL0     H52241   6.397   5.413   9.220  0.6986  0.8827 -0.2075
  387MOL0     H52242   6.476   5.440   9.061 -4.0256 -3.5720 -3.2713
  387MOL0     H52243   6.807   5.351   9.333 -0.0278 -1.2291 -1.1766
  387MOL0     H52244   6.189   4.868   9.289  0.4904 -2.0548 -2.4038
  387MOL0     H52245   6.009   4.710   9.293 -0.1584  1.7148  2.6334
  388MOL0     O52246   6.487   6.824   5.780  0.1060  0.3647 -0.0513
  388MOL0     C52247   6.530   6.932   5.810 -0.5431 -0.2394 -0.2085
  388MOL0     O52248   6.662   6.973   5.784  0.4552 -0.6578 -0.1044
  388MOL0     C52249   6.750   6.895   5.710 -0.6942 -0.0965 -1.1972
  388MOL0     C52250   6.880   6.927   5.729 -0.2176  0.3481 -0.7534
  388MOL0     C52251   6.978   6.852   5.663 -0.4166  0.3384 -0.0557
  388MOL0     C52252   6.948   6.775   5.552  0.1795 -0.0778  1.1976
  388MOL0     O52253   7.059   6.711   5.492  1.0748 -0.6596  0.9957
  388MOL0     C52254   7.035   6.666   5.353  0.2092  0.9423 -0.0213
  388MOL0     C52255   7.174   6.660   5.290 -0.0362  0.8639  0.0223
  388MOL0     C52256   7.264   6.553   5.354  0.1366  0.7166 -0.1998
  388MOL0     C52257   7.406   6.551   5.298  0.1538  0.5270  0.6320
  388MOL0     C52258   7.476   6.428   5.348 -0.4674 -0.5536  0.4212
  388MOL0     C52259   7.618   6.396   5.282 -0.6347 -0.0500 -0.2218
  388MOL0     C52260   7.668   6.269   5.328 -0.3177  0.2734  0.0523
  388MOL0     C52261   7.813   6.238   5.306  0.3390 -0.4322 -0.0358
  388MOL0     N52262   7.837   6.226   5.161  0.7235 -0.1061  0.5994
  388MOL0     C52263   7.784   6.141   5.066  0.8423  0.2706 -0.8530
  388MOL0     C52264   7.855   6.154   4.959  0.2204  0.3153 -0.1761
  388MOL0     C52265   7.847   6.086   4.824 -0.0198  0.5080  0.3089
  388MOL0     C52266   7.931   5.951   4.815  0.5395 -0.1620  0.2735
  388MOL0     C52267   7.948   5.886   4.674 -0.3728 -1.0459 -1.2096
  388MOL0     C52268   7.819   5.853   4.603 -0.2763  0.1044  0.5363
  388MOL0     O52269   7.757   5.975   4.547 -0.0776  0.1930 -0.7360
  388MOL0     C52270   7.636   5.967   4.479  0.1135 -1.2136 -0.5144
  388MOL0     C52271   7.549   5.861   4.463  0.3745 -0.6470 -0.4019
  388MOL0     C52272   7.431   5.857   4.397 -0.3719 -0.7251  0.1788
  388MOL0     C52273   7.352   5.723   4.395  0.5165 -0.6301 -0.1131
  388MOL0     C52274   7.388   5.981   4.344  0.6329  0.6229 -0.1566
  388MOL0     C52275   7.257   5.985   4.279  0.4930 -0.8249 -0.6904
  388MOL0     O52276   7.153   6.053   4.342  0.6011  0.0831  0.0231
  388MOL0     C52277   7.032   6.069   4.274  0.5949 -1.1262  0.5997
  388MOL0     C52278   6.915   6.044   4.354 -0.5765  0.3985  0.3803
  388MOL0     C52279   6.785   6.040   4.294 -0.0985 -0.6071 -0.1105
  388MOL0     C52280   6.762   6.092   4.162  0.3722  0.1619 -0.6565
  388MOL0     O52281   6.642   6.091   4.090  0.0237 -0.6719  0.3923
  388MOL0     C52282   6.522   6.049   4.156  0.8795  0.2377  0.2607
  388MOL0     C52283   6.397   6.047   4.062  0.1987  0.4308 -0.9872
  388MOL0     C52284   6.273   5.990   4.128  0.4653 -0.5376  0.2856
  388MOL0     C52285   6.148   6.027   4.041 -0.2862 -0.4692  0.0272
  388MOL0     C52286   6.024   5.962   4.110 -1.3424  0.3072  0.0246
  388MOL0     C52287   5.959   6.030   4.233 -0.4633 -0.0165 -0.6262
  388MOL0     C52288   5.828   5.974   4.275  0.6847  0.2583  0.1611
  388MOL0     C52289   5.743   6.085   4.341 -0.1368  0.5661  0.3997
  388MOL0    Cl52290   5.709   6.217   4.226  0.2350  0.0508 -0.2349
  388MOL0     C52291   6.885   6.116   4.093 -0.0608 -0.1636  0.0795
  388MOL0     C52292   7.014   6.099   4.136  0.0758  0.7932  0.0455
  388MOL0     O52293   7.254   5.933   4.165 -0.0790  0.7142 -0.2356
  388MOL0     C52294   7.470   6.086   4.349 -0.8940  0.5852 -0.4304
  388MOL0     C52295   7.597   6.085   4.417 -0.1214 -0.6797 -0.5457
  388MOL0     N52296   7.959   6.246   4.982  0.2458  0.1052 -0.0058
  388MOL0     N52297   7.945   6.287   5.102 -0.2953 -0.0098 -0.0364
  388MOL0     C52298   6.810   6.765   5.516 -0.3166 -0.4108 -0.1914
  388MOL0     C52299   6.714   6.826   5.597  0.0299  0.7838  0.6920
  388MOL0     C52300   6.449   7.019   5.891  0.3237  0.2078  0.4042
  388MOL0     C52301   6.493   7.147   5.931 -1.0683  0.0362 -0.3860
  388MOL0     C52302   6.416   7.248   5.995  0.5197  0.7986 -0.8006
  388MOL0     C52303   6.290   7.189   6.043 -0.2201  0.1043  0.0337
  388MOL0     O52304   6.203   7.257   6.130 -0.1172 -0.0701 -0.1512
  388MOL0     C52305   6.207   7.399   6.137  0.1094 -0.4333  0.0333
  388MOL0     C52306   6.067   7.474   6.120  0.0330  0.4068  0.0766
  388MOL0     C52307   6.016   7.455   5.981  0.6080  0.2354  0.7328
  388MOL0     C52308   6.097   7.543   5.872  0.3618 -0.2590  0.5380
  388MOL0     C52309   6.114   7.681   5.915  0.7170  1.0905  0.5242
  388MOL0     C52310   6.129   7.794   5.948 -0.5522  0.0016  0.0303
  388MOL0     C52311   6.245   7.066   6.007  0.9306 -0.4802  0.8887
  388MOL0     C52312   6.324   6.977   5.931  0.2383  0.0467  0.6840
  388MOL0     H52313   6.911   6.996   5.808  1.9263 -2.5359  1.1280
  388MOL0     H52314   7.085   6.851   5.683 -0.3192 -1.8696 -0.4454
  388MOL0     H52315   6.977   6.574   5.356  0.4155  0.8360  1.7557
  388MOL0     H52316   6.977   6.742   5.300 -2.1927  0.3690  1.5980
  388MOL0     H52317   7.160   6.644   5.183  0.5343  1.6453 -0.1751
  388MOL0     H52318   7.217   6.760   5.292 -1.6692  1.5866 -0.2177
  388MOL0     H52319   7.276   6.566   5.462  0.3392  2.4030 -0.4008
  388MOL0     H52320   7.212   6.459   5.334  1.6369  0.1835 -1.9147
  388MOL0     H52321   7.406   6.556   5.189  1.6953  1.7915  0.6526
  388MOL0     H52322   7.442   6.650   5.328 -0.4534  0.4900  1.5332
  388MOL0     H52323   7.474   6.440   5.457 -0.2050  0.7061  0.3029
  388MOL0     H52324   7.410   6.342   5.333 -0.5932 -0.4325  0.2765
  388MOL0     H52325   7.631   6.412   5.175  4.2310 -0.0684  0.1538
  388MOL0     H52326   7.689   6.469   5.320  1.8452 -2.3828 -0.0786
  388MOL0     H52327   7.650   6.256   5.435  4.1693  1.4227  1.1667
  388MOL0     H52328   7.606   6.191   5.283  1.4800  0.1237 -2.3326
  388MOL0     H52329   7.855   6.145   5.345  2.7603  0.9791  0.9345
  388MOL0     H52330   7.870   6.320   5.349 -1.0369  0.9672 -0.7936
  388MOL0     H52331   7.691   6.086   5.079  0.7753  0.8698  1.7573
  388MOL0     H52332   7.747   6.062   4.788  0.2892  0.8015 -0.8009
  388MOL0     H52333   7.894   6.155   4.752 -1.3412  1.6558  0.5111
  388MOL0     H52334   7.877   5.886   4.885  0.3695  0.3583  0.6321
  388MOL0     H52335   8.033   5.968   4.852  1.1703  1.0017 -1.8541
  388MOL0     H52336   8.010   5.797   4.677  2.4965  0.8376  0.7325
  388MOL0     H52337   8.009   5.955   4.614 -2.6552  1.0851 -1.2952
  388MOL0     H52338   7.755   5.811   4.681 -0.1798 -0.1438  0.4829
  388MOL0     H52339   7.836   5.785   4.519 -3.5686  2.0594 -1.9089
  388MOL0     H52340   7.592   5.764   4.484  4.6446  0.7609 -1.4520
  388MOL0     H52341   7.243   5.732   4.385  0.5237 -1.5851 -1.2392
  388MOL0     H52342   7.381   5.652   4.317  3.9187  0.1598  0.2715
  388MOL0     H52343   7.356   5.681   4.497  0.8282  0.0201  0.1447
  388MOL0     H52344   6.908   6.014   4.458  1.7857 -0.6892  0.2975
  388MOL0     H52345   6.709   6.012   4.366  0.3322  3.1890  2.0208
  388MOL0     H52346   6.535   5.952   4.204  1.0714  0.1851  0.1047
  388MOL0     H52347   6.511   6.120   4.239  1.6670 -0.6203  1.1328
  388MOL0     H52348   6.377   6.151   4.036 -1.1886  1.6373  3.9407
  388MOL0     H52349   6.436   6.000   3.971  3.4080  1.8097 -0.4703
  388MOL0     H52350   6.257   6.018   4.233 -0.9161 -1.1854  0.2752
  388MOL0     H52351   6.274   5.881   4.123 -3.4172 -0.6430 -2.0424
  388MOL0     H52352   6.135   6.136   4.040  1.2754 -0.2653 -1.1605
  388MOL0     H52353   6.152   5.994   3.937  1.6871  0.7838 -0.3440
  388MOL0     H52354   6.042   5.856   4.128  2.2337  0.3084 -2.5137
  388MOL0     H52355   5.952   5.970   4.028 -0.3217  0.1691 -0.9140
  388MOL0     H52356   6.032   6.024   4.314 -0.2076  1.4552 -0.7242
  388MOL0     H52357   5.943   6.137   4.218 -0.0325  0.0432 -0.6581
  388MOL0     H52358   5.844   5.888   4.341  0.1594  0.5263  0.6493
  388MOL0     H52359   5.772   5.948   4.185 -1.2464  0.2782  1.2958
  388MOL0     H52360   5.799   6.123   4.427 -1.1234  1.7520  0.5555
  388MOL0     H52361   5.646   6.041   4.365 -0.1437 -1.3724 -2.7078
  388MOL0     H52362   6.889   6.152   3.990 -0.6818  3.0541  1.0857
  388MOL0     H52363   7.093   6.132   4.070 -2.7414 -0.9898 -4.6575
  388MOL0     H52364   7.426   6.175   4.304 -1.7960  0.4422  0.1482
  388MOL0     H52365   7.657   6.173   4.437 -0.0177 -0.4038 -2.0085
  388MOL0     H52366   6.778   6.720   5.422  0.6630  2.5959 -2.1430
  388MOL0     H52367   6.613   6.813   5.559  0.7059  0.0175 -0.9205
  388MOL0     H52368   6.587   7.185   5.892  0.0615 -2.8048 -0.7019
  388MOL0     H52369   6.452   7.347   6.023 -2.1219  2.1380 -1.8205
  388MOL0     H52370   6.252   7.440   6.227  2.1905  1.7910 -1.8612
  388MOL0     H52371   6.279   7.432   6.061  0.9338 -2.6934 -0.2673
  388MOL0     H52372   6.075   7.577   6.153 -0.1825  0.0231  1.3631
  388MOL0     H52373   5.989   7.434   6.185 -0.5992 -0.5208 -1.2078
  388MOL0     H52374   5.912   7.487   5.988 -1.2984 -4.2041 -2.9268
  388MOL0     H52375   6.007   7.349   5.959 -1.5533  0.1894  1.6672
  388MOL0     H52376   6.042   7.545   5.777 -0.2194  0.7074  0.8752
  388MOL0     H52377   6.196   7.502   5.854 -0.4000 -2.8847  1.8048
  388MOL0     H52378   6.111   7.895   5.978 -1.5390  0.0591 -0.6800
  388MOL0     H52379   6.143   7.046   6.040 -0.3509  1.2329 -1.7018
  388MOL0     H52380   6.280   6.881   5.906  0.0742  1.1355 -4.3103
  389MOL0     O52381   9.642   3.874   1.042  0.0370 -0.2115 -0.0378
  389MOL0     C52382   9.633   3.756   1.017  1.1309 -0.4992  0.1097
  389MOL0     O52383   9.729   3.669   0.974  0.1194  0.0206 -0.1748
  389MOL0     C52384   9.862   3.694   0.964 -0.1149  1.0108 -0.3543
  389MOL0     C52385   9.943   3.585   0.948 -0.0197 -0.3760  0.2989
  389MOL0     C52386  10.083   3.599   0.941 -0.1298  0.1372  0.3371
  389MOL0     C52387  10.144   3.723   0.930  0.1773  0.1280  0.5660
  389MOL0     O52388  10.281   3.737   0.928  0.6614  0.3182  0.0018
  389MOL0     C52389  10.342   3.839   1.013  0.7240  0.8250 -0.6657
  389MOL0     C52390  10.495   3.849   1.013 -0.2547  0.8998 -0.3591
  389MOL0     C52391  10.537   3.974   0.944 -0.3585 -0.2427  0.1763
  389MOL0     C52392  10.683   3.951   0.894  0.1457  0.0047 -0.2281
  389MOL0     C52393  10.731   4.068   0.812 -0.6535 -0.1522  0.4164
  389MOL0     C52394  10.881   4.039   0.801 -0.0649 -0.0322 -0.0035
  389MOL0     C52395  10.922   3.956   0.683  0.3766  0.0058 -0.2123
  389MOL0     C52396  10.903   4.021   0.550 -0.5487  0.4914 -0.0156
  389MOL0     N52397  10.976   4.150   0.532  0.3585  0.0704  0.0996
  389MOL0     C52398  10.934   4.258   0.458  0.3338 -0.5871 -0.5188
  389MOL0     C52399  11.050   4.326   0.436 -0.5499 -0.9607  0.2181
  389MOL0     C52400  11.060   4.455   0.357 -0.3698 -0.3098 -0.0145
  389MOL0     C52401  11.115   4.573   0.434  0.3084 -0.5934 -0.6808
  389MOL0     C52402  11.062   4.707   0.383 -0.0229  0.2694 -0.7463
  389MOL0     C52403  11.054   4.812   0.493 -0.2357  0.2218  0.7562
  389MOL0     O52404  10.946   4.900   0.473 -0.3196 -0.5566  0.2058
  389MOL0     C52405  10.856   4.907   0.566  0.0659 -0.2877 -0.4343
  389MOL0     C52406  10.883   4.942   0.699  0.2342 -0.3686  1.1390
  389MOL0     C52407  10.791   4.938   0.804 -0.5729 -0.1143  1.3514
  389MOL0     C52408  10.844   4.963   0.945  0.7225  0.3905 -0.1282
  389MOL0     C52409  10.665   4.892   0.777  0.2277 -0.2649  0.6722
  389MOL0     C52410  10.556   4.851   0.873 -0.4630 -0.0415  0.5519
  389MOL0     O52411  10.452   4.776   0.812  0.9062  0.6063  0.4889
  389MOL0     C52412  10.332   4.757   0.882 -0.8034  0.1832  0.5635
  389MOL0     C52413  10.274   4.639   0.860  0.5435  1.4141 -1.3086
  389MOL0     C52414  10.156   4.603   0.933  1.1206 -0.5629  0.0134
  389MOL0     C52415  10.095   4.691   1.029 -0.6189  0.3537 -0.8280
  389MOL0     O52416  10.001   4.646   1.115  0.3610 -0.6485  0.1694
  389MOL0     C52417   9.910   4.545   1.079 -0.3343  0.4111 -0.4191
  389MOL0     C52418   9.820   4.533   1.193 -0.8328  0.5142 -0.6472
  389MOL0     C52419   9.745   4.401   1.177  0.5747 -0.1537 -0.1364
  389MOL0     C52420   9.650   4.363   1.292  0.5544  0.4605 -0.2145
  389MOL0     C52421   9.588   4.225   1.265  0.2121 -0.1167  0.4591
  389MOL0     C52422   9.482   4.187   1.365 -0.2925  1.0719 -0.7485
  389MOL0     C52423   9.412   4.057   1.313  0.5614 -1.5483  0.6790
  389MOL0     C52424   9.360   3.960   1.426 -0.2203 -0.1889 -0.4393
  389MOL0    Cl52425   9.266   3.826   1.346 -0.2362 -0.4794  0.4225
  389MOL0     C52426  10.156   4.814   1.056 -0.3951  0.2945  0.4521
  389MOL0     C52427  10.270   4.849   0.976  0.5455  0.5757 -0.2366
  389MOL0     O52428  10.567   4.875   0.992 -0.4237  0.4044 -0.3260
  389MOL0     C52429  10.627   4.876   0.636 -0.2494 -0.4502 -0.3689
  389MOL0     C52430  10.720   4.886   0.531 -0.4673  0.2783 -0.3360
  389MOL0     N52431  11.159   4.267   0.503  0.2724 -0.4890 -0.8276
  389MOL0     N52432  11.110   4.168   0.568 -0.6558 -0.2902 -0.5178
  389MOL0     C52433  10.067   3.838   0.934 -0.0446  0.0456 -0.0724
  389MOL0     C52434   9.930   3.818   0.948 -0.2314 -0.5087  0.3113
  389MOL0     C52435   9.497   3.702   1.022  1.2866 -0.6425  0.3968
  389MOL0     C52436   9.473   3.559   1.003  0.1757  0.3453 -0.5780
  389MOL0     C52437   9.333   3.516   0.994  0.1736  0.5954 -0.9090
  389MOL0     C52438   9.229   3.608   0.983  0.5618 -0.1208  0.3889
  389MOL0     O52439   9.099   3.572   0.950  0.0075  0.0783  0.1064
  389MOL0     C52440   9.057   3.434   0.952 -0.6481  0.2661  0.3580
  389MOL0     C52441   8.911   3.447   0.902  0.3445 -0.0567 -0.2149
  389MOL0     C52442   8.840   3.311   0.884 -1.0331  0.3602 -0.1233
  389MOL0     C52443   8.703   3.319   0.816 -0.4968 -0.6569 -0.4281
  389MOL0     C52444   8.721   3.337   0.670  0.0906  0.4485  0.5329
  389MOL0     C52445   8.721   3.336   0.545 -0.8511  0.2052 -1.1103
  389MOL0     C52446   9.255   3.743   0.999  0.0404  0.9110  0.4542
  389MOL0     C52447   9.378   3.785   1.025 -0.6546 -0.5828 -0.0130
  389MOL0     H52448   9.916   3.480   0.943 -1.0243 -0.1639  0.8858
  389MOL0     H52449  10.153   3.515   0.941  0.7140  0.7915  1.7525
  389MOL0     H52450  10.287   3.931   0.996 -1.2415 -0.3858 -1.1502
  389MOL0     H52451  10.316   3.810   1.115  0.0617  3.5489 -0.0024
  389MOL0     H52452  10.539   3.856   1.114  2.1874  0.0994 -1.2906
  389MOL0     H52453  10.536   3.764   0.959 -0.7718  0.6525 -0.3669
  389MOL0     H52454  10.477   3.993   0.855  0.6487 -0.2377 -0.5170
  389MOL0     H52455  10.546   4.066   1.002 -1.3042 -1.0122  1.6061
  389MOL0     H52456  10.745   3.936   0.983  0.9323 -1.5364 -0.9963
  389MOL0     H52457  10.694   3.863   0.831  1.5699  1.7259 -2.5501
  389MOL0     H52458  10.693   4.085   0.711 -0.3934 -0.9688  0.1714
  389MOL0     H52459  10.707   4.158   0.870 -3.1307 -1.5706  1.7463
  389MOL0     H52460  10.935   4.134   0.796  1.6579 -0.9219  0.8631
  389MOL0     H52461  10.916   3.985   0.889  2.4913 -0.1270 -0.9935
  389MOL0     H52462  11.030   3.951   0.700  0.3699  0.3831 -0.0408
  389MOL0     H52463  10.869   3.860   0.685  0.2269  0.0745 -0.8577
  389MOL0     H52464  10.798   4.045   0.530 -0.6425  0.6892  0.6785
  389MOL0     H52465  10.948   3.958   0.474  2.9528  1.2270  1.2859
  389MOL0     H52466  10.837   4.293   0.423  0.0583  1.7152  2.1951
  389MOL0     H52467  11.131   4.434   0.277 -1.6427  0.7232 -1.4705
  389MOL0     H52468  10.965   4.474   0.306 -0.1880  0.8717  0.0680
  389MOL0     H52469  11.222   4.572   0.413  0.1309  2.3891 -2.1724
  389MOL0     H52470  11.095   4.561   0.541 -1.6182 -0.4082 -0.9683
  389MOL0     H52471  10.956   4.686   0.363 -0.8641 -0.6354  3.7256
  389MOL0     H52472  11.115   4.751   0.298  1.0922  1.2708  0.4357
  389MOL0     H52473  11.138   4.880   0.507 -0.0918 -0.4623  3.8438
  389MOL0     H52474  11.050   4.765   0.592  0.6261 -0.9687  0.2548
  389MOL0     H52475  10.988   4.964   0.718  0.5002 -0.1491 -0.4232
  389MOL0     H52476  10.953   4.966   0.952  0.7723  0.4086 -0.8682
  389MOL0     H52477  10.795   5.045   0.999 -0.3342 -0.5602  0.4120
  389MOL0     H52478  10.828   4.873   1.006  2.9301 -1.2518 -1.8060
  389MOL0     H52479  10.335   4.570   0.802 -0.0586  0.2504 -0.6152
  389MOL0     H52480  10.116   4.502   0.920  1.3848 -0.8344  1.1837
  389MOL0     H52481   9.849   4.573   0.993  1.2691 -1.1581 -2.1611
  389MOL0     H52482   9.969   4.457   1.052  1.6578  1.7641 -0.6269
  389MOL0     H52483   9.875   4.518   1.287  0.4309  0.5356 -1.3656
  389MOL0     H52484   9.755   4.619   1.212  0.3129  1.2645 -0.0020
  389MOL0     H52485   9.811   4.315   1.162  1.8809  0.2326  2.7054
  389MOL0     H52486   9.695   4.404   1.080  2.4256  2.3497 -1.1057
  389MOL0     H52487   9.715   4.350   1.379 -0.2884 -0.8421  0.2586
  389MOL0     H52488   9.571   4.437   1.309  1.0223  1.0750 -0.6453
  389MOL0     H52489   9.670   4.153   1.265  1.0116  0.7727 -0.5182
  389MOL0     H52490   9.536   4.219   1.169  0.3192 -1.9038  0.4740
  389MOL0     H52491   9.541   4.169   1.455  3.1709 -1.1197 -3.2047
  389MOL0     H52492   9.414   4.269   1.390  0.7014  1.5702  0.4972
  389MOL0     H52493   9.482   3.999   1.251 -1.3992 -0.5108 -2.7840
  389MOL0     H52494   9.329   4.074   1.245 -0.8147 -0.5215  2.5216
  389MOL0     H52495   9.302   4.020   1.497 -1.6443 -0.5895 -1.2114
  389MOL0     H52496   9.447   3.916   1.474 -0.0411  1.7348  1.1046
  389MOL0     H52497  10.130   4.879   1.139  2.0073  1.0485  0.6681
  389MOL0     H52498  10.312   4.949   0.980  2.1010 -0.0184 -0.7180
  389MOL0     H52499  10.527   4.855   0.599 -0.5778  1.4693 -0.6446
  389MOL0     H52500  10.699   4.861   0.428  2.3403  2.8815 -1.7161
  389MOL0     H52501  10.096   3.942   0.925  0.9166 -0.1877  0.2089
  389MOL0     H52502   9.858   3.898   0.934 -0.0211 -0.3048  0.3871
  389MOL0     H52503   9.551   3.484   0.998 -0.1347  0.0434 -0.9153
  389MOL0     H52504   9.317   3.410   0.980  2.7003 -0.1518  1.0465
  389MOL0     H52505   9.118   3.383   0.876  0.3982  1.8022  0.1229
  389MOL0     H52506   9.050   3.385   1.050 -2.4009  1.8333  1.0638
  389MOL0     H52507   8.917   3.503   0.808 -2.5442  0.0400 -0.4241
  389MOL0     H52508   8.849   3.511   0.965  3.0601  0.9619  1.6160
  389MOL0     H52509   8.833   3.264   0.982 -4.7996  0.4676 -0.1815
  389MOL0     H52510   8.897   3.247   0.816 -1.2690  0.2245 -0.1924
  389MOL0     H52511   8.644   3.405   0.851 -2.0645 -1.5995 -0.6612
  389MOL0     H52512   8.637   3.233   0.823 -0.4353 -0.6325  0.5009
  389MOL0     H52513   8.735   3.341   0.439  1.6622  0.0700 -0.8479
  389MOL0     H52514   9.168   3.808   0.993 -1.5234 -0.6980  3.2411
  389MOL0     H52515   9.371   3.886   1.065 -1.4078 -1.0812  1.1558
  390MOL0     O52516  11.319   4.912   2.195 -0.3268 -0.3373 -0.2453
  390MOL0     C52517  11.301   5.012   2.257  0.9088 -0.0374 -0.2174
  390MOL0     O52518  11.176   5.062   2.288 -0.4739 -0.3676 -0.3143
  390MOL0     C52519  11.052   5.000   2.269  0.1933  0.6451  0.6985
  390MOL0     C52520  11.029   4.894   2.182 -0.0032 -0.1811  0.4918
  390MOL0     C52521  10.906   4.829   2.178  0.5576  0.0564 -0.1582
  390MOL0     C52522  10.796   4.875   2.258  0.6577  0.6278 -0.2909
  390MOL0     O52523  10.672   4.821   2.244  0.1391 -0.4456  0.2571
  390MOL0     C52524  10.603   4.779   2.364 -0.1132  1.2944 -0.1403
  390MOL0     C52525  10.471   4.737   2.312  0.4703 -0.2745 -0.0942
  390MOL0     C52526  10.389   4.866   2.299 -0.3824  0.5173 -0.3646
  390MOL0     C52527  10.243   4.845   2.285  0.5748 -0.2829 -0.4105
  390MOL0     C52528  10.151   4.783   2.388 -0.0937 -0.3593 -0.6109
  390MOL0     C52529  10.012   4.785   2.341 -0.1092  0.0000 -0.1305
  390MOL0     C52530   9.927   4.902   2.374  0.0470 -0.4884  0.8075
  390MOL0     C52531   9.894   4.987   2.246  0.0422 -0.6591 -0.0652
  390MOL0     N52532   9.826   4.939   2.125  0.5112  0.4485  0.0249
  390MOL0     C52533   9.692   4.937   2.104 -0.2967 -0.9557  0.0786
  390MOL0     C52534   9.670   4.876   1.987 -0.4665 -0.1737  0.5449
  390MOL0     C52535   9.545   4.856   1.905 -0.1860  1.2292  0.2325
  390MOL0     C52536   9.427   4.780   1.965  0.2127 -0.8426 -0.2300
  390MOL0     C52537   9.471   4.646   2.010 -0.9445 -0.0830 -0.9016
  390MOL0     C52538   9.369   4.543   2.039 -0.6001 -0.2811 -0.6163
  390MOL0     O52539   9.442   4.429   2.070 -0.6970  0.0596 -0.4226
  390MOL0     C52540   9.383   4.335   2.145  0.6659  0.0881  0.2600
  390MOL0     C52541   9.464   4.242   2.201  0.6673 -1.0018  0.3495
  390MOL0     C52542   9.411   4.130   2.268 -0.8217 -0.1832  0.9475
  390MOL0     C52543   9.508   4.026   2.312  0.2442  0.9342  0.0564
  390MOL0     C52544   9.274   4.119   2.297  0.8395  0.0438 -0.7476
  390MOL0     C52545   9.217   4.016   2.393  0.4524  0.0752 -0.0966
  390MOL0     O52546   9.275   3.988   2.516 -0.0167  0.9945  0.4715
  390MOL0     C52547   9.199   3.896   2.591 -0.0381  0.4690 -0.5650
  390MOL0     C52548   9.229   3.757   2.598  0.2756 -0.3034  0.9137
  390MOL0     C52549   9.139   3.678   2.662  0.1675  0.3882  0.6407
  390MOL0     C52550   9.049   3.729   2.750 -0.4318 -0.3055  0.0037
  390MOL0     O52551   8.958   3.647   2.821 -0.4558 -0.4144 -0.4233
  390MOL0     C52552   8.924   3.512   2.783 -0.0887  0.1388 -0.4367
  390MOL0     C52553   8.873   3.432   2.905 -0.5209  0.1484  0.1439
  390MOL0     C52554   8.997   3.370   2.976  0.0665  0.9351  0.0700
  390MOL0     C52555   9.096   3.466   3.039  0.9807  0.6342  0.3871
  390MOL0     C52556   9.219   3.392   3.109 -0.1313 -0.7947  0.4456
  390MOL0     C52557   9.327   3.490   3.153 -0.0251 -0.7262 -0.4746
  390MOL0     C52558   9.460   3.413   3.170 -0.1469 -0.3708  0.2666
  390MOL0     C52559   9.583   3.503   3.218 -0.4581  0.2041  0.1159
  390MOL0    Cl52560   9.582   3.523   3.394 -0.0875 -0.0701 -0.2505
  390MOL0     C52561   9.039   3.868   2.767 -0.0712  0.0586  0.8714
  390MOL0     C52562   9.105   3.952   2.685 -0.2726 -0.4729  0.4561
  390MOL0     O52563   9.098   3.979   2.365 -0.4571 -0.6465  0.0142
  390MOL0     C52564   9.198   4.210   2.242  0.6482  0.2406  0.4412
  390MOL0     C52565   9.241   4.314   2.156  0.1495 -0.0510  1.1797
  390MOL0     N52566   9.785   4.834   1.935 -0.1919  0.0756 -0.4125
  390MOL0     N52567   9.884   4.862   2.020  0.0088 -0.3807 -1.1591
  390MOL0     C52568  10.818   4.988   2.349 -0.7212  0.3440 -0.4594
  390MOL0     C52569  10.946   5.050   2.347 -0.7550  0.7260 -0.3440
  390MOL0     C52570  11.414   5.092   2.313  1.0232 -0.4183 -0.2918
  390MOL0     C52571  11.398   5.205   2.396 -0.5864  0.5821  1.0214
  390MOL0     C52572  11.506   5.268   2.451  0.5329 -1.0442  0.3896
  390MOL0     C52573  11.634   5.233   2.420 -0.2679 -0.8204 -0.1786
  390MOL0     O52574  11.746   5.311   2.444 -0.1331 -0.4153 -0.0201
  390MOL0     C52575  11.806   5.289   2.571  0.3884  0.1117  0.4370
  390MOL0     C52576  11.814   5.413   2.662 -0.4827 -0.0507  0.2407
  390MOL0     C52577  11.910   5.527   2.609 -0.2909  0.0859  0.4183
  390MOL0     C52578  11.859   5.603   2.484 -0.0662  0.5484 -0.1486
  390MOL0     C52579  11.951   5.723   2.464 -0.7015  0.2530 -1.0402
  390MOL0     C52580  12.027   5.813   2.435  0.1088 -0.1437  0.2043
  390MOL0     C52581  11.652   5.124   2.347 -0.4779 -0.0184  0.5285
  390MOL0     C52582  11.545   5.048   2.294  0.2349  0.1228 -0.7343
  390MOL0     H52583  11.110   4.848   2.127 -1.6937 -1.5879 -0.9683
  390MOL0     H52584  10.898   4.745   2.109 -0.1721  1.8353 -2.3513
  390MOL0     H52585  10.646   4.681   2.388 -1.3380  0.4064 -1.4214
  390MOL0     H52586  10.597   4.843   2.453  0.5465 -0.3815  1.1634
  390MOL0     H52587  10.485   4.687   2.216  0.5868 -0.2873 -0.0698
  390MOL0     H52588  10.417   4.680   2.388  0.6236 -1.4406 -0.8419
  390MOL0     H52589  10.412   4.920   2.391 -1.5009  0.7181 -0.1903
  390MOL0     H52590  10.431   4.909   2.208 -0.9277  1.8290 -0.0251
  390MOL0     H52591  10.214   4.950   2.281 -0.0160 -0.2622  2.4655
  390MOL0     H52592  10.209   4.814   2.185 -2.8655 -0.0053  0.5504
  390MOL0     H52593  10.184   4.680   2.403 -0.7461 -0.3552  0.9051
  390MOL0     H52594  10.161   4.833   2.485  2.1094 -0.4496 -0.7245
  390MOL0     H52595  10.006   4.760   2.235 -2.8602  4.4358 -1.2796
  390MOL0     H52596   9.964   4.706   2.399 -0.7707  2.6003  3.2241
  390MOL0     H52597   9.840   4.859   2.425  0.7174 -0.2207  2.2490
  390MOL0     H52598   9.986   4.965   2.441 -1.0553  1.1339  0.2967
  390MOL0     H52599   9.994   5.013   2.208  1.0730 -3.4220  0.5409
  390MOL0     H52600   9.837   5.075   2.277  1.6884  1.1630 -1.8997
  390MOL0     H52601   9.617   4.989   2.164  2.3169  0.2751  2.5402
  390MOL0     H52602   9.506   4.954   1.877  0.8297  1.4568 -0.4247
  390MOL0     H52603   9.568   4.807   1.810  1.7092  2.2995  0.0927
  390MOL0     H52604   9.347   4.794   1.891 -1.1806 -0.2355  1.3160
  390MOL0     H52605   9.393   4.836   2.053  3.3264  0.6505  0.1292
  390MOL0     H52606   9.526   4.662   2.103  0.9413  0.3690 -2.0529
  390MOL0     H52607   9.552   4.615   1.943  1.6714  3.9954 -0.0032
  390MOL0     H52608   9.313   4.515   1.950  0.0675  0.2640 -1.2223
  390MOL0     H52609   9.304   4.566   2.124  2.5644  1.2993  1.6227
  390MOL0     H52610   9.571   4.256   2.196  0.8745 -2.6183 -0.3982
  390MOL0     H52611   9.565   4.046   2.404 -0.8021 -1.6395  1.3640
  390MOL0     H52612   9.458   3.936   2.348 -1.4469  1.9561  0.4157
  390MOL0     H52613   9.581   3.997   2.237  0.5520  1.0391  0.3096
  390MOL0     H52614   9.310   3.720   2.536 -0.7046  1.0075 -1.2816
  390MOL0     H52615   9.153   3.574   2.634  0.2184  1.2728 -3.1760
  390MOL0     H52616   8.847   3.513   2.705  0.8286 -0.0511 -1.3629
  390MOL0     H52617   9.017   3.464   2.752  0.3869  1.8673 -1.9229
  390MOL0     H52618   8.845   3.517   2.968  0.8892  0.0855  0.8960
  390MOL0     H52619   8.795   3.357   2.886  0.1360 -0.8928  1.3377
  390MOL0     H52620   9.054   3.305   2.909 -1.3738 -0.2561 -0.0482
  390MOL0     H52621   8.950   3.301   3.046 -0.2077 -1.2157 -2.1158
  390MOL0     H52622   9.135   3.524   2.955 -0.8832  0.8885 -0.3321
  390MOL0     H52623   9.037   3.529   3.106 -1.1009 -2.8750  2.1142
  390MOL0     H52624   9.266   3.315   3.048 -1.0999 -2.1888  1.4085
  390MOL0     H52625   9.177   3.340   3.196  0.5067  0.4834  1.5491
  390MOL0     H52626   9.346   3.573   3.084 -1.1023  2.5606  2.8381
  390MOL0     H52627   9.294   3.529   3.250  2.0942  1.3975 -0.5300
  390MOL0     H52628   9.500   3.372   3.077  1.9433  2.6234 -0.3246
  390MOL0     H52629   9.448   3.334   3.244 -1.3854 -0.2484  0.2134
  390MOL0     H52630   9.586   3.596   3.161  0.8635 -0.9926 -1.8898
  390MOL0     H52631   9.681   3.467   3.187 -0.2217  0.2631  0.7825
  390MOL0     H52632   8.972   3.915   2.839  0.1264  0.3132  0.8906
  390MOL0     H52633   9.091   4.058   2.703 -0.6491 -0.4681  0.1434
  390MOL0     H52634   9.089   4.212   2.246  0.5259  5.2479  2.8568
  390MOL0     H52635   9.176   4.380   2.099  0.0502 -0.8321  0.3805
  390MOL0     H52636  10.747   5.030   2.419 -1.2615  0.8384 -1.2820
  390MOL0     H52637  10.972   5.118   2.428 -0.8764 -0.6518  0.8979
  390MOL0     H52638  11.298   5.246   2.409 -1.2110  0.2343 -2.0690
  390MOL0     H52639  11.483   5.355   2.512  1.2257  0.5880 -1.5884
  390MOL0     H52640  11.752   5.209   2.623  3.6046 -2.5263  0.1437
  390MOL0     H52641  11.902   5.243   2.546  1.4414  1.8504  1.1004
  390MOL0     H52642  11.854   5.389   2.762 -1.2180 -0.4558  0.4445
  390MOL0     H52643  11.713   5.451   2.676 -0.6696 -0.6435  0.5624
  390MOL0     H52644  12.005   5.475   2.591 -0.9379 -0.5646 -1.3852
  390MOL0     H52645  11.923   5.605   2.685 -1.4928  0.1190  0.6191
  390MOL0     H52646  11.762   5.651   2.497  0.6850  1.5054  2.6210
  390MOL0     H52647  11.858   5.537   2.397 -0.9902  0.6723 -0.2399
  390MOL0     H52648  12.096   5.892   2.414 -0.4491  0.1182 -0.6481
  390MOL0     H52649  11.750   5.080   2.330 -0.8050  0.4450 -3.6793
  390MOL0     H52650  11.577   4.970   2.225  2.2155 -1.4360  1.7742
  391MOL0     O52651   3.162   7.390   0.673  0.0963 -0.2625 -0.3208
  391MOL0     C52652   3.244   7.479   0.660  0.3131 -0.0888  0.4720
  391MOL0     O52653   3.334   7.518   0.756  0.4674 -1.0213  0.4923
  391MOL0     C52654   3.316   7.471   0.877 -1.4397  0.8308  0.1905
  391MOL0     C52655   3.398   7.369   0.933 -0.0568 -0.3734 -0.2580
  391MOL0     C52656   3.379   7.318   1.062  0.9756  0.4980 -0.6823
  391MOL0     C52657   3.281   7.378   1.141  0.3640  0.2434  0.5694
  391MOL0     O52658   3.269   7.324   1.264 -0.0703  0.3389 -0.2556
  391MOL0     C52659   3.191   7.401   1.356  0.3134  0.0781 -0.0533
  391MOL0     C52660   3.046   7.369   1.360 -0.6197 -0.4371  0.0527
  391MOL0     C52661   3.038   7.220   1.384 -0.1603  0.7761 -0.3547
  391MOL0     C52662   2.896   7.176   1.406 -0.2568  0.2427 -0.6189
  391MOL0     C52663   2.885   7.025   1.406  0.4770  0.8665  0.3294
  391MOL0     C52664   2.774   6.991   1.506 -0.1712 -0.2761  0.0518
  391MOL0     C52665   2.752   6.839   1.518  0.2261  0.2669  0.4012
  391MOL0     C52666   2.684   6.781   1.395 -0.7610  0.2747  0.3059
  391MOL0     N52667   2.540   6.794   1.417 -0.4426  0.2876 -0.4198
  391MOL0     C52668   2.483   6.713   1.506  0.1583  0.0221  0.3554
  391MOL0     C52669   2.355   6.732   1.502 -0.4268  0.3840  0.9720
  391MOL0     C52670   2.250   6.666   1.587  0.3420 -0.0183 -0.3792
  391MOL0     C52671   2.121   6.748   1.568 -0.3334  0.7753  0.7662
  391MOL0     C52672   2.022   6.718   1.678  0.7773 -0.3472  0.1935
  391MOL0     C52673   1.945   6.589   1.668 -0.0083  0.0685 -0.6138
  391MOL0     O52674   1.879   6.587   1.539  0.0427  0.0763 -0.1949
  391MOL0     C52675   1.774   6.503   1.542 -0.4439  0.4159 -0.6558
  391MOL0     C52676   1.652   6.570   1.565 -0.6687 -0.3476  0.6442
  391MOL0     C52677   1.534   6.499   1.577 -0.1003 -0.0306  0.1982
  391MOL0     C52678   1.419   6.595   1.607 -0.7473  0.5964  1.1238
  391MOL0     C52679   1.529   6.356   1.556 -0.3216 -0.0063 -0.4868
  391MOL0     C52680   1.400   6.272   1.586 -0.3543 -0.7622  0.5823
  391MOL0     O52681   1.419   6.143   1.604 -0.1837 -0.3230  0.2377
  391MOL0     C52682   1.304   6.070   1.614 -1.0412 -1.1310  0.0045
  391MOL0     C52683   1.261   6.034   1.740  0.7982 -0.4624  0.1477
  391MOL0     C52684   1.137   5.965   1.748 -0.1852  0.3295 -0.7637
  391MOL0     C52685   1.070   5.922   1.633  0.6395  0.6114 -0.2897
  391MOL0     O52686   0.955   5.840   1.627  0.0555 -0.0112  0.0167
  391MOL0     C52687   0.961   5.729   1.721 -0.1170 -0.1015 -0.1324
  391MOL0     C52688   0.861   5.609   1.670 -0.1831  0.8734  0.0676
  391MOL0     C52689   0.726   5.669   1.621  0.4961 -1.4178  0.4755
  391MOL0     C52690   0.643   5.730   1.730  0.8264 -0.4774 -0.5632
  391MOL0     C52691   0.556   5.849   1.664  0.2257  0.2281  0.0197
  391MOL0     C52692   0.458   5.777   1.564 -0.2106  1.3015  0.2448
  391MOL0     C52693   0.345   5.878   1.525  0.3624 -0.0222 -0.3595
  391MOL0     C52694   0.251   5.858   1.407  0.2879 -0.5185  1.3358
  391MOL0    Cl52695   0.195   5.685   1.415  0.2767  0.2018  0.3849
  391MOL0     C52696   1.119   5.955   1.507 -0.4448  0.3659  0.4227
  391MOL0     C52697   1.233   6.036   1.497 -0.9111  0.0900 -0.1452
  391MOL0     O52698   1.286   6.332   1.587 -0.5854 -0.2312 -1.0893
  391MOL0     C52699   1.653   6.295   1.528  0.3357  0.4163 -0.0871
  391MOL0     C52700   1.774   6.361   1.523 -0.4047 -0.5610 -0.0835
  391MOL0     N52701   2.330   6.821   1.399 -0.7130  0.3650 -0.1469
  391MOL0     N52702   2.446   6.864   1.347 -0.7112 -0.4873 -0.0576
  391MOL0     C52703   3.196   7.476   1.079 -0.5045  0.6033 -0.7698
  391MOL0     C52704   3.210   7.515   0.946 -0.0969  0.4912 -0.1365
  391MOL0     C52705   3.232   7.564   0.537 -0.2244 -0.3068 -0.7088
  391MOL0     C52706   3.134   7.547   0.446 -0.6807  0.1867  0.2966
  391MOL0     C52707   3.134   7.631   0.326 -0.9096 -0.2394 -0.3975
  391MOL0     C52708   3.223   7.741   0.301  0.7094  0.8428  0.5282
  391MOL0     O52709   3.211   7.824   0.190 -0.3231  1.4041  0.4339
  391MOL0     C52710   3.100   7.815   0.099 -0.6555 -0.1819  0.9894
  391MOL0     C52711   2.969   7.882   0.139  0.5798  0.2516 -0.5550
  391MOL0     C52712   2.878   7.903   0.007 -0.4229 -0.2191 -1.1173
  391MOL0     C52713   2.857   7.772  -0.083 -0.9246 -0.5785 -0.8807
  391MOL0     C52714   2.724   7.758  -0.136 -0.9385 -0.4604  0.6006
  391MOL0     C52715   2.612   7.758  -0.173  0.8233  0.0184 -0.7986
  391MOL0     C52716   3.316   7.750   0.401 -0.3727  0.0382  0.5734
  391MOL0     C52717   3.316   7.674   0.514 -0.0390 -0.2217 -0.6829
  391MOL0     H52718   3.479   7.320   0.878 -1.1402 -3.2795  0.5226
  391MOL0     H52719   3.428   7.230   1.104 -2.8925 -2.0923 -1.1059
  391MOL0     H52720   3.232   7.380   1.455  1.1085  5.0544  0.9387
  391MOL0     H52721   3.212   7.508   1.349 -0.4132  0.3126  1.1246
  391MOL0     H52722   3.010   7.428   1.445  1.6008 -0.5634  1.1615
  391MOL0     H52723   2.986   7.386   1.270 -0.5557 -0.5883 -0.0187
  391MOL0     H52724   3.078   7.166   1.298  1.0684  3.3157 -1.4793
  391MOL0     H52725   3.105   7.196   1.468  1.2985 -0.5434 -1.8189
  391MOL0     H52726   2.864   7.222   1.500  0.6048 -0.9413  0.2784
  391MOL0     H52727   2.829   7.211   1.327  0.2595 -1.1697 -1.7245
  391MOL0     H52728   2.856   6.982   1.310  4.2453  0.1320 -0.6486
  391MOL0     H52729   2.974   6.970   1.437 -0.5311  0.5808  3.0675
  391MOL0     H52730   2.811   7.029   1.601 -0.7296  1.0754 -0.2540
  391MOL0     H52731   2.679   7.039   1.482 -0.5941 -1.3262 -0.4678
  391MOL0     H52732   2.838   6.772   1.526 -2.1422 -2.8610  1.6171
  391MOL0     H52733   2.694   6.834   1.611  0.1240  0.7546  0.3635
  391MOL0     H52734   2.713   6.676   1.381 -0.5295 -0.1566  3.3646
  391MOL0     H52735   2.707   6.826   1.298 -3.6762  0.7363 -0.2585
  391MOL0     H52736   2.530   6.631   1.560  0.7215 -2.0428 -2.9687
  391MOL0     H52737   2.237   6.563   1.552  2.3372 -0.6783  0.6572
  391MOL0     H52738   2.285   6.673   1.690 -0.8832  1.9440 -0.0586
  391MOL0     H52739   2.070   6.734   1.472  1.6113  0.5318 -0.2836
  391MOL0     H52740   2.150   6.853   1.579 -1.4586  1.0284  1.5340
  391MOL0     H52741   1.956   6.805   1.676 -0.0932 -1.0079 -0.6780
  391MOL0     H52742   2.082   6.725   1.770  1.6949  2.4383 -0.5093
  391MOL0     H52743   1.866   6.583   1.743  0.5469  1.2209  0.0897
  391MOL0     H52744   2.003   6.496   1.673  0.4956  0.2625 -2.2853
  391MOL0     H52745   1.650   6.678   1.572 -1.4393 -0.2496 -0.7344
  391MOL0     H52746   1.340   6.584   1.531  1.3468  2.8238 -1.5999
  391MOL0     H52747   1.391   6.558   1.706  0.7325 -0.7056  1.0859
  391MOL0     H52748   1.447   6.701   1.601  1.3539 -0.0181 -1.7643
  391MOL0     H52749   1.316   6.041   1.833  0.5218 -2.6391  0.5272
  391MOL0     H52750   1.093   5.947   1.845 -3.2324  6.8439 -0.3994
  391MOL0     H52751   1.061   5.686   1.723  1.8569  3.8791 -1.7204
  391MOL0     H52752   0.947   5.779   1.817  3.4085  3.0836 -1.0418
  391MOL0     H52753   0.913   5.567   1.584 -0.9853 -0.1640  0.0637
  391MOL0     H52754   0.851   5.531   1.746  2.0589 -1.2655 -1.7041
  391MOL0     H52755   0.661   5.592   1.579 -3.9620  0.5403  3.0601
  391MOL0     H52756   0.760   5.747   1.552  2.7554 -2.0910  0.7404
  391MOL0     H52757   0.571   5.655   1.764 -0.3385  0.7014 -0.3322
  391MOL0     H52758   0.703   5.759   1.816 -0.9927 -3.1759  1.8435
  391MOL0     H52759   0.629   5.913   1.615  2.2825 -1.6548  0.4759
  391MOL0     H52760   0.494   5.906   1.734 -1.2398  2.8190 -3.1601
  391MOL0     H52761   0.517   5.756   1.474  0.6830 -0.5207  1.2039
  391MOL0     H52762   0.422   5.679   1.599  0.1493  0.7829 -0.7801
  391MOL0     H52763   0.388   5.977   1.505  2.1744 -0.1607  2.3016
  391MOL0     H52764   0.276   5.886   1.609  0.7618  1.5682 -0.1423
  391MOL0     H52765   0.307   5.882   1.316 -1.9884 -1.3181 -0.3737
  391MOL0     H52766   0.166   5.927   1.406 -1.1532 -2.1956 -0.6070
  391MOL0     H52767   1.065   5.935   1.415  2.5981  0.9454 -1.6386
  391MOL0     H52768   1.265   6.074   1.400  0.0344  1.2324  0.5736
  391MOL0     H52769   1.652   6.186   1.522 -4.4100 -0.1984  4.7833
  391MOL0     H52770   1.863   6.304   1.501  0.8038  0.8137  1.0952
  391MOL0     H52771   3.112   7.518   1.134 -0.5997 -1.7339  0.9995
  391MOL0     H52772   3.149   7.595   0.905 -2.0741  1.7966  4.5848
  391MOL0     H52773   3.050   7.478   0.442  0.0217 -0.6522 -0.6604
  391MOL0     H52774   3.046   7.626   0.262 -1.4504 -1.1935  0.3926
  391MOL0     H52775   3.129   7.863   0.005 -4.0713  0.3690  0.0577
  391MOL0     H52776   3.083   7.708   0.084 -1.2300 -0.8516  5.1741
  391MOL0     H52777   2.995   7.982   0.176 -0.6210  0.4934 -0.3400
  391MOL0     H52778   2.911   7.831   0.216 -0.3854 -0.8677 -1.9712
  391MOL0     H52779   2.927   7.982  -0.050  1.7264 -0.1105  0.7387
  391MOL0     H52780   2.783   7.941   0.045 -1.0911  0.6037 -3.4278
  391MOL0     H52781   2.888   7.695  -0.013  4.3224  1.5630 -0.3439
  391MOL0     H52782   2.921   7.765  -0.172 -0.4376 -2.2491 -0.4226
  391MOL0     H52783   2.508   7.762  -0.199  0.8637 -1.1232 -1.1955
  391MOL0     H52784   3.390   7.829   0.396 -2.5113  2.2082  1.0249
  391MOL0     H52785   3.383   7.704   0.594  1.4773  0.5936 -2.1946
  392MOL0     O52786   2.644   6.660   9.749  0.2321 -0.8974  0.5923
  392MOL0     C52787   2.752   6.602   9.740 -0.2236  0.1006  0.8197
  392MOL0     O52788   2.786   6.479   9.797 -0.0410 -0.3672 -0.4717
  392MOL0     C52789   2.676   6.411   9.861 -0.3997 -0.1682  0.7170
  392MOL0     C52790   2.592   6.353   9.769  0.1424 -0.7194  0.1228
  392MOL0     C52791   2.474   6.298   9.815  0.3845  0.0158 -0.0080
  392MOL0     C52792   2.441   6.295   9.950 -0.0184  0.4273 -0.9113
  392MOL0     O52793   2.329   6.220   9.976  0.1488  0.2377 -0.5135
  392MOL0     C52794   2.277   6.234  10.108  0.3903 -0.3136  0.7487
  392MOL0     C52795   2.144   6.149  10.122 -0.2530  1.0392 -0.1660
  392MOL0     C52796   2.161   6.008  10.091 -0.1234 -1.2991  0.2702
  392MOL0     C52797   2.210   5.931  10.214 -0.3729  1.0541 -0.4223
  392MOL0     C52798   2.212   5.776  10.208  1.2507  0.5469  0.5870
  392MOL0     C52799   2.069   5.714  10.205 -0.0153 -0.8280 -0.8454
  392MOL0     C52800   2.058   5.568  10.242 -0.2392 -0.0919  0.7314
  392MOL0     C52801   1.952   5.497  10.162  0.5514 -0.3343  0.2531
  392MOL0     N52802   1.805   5.521  10.193 -0.6196  0.2276  0.0722
  392MOL0     C52803   1.698   5.431  10.200 -0.0616 -0.7434 -0.0987
  392MOL0     C52804   1.587   5.510  10.208  0.8310 -0.3844 -0.4655
  392MOL0     C52805   1.444   5.457  10.211  0.2344 -0.2395 -0.0684
  392MOL0     C52806   1.400   5.447  10.061 -0.3330 -0.2975  0.6369
  392MOL0     C52807   1.250   5.434  10.041  0.0025 -0.7797  0.6704
  392MOL0     C52808   1.184   5.342  10.134 -1.0887 -0.6011  0.0926
  392MOL0     O52809   1.043   5.355  10.097  0.3081 -0.3659  0.2605
  392MOL0     C52810   0.954   5.263  10.137  0.0809 -0.3287 -0.2515
  392MOL0     C52811   0.830   5.267  10.063  0.4025 -0.6999  0.6065
  392MOL0     C52812   0.727   5.181  10.101 -0.0933  0.3929  0.1250
  392MOL0     C52813   0.614   5.189  10.003 -0.5007 -0.9408  0.2430
  392MOL0     C52814   0.730   5.101  10.213  0.4980 -0.0150  0.0409
  392MOL0     C52815   0.630   4.991  10.246 -0.2981  0.0618 -0.5039
  392MOL0     O52816   0.645   4.927  10.368  0.5479 -0.6464  0.3237
  392MOL0     C52817   0.540   4.839  10.393  0.6815 -1.0986 -0.2983
  392MOL0     C52818   0.414   4.893  10.423  0.5965  0.3631 -0.0281
  392MOL0     C52819   0.312   4.801  10.464 -0.4087  0.1973  0.4002
  392MOL0     C52820   0.324   4.664  10.450 -0.1527  0.5334 -1.1866
  392MOL0     O52821   0.212   4.588  10.484 -0.3146  0.6012  0.7271
  392MOL0     C52822   0.225   4.469  10.566  0.4568  0.7747 -0.6569
  392MOL0     C52823   0.087   4.403  10.598 -0.6542 -0.6040 -0.0164
  392MOL0     C52824   0.009   4.468  10.716 -0.5115  0.1309 -1.1900
  392MOL0     C52825  -0.094   4.576  10.681  1.5929 -0.2461 -0.4591
  392MOL0     C52826  -0.189   4.616  10.794  0.3026  0.5544 -0.1912
  392MOL0     C52827  -0.276   4.732  10.735  0.5744  0.3795 -0.1444
  392MOL0     C52828  -0.359   4.800  10.850  0.2911 -0.1843 -0.7261
  392MOL0     C52829  -0.463   4.900  10.794  0.3269 -0.3718 -0.1129
  392MOL0    Cl52830  -0.576   4.828  10.670  0.1180  0.0043 -0.3702
  392MOL0     C52831   0.453   4.612  10.437  0.2165  0.3855  0.7315
  392MOL0     C52832   0.562   4.698  10.402 -0.0039  0.1524 -0.3890
  392MOL0     O52833   0.535   4.980  10.173  0.4544 -0.0053 -0.4099
  392MOL0     C52834   0.851   5.115  10.287 -0.7717  0.5065  0.3336
  392MOL0     C52835   0.960   5.190  10.254 -0.8123  0.8821  0.2863
  392MOL0     N52836   1.623   5.644  10.216  1.1100 -0.6474 -0.0406
  392MOL0     N52837   1.751   5.646  10.208 -0.4834 -0.5642 -0.0349
  392MOL0     C52838   2.531   6.341  10.045  0.6241 -0.6971  0.0207
  392MOL0     C52839   2.641   6.412   9.997 -0.6749  0.7361  0.4399
  392MOL0     C52840   2.869   6.678   9.686 -0.4955 -0.4978 -0.2699
  392MOL0     C52841   2.853   6.789   9.598 -0.2215  0.5342 -0.2927
  392MOL0     C52842   2.961   6.851   9.549 -0.2982 -0.2943  0.1130
  392MOL0     C52843   3.092   6.796   9.557 -0.5332 -0.6041  0.7557
  392MOL0     O52844   3.204   6.858   9.486  0.9950  0.0335 -1.2986
  392MOL0     C52845   3.331   6.797   9.487 -0.9563  0.0411 -0.2070
  392MOL0     C52846   3.426   6.890   9.413  0.1032  0.4139 -1.1513
  392MOL0     C52847   3.469   7.011   9.492  0.2791  0.0589  0.2500
  392MOL0     C52848   3.534   7.106   9.401  0.4880 -0.7973 -1.0945
  392MOL0     C52849   3.557   7.245   9.470  0.1313  0.1809 -0.2456
  392MOL0     C52850   3.557   7.352   9.530  0.2941 -0.1040  0.6571
  392MOL0     C52851   3.107   6.682   9.636 -0.2102  0.0331 -0.4555
  392MOL0     C52852   2.998   6.622   9.702  0.9443  0.4615  0.8882
  392MOL0     H52853   2.605   6.362   9.662  1.1251  1.0147  0.3447
  392MOL0     H52854   2.397   6.264   9.745  1.5189 -4.7903  0.7217
  392MOL0     H52855   2.360   6.203  10.172 -0.8754 -2.3158  1.5003
  392MOL0     H52856   2.267   6.342  10.127  0.5106 -0.2145  0.2702
  392MOL0     H52857   2.100   6.161  10.222 -5.9693 -3.5582 -1.5283
  392MOL0     H52858   2.070   6.197  10.056 -0.8711 -1.8503 -1.7614
  392MOL0     H52859   2.072   5.956  10.055 -1.4034  0.8518  0.1211
  392MOL0     H52860   2.247   5.993  10.026  2.2321 -1.1398  3.1400
  392MOL0     H52861   2.313   5.960  10.238  0.0095  1.1633 -2.0746
  392MOL0     H52862   2.152   5.964  10.301  0.1925 -1.3969  0.9936
  392MOL0     H52863   2.273   5.747  10.123 -1.8177 -3.3415 -0.5987
  392MOL0     H52864   2.265   5.746  10.299  1.6240  0.5854  0.3791
  392MOL0     H52865   2.003   5.753  10.283  2.7823 -2.9292  2.9110
  392MOL0     H52866   2.024   5.728  10.106 -0.8189  0.9597 -0.2826
  392MOL0     H52867   2.151   5.516  10.216  1.0100  2.0401  0.6816
  392MOL0     H52868   2.051   5.546  10.349  1.9884 -2.6149  0.4594
  392MOL0     H52869   1.970   5.390  10.176 -2.3758 -0.7358  1.6097
  392MOL0     H52870   1.960   5.522  10.056 -1.0201 -2.8424 -0.5478
  392MOL0     H52871   1.689   5.325  10.178 -0.3735 -0.8569  0.5484
  392MOL0     H52872   1.439   5.364  10.269 -0.9508 -0.6229 -0.7473
  392MOL0     H52873   1.386   5.537  10.258  0.9516 -0.1168  0.6370
  392MOL0     H52874   1.444   5.354  10.025 -1.5372 -0.3780 -0.6925
  392MOL0     H52875   1.434   5.530   9.999  0.5777  1.2941  3.1170
  392MOL0     H52876   1.234   5.402   9.937 -3.3614  2.3081  0.0097
  392MOL0     H52877   1.208   5.535  10.050  1.6622  0.0913 -0.7104
  392MOL0     H52878   1.196   5.371  10.239  0.7105 -1.2724  0.1164
  392MOL0     H52879   1.211   5.237  10.119 -3.6136 -1.3837  0.4751
  392MOL0     H52880   0.824   5.331   9.976 -0.5398 -1.0151  0.4271
  392MOL0     H52881   0.641   5.232   9.906 -1.9166 -2.3425 -0.8211
  392MOL0     H52882   0.582   5.090   9.969 -0.2758 -1.4013  1.3171
  392MOL0     H52883   0.529   5.247  10.040 -0.3687 -0.8849  0.4611
  392MOL0     H52884   0.398   5.001  10.422 -0.0929  0.2670 -0.3144
  392MOL0     H52885   0.209   4.834  10.475 -1.7895 -3.3593 -0.2462
  392MOL0     H52886   0.291   4.391  10.527  0.1113 -2.2404  4.0250
  392MOL0     H52887   0.277   4.497  10.659 -1.4853 -0.6659  0.9559
  392MOL0     H52888   0.023   4.414  10.509 -1.6541  0.8305  0.8364
  392MOL0     H52889   0.094   4.298  10.629  0.3577  0.0712  2.2312
  392MOL0     H52890   0.083   4.504  10.789 -0.0457 -0.9900 -1.0842
  392MOL0     H52891  -0.048   4.391  10.769  1.4305 -0.4471  0.2002
  392MOL0     H52892  -0.029   4.661  10.663  1.1155  0.4066  0.7445
  392MOL0     H52893  -0.151   4.542  10.594  4.4019 -1.4256 -1.9767
  392MOL0     H52894  -0.131   4.656  10.878 -0.0497  0.5812  0.0446
  392MOL0     H52895  -0.247   4.528  10.821  0.5955  0.4522  0.1153
  392MOL0     H52896  -0.210   4.803  10.684  2.3408 -1.8922 -1.2166
  392MOL0     H52897  -0.346   4.696  10.658 -0.3452  2.1333 -0.1880
  392MOL0     H52898  -0.296   4.855  10.921 -1.3609  1.4476 -0.4612
  392MOL0     H52899  -0.411   4.729  10.914  1.2313  1.2428  1.7838
  392MOL0     H52900  -0.429   4.989  10.741 -2.4434 -0.6289 -2.5634
  392MOL0     H52901  -0.524   4.941  10.876 -0.3401 -1.2872 -0.1274
  392MOL0     H52902   0.471   4.506  10.422  2.5499  0.9190 -0.8209
  392MOL0     H52903   0.658   4.649  10.393  0.0795  0.4632 -1.3737
  392MOL0     H52904   0.854   5.063  10.383 -0.0023  1.4281  0.8263
  392MOL0     H52905   1.047   5.184  10.320 -0.4416  1.8263 -0.0902
  392MOL0     H52906   2.520   6.342  10.153 -2.3225  0.3897 -0.1776
  392MOL0     H52907   2.712   6.450  10.070 -1.4587 -1.6485  2.5544
  392MOL0     H52908   2.751   6.823   9.578 -0.3034  0.2454 -0.3786
  392MOL0     H52909   2.951   6.948   9.500 -0.8949 -0.3905  0.0302
  392MOL0     H52910   3.375   6.771   9.584 -0.9107  1.8953  0.3080
  392MOL0     H52911   3.321   6.708   9.423  0.0632 -0.7510  0.6903
  392MOL0     H52912   3.367   6.925   9.328 -3.0011  0.9787  1.0676
  392MOL0     H52913   3.510   6.827   9.382 -1.7212 -2.6213 -0.2453
  392MOL0     H52914   3.545   6.979   9.564 -1.8603 -1.0173  2.1718
  392MOL0     H52915   3.384   7.066   9.532 -0.6901  1.9877 -3.9227
  392MOL0     H52916   3.461   7.122   9.321  0.7590 -0.2118 -1.2311
  392MOL0     H52917   3.631   7.073   9.362 -0.1220  0.5446 -4.0042
  392MOL0     H52918   3.549   7.455   9.558 -0.7878  1.3637 -4.1154
  392MOL0     H52919   3.200   6.626   9.641 -0.2135  0.0866  0.3143
  392MOL0     H52920   3.017   6.539   9.770  1.7265  0.8039  1.0877
  393MOL0     O52921   0.100   9.744   1.698  0.4384 -0.3368  0.8087
  393MOL0     C52922   0.145   9.634   1.730 -0.8047 -0.9569  0.0861
  393MOL0     O52923   0.091   9.513   1.701 -0.1275 -0.3173 -0.1901
  393MOL0     C52924  -0.033   9.504   1.638  0.0538  0.4473 -0.4790
  393MOL0     C52925  -0.046   9.560   1.505  0.3135 -0.3840 -0.5014
  393MOL0     C52926  -0.174   9.576   1.444 -0.8377  0.4795  0.3170
  393MOL0     C52927  -0.288   9.525   1.512 -0.6443 -0.6509  1.0417
  393MOL0     O52928  -0.412   9.520   1.465 -0.0098 -0.0554  0.6705
  393MOL0     C52929  -0.450   9.611   1.358 -0.1670 -0.7072  0.4129
  393MOL0     C52930  -0.598   9.660   1.376  0.2380 -1.3308 -0.3147
  393MOL0     C52931  -0.678   9.712   1.256 -0.0396  0.2087  0.2231
  393MOL0     C52932  -0.832   9.715   1.288 -1.0252  0.7436  0.4021
  393MOL0     C52933  -0.925   9.736   1.166 -0.2530  0.3091 -1.2556
  393MOL0     C52934  -1.060   9.789   1.214 -0.6887 -0.1090  0.3277
  393MOL0     C52935  -1.149   9.818   1.086 -0.7011 -0.5966 -0.7499
  393MOL0     C52936  -1.270   9.898   1.120  0.0228 -0.3120  0.7108
  393MOL0     N52937  -1.387   9.866   1.040  0.0064 -0.3135  0.1365
  393MOL0     C52938  -1.501   9.933   1.068 -0.1771  0.3457 -0.4694
  393MOL0     C52939  -1.598   9.862   1.011  0.6521  0.0853  0.7047
  393MOL0     C52940  -1.746   9.890   1.007  0.9711 -0.5675  0.4575
  393MOL0     C52941  -1.787   9.979   0.893 -0.1036  0.4180 -0.3249
  393MOL0     C52942  -1.784   9.912   0.751 -0.1315 -0.7995  1.0593
  393MOL0     C52943  -1.863  10.005   0.662  0.3916  0.0747  0.2288
  393MOL0     O52944  -2.011  10.002   0.680 -0.9996  0.0569 -0.5903
  393MOL0     C52945  -2.096  10.055   0.591 -0.0362  0.6030  0.8409
  393MOL0     C52946  -2.061  10.158   0.504  0.7922  0.7689  0.1871
  393MOL0     C52947  -2.153  10.216   0.413  0.0515 -0.0575 -0.8155
  393MOL0     C52948  -2.098  10.335   0.339 -0.3958  0.0769  0.0045
  393MOL0     C52949  -2.288  10.187   0.414  0.8846 -0.0958 -0.3162
  393MOL0     C52950  -2.389  10.248   0.326 -0.1856 -0.2906 -0.9689
  393MOL0     O52951  -2.358  10.341   0.229 -0.1966  0.5374 -0.0508
  393MOL0     C52952  -2.453  10.326   0.136 -0.1693  0.4680  0.2472
  393MOL0     C52953  -2.424  10.238   0.027  0.1252 -0.4443  0.5871
  393MOL0     C52954  -2.500  10.228  -0.084  0.7875  0.2324 -0.1180
  393MOL0     C52955  -2.620  10.299  -0.095  0.8234 -0.0279 -0.4168
  393MOL0     O52956  -2.697  10.278  -0.199  0.7387  0.0300 -0.3442
  393MOL0     C52957  -2.822  10.226  -0.166  0.0537  0.2117 -0.3575
  393MOL0     C52958  -2.925  10.293  -0.259  0.3848 -0.3610 -0.0762
  393MOL0     C52959  -3.043  10.203  -0.250  0.5223  0.4558  0.1366
  393MOL0     C52960  -3.156  10.258  -0.340  0.0650  0.2833  0.4149
  393MOL0     C52961  -3.286  10.202  -0.299  0.4434  0.0586 -0.4750
  393MOL0     C52962  -3.423  10.273  -0.334 -0.4548 -0.1108 -0.5382
  393MOL0     C52963  -3.550  10.200  -0.267  0.6236  0.5376  0.3659
  393MOL0     C52964  -3.631  10.102  -0.371  0.0124  0.6023  0.2537
  393MOL0    Cl52965  -3.750  10.190  -0.472 -0.1273 -0.2927  0.6008
  393MOL0     C52966  -2.643  10.383   0.013  0.3153 -1.1298  0.6052
  393MOL0     C52967  -2.564  10.407   0.130 -0.1556 -0.5129  1.0538
  393MOL0     O52968  -2.504  10.243   0.378  0.0691 -0.6865 -1.1274
  393MOL0     C52969  -2.324  10.087   0.508 -1.5321 -0.1612  0.2040
  393MOL0     C52970  -2.235  10.024   0.598  0.1560  0.2958  0.1759
  393MOL0     N52971  -1.542   9.758   0.937  0.5252  0.3319 -0.7472
  393MOL0     N52972  -1.418   9.758   0.965 -0.0058  0.6355  0.0880
  393MOL0     C52973  -0.272   9.454   1.633 -0.7818 -0.2926 -0.0009
  393MOL0     C52974  -0.149   9.446   1.695 -0.0551  0.9318 -0.0484
  393MOL0     C52975   0.266   9.627   1.815 -0.4738 -0.1835 -0.2684
  393MOL0     C52976   0.318   9.746   1.857  0.2499 -0.2268  0.0839
  393MOL0     C52977   0.428   9.761   1.940  0.9416 -0.0990 -0.4624
  393MOL0     C52978   0.496   9.640   1.978 -0.3343  0.0301 -1.2270
  393MOL0     O52979   0.607   9.656   2.048 -0.7332 -0.5471  0.4130
  393MOL0     C52980   0.690   9.554   2.091  0.9550  0.7836 -0.2137
  393MOL0     C52981   0.817   9.596   2.137 -0.2751 -0.6642  0.2958
  393MOL0     C52982   0.894   9.474   2.191 -0.4002  0.5935 -0.1755
  393MOL0     C52983   1.047   9.493   2.209  0.7333  0.9533  0.6774
  393MOL0     C52984   1.130   9.481   2.091  0.4334 -0.3716 -0.1788
  393MOL0     C52985   1.186   9.466   1.991  0.5627  1.0720 -0.4440
  393MOL0     C52986   0.450   9.515   1.941  0.7585  1.2610  0.3110
  393MOL0     C52987   0.331   9.510   1.862  0.4207  1.1011  0.1522
  393MOL0     H52988   0.043   9.598   1.457  0.1729  0.1895 -0.3184
  393MOL0     H52989  -0.184   9.621   1.346 -0.1572 -1.2997 -0.6117
  393MOL0     H52990  -0.381   9.695   1.348 -0.4125 -0.6433 -0.9219
  393MOL0     H52991  -0.449   9.558   1.262 -1.1825  0.7287 -0.4303
  393MOL0     H52992  -0.658   9.575   1.411 -1.0731 -1.6165 -3.0631
  393MOL0     H52993  -0.609   9.730   1.460 -1.9373 -0.0568 -1.5736
  393MOL0     H52994  -0.653   9.816   1.230 -1.0938  0.3460 -0.2968
  393MOL0     H52995  -0.654   9.642   1.175  0.1610 -0.2833  0.7088
  393MOL0     H52996  -0.872   9.632   1.348 -1.5216 -0.2787 -1.2598
  393MOL0     H52997  -0.839   9.800   1.357  0.3692 -0.0697  1.5974
  393MOL0     H52998  -0.874   9.809   1.102 -1.6335  1.0298 -1.5897
  393MOL0     H52999  -0.941   9.642   1.112 -0.1626  1.3322 -3.1627
  393MOL0     H53000  -1.115   9.723   1.282 -1.1545 -0.5408 -0.4596
  393MOL0     H53001  -1.037   9.880   1.271 -0.6720  0.6527 -0.8652
  393MOL0     H53002  -1.091   9.867   1.008  1.0350  0.5911  1.1816
  393MOL0     H53003  -1.186   9.719   1.057 -3.1324  0.3001 -0.9559
  393MOL0     H53004  -1.239  10.002   1.108  2.9224 -0.8336  2.6654
  393MOL0     H53005  -1.290   9.902   1.227 -0.2199  2.3842  0.6231
  393MOL0     H53006  -1.523  10.031   1.109  0.5987 -0.0790  1.0507
  393MOL0     H53007  -1.799   9.794   1.004 -0.4245  0.1448 -3.0270
  393MOL0     H53008  -1.780   9.935   1.100 -1.0259 -2.2831  0.6287
  393MOL0     H53009  -1.717  10.062   0.880  1.0221 -0.7645 -2.2710
  393MOL0     H53010  -1.883  10.024   0.920 -0.1931 -1.8141  3.9393
  393MOL0     H53011  -1.829   9.812   0.754  0.6192 -1.6333 -4.4761
  393MOL0     H53012  -1.682   9.905   0.712 -0.7146  3.4861 -1.8732
  393MOL0     H53013  -1.845   9.973   0.559 -2.2645  2.6296 -1.1926
  393MOL0     H53014  -1.814  10.102   0.671  2.0641 -0.3474 -2.9103
  393MOL0     H53015  -1.961  10.200   0.499 -0.0074  2.8519  0.5671
  393MOL0     H53016  -2.112  10.319   0.232  1.4803  3.1205 -0.8485
  393MOL0     H53017  -2.155  10.426   0.358 -0.5506 -0.2422  1.1083
  393MOL0     H53018  -1.992  10.354   0.358  0.3265 -3.1859 -0.2811
  393MOL0     H53019  -2.333  10.180   0.032 -0.5147 -1.5621 -0.3238
  393MOL0     H53020  -2.472  10.158  -0.161 -0.7999  0.2178 -0.7265
  393MOL0     H53021  -2.813  10.118  -0.182  0.2023  0.2775 -0.7489
  393MOL0     H53022  -2.850  10.247  -0.063 -0.4562  0.8646 -0.6223
  393MOL0     H53023  -2.946  10.397  -0.230  0.3010  0.0297 -1.4373
  393MOL0     H53024  -2.887  10.289  -0.362 -2.5407 -3.2676 -1.2243
  393MOL0     H53025  -3.079  10.189  -0.148  0.8574 -0.0693  0.1841
  393MOL0     H53026  -3.018  10.105  -0.291 -0.8532  0.6162 -1.2024
  393MOL0     H53027  -3.159  10.367  -0.330 -1.6815  0.6477 -2.7102
  393MOL0     H53028  -3.132  10.234  -0.444  1.4939 -0.6210  0.9266
  393MOL0     H53029  -3.291  10.213  -0.191  0.3555 -0.6640 -0.3977
  393MOL0     H53030  -3.293  10.094  -0.316 -2.3813  0.0079  0.5009
  393MOL0     H53031  -3.438  10.379  -0.315 -0.7045 -0.2322 -0.0668
  393MOL0     H53032  -3.419  10.266  -0.444 -0.7736  0.1248 -0.5645
  393MOL0     H53033  -3.623  10.278  -0.243 -1.6410 -0.9323 -1.2813
  393MOL0     H53034  -3.517  10.145  -0.179 -2.5333 -0.8806  0.7900
  393MOL0     H53035  -3.699  10.031  -0.322 -2.9252  1.9950 -1.5057
  393MOL0     H53036  -3.555  10.053  -0.432  1.1367  3.1103 -0.4977
  393MOL0     H53037  -2.733  10.444   0.010  2.8096  2.9399 -0.1674
  393MOL0     H53038  -2.586  10.484   0.203 -0.7599  0.7361 -0.3831
  393MOL0     H53039  -2.429  10.058   0.512 -1.6942  0.4878  0.7735
  393MOL0     H53040  -2.275   9.948   0.664  1.7669  0.4416  1.3708
  393MOL0     H53041  -0.357   9.411   1.686 -2.3007  2.0098 -0.4106
  393MOL0     H53042  -0.156   9.393   1.790 -2.6167  2.0000  0.4425
  393MOL0     H53043   0.264   9.837   1.829 -1.2427 -0.7841  1.0280
  393MOL0     H53044   0.457   9.859   1.977 -3.7897  2.0691 -1.7233
  393MOL0     H53045   0.623   9.506   2.164  0.0266  1.4799 -0.5813
  393MOL0     H53046   0.705   9.495   2.000 -0.1734  0.1563 -0.0226
  393MOL0     H53047   0.817   9.681   2.205 -1.4618  0.0573 -0.5682
  393MOL0     H53048   0.878   9.630   2.053  0.3613  1.8464  1.6775
  393MOL0     H53049   0.881   9.384   2.129 -0.8144  0.0767  0.6454
  393MOL0     H53050   0.843   9.463   2.287  0.8347  0.3644  0.4778
  393MOL0     H53051   1.091   9.425   2.283 -1.1176 -0.2026  0.7976
  393MOL0     H53052   1.079   9.591   2.244  4.3310 -0.2026  1.0798
  393MOL0     H53053   1.245   9.453   1.903  2.5463  0.6330  0.8919
  393MOL0     H53054   0.491   9.421   1.978 -0.5962  0.1474 -0.8942
  393MOL0     H53055   0.286   9.411   1.853 -2.8867  2.4510  0.2026
  394MOL0     O53056   0.324   2.330   1.518  0.0191  0.1791 -0.3074
  394MOL0     C53057   0.272   2.437   1.533  0.5332  0.7091 -0.2123
  394MOL0     O53058   0.144   2.472   1.490  0.0367 -0.6830 -0.5736
  394MOL0     C53059   0.055   2.390   1.429 -0.2250 -0.9813  0.0544
  394MOL0     C53060  -0.059   2.355   1.496 -0.4595  0.3953 -0.2766
  394MOL0     C53061  -0.162   2.268   1.447  0.4031 -0.3262  0.8101
  394MOL0     C53062  -0.155   2.226   1.318 -0.3305 -0.1481  0.4489
  394MOL0     O53063  -0.246   2.143   1.262 -0.2772  0.4722  0.3894
  394MOL0     C53064  -0.384   2.156   1.295  0.1944 -0.0420  0.1033
  394MOL0     C53065  -0.445   2.017   1.324  0.2716 -0.8539 -0.1707
  394MOL0     C53066  -0.412   1.918   1.210  0.5399 -0.6461 -0.2700
  394MOL0     C53067  -0.497   1.789   1.240  0.5234  0.4249 -0.9528
  394MOL0     C53068  -0.411   1.668   1.207  0.4875  0.5123 -0.1103
  394MOL0     C53069  -0.471   1.532   1.240  0.2829  0.0776 -0.0242
  394MOL0     C53070  -0.567   1.501   1.122  0.5103  0.6048 -0.4610
  394MOL0     C53071  -0.607   1.359   1.138 -0.1877  0.4484  0.3478
  394MOL0     N53072  -0.718   1.325   1.050  0.0504 -0.0184 -0.2010
  394MOL0     C53073  -0.854   1.300   1.082 -0.9025  0.2719  0.3990
  394MOL0     C53074  -0.906   1.276   0.957 -0.6175 -0.0979 -0.4669
  394MOL0     C53075  -1.046   1.250   0.922 -0.1441  0.2590 -0.4397
  394MOL0     C53076  -1.146   1.349   0.990  0.9553  0.1704  0.7630
  394MOL0     C53077  -1.287   1.321   0.932 -0.5431  0.4904  0.3500
  394MOL0     C53078  -1.356   1.195   0.983 -0.2984 -0.5255 -0.7201
  394MOL0     O53079  -1.492   1.171   0.930  0.1563 -0.1759  0.4113
  394MOL0     C53080  -1.581   1.105   1.009 -0.1769  0.6316  0.6963
  394MOL0     C53081  -1.717   1.110   0.963 -0.0935 -0.4547  0.8128
  394MOL0     C53082  -1.811   1.033   1.029  0.3326 -0.8095  0.6778
  394MOL0     C53083  -1.953   1.057   0.987  0.4538  0.4838 -0.2414
  394MOL0     C53084  -1.774   0.945   1.134  0.5053 -0.2868 -0.0123
  394MOL0     C53085  -1.868   0.849   1.198 -0.2363 -0.2133 -0.9907
  394MOL0     O53086  -1.997   0.842   1.157 -0.0078 -0.1903 -0.0893
  394MOL0     C53087  -2.085   0.756   1.220 -0.8316 -0.5895  0.3180
  394MOL0     C53088  -2.174   0.678   1.153 -1.1645  0.0724  0.0919
  394MOL0     C53089  -2.279   0.606   1.224  0.2971 -0.3978  0.2825
  394MOL0     C53090  -2.294   0.621   1.358  0.5538  0.1123  0.8245
  394MOL0     O53091  -2.401   0.551   1.420  0.1369 -0.1114  1.2554
  394MOL0     C53092  -2.438   0.574   1.560 -0.5342  0.3657 -0.5246
  394MOL0     C53093  -2.566   0.498   1.591 -0.4010 -0.3767 -0.1473
  394MOL0     C53094  -2.561   0.349   1.599 -0.2376 -0.1262 -0.9538
  394MOL0     C53095  -2.511   0.302   1.730  0.5895  0.1327  0.5543
  394MOL0     C53096  -2.518   0.150   1.734 -0.0154 -0.2548 -0.8241
  394MOL0     C53097  -2.486   0.095   1.875 -0.6072 -0.9479 -0.9021
  394MOL0     C53098  -2.469  -0.054   1.873  1.0651 -0.5594  0.6133
  394MOL0     C53099  -2.605  -0.126   1.852 -0.6708  0.3353  0.0408
  394MOL0    Cl53100  -2.739  -0.061   1.954 -0.0555 -0.2961  0.2010
  394MOL0     C53101  -2.210   0.716   1.425 -0.0161  0.3429 -0.0352
  394MOL0     C53102  -2.105   0.772   1.357 -0.3148  0.3236  0.0485
  394MOL0     O53103  -1.808   0.770   1.281  0.3910 -0.5498  0.1493
  394MOL0     C53104  -1.640   0.947   1.172 -0.3594  1.2333  0.0366
  394MOL0     C53105  -1.547   1.013   1.112 -0.5390  0.5840  0.3118
  394MOL0     N53106  -0.810   1.290   0.859  0.2777  0.1959 -0.2233
  394MOL0     N53107  -0.704   1.331   0.912 -0.5388 -1.4302 -0.4356
  394MOL0     C53108  -0.052   2.279   1.233  0.0599 -0.4229  0.0525
  394MOL0     C53109   0.053   2.357   1.293 -0.1449 -0.6599 -0.2977
  394MOL0     C53110   0.356   2.543   1.598  0.0510  1.3598  1.0603
  394MOL0     C53111   0.354   2.675   1.547 -0.2248  0.2610 -0.4291
  394MOL0     C53112   0.447   2.768   1.598  0.0973  0.4508  1.1032
  394MOL0     C53113   0.538   2.746   1.700  0.8468 -0.6889  0.2677
  394MOL0     O53114   0.614   2.849   1.747  0.2186  0.2797 -0.0122
  394MOL0     C53115   0.708   2.827   1.852  0.8606  0.3470 -0.0274
  394MOL0     C53116   0.767   2.967   1.862 -0.0147 -0.3285  0.7023
  394MOL0     C53117   0.890   2.968   1.954 -0.0068  0.3589  0.7358
  394MOL0     C53118   0.972   3.092   1.933  0.1959 -0.2915 -0.2172
  394MOL0     C53119   1.080   3.107   2.025 -0.4932  0.3285 -0.5693
  394MOL0     C53120   1.148   3.126   2.126 -0.2665  0.2489  0.3494
  394MOL0     C53121   0.535   2.612   1.743 -0.0634 -0.2666 -0.0973
  394MOL0     C53122   0.455   2.509   1.694 -0.8157  0.0213 -0.3909
  394MOL0     H53123  -0.070   2.382   1.601  0.0194  0.5504 -0.2643
  394MOL0     H53124  -0.244   2.231   1.507 -0.9505  0.8194 -0.2489
  394MOL0     H53125  -0.408   2.221   1.379 -0.8813  1.8535 -1.5720
  394MOL0     H53126  -0.439   2.201   1.211  1.0010 -2.3338 -1.7764
  394MOL0     H53127  -0.411   1.976   1.420 -2.6350 -3.4443 -0.0933
  394MOL0     H53128  -0.553   2.033   1.340  0.3627  0.3325 -0.6202
  394MOL0     H53129  -0.448   1.961   1.116  1.5793 -1.4411 -1.0641
  394MOL0     H53130  -0.304   1.900   1.212  0.2791 -2.6405  2.9277
  394MOL0     H53131  -0.526   1.774   1.344 -0.2872 -4.9051 -1.6707
  394MOL0     H53132  -0.588   1.780   1.180 -1.6620 -0.5684  2.2942
  394MOL0     H53133  -0.396   1.672   1.099  1.5745 -3.4223 -0.2448
  394MOL0     H53134  -0.322   1.661   1.270 -0.6895 -2.5446  1.3871
  394MOL0     H53135  -0.389   1.463   1.260  3.8105  4.1422  1.0309
  394MOL0     H53136  -0.534   1.544   1.328 -0.1190 -4.5747  0.5544
  394MOL0     H53137  -0.660   1.558   1.135  0.3618  0.4014 -0.6277
  394MOL0     H53138  -0.518   1.521   1.026 -0.5417  3.3730 -0.5090
  394MOL0     H53139  -0.631   1.336   1.243  0.5616 -0.9687  0.2365
  394MOL0     H53140  -0.523   1.301   1.099  0.0816  1.5609 -0.8036
  394MOL0     H53141  -0.908   1.304   1.176  0.0832 -0.9281  1.0486
  394MOL0     H53142  -1.056   1.248   0.813  1.1587 -0.7101 -0.5753
  394MOL0     H53143  -1.073   1.152   0.961 -0.2513 -0.4532 -2.2126
  394MOL0     H53144  -1.112   1.452   0.973 -2.5964  1.4304  0.4060
  394MOL0     H53145  -1.146   1.335   1.099  0.4310 -1.6224  0.5652
  394MOL0     H53146  -1.284   1.322   0.822 -0.8210  1.1072  0.3393
  394MOL0     H53147  -1.349   1.408   0.957  0.9375  1.5930  0.3696
  394MOL0     H53148  -1.353   1.225   1.088  0.7642  0.1146 -0.9215
  394MOL0     H53149  -1.283   1.116   0.965  4.3157  3.4873 -1.7268
  394MOL0     H53150  -1.742   1.163   0.873  3.0198 -2.7965 -1.6906
  394MOL0     H53151  -2.019   1.052   1.073 -0.5202  0.4873 -0.9723
  394MOL0     H53152  -1.965   1.157   0.945  3.9710  1.0462 -0.2441
  394MOL0     H53153  -1.984   0.985   0.910  2.2427 -0.1450 -0.4284
  394MOL0     H53154  -2.160   0.660   1.047 -3.1810 -2.0288  0.0823
  394MOL0     H53155  -2.334   0.527   1.173  1.3516 -0.7724 -0.2981
  394MOL0     H53156  -2.361   0.544   1.630 -0.6548 -0.1063 -0.5892
  394MOL0     H53157  -2.465   0.680   1.565 -4.2745 -0.4477 -0.1137
  394MOL0     H53158  -2.596   0.534   1.690 -0.7712 -1.7987  0.2781
  394MOL0     H53159  -2.636   0.533   1.515  1.7822 -4.1200 -4.3670
  394MOL0     H53160  -2.493   0.308   1.523  2.7629  1.0848  0.8824
  394MOL0     H53161  -2.666   0.321   1.590 -0.2114 -0.4067 -0.4312
  394MOL0     H53162  -2.412   0.343   1.753  2.2364 -3.8074  1.3000
  394MOL0     H53163  -2.571   0.354   1.805  0.6368 -1.6536  1.9026
  394MOL0     H53164  -2.447   0.108   1.663  2.8959  3.6218 -0.5206
  394MOL0     H53165  -2.622   0.126   1.710 -0.7825  0.3527  1.5738
  394MOL0     H53166  -2.390   0.130   1.912  0.1524 -3.0419 -0.7906
  394MOL0     H53167  -2.562   0.120   1.950 -0.0336  2.0193 -1.1982
  394MOL0     H53168  -2.445  -0.080   1.977  1.4313 -0.1572  0.6322
  394MOL0     H53169  -2.397  -0.093   1.800  0.5164 -0.5990  0.0871
  394MOL0     H53170  -2.599  -0.235   1.858 -1.4124  0.3320  4.5539
  394MOL0     H53171  -2.641  -0.112   1.750  0.9304 -0.2010 -0.6184
  394MOL0     H53172  -2.219   0.733   1.531 -1.1784  0.5929 -0.1606
  394MOL0     H53173  -2.037   0.828   1.420 -0.4224  0.2998  0.1852
  394MOL0     H53174  -1.608   0.891   1.260 -0.9943 -1.0993 -1.1409
  394MOL0     H53175  -1.443   1.014   1.141 -0.0766  2.8902 -1.1747
  394MOL0     H53176  -0.052   2.264   1.125 -2.5290  3.5446 -0.7227
  394MOL0     H53177   0.136   2.395   1.235  0.9990  1.0559  2.2940
  394MOL0     H53178   0.277   2.694   1.473  0.6703  0.5219 -1.3110
  394MOL0     H53179   0.429   2.864   1.552 -0.6277  0.0854  0.5994
  394MOL0     H53180   0.672   2.788   1.947  1.7995 -0.3993  0.0350
  394MOL0     H53181   0.793   2.761   1.834 -1.1734 -2.9607  1.5623
  394MOL0     H53182   0.690   3.039   1.889 -2.1317 -0.6772 -3.5598
  394MOL0     H53183   0.796   2.991   1.760 -3.7377 -2.4223 -1.0591
  394MOL0     H53184   0.948   2.876   1.940  4.4019  3.2522 -2.8619
  394MOL0     H53185   0.860   2.960   2.059  2.3631 -1.0123  1.4096
  394MOL0     H53186   0.908   3.180   1.943 -0.3504 -0.8556  1.7261
  394MOL0     H53187   1.001   3.083   1.828 -1.5543 -0.8724 -0.6790
  394MOL0     H53188   1.216   3.144   2.207  0.1932 -1.3703  0.3513
  394MOL0     H53189   0.617   2.589   1.810  0.6224  0.4762 -0.6602
  394MOL0     H53190   0.470   2.408   1.730  1.5353  0.5999  0.4573
  395MOL0     O53191   6.218  11.330   5.317  0.1078  0.0570  0.3638
  395MOL0     C53192   6.210  11.353   5.196  0.7136 -1.3993  0.1719
  395MOL0     O53193   6.090  11.359   5.132  0.5744  0.1342  0.4158
  395MOL0     C53194   5.977  11.350   5.199  0.3965 -0.1938 -0.3561
  395MOL0     C53195   5.877  11.452   5.182 -0.0855 -0.4471  1.2406
  395MOL0     C53196   5.764  11.446   5.260  0.8566  0.5956  0.2473
  395MOL0     C53197   5.733  11.339   5.344 -0.3099  0.3711  0.2156
  395MOL0     O53198   5.618  11.321   5.421  0.2517  0.3440 -0.0647
  395MOL0     C53199   5.502  11.392   5.388 -0.1359  0.8331 -0.7423
  395MOL0     C53200   5.486  11.501   5.489 -0.4239 -0.4097 -0.2937
  395MOL0     C53201   5.477  11.437   5.630 -0.2399  0.9760  0.6794
  395MOL0     C53202   5.616  11.446   5.692 -0.8390 -0.6878 -0.1432
  395MOL0     C53203   5.609  11.364   5.834  0.0206  0.2009  0.0888
  395MOL0     C53204   5.706  11.422   5.934 -0.2933 -0.1389 -0.5732
  395MOL0     C53205   5.710  11.328   6.053  0.8094 -0.2548  0.1920
  395MOL0     C53206   5.811  11.368   6.166  0.4323 -0.8508  0.4117
  395MOL0     N53207   5.794  11.512   6.199 -0.3240  0.5103 -0.8118
  395MOL0     C53208   5.681  11.571   6.236  1.3094 -0.3816  0.0769
  395MOL0     C53209   5.715  11.705   6.244 -0.2228  0.6659 -0.3080
  395MOL0     C53210   5.610  11.802   6.282 -0.0616 -0.0282  0.5376
  395MOL0     C53211   5.489  11.784   6.195 -0.5310 -0.3302 -0.9963
  395MOL0     C53212   5.513  11.807   6.052  0.1990 -0.8061 -0.3025
  395MOL0     C53213   5.394  11.772   5.975  0.0636 -1.1714  0.1535
  395MOL0     O53214   5.276  11.851   6.013  0.3602 -0.3977 -0.2722
  395MOL0     C53215   5.163  11.871   5.934 -0.3868  0.0970  0.5277
  395MOL0     C53216   5.176  11.893   5.791  0.3737  0.4943 -0.3654
  395MOL0     C53217   5.073  11.931   5.702  0.0545  0.8731 -0.2405
  395MOL0     C53218   5.111  11.954   5.562  0.2970 -0.3629 -0.0266
  395MOL0     C53219   4.941  11.941   5.758 -0.5185  0.3507 -0.3432
  395MOL0     C53220   4.820  11.994   5.686 -0.3335 -0.2957  0.2630
  395MOL0     O53221   4.707  12.017   5.753  0.2169  0.1361 -0.5256
  395MOL0     C53222   4.585  12.025   5.699  0.1032  1.3418 -0.1277
  395MOL0     C53223   4.520  11.909   5.648  0.5270  0.2762  0.0636
  395MOL0     C53224   4.387  11.923   5.606  0.7368 -0.3925  0.0601
  395MOL0     C53225   4.318  12.042   5.614  1.3811 -0.4497 -0.0060
  395MOL0     O53226   4.184  12.031   5.580  0.5389 -0.0477  0.1387
  395MOL0     C53227   4.107  12.150   5.574  0.0743 -0.5033  0.3274
  395MOL0     C53228   3.967  12.104   5.585  0.2715  1.1287  0.3888
  395MOL0     C53229   3.870  12.222   5.571  0.0516  0.8632  0.5195
  395MOL0     C53230   3.850  12.312   5.701  0.7971 -0.8891 -0.4870
  395MOL0     C53231   3.742  12.249   5.801  0.4252  0.6044 -0.3144
  395MOL0     C53232   3.693  12.335   5.924  0.2084 -0.4721 -0.2682
  395MOL0     C53233   3.606  12.258   6.025 -0.3888 -0.6680 -0.0213
  395MOL0     C53234   3.691  12.173   6.128  1.1088  0.0666  0.1260
  395MOL0    Cl53235   3.589  12.062   6.242  0.3996 -0.2346  0.5428
  395MOL0     C53236   4.386  12.153   5.662  1.0723  0.3024  0.8574
  395MOL0     C53237   4.518  12.143   5.700 -0.7295 -0.4454 -0.0252
  395MOL0     O53238   4.834  12.003   5.568 -0.0976 -0.2890  0.2272
  395MOL0     C53239   4.930  11.914   5.897 -0.1372  0.1667  0.3333
  395MOL0     C53240   5.037  11.882   5.982  1.4338  0.3919  0.6546
  395MOL0     N53241   5.843  11.714   6.201 -0.0816  0.3750  0.0726
  395MOL0     N53242   5.898  11.594   6.194  0.7483 -0.1100  0.1616
  395MOL0     C53243   5.831  11.233   5.346 -0.0339 -0.4812 -0.5547
  395MOL0     C53244   5.954  11.234   5.279 -0.0221 -0.4826 -0.0225
  395MOL0     C53245   6.335  11.377   5.131  0.0959 -0.1315  0.8794
  395MOL0     C53246   6.449  11.390   5.211 -0.0279  0.0543  0.2635
  395MOL0     C53247   6.579  11.380   5.164  0.3309  0.2206  0.0880
  395MOL0     C53248   6.594  11.362   5.024  0.2987 -0.3077  0.2510
  395MOL0     O53249   6.711  11.339   4.955  0.3404 -0.0141 -0.5790
  395MOL0     C53250   6.833  11.347   5.032  0.5466 -0.0937 -0.0164
  395MOL0     C53251   6.869  11.215   5.107  0.8365 -0.0754 -0.0809
  395MOL0     C53252   7.022  11.198   5.128 -1.2272  0.1478 -0.0169
  395MOL0     C53253   7.050  11.041   5.157 -0.6505 -1.0402 -0.5706
  395MOL0     C53254   7.193  11.024   5.205  0.0271 -0.7884 -0.1330
  395MOL0     C53255   7.298  11.023   5.268  0.8493 -0.6358 -0.2732
  395MOL0     C53256   6.483  11.373   4.940  0.5545  0.2530  0.2995
  395MOL0     C53257   6.356  11.374   4.990  0.1630  0.5781 -0.0492
  395MOL0     H53258   5.898  11.537   5.117 -0.3449 -0.1606  1.5274
  395MOL0     H53259   5.692  11.527   5.258  4.0866  3.8761  3.1893
  395MOL0     H53260   5.502  11.433   5.286  2.7936  1.0878 -0.7375
  395MOL0     H53261   5.417  11.324   5.393  0.8955 -0.4982 -0.6176
  395MOL0     H53262   5.569  11.573   5.488  0.9559 -1.9213  0.0897
  395MOL0     H53263   5.396  11.557   5.463  1.0231  0.9829 -2.8185
  395MOL0     H53264   5.399  11.490   5.685  1.5240  3.0151  1.3912
  395MOL0     H53265   5.447  11.332   5.622  0.0751  1.0158 -4.5411
  395MOL0     H53266   5.706  11.418   5.637  1.7237  0.0586  3.3239
  395MOL0     H53267   5.640  11.552   5.710 -0.4346 -0.4867 -1.7796
  395MOL0     H53268   5.505  11.359   5.866  0.4570  1.8434  1.9688
  395MOL0     H53269   5.643  11.261   5.820 -0.7318  0.1885 -2.0644
  395MOL0     H53270   5.802  11.412   5.884 -1.4199 -0.8829 -2.6772
  395MOL0     H53271   5.685  11.528   5.954  1.8571  0.2737 -0.2704
  395MOL0     H53272   5.608  11.321   6.092  1.0688 -2.4406  0.5810
  395MOL0     H53273   5.744  11.230   6.019  2.0012  0.6821 -1.4164
  395MOL0     H53274   5.911  11.346   6.127  1.4083  2.0482  1.0765
  395MOL0     H53275   5.799  11.308   6.257 -1.3440 -0.7479  0.2868
  395MOL0     H53276   5.587  11.522   6.256  1.5257 -0.9452 -0.2604
  395MOL0     H53277   5.576  11.784   6.384 -0.4701 -3.1543 -0.0604
  395MOL0     H53278   5.654  11.902   6.275  1.0726 -0.5065  0.6723
  395MOL0     H53279   5.418  11.856   6.235 -2.0223 -3.1677  1.9783
  395MOL0     H53280   5.454  11.685   6.226 -0.7233  0.4475  1.4506
  395MOL0     H53281   5.603  11.757   6.015  1.4485 -0.0948  1.6345
  395MOL0     H53282   5.522  11.915   6.034  1.7895 -0.7862  0.4881
  395MOL0     H53283   5.371  11.666   5.987  0.6580 -1.2474  0.6547
  395MOL0     H53284   5.412  11.783   5.868 -3.4897 -4.0578 -0.9380
  395MOL0     H53285   5.277  11.877   5.755  0.7433  1.4548  0.2075
  395MOL0     H53286   5.212  11.926   5.530  1.2679  1.2609  1.4034
  395MOL0     H53287   5.041  11.889   5.508 -2.2907  0.5751  1.9570
  395MOL0     H53288   5.094  12.057   5.528  0.7163 -0.2167  0.1984
  395MOL0     H53289   4.568  11.812   5.650 -0.5771 -0.5632 -4.2220
  395MOL0     H53290   4.316  11.844   5.583 -1.1778  1.6182 -1.3911
  395MOL0     H53291   4.141  12.187   5.671  0.0465 -0.8597  0.4757
  395MOL0     H53292   4.130  12.211   5.487 -1.7353  0.0923  0.2230
  395MOL0     H53293   3.946  12.033   5.504  0.6209  1.6525 -0.1682
  395MOL0     H53294   3.949  12.059   5.683 -0.3124 -1.3904 -0.7816
  395MOL0     H53295   3.775  12.176   5.545  0.0737  0.7971  0.5560
  395MOL0     H53296   3.897  12.278   5.481 -1.3316  0.2962 -0.2863
  395MOL0     H53297   3.942  12.350   5.746  1.5875 -2.5425 -0.6184
  395MOL0     H53298   3.804  12.408   5.676  0.4164 -1.1763 -0.8974
  395MOL0     H53299   3.795  12.155   5.824 -1.0864 -0.3082 -0.4656
  395MOL0     H53300   3.652  12.220   5.747 -0.8863  2.0599  0.9912
  395MOL0     H53301   3.784  12.375   5.969  1.8289  1.8221 -4.9141
  395MOL0     H53302   3.654  12.434   5.897  3.2578  0.2160 -2.8185
  395MOL0     H53303   3.520  12.206   5.982 -0.8843  0.2143 -0.1295
  395MOL0     H53304   3.554  12.332   6.087  1.0271 -1.2714  2.0189
  395MOL0     H53305   3.730  12.248   6.196 -3.4523 -0.0276  3.2952
  395MOL0     H53306   3.775  12.126   6.076  1.2759  1.7837 -1.2234
  395MOL0     H53307   4.338  12.250   5.673 -0.7495 -0.4371 -0.0413
  395MOL0     H53308   4.557  12.238   5.736 -2.3194 -0.9083  3.2971
  395MOL0     H53309   4.832  11.910   5.944 -0.2195 -1.0135  0.0858
  395MOL0     H53310   4.995  11.876   6.082 -2.8773  1.6936 -0.8728
  395MOL0     H53311   5.799  11.153   5.412 -2.3716  0.3273 -0.6224
  395MOL0     H53312   6.027  11.158   5.303  1.4934  0.5628 -1.1866
  395MOL0     H53313   6.437  11.388   5.319  0.1310 -2.0905  0.2871
  395MOL0     H53314   6.658  11.379   5.239 -1.0857  0.1444  1.6215
  395MOL0     H53315   6.904  11.365   4.950  0.8286  1.0828  0.4666
  395MOL0     H53316   6.834  11.433   5.100 -0.4333  0.0109 -0.1184
  395MOL0     H53317   6.839  11.126   5.051  1.6828 -1.1456  1.1066
  395MOL0     H53318   6.814  11.215   5.202  1.4352  0.6073  0.2684
  395MOL0     H53319   7.059  11.254   5.215 -2.8117 -2.2915  2.3824
  395MOL0     H53320   7.075  11.232   5.039 -1.9659 -0.7399 -0.8159
  395MOL0     H53321   7.032  10.977   5.070  4.6244 -0.2278 -2.6286
  395MOL0     H53322   6.978  11.013   5.234 -1.4389 -0.0862 -0.9264
  395MOL0     H53323   7.391  11.031   5.321  0.8863  1.1806 -0.5267
  395MOL0     H53324   6.496  11.369   4.832 -1.7575 -0.9038  0.0073
  395MOL0     H53325   6.277  11.375   4.915  2.3194  2.4475 -2.4630
  396MOL0     O53326   3.409   0.128   0.629 -0.4514  0.2019 -0.4610
  396MOL0     C53327   3.521   0.122   0.578  0.8687  0.0760 -0.7052
  396MOL0     O53328   3.547   0.106   0.442 -0.1483  0.7107  1.4050
  396MOL0     C53329   3.464   0.124   0.333  0.2055 -0.3738 -0.5138
  396MOL0     C53330   3.505   0.121   0.201 -0.0689 -0.2514  0.2051
  396MOL0     C53331   3.426   0.148   0.088  0.4942  0.1652 -1.0463
  396MOL0     C53332   3.290   0.187   0.111 -0.9366  0.1158  0.1989
  396MOL0     O53333   3.224   0.241   0.002  0.1409 -0.6176 -0.5925
  396MOL0     C53334   3.094   0.285   0.021 -0.5470  0.6733  0.0797
  396MOL0     C53335   2.989   0.175   0.026  0.4116  0.7051 -0.5509
  396MOL0     C53336   2.845   0.212  -0.014 -0.0212 -0.5910 -1.1985
  396MOL0     C53337   2.802   0.366   0.004 -0.9469  0.6154  0.3542
  396MOL0     C53338   2.648   0.369  -0.008  0.9880 -1.0943 -0.5796
  396MOL0     C53339   2.601   0.511   0.032 -0.2880  0.3340 -0.0575
  396MOL0     C53340   2.452   0.503   0.061  0.0714  0.0738  0.3026
  396MOL0     C53341   2.395   0.645   0.054 -1.0265 -0.1770  0.1590
  396MOL0     N53342   2.372   0.718  -0.071 -0.9403  0.3838  0.0277
  396MOL0     C53343   2.399   0.857  -0.084  0.5655  0.0121 -0.6611
  396MOL0     C53344   2.312   0.890  -0.181  0.0079  0.4535 -0.5354
  396MOL0     C53345   2.275   1.031  -0.221  0.1667 -0.0405  0.2052
  396MOL0     C53346   2.141   1.044  -0.297 -0.7214  0.4361  0.9764
  396MOL0     C53347   2.010   1.021  -0.219 -0.4386  0.9572 -0.0215
  396MOL0     C53348   1.968   0.878  -0.176 -0.3309  0.0273  0.5625
  396MOL0     O53349   1.842   0.871  -0.105 -0.2013 -0.5679 -0.2768
  396MOL0     C53350   1.753   0.782  -0.154 -1.0027 -0.1906  0.7337
  396MOL0     C53351   1.682   0.811  -0.278  0.1668  0.2147 -1.1828
  396MOL0     C53352   1.586   0.726  -0.332 -0.3204  1.4839 -0.6736
  396MOL0     C53353   1.517   0.778  -0.455 -0.6401 -0.3549  0.4222
  396MOL0     C53354   1.556   0.604  -0.259 -0.3564 -0.8965 -0.3140
  396MOL0     C53355   1.464   0.497  -0.308  0.0816  0.7151 -0.3453
  396MOL0     O53356   1.401   0.521  -0.423 -0.2880  0.3772 -0.1802
  396MOL0     C53357   1.265   0.492  -0.436 -0.3498 -0.1707 -0.9562
  396MOL0     C53358   1.182   0.427  -0.352 -0.2504  0.3720 -0.3710
  396MOL0     C53359   1.069   0.349  -0.397 -0.2311 -0.5557  0.0646
  396MOL0     C53360   1.029   0.361  -0.531  0.2922  0.2546 -0.7009
  396MOL0     O53361   0.916   0.298  -0.572 -0.2369 -0.2141  0.1257
  396MOL0     C53362   0.881   0.305  -0.709 -0.2102 -0.3548 -0.4830
  396MOL0     C53363   0.768   0.216  -0.737  0.3488  1.1057 -0.1512
  396MOL0     C53364   0.800   0.067  -0.710  0.2766  0.4816 -0.2586
  396MOL0     C53365   0.679  -0.021  -0.726 -0.1317 -0.0462 -0.4089
  396MOL0     C53366   0.705  -0.171  -0.698  0.3006  0.2962 -0.6031
  396MOL0     C53367   0.594  -0.254  -0.766 -0.0246 -0.1813  0.4062
  396MOL0     C53368   0.606  -0.406  -0.736  0.3815 -0.0673  0.1432
  396MOL0     C53369   0.486  -0.486  -0.796  0.9213 -0.1057  0.1608
  396MOL0    Cl53370   0.326  -0.414  -0.756 -0.1274 -0.0933 -0.5428
  396MOL0     C53371   1.112   0.446  -0.608 -1.3018  0.5915  1.1860
  396MOL0     C53372   1.230   0.501  -0.569 -0.1171 -0.6445 -1.4488
  396MOL0     O53373   1.442   0.400  -0.232  0.4642  0.5650  0.5531
  396MOL0     C53374   1.632   0.571  -0.140 -0.3200 -0.5108  0.6278
  396MOL0     C53375   1.730   0.662  -0.088  0.1727 -0.6010 -0.3035
  396MOL0     N53376   2.262   0.776  -0.239  0.3458 -0.6087 -0.1334
  396MOL0     N53377   2.283   0.674  -0.168 -0.1784  0.7939  0.0833
  396MOL0     C53378   3.241   0.183   0.240  0.3132 -0.9082 -0.0433
  396MOL0     C53379   3.324   0.146   0.354  0.0203  0.3097  0.8475
  396MOL0     C53380   3.635   0.141   0.671  0.4469  0.3899 -1.0258
  396MOL0     C53381   3.618   0.216   0.786 -0.2691 -0.4727 -0.4650
  396MOL0     C53382   3.718   0.226   0.879  0.2010 -0.0940 -0.1366
  396MOL0     C53383   3.852   0.190   0.842  1.0077  0.1793  0.2769
  396MOL0     O53384   3.952   0.218   0.925 -0.3570  0.0173  0.3351
  396MOL0     C53385   4.083   0.156   0.904  0.6495 -0.7019  0.9435
  396MOL0     C53386   4.175   0.233   0.802 -0.4955 -0.7116 -0.4197
  396MOL0     C53387   4.125   0.384   0.797  0.5203  0.1963 -0.8389
  396MOL0     C53388   4.066   0.423   0.660 -0.6046  0.1162  0.4543
  396MOL0     C53389   4.190   0.441   0.568  0.3170  0.3305  0.6294
  396MOL0     C53390   4.291   0.479   0.508  0.3438 -1.0871  0.1764
  396MOL0     C53391   3.864   0.125   0.724  0.1093  0.3812  0.3759
  396MOL0     C53392   3.761   0.095   0.640 -0.2975  0.2831 -0.3733
  396MOL0     H53393   3.608   0.094   0.179 -0.7027 -2.4011 -0.3998
  396MOL0     H53394   3.467   0.174  -0.009 -0.0864  0.1855 -1.2919
  396MOL0     H53395   3.093   0.362   0.099 -0.8704  0.3591  0.3893
  396MOL0     H53396   3.064   0.346  -0.065 -3.1980 -1.0108 -0.3011
  396MOL0     H53397   3.017   0.098  -0.047 -1.4994  0.2458 -0.8601
  396MOL0     H53398   2.983   0.126   0.124 -0.7426 -2.2205 -1.9704
  396MOL0     H53399   2.844   0.188  -0.120 -2.5887 -0.6803 -1.2168
  396MOL0     H53400   2.776   0.144   0.038 -1.0228  1.1383 -0.1446
  396MOL0     H53401   2.824   0.400   0.106 -2.6781 -0.1261  1.0196
  396MOL0     H53402   2.849   0.439  -0.062 -0.6981  2.1740  2.1643
  396MOL0     H53403   2.612   0.332  -0.104 -1.9733 -2.5120  0.9281
  396MOL0     H53404   2.604   0.302   0.067 -0.7601 -0.2215 -0.7715
  396MOL0     H53405   2.657   0.532   0.124 -0.2863 -1.6323  0.4472
  396MOL0     H53406   2.623   0.571  -0.057 -0.2035 -2.5118 -2.1259
  396MOL0     H53407   2.403   0.434  -0.009 -0.0063 -0.5158  0.9201
  396MOL0     H53408   2.450   0.474   0.167  1.1821  2.8884  1.1727
  396MOL0     H53409   2.471   0.703   0.106 -2.4056 -0.9122  3.1830
  396MOL0     H53410   2.310   0.641   0.123 -2.7273 -2.8324 -1.8633
  396MOL0     H53411   2.473   0.918  -0.034 -0.0180  1.0472 -1.0230
  396MOL0     H53412   2.286   1.084  -0.126 -2.2987 -2.1516  1.7975
  396MOL0     H53413   2.359   1.072  -0.278  1.9576  0.9060  3.2579
  396MOL0     H53414   2.148   0.980  -0.385 -3.0510  3.9162 -2.0532
  396MOL0     H53415   2.136   1.150  -0.325 -1.3906  0.7165  2.0774
  396MOL0     H53416   1.929   1.059  -0.281 -1.2538  2.1165  1.6522
  396MOL0     H53417   2.018   1.089  -0.133 -0.7532  0.8900  0.0610
  396MOL0     H53418   2.036   0.841  -0.100  1.1159 -0.9439 -1.1340
  396MOL0     H53419   1.975   0.804  -0.257  2.2400  0.9861 -0.1926
  396MOL0     H53420   1.687   0.914  -0.311  2.5681  0.8905  0.9745
  396MOL0     H53421   1.519   0.704  -0.536  1.6987 -1.0587  1.0389
  396MOL0     H53422   1.414   0.811  -0.439 -0.0929  2.6975 -1.5338
  396MOL0     H53423   1.572   0.867  -0.487  2.2008 -2.1789 -0.1658
  396MOL0     H53424   1.198   0.433  -0.245  2.6106  3.4586 -0.7777
  396MOL0     H53425   1.007   0.298  -0.323  0.4731 -0.6987  0.5676
  396MOL0     H53426   0.842   0.407  -0.719 -2.4528 -0.8672  1.8534
  396MOL0     H53427   0.972   0.294  -0.770  0.1591  0.3021 -0.0648
  396MOL0     H53428   0.689   0.245  -0.668 -1.5684 -1.2124 -1.2152
  396MOL0     H53429   0.729   0.221  -0.839  1.1407 -1.9049 -0.6971
  396MOL0     H53430   0.828   0.058  -0.605  2.1843  1.6603 -0.6157
  396MOL0     H53431   0.882   0.024  -0.768 -0.2433  1.6648 -1.9426
  396MOL0     H53432   0.599   0.012  -0.659  0.8336  0.6795  0.4208
  396MOL0     H53433   0.634  -0.013  -0.825 -1.4460  2.8342  0.3060
  396MOL0     H53434   0.706  -0.168  -0.588  1.8991  2.3708 -0.6156
  396MOL0     H53435   0.802  -0.209  -0.731  0.6634 -2.4618  2.9773
  396MOL0     H53436   0.494  -0.229  -0.729 -0.4961 -2.0165  0.4510
  396MOL0     H53437   0.597  -0.242  -0.875 -0.3137  2.0931  0.6036
  396MOL0     H53438   0.611  -0.418  -0.627  3.3209  1.3106  0.2742
  396MOL0     H53439   0.696  -0.446  -0.783 -0.8117 -1.7809 -0.8178
  396MOL0     H53440   0.487  -0.583  -0.746 -2.5434  0.1346  0.9451
  396MOL0     H53441   0.503  -0.496  -0.904  1.1279  1.3550  0.0476
  396MOL0     H53442   1.079   0.457  -0.711  3.6256 -1.0570 -0.8699
  396MOL0     H53443   1.292   0.562  -0.633  1.4363 -1.1330 -0.4702
  396MOL0     H53444   1.613   0.477  -0.088  1.8559 -0.9035  0.7845
  396MOL0     H53445   1.784   0.630   0.000  0.5380  3.1380  1.0139
  396MOL0     H53446   3.136   0.209   0.252  0.6766  1.9606 -2.1108
  396MOL0     H53447   3.278   0.147   0.452 -0.6179  0.9266  0.5548
  396MOL0     H53448   3.519   0.258   0.804 -0.0220 -0.5867  1.2812
  396MOL0     H53449   3.709   0.276   0.975  3.4008 -0.9704  0.7429
  396MOL0     H53450   4.137   0.174   0.997 -2.2612  0.8871  2.4780
  396MOL0     H53451   4.091   0.049   0.880 -2.4650 -0.4189 -2.2660
  396MOL0     H53452   4.167   0.179   0.708 -0.1322 -1.6084  0.0573
  396MOL0     H53453   4.283   0.231   0.821  0.0065 -2.3531 -3.0875
  396MOL0     H53454   4.209   0.453   0.802  0.1686  0.6948 -1.5607
  396MOL0     H53455   4.062   0.414   0.882  1.9781  0.1372  0.2903
  396MOL0     H53456   4.006   0.515   0.667  2.4139  2.2918 -0.0530
  396MOL0     H53457   3.998   0.345   0.625 -0.9172 -0.7172  2.7449
  396MOL0     H53458   4.385   0.515   0.471  1.7135  0.2696  4.3458
  396MOL0     H53459   3.963   0.092   0.693  0.0856 -0.8022  1.4499
  396MOL0     H53460   3.772   0.046   0.543 -1.7081  2.9043 -1.9818
  397MOL0     O53461   6.553   9.443  10.114  0.5850 -0.1148 -0.2206
  397MOL0     C53462   6.535   9.524  10.208 -0.3971 -0.4479 -0.0739
  397MOL0     O53463   6.434   9.614  10.216  0.4564  0.3460 -0.0090
  397MOL0     C53464   6.347   9.643  10.111  0.3786 -0.9165  0.0600
  397MOL0     C53465   6.232   9.701  10.159  0.9897  0.4291 -0.2116
  397MOL0     C53466   6.140   9.751  10.059 -1.2237 -0.1977  0.1519
  397MOL0     C53467   6.184   9.744   9.919  1.0203 -0.9746 -0.0431
  397MOL0     O53468   6.094   9.804   9.826 -0.3380 -0.0864 -0.2634
  397MOL0     C53469   5.969   9.734   9.793  0.4143 -0.8368 -0.3218
  397MOL0     C53470   5.909   9.753   9.651  0.3468 -1.0152  0.0368
  397MOL0     C53471   5.787   9.672   9.620  0.0453 -0.6640  0.4464
  397MOL0     C53472   5.669   9.706   9.726  0.8946 -0.1702  0.1256
  397MOL0     C53473   5.529   9.682   9.668  0.5077 -0.0892 -0.2303
  397MOL0     C53474   5.412   9.741   9.748  0.2859  0.0694  0.2290
  397MOL0     C53475   5.284   9.673   9.695  0.1164 -0.6017 -0.4995
  397MOL0     C53476   5.247   9.732   9.564 -0.6416 -0.0555  0.5187
  397MOL0     N53477   5.116   9.693   9.523  0.5434  0.4877 -0.1486
  397MOL0     C53478   5.002   9.738   9.590 -0.4996  0.5825 -0.6795
  397MOL0     C53479   4.897   9.660   9.551 -0.4531 -0.5425 -0.2328
  397MOL0     C53480   4.748   9.670   9.593  0.2522  0.6347  0.1560
  397MOL0     C53481   4.689   9.522   9.623 -0.6017 -0.6318 -0.1672
  397MOL0     C53482   4.540   9.525   9.662 -0.5920  0.3561 -0.5050
  397MOL0     C53483   4.505   9.387   9.724 -0.1575 -0.8522 -0.2885
  397MOL0     O53484   4.362   9.391   9.722  0.3774  0.0171  0.6068
  397MOL0     C53485   4.298   9.284   9.778  0.4445  0.2368  0.6724
  397MOL0     C53486   4.336   9.154   9.774 -0.3345  0.0275 -0.6570
  397MOL0     C53487   4.256   9.049   9.828  0.3777  0.0131 -0.3199
  397MOL0     C53488   4.309   8.918   9.792  0.4373  0.3090  0.5182
  397MOL0     C53489   4.148   9.069   9.913  0.5799  0.5662  0.3665
  397MOL0     C53490   4.095   8.968  10.001 -0.8346 -0.3359  0.8191
  397MOL0     O53491   4.182   8.875  10.067 -0.0616 -0.0302 -0.6265
  397MOL0     C53492   4.141   8.759  10.114  0.1046  0.9088  0.1395
  397MOL0     C53493   4.014   8.739  10.182 -1.6566 -0.2442 -0.8101
  397MOL0     C53494   3.991   8.614  10.246 -0.7282 -0.4313  0.9350
  397MOL0     C53495   4.089   8.514  10.242 -0.4826  0.7102  0.0055
  397MOL0     O53496   4.064   8.395  10.299 -0.3554  1.3484  0.1260
  397MOL0     C53497   4.154   8.364  10.406 -0.2770  0.2586  0.1364
  397MOL0     C53498   4.073   8.293  10.514 -0.0516  0.6444  0.5642
  397MOL0     C53499   3.944   8.378  10.551 -0.6764  0.0471  1.2665
  397MOL0     C53500   3.879   8.334  10.688 -0.0299  0.7079  0.4228
  397MOL0     C53501   3.796   8.205  10.681  0.3340 -0.3658 -1.3916
  397MOL0     C53502   3.720   8.191  10.819  0.1487  0.0975  0.0691
  397MOL0     C53503   3.580   8.247  10.809  1.0677 -0.7868 -0.2002
  397MOL0     C53504   3.479   8.149  10.765 -0.0374  0.6667 -0.0933
  397MOL0    Cl53505   3.324   8.242  10.729 -0.1370 -0.7906 -0.0766
  397MOL0     C53506   4.217   8.535  10.182  0.0921  0.8024  0.0708
  397MOL0     C53507   4.240   8.659  10.124 -0.1190 -0.0071  0.5282
  397MOL0     O53508   3.971   8.957   9.985 -0.8368  0.6032 -0.4146
  397MOL0     C53509   4.104   9.209   9.921 -0.8083 -0.8608 -0.6275
  397MOL0     C53510   4.185   9.307   9.852  0.5472  0.3940  0.6627
  397MOL0     N53511   4.953   9.559   9.474  0.0721  0.0969 -0.9829
  397MOL0     N53512   5.081   9.578   9.463  0.7685  0.3715  0.6766
  397MOL0     C53513   6.295   9.677   9.880 -0.7147  0.1377  1.1306
  397MOL0     C53514   6.385   9.630   9.976 -0.1602 -0.1215 -0.6500
  397MOL0     C53515   6.640   9.524  10.317 -0.2918  0.3312 -0.2384
  397MOL0     C53516   6.640   9.611  10.426 -0.6672 -0.2142  0.8167
  397MOL0     C53517   6.736   9.605  10.524 -1.3235  0.7428  0.2992
  397MOL0     C53518   6.832   9.505  10.517 -0.2558 -0.5198  0.9912
  397MOL0     O53519   6.942   9.492  10.610  0.2781  0.0402  0.3717
  397MOL0     C53520   6.922   9.542  10.744 -0.1157 -0.5494  1.2099
  397MOL0     C53521   7.039   9.481  10.823  0.2412 -1.3086  0.0094
  397MOL0     C53522   7.175   9.542  10.784 -0.1040  0.1799  0.0942
  397MOL0     C53523   7.299   9.444  10.799 -0.8483  0.0783  0.3623
  397MOL0     C53524   7.385   9.467  10.920  0.4932  0.4127  0.4510
  397MOL0     C53525   7.451   9.504  11.011  0.7810  0.2454  0.2427
  397MOL0     C53526   6.845   9.431  10.399  0.4655 -0.3087 -0.3893
  397MOL0     C53527   6.744   9.430  10.309 -0.0182 -0.1967  0.8788
  397MOL0     H53528   6.210   9.707  10.265 -1.7217 -0.8377 -0.6028
  397MOL0     H53529   6.045   9.796  10.084 -1.9411 -2.6272  2.1652
  397MOL0     H53530   5.986   9.628   9.814  0.2905 -0.4915  1.7179
  397MOL0     H53531   5.900   9.768   9.871  3.6805  0.7965  2.1375
  397MOL0     H53532   5.903   9.862   9.649  2.1719 -0.7877  2.3538
  397MOL0     H53533   5.984   9.718   9.579 -1.1918 -3.8744 -0.3257
  397MOL0     H53534   5.757   9.684   9.516 -0.2482  0.3787  0.6327
  397MOL0     H53535   5.813   9.568   9.641  1.3509  0.2070  3.9391
  397MOL0     H53536   5.695   9.652   9.818 -1.0087 -1.7616 -0.1988
  397MOL0     H53537   5.670   9.812   9.752 -2.8793 -0.0846  0.4920
  397MOL0     H53538   5.527   9.715   9.564  0.1279 -3.8257 -1.5817
  397MOL0     H53539   5.506   9.575   9.670  2.5842 -0.5960 -0.3695
  397MOL0     H53540   5.433   9.730   9.855 -2.1040  0.5291  0.8130
  397MOL0     H53541   5.414   9.849   9.729  1.6269  0.0149 -0.0078
  397MOL0     H53542   5.289   9.564   9.699  1.3244 -0.5791 -0.7308
  397MOL0     H53543   5.201   9.698   9.761  2.1415  0.0015  1.9916
  397MOL0     H53544   5.315   9.689   9.490 -0.9474 -0.3224  0.3892
  397MOL0     H53545   5.255   9.841   9.570  1.6868 -0.2385  2.1410
  397MOL0     H53546   5.009   9.819   9.662 -0.6133  1.1214 -1.2701
  397MOL0     H53547   4.742   9.730   9.685  0.6344 -0.7139  1.0904
  397MOL0     H53548   4.691   9.719   9.513  0.9766  2.2439  0.5784
  397MOL0     H53549   4.733   9.486   9.716  0.9443  0.1310 -0.5810
  397MOL0     H53550   4.712   9.446   9.548  0.8488 -3.7950  3.1997
  397MOL0     H53551   4.478   9.536   9.573 -2.0707 -3.5269 -0.1323
  397MOL0     H53552   4.511   9.599   9.738  1.8817 -0.9957  1.9168
  397MOL0     H53553   4.544   9.393   9.826  3.3835  1.8655 -1.5805
  397MOL0     H53554   4.545   9.305   9.664 -0.1766 -0.5831 -0.6685
  397MOL0     H53555   4.419   9.127   9.709  1.4575  0.3349  1.3880
  397MOL0     H53556   4.366   8.922   9.699 -2.5690  0.2285 -1.4917
  397MOL0     H53557   4.374   8.880   9.872 -1.3961 -0.2412  1.8405
  397MOL0     H53558   4.232   8.842   9.773  2.3593 -1.0852 -2.2852
  397MOL0     H53559   3.934   8.812  10.186 -1.3842  0.1775 -2.5217
  397MOL0     H53560   3.898   8.600  10.300 -1.2542 -0.2694  0.0814
  397MOL0     H53561   4.240   8.308  10.368  0.5555  1.7873 -0.3026
  397MOL0     H53562   4.188   8.456  10.455  0.1666 -0.2564  0.8268
  397MOL0     H53563   4.049   8.195  10.474  0.0521  0.1277  1.7268
  397MOL0     H53564   4.138   8.268  10.599  0.2826  0.3605  0.2280
  397MOL0     H53565   3.869   8.368  10.471  0.9913  2.3979 -0.7393
  397MOL0     H53566   3.975   8.483  10.544  1.3099 -0.3901  2.9099
  397MOL0     H53567   3.961   8.323  10.761 -0.9589 -1.5990  1.2060
  397MOL0     H53568   3.820   8.419  10.721 -1.0639 -0.4129  1.5749
  397MOL0     H53569   3.863   8.123  10.653  2.1636  0.7174 -0.4303
  397MOL0     H53570   3.721   8.211  10.602  0.6190 -1.5990 -1.7737
  397MOL0     H53571   3.716   8.090  10.860 -2.1061  0.0945 -0.0233
  397MOL0     H53572   3.777   8.251  10.890  1.2559  0.1688 -0.8518
  397MOL0     H53573   3.578   8.337  10.748  2.5058 -0.2299  0.5379
  397MOL0     H53574   3.547   8.283  10.907 -0.1306 -1.8860 -0.1737
  397MOL0     H53575   3.454   8.077  10.843  1.0049  1.2288  0.7871
  397MOL0     H53576   3.507   8.091  10.676 -3.8399 -2.3081  0.3986
  397MOL0     H53577   4.289   8.454  10.177 -1.3704 -0.4894 -1.1081
  397MOL0     H53578   4.338   8.683  10.084  0.1050  0.0626  1.1011
  397MOL0     H53579   4.019   9.222   9.987  0.4463  0.5376  0.7806
  397MOL0     H53580   4.157   9.412   9.854  0.4620  0.4684 -1.8303
  397MOL0     H53581   6.306   9.671   9.772 -1.3242 -5.2287  1.1112
  397MOL0     H53582   6.488   9.616   9.942  0.6972  2.4706  0.6146
  397MOL0     H53583   6.558   9.682  10.423 -1.8495 -1.5519 -1.9665
  397MOL0     H53584   6.739   9.678  10.605  0.1410  0.6573  0.3520
  397MOL0     H53585   6.926   9.649  10.722  0.1101 -1.3753 -4.1327
  397MOL0     H53586   6.828   9.512  10.791  0.2498 -0.7892  1.8085
  397MOL0     H53587   7.029   9.374  10.807 -2.7699 -0.9067 -1.4450
  397MOL0     H53588   7.029   9.504  10.929 -0.7661 -1.8519  0.0451
  397MOL0     H53589   7.191   9.636  10.838 -0.3957  0.5938 -0.5214
  397MOL0     H53590   7.175   9.571  10.678  1.6090 -1.2321 -0.3461
  397MOL0     H53591   7.361   9.475  10.713 -2.3298 -1.6981 -1.4485
  397MOL0     H53592   7.270   9.342  10.772 -3.8902  0.1839  2.6976
  397MOL0     H53593   7.491   9.551  11.099  1.9421 -2.2792  1.1419
  397MOL0     H53594   6.930   9.363  10.399  0.6741 -0.0847 -2.0855
  397MOL0     H53595   6.750   9.365  10.222 -0.9975  3.1701 -1.9144
  398MOL0     O53596   0.604   7.611   4.845 -0.2131 -0.5551 -0.2949
  398MOL0     C53597   0.669   7.707   4.891  0.0078 -0.3919 -0.0339
  398MOL0     O53598   0.633   7.792   4.993 -0.2078  0.6087  0.2163
  398MOL0     C53599   0.545   7.736   5.080 -0.2385 -0.0548 -0.3749
  398MOL0     C53600   0.580   7.621   5.156 -0.1373 -0.2128  0.4607
  398MOL0     C53601   0.489   7.549   5.242  0.5824 -0.8376  0.5851
  398MOL0     C53602   0.361   7.611   5.267  0.4156  0.0019  0.4186
  398MOL0     O53603   0.278   7.542   5.352 -0.0875  0.0951  0.0501
  398MOL0     C53604   0.205   7.629   5.443  0.3582 -0.3088 -0.1328
  398MOL0     C53605   0.163   7.559   5.567 -0.6565 -0.2014  0.5670
  398MOL0     C53606   0.111   7.634   5.680  0.6724  0.1159 -0.2254
  398MOL0     C53607   0.109   7.557   5.810  0.1256 -0.0211 -0.5637
  398MOL0     C53608   0.239   7.512   5.870  0.1139 -0.2611 -0.5514
  398MOL0     C53609   0.237   7.458   6.015  0.3480  0.0329  1.4531
  398MOL0     C53610   0.384   7.416   6.054  0.5850  0.2107  0.2652
  398MOL0     C53611   0.385   7.379   6.199 -0.3751  0.0634  0.2921
  398MOL0     N53612   0.521   7.353   6.246 -0.0037  1.2021 -0.5893
  398MOL0     C53613   0.610   7.444   6.296 -0.0552  0.7118  0.0187
  398MOL0     C53614   0.725   7.375   6.312 -0.6360 -0.5483  0.4756
  398MOL0     C53615   0.862   7.442   6.350 -0.8834 -0.2696  0.8027
  398MOL0     C53616   0.864   7.464   6.500  0.1333  0.2588  0.1676
  398MOL0     C53617   0.774   7.590   6.538 -0.7639 -0.6990  0.1753
  398MOL0     C53618   0.831   7.671   6.657 -0.3201 -0.5774 -0.3922
  398MOL0     O53619   0.740   7.759   6.728  1.0484  0.2832 -1.1557
  398MOL0     C53620   0.777   7.828   6.841  0.0949  0.8291  0.1534
  398MOL0     C53621   0.684   7.910   6.894 -0.1634 -0.0662 -0.1088
  398MOL0     C53622   0.691   7.980   7.017  0.0275 -0.4222 -0.6610
  398MOL0     C53623   0.577   8.071   7.069 -0.6422  0.0084 -0.0700
  398MOL0     C53624   0.818   7.964   7.084 -0.5696 -0.9475  0.3448
  398MOL0     C53625   0.846   8.022   7.225  0.2218  0.2008 -0.1245
  398MOL0     O53626   0.916   7.943   7.305 -0.0975 -0.6320 -0.3379
  398MOL0     C53627   0.973   7.991   7.426 -0.2920  0.1857 -0.3477
  398MOL0     C53628   1.108   7.979   7.438 -0.7971 -0.0465 -0.1552
  398MOL0     C53629   1.182   8.024   7.548  0.3676 -0.5386 -0.8844
  398MOL0     C53630   1.112   8.084   7.650  0.1224 -0.4652  0.2558
  398MOL0     O53631   1.173   8.132   7.762 -0.1842  0.8225  0.5950
  398MOL0     C53632   1.284   8.218   7.734 -0.1980 -0.1549 -0.3196
  398MOL0     C53633   1.356   8.248   7.865 -0.6571 -1.5567  0.5488
  398MOL0     C53634   1.410   8.134   7.952  0.5469 -0.0344 -0.5808
  398MOL0     C53635   1.468   8.190   8.083  0.3546 -0.5731  0.5005
  398MOL0     C53636   1.568   8.101   8.154  0.1464  0.2525  0.2141
  398MOL0     C53637   1.585   8.159   8.292  0.3910 -1.1421 -0.0633
  398MOL0     C53638   1.677   8.087   8.383 -0.2324 -0.6219  0.3771
  398MOL0     C53639   1.640   8.108   8.529 -0.1915  0.3138  0.0297
  398MOL0    Cl53640   1.547   7.964   8.588 -0.3210  0.0060  0.3417
  398MOL0     C53641   0.975   8.094   7.648  0.2450 -0.5591 -0.4401
  398MOL0     C53642   0.904   8.056   7.529  0.0727  0.4092 -0.3673
  398MOL0     O53643   0.806   8.135   7.254 -0.7158 -0.6544 -0.1533
  398MOL0     C53644   0.924   7.885   7.028  0.3599  0.1474  0.0775
  398MOL0     C53645   0.902   7.816   6.905 -0.8349  0.5008 -0.5540
  398MOL0     N53646   0.709   7.242   6.288 -0.4669  0.3037 -0.3874
  398MOL0     N53647   0.592   7.231   6.242 -0.3575  0.9079  0.3493
  398MOL0     C53648   0.324   7.713   5.190  0.4948 -0.8600 -0.0433
  398MOL0     C53649   0.418   7.793   5.109  1.0857 -0.1483 -0.1521
  398MOL0     C53650   0.800   7.731   4.837  0.4159 -0.9528 -0.2105
  398MOL0     C53651   0.878   7.621   4.779  0.4267  0.0143 -0.1620
  398MOL0     C53652   1.012   7.645   4.751 -0.5652  0.1313 -0.2718
  398MOL0     C53653   1.079   7.766   4.785 -0.1014  0.7617  0.1663
  398MOL0     O53654   1.217   7.786   4.754  0.9385  0.0844 -0.6257
  398MOL0     C53655   1.252   7.739   4.625 -0.1633 -0.2651 -0.3723
  398MOL0     C53656   1.401   7.719   4.617 -0.5964 -0.6526 -0.4060
  398MOL0     C53657   1.497   7.849   4.580  0.4306 -0.0839 -0.1303
  398MOL0     C53658   1.503   7.974   4.670 -0.0092 -0.9714 -0.8684
  398MOL0     C53659   1.383   8.053   4.673 -0.3668 -0.6047  0.8457
  398MOL0     C53660   1.271   8.094   4.687  0.0830 -1.0307 -0.8578
  398MOL0     C53661   1.004   7.876   4.828  0.3841 -0.0598 -1.7915
  398MOL0     C53662   0.872   7.849   4.860  0.3108 -0.1571  0.0153
  398MOL0     H53663   0.679   7.579   5.144 -0.6016 -1.3152  0.3301
  398MOL0     H53664   0.522   7.459   5.292 -1.8316 -3.6333 -2.4096
  398MOL0     H53665   0.267   7.714   5.473  2.4220 -1.0859 -1.9208
  398MOL0     H53666   0.116   7.674   5.398 -0.7491 -1.0150  1.2864
  398MOL0     H53667   0.084   7.488   5.540 -1.6679  1.6709 -1.7551
  398MOL0     H53668   0.260   7.522   5.602 -1.5244 -1.4754  1.7421
  398MOL0     H53669   0.163   7.730   5.686  0.4262  0.2092  0.5340
  398MOL0     H53670   0.005   7.653   5.662  0.8436  0.9631 -0.3895
  398MOL0     H53671   0.059   7.619   5.885 -1.5357 -1.5048 -0.3874
  398MOL0     H53672   0.039   7.473   5.797 -0.8688  0.5556  0.7686
  398MOL0     H53673   0.287   7.446   5.797 -0.9732  1.1781 -2.7000
  398MOL0     H53674   0.297   7.605   5.885  1.4415 -1.3398  1.3969
  398MOL0     H53675   0.209   7.539   6.083  0.0647  1.3661 -0.1867
  398MOL0     H53676   0.171   7.371   6.022  0.8490 -0.2742  2.5980
  398MOL0     H53677   0.413   7.328   5.996 -2.3895 -1.9934  1.8364
  398MOL0     H53678   0.450   7.501   6.032  0.6449  0.5376  1.6378
  398MOL0     H53679   0.331   7.285   6.216 -0.5729  0.1945  0.3908
  398MOL0     H53680   0.333   7.459   6.252  0.5839 -0.0790  1.4824
  398MOL0     H53681   0.597   7.550   6.317  0.8007  1.3020 -2.0892
  398MOL0     H53682   0.947   7.385   6.312  0.6678  1.7454  1.0969
  398MOL0     H53683   0.862   7.543   6.308 -2.2120 -0.4644  0.2829
  398MOL0     H53684   0.967   7.477   6.536  0.4285 -2.2773  0.4446
  398MOL0     H53685   0.820   7.371   6.537 -0.4568 -0.8991 -3.1232
  398MOL0     H53686   0.671   7.554   6.546 -1.4312 -0.5485 -4.7649
  398MOL0     H53687   0.773   7.656   6.451  0.2179 -0.9365 -0.0193
  398MOL0     H53688   0.915   7.729   6.617 -0.3909 -1.5629 -2.0728
  398MOL0     H53689   0.877   7.593   6.719  0.4998 -1.0572 -1.5664
  398MOL0     H53690   0.589   7.910   6.842 -0.7035 -2.0502  0.7671
  398MOL0     H53691   0.485   8.011   7.074 -1.5793  0.9912 -3.1314
  398MOL0     H53692   0.598   8.122   7.163  2.2962 -0.7904 -0.1858
  398MOL0     H53693   0.567   8.150   6.993  0.0394 -0.2246 -0.4079
  398MOL0     H53694   1.165   7.928   7.361  1.3466 -0.3033  1.4949
  398MOL0     H53695   1.288   8.001   7.552  0.3054 -1.0109 -1.6612
  398MOL0     H53696   1.352   8.163   7.669  1.3105 -0.9203  1.8117
  398MOL0     H53697   1.269   8.314   7.683  2.3632 -0.8101 -2.5333
  398MOL0     H53698   1.435   8.319   7.840 -1.9845  0.3009  1.4676
  398MOL0     H53699   1.293   8.307   7.931 -1.9839 -1.6085 -0.6211
  398MOL0     H53700   1.486   8.069   7.908  2.5519  2.2144 -0.6655
  398MOL0     H53701   1.321   8.073   7.969  1.2252 -0.5356  1.3446
  398MOL0     H53702   1.525   8.279   8.053  2.1132 -1.3337  1.4346
  398MOL0     H53703   1.383   8.230   8.140 -0.5077 -0.5827 -0.7605
  398MOL0     H53704   1.664   8.110   8.102 -0.1189  0.8196 -0.1903
  398MOL0     H53705   1.531   7.998   8.156  2.1157 -0.5545 -1.3490
  398MOL0     H53706   1.623   8.261   8.282 -0.7758 -0.8337 -1.8181
  398MOL0     H53707   1.486   8.168   8.338  0.6822  0.2175  0.3353
  398MOL0     H53708   1.777   8.128   8.366 -1.4529  2.0469 -1.1709
  398MOL0     H53709   1.690   7.981   8.360  3.7786  0.0305 -1.3155
  398MOL0     H53710   1.591   8.204   8.545 -2.6812 -0.3600 -2.7668
  398MOL0     H53711   1.729   8.115   8.593  0.3115  3.7251 -0.8684
  398MOL0     H53712   0.930   8.136   7.737  2.2884 -2.2062  1.4846
  398MOL0     H53713   0.800   8.082   7.512 -1.4325 -3.0839  2.1053
  398MOL0     H53714   1.017   7.865   7.080 -0.6227  2.9006  3.2821
  398MOL0     H53715   0.965   7.741   6.859 -1.1086 -0.0130 -0.1015
  398MOL0     H53716   0.229   7.761   5.212  0.1885 -0.2262 -2.4544
  398MOL0     H53717   0.389   7.891   5.073 -0.6865  0.3086  2.2376
  398MOL0     H53718   0.839   7.522   4.763  0.7366  0.1038 -1.5519
  398MOL0     H53719   1.064   7.558   4.713 -2.2778 -1.0621 -0.0183
  398MOL0     H53720   1.216   7.638   4.604 -1.8421 -0.3592  2.3830
  398MOL0     H53721   1.210   7.803   4.547  1.0307 -1.1733 -1.8249
  398MOL0     H53722   1.411   7.645   4.537  2.3112  1.4411 -2.1681
  398MOL0     H53723   1.440   7.687   4.715 -1.2531 -0.6212 -0.1284
  398MOL0     H53724   1.456   7.890   4.486 -1.0459  0.0853  0.5609
  398MOL0     H53725   1.602   7.820   4.571  0.7806  0.9625  0.3542
  398MOL0     H53726   1.593   8.028   4.641  2.7033 -3.6064  1.8297
  398MOL0     H53727   1.529   7.948   4.773  1.3834  2.9894 -0.0591
  398MOL0     H53728   1.169   8.124   4.703  0.8460  1.6489 -0.5450
  398MOL0     H53729   1.066   7.965   4.830 -0.6679  0.6890 -1.2505
  398MOL0     H53730   0.816   7.931   4.904 -1.6356 -2.2628  1.6751
  399MOL0     O53731   2.504   4.965   8.030  0.2617 -0.4312 -0.2941
  399MOL0     C53732   2.542   4.983   8.146 -0.7128  0.8983 -0.2070
  399MOL0     O53733   2.461   4.999   8.259  0.4678  0.0135 -1.0199
  399MOL0     C53734   2.327   4.970   8.237 -0.2892 -0.8955  0.2891
  399MOL0     C53735   2.287   4.846   8.286 -0.3684 -0.1255  1.0041
  399MOL0     C53736   2.156   4.803   8.276  0.6596  0.0886  0.2084
  399MOL0     C53737   2.060   4.886   8.213 -0.3059  0.7031  0.0141
  399MOL0     O53738   1.925   4.852   8.206  0.3485  0.0791 -0.1411
  399MOL0     C53739   1.877   4.726   8.256 -0.1296 -0.0414 -0.5387
  399MOL0     C53740   1.741   4.712   8.192 -0.1745  0.7395  0.1044
  399MOL0     C53741   1.642   4.822   8.228  0.6013 -0.2590 -0.9938
  399MOL0     C53742   1.512   4.788   8.154 -0.2975 -0.1910  0.4140
  399MOL0     C53743   1.395   4.776   8.252  0.7386 -0.1574 -0.1156
  399MOL0     C53744   1.344   4.916   8.306 -1.1299 -0.7964 -0.1639
  399MOL0     C53745   1.239   4.887   8.419  0.1225 -0.2319 -1.0085
  399MOL0     C53746   1.104   4.846   8.357 -0.0862 -0.1497  0.1654
  399MOL0     N53747   0.997   4.874   8.450  0.0049 -0.5843  0.1945
  399MOL0     C53748   0.940   4.789   8.543  0.5059  0.1845  0.6394
  399MOL0     C53749   0.844   4.855   8.609 -0.4041 -0.2519  0.3887
  399MOL0     C53750   0.766   4.782   8.724 -0.0445 -0.6995  0.4787
  399MOL0     C53751   0.706   4.648   8.675 -0.4881 -0.7919 -0.0226
  399MOL0     C53752   0.579   4.660   8.596 -0.4312  0.4460  0.5681
  399MOL0     C53753   0.471   4.747   8.662 -0.1533  0.2353  0.7033
  399MOL0     O53754   0.344   4.720   8.606 -0.0838 -0.7723  1.1293
  399MOL0     C53755   0.238   4.785   8.667 -0.6901 -0.2727  0.2956
  399MOL0     C53756   0.107   4.742   8.631 -0.2727 -0.9285  0.2718
  399MOL0     C53757  -0.005   4.802   8.692 -0.8592 -0.4340 -0.8032
  399MOL0     C53758  -0.142   4.763   8.637  0.4461 -0.1485  0.2750
  399MOL0     C53759   0.015   4.893   8.793 -0.3112 -0.0134  0.4399
  399MOL0     C53760  -0.101   4.948   8.872 -0.8281  0.2702  0.0905
  399MOL0     O53761  -0.185   4.868   8.940 -0.0155  0.0121  0.1061
  399MOL0     C53762  -0.288   4.910   9.016  0.0111 -0.5143 -1.5043
  399MOL0     C53763  -0.389   4.996   8.969  0.2884  0.8159  0.5800
  399MOL0     C53764  -0.488   5.042   9.059 -0.2354 -0.7232  0.6227
  399MOL0     C53765  -0.488   4.996   9.192 -0.2371  0.1943 -0.4418
  399MOL0     O53766  -0.583   5.020   9.287 -0.7216  0.0956  0.0744
  399MOL0     C53767  -0.684   5.106   9.240 -1.1549  0.1036  0.0579
  399MOL0     C53768  -0.798   5.091   9.331 -0.4836  0.6121  0.0912
  399MOL0     C53769  -0.902   5.203   9.313 -0.5442  0.9414 -0.6307
  399MOL0     C53770  -1.008   5.209   9.422 -1.0514 -0.3374 -0.1416
  399MOL0     C53771  -1.096   5.088   9.421  1.0695  1.2843  0.0967
  399MOL0     C53772  -1.184   5.075   9.549  0.8457 -0.4592  0.2414
  399MOL0     C53773  -1.283   4.955   9.529  0.4855  0.5872  0.8794
  399MOL0     C53774  -1.379   4.926   9.650  0.5277 -0.4459  0.2625
  399MOL0    Cl53775  -1.496   5.061   9.692  0.3771  0.0636 -0.2258
  399MOL0     C53776  -0.387   4.907   9.234  1.0896  0.4607  0.0517
  399MOL0     C53777  -0.289   4.863   9.147 -0.5445  0.5356 -1.0446
  399MOL0     O53778  -0.103   5.072   8.878  0.0222  0.2465 -0.1859
  399MOL0     C53779   0.140   4.932   8.838 -0.3929  0.0022  0.9112
  399MOL0     C53780   0.255   4.879   8.774  0.5450 -0.6262  0.1707
  399MOL0     N53781   0.834   4.984   8.556  0.3868  0.4251  0.2232
  399MOL0     N53782   0.918   4.989   8.456  0.1059 -0.3628 -0.8163
  399MOL0     C53783   2.106   5.012   8.167 -0.4815  0.1337  0.5062
  399MOL0     C53784   2.236   5.052   8.177  0.1445  1.0920 -0.3327
  399MOL0     C53785   2.693   5.014   8.163  0.7003  0.6369 -0.5473
  399MOL0     C53786   2.753   5.058   8.282 -0.0746  0.0004  0.2344
  399MOL0     C53787   2.889   5.083   8.287 -0.3666  0.8424 -0.1601
  399MOL0     C53788   2.968   5.068   8.170  0.1295  0.1940  0.3152
  399MOL0     O53789   3.103   5.071   8.177 -0.3539 -0.1636 -0.1982
  399MOL0     C53790   3.155   5.199   8.195 -0.3923  0.5730 -0.1100
  399MOL0     C53791   3.248   5.202   8.318  0.4914 -0.0625 -0.1465
  399MOL0     C53792   3.340   5.314   8.324  0.2317 -0.4073  0.4498
  399MOL0     C53793   3.450   5.271   8.418 -0.0839 -0.3074 -0.7554
  399MOL0     C53794   3.557   5.191   8.353 -0.3573  0.2633  0.6603
  399MOL0     C53795   3.658   5.148   8.296 -0.1017  0.7734  0.1574
  399MOL0     C53796   2.914   5.041   8.045 -0.2631  0.0683 -0.0616
  399MOL0     C53797   2.782   5.005   8.041 -0.3276  0.3968 -0.2999
  399MOL0     H53798   2.365   4.780   8.322  0.5749 -0.7771 -1.9736
  399MOL0     H53799   2.131   4.704   8.314  1.2122 -1.0806 -2.2813
  399MOL0     H53800   1.929   4.633   8.232  1.8440  0.0116  2.7621
  399MOL0     H53801   1.875   4.729   8.366 -2.5233 -0.9230 -0.4971
  399MOL0     H53802   1.745   4.702   8.083  0.3853  3.6097 -0.2125
  399MOL0     H53803   1.690   4.620   8.222  1.9089 -0.2691  0.7448
  399MOL0     H53804   1.619   4.831   8.335  1.2960  0.0829 -0.8672
  399MOL0     H53805   1.683   4.919   8.199  0.7735  0.1560  0.5246
  399MOL0     H53806   1.501   4.870   8.083  0.4818  0.6784  1.2670
  399MOL0     H53807   1.523   4.700   8.090  0.4722  0.4199 -0.3022
  399MOL0     H53808   1.311   4.739   8.191 -1.2088  3.1410  0.3500
  399MOL0     H53809   1.415   4.697   8.325 -0.1266  0.5470  0.9049
  399MOL0     H53810   1.430   4.971   8.344 -0.7347 -1.4176 -0.1454
  399MOL0     H53811   1.299   4.984   8.233  0.4000 -0.6539 -1.0013
  399MOL0     H53812   1.276   4.804   8.481  0.2178 -0.3924 -1.2756
  399MOL0     H53813   1.221   4.974   8.483 -1.8051 -1.9170  0.8980
  399MOL0     H53814   1.109   4.741   8.327 -1.2211  0.2972 -1.7641
  399MOL0     H53815   1.077   4.897   8.264  0.3981 -1.3795 -0.6712
  399MOL0     H53816   0.968   4.687   8.567 -1.8558  0.0794  3.4457
  399MOL0     H53817   0.833   4.771   8.810  0.8500 -0.7011 -0.2197
  399MOL0     H53818   0.689   4.849   8.764 -2.2575 -1.0929 -2.7134
  399MOL0     H53819   0.687   4.580   8.760  0.3861 -1.4770 -0.3608
  399MOL0     H53820   0.785   4.598   8.618 -0.1520  2.8903 -3.1910
  399MOL0     H53821   0.536   4.560   8.587 -1.5591  0.9613 -0.0061
  399MOL0     H53822   0.604   4.693   8.495 -1.9430 -0.9822 -0.3296
  399MOL0     H53823   0.511   4.848   8.655  1.1257 -0.2687  0.3859
  399MOL0     H53824   0.471   4.725   8.769  0.0783  0.3015  0.7157
  399MOL0     H53825   0.089   4.691   8.537 -0.8381 -0.0313 -0.1161
  399MOL0     H53826  -0.145   4.771   8.528  1.2577 -1.9148  0.0838
  399MOL0     H53827  -0.162   4.655   8.639  1.4147 -0.3879 -1.2007
  399MOL0     H53828  -0.224   4.826   8.672  0.2992  0.0338 -0.3813
  399MOL0     H53829  -0.375   5.021   8.864  0.6492 -0.1721  0.3776
  399MOL0     H53830  -0.568   5.109   9.028 -0.5197 -1.4511 -0.2324
  399MOL0     H53831  -0.641   5.206   9.226  0.8795 -0.4279  1.9416
  399MOL0     H53832  -0.719   5.081   9.140  3.0203  0.3030 -1.6562
  399MOL0     H53833  -0.853   4.999   9.307  1.9451 -0.2754 -2.7576
  399MOL0     H53834  -0.768   5.107   9.435 -1.5976 -0.3961  0.6004
  399MOL0     H53835  -0.955   5.182   9.220  2.5494 -0.6351 -2.1972
  399MOL0     H53836  -0.859   5.304   9.313  0.6504  0.4550  0.1663
  399MOL0     H53837  -0.962   5.212   9.521 -2.3593 -1.3462  0.5269
  399MOL0     H53838  -1.060   5.301   9.396  4.8904  2.7755 -2.9563
  399MOL0     H53839  -1.034   4.998   9.409 -2.0183 -1.1724  1.3083
  399MOL0     H53840  -1.166   5.096   9.337 -2.1489 -0.3308  2.4392
  399MOL0     H53841  -1.124   5.052   9.637 -0.7319 -2.3741  0.8655
  399MOL0     H53842  -1.245   5.166   9.546  0.8280 -0.4975 -0.9012
  399MOL0     H53843  -1.222   4.866   9.507 -1.1224 -0.3947  0.1951
  399MOL0     H53844  -1.348   4.967   9.442 -3.5035 -0.6225  3.4307
  399MOL0     H53845  -1.327   4.896   9.741 -0.8728 -1.7860  0.6619
  399MOL0     H53846  -1.443   4.839   9.631  1.2677 -1.3096  1.5947
  399MOL0     H53847  -0.367   4.869   9.334  1.4457 -2.5852 -1.0987
  399MOL0     H53848  -0.201   4.807   9.177 -0.3027  1.5657  0.2634
  399MOL0     H53849   0.153   5.001   8.921  1.2145  1.7881 -0.7281
  399MOL0     H53850   0.347   4.915   8.819  0.5767  2.4542 -2.0187
  399MOL0     H53851   2.035   5.079   8.121 -0.9644  0.0036  1.0428
  399MOL0     H53852   2.265   5.149   8.137  0.3595  2.9211  3.6777
  399MOL0     H53853   2.699   5.078   8.374  1.4984 -1.3907  1.5301
  399MOL0     H53854   2.937   5.097   8.384 -1.9922 -1.7607  1.1284
  399MOL0     H53855   3.209   5.235   8.107 -1.7508  2.4955 -0.2208
  399MOL0     H53856   3.080   5.275   8.219 -0.5869 -0.3772  2.6377
  399MOL0     H53857   3.308   5.110   8.308  0.5759  0.1083 -1.4715
  399MOL0     H53858   3.188   5.207   8.409  1.6180  0.6788  0.5893
  399MOL0     H53859   3.291   5.403   8.363 -0.2669 -0.5847  0.2386
  399MOL0     H53860   3.384   5.335   8.226 -1.9290  2.3225 -0.0540
  399MOL0     H53861   3.408   5.214   8.501  0.0289 -0.0358 -0.5080
  399MOL0     H53862   3.504   5.354   8.466  2.6462 -1.6581 -1.3270
  399MOL0     H53863   3.740   5.112   8.237 -1.3048 -0.3946 -0.8632
  399MOL0     H53864   2.974   5.033   7.954  2.1106  0.3146  1.3841
  399MOL0     H53865   2.742   4.968   7.947  2.7145  0.2940 -1.6640
  400MOL0     O53866   5.669   2.703   4.226 -0.4696  0.6093 -0.0637
  400MOL0     C53867   5.703   2.675   4.339  0.1244  0.3155  0.4690
  400MOL0     O53868   5.625   2.673   4.449  0.1531  0.6264  0.2546
  400MOL0     C53869   5.487   2.694   4.452  0.0061 -0.2825 -0.7877
  400MOL0     C53870   5.416   2.759   4.354  0.1984 -0.3086  0.3553
  400MOL0     C53871   5.278   2.795   4.378 -0.2023 -0.8245 -0.5107
  400MOL0     C53872   5.219   2.772   4.502 -0.5474 -0.6177  0.5209
  400MOL0     O53873   5.094   2.818   4.520  0.3507  0.1896 -0.0293
  400MOL0     C53874   5.007   2.754   4.610  0.2837 -0.1897 -1.0213
  400MOL0     C53875   4.872   2.812   4.568 -0.6709 -0.2084  0.5825
  400MOL0     C53876   4.757   2.733   4.624  0.8407  0.6245 -0.0687
  400MOL0     C53877   4.628   2.782   4.560  0.5471 -0.4029  0.2584
  400MOL0     C53878   4.497   2.764   4.639 -0.0223 -0.2008  0.4092
  400MOL0     C53879   4.402   2.679   4.556  0.2103  0.1047  0.2178
  400MOL0     C53880   4.266   2.639   4.620  0.3615  0.8666  0.3415
  400MOL0     C53881   4.186   2.531   4.545 -0.0688  0.8103 -0.2573
  400MOL0     N53882   4.108   2.575   4.436  0.4116  0.6394 -0.0423
  400MOL0     C53883   4.151   2.614   4.310 -0.2907 -0.8025 -1.2728
  400MOL0     C53884   4.036   2.632   4.246  0.1904  0.6162 -0.6589
  400MOL0     C53885   4.000   2.666   4.110 -0.5755 -0.1202  0.0269
  400MOL0     C53886   4.063   2.573   4.002 -0.4657  0.4636  0.8679
  400MOL0     C53887   3.999   2.605   3.861 -0.2016 -0.7296 -0.5376
  400MOL0     C53888   4.066   2.530   3.737  0.4122  0.3205  0.1849
  400MOL0     O53889   4.193   2.597   3.723 -0.2419 -0.3032  0.2643
  400MOL0     C53890   4.282   2.545   3.633  0.1753 -0.3666 -0.2554
  400MOL0     C53891   4.375   2.636   3.579 -0.2052 -0.4111 -0.0937
  400MOL0     C53892   4.481   2.583   3.498 -0.9238 -0.1486  0.4115
  400MOL0     C53893   4.587   2.682   3.448  1.2390  0.4598 -0.0913
  400MOL0     C53894   4.483   2.446   3.466 -0.6606 -0.2766  0.3931
  400MOL0     C53895   4.578   2.387   3.373 -0.3397  1.1078  0.2123
  400MOL0     O53896   4.618   2.255   3.414  0.1526 -0.2504 -0.4463
  400MOL0     C53897   4.744   2.204   3.385 -0.2355  0.7787 -0.0235
  400MOL0     C53898   4.749   2.074   3.432  0.3121 -0.5891  0.6962
  400MOL0     C53899   4.876   2.014   3.444  0.1655  0.2423  0.2333
  400MOL0     C53900   4.994   2.067   3.392  0.1834  0.4793 -0.6379
  400MOL0     O53901   5.115   2.001   3.393  0.6221  0.5492 -0.3516
  400MOL0     C53902   5.147   1.977   3.262 -0.7084 -0.6342  0.3012
  400MOL0     C53903   5.282   2.037   3.234 -0.3745  0.1927  0.2313
  400MOL0     C53904   5.395   1.961   3.293 -0.5039  0.5361 -0.4322
  400MOL0     C53905   5.527   2.042   3.309  0.3341 -1.2891 -0.1624
  400MOL0     C53906   5.584   2.086   3.182  0.1265 -0.4793  0.4586
  400MOL0     C53907   5.616   1.977   3.077  0.5718 -0.0379 -0.5383
  400MOL0     C53908   5.671   2.047   2.949  0.3788 -0.0155  0.3710
  400MOL0     C53909   5.655   1.936   2.838 -0.2429 -0.3907 -0.5026
  400MOL0    Cl53910   5.776   1.808   2.867  0.2936 -0.7342  0.2176
  400MOL0     C53911   4.983   2.200   3.343 -0.1472  0.7747 -0.3572
  400MOL0     C53912   4.861   2.264   3.346 -0.0663  0.2415 -1.2701
  400MOL0     O53913   4.630   2.446   3.279  1.2540  0.6108  0.2909
  400MOL0     C53914   4.391   2.369   3.523  0.4652  0.6739  0.2000
  400MOL0     C53915   4.283   2.415   3.591 -0.1007  0.1343  0.9010
  400MOL0     N53916   3.922   2.603   4.328 -0.4127 -0.6556 -0.1392
  400MOL0     N53917   3.968   2.558   4.439  0.0100 -0.2251 -0.1647
  400MOL0     C53918   5.297   2.704   4.599  0.3775 -0.2586  0.2003
  400MOL0     C53919   5.428   2.663   4.577  0.4676  0.6473 -0.0490
  400MOL0     C53920   5.843   2.655   4.365 -0.7543  0.3813 -0.5337
  400MOL0     C53921   5.893   2.655   4.498  0.4770 -0.1448  0.7031
  400MOL0     C53922   6.023   2.620   4.528 -0.9696 -0.7678  0.4473
  400MOL0     C53923   6.119   2.593   4.421  0.2161 -0.4513 -0.3844
  400MOL0     O53924   6.253   2.579   4.470 -0.6688  0.5138 -0.1583
  400MOL0     C53925   6.363   2.625   4.392  0.0839  0.0741  0.9331
  400MOL0     C53926   6.440   2.739   4.458 -0.3061 -0.3704 -0.1079
  400MOL0     C53927   6.582   2.765   4.398 -0.2184 -0.4935  0.4169
  400MOL0     C53928   6.690   2.664   4.445  0.7411 -0.6701 -0.1054
  400MOL0     C53929   6.782   2.735   4.538 -0.1287 -0.0639  0.3361
  400MOL0     C53930   6.863   2.801   4.601  0.4011  0.3773  0.4411
  400MOL0     C53931   6.069   2.588   4.290  0.2311  1.1323 -0.4528
  400MOL0     C53932   5.936   2.627   4.260  0.9586 -0.2073  0.4987
  400MOL0     H53933   5.462   2.802   4.266  3.6802  0.1150  2.2268
  400MOL0     H53934   5.229   2.868   4.314  0.0545  0.1790  0.4229
  400MOL0     H53935   5.011   2.645   4.600  1.6811 -0.4257  1.5078
  400MOL0     H53936   5.032   2.785   4.711  1.5123  1.0479 -1.6617
  400MOL0     H53937   4.865   2.918   4.594  2.1725  0.1547  0.2097
  400MOL0     H53938   4.860   2.809   4.460  2.8860  1.0975  0.0014
  400MOL0     H53939   4.781   2.629   4.600 -1.2727  0.2098 -0.5977
  400MOL0     H53940   4.757   2.755   4.731  1.4910  3.4303 -0.5917
  400MOL0     H53941   4.643   2.890   4.546 -0.2316  0.0732  2.6632
  400MOL0     H53942   4.614   2.749   4.456  1.7253 -1.4022  0.3994
  400MOL0     H53943   4.517   2.710   4.732 -0.0665 -0.8441  0.0559
  400MOL0     H53944   4.440   2.855   4.658 -2.3236 -1.5472  0.3488
  400MOL0     H53945   4.380   2.733   4.464  1.1665  0.2821  0.0810
  400MOL0     H53946   4.459   2.591   4.523  0.1266  0.5537 -1.1466
  400MOL0     H53947   4.279   2.613   4.725 -0.9354 -0.1221  0.2718
  400MOL0     H53948   4.204   2.729   4.612  0.4859  0.8000 -2.0801
  400MOL0     H53949   4.127   2.483   4.624  2.6331 -1.5293  0.5073
  400MOL0     H53950   4.258   2.457   4.508  1.4335  1.4488  1.2551
  400MOL0     H53951   4.254   2.635   4.282 -0.2097  1.4648  0.4436
  400MOL0     H53952   3.891   2.661   4.097 -0.8043 -0.8876  2.0361
  400MOL0     H53953   4.043   2.766   4.096  0.1989 -0.3730  0.5608
  400MOL0     H53954   4.025   2.474   4.030 -0.5820 -0.4531 -2.1886
  400MOL0     H53955   4.172   2.576   3.992 -0.4350 -2.3037 -0.5110
  400MOL0     H53956   4.006   2.712   3.837 -0.0290 -0.3900  0.9506
  400MOL0     H53957   3.895   2.572   3.861 -0.5042 -0.0935  2.7128
  400MOL0     H53958   4.001   2.533   3.649  0.0080  0.8226  0.4944
  400MOL0     H53959   4.065   2.429   3.778  1.1457  1.0687  2.1845
  400MOL0     H53960   4.382   2.739   3.614  1.9339 -0.0373 -1.4579
  400MOL0     H53961   4.565   2.701   3.343  3.2368 -1.9292 -1.0290
  400MOL0     H53962   4.579   2.779   3.498  1.8923  1.7986 -2.4292
  400MOL0     H53963   4.686   2.639   3.467  0.3266 -0.8566  2.0087
  400MOL0     H53964   4.660   2.028   3.473 -1.9680  1.8963 -1.1655
  400MOL0     H53965   4.869   1.919   3.495 -1.3962  0.1208 -0.1810
  400MOL0     H53966   5.136   1.870   3.239 -0.9732 -0.7206  0.8068
  400MOL0     H53967   5.075   2.013   3.188 -0.8002 -0.4587  0.4751
  400MOL0     H53968   5.300   2.050   3.127 -3.0344  0.9646 -0.1886
  400MOL0     H53969   5.267   2.136   3.278  0.3558  0.9826 -1.2232
  400MOL0     H53970   5.422   1.876   3.230 -0.6242  0.9716 -1.0859
  400MOL0     H53971   5.378   1.926   3.395  0.7437  0.6440 -0.1667
  400MOL0     H53972   5.499   2.129   3.368 -0.5605 -1.6102 -0.1014
  400MOL0     H53973   5.610   1.989   3.356  0.5866 -1.1973 -0.4940
  400MOL0     H53974   5.678   2.139   3.199 -0.4467  0.9678 -0.6322
  400MOL0     H53975   5.517   2.157   3.130  1.2177 -0.7554 -1.4259
  400MOL0     H53976   5.692   1.912   3.121  0.0358 -0.5745 -0.3863
  400MOL0     H53977   5.526   1.919   3.057  0.9863 -1.7594  2.1140
  400MOL0     H53978   5.776   2.068   2.971  1.0805 -2.3858 -0.4591
  400MOL0     H53979   5.622   2.142   2.924  1.6182  0.5888  0.1343
  400MOL0     H53980   5.679   1.972   2.737  1.2486  0.8502  0.2558
  400MOL0     H53981   5.554   1.895   2.851 -0.5133  0.2907 -0.4451
  400MOL0     H53982   5.067   2.253   3.300  0.0816  0.3598 -0.4265
  400MOL0     H53983   4.856   2.359   3.293 -2.9153  0.1069 -1.3782
  400MOL0     H53984   4.397   2.260   3.524 -1.6251  0.5149  0.8712
  400MOL0     H53985   4.208   2.344   3.624  1.8300 -2.1791  0.6297
  400MOL0     H53986   5.246   2.682   4.692  0.9568  3.1083  1.4727
  400MOL0     H53987   5.474   2.617   4.664  0.4319 -1.7284 -1.2136
  400MOL0     H53988   5.836   2.665   4.590  2.2795 -1.2238  2.0063
  400MOL0     H53989   6.060   2.632   4.629  3.1584  0.1856 -0.9711
  400MOL0     H53990   6.417   2.530   4.384 -0.7028 -0.2317 -1.5168
  400MOL0     H53991   6.322   2.652   4.294 -2.9695  0.3675  2.2000
  400MOL0     H53992   6.447   2.706   4.562  1.8138  1.8720  0.5609
  400MOL0     H53993   6.379   2.830   4.452 -1.3540 -1.1183 -1.3188
  400MOL0     H53994   6.623   2.865   4.416  0.0426 -0.7092  1.0442
  400MOL0     H53995   6.565   2.765   4.290 -1.2599 -1.3314  0.5604
  400MOL0     H53996   6.744   2.617   4.362  1.4894 -2.6075  1.4111
  400MOL0     H53997   6.637   2.579   4.488  0.0504 -0.3481 -0.3055
  400MOL0     H53998   6.940   2.865   4.642 -0.2799  0.8124  1.0731
  400MOL0     H53999   6.129   2.557   4.205  0.0825 -0.4637  0.0067
  400MOL0     H54000   5.900   2.627   4.158  1.9355  0.9320  0.1407
  401MOL0     O54001   4.127   3.782   9.880 -0.1135 -0.3836  0.3367
  401MOL0     C54002   4.066   3.673   9.904 -0.1506 -0.6725  0.6456
  401MOL0     O54003   3.942   3.667   9.959 -0.7413  0.5075 -0.1403
  401MOL0     C54004   3.856   3.774   9.986 -0.7385  0.0752  0.0497
  401MOL0     C54005   3.726   3.789   9.927  0.9382  0.9314 -1.0653
  401MOL0     C54006   3.647   3.901   9.964  0.6812  0.0352  1.7390
  401MOL0     C54007   3.691   3.999  10.045  0.2334 -0.6056 -0.3802
  401MOL0     O54008   3.609   4.098  10.097  0.9150 -0.4810 -0.3644
  401MOL0     C54009   3.471   4.073  10.087 -0.2383 -0.1057 -0.8240
  401MOL0     C54010   3.392   4.182  10.151  0.0628  0.8348  0.0804
  401MOL0     C54011   3.405   4.311  10.076 -0.0983 -0.6055  0.8460
  401MOL0     C54012   3.275   4.394  10.106 -0.3857  0.1520  0.6225
  401MOL0     C54013   3.302   4.526  10.039 -0.6435  0.4348  0.1004
  401MOL0     C54014   3.184   4.611  10.069 -0.0541  0.1142  0.7769
  401MOL0     C54015   3.047   4.563  10.031 -0.2632  0.0517 -0.3273
  401MOL0     C54016   2.949   4.677   9.995 -0.0047  0.0156 -0.3964
  401MOL0     N54017   2.817   4.628   9.956  0.5451  0.5887 -0.7535
  401MOL0     C54018   2.769   4.520   9.878 -0.4425 -0.5318  0.0371
  401MOL0     C54019   2.640   4.511   9.907  0.1311  0.4412  0.1455
  401MOL0     C54020   2.545   4.406   9.845 -0.5867 -0.1604 -0.0726
  401MOL0     C54021   2.500   4.304   9.946  0.7859 -0.1050 -0.4198
  401MOL0     C54022   2.423   4.193   9.881  0.4136 -0.0617  0.5154
  401MOL0     C54023   2.282   4.244   9.837 -0.7675  0.3188 -0.6688
  401MOL0     O54024   2.200   4.132   9.799 -0.8563  0.7986 -0.3145
  401MOL0     C54025   2.065   4.150   9.795 -0.6314 -0.3024  0.0172
  401MOL0     C54026   1.988   4.037   9.766 -0.5942 -0.2147 -0.0208
  401MOL0     C54027   1.854   4.035   9.749 -0.1352 -0.8051 -0.1475
  401MOL0     C54028   1.790   3.907   9.700 -0.4401 -0.5572 -0.7350
  401MOL0     C54029   1.781   4.157   9.775 -0.4622  0.5297 -0.1250
  401MOL0     C54030   1.631   4.167   9.763 -0.0758  0.4126  0.5250
  401MOL0     O54031   1.578   4.291   9.801 -0.3943  0.1335 -0.9044
  401MOL0     C54032   1.436   4.297   9.799  0.4435 -0.8248 -0.1304
  401MOL0     C54033   1.374   4.301   9.677  0.6420 -0.2797 -0.5736
  401MOL0     C54034   1.232   4.317   9.661  0.2549  0.0826  0.5231
  401MOL0     C54035   1.156   4.314   9.782  1.2085  0.0054 -0.1974
  401MOL0     O54036   1.020   4.330   9.792 -0.2415  0.1481  0.4475
  401MOL0     C54037   0.959   4.401   9.685 -1.0762 -1.1791 -0.0630
  401MOL0     C54038   0.817   4.435   9.723 -0.9140 -0.3811 -0.4229
  401MOL0     C54039   0.715   4.318   9.707  0.1072  0.0235  0.4659
  401MOL0     C54040   0.658   4.300   9.567 -0.0956 -0.1353 -0.6928
  401MOL0     C54041   0.553   4.185   9.573 -0.7602  0.2615 -0.6716
  401MOL0     C54042   0.618   4.053   9.616 -0.3041 -0.9755 -0.4676
  401MOL0     C54043   0.527   3.933   9.599  0.2224  0.6719  0.4623
  401MOL0     C54044   0.479   3.906   9.457  1.1009 -0.0731  0.7242
  401MOL0    Cl54045   0.303   3.931   9.440  0.2193 -0.3424 -0.0253
  401MOL0     C54046   1.224   4.305   9.915 -0.2277 -0.0547 -0.1427
  401MOL0     C54047   1.361   4.296   9.912  0.6579  0.8340 -0.3044
  401MOL0     O54048   1.566   4.079   9.715  0.3343 -0.8571 -0.0015
  401MOL0     C54049   1.860   4.264   9.816 -0.7377  0.3255 -0.1060
  401MOL0     C54050   1.999   4.268   9.827  0.2882 -1.0863 -0.5318
  401MOL0     N54051   2.600   4.612   9.991  0.7086  0.2864 -0.1326
  401MOL0     N54052   2.704   4.677  10.016  1.0429  1.1579 -0.8521
  401MOL0     C54053   3.818   3.990  10.094 -0.2380  0.8324 -0.6390
  401MOL0     C54054   3.900   3.878  10.064 -0.7243  0.3605  0.5097
  401MOL0     C54055   4.117   3.557   9.835 -0.1007 -0.0655 -0.4592
  401MOL0     C54056   4.040   3.443   9.794 -0.1561 -0.0526 -0.7088
  401MOL0     C54057   4.104   3.337   9.733  0.6778  0.4375  0.6833
  401MOL0     C54058   4.237   3.340   9.703 -0.3876 -0.3595  0.3212
  401MOL0     O54059   4.285   3.239   9.629  0.0214  0.6390  0.0416
  401MOL0     C54060   4.261   3.242   9.491 -0.2372  0.4243  0.4052
  401MOL0     C54061   4.216   3.110   9.431  0.3462  0.1852 -0.1177
  401MOL0     C54062   4.062   3.083   9.474 -0.0042  0.0945 -0.5354
  401MOL0     C54063   3.960   3.192   9.437  0.2260 -0.0512  0.3484
  401MOL0     C54064   3.928   3.196   9.295 -0.1168  0.0463  0.6117
  401MOL0     C54065   3.915   3.173   9.178 -0.8799  0.0886  0.1524
  401MOL0     C54066   4.311   3.449   9.734  0.4949  0.6133  0.3624
  401MOL0     C54067   4.252   3.555   9.805 -0.0904  0.6199 -0.4696
  401MOL0     H54068   3.679   3.714   9.864  0.9619 -1.6492  1.8122
  401MOL0     H54069   3.545   3.906   9.930  1.1138  0.3465  0.4251
  401MOL0     H54070   3.452   4.071   9.979 -0.1005 -0.9827 -0.8389
  401MOL0     H54071   3.443   3.975  10.127  1.8860 -0.3212  0.3328
  401MOL0     H54072   3.292   4.139  10.141  1.3193 -2.0588 -1.0394
  401MOL0     H54073   3.410   4.191  10.259 -3.0638  0.5290  0.7010
  401MOL0     H54074   3.493   4.373  10.097 -0.5135  1.5157 -2.9374
  401MOL0     H54075   3.408   4.303   9.967  1.0915 -1.3050  0.9182
  401MOL0     H54076   3.186   4.341  10.069  1.3249 -3.4153  1.2070
  401MOL0     H54077   3.259   4.413  10.212 -1.3384  0.8002  0.3723
  401MOL0     H54078   3.390   4.568  10.089 -1.1945 -2.0424  3.4944
  401MOL0     H54079   3.304   4.523   9.930 -1.8455 -0.2987  0.0774
  401MOL0     H54080   3.182   4.637  10.175  0.3936  0.9527  0.5920
  401MOL0     H54081   3.204   4.703  10.012 -0.0970 -0.7788 -0.7453
  401MOL0     H54082   3.063   4.502   9.942 -2.0280  0.0460 -0.6834
  401MOL0     H54083   3.007   4.497  10.108  3.4208 -1.4900  0.4544
  401MOL0     H54084   2.982   4.732   9.907 -2.7935  1.0842 -0.8487
  401MOL0     H54085   2.943   4.735  10.088 -0.6689 -1.5160  0.5666
  401MOL0     H54086   2.827   4.445   9.824  0.3243 -0.1263  0.2764
  401MOL0     H54087   2.458   4.458   9.806 -0.1271  1.2074  0.6414
  401MOL0     H54088   2.602   4.350   9.770 -0.8696 -2.2300  1.1728
  401MOL0     H54089   2.447   4.343  10.034  3.3597 -1.9777  2.1582
  401MOL0     H54090   2.592   4.269   9.994 -0.2571 -3.9295 -0.8508
  401MOL0     H54091   2.392   4.122   9.958  1.2896 -1.2118 -0.1680
  401MOL0     H54092   2.473   4.132   9.805 -0.9739  0.6261 -1.0404
  401MOL0     H54093   2.286   4.322   9.761 -3.4595  2.5715  1.3037
  401MOL0     H54094   2.245   4.289   9.930 -0.7649 -0.1824 -0.4206
  401MOL0     H54095   2.032   3.939   9.747 -1.8885 -0.8357  0.0830
  401MOL0     H54096   1.702   3.874   9.756  0.2026 -1.9946 -0.5451
  401MOL0     H54097   1.748   3.928   9.601 -0.9422 -5.2210 -1.7486
  401MOL0     H54098   1.868   3.831   9.690  0.3813  0.3216 -1.1730
  401MOL0     H54099   1.434   4.302   9.587  0.8410 -1.2353 -0.4604
  401MOL0     H54100   1.191   4.339   9.563  2.9832  1.1745 -0.4544
  401MOL0     H54101   1.025   4.485   9.665 -0.3653 -1.6519  0.2331
  401MOL0     H54102   0.954   4.340   9.595  1.3750  0.5857 -1.5171
  401MOL0     H54103   0.824   4.477   9.824 -2.6429 -0.8042 -0.1075
  401MOL0     H54104   0.786   4.520   9.661  1.7567 -0.5680 -2.2178
  401MOL0     H54105   0.626   4.335   9.768 -1.5173 -1.3183 -1.4100
  401MOL0     H54106   0.765   4.228   9.745 -0.6951 -0.1437  1.1512
  401MOL0     H54107   0.617   4.398   9.539  0.2088  0.2245  0.1041
  401MOL0     H54108   0.742   4.283   9.498  2.0424  2.2147  1.1339
  401MOL0     H54109   0.504   4.165   9.478 -3.0012  0.6493  0.3291
  401MOL0     H54110   0.479   4.218   9.647  0.2955  3.3339 -0.8398
  401MOL0     H54111   0.708   4.034   9.557 -0.9130  0.8628 -2.0614
  401MOL0     H54112   0.642   4.051   9.723 -0.0772  0.4423 -0.4728
  401MOL0     H54113   0.438   3.934   9.662  0.1927 -1.5084  0.5022
  401MOL0     H54114   0.585   3.851   9.640  1.9667  2.4109  1.6522
  401MOL0     H54115   0.509   3.803   9.436 -1.2341 -0.5455 -0.6032
  401MOL0     H54116   0.528   3.973   9.387 -1.0930  1.1418  0.2417
  401MOL0     H54117   1.164   4.301  10.006 -2.8057  0.8634 -1.6987
  401MOL0     H54118   1.416   4.298  10.005 -0.1046 -1.7181  0.2916
  401MOL0     H54119   1.810   4.359   9.835 -3.5948 -0.6610 -1.9978
  401MOL0     H54120   2.040   4.361   9.865  1.2966 -1.9592  0.6041
  401MOL0     H54121   3.855   4.051  10.175  1.0969 -2.7695  1.6884
  401MOL0     H54122   3.997   3.872  10.112 -0.1406  1.5230 -0.4584
  401MOL0     H54123   3.936   3.441   9.825 -0.0884 -2.9360 -0.3821
  401MOL0     H54124   4.061   3.240   9.713 -1.1486  1.7914 -2.8401
  401MOL0     H54125   4.197   3.324   9.457 -1.6776 -1.0378 -0.5595
  401MOL0     H54126   4.362   3.253   9.449  1.6429 -3.4342  3.3048
  401MOL0     H54127   4.275   3.020   9.451 -2.4087 -2.1035 -1.4949
  401MOL0     H54128   4.210   3.114   9.322 -3.2510 -0.5414 -0.0803
  401MOL0     H54129   4.058   3.064   9.582  0.7275 -0.4029 -0.5855
  401MOL0     H54130   4.029   2.992   9.423  0.4769 -1.0687  1.1414
  401MOL0     H54131   3.988   3.291   9.475  0.1992  0.3540 -0.6714
  401MOL0     H54132   3.859   3.182   9.477 -1.5987  2.7622 -3.0194
  401MOL0     H54133   3.912   3.152   9.072 -3.9613 -0.7914  0.3068
  401MOL0     H54134   4.417   3.443   9.711  0.7072 -1.2229  1.5993
  401MOL0     H54135   4.316   3.640   9.829 -0.6021  0.3384  2.0913
  402MOL0     O54136   1.447   5.052   8.638 -0.3772 -0.1034  0.3409
  402MOL0     C54137   1.521   5.060   8.734 -0.5136  0.0304 -0.0393
  402MOL0     O54138   1.482   5.054   8.865 -0.9706 -0.8846  0.0742
  402MOL0     C54139   1.352   5.033   8.903 -0.3931 -0.0801  0.1071
  402MOL0     C54140   1.353   4.970   9.028  0.1263 -0.8815 -0.0377
  402MOL0     C54141   1.226   4.938   9.087 -0.4290 -0.2245 -0.0547
  402MOL0     C54142   1.103   4.977   9.014  0.2937  0.1470  0.2197
  402MOL0     O54143   0.982   4.935   9.063  0.9548 -1.0361  0.1286
  402MOL0     C54144   0.872   5.028   9.056 -0.6286 -0.6904  0.2634
  402MOL0     C54145   0.759   4.966   9.133  0.9342 -0.1117  0.2155
  402MOL0     C54146   0.646   5.076   9.152 -0.1542 -1.6051 -0.5359
  402MOL0     C54147   0.533   5.023   9.233  0.8396  0.8049  0.8505
  402MOL0     C54148   0.417   5.116   9.240 -0.4625 -0.1343  0.4964
  402MOL0     C54149   0.340   5.130   9.368 -0.4661 -0.4035  1.0780
  402MOL0     C54150   0.409   5.177   9.499 -0.3625 -0.4438  0.6147
  402MOL0     C54151   0.313   5.241   9.597  0.0270  0.2222 -1.0539
  402MOL0     N54152   0.246   5.142   9.685 -0.2076  0.1281  0.1691
  402MOL0     C54153   0.299   5.090   9.806 -0.7922  0.6721 -0.3771
  402MOL0     C54154   0.231   4.978   9.826 -0.3486 -0.1663 -0.4760
  402MOL0     C54155   0.245   4.887   9.947 -0.1296 -0.0235 -0.2373
  402MOL0     C54156   0.102   4.858  10.015 -0.5225 -0.2212  0.7175
  402MOL0     C54157   0.108   4.814  10.165  0.0364 -0.5535  1.0120
  402MOL0     C54158  -0.033   4.797  10.229  0.0497  0.5055 -0.0768
  402MOL0     O54159  -0.101   4.930  10.213  0.0001  0.8694 -0.1801
  402MOL0     C54160  -0.240   4.929  10.216 -0.6694  0.2953  0.5594
  402MOL0     C54161  -0.305   5.050  10.176  0.0810  0.6431  0.1567
  402MOL0     C54162  -0.441   5.068  10.196  0.1704 -0.1803  0.0363
  402MOL0     C54163  -0.509   5.202  10.161 -0.8378  0.2270 -0.3851
  402MOL0     C54164  -0.515   4.964  10.263 -0.2455  0.0796  0.3624
  402MOL0     C54165  -0.660   4.974  10.306 -1.0080 -0.5577 -0.4468
  402MOL0     O54166  -0.714   4.862  10.370 -0.2788 -0.6553  0.0492
  402MOL0     C54167  -0.840   4.849  10.414  0.1953 -0.2761  0.9930
  402MOL0     C54168  -0.941   4.940  10.423  0.4903  0.3932 -0.1975
  402MOL0     C54169  -1.060   4.904  10.482 -0.7235 -0.5223 -0.5423
  402MOL0     C54170  -1.081   4.777  10.535 -0.7826  0.5607 -0.4626
  402MOL0     O54171  -1.206   4.758  10.601  0.0903  0.1830  0.5673
  402MOL0     C54172  -1.218   4.642  10.676  0.5890  0.5128 -0.4490
  402MOL0     C54173  -1.348   4.635  10.756  0.3267 -0.5682  0.4438
  402MOL0     C54174  -1.382   4.765  10.845  0.1381 -0.2126 -0.0953
  402MOL0     C54175  -1.521   4.765  10.919  0.6014  1.4110  0.0755
  402MOL0     C54176  -1.544   4.880  11.014 -0.3892 -0.1160  0.2668
  402MOL0     C54177  -1.631   4.985  10.935  0.3945 -0.8576  0.1731
  402MOL0     C54178  -1.648   5.114  11.010  0.3025 -0.3466  0.0560
  402MOL0     C54179  -1.710   5.224  10.918  0.3588 -0.0355  0.5352
  402MOL0    Cl54180  -1.718   5.383  10.962 -0.3719 -0.6970  0.0182
  402MOL0     C54181  -0.987   4.681  10.511  0.3939 -0.6151  0.0290
  402MOL0     C54182  -0.869   4.716  10.451 -0.1353 -0.4054 -0.1573
  402MOL0     O54183  -0.726   5.072  10.280  0.5688 -0.0241  0.2445
  402MOL0     C54184  -0.444   4.853  10.312  0.1031  0.1974  0.5963
  402MOL0     C54185  -0.310   4.835  10.288 -0.1906  0.0998 -0.4177
  402MOL0     N54186   0.137   4.968   9.722  1.1251  0.1697 -0.0567
  402MOL0     N54187   0.157   5.062   9.634 -0.3505  0.3060 -0.6866
  402MOL0     C54188   1.106   5.047   8.888 -0.3601  0.0261  0.9748
  402MOL0     C54189   1.235   5.073   8.836 -0.2154  0.2993 -0.8388
  402MOL0     C54190   1.661   5.090   8.704  0.1175  0.2600  0.8030
  402MOL0     C54191   1.743   5.150   8.797 -0.0633  0.6141 -0.5842
  402MOL0     C54192   1.876   5.184   8.767  0.6662 -0.6110  1.0613
  402MOL0     C54193   1.928   5.143   8.642 -0.2109 -0.2023  0.3349
  402MOL0     O54194   2.061   5.164   8.629  0.1815  0.4663 -0.9031
  402MOL0     C54195   2.129   5.053   8.571 -0.2740 -0.4723  0.2380
  402MOL0     C54196   2.279   5.056   8.593  0.0958  0.5371  0.6020
  402MOL0     C54197   2.332   4.983   8.719 -0.0571 -0.8278  0.7461
  402MOL0     C54198   2.488   4.989   8.718  0.7475 -0.4940  1.0901
  402MOL0     C54199   2.549   5.105   8.779  0.1264 -0.8031 -0.5699
  402MOL0     C54200   2.590   5.205   8.840 -0.4027 -1.0115  0.7614
  402MOL0     C54201   1.846   5.072   8.550 -0.3456  0.6466  0.6327
  402MOL0     C54202   1.716   5.043   8.583 -0.7983  0.5111  1.4434
  402MOL0     H54203   1.447   4.963   9.081 -0.5022  0.8520  1.3909
  402MOL0     H54204   1.225   4.873   9.174 -0.3755  1.1875  1.0331
  402MOL0     H54205   0.896   5.131   9.084 -0.2221  0.4962 -3.7539
  402MOL0     H54206   0.838   5.032   8.952  2.7573  1.4229 -0.9034
  402MOL0     H54207   0.732   4.882   9.068  4.0794  0.5053 -2.1373
  402MOL0     H54208   0.794   4.933   9.231  2.9954  0.1767 -0.3764
  402MOL0     H54209   0.681   5.167   9.202  1.3165 -1.0829 -2.4164
  402MOL0     H54210   0.608   5.108   9.055  2.9176  1.8849 -0.7909
  402MOL0     H54211   0.494   4.929   9.192 -0.6668  0.6748  2.4586
  402MOL0     H54212   0.568   4.996   9.333 -0.9189 -2.4920  0.7118
  402MOL0     H54213   0.460   5.216   9.226 -2.0563  0.4579 -0.5267
  402MOL0     H54214   0.349   5.100   9.155 -0.0617 -2.2627  0.5179
  402MOL0     H54215   0.253   5.194   9.352 -1.1320 -1.3420  0.8372
  402MOL0     H54216   0.300   5.030   9.387 -0.0047 -1.1426 -1.5336
  402MOL0     H54217   0.462   5.095   9.549 -1.2753 -0.3034  1.8571
  402MOL0     H54218   0.483   5.256   9.483 -1.0783  0.5996  2.2058
  402MOL0     H54219   0.237   5.306   9.553 -1.8338  1.1235  2.9908
  402MOL0     H54220   0.370   5.313   9.656 -1.8355  0.0282  1.1493
  402MOL0     H54221   0.377   5.130   9.870 -3.4421 -0.2981  3.9220
  402MOL0     H54222   0.286   4.793   9.911 -0.8049 -0.4622  0.1278
  402MOL0     H54223   0.307   4.944  10.017  0.5275  2.9819 -3.0280
  402MOL0     H54224   0.064   4.767   9.966  2.5465 -3.0496  3.1045
  402MOL0     H54225   0.036   4.944  10.004  0.9962  1.0149  0.9575
  402MOL0     H54226   0.167   4.890  10.215  1.0457  0.2649 -1.3020
  402MOL0     H54227   0.166   4.721  10.168  1.4266  0.0437 -2.6857
  402MOL0     H54228  -0.017   4.770  10.334  1.5472  2.5051  0.2705
  402MOL0     H54229  -0.092   4.726  10.170 -2.5488  2.4874 -0.0324
  402MOL0     H54230  -0.239   5.119  10.125  3.1851 -0.0192  2.9414
  402MOL0     H54231  -0.547   5.265  10.242  1.1864  1.8651 -0.6203
  402MOL0     H54232  -0.435   5.266  10.112  2.9270 -0.7425  3.4185
  402MOL0     H54233  -0.594   5.177  10.097 -1.6339  4.7102 -1.4138
  402MOL0     H54234  -0.927   5.045  10.397  0.1121  0.2729 -0.8973
  402MOL0     H54235  -1.130   4.986  10.497 -1.9836 -1.5341 -0.7626
  402MOL0     H54236  -1.222   4.554  10.611  1.5321  0.4096 -0.3893
  402MOL0     H54237  -1.138   4.640  10.750 -2.0422  1.8407  2.6540
  402MOL0     H54238  -1.429   4.630  10.683  1.4421 -1.1010 -0.7853
  402MOL0     H54239  -1.360   4.540  10.811 -1.6270 -1.1513 -0.8718
  402MOL0     H54240  -1.390   4.856  10.785  2.7747  1.4160  1.7882
  402MOL0     H54241  -1.301   4.800  10.909 -0.5734  0.2373  0.5652
  402MOL0     H54242  -1.593   4.761  10.837 -0.1213 -1.3291  0.7716
  402MOL0     H54243  -1.525   4.669  10.971  2.3534 -0.1871 -2.5213
  402MOL0     H54244  -1.447   4.916  11.051 -1.6124  0.7518  2.8364
  402MOL0     H54245  -1.599   4.837  11.099 -0.0779  2.8412  2.1176
  402MOL0     H54246  -1.560   5.003  10.854 -0.4306  2.1685 -0.0095
  402MOL0     H54247  -1.727   4.943  10.903  0.8834 -1.3727 -0.6588
  402MOL0     H54248  -1.549   5.152  11.038  0.2940  1.3458 -2.0085
  402MOL0     H54249  -1.709   5.098  11.100  1.0910  0.0941  0.6875
  402MOL0     H54250  -1.811   5.195  10.889 -1.2768  3.6019  1.9531
  402MOL0     H54251  -1.662   5.223  10.819  0.3968 -0.3934  0.5582
  402MOL0     H54252  -1.015   4.577  10.524 -4.4131  0.6804  2.1689
  402MOL0     H54253  -0.798   4.636  10.430  1.1029  0.9210 -1.2935
  402MOL0     H54254  -0.495   4.771  10.362 -1.6645  1.6497  1.3281
  402MOL0     H54255  -0.264   4.755  10.345  1.3821  1.3315  0.1069
  402MOL0     H54256   1.014   5.070   8.836 -0.5856 -1.3613  0.7267
  402MOL0     H54257   1.246   5.127   8.742  1.1722 -1.8717 -2.0226
  402MOL0     H54258   1.706   5.172   8.897 -0.1283 -1.2830 -0.1466
  402MOL0     H54259   1.944   5.237   8.834  2.3378 -0.8380 -0.4086
  402MOL0     H54260   2.098   4.955   8.610  2.5941 -1.0614  1.3281
  402MOL0     H54261   2.120   5.049   8.462  1.9219 -0.3514 -0.0021
  402MOL0     H54262   2.313   5.160   8.589  2.4086 -0.1193  1.7863
  402MOL0     H54263   2.329   5.015   8.504 -0.8027  1.5487 -0.4144
  402MOL0     H54264   2.289   4.882   8.720 -1.8843 -0.0829  1.2596
  402MOL0     H54265   2.293   5.030   8.809 -0.1625  1.8837 -0.6279
  402MOL0     H54266   2.529   4.981   8.617 -1.0724 -2.0450  0.4264
  402MOL0     H54267   2.528   4.898   8.763  0.6912 -0.8874  0.3556
  402MOL0     H54268   2.641   5.291   8.876  0.9853 -1.6492  0.3660
  402MOL0     H54269   1.881   5.025   8.458  3.2077 -1.0266  2.6519
  402MOL0     H54270   1.669   4.993   8.499  2.4094  0.8525 -0.6960
  403MOL0     O54271   0.092   9.344   6.833  0.8949  0.1564 -0.0243
  403MOL0     C54272   0.134   9.416   6.927 -0.4845  0.0067 -0.0937
  403MOL0     O54273   0.113   9.556   6.932 -0.8340  0.7014  0.5623
  403MOL0     C54274   0.014   9.612   6.850  0.0321  0.2688 -0.6255
  403MOL0     C54275  -0.119   9.556   6.845  0.0457  0.2862 -0.0248
  403MOL0     C54276  -0.220   9.618   6.772 -0.2485  0.2361  0.8210
  403MOL0     C54277  -0.191   9.739   6.711  0.3903 -0.8905  0.1840
  403MOL0     O54278  -0.297   9.818   6.667 -0.3365 -0.0038  0.6407
  403MOL0     C54279  -0.414   9.773   6.588  0.0135  0.3579  0.3369
  403MOL0     C54280  -0.393   9.725   6.447  0.3576 -0.4416 -0.1832
  403MOL0     C54281  -0.532   9.735   6.368 -0.3979  0.3716  0.0332
  403MOL0     C54282  -0.506   9.830   6.245  0.8872 -0.8549 -0.6911
  403MOL0     C54283  -0.644   9.862   6.181  0.0880 -0.2468  0.5454
  403MOL0     C54284  -0.640   9.912   6.032 -0.1415  0.5092  0.1877
  403MOL0     C54285  -0.773   9.979   6.002  0.7677 -0.0194 -0.3420
  403MOL0     C54286  -0.797   9.996   5.857  0.8936 -0.0052  0.2911
  403MOL0     N54287  -0.864   9.888   5.787 -0.2507 -0.2591  0.3413
  403MOL0     C54288  -1.000   9.885   5.771  0.8615  0.3080  0.8261
  403MOL0     C54289  -1.025   9.768   5.714  0.2075  0.4826 -0.0424
  403MOL0     C54290  -1.151   9.685   5.699  0.0830  0.2761 -0.3855
  403MOL0     C54291  -1.218   9.708   5.566 -0.6435 -0.8720 -1.0529
  403MOL0     C54292  -1.305   9.584   5.525  0.6040  0.5284  0.3323
  403MOL0     C54293  -1.348   9.577   5.381  0.8047 -0.3562  0.8442
  403MOL0     O54294  -1.438   9.473   5.347 -0.2453  0.1435  1.0109
  403MOL0     C54295  -1.561   9.475   5.399 -0.2723  0.1079 -0.6956
  403MOL0     C54296  -1.652   9.571   5.358  0.0591 -0.4338 -0.0919
  403MOL0     C54297  -1.782   9.573   5.394  0.3537  0.3091  0.7379
  403MOL0     C54298  -1.881   9.674   5.321 -0.1924 -0.0833  1.2156
  403MOL0     C54299  -1.831   9.464   5.476 -0.6675 -0.4873 -0.5543
  403MOL0     C54300  -1.965   9.467   5.542  0.2826 -0.5234  0.4286
  403MOL0     O54301  -2.073   9.510   5.468 -1.0957 -0.9771 -0.7877
  403MOL0     C54302  -2.199   9.492   5.510 -0.0618 -0.1892 -0.6593
  403MOL0     C54303  -2.264   9.585   5.600  0.0791 -0.3969 -0.2372
  403MOL0     C54304  -2.399   9.569   5.641 -0.7817  0.3391 -0.3147
  403MOL0     C54305  -2.476   9.459   5.593  0.3141 -0.7456 -0.8129
  403MOL0     O54306  -2.611   9.454   5.624  0.4287 -0.4536 -0.4285
  403MOL0     C54307  -2.626   9.328   5.706  0.0339 -0.2984  0.0890
  403MOL0     C54308  -2.622   9.357   5.858  0.1619  0.2790  0.1506
  403MOL0     C54309  -2.765   9.393   5.912 -0.2951 -0.1253  1.2599
  403MOL0     C54310  -2.754   9.474   6.036 -0.0002 -0.0015 -0.5735
  403MOL0     C54311  -2.685   9.392   6.152 -0.7963 -0.7498 -0.1426
  403MOL0     C54312  -2.726   9.466   6.283 -0.7302 -0.5725 -0.3795
  403MOL0     C54313  -2.718   9.367   6.396  0.2801  0.3832  0.3973
  403MOL0     C54314  -2.846   9.288   6.417 -0.0466  0.1561 -0.5347
  403MOL0    Cl54315  -2.963   9.405   6.480  0.0819 -0.7470  0.0365
  403MOL0     C54316  -2.412   9.371   5.507  0.0827  0.4756  0.1067
  403MOL0     C54317  -2.285   9.391   5.462 -0.6921  0.2908 -0.0677
  403MOL0     O54318  -1.977   9.434   5.658 -0.3921 -0.5503  0.0246
  403MOL0     C54319  -1.730   9.373   5.523 -1.2841  0.7863  0.3372
  403MOL0     C54320  -1.596   9.374   5.493  0.1239  0.5747  0.3790
  403MOL0     N54321  -0.902   9.703   5.690  0.7116  1.0084 -0.7773
  403MOL0     N54322  -0.806   9.774   5.744 -0.2877 -0.3519  0.2595
  403MOL0     C54323  -0.061   9.798   6.726 -0.2192  0.3623 -0.5776
  403MOL0     C54324   0.041   9.730   6.788  0.8014 -0.4482 -0.0200
  403MOL0     C54325   0.226   9.357   7.025 -0.4014 -0.0594 -0.0295
  403MOL0     C54326   0.194   9.231   7.079  0.0134  0.2259  0.4225
  403MOL0     C54327   0.277   9.184   7.183 -0.4518 -0.2069  0.1986
  403MOL0     C54328   0.377   9.260   7.234 -0.2134 -0.9552  0.2537
  403MOL0     O54329   0.451   9.228   7.344  0.5491 -0.0080 -0.0132
  403MOL0     C54330   0.475   9.096   7.371  0.7463 -0.0432  0.0906
  403MOL0     C54331   0.599   9.086   7.466  0.1625  0.5872 -0.1866
  403MOL0     C54332   0.721   9.138   7.392  0.2685  0.0906  0.1150
  403MOL0     C54333   0.856   9.108   7.466 -0.1146  0.5275  0.3367
  403MOL0     C54334   0.846   9.164   7.600  0.8991  0.3471 -0.6756
  403MOL0     C54335   0.840   9.223   7.703  0.1454 -0.2922  0.6720
  403MOL0     C54336   0.394   9.387   7.189 -0.0468 -0.1011  0.2275
  403MOL0     C54337   0.317   9.440   7.082 -0.1667  0.7227  0.4506
  403MOL0     H54338  -0.131   9.466   6.904  2.3262 -0.1146 -0.0858
  403MOL0     H54339  -0.317   9.570   6.764 -0.6620  1.0706  0.7319
  403MOL0     H54340  -0.472   9.707   6.653  2.7051 -0.4250  2.1012
  403MOL0     H54341  -0.475   9.862   6.569  0.7011  0.9222  0.6898
  403MOL0     H54342  -0.323   9.798   6.404  1.3798 -1.5891 -0.5590
  403MOL0     H54343  -0.348   9.626   6.436  0.5589 -0.1541 -2.6978
  403MOL0     H54344  -0.567   9.636   6.335 -1.4565 -0.4451  3.2549
  403MOL0     H54345  -0.614   9.777   6.426 -0.5025  0.7218 -0.3609
  403MOL0     H54346  -0.453   9.923   6.273  2.2977 -0.8183 -3.2145
  403MOL0     H54347  -0.441   9.769   6.183  0.9269 -1.8702  0.3187
  403MOL0     H54348  -0.705   9.771   6.187 -0.7096  0.3269  1.1661
  403MOL0     H54349  -0.687   9.941   6.242  2.1648  3.2808 -2.1525
  403MOL0     H54350  -0.559   9.983   6.016  1.0434 -0.6669  0.8434
  403MOL0     H54351  -0.613   9.831   5.963  2.5376  1.2642  0.2484
  403MOL0     H54352  -0.850   9.910   6.040  0.2507  0.6024 -0.2410
  403MOL0     H54353  -0.776  10.072   6.060  1.7631 -1.6223  2.4603
  403MOL0     H54354  -0.701  10.003   5.806  0.4770  1.3917 -0.3413
  403MOL0     H54355  -0.851  10.088   5.834  0.6867 -0.6067 -1.8315
  403MOL0     H54356  -1.079   9.950   5.808  0.6787  0.4247  0.2423
  403MOL0     H54357  -1.136   9.577   5.704  3.4767  0.5530 -1.4583
  403MOL0     H54358  -1.210   9.739   5.773 -0.8159  1.2321 -1.7358
  403MOL0     H54359  -1.140   9.714   5.489  0.1326  0.4831 -0.2057
  403MOL0     H54360  -1.288   9.791   5.575  0.1081 -0.4698  1.8979
  403MOL0     H54361  -1.395   9.591   5.587 -1.9896  0.3573 -3.0815
  403MOL0     H54362  -1.256   9.491   5.553 -1.8490 -1.1788 -0.6850
  403MOL0     H54363  -1.257   9.571   5.320  1.3077  1.9950  1.2577
  403MOL0     H54364  -1.392   9.675   5.363 -1.3093 -1.2081  1.0649
  403MOL0     H54365  -1.617   9.643   5.284  1.4149 -0.1871  0.7463
  403MOL0     H54366  -1.942   9.616   5.250  0.1147 -0.6489  1.4052
  403MOL0     H54367  -1.937   9.714   5.406  2.2263  4.2068  1.0738
  403MOL0     H54368  -1.834   9.756   5.267 -1.7363  0.5870  0.8427
  403MOL0     H54369  -2.218   9.674   5.641  0.1847 -2.3428  4.4291
  403MOL0     H54370  -2.448   9.631   5.716  2.0413 -0.0859  2.0423
  403MOL0     H54371  -2.722   9.281   5.682 -1.3700  3.5814 -3.0964
  403MOL0     H54372  -2.552   9.251   5.682  0.0343 -0.8264  1.7144
  403MOL0     H54373  -2.585   9.267   5.908  1.0375  1.3605  1.5213
  403MOL0     H54374  -2.548   9.438   5.858  4.8799 -3.5104  2.8197
  403MOL0     H54375  -2.821   9.302   5.936 -0.3978 -0.1734  0.8365
  403MOL0     H54376  -2.831   9.448   5.845 -1.0645 -0.0807  2.0383
  403MOL0     H54377  -2.700   9.568   6.016  2.0491 -0.9003  0.4366
  403MOL0     H54378  -2.854   9.501   6.071  0.6510  3.5580 -1.0336
  403MOL0     H54379  -2.577   9.378   6.142 -1.0127 -3.5385  0.6954
  403MOL0     H54380  -2.717   9.288   6.152 -0.9847 -0.7086  1.1254
  403MOL0     H54381  -2.662   9.555   6.289 -0.7449 -0.4369 -1.8286
  403MOL0     H54382  -2.830   9.497   6.271 -0.1936  1.2779 -0.6608
  403MOL0     H54383  -2.704   9.423   6.489 -0.4826 -0.6514  1.1578
  403MOL0     H54384  -2.630   9.306   6.375 -0.4344  0.0875 -2.0641
  403MOL0     H54385  -2.820   9.219   6.498  0.0959  1.9088  0.9687
  403MOL0     H54386  -2.874   9.233   6.326  0.5045  1.2009 -1.3502
  403MOL0     H54387  -2.466   9.284   5.471  1.3607  1.0226 -3.5517
  403MOL0     H54388  -2.254   9.317   5.389 -0.0711  1.6615 -1.2371
  403MOL0     H54389  -1.765   9.290   5.583 -3.1619  2.3875  1.6188
  403MOL0     H54390  -1.541   9.284   5.520 -3.2919 -1.1378  2.2131
  403MOL0     H54391  -0.029   9.897   6.698  0.9478  0.0781 -0.2809
  403MOL0     H54392   0.142   9.772   6.784  0.3282  0.6446 -1.1629
  403MOL0     H54393   0.102   9.177   7.060  2.1727 -2.6543 -2.8797
  403MOL0     H54394   0.263   9.087   7.229  0.0282  0.5112  1.9426
  403MOL0     H54395   0.394   9.050   7.427  2.0475 -1.9554  0.5179
  403MOL0     H54396   0.496   9.036   7.282  1.1975 -0.5195  0.5085
  403MOL0     H54397   0.617   8.981   7.490 -0.8534  0.2862 -0.7072
  403MOL0     H54398   0.589   9.146   7.557  0.3394 -2.2389  1.8477
  403MOL0     H54399   0.705   9.245   7.380 -1.3276 -0.3493 -2.6097
  403MOL0     H54400   0.723   9.085   7.296  0.0862  1.6883 -0.8040
  403MOL0     H54401   0.942   9.148   7.412  0.9484  0.6029  2.0144
  403MOL0     H54402   0.879   9.002   7.485  0.6596  0.1756 -2.0997
  403MOL0     H54403   0.834   9.267   7.800 -1.5769 -0.0468  0.4850
  403MOL0     H54404   0.480   9.439   7.229  1.0453 -1.7533  0.1178
  403MOL0     H54405   0.344   9.542   7.056  0.5893  1.0333  2.3463
  404MOL0     O54406   4.174   9.188  10.614  0.1287 -0.1693  0.0664
  404MOL0     C54407   4.141   9.084  10.665  0.1822 -0.2220  0.0499
  404MOL0     O54408   4.025   9.066  10.735  0.3488  0.7752  0.4878
  404MOL0     C54409   3.936   9.170  10.758 -0.4276  0.8282 -0.3003
  404MOL0     C54410   3.978   9.296  10.808 -0.4627  1.1593 -0.0187
  404MOL0     C54411   3.891   9.403  10.818  0.7078 -0.0823 -0.5894
  404MOL0     C54412   3.767   9.393  10.778  0.5246  1.0965  0.0326
  404MOL0     O54413   3.692   9.500  10.809  0.3302 -0.6143  0.0102
  404MOL0     C54414   3.553   9.494  10.763 -0.0433 -0.3121 -0.3486
  404MOL0     C54415   3.491   9.621  10.818  0.6244  0.2157  1.0239
  404MOL0     C54416   3.344   9.617  10.798  1.8319 -0.4313  0.4550
  404MOL0     C54417   3.264   9.531  10.897 -0.5111  0.2344 -0.1775
  404MOL0     C54418   3.112   9.560  10.900 -0.2695  0.4641  0.6975
  404MOL0     C54419   3.047   9.513  10.765 -0.1253  0.3588  0.0102
  404MOL0     C54420   3.044   9.639  10.671  0.1718  0.6313  0.7640
  404MOL0     C54421   2.983   9.609  10.531 -0.9134  0.1325 -0.7616
  404MOL0     N54422   2.837   9.591  10.527  0.1713 -0.1972 -0.2237
  404MOL0     C54423   2.790   9.478  10.482  0.6177  0.4612 -0.3548
  404MOL0     C54424   2.657   9.500  10.475  0.1821 -0.7568 -1.4307
  404MOL0     C54425   2.544   9.419  10.443 -0.2196  0.1430  0.6767
  404MOL0     C54426   2.531   9.301  10.542  1.1503 -0.5905  0.7625
  404MOL0     C54427   2.401   9.236  10.528 -0.2528 -0.5684 -0.1609
  404MOL0     C54428   2.420   9.103  10.610  0.3200  0.7204  0.2552
  404MOL0     O54429   2.471   8.990  10.529  0.8690  0.4511 -0.5559
  404MOL0     C54430   2.380   8.925  10.450  0.1253  0.1598 -0.3337
  404MOL0     C54431   2.250   8.958  10.436 -1.0400  0.3925 -0.4779
  404MOL0     C54432   2.160   8.873  10.360 -0.0373 -0.4849 -1.1003
  404MOL0     C54433   2.013   8.912  10.359 -0.8319  0.2596 -0.1467
  404MOL0     C54434   2.202   8.748  10.315  0.2438 -0.2576 -0.0422
  404MOL0     C54435   2.111   8.654  10.259 -0.1623 -0.3546 -0.0602
  404MOL0     O54436   2.026   8.699  10.167 -0.3010  0.4610  0.0216
  404MOL0     C54437   1.966   8.593  10.094 -0.1896 -0.4427  0.4716
  404MOL0     C54438   1.830   8.583  10.087  0.2573  0.4668  0.1623
  404MOL0     C54439   1.769   8.506   9.986 -0.0665 -1.0051 -0.0058
  404MOL0     C54440   1.848   8.435   9.899 -0.3170  0.5896 -0.3303
  404MOL0     O54441   1.795   8.358   9.801 -0.0385 -0.6442 -0.7749
  404MOL0     C54442   1.680   8.283   9.846 -0.7619  0.2318 -0.8696
  404MOL0     C54443   1.640   8.191   9.735 -0.5341  0.3290  0.3836
  404MOL0     C54444   1.499   8.133   9.757 -0.1890  0.1214  0.5158
  404MOL0     C54445   1.489   8.021   9.644 -0.5699  0.8886  0.4836
  404MOL0     C54446   1.482   8.073   9.500  0.4551 -0.1213 -0.5531
  404MOL0     C54447   1.416   7.977   9.395 -1.0793 -0.2811 -0.5351
  404MOL0     C54448   1.437   8.023   9.252  1.7479 -0.6068 -0.1817
  404MOL0     C54449   1.389   7.918   9.144  0.3173 -0.5929 -0.0953
  404MOL0    Cl54450   1.461   7.763   9.176 -0.5486  0.1653  0.0521
  404MOL0     C54451   1.989   8.448   9.909  1.1075 -0.0192 -0.0279
  404MOL0     C54452   2.048   8.521   9.999  0.9514 -0.1492  0.4994
  404MOL0     O54453   2.117   8.539  10.304 -0.3116  0.4243  0.4926
  404MOL0     C54454   2.333   8.718  10.319 -0.3621 -0.6375  0.4967
  404MOL0     C54455   2.425   8.810  10.386  0.0867  0.8011 -0.5387
  404MOL0     N54456   2.630   9.634  10.514 -0.8437 -0.1447 -0.1440
  404MOL0     N54457   2.742   9.689  10.547 -0.2507  0.2001 -0.3600
  404MOL0     C54458   3.719   9.267  10.723  0.2316  0.1013  0.8499
  404MOL0     C54459   3.807   9.162  10.710 -0.9871  0.1907  0.4753
  404MOL0     C54460   4.225   8.959  10.638  1.7050 -1.0802  0.2195
  404MOL0     C54461   4.175   8.837  10.668 -0.2504  0.3642  0.1534
  404MOL0     C54462   4.249   8.719  10.647  0.4961  0.0138 -0.7615
  404MOL0     C54463   4.372   8.729  10.578 -0.6694  0.0418  0.5319
  404MOL0     O54464   4.424   8.601  10.542  0.4641 -1.0625  0.5870
  404MOL0     C54465   4.532   8.610  10.440 -0.0660 -0.4700 -0.4943
  404MOL0     C54466   4.569   8.472  10.403 -1.1074  0.4142  0.6322
  404MOL0     C54467   4.708   8.471  10.338 -0.7479 -0.4943  0.7542
  404MOL0     C54468   4.722   8.501  10.190  0.4818 -0.8634  0.1515
  404MOL0     C54469   4.680   8.636  10.161  0.8554  0.0202  0.7451
  404MOL0     C54470   4.644   8.749  10.132  0.7174  0.3302 -0.5340
  404MOL0     C54471   4.422   8.857  10.542 -0.4254  0.5466 -0.1144
  404MOL0     C54472   4.346   8.964  10.577 -0.9133  0.0596  0.3432
  404MOL0     H54473   4.082   9.309  10.835 -0.0305  1.4298 -1.6992
  404MOL0     H54474   3.901   9.498  10.869  0.1429 -0.7231  0.7726
  404MOL0     H54475   3.543   9.481  10.655  2.4583 -2.6308 -0.4347
  404MOL0     H54476   3.498   9.410  10.808 -2.5087  1.1536 -0.4619
  404MOL0     H54477   3.509   9.632  10.925 -0.7515 -2.9950  1.6995
  404MOL0     H54478   3.541   9.698  10.760  1.0543  0.5913  1.8729
  404MOL0     H54479   3.310   9.720  10.814 -0.9494 -1.5053  2.1180
  404MOL0     H54480   3.319   9.591  10.695 -0.2864 -0.3913  0.9147
  404MOL0     H54481   3.290   9.426  10.884 -1.6956 -0.4312  2.3106
  404MOL0     H54482   3.290   9.544  11.002  0.9472 -1.5980 -0.2619
  404MOL0     H54483   3.068   9.497  10.978 -0.4250  1.8425  1.7639
  404MOL0     H54484   3.093   9.662  10.936 -0.5478  0.5713  0.2562
  404MOL0     H54485   3.107   9.429  10.728 -0.3041 -0.7400  2.0608
  404MOL0     H54486   2.941   9.491  10.786  0.2167 -1.7608 -0.2187
  404MOL0     H54487   2.973   9.711  10.713  1.4173  1.8772  0.8220
  404MOL0     H54488   3.143   9.681  10.653  0.5859 -0.8973 -0.7137
  404MOL0     H54489   3.040   9.530  10.483  4.5824  3.4964 -0.5941
  404MOL0     H54490   3.000   9.698  10.470 -4.0503 -1.0386 -3.6724
  404MOL0     H54491   2.847   9.387  10.466  0.7703  0.2877  1.0665
  404MOL0     H54492   2.449   9.473  10.441 -0.3783 -0.1507 -0.4189
  404MOL0     H54493   2.569   9.379  10.344 -0.3852  1.3115  0.1431
  404MOL0     H54494   2.527   9.346  10.642  1.5659  1.4947 -0.1103
  404MOL0     H54495   2.615   9.238  10.512  1.5729  0.3549 -0.0699
  404MOL0     H54496   2.363   9.213  10.428 -3.3828  0.0674  0.7513
  404MOL0     H54497   2.325   9.293  10.583  0.2434  0.8077 -0.8446
  404MOL0     H54498   2.318   9.081  10.642  0.6961 -1.2692  0.1817
  404MOL0     H54499   2.470   9.125  10.705 -2.2233  0.9487  1.6398
  404MOL0     H54500   2.210   9.048  10.481  1.5843  1.0231  0.7585
  404MOL0     H54501   1.954   8.828  10.396  2.4538 -1.6177  1.3115
  404MOL0     H54502   1.981   8.998  10.419 -1.4730  0.7223 -1.1217
  404MOL0     H54503   1.989   8.931  10.254 -1.1981 -0.2358 -0.1537
  404MOL0     H54504   1.754   8.640  10.140 -1.3105 -0.2474 -1.2153
  404MOL0     H54505   1.661   8.509   9.993 -0.0118  3.5481  3.2564
  404MOL0     H54506   1.706   8.226   9.936  0.0772 -0.0372 -1.2726
  404MOL0     H54507   1.603   8.345   9.892 -0.3614 -1.6169  2.6511
  404MOL0     H54508   1.638   8.246   9.640  4.3401  2.2860  1.1727
  404MOL0     H54509   1.723   8.121   9.729 -0.1649  0.4852  2.7632
  404MOL0     H54510   1.422   8.210   9.752  1.0027  1.2797 -1.9345
  404MOL0     H54511   1.499   8.087   9.856  1.3070 -0.7891  0.1246
  404MOL0     H54512   1.572   7.950   9.645 -2.1627 -1.0294  0.9642
  404MOL0     H54513   1.397   7.964   9.658  1.0059 -1.8198  0.3840
  404MOL0     H54514   1.582   8.101   9.466  1.3963 -0.5098  1.7014
  404MOL0     H54515   1.413   8.157   9.502 -1.5816 -1.7083 -0.6754
  404MOL0     H54516   1.476   7.886   9.403 -0.4261  0.2135  0.3796
  404MOL0     H54517   1.313   7.954   9.423 -0.4168 -0.4802  1.9536
  404MOL0     H54518   1.545   8.033   9.238  1.9220  0.1173  1.3842
  404MOL0     H54519   1.406   8.127   9.236  2.0379 -0.1550  1.8501
  404MOL0     H54520   1.416   7.942   9.041 -3.2984  0.2873 -0.9788
  404MOL0     H54521   1.280   7.911   9.142  0.3620 -1.5786  0.0819
  404MOL0     H54522   2.053   8.392   9.843 -0.0080 -0.5332 -0.7117
  404MOL0     H54523   2.157   8.525   9.998  0.9357  1.8046 -1.8614
  404MOL0     H54524   2.354   8.621  10.275 -0.5461 -1.6096  2.4471
  404MOL0     H54525   2.526   8.772  10.396 -0.1660  0.7143  4.3696
  404MOL0     H54526   3.620   9.266  10.678  1.2597 -0.7317 -1.5554
  404MOL0     H54527   3.785   9.071  10.655  0.3044  0.2756 -0.2044
  404MOL0     H54528   4.092   8.822  10.736  0.5234 -0.4948  0.9337
  404MOL0     H54529   4.200   8.630  10.687  1.6086  1.3312  4.1656
  404MOL0     H54530   4.491   8.664  10.355 -1.7774 -0.2790  0.4011
  404MOL0     H54531   4.618   8.664  10.481 -0.3239  0.5935 -1.3137
  404MOL0     H54532   4.496   8.440  10.328 -0.7500 -0.8794  0.8101
  404MOL0     H54533   4.564   8.407  10.490 -1.8750  0.9193  0.9689
  404MOL0     H54534   4.757   8.374  10.348 -0.1543 -0.3374 -0.4210
  404MOL0     H54535   4.775   8.546  10.380 -1.4918  0.7123 -0.1197
  404MOL0     H54536   4.658   8.440  10.126  0.6713  1.4750 -2.4578
  404MOL0     H54537   4.821   8.486  10.147 -0.0493 -2.6732 -0.5377
  404MOL0     H54538   4.623   8.849  10.101  1.4263  1.0619  1.1835
  404MOL0     H54539   4.512   8.866  10.482  0.6989  3.3370  1.7847
  404MOL0     H54540   4.394   9.054  10.538  0.9759 -1.9900 -2.4687
  405MOL0     O54541   0.859   3.097   1.154  0.0038  0.4557  0.6775
  405MOL0     C54542   0.802   3.066   1.046  0.3287 -0.5203  0.2679
  405MOL0     O54543   0.861   3.079   0.921  0.1589  0.2078 -0.1839
  405MOL0     C54544   0.988   3.120   0.913  0.1000 -0.1405  0.3758
  405MOL0     C54545   1.054   3.214   0.998 -0.5024 -0.3765  0.4589
  405MOL0     C54546   1.188   3.249   0.976 -0.0157 -0.9199 -1.0406
  405MOL0     C54547   1.259   3.211   0.868  0.3106  0.2260  0.8608
  405MOL0     O54548   1.385   3.258   0.833  0.5099  1.0028  0.0292
  405MOL0     C54549   1.459   3.334   0.923 -0.5426  0.5806  0.1269
  405MOL0     C54550   1.592   3.340   0.855 -0.6263  0.0963  0.2240
  405MOL0     C54551   1.685   3.426   0.942 -0.5929  0.7175 -0.2514
  405MOL0     C54552   1.829   3.398   0.901  0.1651  0.2748  0.4009
  405MOL0     C54553   1.937   3.465   0.983  0.0114  0.5725 -0.2538
  405MOL0     C54554   2.080   3.403   0.972 -0.5081 -0.0285  0.1973
  405MOL0     C54555   2.142   3.446   0.845  0.3624 -0.5707 -0.2921
  405MOL0     C54556   2.272   3.367   0.814 -0.6175 -0.8759 -0.4124
  405MOL0     N54557   2.260   3.224   0.782  0.3579  0.6381  0.4478
  405MOL0     C54558   2.149   3.179   0.706  0.3365 -0.3590  0.0507
  405MOL0     C54559   2.159   3.043   0.712  0.3587 -0.5898  0.6073
  405MOL0     C54560   2.059   2.948   0.667 -0.6070 -0.2587 -0.0958
  405MOL0     C54561   1.913   2.998   0.690  0.7289 -0.2412  0.3169
  405MOL0     C54562   1.836   3.009   0.562 -0.2795  0.1885  1.3918
  405MOL0     C54563   1.683   3.000   0.597 -0.5023 -0.8336  1.0127
  405MOL0     O54564   1.598   2.941   0.492 -0.0151 -1.0927  0.0526
  405MOL0     C54565   1.466   2.962   0.484 -0.0903 -0.0812  0.6176
  405MOL0     C54566   1.381   2.869   0.541 -0.7053  0.3551  0.4403
  405MOL0     C54567   1.239   2.872   0.530  0.2741 -0.2177 -0.7600
  405MOL0     C54568   1.175   2.743   0.580 -0.4110 -0.6822  0.0707
  405MOL0     C54569   1.174   2.995   0.482  0.4418 -0.0473 -0.2875
  405MOL0     C54570   1.015   3.001   0.468  0.9115  0.4001 -0.9169
  405MOL0     O54571   0.942   2.901   0.528  0.2960  0.0566 -0.4288
  405MOL0     C54572   0.807   2.882   0.526 -0.0241 -0.0203 -0.2909
  405MOL0     C54573   0.703   2.975   0.566  0.0233  0.0131  0.7293
  405MOL0     C54574   0.567   2.939   0.566  0.1914 -0.4281 -0.6655
  405MOL0     C54575   0.535   2.815   0.521  0.2916 -0.6716 -0.0005
  405MOL0     O54576   0.409   2.773   0.502 -0.3878  0.5538 -0.4125
  405MOL0     C54577   0.315   2.871   0.456 -0.6373 -0.3371  0.4374
  405MOL0     C54578   0.322   2.901   0.301 -0.3609 -0.9382  0.0380
  405MOL0     C54579   0.278   2.782   0.210 -0.6651 -0.4310 -0.5645
  405MOL0     C54580   0.281   2.812   0.068  0.1602  0.0566  0.0454
  405MOL0     C54581   0.278   2.695  -0.033 -0.6426 -0.1412 -0.2344
  405MOL0     C54582   0.150   2.617  -0.029  0.9003  0.7310 -0.0359
  405MOL0     C54583   0.173   2.488  -0.119 -0.0267  0.9453 -0.1301
  405MOL0     C54584   0.046   2.415  -0.168  0.2424 -0.0779 -0.2041
  405MOL0    Cl54585  -0.003   2.316  -0.024 -0.2756  0.5044 -0.5167
  405MOL0     C54586   0.631   2.724   0.480 -0.5369  0.0523 -0.6096
  405MOL0     C54587   0.768   2.759   0.483  0.6254  0.6220 -0.3836
  405MOL0     O54588   0.969   3.099   0.406  0.4121 -0.2198  1.1796
  405MOL0     C54589   1.256   3.097   0.437 -0.0462 -0.5693  0.2961
  405MOL0     C54590   1.394   3.078   0.436 -0.8299 -0.3040 -0.6634
  405MOL0     N54591   2.284   3.015   0.780  0.7180  0.2114  0.9258
  405MOL0     N54592   2.339   3.125   0.818  0.8296  0.1987 -0.9532
  405MOL0     C54593   1.188   3.123   0.778 -1.1430 -0.1402 -0.8562
  405MOL0     C54594   1.064   3.073   0.806 -0.2654 -0.2059  0.4345
  405MOL0     C54595   0.673   2.978   1.049 -0.2217 -1.1193  0.1331
  405MOL0     C54596   0.612   2.937   0.926 -0.6174  0.1435 -0.1802
  405MOL0     C54597   0.511   2.843   0.920 -0.6067  0.3013  0.0771
  405MOL0     C54598   0.443   2.811   1.039 -0.0857  0.2515  0.1905
  405MOL0     O54599   0.332   2.730   1.044 -0.1282  0.2811  0.3423
  405MOL0     C54600   0.285   2.662   0.921  0.3690  0.2580 -0.2378
  405MOL0     C54601   0.187   2.552   0.961  0.6639 -0.2759 -0.6341
  405MOL0     C54602   0.068   2.611   1.037  0.3026 -0.2664  0.3182
  405MOL0     C54603  -0.034   2.696   0.943 -0.0431 -0.2996 -0.3318
  405MOL0     C54604  -0.134   2.750   1.028  0.1902  0.2939 -0.1373
  405MOL0     C54605  -0.211   2.804   1.106 -0.0134 -0.2150  0.5940
  405MOL0     C54606   0.499   2.853   1.164  0.4758  1.2508 -0.7069
  405MOL0     C54607   0.617   2.931   1.166  0.7277  0.0032 -0.3879
  405MOL0     H54608   1.005   3.268   1.078 -0.1562 -1.6140  1.5440
  405MOL0     H54609   1.223   3.330   1.040 -4.0777 -1.2402  1.9704
  405MOL0     H54610   1.429   3.439   0.936  1.6185  1.2784 -0.0492
  405MOL0     H54611   1.461   3.286   1.021  1.1787 -3.5365 -1.6936
  405MOL0     H54612   1.623   3.235   0.849 -1.3426 -0.2909  2.5208
  405MOL0     H54613   1.572   3.381   0.756  1.4613  1.9318  0.4703
  405MOL0     H54614   1.669   3.532   0.925 -1.7572  0.1834 -3.1797
  405MOL0     H54615   1.676   3.393   1.046  1.5721 -1.0025 -0.5190
  405MOL0     H54616   1.850   3.290   0.901  0.3697  0.3013  1.8552
  405MOL0     H54617   1.841   3.430   0.797 -0.3843  0.7939  0.4917
  405MOL0     H54618   1.948   3.571   0.957 -0.5187  0.5880 -0.4339
  405MOL0     H54619   1.908   3.461   1.088 -0.7255 -1.8677 -0.4929
  405MOL0     H54620   2.130   3.444   1.060  0.7978  0.1431 -0.6080
  405MOL0     H54621   2.081   3.294   0.986  2.5716  0.1653  2.6600
  405MOL0     H54622   2.073   3.428   0.761  2.6135 -1.0412 -2.1299
  405MOL0     H54623   2.168   3.552   0.840  1.1594 -0.7849 -0.7896
  405MOL0     H54624   2.347   3.379   0.893  0.5951 -0.4511 -1.5895
  405MOL0     H54625   2.325   3.419   0.734  0.6854  0.4344  1.2308
  405MOL0     H54626   2.072   3.234   0.654  0.7135 -2.4241 -2.9489
  405MOL0     H54627   2.068   2.932   0.559 -4.0390  2.0740 -0.9118
  405MOL0     H54628   2.079   2.855   0.720 -0.3145  1.0581  2.2396
  405MOL0     H54629   1.921   3.089   0.749  4.1596 -1.6905  2.4099
  405MOL0     H54630   1.860   2.926   0.752 -1.4299  0.7140 -0.3277
  405MOL0     H54631   1.866   2.923   0.500 -2.0736  0.9663 -0.6929
  405MOL0     H54632   1.851   3.101   0.505  0.8852  0.4957  2.1699
  405MOL0     H54633   1.657   3.105   0.615 -0.8335 -0.2973 -2.0360
  405MOL0     H54634   1.684   2.948   0.693  2.7832  1.4292  2.4172
  405MOL0     H54635   1.431   2.791   0.597  1.1990  1.8591  0.9509
  405MOL0     H54636   1.130   2.755   0.679  1.9184  0.3136  1.0894
  405MOL0     H54637   1.098   2.714   0.509  0.6611 -1.0595 -0.9659
  405MOL0     H54638   1.249   2.664   0.598  0.6807  0.2930 -0.0102
  405MOL0     H54639   0.741   3.074   0.589  2.6565  0.0378 -2.8819
  405MOL0     H54640   0.497   3.018   0.591  3.1143  1.4444  2.6882
  405MOL0     H54641   0.213   2.838   0.475 -2.2633  3.9334  0.2069
  405MOL0     H54642   0.322   2.968   0.505 -0.4158  0.3693 -0.9476
  405MOL0     H54643   0.256   2.987   0.288 -1.2587 -1.7612 -1.1817
  405MOL0     H54644   0.424   2.931   0.279 -0.5970  0.5724  0.8618
  405MOL0     H54645   0.177   2.749   0.237 -1.5165  1.2140 -1.6033
  405MOL0     H54646   0.339   2.698   0.244  1.0568  1.2625  0.7278
  405MOL0     H54647   0.199   2.878   0.038  1.3896  0.3035 -3.1739
  405MOL0     H54648   0.370   2.872   0.046 -0.4918  0.8427 -0.5193
  405MOL0     H54649   0.359   2.626  -0.008 -1.7735 -1.3833  0.1223
  405MOL0     H54650   0.294   2.743  -0.130 -0.3545  0.8004  0.2658
  405MOL0     H54651   0.134   2.577   0.071 -1.1369 -1.5063 -1.1529
  405MOL0     H54652   0.068   2.682  -0.063  2.6054  2.2023 -1.5692
  405MOL0     H54653   0.234   2.418  -0.061 -2.3356  0.7263  2.2226
  405MOL0     H54654   0.239   2.515  -0.202 -0.6116  2.2734 -0.1884
  405MOL0     H54655   0.076   2.339  -0.240  3.4567  0.0471  0.8285
  405MOL0     H54656  -0.035   2.478  -0.206 -2.9121 -2.1384  2.5364
  405MOL0     H54657   0.606   2.619   0.466  0.0282 -0.4036  1.4374
  405MOL0     H54658   0.848   2.686   0.475  2.3722  2.4887 -0.7168
  405MOL0     H54659   1.211   3.184   0.390  1.2296  0.3713  0.7391
  405MOL0     H54660   1.473   3.149   0.413  1.9747 -2.9859  0.0371
  405MOL0     H54661   1.250   3.091   0.696  4.0654  1.2438  2.0699
  405MOL0     H54662   1.016   3.005   0.736  1.5217 -2.5029  1.3326
  405MOL0     H54663   0.665   2.961   0.835  1.8357 -2.7664  0.2968
  405MOL0     H54664   0.474   2.810   0.823  1.8362  1.2804 -1.2608
  405MOL0     H54665   0.245   2.733   0.848  0.9413 -0.8822 -1.7317
  405MOL0     H54666   0.373   2.620   0.870  1.4163 -0.3800  1.9627
  405MOL0     H54667   0.235   2.485   1.033 -0.5862 -1.9580 -1.3123
  405MOL0     H54668   0.151   2.493   0.877  0.1221 -1.0908  0.1433
  405MOL0     H54669   0.105   2.662   1.126  0.8629 -0.5832  0.2732
  405MOL0     H54670   0.012   2.527   1.081  2.3331 -1.3618  0.9472
  405MOL0     H54671  -0.079   2.630   0.868  1.3051 -0.9503 -0.6040
  405MOL0     H54672   0.019   2.777   0.893  0.4587 -1.2149 -1.3251
  405MOL0     H54673  -0.270   2.842   1.188 -0.2748  0.3207  0.1657
  405MOL0     H54674   0.452   2.818   1.255 -1.6225 -1.9712 -2.8120
  405MOL0     H54675   0.669   2.943   1.261  2.5650 -1.7214 -1.1028
  406MOL0     O54676   5.185   9.535  10.968  0.0543 -0.0365  0.7378
  406MOL0     C54677   5.080   9.501  10.910  0.0527 -1.2155 -0.0671
  406MOL0     O54678   4.961   9.557  10.950  0.5778 -0.5149 -0.1770
  406MOL0     C54679   4.961   9.663  11.042 -1.0482  0.4775  0.0480
  406MOL0     C54680   4.925   9.652  11.183  0.7773  0.2406  0.1351
  406MOL0     C54681   4.931   9.768  11.266  1.7861  0.2270 -0.4088
  406MOL0     C54682   4.957   9.898  11.215 -0.4529 -0.4547 -0.3189
  406MOL0     O54683   4.955  10.005  11.300  0.7458 -0.1739  0.1734
  406MOL0     C54684   5.041  10.117  11.286  0.1071  0.4587 -0.0990
  406MOL0     C54685   5.076  10.170  11.438  0.1772  0.1907  0.2859
  406MOL0     C54686   4.963  10.160  11.541  0.0678  0.0607 -0.3708
  406MOL0     C54687   4.853  10.258  11.502  0.2694 -0.7188 -0.5413
  406MOL0     C54688   4.746  10.274  11.615  0.0321  0.3030  0.1023
  406MOL0     C54689   4.686  10.147  11.681  0.4497  0.4051  0.8331
  406MOL0     C54690   4.605  10.065  11.577  0.2247 -0.7425  0.9650
  406MOL0     C54691   4.541   9.952  11.642 -0.4077 -0.1386  0.3744
  406MOL0     N54692   4.451   9.884  11.549 -1.1554  0.4506 -0.0596
  406MOL0     C54693   4.315   9.858  11.566  0.0168  0.6347 -0.2876
  406MOL0     C54694   4.287   9.802  11.449  0.0525  0.4266 -0.0583
  406MOL0     C54695   4.155   9.741  11.416 -0.5551 -0.6723 -0.6187
  406MOL0     C54696   4.106   9.625  11.499 -0.4604 -1.0884 -0.1124
  406MOL0     C54697   4.203   9.513  11.524 -0.1751 -0.1881  0.1065
  406MOL0     C54698   4.241   9.443  11.398 -0.1700  1.2536 -0.1639
  406MOL0     O54699   4.324   9.329  11.420  0.0850  0.6362 -0.5169
  406MOL0     C54700   4.460   9.332  11.383  0.7227 -0.7000 -0.2244
  406MOL0     C54701   4.507   9.220  11.321 -0.5584 -0.0261 -0.1554
  406MOL0     C54702   4.645   9.205  11.302 -0.1505  0.2443 -0.3035
  406MOL0     C54703   4.701   9.084  11.233 -0.3591  0.1485 -0.0504
  406MOL0     C54704   4.730   9.308  11.344 -0.3531  0.3448  0.1627
  406MOL0     C54705   4.878   9.308  11.319  0.9004  1.0045 -1.1965
  406MOL0     O54706   4.926   9.274  11.193 -0.0891  0.0146  0.3367
  406MOL0     C54707   5.050   9.276  11.162 -0.8639 -0.3215  0.2011
  406MOL0     C54708   5.157   9.332  11.229 -0.7651  0.2867 -0.0909
  406MOL0     C54709   5.289   9.333  11.177  0.4662  0.3256 -0.2888
  406MOL0     C54710   5.315   9.257  11.065  0.0552 -0.0999 -0.0689
  406MOL0     O54711   5.449   9.245  11.018 -0.7154  0.8052  0.0660
  406MOL0     C54712   5.537   9.343  11.055 -0.8358  0.4144  1.1788
  406MOL0     C54713   5.666   9.335  10.970 -0.3918 -0.2687 -0.3796
  406MOL0     C54714   5.628   9.339  10.824 -0.3635 -0.2547  0.3073
  406MOL0     C54715   5.750   9.336  10.728 -0.8405  0.6214  0.7518
  406MOL0     C54716   5.740   9.399  10.593 -0.3288  0.2114  0.3302
  406MOL0     C54717   5.703   9.556  10.593  0.1629  0.1325  0.2592
  406MOL0     C54718   5.808   9.649  10.620  0.2124 -0.1780  0.2247
  406MOL0     C54719   5.925   9.664  10.518  0.3343 -1.1042 -0.4649
  406MOL0    Cl54720   5.862   9.658  10.342 -0.0107 -0.0068  0.3112
  406MOL0     C54721   5.212   9.197  10.992  0.6709 -0.2905  0.8195
  406MOL0     C54722   5.076   9.207  11.036  0.5526  0.6322  0.1045
  406MOL0     O54723   4.939   9.340  11.420 -0.0658 -0.1106  0.0277
  406MOL0     C54724   4.679   9.424  11.397 -0.6263 -0.2400 -0.6379
  406MOL0     C54725   4.547   9.437  11.408 -1.0081 -0.2923  0.7419
  406MOL0     N54726   4.398   9.791  11.373 -0.9574 -1.1953  1.1909
  406MOL0     N54727   4.501   9.844  11.433  0.4471 -0.4124 -0.6094
  406MOL0     C54728   4.979   9.909  11.084 -0.2501  0.2776  0.2966
  406MOL0     C54729   4.976   9.796  10.997 -1.0580 -0.1636  0.1284
  406MOL0     C54730   5.083   9.406  10.795 -0.4049 -0.1540  0.7157
  406MOL0     C54731   5.201   9.373  10.724  0.1525  0.9079 -0.0666
  406MOL0     C54732   5.190   9.294  10.607  0.2276 -0.1102  1.4508
  406MOL0     C54733   5.071   9.243  10.563 -0.3511  0.0384  0.2808
  406MOL0     O54734   5.079   9.174  10.449  0.3569  0.3526  1.0724
  406MOL0     C54735   4.974   9.192  10.352  0.0235 -1.1388 -0.1528
  406MOL0     C54736   5.027   9.194  10.210  0.2418 -0.3858 -0.6605
  406MOL0     C54737   5.102   9.077  10.145 -0.1715 -0.2975 -0.3036
  406MOL0     C54738   5.003   8.957  10.129 -0.5537 -0.2003 -0.3349
  406MOL0     C54739   4.962   8.894  10.261  0.1674  0.4977  1.1073
  406MOL0     C54740   4.923   8.826  10.354  0.1509  0.0329  0.1870
  406MOL0     C54741   4.955   9.263  10.640 -0.2964  1.5341  0.5474
  406MOL0     C54742   4.962   9.342  10.756 -0.3893  0.1074 -0.0043
  406MOL0     H54743   4.896   9.550  11.208 -0.4836  0.3080 -0.9505
  406MOL0     H54744   4.900   9.761  11.369  1.8483  1.7362 -0.2667
  406MOL0     H54745   5.138  10.098  11.239 -0.7861 -0.6029 -1.5591
  406MOL0     H54746   4.993  10.200  11.233 -1.0403  0.4978  0.9469
  406MOL0     H54747   5.170  10.123  11.467 -0.9368  0.7801  5.7858
  406MOL0     H54748   5.102  10.275  11.423 -1.3907  0.5829  0.1440
  406MOL0     H54749   4.923  10.059  11.528  2.2772 -0.8193 -0.7158
  406MOL0     H54750   4.996  10.172  11.644 -2.2128  0.0376  0.4239
  406MOL0     H54751   4.897  10.354  11.474 -1.0378  0.9145  2.5770
  406MOL0     H54752   4.803  10.227  11.409  0.1973 -0.2988 -0.6439
  406MOL0     H54753   4.783  10.338  11.695 -3.1820  0.7010  1.4303
  406MOL0     H54754   4.664  10.336  11.577  1.6730 -0.5302 -5.7885
  406MOL0     H54755   4.765  10.093  11.733  0.8500  0.8257  0.6700
  406MOL0     H54756   4.622  10.168  11.767  2.7200 -0.9700  2.9731
  406MOL0     H54757   4.534  10.130  11.525  1.2041 -0.0194  0.5048
  406MOL0     H54758   4.672  10.025  11.501 -1.4985 -0.1012 -0.9818
  406MOL0     H54759   4.475   9.979  11.725  1.6110 -0.6832  2.2445
  406MOL0     H54760   4.614   9.880  11.682  4.0907  2.4848 -2.3407
  406MOL0     H54761   4.248   9.888  11.646  3.5264  1.3532  2.6417
  406MOL0     H54762   4.077   9.817  11.428 -0.2417 -0.5033  0.3688
  406MOL0     H54763   4.151   9.715  11.309 -1.1139 -0.0674 -0.7467
  406MOL0     H54764   4.020   9.580  11.449 -2.7632  0.3768  2.3061
  406MOL0     H54765   4.066   9.656  11.596  3.1676 -1.1464  1.5636
  406MOL0     H54766   4.147   9.445  11.589  2.3591  0.5900  3.3803
  406MOL0     H54767   4.283   9.548  11.590 -1.7834 -0.4479  2.3205
  406MOL0     H54768   4.292   9.509  11.327  1.1741  0.7602  0.3224
  406MOL0     H54769   4.148   9.404  11.355  0.0175  1.7261 -1.0207
  406MOL0     H54770   4.447   9.134  11.293 -0.7756  0.1586 -0.2573
  406MOL0     H54771   4.770   9.099  11.149 -1.4629 -0.9156 -1.1841
  406MOL0     H54772   4.779   9.036  11.293 -0.5164 -0.9209 -0.6713
  406MOL0     H54773   4.626   9.013  11.196  1.2679 -0.9915 -1.3589
  406MOL0     H54774   5.139   9.383  11.323  0.7591 -2.2862  1.7102
  406MOL0     H54775   5.367   9.380  11.236  0.3504 -2.3653  2.2227
  406MOL0     H54776   5.486   9.439  11.038  0.0463  0.4746 -1.5139
  406MOL0     H54777   5.564   9.327  11.160  0.1207 -2.4351  0.5855
  406MOL0     H54778   5.744   9.400  11.010 -0.3525 -0.2477 -0.4908
  406MOL0     H54779   5.704   9.232  10.973  2.1106  0.5501 -1.8079
  406MOL0     H54780   5.565   9.428  10.811 -0.8508  0.2448  4.6463
  406MOL0     H54781   5.573   9.248  10.801  1.6437 -0.7617 -3.1074
  406MOL0     H54782   5.825   9.395  10.783  0.6310 -1.3950  1.0456
  406MOL0     H54783   5.791   9.235  10.721  0.0190  1.0861 -2.0918
  406MOL0     H54784   5.656   9.350  10.543 -1.4564  2.5960 -0.2489
  406MOL0     H54785   5.830   9.392  10.531  1.0399 -1.8033  2.3668
  406MOL0     H54786   5.663   9.572  10.493  0.6592 -0.1173  0.0195
  406MOL0     H54787   5.626   9.587  10.665 -0.7758 -0.0861 -0.6383
  406MOL0     H54788   5.858   9.629  10.715 -0.4473 -2.0265  0.2153
  406MOL0     H54789   5.760   9.747  10.630 -0.5023 -0.2087 -2.2473
  406MOL0     H54790   6.001   9.586  10.531  1.5576  0.0433 -0.5133
  406MOL0     H54791   5.971   9.760  10.542 -0.0530 -1.0128 -0.0687
  406MOL0     H54792   5.245   9.133  10.911 -0.5457  1.0628 -0.8161
  406MOL0     H54793   4.988   9.158  10.994 -1.3960  1.8096  2.5417
  406MOL0     H54794   4.740   9.503  11.439 -1.4541 -1.6312  3.7214
  406MOL0     H54795   4.503   9.526  11.452 -2.1580 -1.0906  1.2666
  406MOL0     H54796   4.996  10.007  11.041  0.7926 -0.2759 -0.6134
  406MOL0     H54797   4.983   9.819  10.892 -2.0722 -1.1513 -0.1847
  406MOL0     H54798   5.294   9.418  10.759 -0.5737  1.1239  1.6733
  406MOL0     H54799   5.282   9.266  10.556 -0.8999 -0.2539 -0.5809
  406MOL0     H54800   4.898   9.113  10.357 -1.0992 -0.0271  0.6771
  406MOL0     H54801   4.921   9.283  10.378  0.2873 -1.6955  2.5532
  406MOL0     H54802   5.102   9.274  10.212  0.6767 -0.6729  3.5978
  406MOL0     H54803   4.945   9.216  10.140  0.3692 -5.3868 -2.7906
  406MOL0     H54804   5.197   9.057  10.196 -0.7358  0.9003  1.2957
  406MOL0     H54805   5.128   9.101  10.042  0.4149 -0.1542 -0.1288
  406MOL0     H54806   5.060   8.898  10.057 -1.7335  1.3501 -2.6313
  406MOL0     H54807   4.912   8.981  10.075 -0.5212 -2.3807 -1.4299
  406MOL0     H54808   4.894   8.764  10.436  1.3125  0.0914  0.6542
  406MOL0     H54809   4.860   9.216  10.615  0.3818  1.1750 -1.6182
  406MOL0     H54810   4.867   9.365  10.803 -1.1772 -1.6179 -0.7136
  407MOL0     O54811   1.663   3.546   8.551 -0.3667 -0.0489  0.0983
  407MOL0     C54812   1.669   3.625   8.652  0.1407 -0.4794  0.2078
  407MOL0     O54813   1.567   3.677   8.727 -0.0548 -0.6525  0.4805
  407MOL0     C54814   1.436   3.655   8.695 -0.7027  0.3783 -0.6071
  407MOL0     C54815   1.390   3.662   8.561 -0.1702  0.4008  0.3045
  407MOL0     C54816   1.252   3.644   8.537 -0.1038  1.3824  0.7924
  407MOL0     C54817   1.163   3.609   8.633 -0.2705  0.4028 -0.4414
  407MOL0     O54818   1.030   3.578   8.609 -0.9288 -0.2559 -0.3801
  407MOL0     C54819   0.956   3.704   8.581  0.1075 -0.3400 -0.2896
  407MOL0     C54820   0.916   3.769   8.711 -0.1848 -0.0868  0.2059
  407MOL0     C54821   0.825   3.895   8.702 -0.6632  0.0279  0.0488
  407MOL0     C54822   0.899   4.012   8.636 -0.2735 -0.1572 -0.0281
  407MOL0     C54823   0.849   4.155   8.656  0.0059 -0.0256  0.7366
  407MOL0     C54824   0.729   4.200   8.579 -0.2733  0.3811  0.0022
  407MOL0     C54825   0.614   4.104   8.542 -0.8223  1.2125  0.3818
  407MOL0     C54826   0.526   4.074   8.650  0.2638 -0.6680  0.1863
  407MOL0     N54827   0.413   4.167   8.685  0.6042 -0.0521 -0.3356
  407MOL0     C54828   0.319   4.210   8.598  0.0470 -0.1932  0.0021
  407MOL0     C54829   0.234   4.281   8.672 -0.2305 -0.1788  0.3811
  407MOL0     C54830   0.116   4.368   8.642  0.2635  0.1378 -0.5166
  407MOL0     C54831  -0.010   4.286   8.594 -0.1250 -0.0745 -0.9305
  407MOL0     C54832  -0.133   4.366   8.597  0.7444  0.1719 -0.3157
  407MOL0     C54833  -0.154   4.442   8.465  0.6855 -0.3504  0.7391
  407MOL0     O54834  -0.265   4.526   8.470 -0.2219  0.0957 -0.5910
  407MOL0     C54835  -0.325   4.564   8.353  0.5193  0.4191 -0.2179
  407MOL0     C54836  -0.270   4.580   8.223  0.2712  0.7575 -0.0604
  407MOL0     C54837  -0.349   4.624   8.122  0.2977  0.8116  0.2874
  407MOL0     C54838  -0.288   4.609   7.986  0.4309  0.2312 -0.0255
  407MOL0     C54839  -0.483   4.673   8.149 -0.4091  0.3220 -0.7013
  407MOL0     C54840  -0.570   4.735   8.046  0.3004  0.8042 -0.1093
  407MOL0     O54841  -0.702   4.745   8.070  0.4711  0.0039 -0.5690
  407MOL0     C54842  -0.796   4.804   7.979  0.4258  0.6059  0.4742
  407MOL0     C54843  -0.800   4.794   7.837 -0.5312  0.8230 -0.4854
  407MOL0     C54844  -0.888   4.862   7.762  0.1610 -0.3075  0.3182
  407MOL0     C54845  -0.986   4.940   7.816  0.4582 -0.1687  0.0038
  407MOL0     O54846  -1.084   4.992   7.728  0.8691  0.5553 -0.0648
  407MOL0     C54847  -1.154   5.111   7.775  0.7256 -0.2965  0.1773
  407MOL0     C54848  -1.201   5.176   7.646 -0.4768 -0.0470  0.2014
  407MOL0     C54849  -1.285   5.305   7.657 -0.1488 -0.8542 -0.8292
  407MOL0     C54850  -1.227   5.410   7.749 -0.1164  0.4429  0.6483
  407MOL0     C54851  -1.305   5.536   7.729 -0.5432 -1.1503 -0.1432
  407MOL0     C54852  -1.449   5.531   7.781  0.2182  0.0457 -0.1522
  407MOL0     C54853  -1.498   5.679   7.781  0.1617 -1.3913  0.0776
  407MOL0     C54854  -1.652   5.695   7.788 -0.2874 -0.2229 -0.1079
  407MOL0    Cl54855  -1.704   5.866   7.752  0.0194  0.2630 -0.0838
  407MOL0     C54856  -1.004   4.941   7.956 -0.5975  0.1144  0.3181
  407MOL0     C54857  -0.911   4.866   8.034  0.4813  0.1514 -1.0453
  407MOL0     O54858  -0.513   4.799   7.956  0.1037  0.3752 -0.0864
  407MOL0     C54859  -0.536   4.657   8.275 -0.1289 -0.2481 -0.2651
  407MOL0     C54860  -0.461   4.593   8.371  0.0217 -1.0127  0.1309
  407MOL0     N54861   0.281   4.267   8.801 -0.0703  0.1850  0.4031
  407MOL0     N54862   0.392   4.207   8.809  0.0608 -0.5523 -0.0746
  407MOL0     C54863   1.208   3.595   8.763 -0.1842 -0.1361  0.8493
  407MOL0     C54864   1.344   3.606   8.794 -0.1317  0.5344 -0.3239
  407MOL0     C54865   1.808   3.655   8.689 -0.1296 -0.2604 -0.0172
  407MOL0     C54866   1.926   3.584   8.640 -0.5626 -1.2139  0.6151
  407MOL0     C54867   2.052   3.611   8.690 -0.1001 -0.2688 -0.1878
  407MOL0     C54868   2.070   3.717   8.783 -0.3267  1.0327 -0.3106
  407MOL0     O54869   2.192   3.753   8.835  0.2504 -0.4427 -0.6594
  407MOL0     C54870   2.317   3.673   8.801  1.0624 -0.0318  0.2491
  407MOL0     C54871   2.430   3.710   8.897 -0.2997 -0.3816 -0.3827
  407MOL0     C54872   2.393   3.695   9.040 -0.3328 -0.1504 -0.4721
  407MOL0     C54873   2.514   3.714   9.127 -0.4173 -0.1167 -1.0662
  407MOL0     C54874   2.614   3.616   9.111  0.2786  0.3480 -0.7127
  407MOL0     C54875   2.708   3.541   9.089  0.0090 -0.1680  0.6561
  407MOL0     C54876   1.957   3.792   8.828 -0.0200  0.3236  0.3606
  407MOL0     C54877   1.831   3.758   8.787  0.7574  0.1754 -0.3242
  407MOL0     H54878   1.454   3.683   8.476 -0.3252 -0.6338 -0.0892
  407MOL0     H54879   1.207   3.663   8.440 -1.2074 -1.3179  0.6933
  407MOL0     H54880   0.996   3.777   8.511 -0.5711  1.2644  0.9219
  407MOL0     H54881   0.856   3.671   8.551 -1.4516  1.4685  2.4519
  407MOL0     H54882   0.854   3.700   8.771  0.9942 -0.7336  0.7190
  407MOL0     H54883   1.004   3.789   8.773 -0.4741 -0.5458  0.7751
  407MOL0     H54884   0.732   3.866   8.651 -0.9011  1.0562 -0.1157
  407MOL0     H54885   0.801   3.924   8.805  2.5517  0.5634  0.7409
  407MOL0     H54886   0.997   4.004   8.684 -0.8411 -3.5567  0.8355
  407MOL0     H54887   0.902   3.983   8.530  2.1265 -0.4472  0.0693
  407MOL0     H54888   0.817   4.154   8.760 -0.2843 -1.9242  0.6793
  407MOL0     H54889   0.928   4.226   8.631 -2.4674  2.8003  0.3907
  407MOL0     H54890   0.704   4.287   8.641  3.6684 -1.0143  4.1337
  407MOL0     H54891   0.768   4.239   8.485 -1.3576 -0.0433 -0.6457
  407MOL0     H54892   0.561   4.148   8.457 -2.2484  1.3170  1.2957
  407MOL0     H54893   0.661   4.012   8.507 -1.2289  0.0223  2.8025
  407MOL0     H54894   0.576   4.060   8.747  0.6164 -2.9290 -0.2630
  407MOL0     H54895   0.472   3.982   8.625  1.3787 -1.1059 -0.7056
  407MOL0     H54896   0.321   4.192   8.491  0.2878  2.2816 -0.4747
  407MOL0     H54897   0.096   4.433   8.729 -2.3020 -0.2845 -0.7222
  407MOL0     H54898   0.146   4.433   8.559  0.8855  1.2498  0.5385
  407MOL0     H54899  -0.017   4.199   8.660  0.1958  0.9877  0.5680
  407MOL0     H54900   0.022   4.253   8.495  0.6195 -1.8128 -0.1532
  407MOL0     H54901  -0.138   4.442   8.675 -0.4846 -0.3085  0.0998
  407MOL0     H54902  -0.214   4.297   8.621  2.0883 -0.5755  2.4958
  407MOL0     H54903  -0.159   4.367   8.385 -3.2953 -1.9118  2.2064
  407MOL0     H54904  -0.064   4.502   8.449  0.3427 -0.4247 -1.9447
  407MOL0     H54905  -0.165   4.570   8.201 -0.4856  0.4753 -4.5137
  407MOL0     H54906  -0.370   4.563   7.930  0.9119  0.5980 -1.0411
  407MOL0     H54907  -0.264   4.699   7.930  0.0607  0.7943  0.7022
  407MOL0     H54908  -0.197   4.547   7.986 -1.0807 -2.1156 -0.5987
  407MOL0     H54909  -0.716   4.733   7.806  0.0013  0.0633  2.1686
  407MOL0     H54910  -0.884   4.859   7.654 -0.4986 -0.3817  0.2876
  407MOL0     H54911  -1.236   5.093   7.845 -0.9522  0.6938 -1.4384
  407MOL0     H54912  -1.074   5.169   7.822  1.7723 -2.7717  1.6375
  407MOL0     H54913  -1.120   5.199   7.576 -0.6785 -0.4303 -0.1664
  407MOL0     H54914  -1.257   5.093   7.602 -0.9254 -0.6838  1.8859
  407MOL0     H54915  -1.387   5.282   7.691 -0.5848  0.5492 -1.1208
  407MOL0     H54916  -1.286   5.344   7.555  1.8440  2.3977  0.2472
  407MOL0     H54917  -1.245   5.377   7.851 -2.3379  0.0479  0.1945
  407MOL0     H54918  -1.123   5.419   7.715 -0.6896  0.9228 -1.0800
  407MOL0     H54919  -1.292   5.583   7.631 -0.1874  1.6922  1.1797
  407MOL0     H54920  -1.250   5.598   7.800 -0.5476 -1.9151  0.5534
  407MOL0     H54921  -1.507   5.458   7.724 -0.7324 -0.7348  1.7340
  407MOL0     H54922  -1.437   5.508   7.888  3.1692 -0.2282 -0.4591
  407MOL0     H54923  -1.449   5.723   7.693  0.4609 -0.5024  0.6782
  407MOL0     H54924  -1.453   5.732   7.865 -1.2188  1.0879 -0.6402
  407MOL0     H54925  -1.682   5.663   7.888 -1.2904 -2.8278 -1.1652
  407MOL0     H54926  -1.692   5.624   7.715 -0.3188 -1.6606  1.2567
  407MOL0     H54927  -1.091   4.993   7.996  0.4925  2.4281 -0.1655
  407MOL0     H54928  -0.916   4.865   8.143  0.2167 -1.8349 -1.0466
  407MOL0     H54929  -0.639   4.691   8.289 -0.7262 -2.2588  0.4964
  407MOL0     H54930  -0.509   4.572   8.466 -0.5570 -1.2375 -0.2083
  407MOL0     H54931   1.145   3.551   8.840 -1.0812 -1.8371 -0.7692
  407MOL0     H54932   1.386   3.585   8.892  1.6731  0.1358 -1.1316
  407MOL0     H54933   1.904   3.514   8.561 -2.5497  1.3820 -1.2809
  407MOL0     H54934   2.134   3.564   8.637 -1.6038 -0.7747 -2.1896
  407MOL0     H54935   2.294   3.567   8.813 -2.0890  0.7204  2.0868
  407MOL0     H54936   2.345   3.692   8.697 -0.2954 -3.0606 -0.7850
  407MOL0     H54937   2.458   3.814   8.878 -1.2011 -0.2204 -0.8444
  407MOL0     H54938   2.515   3.643   8.880  0.0536  0.0919 -0.5045
  407MOL0     H54939   2.353   3.595   9.060  0.5903 -0.0803  2.1447
  407MOL0     H54940   2.315   3.764   9.074 -2.1694 -3.4802  2.7276
  407MOL0     H54941   2.480   3.712   9.231  0.1826  0.9111 -0.8350
  407MOL0     H54942   2.554   3.811   9.099  0.3249 -0.3573 -0.8629
  407MOL0     H54943   2.786   3.477   9.055 -1.5868 -0.4149 -3.0047
  407MOL0     H54944   1.977   3.858   8.913  0.6565  0.6093 -0.0137
  407MOL0     H54945   1.749   3.809   8.837 -0.4878  0.1084 -2.2168
  408MOL0     O54946   7.539   8.269   6.461 -0.0705 -0.4968 -0.5536
  408MOL0     C54947   7.527   8.142   6.460  0.1920  0.3867  0.6635
  408MOL0     O54948   7.610   8.056   6.394  0.7077  0.2363 -0.2973
  408MOL0     C54949   7.704   8.102   6.312 -0.0182 -0.1679 -0.5512
  408MOL0     C54950   7.669   8.171   6.198 -0.8268  0.2604 -0.4575
  408MOL0     C54951   7.766   8.212   6.107 -0.0866 -0.1345  0.5305
  408MOL0     C54952   7.895   8.170   6.115  0.1002 -0.0082 -0.1248
  408MOL0     O54953   7.988   8.210   6.016  0.1365  0.2418  0.8618
  408MOL0     C54954   8.057   8.106   5.947  0.4346 -0.6456  0.3613
  408MOL0     C54955   8.196   8.080   6.003  0.6553  0.6105 -0.1293
  408MOL0     C54956   8.240   7.938   5.959  0.7472 -0.0279 -0.2095
  408MOL0     C54957   8.391   7.916   5.933 -0.9819 -0.9487  0.2715
  408MOL0     C54958   8.428   7.790   5.856 -0.2805 -0.3384  0.5893
  408MOL0     C54959   8.582   7.757   5.881  0.1641  0.4716  0.3739
  408MOL0     C54960   8.636   7.662   5.769 -0.3185 -0.4180 -0.8519
  408MOL0     C54961   8.691   7.728   5.638  0.1255  0.7493 -0.2589
  408MOL0     N54962   8.756   7.625   5.560 -0.6213  0.0068  0.8238
  408MOL0     C54963   8.700   7.507   5.509 -0.3283 -0.3360  0.1429
  408MOL0     C54964   8.812   7.434   5.481  0.7750  0.6594  0.4711
  408MOL0     C54965   8.792   7.315   5.393  0.6711 -0.3344 -0.0603
  408MOL0     C54966   8.716   7.200   5.469 -0.7618 -0.1117 -0.0116
  408MOL0     C54967   8.646   7.110   5.374  0.2365 -0.1225  1.0202
  408MOL0     C54968   8.742   7.012   5.295  0.2564 -0.7745 -0.0368
  408MOL0     O54969   8.783   7.070   5.172  0.1360  0.1754  0.2831
  408MOL0     C54970   8.695   7.078   5.061  0.5535 -0.4098  0.0089
  408MOL0     C54971   8.719   7.164   4.956 -0.0051  0.6842 -0.6334
  408MOL0     C54972   8.643   7.167   4.837 -0.5299 -0.7205  0.3078
  408MOL0     C54973   8.669   7.273   4.735 -0.2150  0.2459 -0.1064
  408MOL0     C54974   8.541   7.065   4.824 -0.4060 -0.6374  0.3501
  408MOL0     C54975   8.466   7.050   4.695 -0.4687  0.4237 -0.2778
  408MOL0     O54976   8.355   6.964   4.715 -0.1602 -0.0097  0.2040
  408MOL0     C54977   8.285   6.929   4.606 -0.2623  0.0853  0.0265
  408MOL0     C54978   8.339   6.858   4.498  0.0699 -0.8564 -0.2947
  408MOL0     C54979   8.265   6.807   4.391  0.3751 -0.5357  0.3288
  408MOL0     C54980   8.124   6.815   4.397 -0.8264  0.0389 -0.5766
  408MOL0     O54981   8.037   6.750   4.318  0.3249 -0.0581 -0.0553
  408MOL0     C54982   8.101   6.679   4.201 -0.0426 -0.0801  0.2198
  408MOL0     C54983   7.983   6.626   4.118 -0.3016  0.3054  0.0988
  408MOL0     C54984   8.059   6.573   3.992  0.7819 -0.0528  0.0549
  408MOL0     C54985   7.963   6.505   3.894 -0.5211  0.2707  1.3935
  408MOL0     C54986   7.910   6.590   3.775 -0.6578 -0.1764 -0.1008
  408MOL0     C54987   7.799   6.521   3.691 -0.3520 -0.5737  0.1354
  408MOL0     C54988   7.663   6.519   3.754 -0.5195  0.1162 -0.5110
  408MOL0     C54989   7.615   6.655   3.781  0.9366 -0.3502 -0.3111
  408MOL0    Cl54990   7.632   6.774   3.649  0.7740  0.0201 -0.0731
  408MOL0     C54991   8.062   6.895   4.500 -0.2210  0.1775  0.3630
  408MOL0     C54992   8.144   6.939   4.607  0.0977 -0.5609 -0.1893
  408MOL0     O54993   8.488   7.113   4.589  0.2563  0.0993  0.3816
  408MOL0     C54994   8.514   6.971   4.924 -0.1392 -0.6981  0.1219
  408MOL0     C54995   8.586   6.988   5.046  0.0288 -1.1454  0.8926
  408MOL0     N54996   8.928   7.508   5.511  0.2370 -0.0894  0.6863
  408MOL0     N54997   8.896   7.621   5.558  0.8724  0.2298  0.4517
  408MOL0     C54998   7.931   8.099   6.221  0.0319 -0.1270 -0.0040
  408MOL0     C54999   7.835   8.068   6.327 -0.7850  0.2701  0.6102
  408MOL0     C55000   7.418   8.077   6.541 -0.3985 -0.2897  0.4162
  408MOL0     C55001   7.314   8.151   6.595  0.2561  0.3976 -0.5485
  408MOL0     C55002   7.223   8.093   6.683  0.5375  0.6380  0.2572
  408MOL0     C55003   7.222   7.958   6.703  0.8153  0.9425  0.1334
  408MOL0     O55004   7.146   7.893   6.794 -1.0488  0.1322  0.1835
  408MOL0     C55005   7.034   7.963   6.848 -0.1613 -0.7588  0.1075
  408MOL0     C55006   6.945   7.872   6.935 -1.1954  0.0903 -0.9430
  408MOL0     C55007   6.826   7.945   6.994 -0.8347 -0.7317 -0.6106
  408MOL0     C55008   6.721   7.865   7.065  0.0269  0.1296  0.3837
  408MOL0     C55009   6.784   7.797   7.179  0.0734 -0.4422 -0.2772
  408MOL0     C55010   6.841   7.717   7.256 -0.1086 -1.6003 -0.3144
  408MOL0     C55011   7.316   7.878   6.642 -0.1487 -0.0533  0.0400
  408MOL0     C55012   7.430   7.939   6.573 -1.0261  0.2940 -0.2580
  408MOL0     H55013   7.566   8.197   6.177 -0.2255  3.5878  0.2254
  408MOL0     H55014   7.738   8.274   6.023 -1.9679  1.0657  1.9796
  408MOL0     H55015   7.999   8.013   5.943 -0.7603  0.1175 -0.4817
  408MOL0     H55016   8.063   8.133   5.841 -2.4366  0.3126  0.3631
  408MOL0     H55017   8.253   8.158   5.952 -2.0900  1.5124 -2.0650
  408MOL0     H55018   8.212   8.088   6.111  2.6704  2.0877 -0.4866
  408MOL0     H55019   8.191   7.868   6.027 -0.0437 -0.5645 -1.3049
  408MOL0     H55020   8.198   7.924   5.859  1.7195  3.4933 -1.2543
  408MOL0     H55021   8.433   8.007   5.888  0.1448 -1.6537 -0.1516
  408MOL0     H55022   8.442   7.898   6.028  0.3069 -0.2170 -0.2555
  408MOL0     H55023   8.371   7.710   5.904 -1.7385  1.6037  2.2956
  408MOL0     H55024   8.396   7.797   5.752  0.2367  5.2852  0.5087
  408MOL0     H55025   8.641   7.848   5.868  1.8578 -0.6661 -0.2401
  408MOL0     H55026   8.604   7.716   5.980 -0.4044 -1.0456 -0.1064
  408MOL0     H55027   8.716   7.616   5.827 -0.0189  2.2742  1.1149
  408MOL0     H55028   8.550   7.596   5.759 -0.8970  0.1606  0.0843
  408MOL0     H55029   8.760   7.812   5.649  1.0906  0.0364 -0.7831
  408MOL0     H55030   8.614   7.775   5.576 -0.0212 -0.7114 -1.2280
  408MOL0     H55031   8.599   7.471   5.492 -0.0960 -1.4428  0.9520
  408MOL0     H55032   8.732   7.350   5.308  0.2034  0.9872  0.7850
  408MOL0     H55033   8.887   7.279   5.353 -0.0414 -0.1092 -2.0841
  408MOL0     H55034   8.632   7.230   5.532  0.2390 -0.3159  1.4889
  408MOL0     H55035   8.783   7.153   5.542  0.9512  1.4800 -0.4522
  408MOL0     H55036   8.593   7.167   5.297  2.1818 -2.1659 -2.0729
  408MOL0     H55037   8.566   7.059   5.429  0.6295  1.0787  2.7907
  408MOL0     H55038   8.701   6.912   5.276  0.7074 -1.2436  1.3425
  408MOL0     H55039   8.836   6.999   5.349  1.8326  3.6035 -1.3506
  408MOL0     H55040   8.807   7.225   4.970  0.7944 -0.6741  0.5772
  408MOL0     H55041   8.703   7.229   4.642  1.3199 -1.9357  1.3976
  408MOL0     H55042   8.582   7.335   4.710  0.4521  1.3869  0.3004
  408MOL0     H55043   8.740   7.341   4.785 -0.5981  0.5832 -0.0064
  408MOL0     H55044   8.447   6.847   4.490  0.2639  1.6663 -2.1100
  408MOL0     H55045   8.305   6.749   4.308 -1.2458 -0.3724 -0.6243
  408MOL0     H55046   8.172   6.739   4.144  1.7975 -0.2392  2.2434
  408MOL0     H55047   8.149   6.585   4.229  0.7183  0.5978  1.2299
  408MOL0     H55048   7.936   6.551   4.182  2.2391 -0.6613  0.9597
  408MOL0     H55049   7.921   6.713   4.092  0.4490  0.3638 -1.6555
  408MOL0     H55050   8.131   6.500   4.029  1.0188 -1.4221 -2.7947
  408MOL0     H55051   8.115   6.656   3.947  0.5401  1.7026  2.7976
  408MOL0     H55052   8.024   6.430   3.843  1.3844  2.8906 -0.4426
  408MOL0     H55053   7.884   6.453   3.950 -0.6933  0.7258  1.5834
  408MOL0     H55054   7.986   6.617   3.701 -3.1129  0.8936 -2.3537
  408MOL0     H55055   7.888   6.693   3.805  0.0457 -0.9141  3.5210
  408MOL0     H55056   7.796   6.556   3.588 -2.1897 -0.4240  0.2185
  408MOL0     H55057   7.835   6.418   3.682  0.6863 -0.1581 -0.7541
  408MOL0     H55058   7.675   6.460   3.846  5.4799 -1.4065 -1.8196
  408MOL0     H55059   7.603   6.454   3.690 -0.5335  1.6251 -2.0932
  408MOL0     H55060   7.673   6.697   3.863  1.7885  0.0897 -1.1279
  408MOL0     H55061   7.509   6.645   3.806  1.3021 -0.8565  1.1254
  408MOL0     H55062   7.955   6.884   4.516 -0.4618  0.9209 -0.6349
  408MOL0     H55063   8.097   6.974   4.699 -0.8758 -0.6368 -0.6466
  408MOL0     H55064   8.444   6.888   4.918 -2.1134  0.7045  2.2520
  408MOL0     H55065   8.553   6.911   5.116  1.6792 -3.0608 -0.3283
  408MOL0     H55066   8.027   8.049   6.219 -0.6752 -1.7425 -4.0505
  408MOL0     H55067   7.863   8.001   6.408 -1.8214 -0.4326  0.4040
  408MOL0     H55068   7.319   8.258   6.579  2.2226  0.5941  0.9322
  408MOL0     H55069   7.161   8.165   6.735  0.9301  2.0407 -1.1232
  408MOL0     H55070   7.067   8.046   6.909 -1.8046 -1.2642  1.7882
  408MOL0     H55071   6.972   7.994   6.763 -1.5872 -2.6773  0.3803
  408MOL0     H55072   7.005   7.832   7.016 -1.2387 -0.8454 -1.3637
  408MOL0     H55073   6.912   7.781   6.884  2.8221 -2.3067  0.3420
  408MOL0     H55074   6.794   8.004   6.908  0.1377  0.4251 -0.2052
  408MOL0     H55075   6.869   8.020   7.061  2.3563  1.4914 -4.6798
  408MOL0     H55076   6.668   7.795   7.000  1.0702  1.1303 -1.6225
  408MOL0     H55077   6.648   7.937   7.102 -2.5825 -1.6649 -0.9987
  408MOL0     H55078   6.890   7.652   7.326 -0.8511 -2.7820 -0.8632
  408MOL0     H55079   7.320   7.771   6.655  0.8213  0.1463  1.7096
  408MOL0     H55080   7.519   7.890   6.534 -1.3365 -0.3871 -0.1289
  409MOL0     O55081   6.870   7.341   5.506  0.0353  0.6881  0.0533
  409MOL0     C55082   6.976   7.403   5.474  0.4567  0.2306 -0.8217
  409MOL0     O55083   6.977   7.527   5.429  0.2504 -0.5518  0.9553
  409MOL0     C55084   6.864   7.591   5.378 -0.1770  0.4000 -0.3376
  409MOL0     C55085   6.850   7.726   5.414 -0.1337  0.1722 -0.6110
  409MOL0     C55086   6.736   7.795   5.377 -0.4181  0.0549  0.3186
  409MOL0     C55087   6.646   7.730   5.295  0.0529 -0.1755 -0.0101
  409MOL0     O55088   6.529   7.777   5.253  0.0008  0.0016  0.1305
  409MOL0     C55089   6.500   7.913   5.268 -0.2311 -0.1050  0.1878
  409MOL0     C55090   6.361   7.949   5.225  0.2556  0.2048  0.9538
  409MOL0     C55091   6.350   7.910   5.074  0.2551 -0.5311  0.1195
  409MOL0     C55092   6.203   7.905   5.038  0.3333  0.6387  0.5420
  409MOL0     C55093   6.162   7.899   4.886 -0.4602 -0.1144  0.1520
  409MOL0     C55094   6.223   7.772   4.822  0.1374  0.3581 -0.1771
  409MOL0     C55095   6.158   7.712   4.700 -0.0118  0.3801 -0.5448
  409MOL0     C55096   6.176   7.800   4.583 -0.4055 -0.6062 -1.0543
  409MOL0     N55097   6.113   7.727   4.474 -0.6768  0.4432 -0.6289
  409MOL0     C55098   6.180   7.622   4.420 -0.3422 -0.2891  0.5877
  409MOL0     C55099   6.104   7.598   4.310  0.0745 -0.2094 -0.4433
  409MOL0     C55100   6.148   7.505   4.197 -0.2423  0.5508  0.3946
  409MOL0     C55101   6.166   7.581   4.069 -0.5889  0.1798 -0.2449
  409MOL0     C55102   6.252   7.709   4.079  0.2588 -0.2034 -0.5472
  409MOL0     C55103   6.376   7.737   3.994 -0.7166  0.0626 -0.1897
  409MOL0     O55104   6.462   7.629   3.996 -0.0838 -0.4330 -0.4354
  409MOL0     C55105   6.494   7.581   3.868  0.2497 -0.1962  0.1347
  409MOL0     C55106   6.477   7.448   3.841  0.4573 -0.5353 -0.9174
  409MOL0     C55107   6.524   7.394   3.720 -0.3765 -0.1509 -0.8553
  409MOL0     C55108   6.521   7.240   3.718  0.4513 -0.6096 -0.5833
  409MOL0     C55109   6.581   7.488   3.615 -0.6287 -0.0932 -0.5073
  409MOL0     C55110   6.623   7.446   3.480 -0.3054  0.2223  0.0581
  409MOL0     O55111   6.681   7.546   3.400 -0.8477  0.2968 -0.3470
  409MOL0     C55112   6.791   7.515   3.315  0.2286 -0.2842 -0.1992
  409MOL0     C55113   6.806   7.606   3.206 -0.0071  0.5308 -0.4409
  409MOL0     C55114   6.919   7.596   3.121 -0.3934 -0.2760  0.0488
  409MOL0     C55115   7.021   7.500   3.144 -0.4488  0.4989 -0.0078
  409MOL0     O55116   7.141   7.496   3.075 -0.7430  0.0439 -0.4905
  409MOL0     C55117   7.210   7.370   3.057  0.3991 -0.3457 -0.2101
  409MOL0     C55118   7.339   7.389   2.978  0.2477  0.0628  0.2152
  409MOL0     C55119   7.456   7.460   3.046  0.7708  1.3088  0.2292
  409MOL0     C55120   7.562   7.484   2.931  0.7113  0.2639  0.1933
  409MOL0     C55121   7.689   7.562   2.977 -0.0430  0.5297 -0.1096
  409MOL0     C55122   7.792   7.535   2.863 -0.1433  0.0479 -0.0105
  409MOL0     C55123   7.745   7.598   2.737  0.6336 -0.2841  0.4355
  409MOL0     C55124   7.837   7.554   2.614 -0.1356 -0.2316 -0.7068
  409MOL0    Cl55125   8.000   7.595   2.635  0.0115 -0.0307  0.0092
  409MOL0     C55126   7.002   7.405   3.237  0.2186 -0.7066  0.0704
  409MOL0     C55127   6.886   7.410   3.319  0.4777 -0.2718 -0.4310
  409MOL0     O55128   6.632   7.325   3.453  0.3086 -0.0665 -0.1367
  409MOL0     C55129   6.589   7.621   3.652 -0.6533 -0.7726 -0.4318
  409MOL0     C55130   6.547   7.665   3.776 -0.1354  0.1022 -0.1366
  409MOL0     N55131   5.997   7.687   4.298  1.0235  0.0669  0.0131
  409MOL0     N55132   6.010   7.767   4.401  0.7451 -0.4367  0.3550
  409MOL0     C55133   6.666   7.602   5.256 -0.0930  0.7229  0.1075
  409MOL0     C55134   6.774   7.529   5.297 -0.5114 -0.3187  0.0230
  409MOL0     C55135   7.103   7.334   5.511  0.4286  0.2722  0.2731
  409MOL0     C55136   7.099   7.202   5.555 -0.1892 -1.1960 -0.9860
  409MOL0     C55137   7.213   7.131   5.592  0.5620 -0.4760 -0.7726
  409MOL0     C55138   7.334   7.182   5.584 -0.3137  0.3891  0.0296
  409MOL0     O55139   7.438   7.097   5.631  0.3081  0.0783  0.3527
  409MOL0     C55140   7.530   7.166   5.708 -0.6909  0.1339 -0.2047
  409MOL0     C55141   7.480   7.193   5.854 -0.9063 -0.1109 -0.6677
  409MOL0     C55142   7.589   7.279   5.929 -0.9199  0.5619  0.2920
  409MOL0     C55143   7.721   7.208   5.924 -0.4917 -0.4662 -0.3253
  409MOL0     C55144   7.800   7.256   6.041 -0.0654  0.3709 -0.2767
  409MOL0     C55145   7.847   7.303   6.142 -0.6398 -0.2125 -0.2682
  409MOL0     C55146   7.346   7.308   5.526  0.6839 -1.2092 -0.2339
  409MOL0     C55147   7.229   7.385   5.483  0.5515 -0.1066  0.2893
  409MOL0     H55148   6.922   7.776   5.477 -0.4749 -2.3680  1.9776
  409MOL0     H55149   6.727   7.899   5.407 -0.5989 -0.1386  0.9328
  409MOL0     H55150   6.503   7.952   5.371  0.9827 -2.0813  0.9572
  409MOL0     H55151   6.580   7.960   5.210  0.0625 -0.3478  0.3956
  409MOL0     H55152   6.288   7.893   5.284 -1.7578  0.4055 -1.1658
  409MOL0     H55153   6.338   8.053   5.250  0.9824  0.3795  0.9207
  409MOL0     H55154   6.403   7.983   5.011 -0.6437  0.9096  0.9787
  409MOL0     H55155   6.398   7.813   5.055  0.0681 -0.5124 -0.4801
  409MOL0     H55156   6.161   7.817   5.088  0.3726  0.4194  0.1974
  409MOL0     H55157   6.160   7.993   5.085 -0.2943  0.4530  0.3194
  409MOL0     H55158   6.053   7.902   4.879 -0.4126  1.2953 -0.2386
  409MOL0     H55159   6.203   7.986   4.834  2.2474 -2.7880 -2.7007
  409MOL0     H55160   6.320   7.806   4.787  0.1305  1.7676  1.0347
  409MOL0     H55161   6.242   7.694   4.897 -0.2208 -0.0343 -0.4889
  409MOL0     H55162   6.201   7.613   4.679  0.6630  0.7805 -1.1125
  409MOL0     H55163   6.054   7.698   4.728  0.1416 -1.2424 -0.7141
  409MOL0     H55164   6.280   7.822   4.558 -0.4798  0.9815 -0.0987
  409MOL0     H55165   6.124   7.896   4.591 -0.1048 -0.6229  3.4842
  409MOL0     H55166   6.265   7.569   4.461 -1.1626 -2.5871 -0.5116
  409MOL0     H55167   6.240   7.457   4.230  0.3409  0.0599 -1.7720
  409MOL0     H55168   6.072   7.429   4.179 -0.3113  0.5599  0.6437
  409MOL0     H55169   6.067   7.603   4.029 -0.7335  0.0252  0.0289
  409MOL0     H55170   6.228   7.519   4.004  0.6675  0.6786  0.4368
  409MOL0     H55171   6.304   7.704   4.175  1.8111 -1.6181 -1.4166
  409MOL0     H55172   6.192   7.801   4.083 -0.4153 -0.6569  0.1917
  409MOL0     H55173   6.426   7.827   4.031 -1.9985  0.1431  1.4215
  409MOL0     H55174   6.333   7.764   3.897 -0.8638  1.2294  0.1775
  409MOL0     H55175   6.439   7.386   3.922  2.4607  2.0035  2.2277
  409MOL0     H55176   6.544   7.193   3.814 -2.8083 -0.1275  0.5521
  409MOL0     H55177   6.419   7.210   3.696  0.1537 -0.9501  1.1358
  409MOL0     H55178   6.593   7.202   3.645  0.4856  0.3906 -1.0904
  409MOL0     H55179   6.732   7.683   3.189 -0.4590 -0.2141 -1.9672
  409MOL0     H55180   6.918   7.668   3.039  0.0981  0.2696  0.5086
  409MOL0     H55181   7.243   7.343   3.158  2.0094  1.3409 -0.2516
  409MOL0     H55182   7.157   7.290   3.004  2.1864 -1.5544 -0.2580
  409MOL0     H55183   7.383   7.292   2.952  0.5770  0.4482 -0.7226
  409MOL0     H55184   7.315   7.437   2.883 -1.3032 -2.4271 -0.7369
  409MOL0     H55185   7.501   7.395   3.122 -0.6984  0.2257  0.2169
  409MOL0     H55186   7.415   7.552   3.090 -1.8295 -0.8931  2.7851
  409MOL0     H55187   7.593   7.386   2.893  0.1102 -0.1865  0.8460
  409MOL0     H55188   7.507   7.547   2.859 -0.0252 -0.8029 -0.2025
  409MOL0     H55189   7.727   7.523   3.072  0.6137  2.9171  0.6813
  409MOL0     H55190   7.661   7.664   3.005 -1.5093 -0.3563  1.9395
  409MOL0     H55191   7.887   7.581   2.894  1.0221 -1.8691 -0.5580
  409MOL0     H55192   7.800   7.428   2.839 -1.8030  0.3053 -1.9740
  409MOL0     H55193   7.724   7.705   2.752 -2.7532 -0.7511 -0.2400
  409MOL0     H55194   7.647   7.563   2.704  0.6455 -2.0329  2.1010
  409MOL0     H55195   7.791   7.607   2.530  0.2965 -0.0296 -0.8155
  409MOL0     H55196   7.816   7.448   2.597 -0.0263 -0.4547  0.4705
  409MOL0     H55197   7.069   7.324   3.265 -0.1567 -0.6272  1.2422
  409MOL0     H55198   6.868   7.337   3.398 -0.1706  1.8939  1.5485
  409MOL0     H55199   6.633   7.691   3.581 -0.9461 -1.0587 -0.8983
  409MOL0     H55200   6.545   7.770   3.804  2.8093  0.2517 -0.1435
  409MOL0     H55201   6.592   7.550   5.196 -0.3820 -1.9909  2.5993
  409MOL0     H55202   6.785   7.431   5.252  0.8253 -0.2605  0.1743
  409MOL0     H55203   7.001   7.158   5.574 -1.4742  1.6318 -0.5574
  409MOL0     H55204   7.181   7.034   5.629 -1.5551  1.0242  1.6470
  409MOL0     H55205   7.611   7.092   5.707 -1.4849 -0.7703 -1.7809
  409MOL0     H55206   7.567   7.248   5.646 -0.2083  0.0588 -0.0234
  409MOL0     H55207   7.475   7.103   5.917  1.0881  1.4012  1.8234
  409MOL0     H55208   7.390   7.254   5.861  0.2921  2.7201 -5.4587
  409MOL0     H55209   7.558   7.282   6.034  0.4330 -2.3200  0.8926
  409MOL0     H55210   7.597   7.379   5.886 -0.4401  0.3593 -0.0896
  409MOL0     H55211   7.771   7.231   5.830 -0.7593 -1.7446 -0.7989
  409MOL0     H55212   7.706   7.100   5.936  0.5980 -0.6487 -0.5514
  409MOL0     H55213   7.876   7.338   6.240  1.1205 -1.6054 -0.2292
  409MOL0     H55214   7.443   7.347   5.498  0.5196  0.8961  1.8145
  409MOL0     H55215   7.248   7.486   5.449 -2.0164 -0.1611 -1.5281
  410MOL0     O55216   5.245   8.855   4.652 -0.6905  0.4482 -0.4408
  410MOL0     C55217   5.250   8.807   4.540 -0.4490 -0.0846  0.5681
  410MOL0     O55218   5.158   8.720   4.488 -0.2338  0.2480 -0.1215
  410MOL0     C55219   5.039   8.707   4.561  0.2145  0.9667 -0.5400
  410MOL0     C55220   4.914   8.764   4.514 -0.2445 -1.2398 -0.2654
  410MOL0     C55221   4.793   8.755   4.591 -0.5911  0.1107  0.2683
  410MOL0     C55222   4.801   8.686   4.715  0.2388 -0.9474 -0.2787
  410MOL0     O55223   4.684   8.672   4.785 -0.6933  0.2342  0.9714
  410MOL0     C55224   4.588   8.777   4.788 -0.5139 -0.1031 -0.2131
  410MOL0     C55225   4.469   8.749   4.688 -0.0351  0.5525  0.3725
  410MOL0     C55226   4.388   8.644   4.759  0.4021  0.3621  0.4762
  410MOL0     C55227   4.245   8.634   4.706 -0.0017  0.2315 -0.4518
  410MOL0     C55228   4.254   8.553   4.573  0.0099 -0.1485  0.6946
  410MOL0     C55229   4.155   8.589   4.464 -0.6355 -0.1707 -0.2843
  410MOL0     C55230   4.007   8.552   4.511 -0.1238  0.2792  0.0848
  410MOL0     C55231   3.897   8.579   4.396  0.1224 -0.0374 -0.7749
  410MOL0     N55232   3.873   8.723   4.386 -0.9645  0.6402  0.1115
  410MOL0     C55233   3.802   8.790   4.481 -0.1281  0.5377  0.5535
  410MOL0     C55234   3.793   8.914   4.431 -1.4780 -0.6638  0.2060
  410MOL0     C55235   3.724   9.028   4.503  0.2674 -0.0756  0.8992
  410MOL0     C55236   3.733   9.040   4.651  0.5134 -0.1783 -0.1346
  410MOL0     C55237   3.877   9.077   4.677 -0.8923 -0.1403  0.3764
  410MOL0     C55238   3.911   9.070   4.826  0.8658 -0.1321 -0.2056
  410MOL0     O55239   3.829   9.161   4.902 -0.3694 -0.0507  0.2383
  410MOL0     C55240   3.854   9.296   4.915  0.6887  0.3600 -0.3320
  410MOL0     C55241   3.947   9.359   4.844 -0.2361  0.1386  0.6075
  410MOL0     C55242   3.970   9.499   4.844  0.4385  0.3108  1.1948
  410MOL0     C55243   4.079   9.566   4.769 -0.2673  0.7415 -0.0084
  410MOL0     C55244   3.876   9.583   4.909  0.1211  0.9294 -0.0672
  410MOL0     C55245   3.876   9.729   4.909  0.2961 -0.1624  0.3955
  410MOL0     O55246   3.987   9.792   4.938 -1.1832  0.2573  0.4629
  410MOL0     C55247   4.011   9.930   4.952  0.4514 -0.2473  0.0171
  410MOL0     C55248   4.144   9.977   4.941  0.0926  0.1855  0.3968
  410MOL0     C55249   4.180  10.118   4.939  0.4824 -0.3987  0.8808
  410MOL0     C55250   4.081  10.216   4.957  0.2713  0.1608 -0.7865
  410MOL0     O55251   4.099  10.345   4.971  0.1525 -0.8396  0.5017
  410MOL0     C55252   4.226  10.407   4.954  0.3612 -0.5731 -0.7107
  410MOL0     C55253   4.290  10.440   5.088 -0.2578 -1.0688 -0.3275
  410MOL0     C55254   4.227  10.578   5.125  0.2200  0.3017  0.5247
  410MOL0     C55255   4.110  10.553   5.211  0.4027  0.1127 -0.7387
  410MOL0     C55256   4.081  10.678   5.297  0.2878  0.0814  0.7228
  410MOL0     C55257   3.996  10.776   5.213 -0.5111  0.0996 -0.1490
  410MOL0     C55258   3.842  10.752   5.230 -0.2889 -0.0276  0.0558
  410MOL0     C55259   3.764  10.743   5.101  0.3569 -0.4896  0.6515
  410MOL0    Cl55260   3.590  10.710   5.144  0.1438 -0.3213  0.0127
  410MOL0     C55261   3.953  10.166   4.984 -0.7726  0.5361 -0.4068
  410MOL0     C55262   3.918  10.034   4.969 -0.2787  0.4324  0.2322
  410MOL0     O55263   3.770   9.788   4.907  0.8128 -0.5297 -0.4887
  410MOL0     C55264   3.778   9.516   4.987  0.2354  0.3367 -0.1031
  410MOL0     C55265   3.767   9.382   4.983  0.0210 -0.0857 -0.5177
  410MOL0     N55266   3.864   8.918   4.312 -0.8237  0.0120  0.0349
  410MOL0     N55267   3.910   8.800   4.279  0.2387  0.3909 -0.7060
  410MOL0     C55268   4.914   8.616   4.757  0.1361  0.5281 -0.1816
  410MOL0     C55269   5.032   8.625   4.683 -0.4334 -0.2032 -0.3732
  410MOL0     C55270   5.356   8.861   4.452 -0.2947 -0.2135  0.3324
  410MOL0     C55271   5.386   8.806   4.333  0.7698  0.7971 -0.3227
  410MOL0     C55272   5.499   8.839   4.256  0.3146 -1.4154  0.1388
  410MOL0     C55273   5.569   8.956   4.299 -0.0452 -0.3554 -0.2022
  410MOL0     O55274   5.678   9.002   4.229  0.0550 -0.0064  0.3499
  410MOL0     C55275   5.665   9.009   4.088  0.9437  0.1433 -0.2338
  410MOL0     C55276   5.783   9.084   4.032  0.6230 -0.4188 -0.4686
  410MOL0     C55277   5.922   9.030   4.075  0.2008  0.2174  0.1334
  410MOL0     C55278   5.963   8.895   4.015  0.6513  0.1258  0.8128
  410MOL0     C55279   5.902   8.786   4.097 -0.1351  0.9678  0.5203
  410MOL0     C55280   5.858   8.702   4.172 -0.1766 -0.3848  0.2700
  410MOL0     C55281   5.548   9.013   4.425 -0.9915  0.4754  0.2738
  410MOL0     C55282   5.437   8.965   4.504 -0.6049  0.7750  0.0254
  410MOL0     H55283   4.915   8.826   4.424  1.5381 -0.6021  0.1583
  410MOL0     H55284   4.713   8.814   4.548 -0.1486  2.5243  2.4691
  410MOL0     H55285   4.544   8.777   4.889 -2.9229 -2.1165 -1.1419
  410MOL0     H55286   4.613   8.879   4.757 -1.9205  0.9186  1.7613
  410MOL0     H55287   4.418   8.841   4.660 -0.9868 -0.2165 -0.4869
  410MOL0     H55288   4.501   8.711   4.590 -0.3410  1.2486 -0.0022
  410MOL0     H55289   4.421   8.540   4.764 -2.8742 -1.0296 -2.1957
  410MOL0     H55290   4.373   8.674   4.863  1.0818  1.9216  0.1400
  410MOL0     H55291   4.194   8.578   4.785 -0.1075 -1.7984 -1.8848
  410MOL0     H55292   4.218   8.740   4.694  0.2569  0.4952  1.1079
  410MOL0     H55293   4.358   8.570   4.545  0.4920  0.7504  2.8196
  410MOL0     H55294   4.236   8.445   4.584 -3.4376 -0.0902 -2.2365
  410MOL0     H55295   4.164   8.698   4.455  0.1471 -0.3964 -3.3612
  410MOL0     H55296   4.187   8.528   4.379 -0.3464 -1.1420  0.4998
  410MOL0     H55297   4.008   8.447   4.540 -1.0435  1.1112  3.7092
  410MOL0     H55298   3.987   8.619   4.596 -0.0143  0.2698  0.1180
  410MOL0     H55299   3.801   8.531   4.419  1.5233 -2.6452 -0.0760
  410MOL0     H55300   3.922   8.535   4.299 -0.4715 -4.4705  0.8636
  410MOL0     H55301   3.756   8.749   4.571  0.6654 -1.4054  0.1089
  410MOL0     H55302   3.758   9.119   4.453 -2.3052  1.0358  1.0712
  410MOL0     H55303   3.620   9.018   4.471 -0.8903  4.9267  2.2902
  410MOL0     H55304   3.713   8.940   4.690  0.2368 -0.4876 -1.0487
  410MOL0     H55305   3.659   9.114   4.683  0.0528  0.3094 -2.1779
  410MOL0     H55306   3.896   9.176   4.636  1.7270 -1.0077 -0.7794
  410MOL0     H55307   3.949   9.001   4.644  1.3279  1.8920  0.2417
  410MOL0     H55308   4.017   9.092   4.841  0.7123  0.0651  0.6378
  410MOL0     H55309   3.897   8.969   4.865 -2.6370  1.5541  3.5449
  410MOL0     H55310   4.035   9.305   4.811  1.4913  3.1872 -0.1784
  410MOL0     H55311   4.162   9.587   4.837 -2.7652  2.0684  2.8523
  410MOL0     H55312   4.102   9.484   4.701  0.0037  0.0275  0.9268
  410MOL0     H55313   4.054   9.659   4.718 -0.2568  0.0527 -1.3125
  410MOL0     H55314   4.227   9.907   4.931 -1.6638 -2.3053  2.0225
  410MOL0     H55315   4.282  10.146   4.916 -0.2100  3.4360  1.7552
  410MOL0     H55316   4.295  10.344   4.897 -1.0159 -1.5316 -1.3757
  410MOL0     H55317   4.218  10.497   4.894 -0.0509  0.6942  1.1585
  410MOL0     H55318   4.290  10.362   5.164  2.0307 -0.7013  0.1370
  410MOL0     H55319   4.392  10.450   5.051  0.1494 -1.1536  0.7357
  410MOL0     H55320   4.208  10.648   5.043  0.4649  2.6036  2.3445
  410MOL0     H55321   4.301  10.619   5.193  0.6723 -2.3229  1.7585
  410MOL0     H55322   4.020  10.518   5.159 -2.2886  0.7688  3.0238
  410MOL0     H55323   4.129  10.466   5.274  0.0353 -0.6022 -1.6024
  410MOL0     H55324   4.177  10.723   5.324  0.0990  1.8601 -1.2432
  410MOL0     H55325   4.020  10.663   5.386  0.0339  2.8743  1.0882
  410MOL0     H55326   4.016  10.876   5.252 -1.1125 -0.4155  1.5432
  410MOL0     H55327   4.036  10.772   5.111  0.0482  0.4451  0.0503
  410MOL0     H55328   3.797  10.830   5.291 -0.8006  0.7169 -1.2476
  410MOL0     H55329   3.827  10.652   5.272 -0.4010  0.2014  0.5582
  410MOL0     H55330   3.810  10.661   5.043 -4.4465 -1.1478 -2.8874
  410MOL0     H55331   3.781  10.835   5.045 -1.9222  0.2528  1.1122
  410MOL0     H55332   3.870  10.227   5.021 -0.8899  0.3230 -0.3190
  410MOL0     H55333   3.812  10.026   4.991  0.1008 -0.3271  1.9914
  410MOL0     H55334   3.715   9.577   5.051  1.2097  1.1882  0.0713
  410MOL0     H55335   3.667   9.356   5.017 -0.8366  4.3304  0.9524
  410MOL0     H55336   4.926   8.555   4.845 -0.3994 -0.1536 -0.5658
  410MOL0     H55337   5.125   8.588   4.726  0.4172 -0.2352 -2.1122
  410MOL0     H55338   5.329   8.721   4.296  1.0750 -0.7528  2.4285
  410MOL0     H55339   5.531   8.789   4.165  1.6076 -1.1243  0.4175
  410MOL0     H55340   5.649   8.914   4.037  0.7735  0.6328 -1.1199
  410MOL0     H55341   5.572   9.063   4.067  0.3193 -0.6232  0.4782
  410MOL0     H55342   5.769   9.180   4.083 -1.4568 -0.4024 -0.9633
  410MOL0     H55343   5.775   9.090   3.924 -0.6585 -2.8644 -0.5907
  410MOL0     H55344   5.926   9.032   4.184  1.0354  0.6011  0.1019
  410MOL0     H55345   5.994   9.103   4.037  1.1726  0.0894  1.6471
  410MOL0     H55346   6.070   8.875   4.022  0.5121 -1.3997 -0.7390
  410MOL0     H55347   5.944   8.889   3.908  2.7671 -2.1805  0.4852
  410MOL0     H55348   5.815   8.635   4.244 -1.6262 -0.9279 -1.0493
  410MOL0     H55349   5.612   9.092   4.462  2.8939 -3.4733  3.0468
  410MOL0     H55350   5.397   9.008   4.595  3.8509 -1.0294  3.1773
  411MOL0     O55351   7.185   1.987   9.293 -0.4555  0.1110  0.5026
  411MOL0     C55352   7.240   1.878   9.288 -0.8362 -0.7906 -0.7474
  411MOL0     O55353   7.191   1.754   9.262 -0.0394 -0.0658  0.0920
  411MOL0     C55354   7.064   1.743   9.219  0.4892  0.8820 -0.1441
  411MOL0     C55355   7.005   1.841   9.129 -0.0384 -0.2161  0.1828
  411MOL0     C55356   6.894   1.804   9.057 -1.3133 -0.5405 -0.0493
  411MOL0     C55357   6.842   1.675   9.072  0.4891 -0.7053 -0.6081
  411MOL0     O55358   6.728   1.646   8.987  0.6782 -0.2561 -0.0272
  411MOL0     C55359   6.612   1.587   9.042  0.6689 -0.2735  0.0875
  411MOL0     C55360   6.485   1.615   8.952 -0.8935  0.8762 -0.2160
  411MOL0     C55361   6.382   1.527   9.014  0.6209 -0.0471 -0.3683
  411MOL0     C55362   6.247   1.590   8.983  0.5922 -0.2518 -0.4861
  411MOL0     C55363   6.128   1.503   9.020  0.3802 -0.5340  0.0595
  411MOL0     C55364   5.998   1.584   9.037  0.5349  0.4345 -0.6072
  411MOL0     C55365   5.950   1.634   8.911  0.0972 -0.7118  0.1973
  411MOL0     C55366   5.792   1.656   8.928  0.2692  0.2680  0.0449
  411MOL0     N55367   5.734   1.728   8.821  0.4379 -0.9160 -0.0131
  411MOL0     C55368   5.743   1.703   8.687  0.3830 -0.0095 -0.1168
  411MOL0     C55369   5.649   1.788   8.636  0.6527  0.5333 -0.3686
  411MOL0     C55370   5.624   1.805   8.490 -0.8070 -1.4370 -0.3725
  411MOL0     C55371   5.631   1.958   8.454  0.3817  0.4493  0.3818
  411MOL0     C55372   5.692   1.984   8.314  0.3752 -0.7914 -0.6487
  411MOL0     C55373   5.601   1.967   8.194 -0.1309  0.0704  0.2564
  411MOL0     O55374   5.499   2.059   8.178  0.2857  0.5620 -0.2896
  411MOL0     C55375   5.531   2.191   8.157 -0.3224 -0.1793 -0.3602
  411MOL0     C55376   5.509   2.287   8.249 -0.7497 -0.3299 -0.4114
  411MOL0     C55377   5.524   2.429   8.227 -0.0999  0.7912  0.8587
  411MOL0     C55378   5.497   2.515   8.347 -0.6687  0.0363 -0.0446
  411MOL0     C55379   5.558   2.475   8.104  0.2283 -0.0716  0.6862
  411MOL0     C55380   5.559   2.622   8.070  0.0832 -0.2953 -0.4638
  411MOL0     O55381   5.619   2.658   7.944  0.0607  0.3147 -0.9006
  411MOL0     C55382   5.620   2.791   7.913  0.2901  0.0573  0.6828
  411MOL0     C55383   5.705   2.884   7.974 -0.3818 -0.8281 -0.5893
  411MOL0     C55384   5.690   3.023   7.951 -0.0687 -0.3446 -0.0911
  411MOL0     C55385   5.591   3.065   7.861  1.2715 -0.0264 -0.6743
  411MOL0     O55386   5.575   3.190   7.820  0.3799 -0.0121  0.1618
  411MOL0     C55387   5.450   3.263   7.822 -0.2469 -0.1232 -0.0737
  411MOL0     C55388   5.488   3.407   7.845  0.0359  0.2266  0.5983
  411MOL0     C55389   5.370   3.503   7.832  0.4599  0.2597  1.0555
  411MOL0     C55390   5.260   3.475   7.939 -0.9320  0.5430  0.2006
  411MOL0     C55391   5.124   3.524   7.882  0.3869  0.3284 -1.2343
  411MOL0     C55392   4.995   3.497   7.961  0.2678 -0.6523  0.2198
  411MOL0     C55393   4.885   3.590   7.923  0.1942 -0.6361 -1.4043
  411MOL0     C55394   4.754   3.552   7.984  0.9040 -0.9457 -0.8812
  411MOL0    Cl55395   4.640   3.683   7.938  0.0438 -0.1197  0.1219
  411MOL0     C55396   5.521   2.965   7.788  0.3681  0.7162 -0.8912
  411MOL0     C55397   5.537   2.830   7.811  0.9509 -0.7888 -0.1166
  411MOL0     O55398   5.492   2.702   8.139  0.5655 -0.4665 -0.0256
  411MOL0     C55399   5.572   2.377   8.004 -0.4372 -0.0838  0.5284
  411MOL0     C55400   5.555   2.233   8.026 -0.5396 -0.0018  0.4116
  411MOL0     N55401   5.595   1.865   8.743 -0.0370 -0.1780 -0.1156
  411MOL0     N55402   5.658   1.835   8.848 -0.0031 -0.8123  0.1150
  411MOL0     C55403   6.893   1.589   9.165 -0.3752 -0.8028  0.1018
  411MOL0     C55404   7.006   1.619   9.238 -0.2956  0.5186 -0.5233
  411MOL0     C55405   7.396   1.889   9.307  0.1070 -0.8182 -0.4183
  411MOL0     C55406   7.477   1.784   9.280 -0.5404  0.0308  0.9116
  411MOL0     C55407   7.620   1.792   9.277  0.5977  0.5096 -0.4935
  411MOL0     C55408   7.676   1.912   9.309  0.1879 -0.0177  0.3408
  411MOL0     O55409   7.816   1.921   9.315  0.2367  0.1370  0.1300
  411MOL0     C55410   7.880   2.036   9.382 -0.0029  0.2641  0.3230
  411MOL0     C55411   8.034   2.024   9.409  0.0016 -0.5810  0.3585
  411MOL0     C55412   8.119   1.992   9.282  1.2473  0.0084  0.7767
  411MOL0     C55413   8.265   1.969   9.315 -0.4194 -0.4451 -0.1623
  411MOL0     C55414   8.334   1.913   9.200  0.3630 -0.9390  0.7784
  411MOL0     C55415   8.399   1.863   9.111 -0.4579 -0.0681  0.0452
  411MOL0     C55416   7.594   2.025   9.347 -0.3375  0.9891  0.5204
  411MOL0     C55417   7.457   2.006   9.349  0.1930 -0.5323  0.7373
  411MOL0     H55418   7.055   1.933   9.099  0.2559 -0.9391 -1.6965
  411MOL0     H55419   6.848   1.870   8.985 -0.7939 -1.7123 -1.5135
  411MOL0     H55420   6.624   1.479   9.046 -0.6757 -0.6287 -2.7168
  411MOL0     H55421   6.589   1.633   9.139  0.4885 -0.0332 -0.0659
  411MOL0     H55422   6.462   1.721   8.964 -0.9671  1.1273 -2.2549
  411MOL0     H55423   6.506   1.579   8.851  1.1713  1.6969 -0.1147
  411MOL0     H55424   6.379   1.427   8.970 -2.5888  0.0155 -0.5372
  411MOL0     H55425   6.387   1.510   9.122  1.5629 -3.2882 -0.8316
  411MOL0     H55426   6.242   1.689   9.028  0.5651  0.2044 -1.4841
  411MOL0     H55427   6.250   1.595   8.874  1.8607 -1.4937 -0.5418
  411MOL0     H55428   6.113   1.435   8.935 -2.3911  1.8321 -1.5523
  411MOL0     H55429   6.156   1.456   9.115 -2.8488  0.3662  1.6036
  411MOL0     H55430   5.928   1.511   9.079  0.0608 -1.0555 -3.6704
  411MOL0     H55431   6.009   1.669   9.104 -0.6254  0.2178 -0.1267
  411MOL0     H55432   5.996   1.730   8.887 -1.9034 -0.1152 -1.5566
  411MOL0     H55433   5.970   1.562   8.831 -0.7818  0.1045 -0.7742
  411MOL0     H55434   5.782   1.709   9.022  4.5936  0.5834  0.5348
  411MOL0     H55435   5.744   1.557   8.933  2.0224 -0.5814  1.3583
  411MOL0     H55436   5.794   1.623   8.636  1.1736  0.2371  0.2690
  411MOL0     H55437   5.708   1.751   8.445  1.5430  2.0599 -0.5391
  411MOL0     H55438   5.530   1.760   8.459 -1.8571  1.1449 -1.2074
  411MOL0     H55439   5.689   2.010   8.531 -0.7773  0.6538  1.1436
  411MOL0     H55440   5.532   1.997   8.476  1.4385  3.6016  0.0457
  411MOL0     H55441   5.774   1.913   8.297  0.1602 -1.4850  0.9746
  411MOL0     H55442   5.731   2.086   8.302 -3.2248  0.6653 -1.1343
  411MOL0     H55443   5.568   1.863   8.191  1.5531 -0.5293  1.1070
  411MOL0     H55444   5.661   1.985   8.104  0.8619  5.5501  1.6319
  411MOL0     H55445   5.459   2.267   8.343 -0.8206  2.0569  0.1255
  411MOL0     H55446   5.575   2.590   8.363  1.5657 -2.5897  2.6023
  411MOL0     H55447   5.401   2.566   8.339  0.8060  2.8235 -1.2287
  411MOL0     H55448   5.506   2.458   8.440  0.8854  2.1258  1.1825
  411MOL0     H55449   5.761   2.878   8.067 -0.7218  2.3776 -0.0830
  411MOL0     H55450   5.755   3.100   7.992 -0.5133  0.9288 -1.6250
  411MOL0     H55451   5.408   3.265   7.721  2.5692 -2.0908 -1.4086
  411MOL0     H55452   5.383   3.224   7.900  2.0971 -2.2902  1.0089
  411MOL0     H55453   5.510   3.413   7.952 -4.0115  0.1880  1.5955
  411MOL0     H55454   5.570   3.438   7.779  0.8362 -0.6269  1.1660
  411MOL0     H55455   5.318   3.494   7.736  1.1440  1.5573  0.5428
  411MOL0     H55456   5.401   3.607   7.842 -2.1098  1.4135 -1.5316
  411MOL0     H55457   5.250   3.372   7.975  2.7711  1.1404  3.6315
  411MOL0     H55458   5.285   3.533   8.029  2.2010  0.7649 -0.6679
  411MOL0     H55459   5.105   3.472   7.788 -1.8139  1.1672 -1.3131
  411MOL0     H55460   5.132   3.627   7.846 -2.8005  0.8253 -0.8536
  411MOL0     H55461   4.966   3.392   7.946  0.7619 -0.8592  0.6994
  411MOL0     H55462   5.016   3.518   8.066 -2.2300 -0.6733  0.7799
  411MOL0     H55463   4.874   3.608   7.815  3.0345  2.7291 -1.3404
  411MOL0     H55464   4.919   3.684   7.968  0.2258 -1.3990  0.2256
  411MOL0     H55465   4.775   3.553   8.092  0.2980  0.1526 -0.7568
  411MOL0     H55466   4.710   3.457   7.954 -1.9994 -0.4527  1.3233
  411MOL0     H55467   5.445   2.996   7.718 -0.2466 -1.8746 -1.4858
  411MOL0     H55468   5.499   2.751   7.746 -0.6657 -1.5009  1.5877
  411MOL0     H55469   5.601   2.406   7.903 -1.6229 -1.0364 -0.1152
  411MOL0     H55470   5.583   2.175   7.939  1.8307  0.6514  0.6597
  411MOL0     H55471   6.831   1.501   9.174 -4.4738  1.8090 -0.3623
  411MOL0     H55472   7.042   1.539   9.302 -1.0378  0.8274  0.2943
  411MOL0     H55473   7.434   1.686   9.259 -0.9636 -0.2403  2.8834
  411MOL0     H55474   7.664   1.699   9.244 -3.8250 -0.7841 -3.7960
  411MOL0     H55475   7.864   2.122   9.317 -1.0387 -1.5554 -1.9776
  411MOL0     H55476   7.844   2.056   9.483  2.4636  1.6518  1.0218
  411MOL0     H55477   8.061   1.944   9.478  4.0069  1.2085  1.1625
  411MOL0     H55478   8.079   2.118   9.440 -1.1008  0.0738  0.0399
  411MOL0     H55479   8.107   2.066   9.202  0.9720 -0.3490  0.4862
  411MOL0     H55480   8.077   1.895   9.253 -0.4678  0.0645  2.8606
  411MOL0     H55481   8.280   1.908   9.404 -3.7102  0.1953  0.9954
  411MOL0     H55482   8.321   2.061   9.335  3.0355 -2.1960 -1.0679
  411MOL0     H55483   8.429   1.813   9.021 -1.0329 -1.0095  0.3710
  411MOL0     H55484   7.636   2.124   9.363  2.0715  0.3724 -1.3754
  411MOL0     H55485   7.401   2.094   9.382 -1.0442 -2.0916  3.1039
  412MOL0     O55486  11.019  10.979   6.096 -0.1842  0.5617  0.2879
  412MOL0     C55487  11.033  11.066   6.184  0.3642  0.3080  0.1991
  412MOL0     O55488  10.931  11.134   6.240 -0.3403 -0.0687 -0.1034
  412MOL0     C55489  10.808  11.074   6.256  1.0655 -0.3650  0.6431
  412MOL0     C55490  10.793  10.937   6.264  0.5856  1.1102  0.1158
  412MOL0     C55491  10.663  10.885   6.258 -0.2256 -0.9616  0.4266
  412MOL0     C55492  10.553  10.958   6.261 -0.7447 -0.0630  0.2000
  412MOL0     O55493  10.433  10.895   6.244 -0.7372  0.0346 -0.4042
  412MOL0     C55494  10.385  10.854   6.371  0.3146  0.1795  0.0458
  412MOL0     C55495  10.257  10.778   6.355 -0.1744 -0.8226  0.0786
  412MOL0     C55496  10.259  10.651   6.272 -0.5363  0.1686 -0.5047
  412MOL0     C55497  10.116  10.611   6.238 -0.9032  0.5372  0.1608
  412MOL0     C55498  10.107  10.471   6.165 -0.0360 -0.3633  0.0288
  412MOL0     C55499   9.970  10.439   6.126 -0.6663 -0.4945  0.3535
  412MOL0     C55500   9.944  10.322   6.027 -0.3858 -0.9263 -0.3841
  412MOL0     C55501   9.795  10.301   6.018 -0.0109  0.3598 -0.5482
  412MOL0     N55502   9.727  10.222   6.127 -0.2208 -0.0656  0.7483
  412MOL0     C55503   9.715  10.092   6.122  0.3150 -0.8105 -0.2193
  412MOL0     C55504   9.632  10.063   6.232 -1.0543 -0.3720  1.6206
  412MOL0     C55505   9.596   9.924   6.284 -0.1269 -0.5648  0.6241
  412MOL0     C55506   9.718   9.857   6.352 -0.3429  0.1767 -0.9621
  412MOL0     C55507   9.704   9.708   6.382  0.1975  0.3797 -0.1944
  412MOL0     C55508   9.842   9.631   6.410  0.4084  0.3245 -0.3574
  412MOL0     O55509   9.915   9.617   6.291 -0.2628 -0.0212  0.0445
  412MOL0     C55510  10.048   9.587   6.319 -0.6851 -0.1794  0.3262
  412MOL0     C55511  10.143   9.630   6.221 -0.5635  0.6533  0.0185
  412MOL0     C55512  10.283   9.603   6.238  0.1978  0.8541  0.7341
  412MOL0     C55513  10.361   9.628   6.108 -0.2508 -0.1566 -0.1366
  412MOL0     C55514  10.337   9.536   6.356  0.6060 -1.0227  0.0260
  412MOL0     C55515  10.480   9.514   6.384 -0.3391 -0.3336  0.1527
  412MOL0     O55516  10.503   9.400   6.455  0.0183  0.0685 -0.2592
  412MOL0     C55517  10.630   9.358   6.471 -0.3112 -0.0998  0.1812
  412MOL0     C55518  10.668   9.234   6.433 -0.4162  0.1820  0.8524
  412MOL0     C55519  10.794   9.180   6.453 -0.3945 -0.5193  0.3548
  412MOL0     C55520  10.886   9.256   6.519 -0.6412 -0.9652  0.6479
  412MOL0     O55521  11.018   9.220   6.541  0.5391 -0.4155 -0.2359
  412MOL0     C55522  11.079   9.137   6.445 -0.8148 -0.6409  0.0387
  412MOL0     C55523  11.224   9.110   6.479 -0.4013  0.5004 -0.4274
  412MOL0     C55524  11.307   9.244   6.499  0.3836  0.0109  0.2926
  412MOL0     C55525  11.436   9.252   6.416  0.0428  0.1037 -0.2542
  412MOL0     C55526  11.502   9.395   6.406 -0.3562  0.1262 -0.8608
  412MOL0     C55527  11.644   9.390   6.473 -0.5197 -0.6689 -0.2933
  412MOL0     C55528  11.706   9.530   6.454 -0.9000 -0.6513  0.3486
  412MOL0     C55529  11.668   9.629   6.565 -0.9293  0.5176  1.0379
  412MOL0    Cl55530  11.787   9.780   6.551  0.0640  0.2806  0.6670
  412MOL0     C55531  10.846   9.376   6.587  0.5028  0.8934  0.3000
  412MOL0     C55532  10.719   9.433   6.549 -0.1683 -0.1871 -0.2833
  412MOL0     O55533  10.563   9.596   6.334  0.0895 -0.0958 -0.1639
  412MOL0     C55534  10.241   9.492   6.452  0.5599 -0.2232 -0.8022
  412MOL0     C55535  10.101   9.513   6.434  0.3335 -0.8007 -0.4450
  412MOL0     N55536   9.597  10.187   6.284 -0.3255  0.3346  0.1652
  412MOL0     N55537   9.658  10.280   6.226  0.4318  0.1520  0.1731
  412MOL0     C55538  10.562  11.096   6.268 -0.4486  0.2044  0.4532
  412MOL0     C55539  10.687  11.158   6.274 -0.0043 -0.4949  0.5192
  412MOL0     C55540  11.182  11.099   6.205  0.8620  0.5349 -1.1592
  412MOL0     C55541  11.229  11.156   6.320 -0.0489 -0.3762  0.0962
  412MOL0     C55542  11.367  11.184   6.333  0.5822  0.0416 -0.5978
  412MOL0     C55543  11.455  11.153   6.224  0.0134 -0.2508 -0.3271
  412MOL0     O55544  11.593  11.189   6.222 -0.5293 -0.6043  0.6952
  412MOL0     C55545  11.645  11.271   6.330 -0.5480 -0.2043 -0.5533
  412MOL0     C55546  11.791  11.296   6.296  1.2921  0.6948  0.0657
  412MOL0     C55547  11.830  11.334   6.154 -0.5606 -0.2250  1.0616
  412MOL0     C55548  11.975  11.336   6.143 -0.3482 -0.6273 -0.5180
  412MOL0     C55549  12.044  11.443   6.221 -0.4774 -0.2832 -0.1544
  412MOL0     C55550  12.107  11.533   6.268  0.4673 -0.1370 -0.8386
  412MOL0     C55551  11.407  11.095   6.108  0.1937 -0.2362 -0.2696
  412MOL0     C55552  11.267  11.059   6.110 -0.9249  0.1565  0.7173
  412MOL0     H55553  10.881  10.873   6.264  0.1624  0.4511  2.0880
  412MOL0     H55554  10.657  10.777   6.252  0.6432 -1.1589  2.4790
  412MOL0     H55555  10.461  10.803   6.432  0.2693  1.9692  1.7032
  412MOL0     H55556  10.362  10.946   6.426  0.9305  0.3140  0.0877
  412MOL0     H55557  10.212  10.758   6.452  2.0880 -0.2201  1.3161
  412MOL0     H55558  10.183  10.840   6.304  1.3965  3.3588  2.4502
  412MOL0     H55559  10.315  10.664   6.179  0.1578  0.0508 -0.1163
  412MOL0     H55560  10.297  10.568   6.333 -0.8091 -0.0920 -0.6832
  412MOL0     H55561  10.050  10.591   6.323 -1.0489 -1.9390 -0.4622
  412MOL0     H55562  10.074  10.685   6.170 -0.6335 -0.0063 -0.6143
  412MOL0     H55563  10.172  10.480   6.077  2.6228 -1.1162  1.7800
  412MOL0     H55564  10.150  10.394   6.230  2.5344  1.3686  0.5595
  412MOL0     H55565   9.915  10.418   6.219  2.7005 -4.4647  1.7508
  412MOL0     H55566   9.919  10.523   6.079 -1.0647 -0.6187  0.5539
  412MOL0     H55567   9.988  10.359   5.933 -2.1118 -2.5962 -1.9375
  412MOL0     H55568   9.998  10.233   6.058  0.7616  0.1250  0.7646
  412MOL0     H55569   9.768  10.263   5.919  1.9504  1.8498 -1.7104
  412MOL0     H55570   9.744  10.397   6.013 -1.8247 -0.5888 -1.0891
  412MOL0     H55571   9.762  10.027   6.048  1.1401 -2.1643  1.4300
  412MOL0     H55572   9.511   9.934   6.352  0.3129  1.3343  0.9517
  412MOL0     H55573   9.545   9.862   6.209 -3.4776  0.8208  1.5631
  412MOL0     H55574   9.744   9.911   6.443  1.0403 -1.7481 -0.1320
  412MOL0     H55575   9.802   9.869   6.283  0.7999  1.5287  0.5869
  412MOL0     H55576   9.646   9.651   6.309 -1.3380  0.5923  0.7949
  412MOL0     H55577   9.653   9.687   6.477  2.3941 -3.9301  0.2804
  412MOL0     H55578   9.824   9.537   6.464 -2.3360  1.2240  0.4405
  412MOL0     H55579   9.895   9.691   6.485 -1.9528  1.9447  0.1260
  412MOL0     H55580  10.102   9.668   6.128 -1.3300  1.1989  0.5706
  412MOL0     H55581  10.442   9.555   6.116 -1.7478 -1.6448  3.8168
  412MOL0     H55582  10.305   9.605   6.016  1.7999 -2.5321 -0.8876
  412MOL0     H55583  10.396   9.732   6.108  0.6712 -0.4448  1.1788
  412MOL0     H55584  10.595   9.180   6.372  2.0046 -1.9894 -0.3618
  412MOL0     H55585  10.823   9.092   6.397 -0.6613 -0.5372  0.2447
  412MOL0     H55586  11.026   9.042   6.435 -0.1914 -1.2138  1.7242
  412MOL0     H55587  11.082   9.189   6.349 -0.7542 -1.7353 -0.5719
  412MOL0     H55588  11.213   9.059   6.575 -2.2756  2.7222  0.6346
  412MOL0     H55589  11.262   9.048   6.397 -1.8511 -4.6777  2.4171
  412MOL0     H55590  11.324   9.266   6.604  0.8243  2.1818 -0.1973
  412MOL0     H55591  11.247   9.323   6.455  0.3294 -0.0537  0.2482
  412MOL0     H55592  11.502   9.185   6.472 -0.8129  0.5120  1.3080
  412MOL0     H55593  11.426   9.210   6.316  0.6144  0.5245 -0.4886
  412MOL0     H55594  11.440   9.466   6.461  0.5281  0.8547 -0.7730
  412MOL0     H55595  11.497   9.434   6.304 -0.6210  0.4208 -0.7360
  412MOL0     H55596  11.636   9.377   6.581 -0.4680  2.0552  0.1015
  412MOL0     H55597  11.708   9.311   6.433  2.1186  1.7481 -1.1374
  412MOL0     H55598  11.693   9.570   6.353 -1.6803 -0.6958  0.4233
  412MOL0     H55599  11.813   9.514   6.469 -0.6836  0.8020  0.4763
  412MOL0     H55600  11.685   9.566   6.652 -0.0908  1.1997  1.3773
  412MOL0     H55601  11.561   9.653   6.568 -0.8554  0.7634  3.3411
  412MOL0     H55602  10.914   9.418   6.660  1.7664 -1.2899  0.4597
  412MOL0     H55603  10.676   9.518   6.601 -1.3100 -0.7230 -0.3268
  412MOL0     H55604  10.284   9.439   6.537  0.6784 -1.1891 -1.4510
  412MOL0     H55605  10.037   9.476   6.513 -1.4868  2.8054 -0.0177
  412MOL0     H55606  10.465  11.144   6.264  0.3063  1.7604 -0.0433
  412MOL0     H55607  10.692  11.264   6.294  0.4539 -0.5562  0.7406
  412MOL0     H55608  11.170  11.181   6.408  1.9874 -0.6173  1.6185
  412MOL0     H55609  11.400  11.223   6.429  0.3236  0.8623 -0.8293
  412MOL0     H55610  11.599  11.369   6.347 -1.0083 -0.7071  1.3733
  412MOL0     H55611  11.652  11.212   6.422  3.2594 -0.3899 -0.8048
  412MOL0     H55612  11.848  11.208   6.328 -0.2528  0.2602  1.8118
  412MOL0     H55613  11.813  11.377   6.365  0.3815  0.6338  0.4491
  412MOL0     H55614  11.777  11.428   6.134  0.9030  0.6907  1.2962
  412MOL0     H55615  11.808  11.256   6.081  2.5200 -1.7089  1.5210
  412MOL0     H55616  11.991  11.361   6.038 -0.0208  0.2113 -0.2744
  412MOL0     H55617  12.023  11.239   6.160 -0.2044 -0.4736 -0.0231
  412MOL0     H55618  12.131  11.628   6.312 -0.6705 -0.8479  1.4802
  412MOL0     H55619  11.479  11.087   6.027  1.1578  2.6536  0.1845
  412MOL0     H55620  11.229  11.008   6.022 -2.5052  0.7513  1.0207
  413MOL0     O55621   3.622  11.011   1.405  1.1617 -0.0538 -0.4852
  413MOL0     C55622   3.616  11.112   1.341 -0.2003  0.3726  0.1664
  413MOL0     O55623   3.503  11.175   1.302 -0.5620  0.4684  0.1681
  413MOL0     C55624   3.383  11.109   1.305 -0.5719 -0.9165  0.1572
  413MOL0     C55625   3.368  10.973   1.276 -0.1177  0.7905 -0.2792
  413MOL0     C55626   3.234  10.930   1.273 -0.7967 -0.1236 -0.2755
  413MOL0     C55627   3.125  11.018   1.296 -0.1968  0.7076 -0.2176
  413MOL0     O55628   2.996  10.984   1.282 -0.0249  0.4789 -0.5662
  413MOL0     C55629   2.964  10.859   1.224 -0.2644  0.1090  0.1264
  413MOL0     C55630   2.818  10.848   1.188  0.3412  1.4033  0.0233
  413MOL0     C55631   2.736  10.825   1.319 -0.0668  0.8297 -0.0008
  413MOL0     C55632   2.587  10.837   1.299  0.5124  0.7441 -0.1235
  413MOL0     C55633   2.524  10.785   1.430  0.1401 -0.9552  0.9010
  413MOL0     C55634   2.370  10.803   1.413 -0.1370 -0.5555  0.7470
  413MOL0     C55635   2.289  10.762   1.532  0.2083  0.5728 -0.2638
  413MOL0     C55636   2.153  10.838   1.513  0.5260  0.9851 -0.1480
  413MOL0     N55637   2.056  10.784   1.414 -0.3543 -0.6428 -0.0732
  413MOL0     C55638   2.045  10.850   1.298 -0.4687 -0.3825 -0.1238
  413MOL0     C55639   2.029  10.761   1.207  0.3770  0.4525  0.1368
  413MOL0     C55640   2.032  10.792   1.059 -1.2375 -0.6536 -0.3796
  413MOL0     C55641   1.900  10.794   1.002 -0.7409 -0.4343 -0.2821
  413MOL0     C55642   1.902  10.819   0.846  0.0469 -0.5090 -0.7715
  413MOL0     C55643   1.760  10.839   0.789 -0.3659  0.2015  0.1020
  413MOL0     O55644   1.699  10.718   0.804  0.0233  0.0973  1.0616
  413MOL0     C55645   1.600  10.698   0.716 -1.2337 -0.7969 -0.4429
  413MOL0     C55646   1.556  10.775   0.613  0.6979 -0.0775  0.0490
  413MOL0     C55647   1.447  10.747   0.529 -0.0707  0.4937 -0.0974
  413MOL0     C55648   1.401  10.853   0.430  0.0848  0.3317 -0.2142
  413MOL0     C55649   1.375  10.624   0.558 -0.0365  0.4776  0.5079
  413MOL0     C55650   1.255  10.583   0.482  0.0796 -0.4120 -0.6881
  413MOL0     O55651   1.158  10.665   0.453 -0.5755  0.3382 -0.6830
  413MOL0     C55652   1.038  10.625   0.403  0.7415 -0.6833 -0.5546
  413MOL0     C55653   0.928  10.673   0.477  0.2133  0.8786  0.1021
  413MOL0     C55654   0.803  10.634   0.447 -0.2165  0.7072  0.0791
  413MOL0     C55655   0.786  10.539   0.346 -0.3090  0.8459  0.2984
  413MOL0     O55656   0.660  10.495   0.351 -0.0826 -0.3037 -0.2061
  413MOL0     C55657   0.598  10.455   0.228 -1.0893 -0.4770  0.2215
  413MOL0     C55658   0.448  10.438   0.263 -0.1522  0.2138 -0.4002
  413MOL0     C55659   0.376  10.399   0.131  0.4245  0.1431 -0.6241
  413MOL0     C55660   0.264  10.506   0.117 -0.1193  0.1661  0.1020
  413MOL0     C55661   0.157  10.479   0.010 -0.1980  0.2877  1.1170
  413MOL0     C55662   0.067  10.600  -0.004 -0.5680  0.5586  0.3552
  413MOL0     C55663  -0.008  10.575  -0.134 -0.2251 -0.2859  0.4048
  413MOL0     C55664  -0.120  10.672  -0.152  0.3349 -0.6717 -0.4569
  413MOL0    Cl55665  -0.166  10.679  -0.324  0.3370  0.0369  0.1181
  413MOL0     C55666   0.893  10.497   0.262  0.6177  1.0016 -0.5513
  413MOL0     C55667   1.015  10.537   0.295 -0.4680 -0.2528 -0.6312
  413MOL0     O55668   1.261  10.467   0.447 -0.3232 -0.1816  0.2377
  413MOL0     C55669   1.426  10.538   0.653 -0.9183 -0.8444  0.1123
  413MOL0     C55670   1.546  10.575   0.726  0.3811 -0.3904 -0.3686
  413MOL0     N55671   2.027  10.635   1.266  0.0275 -0.1366  0.1673
  413MOL0     N55672   2.045  10.651   1.392 -0.5480 -0.2546  0.1295
  413MOL0     C55673   3.152  11.155   1.326  0.1784 -0.2384  0.4569
  413MOL0     C55674   3.278  11.199   1.325 -0.8173  0.1669 -0.0605
  413MOL0     C55675   3.741  11.178   1.300  0.3549  0.6312  0.6584
  413MOL0     C55676   3.864  11.161   1.366 -0.8010  0.3283  0.3645
  413MOL0     C55677   3.981  11.233   1.318 -0.5988  0.4512  0.6991
  413MOL0     C55678   3.985  11.301   1.197  0.3066 -0.3973  0.0734
  413MOL0     O55679   4.104  11.342   1.137  0.9810  0.8501  2.0535
  413MOL0     C55680   4.213  11.249   1.131  0.6249  0.8814  0.0155
  413MOL0     C55681   4.326  11.292   1.219 -0.0462  0.3549 -0.0553
  413MOL0     C55682   4.384  11.424   1.168 -0.4834 -0.8790  0.8003
  413MOL0     C55683   4.479  11.409   1.047  0.1400 -0.6543 -0.6014
  413MOL0     C55684   4.531  11.546   1.010 -0.1412 -0.2863 -0.2426
  413MOL0     C55685   4.584  11.655   0.994  0.3377  0.1417  0.6531
  413MOL0     C55686   3.857  11.314   1.135  0.2055 -1.3325 -0.4398
  413MOL0     C55687   3.742  11.265   1.179  0.3435  0.7273 -0.3572
  413MOL0     H55688   3.439  10.892   1.259 -1.5669 -0.6584  0.2670
  413MOL0     H55689   3.224  10.823   1.253  3.3762 -0.6769 -0.4349
  413MOL0     H55690   3.018  10.861   1.129 -2.3713 -2.2225 -1.2553
  413MOL0     H55691   3.005  10.766   1.266  1.1918 -0.6071 -2.6103
  413MOL0     H55692   2.784  10.945   1.149 -0.1031  1.0224 -0.5576
  413MOL0     H55693   2.796  10.762   1.124  0.1744  1.3593  0.1392
  413MOL0     H55694   2.761  10.729   1.364 -1.8326  0.5907  0.5168
  413MOL0     H55695   2.780  10.899   1.387  0.7250 -1.0587  1.6159
  413MOL0     H55696   2.548  10.938   1.284 -3.0189 -0.5986 -1.1058
  413MOL0     H55697   2.561  10.772   1.215  1.6360  3.3554 -2.6618
  413MOL0     H55698   2.544  10.677   1.437  1.7811 -0.8820 -1.2412
  413MOL0     H55699   2.568  10.841   1.513 -1.6377 -2.2095  2.7874
  413MOL0     H55700   2.362  10.909   1.387 -0.1541 -0.5311  0.8498
  413MOL0     H55701   2.338  10.749   1.324 -0.3631  2.2166 -0.9969
  413MOL0     H55702   2.282  10.653   1.540  0.6244 -0.0170 -5.0412
  413MOL0     H55703   2.328  10.810   1.622 -2.9426  1.6593  0.6531
  413MOL0     H55704   2.179  10.944   1.510  0.9449  0.9647  1.5968
  413MOL0     H55705   2.101  10.835   1.609  0.2054  2.2012 -0.2644
  413MOL0     H55706   2.068  10.954   1.280  0.5840 -0.6654 -0.4618
  413MOL0     H55707   2.088  10.885   1.044 -0.6640 -0.8726  0.3611
  413MOL0     H55708   2.091  10.711   1.015 -0.7105  0.3570 -1.6132
  413MOL0     H55709   1.849  10.877   1.051  0.8060 -0.9645  2.4657
  413MOL0     H55710   1.860  10.695   1.023  0.5537 -0.9863 -0.2881
  413MOL0     H55711   1.940  10.725   0.803 -1.7657 -1.9799  0.6622
  413MOL0     H55712   1.966  10.904   0.824  1.3918 -1.3094 -0.0958
  413MOL0     H55713   1.777  10.859   0.683  2.4910  2.7679  0.8799
  413MOL0     H55714   1.688  10.912   0.827 -1.4447 -0.8205  0.0312
  413MOL0     H55715   1.601  10.873   0.600 -0.8149  0.7502  0.7383
  413MOL0     H55716   1.331  10.924   0.473  1.9934  3.1042 -1.3472
  413MOL0     H55717   1.490  10.908   0.397  1.0272 -2.1761 -2.2241
  413MOL0     H55718   1.359  10.798   0.345 -2.7653 -0.0980  1.3860
  413MOL0     H55719   0.934  10.747   0.556 -5.3059  0.4275  1.3810
  413MOL0     H55720   0.721  10.666   0.511 -1.0379  0.6395 -0.9176
  413MOL0     H55721   0.603  10.531   0.150 -0.8347 -0.1747  0.5302
  413MOL0     H55722   0.646  10.362   0.194  1.9263  0.5939  1.2366
  413MOL0     H55723   0.422  10.355   0.329  3.5846 -0.0508  1.0188
  413MOL0     H55724   0.421  10.535   0.306 -1.0302 -0.7276  1.2617
  413MOL0     H55725   0.320  10.305   0.138 -1.4244  1.2219 -0.3549
  413MOL0     H55726   0.443  10.388   0.045  0.0975 -3.0591 -0.6038
  413MOL0     H55727   0.214  10.506   0.214  1.1737 -0.8527  0.7883
  413MOL0     H55728   0.304  10.605   0.095 -2.2704  0.7689 -1.4867
  413MOL0     H55729   0.099  10.389   0.031 -1.4789  0.5988 -0.8365
  413MOL0     H55730   0.203  10.454  -0.086 -1.3970 -0.4297  0.6998
  413MOL0     H55731   0.004  10.609   0.085  0.3271  0.8675  0.9732
  413MOL0     H55732   0.122  10.692  -0.023 -3.7062  2.5964  0.3823
  413MOL0     H55733  -0.056  10.477  -0.140 -1.6680  0.4826 -3.4228
  413MOL0     H55734   0.060  10.580  -0.220 -0.2160 -0.4201  0.4033
  413MOL0     H55735  -0.083  10.771  -0.121  1.9793 -1.2501 -0.4487
  413MOL0     H55736  -0.200  10.641  -0.085  1.0902 -2.8118 -0.4933
  413MOL0     H55737   0.862  10.409   0.207 -2.2146  2.5262 -1.6049
  413MOL0     H55738   1.107  10.492   0.261  1.0949  1.0223  1.6261
  413MOL0     H55739   1.386  10.438   0.663  1.5027 -1.8633  0.4440
  413MOL0     H55740   1.583  10.502   0.797  0.4504 -1.5973 -1.5897
  413MOL0     H55741   3.067  11.221   1.331 -0.1288 -0.1996 -3.0372
  413MOL0     H55742   3.307  11.301   1.348  1.5934 -0.2968 -0.7131
  413MOL0     H55743   3.858  11.111   1.462  1.9793  3.4284  2.3879
  413MOL0     H55744   4.074  11.230   1.374 -1.1740 -0.3738  1.6364
  413MOL0     H55745   4.181  11.151   1.168  4.2615  0.3490  2.2943
  413MOL0     H55746   4.261  11.240   1.033  3.2157  1.6096  1.1347
  413MOL0     H55747   4.414  11.228   1.224  1.8012  2.8430  2.0923
  413MOL0     H55748   4.299  11.303   1.324  3.3268 -0.3583  1.0142
  413MOL0     H55749   4.451  11.467   1.243  1.0270 -2.1319  0.2147
  413MOL0     H55750   4.302  11.493   1.145  0.1900  0.1167  1.3131
  413MOL0     H55751   4.433  11.357   0.962  1.0668  2.4058 -3.1466
  413MOL0     H55752   4.563  11.346   1.078 -0.7224 -1.3013  0.5249
  413MOL0     H55753   4.635  11.748   0.980 -0.1935  0.2652 -0.5666
  413MOL0     H55754   3.845  11.383   1.052  3.1129 -1.1840 -0.8580
  413MOL0     H55755   3.652  11.283   1.122  0.8455 -1.2063 -1.8696
  414MOL0     O55756   7.830  10.966   8.750 -0.6234  0.1242  0.0966
  414MOL0     C55757   7.929  11.013   8.808  0.4473 -0.1801  0.1717
  414MOL0     O55758   7.934  11.141   8.867 -0.9050  0.8265 -0.0993
  414MOL0     C55759   7.824  11.218   8.885 -0.0646 -0.5830  0.0534
  414MOL0     C55760   7.790  11.304   8.781 -0.2564  0.0387  0.1445
  414MOL0     C55761   7.660  11.370   8.777 -1.0492  0.3500 -0.2788
  414MOL0     C55762   7.576  11.361   8.894 -0.8708 -0.3888  1.2214
  414MOL0     O55763   7.459  11.428   8.898  0.5575 -0.0855 -0.8983
  414MOL0     C55764   7.370  11.403   8.795  0.4341  0.2334 -0.8787
  414MOL0     C55765   7.245  11.493   8.815  0.2827  0.4578 -0.0062
  414MOL0     C55766   7.144  11.472   8.699  0.1748  0.1529 -0.7297
  414MOL0     C55767   7.011  11.423   8.761  0.4400  0.6485  0.3713
  414MOL0     C55768   6.915  11.352   8.659 -0.0773  0.0802  0.5930
  414MOL0     C55769   6.970  11.217   8.631  0.6418  1.0863 -0.3563
  414MOL0     C55770   6.862  11.122   8.563 -0.2332  0.0993 -0.2358
  414MOL0     C55771   6.752  11.081   8.666  0.0527  0.2916  0.8455
  414MOL0     N55772   6.624  11.054   8.595  0.0911 -0.0025  0.3004
  414MOL0     C55773   6.556  10.932   8.603 -0.4407 -0.7187 -0.3408
  414MOL0     C55774   6.436  10.966   8.543 -0.0033 -0.2672 -0.0222
  414MOL0     C55775   6.323  10.883   8.526  0.2775  0.5090 -0.4252
  414MOL0     C55776   6.307  10.751   8.604 -0.4229  0.1812 -0.1401
  414MOL0     C55777   6.224  10.647   8.526  0.1635  0.0081  0.4257
  414MOL0     C55778   6.296  10.563   8.421  0.7409  0.4473 -0.9715
  414MOL0     O55779   6.222  10.451   8.375  0.5667 -0.2778  0.6824
  414MOL0     C55780   6.122  10.479   8.283 -0.3999 -0.3715  0.4695
  414MOL0     C55781   6.095  10.611   8.220  0.2365  0.9081 -0.8468
  414MOL0     C55782   5.990  10.612   8.128  0.4618 -0.8604 -0.0165
  414MOL0     C55783   5.973  10.744   8.052 -0.1685  0.1916  0.3331
  414MOL0     C55784   5.911  10.495   8.093  0.3932 -0.1012 -0.2992
  414MOL0     C55785   5.796  10.496   8.000  0.4077  0.4192  0.5033
  414MOL0     O55786   5.770  10.378   7.933  0.3124 -1.2002  0.1890
  414MOL0     C55787   5.652  10.374   7.853 -0.1415 -0.2477  0.1650
  414MOL0     C55788   5.526  10.413   7.891 -0.3900 -0.5130 -0.4885
  414MOL0     C55789   5.419  10.368   7.812  0.4762  0.3019 -0.6969
  414MOL0     C55790   5.429  10.290   7.700  0.6289 -0.4882 -0.3878
  414MOL0     O55791   5.318  10.246   7.631  0.1732  0.4357  0.5831
  414MOL0     C55792   5.242  10.357   7.576 -0.5269  0.7816  0.4397
  414MOL0     C55793   5.298  10.410   7.437  0.6761 -0.1994 -0.3572
  414MOL0     C55794   5.208  10.517   7.373 -0.3257  0.7494 -0.6622
  414MOL0     C55795   5.285  10.572   7.249  0.3333 -0.7144  0.3502
  414MOL0     C55796   5.217  10.700   7.195 -0.2702 -0.7805 -0.6419
  414MOL0     C55797   5.223  10.813   7.293 -0.8627  0.5647 -1.0639
  414MOL0     C55798   5.291  10.944   7.248  0.2621 -0.1986 -0.6917
  414MOL0     C55799   5.332  11.032   7.372 -0.4264  0.9297  0.1338
  414MOL0    Cl55800   5.217  11.037   7.501  0.0000 -0.1539 -0.4495
  414MOL0     C55801   5.557  10.251   7.665  1.0436  0.2754 -0.7477
  414MOL0     C55802   5.669  10.288   7.739 -0.4952 -0.0645  0.2049
  414MOL0     O55803   5.734  10.600   7.990 -0.2527 -0.4980  0.1497
  414MOL0     C55804   5.942  10.375   8.159  1.0669 -0.3107 -0.4484
  414MOL0     C55805   6.046  10.364   8.252  0.4707 -0.5656 -0.4143
  414MOL0     N55806   6.447  11.092   8.492  0.4049  0.0652 -0.4742
  414MOL0     N55807   6.559  11.142   8.517 -0.3630 -0.1755 -0.5733
  414MOL0     C55808   7.611  11.287   9.006 -0.1928  0.0044 -0.0408
  414MOL0     C55809   7.731  11.211   8.997  0.4652 -0.1211  0.3981
  414MOL0     C55810   8.060  10.947   8.817 -0.2889  0.7713 -0.5621
  414MOL0     C55811   8.101  10.899   8.946 -0.0656  0.1551  0.4452
  414MOL0     C55812   8.223  10.840   8.956  0.1320  0.4706  0.3556
  414MOL0     C55813   8.294  10.808   8.842  0.6676  0.7288  0.0327
  414MOL0     O55814   8.419  10.754   8.870 -0.3706 -0.2158 -0.2464
  414MOL0     C55815   8.509  10.736   8.760 -0.6879  0.8619  0.5847
  414MOL0     C55816   8.652  10.678   8.799 -0.8769  0.1710 -0.2436
  414MOL0     C55817   8.736  10.786   8.872 -0.2087  0.1458 -0.5248
  414MOL0     C55818   8.871  10.735   8.905 -0.2501  0.3032 -0.0697
  414MOL0     C55819   8.858  10.617   8.993 -0.0244 -0.0231  0.2512
  414MOL0     C55820   8.824  10.535   9.080 -0.3955  0.1330  0.2437
  414MOL0     C55821   8.252  10.844   8.716  0.4134 -0.2897  0.3513
  414MOL0     C55822   8.132  10.911   8.701 -1.3425  0.1147 -0.5698
  414MOL0     H55823   7.868  11.300   8.706 -0.8201 -3.3266 -0.4377
  414MOL0     H55824   7.636  11.438   8.697 -0.3649  1.0533  0.0949
  414MOL0     H55825   7.403  11.429   8.694 -4.8205  0.5297 -2.8055
  414MOL0     H55826   7.340  11.298   8.798 -0.4978  0.4922 -1.0466
  414MOL0     H55827   7.197  11.461   8.908  0.3190  0.7264  0.1074
  414MOL0     H55828   7.267  11.600   8.813 -1.9106  0.9595  0.5672
  414MOL0     H55829   7.127  11.570   8.654  1.5404  1.9609  2.3736
  414MOL0     H55830   7.186  11.399   8.628 -1.6247 -2.8626  1.1040
  414MOL0     H55831   7.023  11.363   8.852  1.6636  0.9431  0.4173
  414MOL0     H55832   6.953  11.505   8.805 -0.1785  0.1342  0.5350
  414MOL0     H55833   6.819  11.343   8.712  0.1461  1.1260  1.2035
  414MOL0     H55834   6.919  11.410   8.567 -2.0348 -1.1706 -0.3500
  414MOL0     H55835   7.065  11.223   8.578  0.3256  0.6481 -0.9772
  414MOL0     H55836   6.996  11.173   8.728  3.3068  2.2362 -0.4898
  414MOL0     H55837   6.811  11.189   8.494 -2.8661 -0.6904  0.8090
  414MOL0     H55838   6.902  11.031   8.517  0.8789  0.3942  0.1094
  414MOL0     H55839   6.729  11.153   8.745 -1.1881  0.8618  0.0075
  414MOL0     H55840   6.775  10.983   8.708 -2.4484 -0.3249  0.9676
  414MOL0     H55841   6.589  10.840   8.650  1.4256  0.2115  0.2334
  414MOL0     H55842   6.241  10.946   8.561  0.5949  0.2656  0.8105
  414MOL0     H55843   6.319  10.872   8.418  1.9752  2.3000 -0.7441
  414MOL0     H55844   6.271  10.769   8.705 -1.7456  0.6392 -0.6732
  414MOL0     H55845   6.411  10.720   8.617 -0.6459 -1.5043 -1.8870
  414MOL0     H55846   6.148  10.701   8.468 -0.6514 -2.5904 -1.0755
  414MOL0     H55847   6.177  10.576   8.595  2.5375 -0.0578  2.1129
  414MOL0     H55848   6.388  10.515   8.457 -0.1461 -2.3866 -2.1515
  414MOL0     H55849   6.328  10.634   8.344  2.5076 -0.4028 -1.0879
  414MOL0     H55850   6.160  10.695   8.242  1.3263 -0.1253 -0.0008
  414MOL0     H55851   5.881  10.793   8.086  0.3931  0.2312  1.8925
  414MOL0     H55852   6.060  10.809   8.060  0.8620 -0.9867 -0.8965
  414MOL0     H55853   5.971  10.724   7.945  0.2932 -3.8134  0.9342
  414MOL0     H55854   5.514  10.469   7.983  4.0074 -0.5420  0.3350
  414MOL0     H55855   5.320  10.393   7.849  2.1218  3.5831  1.9731
  414MOL0     H55856   5.140  10.320   7.562 -1.4702  2.3624  2.6858
  414MOL0     H55857   5.237  10.443   7.643  0.3652 -0.7604  2.6318
  414MOL0     H55858   5.394  10.448   7.470 -0.6848  0.9267  2.6911
  414MOL0     H55859   5.308  10.333   7.360  0.2017  0.4999 -1.1328
  414MOL0     H55860   5.202  10.596   7.448  0.4565 -1.6398  2.0884
  414MOL0     H55861   5.114  10.472   7.338  0.0941 -0.1935 -0.6051
  414MOL0     H55862   5.389  10.591   7.275  1.1194 -0.8150 -2.4236
  414MOL0     H55863   5.302  10.492   7.176  0.6081  0.2519 -0.6804
  414MOL0     H55864   5.117  10.669   7.163 -1.4083  1.1830  0.8365
  414MOL0     H55865   5.275  10.726   7.106  0.4294  1.7441  0.4735
  414MOL0     H55866   5.120  10.829   7.326 -1.3829 -0.8643 -1.8946
  414MOL0     H55867   5.275  10.780   7.384 -0.9089  2.1784 -0.4156
  414MOL0     H55868   5.229  11.003   7.180  0.0283 -0.8565 -1.0540
  414MOL0     H55869   5.372  10.919   7.178  1.6386 -0.1953  0.8366
  414MOL0     H55870   5.351  11.135   7.341 -1.1410  1.3710  1.1245
  414MOL0     H55871   5.419  10.990   7.423 -2.9975 -0.7218  3.5622
  414MOL0     H55872   5.556  10.180   7.583 -0.6048  1.5116 -1.8665
  414MOL0     H55873   5.769  10.250   7.719 -0.4071 -0.8836  2.0239
  414MOL0     H55874   5.885  10.290   8.123  0.4908  0.1234 -0.5765
  414MOL0     H55875   6.066  10.270   8.303 -0.5466  0.2386  1.5549
  414MOL0     H55876   7.568  11.298   9.105  2.1259  0.6884  0.9684
  414MOL0     H55877   7.758  11.143   9.076  1.0484 -2.5492 -1.7537
  414MOL0     H55878   8.060  10.930   9.041  0.7735  2.5632  0.0941
  414MOL0     H55879   8.274  10.835   9.052  2.5984  2.4139 -0.7447
  414MOL0     H55880   8.469  10.663   8.690  1.5382  1.5419 -1.5091
  414MOL0     H55881   8.519  10.835   8.714 -2.2132 -0.4168 -2.7930
  414MOL0     H55882   8.706  10.663   8.705 -0.6353  2.1623 -0.4656
  414MOL0     H55883   8.647  10.592   8.867  0.0771  0.5164  0.2771
  414MOL0     H55884   8.695  10.828   8.964  2.5637  2.0876 -0.0479
  414MOL0     H55885   8.756  10.868   8.803  4.2606  2.4595  3.0160
  414MOL0     H55886   8.921  10.818   8.957 -0.8152 -0.1007  1.1694
  414MOL0     H55887   8.927  10.710   8.815 -2.8980  1.4797 -2.1755
  414MOL0     H55888   8.814  10.456   9.151  1.2847  1.2984  1.8484
  414MOL0     H55889   8.317  10.833   8.630  0.3751  2.2551 -0.0779
  414MOL0     H55890   8.097  10.948   8.605  0.5191 -1.2760 -1.8441
  415MOL0     O55891   4.546  10.886   9.451 -0.2414  0.3093 -0.3050
  415MOL0     C55892   4.576  10.770   9.479  0.1112 -0.2220 -0.3326
  415MOL0     O55893   4.493  10.662   9.472 -1.0333 -0.4228  0.3850
  415MOL0     C55894   4.360  10.667   9.489  0.2202 -0.9115  0.9300
  415MOL0     C55895   4.278  10.770   9.432  0.4990 -0.0408 -0.6924
  415MOL0     C55896   4.138  10.755   9.448 -0.4975  0.3522 -0.1896
  415MOL0     C55897   4.071  10.645   9.508 -0.1263  0.2991  0.9198
  415MOL0     O55898   3.938  10.657   9.504 -0.1707  0.1236  0.4657
  415MOL0     C55899   3.868  10.532   9.529  0.0039 -0.2870  0.1951
  415MOL0     C55900   3.717  10.555   9.545 -0.2257 -0.3106  0.3329
  415MOL0     C55901   3.677  10.610   9.684 -0.2204 -0.1421 -0.8072
  415MOL0     C55902   3.669  10.500   9.791  0.2805 -0.6438  1.2978
  415MOL0     C55903   3.538  10.417   9.784  0.4615  0.1515  0.8377
  415MOL0     C55904   3.546  10.319   9.901  0.3120 -0.3088  0.5988
  415MOL0     C55905   3.436  10.223   9.891 -0.1074 -0.3276 -0.2055
  415MOL0     C55906   3.401  10.149  10.021  0.7146  0.7078  0.9946
  415MOL0     N55907   3.334  10.022   9.977 -0.2599 -0.8020  0.7252
  415MOL0     C55908   3.194  10.004   9.959 -0.5993  0.2407  0.8989
  415MOL0     C55909   3.182   9.881   9.907 -0.3473 -0.3628  0.6918
  415MOL0     C55910   3.052   9.809   9.887  0.9067 -0.1578  0.3472
  415MOL0     C55911   3.018   9.807   9.736 -0.5703  0.0338 -0.1100
  415MOL0     C55912   2.865   9.777   9.704  0.3617  0.4770 -0.5205
  415MOL0     C55913   2.818   9.640   9.756 -0.0645  0.4627 -0.2625
  415MOL0     O55914   2.687   9.616   9.705 -0.0521  0.0310 -0.5200
  415MOL0     C55915   2.662   9.503   9.645 -0.9721  0.1127  0.1551
  415MOL0     C55916   2.673   9.480   9.505  0.1798  0.6770  0.0187
  415MOL0     C55917   2.651   9.352   9.442  0.0723 -0.0001 -0.7427
  415MOL0     C55918   2.646   9.353   9.293  0.0785 -0.1624  0.3707
  415MOL0     C55919   2.635   9.236   9.518 -0.3857 -0.5480  0.1772
  415MOL0     C55920   2.632   9.091   9.479 -0.2071 -1.2562 -0.3734
  415MOL0     O55921   2.650   9.002   9.584  0.5751  0.6494 -0.1144
  415MOL0     C55922   2.665   8.876   9.536 -0.2022  0.5726 -0.9878
  415MOL0     C55923   2.553   8.799   9.532 -0.5301  0.9329 -0.1770
  415MOL0     C55924   2.559   8.667   9.478  0.8350 -0.5379 -0.1701
  415MOL0     C55925   2.676   8.619   9.430 -0.1978  1.0994  0.1674
  415MOL0     O55926   2.675   8.492   9.373 -0.4864  0.7056  0.4105
  415MOL0     C55927   2.628   8.377   9.440 -0.3579 -0.4291 -0.1155
  415MOL0     C55928   2.618   8.258   9.347 -0.3757  0.5768  0.0309
  415MOL0     C55929   2.561   8.124   9.400 -0.8948  0.5695 -0.0593
  415MOL0     C55930   2.664   8.037   9.467  0.9516  0.6849  0.3460
  415MOL0     C55931   2.609   7.913   9.525 -0.2091  1.3100 -0.2106
  415MOL0     C55932   2.722   7.813   9.557  0.7552  0.7054 -0.2459
  415MOL0     C55933   2.667   7.684   9.616 -0.6471  0.0935  0.1578
  415MOL0     C55934   2.670   7.561   9.522 -0.2425 -0.8052 -0.7684
  415MOL0    Cl55935   2.545   7.448   9.583  0.1720  0.4348  0.1267
  415MOL0     C55936   2.789   8.701   9.429 -0.8071 -0.3621  0.6355
  415MOL0     C55937   2.789   8.832   9.481  0.6099 -0.1643  1.1980
  415MOL0     O55938   2.599   9.065   9.367  0.5744  0.0944 -0.6764
  415MOL0     C55939   2.614   9.262   9.655  0.5555  0.1438 -0.9319
  415MOL0     C55940   2.630   9.388   9.715 -0.1763 -0.5508  0.0159
  415MOL0     N55941   3.309   9.831   9.878  0.7886 -0.3310 -0.5541
  415MOL0     N55942   3.393   9.917   9.927 -0.0374  0.2548  0.3255
  415MOL0     C55943   4.150  10.535   9.555 -0.3095  0.1180  0.7406
  415MOL0     C55944   4.292  10.554   9.545  0.1626  1.1199 -0.5738
  415MOL0     C55945   4.716  10.736   9.484 -0.1904  0.1281  0.2575
  415MOL0     C55946   4.761  10.603   9.465 -0.5274  0.4142  0.6791
  415MOL0     C55947   4.900  10.582   9.462  0.6552 -0.0995  0.0179
  415MOL0     C55948   4.997  10.687   9.476  0.1252 -0.0567 -1.0597
  415MOL0     O55949   5.133  10.672   9.461  0.5777  0.1718  0.0040
  415MOL0     C55950   5.189  10.550   9.513 -0.4547  0.1268 -0.1510
  415MOL0     C55951   5.344  10.558   9.542  0.6222  0.6423  0.3508
  415MOL0     C55952   5.380  10.643   9.659  0.1300 -0.4641 -0.1647
  415MOL0     C55953   5.336  10.794   9.663 -0.0038 -0.5396  0.1663
  415MOL0     C55954   5.387  10.866   9.541  0.5711 -0.0612 -0.6308
  415MOL0     C55955   5.429  10.923   9.439 -0.5824  0.4770 -0.9241
  415MOL0     C55956   4.942  10.809   9.507 -0.1036 -0.1240  0.1658
  415MOL0     C55957   4.808  10.834   9.514 -1.3115 -0.4261 -0.0848
  415MOL0     H55958   4.322  10.848   9.370  1.4185 -0.1732 -0.2109
  415MOL0     H55959   4.071  10.833   9.414  0.5806  0.5913 -1.8886
  415MOL0     H55960   3.872  10.465   9.443  0.0670 -1.0996  0.8232
  415MOL0     H55961   3.899  10.477   9.618 -1.3739  0.2837  1.0627
  415MOL0     H55962   3.684  10.633   9.475  0.9479  1.3585  1.5576
  415MOL0     H55963   3.676  10.460   9.512  2.8352 -0.9483 -2.0395
  415MOL0     H55964   3.747  10.691   9.706  1.0857 -1.1874 -0.9907
  415MOL0     H55965   3.580  10.661   9.679  0.0955  0.8987  1.7851
  415MOL0     H55966   3.754  10.433   9.781 -0.4485 -1.3610 -0.8592
  415MOL0     H55967   3.665  10.558   9.884 -0.3874  1.6193 -0.0477
  415MOL0     H55968   3.449  10.480   9.793 -1.1623 -1.7951 -0.4435
  415MOL0     H55969   3.526  10.367   9.687 -0.0627  2.1474 -0.1794
  415MOL0     H55970   3.637  10.257   9.901  0.7769  0.3643  0.9905
  415MOL0     H55971   3.533  10.384   9.988  0.0387  3.8635 -2.2553
  415MOL0     H55972   3.346  10.280   9.864  1.3060  0.9118 -2.6868
  415MOL0     H55973   3.466  10.161   9.806 -1.9943 -1.0049 -0.4252
  415MOL0     H55974   3.332  10.215  10.075 -2.0580 -0.6155 -0.7205
  415MOL0     H55975   3.489  10.135  10.084  1.0366  2.7625  1.0985
  415MOL0     H55976   3.110  10.068   9.983 -0.1299  0.4165  2.1370
  415MOL0     H55977   3.059   9.706   9.924 -2.6348  0.1175  2.2350
  415MOL0     H55978   2.962   9.853   9.932  1.1593  2.0712 -1.1776
  415MOL0     H55979   3.089   9.736   9.692  0.9741  1.0605  0.6588
  415MOL0     H55980   3.040   9.908   9.701 -1.3315  0.2815  0.1048
  415MOL0     H55981   2.851   9.795   9.597 -0.0723  0.6924 -0.4271
  415MOL0     H55982   2.800   9.845   9.759  1.0603  1.2146 -0.5794
  415MOL0     H55983   2.821   9.640   9.866 -0.8929 -1.6921 -0.1947
  415MOL0     H55984   2.884   9.563   9.717 -0.6472  0.1205 -0.5867
  415MOL0     H55985   2.698   9.568   9.446 -0.9773 -0.4933 -2.3365
  415MOL0     H55986   2.705   9.270   9.252 -0.5054 -0.9019  1.0022
  415MOL0     H55987   2.543   9.338   9.259  0.3101 -0.2537 -0.3062
  415MOL0     H55988   2.693   9.440   9.246 -1.5953  1.3672  1.4311
  415MOL0     H55989   2.458   8.841   9.567  0.4814  2.6389  0.6598
  415MOL0     H55990   2.473   8.602   9.483  1.9307 -2.0266  0.1416
  415MOL0     H55991   2.694   8.347   9.522  3.9413  1.6280 -2.4759
  415MOL0     H55992   2.529   8.402   9.479 -0.7052 -0.0657 -1.1946
  415MOL0     H55993   2.561   8.296   9.262  0.3660  3.8114  0.8372
  415MOL0     H55994   2.722   8.235   9.323 -0.5940 -2.0172  1.2120
  415MOL0     H55995   2.522   8.070   9.314  0.5330 -1.8767  0.7256
  415MOL0     H55996   2.480   8.139   9.472  0.4762 -2.0645  2.2024
  415MOL0     H55997   2.736   8.006   9.391 -2.1537 -1.9245 -1.8413
  415MOL0     H55998   2.717   8.090   9.546  1.4371  1.7841 -0.6818
  415MOL0     H55999   2.536   7.867   9.457 -2.3905  1.1142  2.1204
  415MOL0     H56000   2.550   7.941   9.612 -1.4745  3.8107 -1.7457
  415MOL0     H56001   2.766   7.793   9.458  2.8491 -1.0174  0.9593
  415MOL0     H56002   2.800   7.850   9.624  1.5436 -0.3820 -0.5312
  415MOL0     H56003   2.571   7.715   9.658 -0.0652  1.7492  0.3470
  415MOL0     H56004   2.720   7.658   9.709  0.9128  1.5434 -0.2724
  415MOL0     H56005   2.769   7.518   9.503  0.0070 -0.4592 -0.2825
  415MOL0     H56006   2.630   7.603   9.429 -3.5629 -2.8031 -0.4000
  415MOL0     H56007   2.881   8.661   9.389 -1.1423  0.0278 -0.5938
  415MOL0     H56008   2.881   8.890   9.476 -0.2687  1.2665  0.9518
  415MOL0     H56009   2.588   9.177   9.717 -0.9155 -0.0587 -1.7820
  415MOL0     H56010   2.626   9.401   9.823 -1.0735  0.0290 -0.0766
  415MOL0     H56011   4.109  10.441   9.591 -2.9620  0.8500 -0.1232
  415MOL0     H56012   4.345  10.460   9.560 -0.6927  0.6487 -0.4894
  415MOL0     H56013   4.700  10.513   9.463 -0.7614  0.5589  1.0164
  415MOL0     H56014   4.934  10.482   9.434 -0.2542 -0.4975  0.2740
  415MOL0     H56015   5.144  10.517   9.607  1.4000  0.0874  0.7647
  415MOL0     H56016   5.162  10.474   9.439  2.9775  0.6284 -2.1291
  415MOL0     H56017   5.390  10.602   9.454 -0.6501  0.2257 -0.5519
  415MOL0     H56018   5.379  10.455   9.559 -0.7075 -0.1053 -1.1452
  415MOL0     H56019   5.489  10.642   9.663  0.1066  0.3404  1.0012
  415MOL0     H56020   5.356  10.592   9.753  0.8647 -0.6468 -0.0726
  415MOL0     H56021   5.388  10.835   9.750  0.4413  0.6803 -0.6433
  415MOL0     H56022   5.226  10.796   9.670 -0.0101  0.5410  0.0076
  415MOL0     H56023   5.465  10.973   9.352  2.2422  1.6872  0.7924
  415MOL0     H56024   5.014  10.887   9.527 -0.4503  0.0451  0.7799
  415MOL0     H56025   4.766  10.933   9.530 -2.8633 -1.1196  0.3688
  416MOL0     O56026   2.974  10.762   7.527 -0.2371 -0.6323 -0.6178
  416MOL0     C56027   2.954  10.736   7.644 -1.1188  0.0698  0.0140
  416MOL0     O56028   2.842  10.767   7.716  0.0928  0.0497  0.1196
  416MOL0     C56029   2.743  10.838   7.653 -0.7125  0.2980 -0.1894
  416MOL0     C56030   2.737  10.975   7.666  0.2384  0.0209 -1.0997
  416MOL0     C56031   2.616  11.033   7.618 -0.1276  0.4838 -0.2622
  416MOL0     C56032   2.511  10.964   7.547  0.1799 -0.1233  1.0640
  416MOL0     O56033   2.394  11.021   7.503 -0.0236 -0.6972 -0.3988
  416MOL0     C56034   2.333  11.118   7.590  0.2952 -0.8606  0.2287
  416MOL0     C56035   2.212  11.187   7.505  0.2242  0.6898 -0.2839
  416MOL0     C56036   2.141  11.285   7.595  0.6340 -0.4339 -0.4580
  416MOL0     C56037   2.004  11.319   7.527 -0.3825 -0.5441  0.5923
  416MOL0     C56038   1.923  11.407   7.620 -0.2570 -0.1112  0.0901
  416MOL0     C56039   1.789  11.443   7.560  0.6630  0.7361 -0.0615
  416MOL0     C56040   1.686  11.502   7.661 -0.0139 -0.5357 -0.1538
  416MOL0     C56041   1.544  11.524   7.596  0.2253  0.0446 -1.3235
  416MOL0     N56042   1.455  11.598   7.692  0.5748  0.2449  0.4142
  416MOL0     C56043   1.480  11.718   7.750 -0.8855  0.2237  0.0522
  416MOL0     C56044   1.381  11.743   7.836 -0.3710 -0.0432 -0.2310
  416MOL0     C56045   1.369  11.859   7.931 -0.5817 -0.0088 -0.1947
  416MOL0     C56046   1.223  11.910   7.931 -0.6439  0.1574 -0.1510
  416MOL0     C56047   1.188  12.045   8.012 -0.0749  0.3442 -0.1907
  416MOL0     C56048   1.037  12.078   7.997  0.2636 -0.5025 -0.1268
  416MOL0     O56049   1.003  12.072   7.854  0.9299 -0.6680  0.1760
  416MOL0     C56050   0.877  12.117   7.820 -0.4469 -0.1965 -0.5035
  416MOL0     C56051   0.828  12.066   7.703  1.3647 -0.1153 -0.2383
  416MOL0     C56052   0.694  12.088   7.665 -0.4931  0.2447  0.0066
  416MOL0     C56053   0.651  12.021   7.537 -0.4351 -1.0134  0.5136
  416MOL0     C56054   0.607  12.165   7.747 -1.1365 -0.4881 -0.2058
  416MOL0     C56055   0.463  12.181   7.718  0.0186 -0.1286 -0.0064
  416MOL0     O56056   0.403  12.297   7.785  0.0381  0.8123 -0.0077
  416MOL0     C56057   0.264  12.297   7.789 -0.3935 -0.2408 -0.2954
  416MOL0     C56058   0.192  12.219   7.878 -0.5402  0.1266  0.4042
  416MOL0     C56059   0.050  12.220   7.875 -0.7582  0.1610  1.1423
  416MOL0     C56060  -0.022  12.296   7.786 -2.5957  0.6617 -0.5784
  416MOL0     O56061  -0.152  12.304   7.784 -0.0344  0.3517 -0.5004
  416MOL0     C56062  -0.224  12.275   7.663 -0.5862 -0.3592  0.1068
  416MOL0     C56063  -0.213  12.130   7.628  0.4115 -0.3292  0.5889
  416MOL0     C56064  -0.298  12.091   7.501 -0.2723 -0.2597  0.5706
  416MOL0     C56065  -0.444  12.084   7.540 -0.2347 -0.2851  0.0380
  416MOL0     C56066  -0.538  12.123   7.427  0.0635 -0.0983  0.1687
  416MOL0     C56067  -0.533  12.270   7.391 -0.1204  0.8577  0.1408
  416MOL0     C56068  -0.598  12.348   7.509  0.4248 -0.7729 -0.2735
  416MOL0     C56069  -0.639  12.486   7.459 -0.5722  0.8282  0.7149
  416MOL0    Cl56070  -0.486  12.574   7.425 -0.0652 -0.0066  0.1619
  416MOL0     C56071   0.053  12.364   7.689  0.7161 -0.1973 -0.4819
  416MOL0     C56072   0.195  12.360   7.690  0.7420 -0.1308  0.3290
  416MOL0     O56073   0.406  12.104   7.638 -0.2931  0.5802 -0.1103
  416MOL0     C56074   0.661  12.216   7.863  0.1461  0.8050 -0.3073
  416MOL0     C56075   0.794  12.197   7.897  0.3936 -0.1824  0.3447
  416MOL0     N56076   1.294  11.638   7.817 -0.1733  0.0230 -0.1756
  416MOL0     N56077   1.337  11.550   7.734  0.3250  0.6036 -0.3232
  416MOL0     C56078   2.533  10.830   7.525 -0.4294  0.5859 -0.2661
  416MOL0     C56079   2.645  10.762   7.581 -0.3596 -1.0204 -0.4634
  416MOL0     C56080   3.069  10.688   7.714 -0.0718  0.1702 -0.1389
  416MOL0     C56081   3.179  10.634   7.649 -0.0164 -0.0380  0.4886
  416MOL0     C56082   3.297  10.589   7.725  0.9631  0.5322  0.8022
  416MOL0     C56083   3.302  10.611   7.861 -0.0260  0.9305 -0.1132
  416MOL0     O56084   3.416  10.566   7.932  0.3260 -0.4868 -0.5080
  416MOL0     C56085   3.391  10.469   8.035  0.0473  0.2945  0.3029
  416MOL0     C56086   3.515  10.459   8.129 -1.0540 -0.0720  0.6156
  416MOL0     C56087   3.656  10.431   8.059 -0.2643  1.0840 -0.1597
  416MOL0     C56088   3.685  10.280   8.065 -0.0018 -0.5351  0.7141
  416MOL0     C56089   3.710  10.240   8.207  0.0919 -0.7123 -1.6022
  416MOL0     C56090   3.739  10.197   8.318  0.4424  0.1640 -0.3668
  416MOL0     C56091   3.180  10.655   7.923  0.3844  0.1801 -0.0499
  416MOL0     C56092   3.069  10.702   7.855 -0.6038  0.8451  0.0368
  416MOL0     H56093   2.817  11.030   7.715 -1.7503  2.9379 -0.7851
  416MOL0     H56094   2.604  11.136   7.650 -0.1027  0.6475 -0.7728
  416MOL0     H56095   2.291  11.065   7.676 -0.1138 -0.1525  0.4749
  416MOL0     H56096   2.394  11.198   7.633 -0.7269  0.5996 -0.9150
  416MOL0     H56097   2.251  11.237   7.416  0.7190  2.3972  0.8306
  416MOL0     H56098   2.143  11.107   7.478  0.4933  0.6613 -0.8955
  416MOL0     H56099   2.117  11.250   7.696 -1.6789  0.9362 -0.4625
  416MOL0     H56100   2.195  11.380   7.607 -3.3314  2.0490 -0.6169
  416MOL0     H56101   2.023  11.370   7.432 -2.3851  0.0443  0.4621
  416MOL0     H56102   1.944  11.230   7.507 -2.6904  1.2072 -0.7744
  416MOL0     H56103   1.908  11.357   7.716  0.6368 -2.6041 -0.9624
  416MOL0     H56104   1.977  11.501   7.633  1.5279 -1.2252  1.1036
  416MOL0     H56105   1.808  11.519   7.485  1.3016  0.9082  0.2702
  416MOL0     H56106   1.741  11.353   7.521 -2.9282  2.0895  0.8243
  416MOL0     H56107   1.682  11.448   7.756 -0.5706  1.7388  1.1979
  416MOL0     H56108   1.725  11.602   7.680 -2.5528  0.6649 -0.8218
  416MOL0     H56109   1.496  11.427   7.576 -0.4558  0.2244 -0.6092
  416MOL0     H56110   1.565  11.578   7.503 -1.3575 -1.8679 -2.9002
  416MOL0     H56111   1.570  11.779   7.744 -3.0472  3.7094  0.0519
  416MOL0     H56112   1.405  11.833   8.031 -0.0551  0.5381 -0.2363
  416MOL0     H56113   1.420  11.944   7.886 -0.5357 -0.6338 -1.3562
  416MOL0     H56114   1.155  11.831   7.966 -0.9424  1.2874  1.9826
  416MOL0     H56115   1.198  11.925   7.826  0.8586  1.2379 -0.3706
  416MOL0     H56116   1.253  12.128   7.983  1.7234  0.0019  2.4486
  416MOL0     H56117   1.203  12.004   8.113 -2.1215 -2.5553 -0.9334
  416MOL0     H56118   1.025  12.175   8.046  0.6662 -1.0099  1.0141
  416MOL0     H56119   0.979  12.011   8.062 -2.1229  4.2622  3.2334
  416MOL0     H56120   0.885  12.001   7.638  1.0982  1.6504 -2.3736
  416MOL0     H56121   0.611  12.092   7.464 -0.8491 -1.0057  0.7457
  416MOL0     H56122   0.729  11.967   7.482 -0.0021 -0.1178  0.2244
  416MOL0     H56123   0.574  11.948   7.563 -2.7980  1.5474  1.1153
  416MOL0     H56124   0.250  12.171   7.956 -1.3739 -1.8279 -0.1309
  416MOL0     H56125  -0.007  12.152   7.938 -0.6684 -0.7741  0.2414
  416MOL0     H56126  -0.327  12.311   7.673 -0.5806 -0.4659  0.5845
  416MOL0     H56127  -0.175  12.329   7.582 -1.2352  2.3938  1.4135
  416MOL0     H56128  -0.108  12.103   7.620  0.3555 -0.7730  1.2714
  416MOL0     H56129  -0.245  12.080   7.720  1.4422 -1.3279  0.4288
  416MOL0     H56130  -0.261  11.991   7.475  0.7971 -0.0486  1.1927
  416MOL0     H56131  -0.278  12.151   7.413 -1.7766 -2.5727 -1.4752
  416MOL0     H56132  -0.450  11.984   7.585  2.4171  0.9654  3.5970
  416MOL0     H56133  -0.473  12.146   7.625 -0.3849  1.7551 -1.4188
  416MOL0     H56134  -0.639  12.085   7.447 -1.4801  2.2745 -2.4916
  416MOL0     H56135  -0.509  12.070   7.336  0.2420  1.4278 -0.6857
  416MOL0     H56136  -0.435  12.312   7.369 -0.8878  2.0430 -1.2381
  416MOL0     H56137  -0.588  12.275   7.296 -0.0002 -1.9288 -0.1737
  416MOL0     H56138  -0.537  12.358   7.599 -2.5536  0.3280  1.8169
  416MOL0     H56139  -0.687  12.291   7.538  1.7889 -3.8310 -1.6317
  416MOL0     H56140  -0.700  12.551   7.523  1.0921  2.0600  1.1322
  416MOL0     H56141  -0.691  12.480   7.363  3.8759  3.4742 -2.2651
  416MOL0     H56142   0.001  12.432   7.623 -0.5456  0.7012  1.3600
  416MOL0     H56143   0.251  12.406   7.610  0.6038  1.6282  1.2094
  416MOL0     H56144   0.600  12.268   7.937 -0.1743  1.3961 -0.9830
  416MOL0     H56145   0.842  12.248   7.980  3.2280 -1.7501 -0.1704
  416MOL0     H56146   2.454  10.790   7.462  0.2866 -1.9981  0.3536
  416MOL0     H56147   2.651  10.654   7.586 -0.6080 -0.9854  0.9575
  416MOL0     H56148   3.174  10.613   7.542  2.7999 -0.6344  0.3852
  416MOL0     H56149   3.384  10.550   7.673 -0.3340 -2.7908  0.8362
  416MOL0     H56150   3.306  10.506   8.094 -0.4599  0.9309 -0.8031
  416MOL0     H56151   3.370  10.372   7.990 -1.7424  1.8943 -2.5951
  416MOL0     H56152   3.493  10.388   8.209  1.9034  1.3420  2.8680
  416MOL0     H56153   3.515  10.552   8.187  0.5306  1.7074 -2.0453
  416MOL0     H56154   3.724  10.486   8.124  1.3695 -2.1094  1.0705
  416MOL0     H56155   3.662  10.473   7.959 -0.0869 -2.5064 -1.8111
  416MOL0     H56156   3.774  10.262   8.005 -0.5932 -1.7039  0.1383
  416MOL0     H56157   3.605  10.221   8.019 -0.8765 -1.9467  3.7415
  416MOL0     H56158   3.759  10.166   8.419 -2.6044 -0.6387  0.0925
  416MOL0     H56159   3.183  10.674   8.029  2.8403  1.6889 -0.2962
  416MOL0     H56160   2.983  10.746   7.904 -1.7998 -0.6900 -0.6064
  417MOL0     O56161   1.857  10.290   6.946  0.7802  0.0252 -0.0331
  417MOL0     C56162   1.907  10.350   6.850  0.1169  0.6681  0.1662
  417MOL0     O56163   1.973  10.290   6.743  0.1535 -1.2887  0.0201
  417MOL0     C56164   2.021  10.158   6.735  0.2875  0.3610 -0.8542
  417MOL0     C56165   2.032  10.068   6.840 -0.2070 -0.3389  0.0533
  417MOL0     C56166   2.103   9.951   6.811  0.7189  0.0154  0.3084
  417MOL0     C56167   2.159   9.914   6.684  1.0719  0.3581  0.0745
  417MOL0     O56168   2.229   9.807   6.646 -1.0140  0.1391 -0.4976
  417MOL0     C56169   2.367   9.814   6.687 -0.0366  0.5597 -0.6334
  417MOL0     C56170   2.455   9.916   6.604 -0.3747 -0.0522 -0.4956
  417MOL0     C56171   2.602   9.905   6.639 -0.4409  0.1430  0.4244
  417MOL0     C56172   2.677   9.981   6.535 -0.1729 -0.7877 -0.1616
  417MOL0     C56173   2.823   9.967   6.575  0.7056  0.6886 -0.9101
  417MOL0     C56174   2.907  10.045   6.471 -0.3294  0.4615 -0.1017
  417MOL0     C56175   3.066  10.050   6.498  0.5647  0.2021 -0.5726
  417MOL0     C56176   3.081  10.133   6.623  0.6691 -0.2577  0.5195
  417MOL0     N56177   3.225  10.159   6.661 -0.3465  0.1987  0.8826
  417MOL0     C56178   3.305  10.049   6.652  0.0380  0.2288 -1.3716
  417MOL0     C56179   3.430  10.092   6.657 -0.1995  0.3920 -0.2056
  417MOL0     C56180   3.556  10.001   6.659  0.2224 -0.2258  0.2155
  417MOL0     C56181   3.583   9.954   6.804 -0.1682  0.1509  0.5697
  417MOL0     C56182   3.679   9.833   6.822  0.0694 -0.5870 -0.2408
  417MOL0     C56183   3.822   9.877   6.773  1.0651  0.4779  0.8693
  417MOL0     O56184   3.917   9.774   6.750 -0.7900  0.5378 -0.4326
  417MOL0     C56185   3.979   9.710   6.861  0.5354  0.5301  0.0270
  417MOL0     C56186   4.085   9.772   6.936  0.2807 -0.3179 -0.8219
  417MOL0     C56187   4.150   9.695   7.034 -0.2431 -0.7315 -0.6180
  417MOL0     C56188   4.252   9.783   7.118  0.2307  0.2496 -0.2957
  417MOL0     C56189   4.122   9.555   7.062 -0.8132 -0.4799  0.4475
  417MOL0     C56190   4.185   9.471   7.165 -0.3311  0.2235  0.5761
  417MOL0     O56191   4.305   9.505   7.217 -0.0718  0.2363 -0.6140
  417MOL0     C56192   4.383   9.413   7.289  0.4147  0.7543  0.4167
  417MOL0     C56193   4.475   9.455   7.388 -0.7658  0.4917  0.2188
  417MOL0     C56194   4.550   9.367   7.466 -0.6684 -0.8975 -0.7197
  417MOL0     C56195   4.545   9.229   7.450 -0.3053 -0.8530  0.9210
  417MOL0     O56196   4.634   9.149   7.512  0.6350 -0.9251 -0.0342
  417MOL0     C56197   4.638   9.010   7.484 -0.7147 -0.7442  0.5414
  417MOL0     C56198   4.717   8.966   7.604 -0.4759  0.6515  0.1409
  417MOL0     C56199   4.739   8.815   7.608  0.2165 -0.2984  0.0573
  417MOL0     C56200   4.881   8.788   7.551 -1.2029 -0.1021  1.3294
  417MOL0     C56201   4.911   8.636   7.515 -0.2105  0.5077  0.1201
  417MOL0     C56202   4.914   8.537   7.623  0.0124  0.0837 -1.1486
  417MOL0     C56203   4.877   8.394   7.566 -0.3212  0.5633 -0.0937
  417MOL0     C56204   4.873   8.289   7.681  0.6678 -0.6400  0.8341
  417MOL0    Cl56205   4.903   8.132   7.623  0.2676  0.2272  0.1467
  417MOL0     C56206   4.460   9.187   7.341  0.1940  0.6991 -0.6068
  417MOL0     C56207   4.392   9.280   7.259  0.7240  0.0811 -0.6661
  417MOL0     O56208   4.121   9.370   7.202  1.4321 -0.1006 -0.1342
  417MOL0     C56209   4.019   9.500   6.980 -0.0583 -0.6169 -0.0015
  417MOL0     C56210   3.942   9.576   6.886 -0.8110 -0.2054  1.0484
  417MOL0     N56211   3.429  10.234   6.652  1.0037 -0.3112 -0.2949
  417MOL0     N56212   3.304  10.262   6.648 -0.0047 -0.7480 -0.8085
  417MOL0     C56213   2.121   9.999   6.583 -0.3488  0.1822 -0.2401
  417MOL0     C56214   2.057  10.122   6.608 -0.6055  0.6994 -0.4958
  417MOL0     C56215   1.884  10.497   6.847 -0.5955  0.0110 -0.1812
  417MOL0     C56216   1.781  10.559   6.919 -0.2491 -0.4160 -0.3266
  417MOL0     C56217   1.750  10.701   6.906 -0.2994  0.8295 -0.5967
  417MOL0     C56218   1.822  10.779   6.821 -0.8273  0.1904  0.6314
  417MOL0     O56219   1.786  10.910   6.814  0.8174  0.4844 -0.4618
  417MOL0     C56220   1.833  10.998   6.717 -0.5927  0.1678  0.3724
  417MOL0     C56221   1.906  11.109   6.780 -0.4763 -0.5455  0.0175
  417MOL0     C56222   2.039  11.075   6.846 -0.5601 -0.6087 -0.2545
  417MOL0     C56223   2.110  11.185   6.912  0.5575 -0.7522  0.3983
  417MOL0     C56224   2.227  11.158   6.994  1.8395  0.2706 -0.4466
  417MOL0     C56225   2.332  11.130   7.049  1.0948  0.2566 -0.3381
  417MOL0     C56226   1.925  10.716   6.745 -0.7547 -0.7856 -0.4331
  417MOL0     C56227   1.950  10.584   6.756  0.3200  1.0572 -0.8176
  417MOL0     H56228   2.015  10.100   6.942  4.0104 -0.3475  0.9391
  417MOL0     H56229   2.145   9.883   6.884 -0.7986 -2.2736 -0.8354
  417MOL0     H56230   2.374   9.840   6.793  1.5673 -0.0431 -0.5589
  417MOL0     H56231   2.411   9.715   6.672 -0.0283  0.5003 -0.2220
  417MOL0     H56232   2.441   9.902   6.497  1.7951 -2.3701 -0.5622
  417MOL0     H56233   2.415  10.015   6.627  0.1686  0.2667 -0.9201
  417MOL0     H56234   2.618   9.956   6.734 -1.7710  3.5167 -0.9965
  417MOL0     H56235   2.629   9.799   6.642  1.2236  0.5574  1.2292
  417MOL0     H56236   2.669   9.961   6.428  2.1113  0.1886 -0.5887
  417MOL0     H56237   2.662  10.089   6.549  2.9662 -0.4221  1.3518
  417MOL0     H56238   2.823  10.033   6.662 -2.8374  3.3675 -2.6390
  417MOL0     H56239   2.846   9.863   6.597 -0.8551  1.0505  3.2728
  417MOL0     H56240   2.894   9.988   6.379  2.0427 -0.3701 -0.0091
  417MOL0     H56241   2.869  10.146   6.450  0.5976  0.4690 -1.9806
  417MOL0     H56242   3.110   9.952   6.517  1.0183  0.7702  1.4714
  417MOL0     H56243   3.128  10.091   6.417 -0.3477 -0.3508 -1.5722
  417MOL0     H56244   3.035  10.084   6.710  1.5643 -2.2677 -0.0968
  417MOL0     H56245   3.034  10.231   6.608 -1.3344 -0.9728  1.6958
  417MOL0     H56246   3.265   9.948   6.648 -5.5642  2.0743 -1.5982
  417MOL0     H56247   3.543   9.914   6.594 -1.9653 -0.3918  0.8109
  417MOL0     H56248   3.651  10.050   6.635  0.9628 -0.1839  2.8994
  417MOL0     H56249   3.488   9.917   6.844 -1.7743 -0.8655 -3.6661
  417MOL0     H56250   3.619  10.037   6.866  2.6615 -2.8567  3.3761
  417MOL0     H56251   3.650   9.750   6.757  2.6721 -1.8067  0.0275
  417MOL0     H56252   3.681   9.794   6.924 -0.4229 -1.0841 -0.4141
  417MOL0     H56253   3.863   9.949   6.844 -3.5552  1.8131  2.5314
  417MOL0     H56254   3.812   9.931   6.679  1.0419 -0.9874  0.0018
  417MOL0     H56255   4.126   9.868   6.908 -0.3507  0.2347  0.1467
  417MOL0     H56256   4.310   9.732   7.195 -2.3054 -1.3659  0.6863
  417MOL0     H56257   4.317   9.835   7.047  0.7580  1.3052  0.9195
  417MOL0     H56258   4.196   9.862   7.171  1.2708 -0.0532  1.3265
  417MOL0     H56259   4.482   9.564   7.386  0.2886  0.4617 -2.5605
  417MOL0     H56260   4.619   9.403   7.541 -1.7844  1.3317 -0.6903
  417MOL0     H56261   4.535   8.973   7.495 -1.2584  0.7422  0.7412
  417MOL0     H56262   4.685   8.983   7.389  0.0541  0.9910  0.3995
  417MOL0     H56263   4.810   9.023   7.599 -0.6287  0.8162 -1.0560
  417MOL0     H56264   4.663   8.992   7.695 -0.4802  1.9672 -0.2094
  417MOL0     H56265   4.661   8.769   7.547 -1.8838 -1.1150  3.1520
  417MOL0     H56266   4.735   8.770   7.708 -1.1567 -0.5569 -0.0980
  417MOL0     H56267   4.887   8.841   7.456 -2.0506 -1.9631  0.1670
  417MOL0     H56268   4.954   8.825   7.623  0.3311  1.3289 -0.8485
  417MOL0     H56269   5.009   8.625   7.468 -0.6440 -2.1216 -0.3267
  417MOL0     H56270   4.836   8.603   7.442 -0.8395 -0.1171  1.0222
  417MOL0     H56271   5.011   8.541   7.672  0.5119 -2.2576 -1.8069
  417MOL0     H56272   4.832   8.556   7.693 -0.2302  2.2355 -1.9321
  417MOL0     H56273   4.954   8.371   7.491 -0.9259 -0.9350 -0.2872
  417MOL0     H56274   4.782   8.393   7.512  0.1888 -0.1745 -1.0108
  417MOL0     H56275   4.774   8.294   7.727  0.4266  0.0327  0.2443
  417MOL0     H56276   4.941   8.317   7.762  3.8785  0.6373 -2.0745
  417MOL0     H56277   4.465   9.079   7.331  0.0716  0.1420  3.4936
  417MOL0     H56278   4.335   9.245   7.173 -1.1646  2.2440 -0.3795
  417MOL0     H56279   3.999   9.394   6.987  0.3974 -0.6962  0.1272
  417MOL0     H56280   3.872   9.531   6.816  0.0074 -0.4554  0.3634
  417MOL0     H56281   2.156   9.977   6.483 -0.8102  2.7475 -1.0431
  417MOL0     H56282   2.031  10.183   6.522 -2.5119  0.7748  0.0772
  417MOL0     H56283   1.729  10.497   6.991  2.1857  0.1613  2.0794
  417MOL0     H56284   1.661  10.740   6.956 -0.3658  0.7454 -0.6481
  417MOL0     H56285   1.899  10.943   6.650 -1.5095 -2.5796  1.5919
  417MOL0     H56286   1.749  11.038   6.660 -1.1451 -1.5113 -0.0456
  417MOL0     H56287   1.831  11.144   6.852 -0.4313 -2.6681  1.1752
  417MOL0     H56288   1.918  11.186   6.703 -0.5778 -0.8299 -0.2848
  417MOL0     H56289   2.102  11.036   6.766 -1.3979 -1.8967 -0.3173
  417MOL0     H56290   2.023  11.002   6.926 -0.3415  1.4159  1.7580
  417MOL0     H56291   2.037  11.231   6.979  1.0987  0.2660  0.3019
  417MOL0     H56292   2.137  11.268   6.847 -1.0470  0.3013  1.0232
  417MOL0     H56293   2.423  11.116   7.104  2.4178  0.4713 -2.3977
  417MOL0     H56294   1.990  10.763   6.672  0.0029 -1.1628 -0.0073
  417MOL0     H56295   2.005  10.539   6.673  2.5845 -1.2358  1.6972
  418MOL0     O56296  11.037  10.094   1.120  0.0087 -0.7970 -0.4230
  418MOL0     C56297  10.980   9.997   1.085 -0.5398  1.2236 -0.7681
  418MOL0     O56298  11.040   9.869   1.086  0.6242  0.0895 -0.2991
  418MOL0     C56299  11.173   9.850   1.120 -0.1949  0.1991 -0.5984
  418MOL0     C56300  11.257   9.782   1.029 -0.4144  0.2690  0.4463
  418MOL0     C56301  11.388   9.765   1.067 -1.1485  1.1577  0.0775
  418MOL0     C56302  11.442   9.820   1.190  0.6191 -0.4218  0.4666
  418MOL0     O56303  11.572   9.795   1.218 -0.2089  0.2455  0.3054
  418MOL0     C56304  11.620   9.843   1.340 -0.0287 -0.5993 -0.5332
  418MOL0     C56305  11.759   9.778   1.352  0.3816 -0.3427 -1.3898
  418MOL0     C56306  11.835   9.805   1.486 -0.2351 -0.3766  0.2417
  418MOL0     C56307  11.947   9.697   1.495 -0.0131 -0.3941 -0.4311
  418MOL0     C56308  12.043   9.738   1.616  0.5237 -0.3753 -0.3590
  418MOL0     C56309  12.150   9.641   1.645  0.2205 -0.3525 -0.2291
  418MOL0     C56310  12.259   9.714   1.720 -0.9451  0.4637  1.2420
  418MOL0     C56311  12.385   9.627   1.740 -1.0176  0.0172  0.2759
  418MOL0     N56312  12.452   9.601   1.609 -0.2766  0.3208  0.5507
  418MOL0     C56313  12.544   9.682   1.556 -0.3534 -0.1743 -0.1061
  418MOL0     C56314  12.614   9.610   1.475 -0.4463 -0.1239  0.1362
  418MOL0     C56315  12.737   9.658   1.395  0.6104  0.5807  0.8104
  418MOL0     C56316  12.682   9.662   1.250 -0.2251  0.6028 -0.3496
  418MOL0     C56317  12.782   9.746   1.153  0.8278 -1.0228  0.0487
  418MOL0     C56318  12.722   9.735   1.007 -0.0188 -0.0741 -0.2136
  418MOL0     O56319  12.635   9.852   0.997  0.4740  0.6891  0.1266
  418MOL0     C56320  12.522   9.849   0.901 -0.5148 -0.5807 -0.2222
  418MOL0     C56321  12.447   9.960   0.866 -0.1737 -0.5724 -0.4293
  418MOL0     C56322  12.344   9.965   0.776 -0.6740  0.5667 -0.6265
  418MOL0     C56323  12.278  10.099   0.747  0.9367  0.0743  0.0549
  418MOL0     C56324  12.300   9.844   0.721 -0.4556 -0.0396 -0.6712
  418MOL0     C56325  12.182   9.843   0.625 -0.4347 -0.2969 -0.0761
  418MOL0     O56326  12.180   9.939   0.523  0.4111 -0.3925 -0.9800
  418MOL0     C56327  12.047   9.963   0.477  0.5038 -0.6201 -1.8240
  418MOL0     C56328  11.974   9.863   0.418 -0.3361  0.1416 -1.6336
  418MOL0     C56329  11.837   9.880   0.391  0.0427  0.4367  0.1690
  418MOL0     C56330  11.768   9.997   0.404 -0.1003 -0.1204  0.6699
  418MOL0     O56331  11.640  10.024   0.370  0.2362  0.1432  0.5053
  418MOL0     C56332  11.600   9.983   0.238 -0.6293  0.4721 -0.0738
  418MOL0     C56333  11.487  10.075   0.194 -1.2019  0.8584 -0.1346
  418MOL0     C56334  11.416  10.029   0.072 -0.4141 -0.2355  0.0539
  418MOL0     C56335  11.301  10.131   0.036  0.1699 -0.7174 -0.1481
  418MOL0     C56336  11.222  10.078  -0.079  0.2745 -0.3252  0.6039
  418MOL0     C56337  11.114  10.179  -0.131 -0.6152  0.1245  0.1933
  418MOL0     C56338  11.033  10.124  -0.255 -1.2692 -0.3540 -0.8956
  418MOL0     C56339  10.974  10.244  -0.321 -0.1265 -0.1180  0.0411
  418MOL0    Cl56340  11.105  10.324  -0.408  0.1798 -0.0043  0.6113
  418MOL0     C56341  11.843  10.103   0.468  0.2272  1.4136  0.5165
  418MOL0     C56342  11.980  10.086   0.500 -0.4000  0.9484 -0.3369
  418MOL0     O56343  12.097   9.757   0.645 -0.5703  0.0972  0.5298
  418MOL0     C56344  12.373   9.730   0.756  0.5237  0.2878 -0.0334
  418MOL0     C56345  12.482   9.729   0.839  0.3867  0.0932  0.9555
  418MOL0     N56346  12.568   9.479   1.479 -0.2162  0.3724  0.1245
  418MOL0     N56347  12.472   9.474   1.566 -0.4947 -0.2344  0.2984
  418MOL0     C56348  11.357   9.895   1.276  0.2099 -0.7447  0.0417
  418MOL0     C56349  11.223   9.907   1.238 -0.0037  0.8690 -0.3304
  418MOL0     C56350  10.855  10.009   1.019  0.4999 -0.7996 -0.9406
  418MOL0     C56351  10.796   9.908   0.943  0.5922  0.0139 -0.7553
  418MOL0     C56352  10.672   9.926   0.876  0.0427 -0.5565 -0.2716
  418MOL0     C56353  10.603  10.046   0.881 -0.2015  0.2216  0.3091
  418MOL0     O56354  10.469  10.043   0.842 -0.5585 -0.2221  0.3086
  418MOL0     C56355  10.394  10.166   0.810  1.1173  0.5073 -0.4409
  418MOL0     C56356  10.264  10.134   0.725 -0.4944 -0.2610  0.4912
  418MOL0     C56357  10.174  10.048   0.796  1.0935 -0.4732 -0.4297
  418MOL0     C56358  10.062   9.998   0.701  0.0347 -0.2605 -0.4626
  418MOL0     C56359   9.975  10.098   0.638 -0.3603  0.2858 -0.0338
  418MOL0     C56360   9.897  10.186   0.598  0.0612  0.6692 -0.1135
  418MOL0     C56361  10.668  10.153   0.949  1.1370 -0.9773  0.7189
  418MOL0     C56362  10.787  10.134   1.018 -0.2878  1.1080  0.6654
  418MOL0     H56363  11.218   9.727   0.943  0.5279  1.0946 -0.5460
  418MOL0     H56364  11.452   9.710   0.998 -2.7133  3.0688 -3.1483
  418MOL0     H56365  11.638   9.951   1.341 -0.4330 -0.5149 -1.5761
  418MOL0     H56366  11.552   9.806   1.418 -0.2382  0.0092 -0.4238
  418MOL0     H56367  11.736   9.671   1.344  3.0778 -1.3295  1.8345
  418MOL0     H56368  11.822   9.802   1.265  2.0286 -0.1989 -0.2150
  418MOL0     H56369  11.883   9.903   1.493  1.3327 -1.2362  5.2619
  418MOL0     H56370  11.762   9.785   1.564 -0.4955 -3.2346 -0.6108
  418MOL0     H56371  11.924   9.590   1.490  2.8068 -1.1783  1.3769
  418MOL0     H56372  12.011   9.729   1.412  0.7287  3.2597  1.3646
  418MOL0     H56373  12.081   9.835   1.584  1.7754 -1.1863 -1.4324
  418MOL0     H56374  11.979   9.749   1.704 -0.3508 -0.5777 -0.9553
  418MOL0     H56375  12.118   9.562   1.714  2.0343  1.0070  2.3482
  418MOL0     H56376  12.183   9.599   1.550  1.8935 -0.1780  0.2366
  418MOL0     H56377  12.294   9.800   1.662 -3.0499  0.4661 -0.1229
  418MOL0     H56378  12.216   9.733   1.819 -1.1005 -1.0912  1.5049
  418MOL0     H56379  12.342   9.531   1.771  0.7365 -1.2498 -1.0505
  418MOL0     H56380  12.450   9.652   1.824  1.1340 -0.5063 -1.1658
  418MOL0     H56381  12.550   9.789   1.573 -1.2524  0.1525 -1.6477
  418MOL0     H56382  12.752   9.760   1.431  3.2676  0.9130 -0.9266
  418MOL0     H56383  12.826   9.595   1.403  0.7461  0.6155 -0.2815
  418MOL0     H56384  12.589   9.719   1.241 -1.6005 -1.1231  1.8726
  418MOL0     H56385  12.671   9.562   1.208 -1.3430  0.2398  0.7442
  418MOL0     H56386  12.873   9.686   1.149  1.1440 -0.7292  1.8864
  418MOL0     H56387  12.801   9.850   1.183 -1.7393 -0.2028 -0.8476
  418MOL0     H56388  12.668   9.641   0.991 -1.6425  0.4966  1.5242
  418MOL0     H56389  12.796   9.742   0.926 -0.6529  0.7947 -0.7464
  418MOL0     H56390  12.474  10.053   0.916  3.5929 -2.6493  1.8660
  418MOL0     H56391  12.309  10.182   0.812  0.3903 -0.1073  0.5561
  418MOL0     H56392  12.283  10.118   0.639  2.1378  1.5794  0.3450
  418MOL0     H56393  12.171  10.077   0.753  1.0182 -0.4404 -0.3225
  418MOL0     H56394  12.019   9.765   0.406  2.6998  1.4339 -1.5867
  418MOL0     H56395  11.781   9.800   0.344 -1.9554  1.4151  0.8052
  418MOL0     H56396  11.677  10.007   0.164 -1.0677 -0.6853 -0.9376
  418MOL0     H56397  11.573   9.877   0.237 -0.3172  0.3836  0.6226
  418MOL0     H56398  11.407  10.082   0.269 -0.5383 -0.3498  0.7083
  418MOL0     H56399  11.535  10.172   0.187 -0.7289  0.7237  1.0751
  418MOL0     H56400  11.385   9.930   0.108  0.6338 -0.1574  1.2449
  418MOL0     H56401  11.472  10.009  -0.019 -1.6154  1.7205 -1.1949
  418MOL0     H56402  11.229  10.157   0.114 -0.7709 -3.3074 -0.0517
  418MOL0     H56403  11.361  10.216   0.002  2.1419 -1.5682  1.0078
  418MOL0     H56404  11.178   9.982  -0.048  0.6148 -1.4480 -2.0741
  418MOL0     H56405  11.285  10.049  -0.163 -1.4061 -1.6284 -0.2893
  418MOL0     H56406  11.044  10.193  -0.047 -0.8000 -0.1786  0.0915
  418MOL0     H56407  11.152  10.279  -0.153 -1.6303 -0.4795 -6.3223
  418MOL0     H56408  10.956  10.053  -0.223  0.5418 -1.7094  0.7278
  418MOL0     H56409  11.088  10.060  -0.324 -0.5716 -1.1764  0.3842
  418MOL0     H56410  10.928  10.318  -0.255 -1.7660 -0.6954 -0.4294
  418MOL0     H56411  10.897  10.209  -0.389 -1.9348  0.8397  1.5084
  418MOL0     H56412  11.781  10.188   0.496  2.8451  3.1448  1.3949
  418MOL0     H56413  12.035  10.169   0.543 -2.1802  1.5110  1.0105
  418MOL0     H56414  12.320   9.647   0.711 -1.6380  1.2333  0.6736
  418MOL0     H56415  12.544   9.640   0.842  1.5536  0.8495  0.3656
  418MOL0     H56416  11.380   9.944   1.370 -2.6687  1.0985 -0.0985
  418MOL0     H56417  11.160   9.966   1.305  0.2237  1.1852 -0.3908
  418MOL0     H56418  10.834   9.807   0.935 -3.5095 -1.9748  1.2364
  418MOL0     H56419  10.623   9.834   0.847 -0.4067 -0.5554  0.4705
  418MOL0     H56420  10.371  10.210   0.907  0.5079 -4.3654  1.9490
  418MOL0     H56421  10.457  10.234   0.752 -1.0861  1.6607 -1.5983
  418MOL0     H56422  10.284  10.076   0.635 -0.4549  0.2020  0.1953
  418MOL0     H56423  10.223  10.234   0.705 -0.6378 -0.5806 -0.8706
  418MOL0     H56424  10.136  10.110   0.877 -0.1519  1.7928 -2.6195
  418MOL0     H56425  10.229   9.963   0.837 -0.3942 -0.8608  0.8418
  418MOL0     H56426   9.999   9.931   0.761  1.7959 -0.6000  1.1298
  418MOL0     H56427  10.105   9.935   0.623  0.4678  0.9468 -1.2290
  418MOL0     H56428   9.830  10.259   0.558 -0.3838 -0.4438 -1.4582
  418MOL0     H56429  10.611  10.244   0.966 -1.8997 -2.8832  1.4220
  418MOL0     H56430  10.814  10.221   1.076 -3.4436  1.7026  1.4104
  419MOL0     O56431   0.865   5.817   4.445  0.3962  1.0021 -0.2174
  419MOL0     C56432   0.917   5.891   4.367  0.2742  0.0831 -0.1805
  419MOL0     O56433   1.044   5.946   4.374 -0.1924 -0.0871  0.8493
  419MOL0     C56434   1.137   5.901   4.461 -0.4459  0.2551  0.7481
  419MOL0     C56435   1.105   5.851   4.592  0.4835  0.1162  0.5069
  419MOL0     C56436   1.197   5.806   4.680 -0.9723  0.1150  0.8260
  419MOL0     C56437   1.331   5.812   4.637  0.6227  0.4999  1.4359
  419MOL0     O56438   1.432   5.777   4.724 -0.0083 -0.0279  0.5012
  419MOL0     C56439   1.453   5.638   4.727  0.0863  0.1268 -0.1037
  419MOL0     C56440   1.531   5.595   4.855  0.1134 -0.3221  0.8778
  419MOL0     C56441   1.579   5.449   4.845 -0.7018 -0.1468  0.5866
  419MOL0     C56442   1.543   5.382   4.974 -0.0432  0.1341  0.2227
  419MOL0     C56443   1.548   5.226   4.964 -0.6556 -0.9913  0.5358
  419MOL0     C56444   1.443   5.153   4.875 -0.1437  0.0682 -0.2728
  419MOL0     C56445   1.481   5.009   4.848  0.1884 -0.3345  0.1224
  419MOL0     C56446   1.393   4.929   4.754 -0.5712 -0.0553 -0.4613
  419MOL0     N56447   1.254   4.923   4.790  0.3002  0.2877  0.6032
  419MOL0     C56448   1.198   4.804   4.815 -0.1514  0.5592 -0.2497
  419MOL0     C56449   1.068   4.829   4.817  0.7559 -0.1566 -0.1676
  419MOL0     C56450   0.949   4.745   4.861 -0.1429  0.0072  0.7981
  419MOL0     C56451   0.959   4.603   4.811  0.8461 -0.3761  0.0591
  419MOL0     C56452   0.821   4.529   4.820 -0.3499 -0.7607  0.3462
  419MOL0     C56453   0.782   4.521   4.961 -0.1634  0.1492 -0.4201
  419MOL0     O56454   0.668   4.434   4.981  0.1380 -0.5895  0.2489
  419MOL0     C56455   0.563   4.499   5.053 -0.3592 -0.2169  0.0921
  419MOL0     C56456   0.491   4.599   4.989 -0.0814  0.2602 -0.0209
  419MOL0     C56457   0.384   4.657   5.056  0.3420  0.3509 -0.0941
  419MOL0     C56458   0.320   4.770   4.992 -0.8892 -0.8461  0.4315
  419MOL0     C56459   0.333   4.600   5.174  0.2764  0.1764 -0.2813
  419MOL0     C56460   0.202   4.639   5.225 -0.3349  0.6104  0.9291
  419MOL0     O56461   0.105   4.654   5.127  0.3325  0.8094  0.1601
  419MOL0     C56462  -0.015   4.721   5.154  0.0268  1.3701  0.3304
  419MOL0     C56463  -0.038   4.841   5.088 -0.5384  1.1206  0.5245
  419MOL0     C56464  -0.157   4.916   5.096  0.1534 -0.3796 -0.0916
  419MOL0     C56465  -0.261   4.866   5.176  1.2844 -1.4208 -0.4409
  419MOL0     O56466  -0.391   4.920   5.179 -0.3007 -0.7262 -0.1766
  419MOL0     C56467  -0.449   4.967   5.051 -0.0414  0.5102 -0.3081
  419MOL0     C56468  -0.603   4.983   5.089 -0.0348 -0.0535 -0.0566
  419MOL0     C56469  -0.679   5.031   4.972 -0.2154  0.0498 -0.0176
  419MOL0     C56470  -0.829   5.058   4.994  0.1137 -0.4435  0.6906
  419MOL0     C56471  -0.896   5.135   4.875 -0.6407  0.7964 -0.7983
  419MOL0     C56472  -1.041   5.089   4.865 -0.0207 -0.0064  0.3231
  419MOL0     C56473  -1.128   5.193   4.807 -0.4140  0.2815  0.5049
  419MOL0     C56474  -1.112   5.225   4.665  0.3548 -0.4910 -0.2626
  419MOL0    Cl56475  -1.231   5.351   4.629 -0.0594 -0.4554 -0.1122
  419MOL0     C56476  -0.239   4.753   5.255  0.1658 -0.2714 -0.2630
  419MOL0     C56477  -0.125   4.675   5.232  0.0112 -0.0335  0.4351
  419MOL0     O56478   0.191   4.659   5.341 -0.3880 -0.5336 -0.3538
  419MOL0     C56479   0.404   4.502   5.240 -0.4057 -1.4926 -0.0391
  419MOL0     C56480   0.525   4.454   5.179  0.2904 -1.2098 -1.2317
  419MOL0     N56481   1.046   4.961   4.783  0.0164 -0.1372  0.2618
  419MOL0     N56482   1.156   5.015   4.763 -0.1315  0.0272 -0.0363
  419MOL0     C56483   1.364   5.851   4.500 -0.7068 -0.2825 -1.0586
  419MOL0     C56484   1.267   5.892   4.409  0.4148 -0.3692  0.8312
  419MOL0     C56485   0.823   5.937   4.263 -1.1481 -0.6363  0.5650
  419MOL0     C56486   0.690   5.910   4.275  0.4047 -0.5523  0.5354
  419MOL0     C56487   0.608   5.932   4.167  0.6022  0.2763 -0.0812
  419MOL0     C56488   0.655   5.986   4.045 -0.0549  0.9335  0.1448
  419MOL0     O56489   0.579   6.013   3.932 -0.0254  0.4819 -0.2631
  419MOL0     C56490   0.443   5.981   3.939 -0.9417  0.5339  0.1326
  419MOL0     C56491   0.370   6.086   4.012 -0.1824  1.0880 -0.6303
  419MOL0     C56492   0.237   6.020   4.051  0.2625 -0.1007 -0.1606
  419MOL0     C56493   0.133   6.112   4.102  0.7935 -0.5266  0.4738
  419MOL0     C56494   0.160   6.121   4.247 -0.1056 -0.0219  0.1846
  419MOL0     C56495   0.175   6.111   4.365 -0.4114  0.5087  0.4747
  419MOL0     C56496   0.796   6.021   4.041 -0.3171 -0.3943 -0.0602
  419MOL0     C56497   0.879   5.989   4.146 -0.6970 -0.4629  0.0206
  419MOL0     H56498   1.011   5.881   4.639  0.2221 -2.6566  1.9288
  419MOL0     H56499   1.173   5.790   4.785 -2.3194  1.6729  0.8023
  419MOL0     H56500   1.359   5.581   4.728 -0.7143  1.3202 -1.8037
  419MOL0     H56501   1.515   5.604   4.644 -1.2923 -1.8700 -0.3960
  419MOL0     H56502   1.625   5.651   4.858  0.7082 -1.3012  1.1371
  419MOL0     H56503   1.477   5.611   4.949  1.7021 -1.2789  2.0069
  419MOL0     H56504   1.529   5.404   4.759 -2.3583 -0.1216  1.4882
  419MOL0     H56505   1.686   5.463   4.825 -1.4837  2.9906 -2.3622
  419MOL0     H56506   1.600   5.420   5.058 -2.0794  4.8601 -0.1916
  419MOL0     H56507   1.439   5.403   5.002  0.3319  2.4294  0.0230
  419MOL0     H56508   1.652   5.200   4.940 -1.3939 -2.9838 -0.7089
  419MOL0     H56509   1.539   5.187   5.066 -1.3162  0.7641  1.1850
  419MOL0     H56510   1.345   5.160   4.923 -1.3830 -1.8365 -2.3581
  419MOL0     H56511   1.444   5.198   4.776  3.2108 -1.1690 -0.9549
  419MOL0     H56512   1.581   5.021   4.805  1.3307  0.2227  2.7308
  419MOL0     H56513   1.491   4.957   4.944  1.4088  1.3685  0.9919
  419MOL0     H56514   1.438   4.829   4.755  3.3962  1.5151  0.3234
  419MOL0     H56515   1.412   4.965   4.652  1.7841  0.5453  0.1223
  419MOL0     H56516   1.250   4.710   4.830 -0.2622  0.6437  0.7130
  419MOL0     H56517   0.947   4.736   4.970 -3.5029  1.6026  1.0010
  419MOL0     H56518   0.856   4.792   4.826 -0.3099  0.7692  2.1849
  419MOL0     H56519   1.043   4.549   4.854  0.3705 -0.7476  0.5288
  419MOL0     H56520   0.985   4.613   4.705  1.2737  5.0172  0.3723
  419MOL0     H56521   0.814   4.426   4.785  0.1456 -0.7134  0.1073
  419MOL0     H56522   0.751   4.583   4.756  0.3751 -1.7003 -1.2858
  419MOL0     H56523   0.753   4.621   4.992  2.5470  0.4102  1.6596
  419MOL0     H56524   0.865   4.478   5.018 -1.4348 -0.6956  0.8491
  419MOL0     H56525   0.496   4.623   4.883 -3.2984  0.3180 -0.2511
  419MOL0     H56526   0.249   4.732   4.918 -1.1890 -0.5842  0.5858
  419MOL0     H56527   0.265   4.831   5.065 -1.7487 -2.5824  1.2876
  419MOL0     H56528   0.401   4.828   4.947 -0.5023 -0.9926  0.9377
  419MOL0     H56529   0.037   4.890   5.027 -1.6638  1.6001 -0.4939
  419MOL0     H56530  -0.168   5.001   5.029  2.7612 -0.8530 -1.2413
  419MOL0     H56531  -0.409   5.064   5.022  1.9528 -0.1128  0.1884
  419MOL0     H56532  -0.435   4.891   4.974 -4.6718  1.1585 -2.0755
  419MOL0     H56533  -0.646   4.885   5.113  1.0047 -1.1480 -2.3688
  419MOL0     H56534  -0.620   5.053   5.172 -1.3953 -0.3805 -0.0358
  419MOL0     H56535  -0.663   4.961   4.889 -2.9388 -0.7770  0.0342
  419MOL0     H56536  -0.646   5.132   4.948  1.2800 -0.2112  0.8195
  419MOL0     H56537  -0.876   4.959   5.000  0.3169 -0.7064 -1.2402
  419MOL0     H56538  -0.857   5.110   5.085  0.9607 -1.0421  1.3142
  419MOL0     H56539  -0.842   5.126   4.781  2.0585 -2.5624  0.8326
  419MOL0     H56540  -0.897   5.241   4.905 -1.1789  0.3429  0.9261
  419MOL0     H56541  -1.052   4.996   4.809  1.1303 -0.3560  0.6427
  419MOL0     H56542  -1.087   5.075   4.964  1.6667  2.8557  1.6522
  419MOL0     H56543  -1.128   5.289   4.861 -1.9912  0.6520 -0.1084
  419MOL0     H56544  -1.226   5.144   4.804  0.0288 -0.7037  1.4240
  419MOL0     H56545  -1.131   5.133   4.610 -0.6210  0.2011 -1.1069
  419MOL0     H56546  -1.012   5.264   4.643 -0.3686  1.6304 -0.0475
  419MOL0     H56547  -0.313   4.709   5.322  0.2264  1.0393  0.6980
  419MOL0     H56548  -0.121   4.578   5.281 -0.2428 -0.9485 -1.2872
  419MOL0     H56549   0.380   4.456   5.336  1.7038  1.2214  1.9743
  419MOL0     H56550   0.579   4.380   5.237  1.3286  1.6472  1.7908
  419MOL0     H56551   1.466   5.847   4.462 -0.5058  0.4303 -0.6059
  419MOL0     H56552   1.292   5.936   4.313 -0.6805  3.4192  2.0951
  419MOL0     H56553   0.653   5.865   4.366 -0.0675 -0.3314  0.4545
  419MOL0     H56554   0.506   5.907   4.195  1.2948 -1.1869  1.2595
  419MOL0     H56555   0.407   5.957   3.839 -0.9731  2.3295 -0.3174
  419MOL0     H56556   0.436   5.879   3.980  0.2742  0.7291  0.8689
  419MOL0     H56557   0.359   6.170   3.943 -0.0858  2.5407  1.0409
  419MOL0     H56558   0.415   6.111   4.109 -2.1156  0.1755  0.5776
  419MOL0     H56559   0.250   5.932   4.115  1.0709  0.5629  0.6170
  419MOL0     H56560   0.209   5.970   3.958 -2.7639  1.6533 -0.3426
  419MOL0     H56561   0.036   6.067   4.082  0.8211 -0.9210  1.1932
  419MOL0     H56562   0.153   6.209   4.055  2.9868 -2.0731 -2.0650
  419MOL0     H56563   0.155   6.104   4.470 -0.7267 -1.1742  0.3203
  419MOL0     H56564   0.834   6.065   3.950  2.5465 -2.3470  0.0481
  419MOL0     H56565   0.986   5.996   4.129 -0.7422  0.7336  0.1856
  420MOL0     O56566   4.033   9.563   3.188 -0.7215 -0.7203  0.6093
  420MOL0     C56567   4.028   9.478   3.099  0.1523 -0.8045 -0.5774
  420MOL0     O56568   3.920   9.441   3.031 -0.6438 -0.2060  0.0992
  420MOL0     C56569   3.805   9.508   3.065  0.0563  0.0840 -0.2200
  420MOL0     C56570   3.777   9.630   3.010  0.0183 -0.6145  0.5796
  420MOL0     C56571   3.668   9.706   3.049 -0.3564 -0.4144  0.0915
  420MOL0     C56572   3.576   9.662   3.146 -0.7718 -0.1952  0.0096
  420MOL0     O56573   3.473   9.735   3.187 -0.2745 -0.8530 -0.5406
  420MOL0     C56574   3.417   9.712   3.321  0.2278 -0.0904  0.2790
  420MOL0     C56575   3.314   9.826   3.357  0.3638 -0.5837 -0.2763
  420MOL0     C56576   3.211   9.849   3.248  0.9006  0.8143  1.0322
  420MOL0     C56577   3.088   9.912   3.313  1.0382 -0.3954 -0.1266
  420MOL0     C56578   3.001   9.943   3.194 -0.1570 -1.0477 -0.2389
  420MOL0     C56579   2.859   9.986   3.230  0.0269 -0.1927 -0.5663
  420MOL0     C56580   2.765   9.998   3.116 -0.7203 -0.1329 -0.6896
  420MOL0     C56581   2.622  10.029   3.174  0.1565 -0.0678 -0.1673
  420MOL0     N56582   2.559  10.133   3.091 -0.1519  0.0159  0.3077
  420MOL0     C56583   2.509  10.119   2.960  0.6844 -0.5237 -0.1217
  420MOL0     C56584   2.480  10.239   2.918  0.8776 -0.5859  0.5325
  420MOL0     C56585   2.433  10.276   2.779  0.2480  0.0147  1.6182
  420MOL0     C56586   2.339  10.393   2.766  0.4969 -0.5231 -0.1179
  420MOL0     C56587   2.276  10.423   2.626 -0.5671 -0.3997 -0.6861
  420MOL0     C56588   2.258  10.573   2.608  0.1910 -1.5721  0.1563
  420MOL0     O56589   2.181  10.624   2.717  1.2726 -0.3439 -0.0032
  420MOL0     C56590   2.206  10.756   2.757  0.6945  0.5073 -0.1539
  420MOL0     C56591   2.112  10.807   2.848 -0.2946 -0.1250 -0.0761
  420MOL0     C56592   2.129  10.934   2.905  0.2640 -0.4446 -1.0152
  420MOL0     C56593   2.034  10.975   3.010 -0.6665  0.0028 -0.5721
  420MOL0     C56594   2.243  11.010   2.872  0.0870 -0.1495 -0.6454
  420MOL0     C56595   2.258  11.143   2.934  0.4475 -0.1756 -0.1724
  420MOL0     O56596   2.242  11.156   3.067 -0.2811 -0.3751  0.9269
  420MOL0     C56597   2.278  11.278   3.114 -0.6196 -0.2313 -0.3763
  420MOL0     C56598   2.416  11.305   3.150  0.3849 -0.6138  0.1103
  420MOL0     C56599   2.445  11.435   3.209  0.3931  0.5908  0.6850
  420MOL0     C56600   2.349  11.530   3.226 -0.6280  0.7766 -0.2297
  420MOL0     O56601   2.384  11.649   3.286 -0.4186  0.4041 -0.3524
  420MOL0     C56602   2.288  11.744   3.327 -0.3381  0.5101  0.0990
  420MOL0     C56603   2.359  11.867   3.387 -0.2355 -0.5364  0.6989
  420MOL0     C56604   2.411  11.953   3.273 -0.0074 -0.4859  0.7794
  420MOL0     C56605   2.539  12.016   3.314  0.5169  0.2126  0.0138
  420MOL0     C56606   2.524  12.129   3.417  0.3567 -0.1361 -0.0344
  420MOL0     C56607   2.650  12.142   3.500 -0.9004 -0.0244  0.6469
  420MOL0     C56608   2.653  12.285   3.569  0.6686  0.3202  0.0085
  420MOL0     C56609   2.791  12.329   3.619 -0.5720  0.1966 -0.0310
  420MOL0    Cl56610   2.758  12.496   3.682  0.0435 -0.4608  0.4564
  420MOL0     C56611   2.216  11.489   3.199  0.2857  0.4164  0.1733
  420MOL0     C56612   2.186  11.365   3.148  0.2234 -0.1123  0.4884
  420MOL0     O56613   2.308  11.230   2.863  0.6455 -0.0018 -0.1936
  420MOL0     C56614   2.337  10.955   2.780 -0.1297 -0.5082  0.2944
  420MOL0     C56615   2.313  10.829   2.723  0.7026 -0.1401  0.6002
  420MOL0     N56616   2.513  10.335   3.013 -0.3058 -0.3716 -0.6549
  420MOL0     N56617   2.565  10.272   3.113 -0.3487  1.1075 -0.0434
  420MOL0     C56618   3.607   9.533   3.206  0.2794  0.4666  0.3799
  420MOL0     C56619   3.715   9.459   3.158  0.6070 -0.5141 -0.7251
  420MOL0     C56620   4.159   9.418   3.058 -0.7282 -0.0689  0.3432
  420MOL0     C56621   4.161   9.338   2.945 -0.9278 -0.1141 -0.2359
  420MOL0     C56622   4.273   9.261   2.909  0.4052  0.0597  0.2127
  420MOL0     C56623   4.397   9.259   2.979 -0.3670 -0.0072 -1.5541
  420MOL0     O56624   4.497   9.179   2.951 -1.7303  0.4598  0.4075
  420MOL0     C56625   4.623   9.184   3.023 -0.3506 -0.4867  0.4792
  420MOL0     C56626   4.703   9.063   2.981 -0.1415  0.1950  0.4230
  420MOL0     C56627   4.815   9.043   3.080 -0.2233 -0.3042 -0.5507
  420MOL0     C56628   4.905   8.920   3.047  0.0581 -0.1424  0.2155
  420MOL0     C56629   5.048   8.963   3.070  0.2439  0.3664  0.1232
  420MOL0     C56630   5.167   8.985   3.060  0.0818 -0.3263  0.5487
  420MOL0     C56631   4.393   9.347   3.098  0.2335  0.0056  0.2468
  420MOL0     C56632   4.278   9.421   3.134 -0.3997  1.2811  0.3786
  420MOL0     H56633   3.832   9.670   2.926 -2.4020  0.4882 -0.5782
  420MOL0     H56634   3.649   9.806   3.010 -0.7049 -0.5060  0.0187
  420MOL0     H56635   3.380   9.609   3.326  1.5433 -0.5157  1.8350
  420MOL0     H56636   3.497   9.735   3.391  1.2755  0.5111 -1.0705
  420MOL0     H56637   3.263   9.810   3.452  0.8837  0.1909  0.1380
  420MOL0     H56638   3.378   9.914   3.361  0.9066 -1.0262  0.9273
  420MOL0     H56639   3.252   9.920   3.176  0.1524  1.4924  1.2590
  420MOL0     H56640   3.180   9.753   3.206 -0.7247  0.6201  2.5610
  420MOL0     H56641   3.038   9.844   3.383 -1.3142  0.8077 -0.5026
  420MOL0     H56642   3.107  10.005   3.367 -0.8864 -1.3913  2.5047
  420MOL0     H56643   3.052  10.003   3.118  1.4522 -1.2601  0.6107
  420MOL0     H56644   2.988   9.847   3.144  1.4759  0.3434 -3.5962
  420MOL0     H56645   2.820   9.923   3.310 -1.8444 -0.0859 -1.3356
  420MOL0     H56646   2.868  10.082   3.282  0.5290 -0.7784  0.4487
  420MOL0     H56647   2.807  10.076   3.052  2.8965 -1.8942 -0.6701
  420MOL0     H56648   2.759   9.900   3.067 -1.4790 -1.3745  1.7273
  420MOL0     H56649   2.635  10.078   3.271 -1.6546  0.4501 -0.1507
  420MOL0     H56650   2.568   9.935   3.184  1.8531 -0.8803  2.1018
  420MOL0     H56651   2.495  10.027   2.905  1.4580 -2.2463  2.3708
  420MOL0     H56652   2.522  10.302   2.721 -0.4453 -0.0157  0.5045
  420MOL0     H56653   2.382  10.193   2.729  3.5075  1.2451 -4.8842
  420MOL0     H56654   2.393  10.483   2.797  2.0590  0.1104 -4.0152
  420MOL0     H56655   2.258  10.377   2.837 -0.5904  0.0988 -1.1776
  420MOL0     H56656   2.181  10.369   2.638  0.1380 -1.3312  0.9791
  420MOL0     H56657   2.325  10.387   2.535 -1.1425 -2.2073 -0.3288
  420MOL0     H56658   2.210  10.598   2.513 -0.0871  1.2710  0.9439
  420MOL0     H56659   2.357  10.617   2.590  0.0727  0.5314  3.7190
  420MOL0     H56660   2.032  10.743   2.885  1.8042 -1.7973  1.8869
  420MOL0     H56661   1.941  10.917   3.010 -0.9058  0.3276  1.3616
  420MOL0     H56662   2.087  10.946   3.101 -0.7840 -1.5600 -0.9793
  420MOL0     H56663   2.003  11.080   2.999  0.3947  0.1283 -3.0929
  420MOL0     H56664   2.493  11.230   3.138  1.4328  0.4127  0.2975
  420MOL0     H56665   2.551  11.449   3.227 -0.0070  0.8238  3.1881
  420MOL0     H56666   2.225  11.770   3.241 -1.0577  4.6237  1.6191
  420MOL0     H56667   2.220  11.714   3.407 -1.0439 -0.7437 -0.9170
  420MOL0     H56668   2.273  11.918   3.430  0.1926  1.5885 -0.8078
  420MOL0     H56669   2.428  11.835   3.467  0.3013 -2.3555 -0.4270
  420MOL0     H56670   2.348  12.041   3.255 -0.4806 -0.7662  1.0667
  420MOL0     H56671   2.431  11.894   3.184 -2.9668 -3.0066  1.6185
  420MOL0     H56672   2.598  11.938   3.363 -0.3938  0.7049  2.0137
  420MOL0     H56673   2.585  12.055   3.223 -0.0831 -1.2969 -0.9898
  420MOL0     H56674   2.439  12.119   3.485 -1.4305 -1.8166 -2.3467
  420MOL0     H56675   2.523  12.225   3.365  1.4216  1.4795  2.7469
  420MOL0     H56676   2.651  12.070   3.582  0.3173  2.4064  2.9095
  420MOL0     H56677   2.742  12.132   3.441 -0.0919  2.7271  1.3086
  420MOL0     H56678   2.585  12.285   3.654  0.9424 -1.2239  0.2631
  420MOL0     H56679   2.609  12.349   3.492  1.6885 -1.8999 -2.5890
  420MOL0     H56680   2.877  12.323   3.551  0.5940 -0.2167  1.4411
  420MOL0     H56681   2.818  12.262   3.701  1.3447  0.7652 -0.1394
  420MOL0     H56682   2.132  11.542   3.241 -0.5198  0.3115 -1.2617
  420MOL0     H56683   2.085  11.326   3.141  0.1335  0.4072 -1.5790
  420MOL0     H56684   2.425  11.017   2.770 -0.1918 -0.5809 -0.8164
  420MOL0     H56685   2.389  10.796   2.652  0.1010 -0.7087  0.2097
  420MOL0     H56686   3.545   9.487   3.282  1.0571 -2.5789 -0.6685
  420MOL0     H56687   3.737   9.366   3.209  2.3365 -0.3919 -1.1885
  420MOL0     H56688   4.075   9.315   2.883  0.3727 -3.5711 -1.0062
  420MOL0     H56689   4.260   9.184   2.833  2.9591 -0.2661 -0.0125
  420MOL0     H56690   4.676   9.274   2.992 -0.6615 -0.8462 -1.1819
  420MOL0     H56691   4.606   9.193   3.131  0.4793 -0.4297  0.6132
  420MOL0     H56692   4.749   9.081   2.883 -0.5306  1.8032  0.5153
  420MOL0     H56693   4.643   8.972   2.973  0.1063  0.0962 -0.4617
  420MOL0     H56694   4.795   9.027   3.186  3.2920 -0.9623  0.1607
  420MOL0     H56695   4.880   9.131   3.072  1.0877 -0.8384  2.5825
  420MOL0     H56696   4.905   8.879   2.945  1.4951 -0.6752  0.4103
  420MOL0     H56697   4.874   8.844   3.120 -1.5032  0.2850  0.0418
  420MOL0     H56698   5.273   9.000   3.055 -0.1011  1.1137  0.5651
  420MOL0     H56699   4.472   9.360   3.171  1.3644 -0.3376 -0.8680
  420MOL0     H56700   4.276   9.483   3.223 -3.6849  2.6702 -0.5211
  421MOL0     O56701   0.746  10.070   7.494  1.8314  0.2989 -0.6204
  421MOL0     C56702   0.825  10.152   7.527  0.3186 -0.1127  0.4459
  421MOL0     O56703   0.818  10.282   7.491 -0.0598 -1.5918 -0.3084
  421MOL0     C56704   0.715  10.333   7.425  0.2049 -0.3284  0.0146
  421MOL0     C56705   0.742  10.369   7.293 -0.2014  0.1442 -0.2202
  421MOL0     C56706   0.636  10.402   7.212  0.5589 -0.9491 -0.8570
  421MOL0     C56707   0.501  10.404   7.262 -0.0965 -0.2466  0.0453
  421MOL0     O56708   0.417  10.434   7.156 -1.1409  0.6721 -0.4364
  421MOL0     C56709   0.297  10.496   7.195  0.1490 -0.0250 -0.3218
  421MOL0     C56710   0.243  10.570   7.082  0.4190  0.1206  0.1029
  421MOL0     C56711   0.095  10.623   7.106 -0.2505  0.3144  0.4072
  421MOL0     C56712   0.024  10.671   6.983  0.8188  0.1050  0.6677
  421MOL0     C56713  -0.120  10.718   7.013  0.9794 -0.6217 -0.0962
  421MOL0     C56714  -0.189  10.788   6.895 -0.1543 -0.2491  0.1950
  421MOL0     C56715  -0.146  10.920   6.852  0.4541 -0.3074 -0.0799
  421MOL0     C56716  -0.218  10.973   6.733  0.1276  0.0639  0.4703
  421MOL0     N56717  -0.176  11.113   6.718  0.5993  0.3111 -0.0812
  421MOL0     C56718  -0.049  11.168   6.700  0.7712  0.4257 -0.5677
  421MOL0     C56719  -0.065  11.300   6.696  0.2745  0.3344 -0.3819
  421MOL0     C56720   0.028  11.411   6.706 -0.1764  0.2916  0.4224
  421MOL0     C56721   0.120  11.409   6.835 -0.7734  0.1289  0.1449
  421MOL0     C56722   0.030  11.432   6.955 -0.3155 -0.1842  0.4244
  421MOL0     C56723   0.087  11.370   7.077  0.7831  0.7696  0.2536
  421MOL0     O56724   0.193  11.452   7.118  0.2588 -0.4359  0.6160
  421MOL0     C56725   0.295  11.386   7.171 -0.2129 -0.5137 -0.1942
  421MOL0     C56726   0.394  11.330   7.085  0.4347  0.2970  0.1186
  421MOL0     C56727   0.501  11.253   7.136  0.1804  0.3550  0.7389
  421MOL0     C56728   0.591  11.206   7.024 -0.0313 -0.7666 -0.7190
  421MOL0     C56729   0.522  11.232   7.274 -0.5131  1.0751  0.9745
  421MOL0     C56730   0.647  11.180   7.326  0.4229  0.5161 -1.1922
  421MOL0     O56731   0.651  11.177   7.463  0.0642  1.7125 -0.0453
  421MOL0     C56732   0.778  11.159   7.512  0.2997  0.0475  0.5226
  421MOL0     C56733   0.810  11.051   7.598  0.8493 -0.4651 -0.3418
  421MOL0     C56734   0.941  11.034   7.645  0.2383  0.6931 -0.2896
  421MOL0     C56735   1.044  11.121   7.615 -0.6987 -0.2599 -0.0464
  421MOL0     O56736   1.163  11.091   7.675 -0.0559  0.3436  0.4283
  421MOL0     C56737   1.274  11.184   7.657  0.4848  0.9231  0.0502
  421MOL0     C56738   1.380  11.121   7.737 -0.5598  0.2279 -0.2387
  421MOL0     C56739   1.518  11.128   7.665 -0.7272  0.1891 -0.4284
  421MOL0     C56740   1.621  11.040   7.740  0.2076  0.2866 -0.2240
  421MOL0     C56741   1.762  11.057   7.676 -0.4690  0.7880  0.1773
  421MOL0     C56742   1.840  10.930   7.704 -0.0736 -0.0542  0.8707
  421MOL0     C56743   1.994  10.951   7.672  0.7329 -0.5695 -0.2434
  421MOL0     C56744   2.078  10.824   7.681  0.4277  0.4265 -0.5233
  421MOL0    Cl56745   2.094  10.798   7.861  0.1094  0.1326  0.0099
  421MOL0     C56746   1.009  11.235   7.527 -0.3483  0.3513  0.0383
  421MOL0     C56747   0.880  11.242   7.479 -0.6312  0.7331  0.4579
  421MOL0     O56748   0.731  11.128   7.251  0.5402  0.2328 -0.2884
  421MOL0     C56749   0.428  11.294   7.357 -1.0679  0.4115 -0.5109
  421MOL0     C56750   0.319  11.365   7.308 -0.7282 -0.7384  0.5912
  421MOL0     N56751  -0.205  11.325   6.713 -0.3692 -0.1324 -0.4413
  421MOL0     N56752  -0.266  11.212   6.727 -0.7246 -0.6788 -0.8398
  421MOL0     C56753   0.475  10.369   7.394  0.2917 -1.1764 -0.1374
  421MOL0     C56754   0.583  10.328   7.481  0.1887  0.5616  0.4536
  421MOL0     C56755   0.951  10.103   7.567  0.1905 -1.3575  0.2213
  421MOL0     C56756   0.974   9.969   7.576 -0.7927  0.4934 -0.1301
  421MOL0     C56757   1.110   9.918   7.577 -0.0704 -0.5594 -0.2355
  421MOL0     C56758   1.227  10.005   7.591 -0.6744  0.1934  0.6042
  421MOL0     O56759   1.358   9.966   7.596 -0.2812 -0.5282 -0.5616
  421MOL0     C56760   1.373   9.825   7.580  0.1469  0.0379 -0.1497
  421MOL0     C56761   1.514   9.781   7.605 -0.3326  0.7813  0.4242
  421MOL0     C56762   1.541   9.795   7.757 -0.4648 -0.1911  0.6605
  421MOL0     C56763   1.683   9.742   7.795  1.0867 -0.5402 -0.4311
  421MOL0     C56764   1.683   9.761   7.943  0.6728 -0.7607 -0.4663
  421MOL0     C56765   1.707   9.786   8.053  0.6661  0.2233 -0.6955
  421MOL0     C56766   1.197  10.140   7.588  0.4395  0.2237 -0.6224
  421MOL0     C56767   1.063  10.190   7.572  0.3935  0.6546 -1.0950
  421MOL0     H56768   0.846  10.365   7.262  0.0357 -1.7416  0.6896
  421MOL0     H56769   0.663  10.410   7.107  0.0783  1.3591 -0.8500
  421MOL0     H56770   0.232  10.412   7.221  0.0448  0.4639  1.0666
  421MOL0     H56771   0.307  10.573   7.272 -0.0003  0.1126 -0.4402
  421MOL0     H56772   0.322  10.645   7.070  1.7399 -1.3030 -0.5418
  421MOL0     H56773   0.240  10.503   6.995  0.3919  0.7035 -0.3547
  421MOL0     H56774   0.036  10.550   7.164  1.5072 -0.5255  1.2103
  421MOL0     H56775   0.106  10.703   7.181  3.3820 -3.0535  3.9686
  421MOL0     H56776   0.074  10.760   6.945  2.7311 -0.6394  1.3290
  421MOL0     H56777   0.011  10.589   6.912 -0.1422  1.1375 -0.3768
  421MOL0     H56778  -0.188  10.638   7.042 -2.6325  2.1183 -0.2517
  421MOL0     H56779  -0.114  10.784   7.100 -1.2891 -1.0528  0.4521
  421MOL0     H56780  -0.177  10.730   6.802 -1.5208 -1.2366  0.6052
  421MOL0     H56781  -0.292  10.805   6.925  0.3208 -0.1849  1.8928
  421MOL0     H56782  -0.156  10.991   6.935 -0.0845  1.6734 -1.7516
  421MOL0     H56783  -0.043  10.914   6.816 -0.4523 -0.7410 -2.8442
  421MOL0     H56784  -0.325  10.961   6.748 -0.2644  2.0237 -0.4759
  421MOL0     H56785  -0.182  10.918   6.645 -0.0167 -1.7096  1.4742
  421MOL0     H56786   0.047  11.118   6.701  0.4776 -0.2337 -1.9976
  421MOL0     H56787   0.095  11.403   6.619 -1.2193  1.8469 -0.5838
  421MOL0     H56788  -0.026  11.505   6.691  2.0602  1.9813  2.1589
  421MOL0     H56789   0.192  11.491   6.837  1.4072 -1.6566 -0.4731
  421MOL0     H56790   0.169  11.311   6.841  1.2430  1.0307 -0.9043
  421MOL0     H56791  -0.073  11.399   6.936 -0.4582  0.1233  0.6522
  421MOL0     H56792   0.030  11.541   6.947 -0.0845 -0.3103 -4.4093
  421MOL0     H56793   0.124  11.268   7.061 -0.5415  0.1231  1.1170
  421MOL0     H56794   0.013  11.352   7.156 -0.0328 -1.2159 -0.8936
  421MOL0     H56795   0.392  11.339   6.977  0.2588  0.3689  0.1283
  421MOL0     H56796   0.559  11.199   6.920  0.1945  2.5126 -1.1123
  421MOL0     H56797   0.682  11.266   7.028  0.4945 -1.5625 -0.4198
  421MOL0     H56798   0.619  11.102   7.043 -0.2599 -0.7744 -0.4172
  421MOL0     H56799   0.740  10.970   7.617 -3.1917  2.6742 -0.4145
  421MOL0     H56800   0.961  10.954   7.715 -1.0514 -1.4292 -2.2097
  421MOL0     H56801   1.307  11.212   7.556  1.6783  3.1043  0.9736
  421MOL0     H56802   1.248  11.280   7.703  0.0679 -0.0632  1.9611
  421MOL0     H56803   1.387  11.170   7.835 -4.0153 -1.3115  0.9416
  421MOL0     H56804   1.362  11.013   7.745 -0.9922  0.3179  0.0824
  421MOL0     H56805   1.559  11.229   7.658  0.6042 -0.3988 -1.5786
  421MOL0     H56806   1.511  11.078   7.568 -2.0476 -2.8957  1.0940
  421MOL0     H56807   1.626  11.066   7.845 -1.3668 -3.8860  1.1035
  421MOL0     H56808   1.601  10.932   7.733  1.6649 -0.1734  1.8365
  421MOL0     H56809   1.816  11.137   7.727  1.6770 -0.8671  0.6398
  421MOL0     H56810   1.757  11.087   7.571 -1.4267  1.0033  0.2687
  421MOL0     H56811   1.822  10.893   7.805 -2.4509  2.0901  1.3331
  421MOL0     H56812   1.804  10.851   7.638  1.9559 -0.1189 -0.2541
  421MOL0     H56813   2.044  11.018   7.742  2.1193 -0.3617 -1.3861
  421MOL0     H56814   2.006  10.983   7.568 -0.4314  1.1945  0.1373
  421MOL0     H56815   2.173  10.850   7.632  0.2536 -1.5197 -2.0516
  421MOL0     H56816   2.025  10.742   7.632 -0.6504  0.4125  0.6204
  421MOL0     H56817   1.088  11.302   7.497 -0.7255  0.9167  0.2898
  421MOL0     H56818   0.865  11.308   7.394  3.6932 -0.3872 -1.4372
  421MOL0     H56819   0.443  11.297   7.465  0.3268  1.3301 -0.7058
  421MOL0     H56820   0.251  11.405   7.383  0.6932 -1.6510  2.4427
  421MOL0     H56821   0.369  10.368   7.418  0.4834  1.2080  1.0866
  421MOL0     H56822   0.572  10.286   7.580  1.6169 -2.1180 -0.4464
  421MOL0     H56823   0.893   9.898   7.582  1.6716 -2.5450  0.2311
  421MOL0     H56824   1.135   9.814   7.563  1.6439 -0.2295  0.0975
  421MOL0     H56825   1.312   9.762   7.645 -2.6192  2.0791 -0.5731
  421MOL0     H56826   1.355   9.795   7.476  5.0190 -0.0004 -1.2162
  421MOL0     H56827   1.585   9.838   7.544 -0.2014 -0.7060 -0.8635
  421MOL0     H56828   1.507   9.681   7.561  0.8268  2.1697 -3.2662
  421MOL0     H56829   1.469   9.742   7.819  0.3001 -0.0722  1.6744
  421MOL0     H56830   1.554   9.903   7.769  0.1412 -0.2316  0.4150
  421MOL0     H56831   1.773   9.791   7.756  1.1924 -1.4024 -1.2886
  421MOL0     H56832   1.694   9.638   7.763  2.0947 -2.1475  4.3121
  421MOL0     H56833   1.724   9.807   8.156 -0.8370 -1.1764 -0.1116
  421MOL0     H56834   1.281  10.207   7.604 -1.2618  1.8139  2.5511
  421MOL0     H56835   1.053  10.298   7.558  2.0597  1.9480  4.9289
  422MOL0     O56836   0.876   7.842   1.156 -0.2129  0.2728 -0.0573
  422MOL0     C56837   0.893   7.727   1.180 -0.1273  0.1654 -0.2436
  422MOL0     O56838   1.010   7.676   1.223  0.0210  0.3611  0.8926
  422MOL0     C56839   1.137   7.731   1.209 -0.6338  0.2327 -0.0571
  422MOL0     C56840   1.248   7.655   1.261  0.1880 -0.4440 -0.3754
  422MOL0     C56841   1.376   7.675   1.229  0.0955  0.1273 -0.3540
  422MOL0     C56842   1.414   7.780   1.145  1.0431 -0.8559 -0.5465
  422MOL0     O56843   1.553   7.796   1.120  0.1231  0.7087  0.7159
  422MOL0     C56844   1.581   7.811   0.976  0.6863 -0.8472  0.3744
  422MOL0     C56845   1.726   7.781   0.969  0.1188  0.2016  0.4786
  422MOL0     C56846   1.768   7.633   0.928  0.6360 -0.4274  0.0512
  422MOL0     C56847   1.698   7.524   1.002  0.4075 -0.0601 -0.1018
  422MOL0     C56848   1.746   7.385   0.969  0.0305 -0.0765 -0.0013
  422MOL0     C56849   1.659   7.275   1.042 -0.4112 -0.0026 -0.0087
  422MOL0     C56850   1.516   7.281   0.998  1.0314 -0.0084  0.2520
  422MOL0     C56851   1.425   7.172   1.068 -0.7059 -0.4775 -0.4291
  422MOL0     N56852   1.284   7.200   1.036  0.1489  0.4744 -0.6762
  422MOL0     C56853   1.219   7.158   0.925 -0.0320 -0.4035  0.0649
  422MOL0     C56854   1.097   7.213   0.935  0.4498 -0.3344 -0.6433
  422MOL0     C56855   0.987   7.199   0.840  0.3579  0.8062  0.3765
  422MOL0     C56856   0.897   7.318   0.846 -0.0776 -0.2021  0.4242
  422MOL0     C56857   0.777   7.305   0.754  0.1243 -0.0909 -0.4264
  422MOL0     C56858   0.680   7.420   0.773 -0.4180  0.6044  0.8058
  422MOL0     O56859   0.556   7.388   0.706 -0.3140  0.0957  0.4306
  422MOL0     C56860   0.456   7.468   0.732 -0.1963  0.3845  0.2453
  422MOL0     C56861   0.452   7.608   0.761  0.1509 -0.0272  0.4956
  422MOL0     C56862   0.333   7.676   0.793 -0.7761 -0.8011  0.4448
  422MOL0     C56863   0.346   7.819   0.842  0.8157 -0.4359  0.6552
  422MOL0     C56864   0.212   7.607   0.785  0.2014  0.3388  1.1056
  422MOL0     C56865   0.081   7.671   0.794  0.0533 -0.4668  0.8943
  422MOL0     O56866  -0.025   7.581   0.789  0.1648 -0.4663 -0.4905
  422MOL0     C56867  -0.153   7.637   0.807  0.8500 -0.5040  0.8729
  422MOL0     C56868  -0.215   7.615   0.928 -0.2018 -0.3668  0.2222
  422MOL0     C56869  -0.345   7.646   0.959 -0.2014 -1.1165 -0.2238
  422MOL0     C56870  -0.436   7.676   0.864 -0.4470 -0.7595  1.1124
  422MOL0     O56871  -0.569   7.689   0.905  0.2569  0.1916  0.2004
  422MOL0     C56872  -0.653   7.598   0.834  1.0811 -0.1304 -0.2489
  422MOL0     C56873  -0.695   7.482   0.930  0.7596 -0.0135 -0.2007
  422MOL0     C56874  -0.783   7.517   1.050  0.1827  0.0567  0.3183
  422MOL0     C56875  -0.906   7.604   1.015  0.1454 -1.0784  0.1646
  422MOL0     C56876  -1.011   7.607   1.127 -0.0736  0.9618 -0.6333
  422MOL0     C56877  -1.136   7.681   1.112  0.6399 -1.3138 -0.6149
  422MOL0     C56878  -1.119   7.827   1.044 -0.2854  0.6837  0.0750
  422MOL0     C56879  -1.253   7.891   1.028 -0.2104  0.0621  0.2779
  422MOL0    Cl56880  -1.330   7.930   1.182  0.2938 -0.2533  0.1000
  422MOL0     C56881  -0.379   7.702   0.730 -0.6990 -0.5693  0.1377
  422MOL0     C56882  -0.237   7.683   0.709  0.0977 -0.3442  0.5171
  422MOL0     O56883   0.065   7.795   0.810  0.4642  0.0201  0.2935
  422MOL0     C56884   0.213   7.463   0.765 -0.0800 -0.2333  0.7810
  422MOL0     C56885   0.332   7.399   0.732  0.0626 -0.1280 -0.3516
  422MOL0     N56886   1.083   7.271   1.057  0.3587 -0.0570  0.2537
  422MOL0     N56887   1.192   7.257   1.121  0.1167 -0.6979  0.8310
  422MOL0     C56888   1.309   7.868   1.093 -0.2215  1.1739 -0.6904
  422MOL0     C56889   1.181   7.832   1.118  0.7046  0.8251  0.5785
  422MOL0     C56890   0.787   7.625   1.167  1.0313  0.6212 -0.2364
  422MOL0     C56891   0.653   7.672   1.145 -0.4814  0.0080  0.2128
  422MOL0     C56892   0.545   7.582   1.140  0.6286  1.1100  0.7130
  422MOL0     C56893   0.566   7.443   1.148  1.1918  0.0044 -0.4068
  422MOL0     O56894   0.474   7.342   1.135  0.3702  0.3223  0.2081
  422MOL0     C56895   0.336   7.374   1.110 -0.5855  0.5917 -0.2376
  422MOL0     C56896   0.274   7.247   1.051  0.7106  0.4569  0.4512
  422MOL0     C56897   0.269   7.121   1.148 -0.1064 -0.3892  0.5325
  422MOL0     C56898   0.213   7.143   1.291 -1.0427 -0.0528 -0.2424
  422MOL0     C56899   0.330   7.174   1.383  0.2011 -0.0424 -0.5581
  422MOL0     C56900   0.413   7.229   1.448 -0.9819 -0.6568  0.7744
  422MOL0     C56901   0.690   7.392   1.178  0.4161 -0.2171  0.8746
  422MOL0     C56902   0.799   7.488   1.190 -0.7130  0.4431  0.0866
  422MOL0     H56903   1.229   7.574   1.331  4.6521 -4.1882 -2.9580
  422MOL0     H56904   1.444   7.602   1.271 -0.1619 -0.0543 -0.2476
  422MOL0     H56905   1.514   7.748   0.917 -3.2368  3.2335 -0.0390
  422MOL0     H56906   1.569   7.916   0.949 -0.6994 -0.7824  1.1545
  422MOL0     H56907   1.780   7.843   0.898  2.0787  0.1518  1.8275
  422MOL0     H56908   1.774   7.802   1.065 -1.1894 -2.4114  1.8234
  422MOL0     H56909   1.741   7.615   0.823 -1.0520 -3.9905  0.9363
  422MOL0     H56910   1.875   7.621   0.949  0.4601 -1.9236  0.2150
  422MOL0     H56911   1.708   7.542   1.110  1.5246  1.7539 -0.4684
  422MOL0     H56912   1.591   7.542   0.987 -0.2707 -3.9443 -1.1368
  422MOL0     H56913   1.743   7.370   0.860  0.9876  0.4478 -0.1018
  422MOL0     H56914   1.851   7.373   0.995  1.0761  1.3569 -3.0478
  422MOL0     H56915   1.696   7.178   1.009  2.4950  2.0692 -3.5157
  422MOL0     H56916   1.661   7.299   1.149  0.1136  3.6055 -0.7008
  422MOL0     H56917   1.464   7.375   1.019 -0.5275 -1.2826  2.5862
  422MOL0     H56918   1.514   7.274   0.889 -0.4944 -1.7481  0.3563
  422MOL0     H56919   1.453   7.165   1.173 -2.5231 -0.7897  0.0578
  422MOL0     H56920   1.447   7.072   1.031  0.0444 -0.7753  0.7616
  422MOL0     H56921   1.261   7.099   0.844  1.0882  0.5082 -0.0381
  422MOL0     H56922   1.029   7.203   0.739 -1.6576  2.3389 -0.4556
  422MOL0     H56923   0.940   7.102   0.854  3.3732 -0.7800  0.4715
  422MOL0     H56924   0.966   7.397   0.816  0.0696 -0.1593  0.8708
  422MOL0     H56925   0.873   7.340   0.950 -0.0961  0.4355  0.2914
  422MOL0     H56926   0.716   7.215   0.767 -1.3442  1.1709  1.9784
  422MOL0     H56927   0.815   7.303   0.651 -2.9957 -1.4613 -1.6691
  422MOL0     H56928   0.721   7.509   0.725 -1.5153  1.7566  1.9358
  422MOL0     H56929   0.654   7.438   0.878 -2.0417  2.7537  0.1042
  422MOL0     H56930   0.549   7.654   0.774  0.7676 -0.4928 -2.0095
  422MOL0     H56931   0.299   7.836   0.939 -1.0938 -0.3557 -0.2419
  422MOL0     H56932   0.449   7.852   0.853  0.3447  2.2425 -1.8889
  422MOL0     H56933   0.302   7.888   0.770  1.9694 -0.3410  0.0164
  422MOL0     H56934  -0.160   7.570   1.010 -0.7077  3.1545  2.7047
  422MOL0     H56935  -0.378   7.631   1.061  0.2849 -1.6657 -0.1421
  422MOL0     H56936  -0.749   7.643   0.803  1.7643  0.2307 -1.9569
  422MOL0     H56937  -0.595   7.558   0.750 -1.2115 -1.9535 -1.0615
  422MOL0     H56938  -0.753   7.407   0.875  0.2392 -0.0291  0.3626
  422MOL0     H56939  -0.594   7.454   0.963  0.2756 -3.2044 -1.0925
  422MOL0     H56940  -0.727   7.568   1.128  1.1562 -0.6286  0.0844
  422MOL0     H56941  -0.804   7.420   1.097  0.3962 -0.0895  0.1177
  422MOL0     H56942  -0.866   7.706   1.010 -0.8472 -0.4400  3.1941
  422MOL0     H56943  -0.946   7.581   0.916 -1.1131  1.7672 -0.1032
  422MOL0     H56944  -0.963   7.652   1.215 -0.1374  0.0985 -0.1426
  422MOL0     H56945  -1.048   7.505   1.144  1.2648  0.5421 -0.1232
  422MOL0     H56946  -1.203   7.622   1.049 -0.0256  2.0563 -3.3249
  422MOL0     H56947  -1.175   7.701   1.212  2.3456 -1.1371  0.0489
  422MOL0     H56948  -1.069   7.813   0.948 -3.1116 -3.2656 -1.0517
  422MOL0     H56949  -1.060   7.899   1.102 -1.7944  1.4628  0.7013
  422MOL0     H56950  -1.312   7.814   0.977  0.7967  1.3605 -3.1275
  422MOL0     H56951  -1.244   7.976   0.959 -0.3492  1.1077  1.5233
  422MOL0     H56952  -0.450   7.732   0.654 -2.0891 -0.4134  1.4386
  422MOL0     H56953  -0.200   7.707   0.609 -0.1296 -2.0457 -0.0003
  422MOL0     H56954   0.126   7.400   0.780 -2.2828  2.5229  0.4626
  422MOL0     H56955   0.329   7.292   0.711  2.0320 -0.2316 -0.3276
  422MOL0     H56956   1.340   7.946   1.025  2.0509  2.0062  1.1685
  422MOL0     H56957   1.106   7.898   1.074  2.2035  2.9235  0.9999
  422MOL0     H56958   0.629   7.775   1.121  0.4063 -0.1795 -1.6825
  422MOL0     H56959   0.447   7.625   1.122  0.3618  0.0880 -0.3800
  422MOL0     H56960   0.300   7.405   1.209  1.3073  1.1028  0.3361
  422MOL0     H56961   0.310   7.449   1.036 -3.0657 -1.6809 -1.8896
  422MOL0     H56962   0.338   7.219   0.966 -1.3081 -0.5914 -0.8174
  422MOL0     H56963   0.170   7.268   1.026  0.0978  0.1421  2.5753
  422MOL0     H56964   0.372   7.083   1.153 -0.7019 -1.9084  3.2198
  422MOL0     H56965   0.219   7.046   1.087  0.2893 -0.5608  0.4149
  422MOL0     H56966   0.162   7.055   1.333  0.2659  0.7375  3.3798
  422MOL0     H56967   0.132   7.215   1.286 -0.9880 -0.0056 -0.4845
  422MOL0     H56968   0.496   7.264   1.505  0.5665  0.7386 -2.0872
  422MOL0     H56969   0.694   7.285   1.196 -3.2814  0.0287  4.5961
  422MOL0     H56970   0.902   7.464   1.215 -0.3160  1.9859  0.0116
  423MOL0     O56971   7.685  11.342   4.387 -0.0994 -0.2591  0.2257
  423MOL0     C56972   7.620  11.270   4.307 -0.7215  0.0278  0.6340
  423MOL0     O56973   7.668  11.178   4.214  0.4150 -0.9031 -0.2039
  423MOL0     C56974   7.786  11.110   4.233  0.3284  1.1811 -0.0537
  423MOL0     C56975   7.873  11.107   4.128 -0.1019  0.2255  0.6352
  423MOL0     C56976   7.997  11.034   4.137 -0.5232 -0.1639 -0.3370
  423MOL0     C56977   8.027  10.975   4.258 -0.7226  0.7485 -0.2541
  423MOL0     O56978   8.145  10.901   4.256  0.7464 -0.8449 -0.0133
  423MOL0     C56979   8.191  10.860   4.375  0.7801 -0.0091 -0.3509
  423MOL0     C56980   8.329  10.787   4.354  1.0233 -0.6558  0.3917
  423MOL0     C56981   8.388  10.727   4.481 -0.6422 -0.0687  0.6075
  423MOL0     C56982   8.371  10.814   4.609 -1.3860  0.9085 -0.9082
  423MOL0     C56983   8.440  10.758   4.740 -0.3369  0.1755 -0.0136
  423MOL0     C56984   8.594  10.754   4.711  0.2279 -0.2186 -0.4236
  423MOL0     C56985   8.676  10.714   4.846  0.3122  0.3720 -0.5006
  423MOL0     C56986   8.666  10.824   4.957  0.2885  0.2481 -0.0260
  423MOL0     N56987   8.751  10.809   5.074 -0.4629  0.9442 -1.0064
  423MOL0     C56988   8.870  10.749   5.069 -0.4666 -0.7961 -0.3318
  423MOL0     C56989   8.892  10.720   5.204  0.1399  0.2812  0.2546
  423MOL0     C56990   9.016  10.659   5.259 -0.0490 -0.4641  0.2630
  423MOL0     C56991   9.080  10.547   5.168 -0.0108  0.2509 -0.9601
  423MOL0     C56992   8.981  10.441   5.116 -0.6691 -1.3066 -0.6521
  423MOL0     C56993   9.052  10.330   5.037  0.7040 -0.5417 -0.7006
  423MOL0     O56994   8.946  10.257   4.978  0.3781 -0.1329 -0.5763
  423MOL0     C56995   8.966  10.132   4.927 -1.0028 -0.2997 -0.0875
  423MOL0     C56996   8.871  10.078   4.842 -0.0184 -0.4725 -0.9513
  423MOL0     C56997   8.885   9.955   4.790  0.0409 -0.2019  0.0374
  423MOL0     C56998   8.785   9.905   4.694 -0.7426 -0.0047  0.2064
  423MOL0     C56999   9.000   9.878   4.809  0.4216  0.5027 -0.0987
  423MOL0     C57000   9.021   9.725   4.765  0.0473 -0.3987  0.3212
  423MOL0     O57001   8.913   9.655   4.730  1.0290 -0.8986  0.8638
  423MOL0     C57002   8.913   9.526   4.680 -0.0343 -0.9719 -0.9211
  423MOL0     C57003   8.790   9.473   4.654 -0.5841  0.6227  0.1496
  423MOL0     C57004   8.773   9.352   4.583 -0.3812  0.1305  0.1593
  423MOL0     C57005   8.887   9.276   4.544  0.2359 -0.0524 -0.0127
  423MOL0     O57006   8.863   9.156   4.492 -0.3396  0.9665 -0.2151
  423MOL0     C57007   8.932   9.108   4.378  0.6908 -0.5994 -0.3095
  423MOL0     C57008   9.016   8.985   4.404 -0.9864  0.5487 -0.2699
  423MOL0     C57009   9.106   8.966   4.288 -0.2387 -0.4966  0.9367
  423MOL0     C57010   9.178   8.828   4.280 -0.1115 -0.2576  0.0617
  423MOL0     C57011   9.100   8.701   4.243  0.5347 -0.1254 -0.1947
  423MOL0     C57012   9.080   8.704   4.087  0.1597 -0.6893  0.2991
  423MOL0     C57013   8.989   8.592   4.044 -0.2082 -0.6002 -0.4527
  423MOL0     C57014   8.984   8.579   3.888  0.2891 -0.0881  0.1565
  423MOL0    Cl57015   8.914   8.731   3.820 -0.4409 -0.1576 -0.0769
  423MOL0     C57016   9.012   9.323   4.580  0.0161  0.1273 -0.8294
  423MOL0     C57017   9.025   9.448   4.647  0.4454 -0.1810 -0.3224
  423MOL0     O57018   9.140   9.686   4.782  0.7254  0.0187  0.2224
  423MOL0     C57019   9.100   9.943   4.890 -1.2253  0.8415  0.0742
  423MOL0     C57020   9.087  10.067   4.946  0.0061  0.5025 -0.3224
  423MOL0     N57021   8.782  10.763   5.279  0.2819  0.5035  1.2960
  423MOL0     N57022   8.696  10.817   5.199  0.0891  0.0430  0.2324
  423MOL0     C57023   7.940  10.974   4.368 -0.2390 -0.1223  0.8419
  423MOL0     C57024   7.815  11.052   4.349 -1.1945  0.4281 -0.1808
  423MOL0     C57025   7.476  11.299   4.302 -0.2389  0.2768  0.5232
  423MOL0     C57026   7.388  11.190   4.268 -0.6430 -0.8805  0.4583
  423MOL0     C57027   7.247  11.206   4.250  0.2504 -0.0750 -0.1931
  423MOL0     C57028   7.183  11.329   4.282  0.4775  0.9108 -0.3496
  423MOL0     O57029   7.048  11.356   4.285  0.3651  0.1835 -0.0446
  423MOL0     C57030   6.956  11.248   4.256 -0.6488  0.0133 -0.3599
  423MOL0     C57031   6.938  11.146   4.362 -0.4771  0.5984 -0.7841
  423MOL0     C57032   6.839  11.187   4.485 -0.3096  0.0244  0.5803
  423MOL0     C57033   6.838  11.080   4.591 -0.8882  0.4744 -0.5628
  423MOL0     C57034   6.719  11.081   4.675  0.8747 -0.0529  0.2548
  423MOL0     C57035   6.612  11.092   4.731 -0.6368 -0.5809 -0.2607
  423MOL0     C57036   7.272  11.421   4.333 -0.3788 -0.8353 -0.5961
  423MOL0     C57037   7.416  11.409   4.343 -0.2856 -0.4189  0.0224
  423MOL0     H57038   7.851  11.172   4.044 -0.1636 -2.4496 -1.5515
  423MOL0     H57039   8.064  11.027   4.052 -2.3380 -1.5227 -1.7393
  423MOL0     H57040   8.199  10.939   4.450 -1.7967  0.5352 -0.5620
  423MOL0     H57041   8.119  10.793   4.424  1.8581  1.7857  4.1812
  423MOL0     H57042   8.322  10.705   4.281 -1.7719  0.6074 -0.9144
  423MOL0     H57043   8.386  10.865   4.303  2.1192 -1.9388 -0.4180
  423MOL0     H57044   8.357  10.626   4.509 -0.6755  0.2686  1.8761
  423MOL0     H57045   8.497  10.727   4.469 -0.4085 -0.5478  2.4042
  423MOL0     H57046   8.390  10.919   4.587 -4.4218  1.4669 -1.2977
  423MOL0     H57047   8.265  10.825   4.633 -1.3627  0.7502 -0.7312
  423MOL0     H57048   8.414  10.820   4.826  2.3879  1.4095  0.0040
  423MOL0     H57049   8.404  10.657   4.763 -0.9478  0.7414  1.6542
  423MOL0     H57050   8.619  10.686   4.628  2.0470  1.7234 -1.5567
  423MOL0     H57051   8.632  10.848   4.671 -1.2560 -0.5224 -2.7209
  423MOL0     H57052   8.628  10.623   4.883  1.7063 -0.6508 -1.1171
  423MOL0     H57053   8.782  10.695   4.826 -0.2010 -0.3974 -2.7525
  423MOL0     H57054   8.564  10.839   4.992  0.0847  0.3106 -0.6304
  423MOL0     H57055   8.696  10.913   4.902  0.8265  1.2417  1.7891
  423MOL0     H57056   8.934  10.711   4.991 -0.0770 -0.1895 -0.3171
  423MOL0     H57057   9.086  10.741   5.277 -0.1370  0.4997 -3.0943
  423MOL0     H57058   8.995  10.598   5.348 -0.1554 -0.6464  0.1131
  423MOL0     H57059   9.154  10.498   5.231  0.6397  1.2056 -0.9482
  423MOL0     H57060   9.119  10.606   5.084 -1.7614  3.0224  0.0332
  423MOL0     H57061   8.904  10.485   5.051 -0.9228 -4.4064 -2.6321
  423MOL0     H57062   8.931  10.398   5.204 -0.3399  1.8621  1.2432
  423MOL0     H57063   9.111  10.283   5.116 -0.8173  1.2354  1.6216
  423MOL0     H57064   9.123  10.366   4.962 -1.0554  1.3233 -1.5773
  423MOL0     H57065   8.775  10.126   4.824 -0.5325 -0.7863  0.7541
  423MOL0     H57066   8.697   9.968   4.687 -2.1966 -2.0238 -0.7938
  423MOL0     H57067   8.815   9.889   4.590 -0.8536 -2.7114  0.5123
  423MOL0     H57068   8.740   9.809   4.723 -2.8650  0.3475 -1.7012
  423MOL0     H57069   8.701   9.534   4.664 -0.1533  1.1850  0.6071
  423MOL0     H57070   8.676   9.305   4.573 -0.3938 -1.5653  5.3336
  423MOL0     H57071   8.845   9.101   4.311  0.2618 -1.4353  0.3207
  423MOL0     H57072   8.999   9.180   4.330  1.2682 -0.2546  0.9842
  423MOL0     H57073   9.064   8.987   4.503 -1.7533  0.2215  0.1198
  423MOL0     H57074   8.950   8.898   4.399  0.8436 -0.9188 -0.0203
  423MOL0     H57075   9.178   9.047   4.278  1.5779 -1.9470  1.6286
  423MOL0     H57076   9.049   8.967   4.195  0.6014  0.5625  0.4111
  423MOL0     H57077   9.266   8.830   4.216  0.2339 -2.5201  0.3711
  423MOL0     H57078   9.217   8.808   4.380  0.0226  1.3372  0.3470
  423MOL0     H57079   9.001   8.700   4.289  1.1504 -0.1498  1.1717
  423MOL0     H57080   9.163   8.615   4.269 -0.2462 -1.2549 -1.8243
  423MOL0     H57081   9.050   8.801   4.048  1.6707  0.1462  1.1128
  423MOL0     H57082   9.178   8.684   4.042 -0.3223 -3.3590  0.2858
  423MOL0     H57083   8.889   8.613   4.082  0.3633  0.3958  0.5454
  423MOL0     H57084   9.029   8.497   4.081  0.2531 -0.2191  0.0289
  423MOL0     H57085   8.928   8.490   3.858  2.1355 -0.3401 -3.0276
  423MOL0     H57086   9.085   8.562   3.849  0.4590 -0.9942  0.9425
  423MOL0     H57087   9.099   9.260   4.565  0.4538  0.6051 -0.3215
  423MOL0     H57088   9.128   9.479   4.659  0.0835  0.0288  3.2585
  423MOL0     H57089   9.201   9.904   4.894 -0.5291  2.6276  0.7170
  423MOL0     H57090   9.166  10.103   5.011 -2.5855  2.2011  2.1228
  423MOL0     H57091   7.970  10.923   4.459  0.2942  1.1564  1.4046
  423MOL0     H57092   7.746  11.067   4.431  0.4888  0.4531  1.3014
  423MOL0     H57093   7.426  11.095   4.232 -0.5771  0.4730 -3.4543
  423MOL0     H57094   7.197  11.116   4.216  0.9208  0.0687 -1.6346
  423MOL0     H57095   6.861  11.291   4.222 -2.1064 -0.6024  2.5769
  423MOL0     H57096   6.994  11.189   4.173  0.9296 -0.2401  0.4923
  423MOL0     H57097   7.035  11.116   4.403 -1.4647 -1.1358  0.4431
  423MOL0     H57098   6.904  11.050   4.323 -2.4176  0.8591  0.1144
  423MOL0     H57099   6.742  11.195   4.435 -0.1603  1.2558  0.4581
  423MOL0     H57100   6.859  11.284   4.531 -1.6628  0.4819  0.2476
  423MOL0     H57101   6.926  11.069   4.655 -0.8509 -2.2898 -0.9546
  423MOL0     H57102   6.843  10.986   4.536 -2.1854  1.5112 -2.5663
  423MOL0     H57103   6.526  11.123   4.788  0.2510  1.2100  0.1761
  423MOL0     H57104   7.231  11.515   4.367 -0.4343 -0.2468 -2.2253
  423MOL0     H57105   7.462  11.498   4.386 -1.8774  0.3289  0.2734
  424MOL0     O57106  10.578   1.730   8.808  0.2245 -0.6876  1.0227
  424MOL0     C57107  10.472   1.742   8.861  0.3915  0.0506  0.1977
  424MOL0     O57108  10.424   1.843   8.935  0.0088 -0.5185  0.1374
  424MOL0     C57109  10.509   1.955   8.964  0.0011 -0.4253  0.5577
  424MOL0     C57110  10.469   2.083   8.924 -0.7127 -0.1274  1.1582
  424MOL0     C57111  10.545   2.204   8.941  0.4178 -0.1948 -0.2790
  424MOL0     C57112  10.667   2.191   8.997  0.8373  0.5107 -0.2291
  424MOL0     O57113  10.739   2.310   9.009 -0.5307  0.1634  0.4600
  424MOL0     C57114  10.787   2.341   9.142 -0.0148  0.1587  0.6549
  424MOL0     C57115  10.785   2.489   9.165 -1.0113 -0.2381  0.4863
  424MOL0     C57116  10.647   2.551   9.172  0.1800  0.2794 -0.2160
  424MOL0     C57117  10.657   2.696   9.222  1.1275  0.6520  0.2984
  424MOL0     C57118  10.519   2.759   9.245  0.4405 -0.5321  0.4955
  424MOL0     C57119  10.520   2.907   9.232  0.2384 -0.0382  0.0001
  424MOL0     C57120  10.395   2.978   9.293  0.0192 -0.5756  0.4890
  424MOL0     C57121  10.408   3.128   9.265 -0.1514 -0.4462  0.4691
  424MOL0     N57122  10.301   3.199   9.334  0.1888  0.1777  0.6667
  424MOL0     C57123  10.169   3.211   9.286  0.4306 -0.4738  0.5378
  424MOL0     C57124  10.106   3.272   9.385  0.1783 -1.0127 -0.4347
  424MOL0     C57125   9.965   3.316   9.393 -0.1798 -0.6372  0.1966
  424MOL0     C57126   9.877   3.203   9.355  0.7402  0.2925  0.5950
  424MOL0     C57127   9.840   3.100   9.474 -0.3850 -0.0692  0.7441
  424MOL0     C57128   9.706   3.025   9.451 -0.7658 -0.2983  0.2813
  424MOL0     O57129   9.686   2.979   9.314 -0.7194 -0.8370 -0.0592
  424MOL0     C57130   9.565   3.000   9.254  0.7121  0.3779 -0.4726
  424MOL0     C57131   9.574   3.037   9.124 -0.4381  0.4115 -0.4054
  424MOL0     C57132   9.464   3.065   9.040 -0.4043  1.2517  0.5345
  424MOL0     C57133   9.507   3.094   8.892  1.3041  0.1750  0.4072
  424MOL0     C57134   9.331   3.045   9.097 -0.5026 -0.2368 -0.2284
  424MOL0     C57135   9.202   3.074   9.034 -0.0689 -0.1160 -0.8713
  424MOL0     O57136   9.091   3.054   9.104  0.5125 -0.1156  0.9056
  424MOL0     C57137   8.967   3.080   9.035 -0.8722 -0.5261 -0.9736
  424MOL0     C57138   8.868   3.138   9.118 -0.3393 -0.5791 -0.1933
  424MOL0     C57139   8.744   3.185   9.066 -0.3713 -0.6099  1.1456
  424MOL0     C57140   8.728   3.164   8.931  0.9951  0.6350  0.7523
  424MOL0     O57141   8.605   3.190   8.870  0.0231 -0.2750  0.4771
  424MOL0     C57142   8.496   3.219   8.953  0.0602 -0.7850 -0.5708
  424MOL0     C57143   8.371   3.224   8.870 -0.7737 -0.0238  0.2566
  424MOL0     C57144   8.319   3.083   8.839  0.0379  0.0424  0.2431
  424MOL0     C57145   8.243   3.023   8.960  0.3599 -0.1884 -0.1047
  424MOL0     C57146   8.102   2.988   8.910  0.3012 -0.8444  0.6464
  424MOL0     C57147   8.017   2.891   9.004 -0.2061  0.3007 -0.3645
  424MOL0     C57148   7.974   2.960   9.137 -0.5011 -0.0882 -0.3374
  424MOL0     C57149   7.843   2.887   9.181  0.5810 -0.2896  0.4996
  424MOL0    Cl57150   7.893   2.730   9.244  0.1757 -0.0476  0.1310
  424MOL0     C57151   8.810   3.089   8.856 -0.1982 -0.1804 -0.1108
  424MOL0     C57152   8.929   3.042   8.905  0.0139 -0.5082 -0.3096
  424MOL0     O57153   9.213   3.098   8.911  0.4543  0.5556 -0.2356
  424MOL0     C57154   9.332   2.995   9.233 -0.0747 -0.6473 -0.1646
  424MOL0     C57155   9.444   2.971   9.307 -0.6388  0.1068 -0.4042
  424MOL0     N57156  10.198   3.281   9.492 -0.6376 -0.1277  0.4527
  424MOL0     N57157  10.313   3.228   9.467  0.0867 -0.6275 -0.8223
  424MOL0     C57158  10.714   2.065   9.038 -0.3355  0.4202 -0.5363
  424MOL0     C57159  10.638   1.947   9.021  0.1239  0.2181 -0.2217
  424MOL0     C57160  10.363   1.643   8.820 -1.2335 -0.2401 -0.2319
  424MOL0     C57161  10.386   1.532   8.726  0.2349 -0.6034 -0.6684
  424MOL0     C57162  10.285   1.446   8.697  0.4254 -0.7514  0.1015
  424MOL0     C57163  10.151   1.474   8.735  0.4886 -0.3295 -1.1181
  424MOL0     O57164  10.057   1.383   8.685  0.2729  0.5282  0.3499
  424MOL0     C57165   9.926   1.363   8.743  0.0746 -0.1255 -0.2222
  424MOL0     C57166   9.840   1.286   8.643  0.0863 -0.3491 -0.7258
  424MOL0     C57167   9.794   1.376   8.526 -0.7282 -0.7691  0.4320
  424MOL0     C57168   9.680   1.477   8.541  0.6357 -0.1931 -0.4045
  424MOL0     C57169   9.566   1.426   8.619  0.3425  0.1965 -0.1336
  424MOL0     C57170   9.463   1.402   8.670  0.8001  0.1711 -0.5305
  424MOL0     C57171  10.128   1.582   8.820  0.6570  0.1850 -0.2564
  424MOL0     C57172  10.238   1.666   8.871  0.1141 -0.1198  0.4841
  424MOL0     H57173  10.377   2.081   8.867  1.7711 -0.3749 -3.2923
  424MOL0     H57174  10.494   2.299   8.922  2.3964  0.7794 -0.9903
  424MOL0     H57175  10.735   2.288   9.222 -0.0772 -0.5499  0.1584
  424MOL0     H57176  10.890   2.306   9.152  0.6202  1.5691 -0.5969
  424MOL0     H57177  10.846   2.516   9.252  0.6568 -1.8227 -0.1316
  424MOL0     H57178  10.835   2.530   9.077 -0.7460 -0.7625  0.3859
  424MOL0     H57179  10.580   2.545   9.085  1.5415  2.4005 -1.5005
  424MOL0     H57180  10.595   2.500   9.254  1.8308  1.0863  1.4098
  424MOL0     H57181  10.717   2.700   9.314 -0.0796  2.2429  1.0760
  424MOL0     H57182  10.710   2.752   9.144 -0.9751 -1.0700 -2.5650
  424MOL0     H57183  10.441   2.703   9.193  1.2233 -0.9010 -0.2928
  424MOL0     H57184  10.490   2.739   9.349  0.8735 -0.0676  0.7083
  424MOL0     H57185  10.612   2.946   9.275  0.9029 -1.0870 -0.4219
  424MOL0     H57186  10.530   2.939   9.128 -1.1171  1.2209  0.2242
  424MOL0     H57187  10.313   2.941   9.232  1.2844 -1.1031 -0.9493
  424MOL0     H57188  10.396   2.959   9.401  2.6016  2.3980  1.1423
  424MOL0     H57189  10.422   3.162   9.162 -0.4673  4.2263  1.7207
  424MOL0     H57190  10.497   3.171   9.313 -0.2997 -1.2840  1.5193
  424MOL0     H57191  10.119   3.193   9.191  0.3255  2.9402 -0.1588
  424MOL0     H57192   9.939   3.369   9.485  1.0397  0.8288 -0.2537
  424MOL0     H57193   9.962   3.402   9.326  3.1811  0.4542  1.2084
  424MOL0     H57194   9.908   3.137   9.274 -1.5729 -1.8146  1.2887
  424MOL0     H57195   9.787   3.255   9.319  1.2635  2.2729  1.9364
  424MOL0     H57196   9.850   3.151   9.571  1.4048 -0.2668  0.7060
  424MOL0     H57197   9.922   3.028   9.478  1.1405  1.1620 -3.3756
  424MOL0     H57198   9.618   3.086   9.476 -0.4232 -0.0998  1.0619
  424MOL0     H57199   9.703   2.938   9.518 -2.2256  2.2268  3.8063
  424MOL0     H57200   9.675   3.032   9.083  2.0688  1.1137  4.7657
  424MOL0     H57201   9.486   3.001   8.838 -1.9903 -0.3781  2.3481
  424MOL0     H57202   9.437   3.163   8.844 -0.7580 -1.2664  1.1958
  424MOL0     H57203   9.610   3.129   8.887  1.7021 -1.1484 -1.2959
  424MOL0     H57204   8.882   3.162   9.222  1.7660 -1.4933 -0.2159
  424MOL0     H57205   8.682   3.247   9.130 -0.4490  0.6915 -0.1467
  424MOL0     H57206   8.486   3.155   9.041  1.2116  2.1774  1.9248
  424MOL0     H57207   8.519   3.317   8.996 -1.4354 -1.4939  2.0357
  424MOL0     H57208   8.296   3.275   8.931 -0.3852  1.6927 -0.6422
  424MOL0     H57209   8.388   3.280   8.778 -0.2173 -2.0617 -0.9363
  424MOL0     H57210   8.385   3.011   8.790 -2.1937 -0.1588 -2.7825
  424MOL0     H57211   8.247   3.100   8.758  1.2606 -0.2536 -0.9300
  424MOL0     H57212   8.289   2.929   8.990 -0.7044 -0.4439  0.7786
  424MOL0     H57213   8.230   3.093   9.043 -1.3341 -0.5925  0.0178
  424MOL0     H57214   8.118   2.945   8.811 -1.9517 -1.3682  0.4704
  424MOL0     H57215   8.036   3.073   8.888 -0.9136 -2.3338 -1.9210
  424MOL0     H57216   7.930   2.853   8.949 -0.5514 -0.8424  0.9019
  424MOL0     H57217   8.075   2.800   9.022  0.9507  1.1861  0.5420
  424MOL0     H57218   7.963   3.067   9.118  0.3065 -0.1305 -1.0954
  424MOL0     H57219   8.048   2.956   9.217  0.3845 -3.8456 -1.1597
  424MOL0     H57220   7.764   2.891   9.105  0.2330 -1.9811  0.7443
  424MOL0     H57221   7.810   2.947   9.266  0.1178  1.1151 -0.6263
  424MOL0     H57222   8.781   3.066   8.754  1.0091  0.0457 -0.5207
  424MOL0     H57223   8.993   2.995   8.832  0.6405  0.7535 -0.5848
  424MOL0     H57224   9.239   2.998   9.288 -0.0576 -0.5870 -0.1370
  424MOL0     H57225   9.440   2.935   9.409  4.6750  1.5161  0.6087
  424MOL0     H57226  10.813   2.057   9.082  1.0746  0.9617 -3.3576
  424MOL0     H57227  10.681   1.849   9.039  2.0040  1.4953  2.9970
  424MOL0     H57228  10.486   1.508   8.690  0.6095  0.8745 -0.6687
  424MOL0     H57229  10.319   1.361   8.639 -2.1813 -2.8676  1.4077
  424MOL0     H57230   9.947   1.309   8.835 -1.4464 -0.1392  0.1541
  424MOL0     H57231   9.869   1.455   8.764  0.4586 -0.1912  1.1751
  424MOL0     H57232   9.750   1.247   8.692  1.5179 -2.8741  0.0863
  424MOL0     H57233   9.890   1.198   8.601 -1.6124 -1.8140  0.1997
  424MOL0     H57234   9.763   1.306   8.448 -2.4649  0.2579  0.1558
  424MOL0     H57235   9.883   1.420   8.479 -1.6488  0.7827  0.0851
  424MOL0     H57236   9.635   1.506   8.446 -0.8465 -4.3574 -1.1816
  424MOL0     H57237   9.731   1.566   8.579 -0.9535  1.3109 -1.6066
  424MOL0     H57238   9.377   1.372   8.726  0.1000  2.0471 -0.5237
  424MOL0     H57239  10.024   1.596   8.844  0.2284  0.1032 -1.9132
  424MOL0     H57240  10.223   1.738   8.952 -1.6746 -1.7908  1.7401
  425MOL0     O57241   5.489  11.082   2.611 -0.1003 -0.3347 -0.3735
  425MOL0     C57242   5.484  11.153   2.509  0.7097 -0.0779  0.0305
  425MOL0     O57243   5.376  11.167   2.433 -0.1160 -1.4028  0.0862
  425MOL0     C57244   5.244  11.116   2.458 -0.6292 -0.3880 -0.1147
  425MOL0     C57245   5.223  10.991   2.506 -0.4030  0.3713 -0.3750
  425MOL0     C57246   5.099  10.935   2.488 -0.1432  0.2946 -0.0907
  425MOL0     C57247   4.992  11.006   2.447 -0.3910 -0.0967 -0.6638
  425MOL0     O57248   4.867  10.947   2.458  0.1390  1.0257 -0.3520
  425MOL0     C57249   4.760  11.039   2.437 -0.4667 -0.2945  0.6200
  425MOL0     C57250   4.638  10.955   2.417  0.2413  1.2966  0.5134
  425MOL0     C57251   4.626  10.825   2.505 -0.3322  0.0890  0.1445
  425MOL0     C57252   4.492  10.756   2.493 -0.4315 -0.3304 -0.9617
  425MOL0     C57253   4.494  10.618   2.567  0.0501  0.0264 -0.1440
  425MOL0     C57254   4.560  10.624   2.705  0.0429  0.0565 -0.4520
  425MOL0     C57255   4.569  10.491   2.780  0.2224  0.7383 -0.1370
  425MOL0     C57256   4.437  10.428   2.816  0.0958 -0.3691 -0.7826
  425MOL0     N57257   4.439  10.304   2.886  0.1412  0.3722  0.2514
  425MOL0     C57258   4.438  10.175   2.835  0.2801  0.0954 -0.6680
  425MOL0     C57259   4.382  10.094   2.934  0.3922 -0.0447 -0.6220
  425MOL0     C57260   4.338   9.962   2.904  0.6634  0.8309 -0.5373
  425MOL0     C57261   4.224   9.969   2.812  0.3897 -0.3884  0.6487
  425MOL0     C57262   4.140   9.834   2.809 -0.0153  0.7536 -1.1424
  425MOL0     C57263   4.228   9.711   2.772 -0.2629  0.4760 -0.0908
  425MOL0     O57264   4.299   9.735   2.650  0.2128  0.3469  0.5012
  425MOL0     C57265   4.433   9.692   2.643  0.3579  1.1106  0.5968
  425MOL0     C57266   4.481   9.572   2.687 -0.6855  0.3419 -0.9904
  425MOL0     C57267   4.625   9.553   2.689 -0.0312  1.0401  1.1056
  425MOL0     C57268   4.669   9.417   2.737 -0.3551 -0.6042  1.2042
  425MOL0     C57269   4.708   9.649   2.627  0.3850  0.2144  0.5805
  425MOL0     C57270   4.857   9.642   2.625 -0.1204 -0.1943 -0.5262
  425MOL0     O57271   4.925   9.544   2.688  0.1644  0.0737  0.0237
  425MOL0     C57272   5.055   9.562   2.738 -0.2916 -0.8466  0.1202
  425MOL0     C57273   5.114   9.456   2.800  1.0022  0.8461  0.0934
  425MOL0     C57274   5.241   9.450   2.850  0.4903 -0.0107 -0.6779
  425MOL0     C57275   5.320   9.565   2.853  0.6814  0.4614  0.1098
  425MOL0     O57276   5.444   9.562   2.912  0.3165 -0.1758  0.0877
  425MOL0     C57277   5.554   9.635   2.857 -0.3244  0.7647 -1.1381
  425MOL0     C57278   5.580   9.750   2.951 -0.1932 -0.0457 -0.4910
  425MOL0     C57279   5.605   9.879   2.888  0.2321  0.6637  0.2244
  425MOL0     C57280   5.710   9.885   2.774 -0.1138 -0.6890  0.0956
  425MOL0     C57281   5.771  10.028   2.755  0.4794 -0.4469 -0.5612
  425MOL0     C57282   5.851  10.042   2.619  0.7721 -0.3732 -0.7134
  425MOL0     C57283   5.950  10.159   2.620  0.3615  0.3153 -0.2669
  425MOL0     C57284   6.037  10.151   2.493 -0.2973  0.1727 -1.0188
  425MOL0    Cl57285   6.147  10.024   2.515 -0.2753  0.5297 -0.4233
  425MOL0     C57286   5.266   9.676   2.796  0.5473  0.2923  0.1964
  425MOL0     C57287   5.133   9.678   2.733 -0.5520  0.1716  0.5265
  425MOL0     O57288   4.911   9.732   2.555 -0.0843 -0.3927 -0.0275
  425MOL0     C57289   4.647   9.757   2.559  0.3406  0.7064 -0.1654
  425MOL0     C57290   4.509   9.777   2.568 -0.7404  0.2944  0.2806
  425MOL0     N57291   4.370  10.173   3.048  0.0811 -0.5290  0.0110
  425MOL0     N57292   4.404  10.296   3.011  0.5195 -0.8073 -0.2065
  425MOL0     C57293   5.010  11.137   2.419 -0.8784 -0.1804  0.8091
  425MOL0     C57294   5.140  11.193   2.409 -1.1275  0.4408 -0.4350
  425MOL0     C57295   5.604  11.225   2.463  0.1183 -0.1828 -0.3896
  425MOL0     C57296   5.596  11.342   2.386 -0.5570  0.0829 -0.5098
  425MOL0     C57297   5.711  11.415   2.345  0.4178  0.3260  0.1219
  425MOL0     C57298   5.844  11.372   2.379 -0.8468  0.0428  0.4676
  425MOL0     O57299   5.965  11.424   2.345 -0.1826  0.0310 -0.1113
  425MOL0     C57300   5.973  11.562   2.343  0.0145 -0.0189  0.2187
  425MOL0     C57301   6.119  11.600   2.382  0.6479 -0.1684 -0.5973
  425MOL0     C57302   6.220  11.567   2.266  0.0607  0.0094 -0.3936
  425MOL0     C57303   6.249  11.418   2.215 -0.7052  0.6963 -0.8899
  425MOL0     C57304   6.373  11.422   2.139  0.3724  0.1632  0.4805
  425MOL0     C57305   6.472  11.412   2.074 -1.0209  0.1640 -0.1827
  425MOL0     C57306   5.854  11.259   2.466  0.2720  0.2042  0.0601
  425MOL0     C57307   5.735  11.192   2.511  0.1052  0.2554 -0.0254
  425MOL0     H57308   5.297  10.917   2.534 -0.6560 -0.0040 -0.7002
  425MOL0     H57309   5.084  10.829   2.505 -2.4927  0.7854  1.2510
  425MOL0     H57310   4.740  11.103   2.523  0.9598 -0.2020  0.9158
  425MOL0     H57311   4.773  11.105   2.351  2.0346  0.0745  1.1924
  425MOL0     H57312   4.550  11.016   2.433 -2.7923 -3.1354  3.0105
  425MOL0     H57313   4.647  10.916   2.315 -0.3302  2.1276  0.1450
  425MOL0     H57314   4.692  10.750   2.460  0.0936  1.1864 -1.1230
  425MOL0     H57315   4.671  10.845   2.603  2.0171 -1.4929 -0.5214
  425MOL0     H57316   4.420  10.822   2.543  0.5584  0.2898 -0.3140
  425MOL0     H57317   4.475  10.752   2.385 -0.2800  0.5043 -1.0219
  425MOL0     H57318   4.392  10.579   2.570 -0.0072  0.2214  0.4725
  425MOL0     H57319   4.557  10.549   2.511  1.7995  1.1495  0.3704
  425MOL0     H57320   4.661  10.664   2.710 -0.2469  0.7016  0.9643
  425MOL0     H57321   4.494  10.686   2.766  1.4637 -0.1992  1.4302
  425MOL0     H57322   4.626  10.422   2.717  0.2857  1.3813 -0.8021
  425MOL0     H57323   4.624  10.518   2.870 -0.1107 -1.0325  0.6570
  425MOL0     H57324   4.368  10.417   2.732  0.6065  1.3095 -1.4462
  425MOL0     H57325   4.384  10.503   2.875  1.8735  0.2763  0.0469
  425MOL0     H57326   4.449  10.141   2.732  0.0413  0.3491 -0.7775
  425MOL0     H57327   4.421   9.904   2.864 -0.9013  0.3762 -3.4703
  425MOL0     H57328   4.309   9.912   2.997  1.1569  0.8006 -0.4007
  425MOL0     H57329   4.253   9.992   2.709  1.6887 -2.4946  0.4851
  425MOL0     H57330   4.173  10.057   2.852  2.8391  0.7357  1.5617
  425MOL0     H57331   4.048   9.837   2.751 -0.3591 -1.1213 -0.7609
  425MOL0     H57332   4.111   9.803   2.910  2.9850 -2.7708 -1.1373
  425MOL0     H57333   4.164   9.627   2.745 -1.2281  1.5254 -1.1265
  425MOL0     H57334   4.298   9.696   2.856 -0.0083  1.5796 -0.0878
  425MOL0     H57335   4.421   9.494   2.734 -2.1326  2.6031  1.1974
  425MOL0     H57336   4.708   9.359   2.653  1.2284  1.8167  0.1778
  425MOL0     H57337   4.756   9.426   2.802  1.7316  0.5851 -1.5653
  425MOL0     H57338   4.583   9.365   2.781  0.2268 -0.5624  2.4308
  425MOL0     H57339   5.038   9.378   2.792  0.9760  0.8253  0.5412
  425MOL0     H57340   5.279   9.356   2.888  0.5472 -0.5184 -1.9329
  425MOL0     H57341   5.645   9.574   2.849 -1.5027 -0.8595 -3.0364
  425MOL0     H57342   5.543   9.674   2.755  0.5157  1.8984 -0.8270
  425MOL0     H57343   5.491   9.768   3.011  1.9787 -0.4343  3.1477
  425MOL0     H57344   5.650   9.715   3.028 -1.0923  1.0726  0.8839
  425MOL0     H57345   5.653   9.947   2.959 -0.0410  0.3445  0.7178
  425MOL0     H57346   5.514   9.935   2.865  0.7953  1.6279  0.2649
  425MOL0     H57347   5.801   9.826   2.791  2.8797  2.5581 -3.0633
  425MOL0     H57348   5.668   9.850   2.679 -3.3308  3.0018 -0.0460
  425MOL0     H57349   5.844  10.062   2.830 -0.4965  1.1183 -0.2769
  425MOL0     H57350   5.695  10.105   2.742  1.6433  1.7386  3.7330
  425MOL0     H57351   5.901   9.947   2.600  1.6323  0.0477 -0.5845
  425MOL0     H57352   5.784  10.053   2.533  1.6891 -2.1080 -1.7114
  425MOL0     H57353   6.010  10.158   2.711  0.7325  0.6972 -0.5020
  425MOL0     H57354   5.901  10.256   2.615  0.2120  0.1919 -1.5536
  425MOL0     H57355   6.098  10.241   2.481  1.5064 -1.0137 -1.0369
  425MOL0     H57356   5.996  10.137   2.393  0.0780 -0.0621 -1.1386
  425MOL0     H57357   5.322   9.769   2.806 -0.7165  1.0677  0.2271
  425MOL0     H57358   5.099   9.774   2.696  1.4021  0.1620 -1.5097
  425MOL0     H57359   4.703   9.836   2.509  1.7263 -0.0215  0.1905
  425MOL0     H57360   4.457   9.860   2.521 -2.2944 -0.0071  1.3950
  425MOL0     H57361   4.933  11.199   2.373 -0.3567 -0.6488 -0.7595
  425MOL0     H57362   5.162  11.288   2.361 -0.2629  1.9734  2.7718
  425MOL0     H57363   5.497  11.378   2.363  0.2744  1.9891 -1.3294
  425MOL0     H57364   5.680  11.503   2.289 -0.8189 -0.5028 -0.5488
  425MOL0     H57365   5.951  11.595   2.241 -3.0319 -0.5022  0.6253
  425MOL0     H57366   5.893  11.597   2.408 -2.8892 -1.8180 -2.1547
  425MOL0     H57367   6.145  11.548   2.474 -0.4440  0.5416  0.1326
  425MOL0     H57368   6.116  11.707   2.402  0.4000 -0.4179  0.7473
  425MOL0     H57369   6.314  11.612   2.299 -0.8136  0.5977  1.4301
  425MOL0     H57370   6.190  11.618   2.175 -0.5658 -1.0137 -0.7746
  425MOL0     H57371   6.168  11.365   2.164 -0.9344 -0.3355  0.4961
  425MOL0     H57372   6.280  11.357   2.301  1.8233 -0.3372 -2.4261
  425MOL0     H57373   6.565  11.401   2.023 -1.1947  2.6162 -1.2175
  425MOL0     H57374   5.951  11.225   2.500  0.9324 -0.3405 -2.2379
  425MOL0     H57375   5.756  11.107   2.575 -1.1016  1.3039  1.8591
  426MOL0     O57376   4.380   3.575   9.400 -0.2084 -0.4000  0.5930
  426MOL0     C57377   4.420   3.660   9.476  0.9282 -0.3037 -0.8158
  426MOL0     O57378   4.348   3.776   9.499 -0.0527 -0.5534 -0.4299
  426MOL0     C57379   4.216   3.782   9.452 -0.8848  0.6796 -0.6824
  426MOL0     C57380   4.195   3.874   9.352 -0.3641  0.2649 -0.8643
  426MOL0     C57381   4.073   3.865   9.283 -0.3266  0.4842 -0.2353
  426MOL0     C57382   3.971   3.772   9.318 -0.1458  0.0378  0.1522
  426MOL0     O57383   3.850   3.762   9.252 -0.5604 -0.4724  0.0526
  426MOL0     C57384   3.836   3.823   9.120 -0.2435  0.5728 -0.3745
  426MOL0     C57385   3.730   3.736   9.044 -0.4996  0.2661 -0.4211
  426MOL0     C57386   3.778   3.597   9.004  0.2803 -0.8573 -0.3825
  426MOL0     C57387   3.879   3.592   8.895 -0.0323 -1.0589 -0.3707
  426MOL0     C57388   3.930   3.455   8.865  0.2502  0.9098 -0.1832
  426MOL0     C57389   3.824   3.369   8.787  0.8098 -0.2856 -0.2080
  426MOL0     C57390   3.877   3.230   8.742  0.5405 -0.3388 -0.1413
  426MOL0     C57391   3.770   3.147   8.670 -0.3601  0.0780 -0.4176
  426MOL0     N57392   3.806   3.012   8.628 -0.0505 -0.8689 -0.8344
  426MOL0     C57393   3.929   2.976   8.575 -0.2907 -0.3274  0.2545
  426MOL0     C57394   3.910   2.842   8.546  0.2470 -0.3077  0.8947
  426MOL0     C57395   4.018   2.761   8.476  0.4900 -0.0897 -0.3053
  426MOL0     C57396   4.141   2.797   8.547  0.3780 -0.5019 -0.0491
  426MOL0     C57397   4.255   2.734   8.468 -0.0928  0.0487  0.2608
  426MOL0     C57398   4.383   2.784   8.526  0.5019  0.3939 -0.7262
  426MOL0     O57399   4.503   2.741   8.460 -0.0984 -0.1373 -0.5080
  426MOL0     C57400   4.622   2.781   8.511  0.3559  0.3626 -0.2059
  426MOL0     C57401   4.731   2.729   8.449  0.0714 -0.2440 -0.1455
  426MOL0     C57402   4.865   2.750   8.481  0.2550 -0.5937 -0.7532
  426MOL0     C57403   4.979   2.687   8.387 -0.5165  0.0655  0.2411
  426MOL0     C57404   4.895   2.832   8.594 -0.1583 -0.1153 -0.3753
  426MOL0     C57405   5.031   2.850   8.659 -1.5878  0.6238 -0.5147
  426MOL0     O57406   5.034   2.923   8.770 -0.3954 -0.1533  0.3010
  426MOL0     C57407   5.160   2.938   8.832 -0.4230  0.1223  0.1574
  426MOL0     C57408   5.254   3.038   8.818 -0.1710 -1.0388  0.0311
  426MOL0     C57409   5.375   3.038   8.879 -0.9691  1.0170 -0.4651
  426MOL0     C57410   5.410   2.922   8.957 -0.1141  0.2211 -0.3707
  426MOL0     O57411   5.534   2.888   9.007  0.1000 -0.6473 -0.3803
  426MOL0     C57412   5.641   2.990   9.004 -0.3563  1.0250 -0.8202
  426MOL0     C57413   5.761   2.927   9.065 -0.6313  0.2498 -0.1144
  426MOL0     C57414   5.862   3.037   9.111  0.4707 -0.0765  0.2170
  426MOL0     C57415   5.928   3.086   8.982 -0.2320  0.2033 -0.1694
  426MOL0     C57416   6.041   3.183   9.022 -0.2425 -0.1925 -0.2932
  426MOL0     C57417   6.145   3.239   8.917 -0.6231  0.6428 -0.2663
  426MOL0     C57418   6.270   3.302   8.983 -0.1384  1.1891 -0.2757
  426MOL0     C57419   6.358   3.381   8.891  0.2507  0.0642  0.6442
  426MOL0    Cl57420   6.532   3.376   8.954  0.0697  0.3327  0.0497
  426MOL0     C57421   5.304   2.830   8.987 -0.2687 -0.3126  0.8274
  426MOL0     C57422   5.186   2.840   8.924  0.8478  0.4576  0.7431
  426MOL0     O57423   5.120   2.781   8.625  0.4887 -0.5468  0.2393
  426MOL0     C57424   4.782   2.892   8.650  0.0891 -0.0619  0.0358
  426MOL0     C57425   4.644   2.874   8.610  0.1093  0.6275  0.4706
  426MOL0     N57426   3.786   2.804   8.585  0.5016  0.2359 -0.5485
  426MOL0     N57427   3.722   2.906   8.632 -0.1856 -0.4398 -0.2446
  426MOL0     C57428   4.000   3.677   9.418 -1.1270  0.3862  0.1083
  426MOL0     C57429   4.122   3.691   9.489  0.2862  0.5117 -0.7706
  426MOL0     C57430   4.548   3.646   9.536 -0.2155 -0.2559  0.3953
  426MOL0     C57431   4.582   3.707   9.663  0.2582 -0.5467  0.7019
  426MOL0     C57432   4.709   3.693   9.718  0.2614 -0.9166 -0.1806
  426MOL0     C57433   4.805   3.622   9.647  0.7775  1.3086  0.7099
  426MOL0     O57434   4.938   3.606   9.692  0.4998 -1.1596  0.3089
  426MOL0     C57435   4.964   3.664   9.818 -0.0121 -0.6056  0.0034
  426MOL0     C57436   5.110   3.625   9.836  0.0920 -0.3584 -0.3665
  426MOL0     C57437   5.150   3.670   9.979  0.0467  0.9474  0.4203
  426MOL0     C57438   5.280   3.609  10.025 -0.0801 -0.1287  0.2892
  426MOL0     C57439   5.325   3.674  10.150  1.4807  0.3121 -0.1334
  426MOL0     C57440   5.363   3.744  10.241  0.1053 -0.2641 -0.3450
  426MOL0     C57441   4.772   3.561   9.526  0.0116 -0.6304 -0.6529
  426MOL0     C57442   4.643   3.572   9.472  0.4312 -0.0555  0.0273
  426MOL0     H57443   4.287   3.927   9.332  0.2400 -0.2585  0.4445
  426MOL0     H57444   4.058   3.935   9.201  0.0038  0.8208 -0.0189
  426MOL0     H57445   3.805   3.928   9.131  0.7075  0.9971 -1.5846
  426MOL0     H57446   3.936   3.826   9.076  0.3563 -2.9743  0.3988
  426MOL0     H57447   3.647   3.730   9.115  0.7371  2.1320  1.2883
  426MOL0     H57448   3.704   3.787   8.951 -1.1423  0.9348  0.1114
  426MOL0     H57449   3.811   3.537   9.089  2.3417 -0.1395 -0.6027
  426MOL0     H57450   3.688   3.555   8.959 -0.4329  0.7588 -0.5307
  426MOL0     H57451   3.842   3.638   8.803 -0.0904 -2.1413 -0.9095
  426MOL0     H57452   3.966   3.649   8.926 -0.3745 -0.3855 -0.6391
  426MOL0     H57453   4.022   3.479   8.810 -1.2971  1.6863 -2.5902
  426MOL0     H57454   3.964   3.406   8.957 -0.1520  0.2646 -0.3728
  426MOL0     H57455   3.729   3.350   8.837 -0.2187  1.4735 -1.3971
  426MOL0     H57456   3.786   3.424   8.700 -2.4841  2.5981  2.7103
  426MOL0     H57457   3.964   3.238   8.677  1.4397  6.6317  1.1557
  426MOL0     H57458   3.914   3.178   8.832 -1.4727  0.1122  1.0109
  426MOL0     H57459   3.752   3.191   8.572  1.1261  0.4315 -0.5439
  426MOL0     H57460   3.677   3.146   8.728  1.1594 -2.3261  2.2140
  426MOL0     H57461   4.010   3.046   8.562  0.0318 -0.2643  2.2250
  426MOL0     H57462   3.999   2.653   8.473  0.0456 -0.0047 -3.0507
  426MOL0     H57463   4.029   2.805   8.376  3.7878  1.9712  0.7936
  426MOL0     H57464   4.138   2.762   8.651  1.2408 -0.3217  0.0458
  426MOL0     H57465   4.154   2.904   8.563  0.7730 -0.6807  0.9354
  426MOL0     H57466   4.257   2.760   8.362 -1.2579  0.5878  0.3613
  426MOL0     H57467   4.248   2.625   8.473 -0.3510  0.1175  1.7948
  426MOL0     H57468   4.390   2.753   8.631  1.7038  2.7056 -0.0693
  426MOL0     H57469   4.376   2.893   8.528 -4.6708  0.4209  4.5040
  426MOL0     H57470   4.692   2.667   8.369 -0.4340  2.1178 -1.8173
  426MOL0     H57471   5.065   2.749   8.360  0.2813 -0.9699  0.3460
  426MOL0     H57472   5.020   2.607   8.449  0.9564  0.4197 -0.2238
  426MOL0     H57473   4.939   2.641   8.296  1.0672  0.8386 -0.9129
  426MOL0     H57474   5.220   3.122   8.759  2.6145  0.7090  0.7346
  426MOL0     H57475   5.448   3.118   8.867 -2.0982  1.9708 -1.2174
  426MOL0     H57476   5.667   3.026   8.904  2.2939  0.1324 -0.5398
  426MOL0     H57477   5.614   3.077   9.064  1.1544  1.2969 -0.4922
  426MOL0     H57478   5.752   2.862   9.152  2.4718  0.0541  0.1994
  426MOL0     H57479   5.808   2.861   8.991  2.0395  0.5400  1.1945
  426MOL0     H57480   5.931   3.000   9.187 -0.2050 -2.2219 -0.1356
  426MOL0     H57481   5.807   3.115   9.163 -2.4248 -0.4845 -1.9823
  426MOL0     H57482   5.973   3.000   8.931 -1.7068 -0.1384 -0.9612
  426MOL0     H57483   5.850   3.136   8.924  0.2809  1.7741  0.4590
  426MOL0     H57484   6.095   3.123   9.096 -0.2315  0.5918  0.3417
  426MOL0     H57485   5.988   3.267   9.068 -0.4049 -0.7189  0.4953
  426MOL0     H57486   6.182   3.150   8.864 -0.1693  0.8700 -0.3335
  426MOL0     H57487   6.106   3.316   8.851  0.7102  0.5694 -1.1889
  426MOL0     H57488   6.336   3.228   9.030 -0.1632 -0.1592 -2.2850
  426MOL0     H57489   6.225   3.358   9.066  0.1145  0.2427  0.5189
  426MOL0     H57490   6.312   3.479   8.883  2.7099  1.2210 -0.4481
  426MOL0     H57491   6.373   3.348   8.787  1.4654 -1.3038  1.2087
  426MOL0     H57492   5.325   2.743   9.048 -1.4636 -0.6812  0.7415
  426MOL0     H57493   5.102   2.774   8.942  1.9873 -1.2031  0.2257
  426MOL0     H57494   4.800   2.949   8.741 -0.6636 -1.1112  0.8700
  426MOL0     H57495   4.566   2.915   8.674 -1.2428 -3.0879  1.4682
  426MOL0     H57496   3.927   3.604   9.452 -1.2145 -0.4821 -1.8382
  426MOL0     H57497   4.150   3.623   9.569 -0.4865 -1.7163 -2.2789
  426MOL0     H57498   4.496   3.745   9.717 -2.4423 -0.1779 -3.3927
  426MOL0     H57499   4.728   3.737   9.815 -2.3811  0.3416 -0.1481
  426MOL0     H57500   4.953   3.773   9.816  4.3014  0.0071 -0.1977
  426MOL0     H57501   4.893   3.634   9.896  1.5437  1.3734  2.3449
  426MOL0     H57502   5.184   3.673   9.771 -0.6549  1.3200 -0.0474
  426MOL0     H57503   5.124   3.519   9.812 -1.2772 -0.7843  0.5742
  426MOL0     H57504   5.064   3.646  10.043 -0.9246  0.0927 -1.1354
  426MOL0     H57505   5.171   3.777   9.968 -1.2908  1.1358 -0.6267
  426MOL0     H57506   5.361   3.608   9.952  0.0869 -1.2798  0.4775
  426MOL0     H57507   5.265   3.501  10.039 -3.0676  0.0814 -0.6000
  426MOL0     H57508   5.413   3.818  10.300 -0.8153 -0.5187  0.7994
  426MOL0     H57509   4.863   3.521   9.482  0.4912  0.7917 -1.0128
  426MOL0     H57510   4.617   3.529   9.375  1.2820 -0.2476 -0.1212
  427MOL0     O57511   6.098   9.510   6.499 -0.0006  0.1470  0.0061
  427MOL0     C57512   6.150   9.570   6.591 -0.2930  0.1897 -0.8239
  427MOL0     O57513   6.248   9.519   6.678  0.6572 -0.4422  0.2963
  427MOL0     C57514   6.270   9.384   6.674 -0.8614 -0.0445 -0.1671
  427MOL0     C57515   6.388   9.344   6.617 -0.1477 -0.6459 -0.0462
  427MOL0     C57516   6.424   9.207   6.607 -0.4159 -0.1417  0.2032
  427MOL0     C57517   6.338   9.099   6.645  0.6780 -0.3650 -0.7446
  427MOL0     O57518   6.378   8.969   6.632 -0.1287 -0.2781  0.0736
  427MOL0     C57519   6.355   8.887   6.752  0.1419 -0.2309  0.1597
  427MOL0     C57520   6.420   8.744   6.747 -0.3732 -0.3032 -0.0485
  427MOL0     C57521   6.554   8.736   6.673  0.0371  1.2254 -0.7658
  427MOL0     C57522   6.654   8.804   6.759 -0.1212 -1.1893  0.7119
  427MOL0     C57523   6.699   8.714   6.875  0.0152 -0.6173  0.3300
  427MOL0     C57524   6.798   8.790   6.967  0.4410 -0.8290  0.7114
  427MOL0     C57525   6.943   8.788   6.894  0.2821 -0.2839 -0.6943
  427MOL0     C57526   7.065   8.833   6.968  0.3624  0.8123  0.1176
  427MOL0     N57527   7.047   8.956   7.051 -0.2589 -0.3727  0.3340
  427MOL0     C57528   7.090   9.076   7.004 -0.1425 -1.0239  0.8132
  427MOL0     C57529   7.034   9.164   7.086 -0.5624  0.1955  0.2003
  427MOL0     C57530   7.048   9.314   7.062 -0.3540 -0.2714  0.7518
  427MOL0     C57531   6.966   9.383   7.175 -0.4371 -0.2681 -0.6178
  427MOL0     C57532   7.023   9.529   7.180  0.5052  0.2909  0.2194
  427MOL0     C57533   6.921   9.625   7.251  0.8551 -0.3147  0.7383
  427MOL0     O57534   6.796   9.630   7.173  0.4589 -0.1011  0.5474
  427MOL0     C57535   6.705   9.725   7.220  0.4699  0.4653  0.4527
  427MOL0     C57536   6.617   9.703   7.326  0.7998  0.2299  0.1116
  427MOL0     C57537   6.528   9.801   7.367  0.9710 -0.2906 -1.0694
  427MOL0     C57538   6.443   9.765   7.487  0.5911 -0.2920 -0.1147
  427MOL0     C57539   6.533   9.932   7.307 -1.1053 -0.2195 -0.4118
  427MOL0     C57540   6.476  10.062   7.354  0.3271  0.3951  0.2351
  427MOL0     O57541   6.549  10.176   7.312 -0.6824  0.3627 -0.0631
  427MOL0     C57542   6.510  10.293   7.380 -0.9381  0.4924  0.2631
  427MOL0     C57543   6.537  10.336   7.511 -0.0991 -0.8065  0.1031
  427MOL0     C57544   6.507  10.463   7.569 -0.8959 -0.2262  0.2485
  427MOL0     C57545   6.442  10.557   7.488  0.3237  0.3241  0.0464
  427MOL0     O57546   6.415  10.679   7.539  0.0007  0.7320 -0.6000
  427MOL0     C57547   6.315  10.701   7.642 -0.3107 -1.1303  1.1188
  427MOL0     C57548   6.260  10.850   7.621 -0.2260 -0.1648 -0.6618
  427MOL0     C57549   6.203  10.880   7.486 -0.4467 -0.6371  0.1529
  427MOL0     C57550   6.059  10.827   7.454 -0.9979 -0.0365 -0.7334
  427MOL0     C57551   5.957  10.844   7.561  0.2873 -0.5424  0.2377
  427MOL0     C57552   5.818  10.800   7.526  0.4946 -0.3984  0.2141
  427MOL0     C57553   5.714  10.790   7.648 -0.0433 -0.6234  0.4332
  427MOL0     C57554   5.586  10.719   7.604 -0.3227 -0.5879 -0.1727
  427MOL0    Cl57555   5.458  10.747   7.713  0.2029  0.1669  0.3455
  427MOL0     C57556   6.407  10.510   7.360  0.1192 -0.7226 -0.5953
  427MOL0     C57557   6.449  10.388   7.303  0.0624 -0.4432 -0.0937
  427MOL0     O57558   6.370  10.067   7.423 -0.4370 -0.0984  0.7244
  427MOL0     C57559   6.614   9.945   7.194  0.3103 -0.0790 -0.6437
  427MOL0     C57560   6.701   9.848   7.153  0.5522  0.2645 -0.7221
  427MOL0     N57561   6.960   9.090   7.175 -0.4044 -0.7709 -1.1647
  427MOL0     N57562   6.968   8.966   7.154 -0.2136  0.0468 -0.2595
  427MOL0     C57563   6.216   9.146   6.707  0.0508 -0.4612 -0.4589
  427MOL0     C57564   6.186   9.286   6.724 -0.0757  0.5783 -0.1249
  427MOL0     C57565   6.092   9.697   6.621  0.0935 -0.6157  0.1144
  427MOL0     C57566   6.018   9.771   6.528 -0.5855 -0.9916 -1.0463
  427MOL0     C57567   5.942   9.885   6.562 -0.4492 -0.3085 -0.1518
  427MOL0     C57568   5.964   9.944   6.692 -0.1848 -0.0159  0.0758
  427MOL0     O57569   5.892  10.065   6.712 -0.3405  0.6152  0.0449
  427MOL0     C57570   5.933  10.148   6.825 -0.2491  0.7953 -0.1084
  427MOL0     C57571   5.838  10.262   6.848  0.5085 -0.6070  0.2646
  427MOL0     C57572   5.801  10.346   6.727  0.1378  0.7077  0.7699
  427MOL0     C57573   5.839  10.493   6.747  0.0757 -0.7070  0.0096
  427MOL0     C57574   5.758  10.580   6.667  1.1532 -0.0775 -0.4423
  427MOL0     C57575   5.658  10.632   6.610 -0.2463 -0.4827 -0.8534
  427MOL0     C57576   6.042   9.872   6.783  0.0989  0.6194  0.0878
  427MOL0     C57577   6.104   9.746   6.753  0.3494 -0.3412  0.2066
  427MOL0     H57578   6.452   9.429   6.594 -3.2281  2.0853  0.6815
  427MOL0     H57579   6.516   9.175   6.560 -1.2995 -1.3149 -0.8207
  427MOL0     H57580   6.400   8.931   6.842  1.7439 -2.3390  0.4679
  427MOL0     H57581   6.248   8.872   6.767  0.0309  0.3385 -0.0364
  427MOL0     H57582   6.423   8.694   6.844 -0.9066 -1.6323 -0.6871
  427MOL0     H57583   6.353   8.683   6.686  0.1908 -2.1272  1.0833
  427MOL0     H57584   6.588   8.633   6.656  1.4021  1.3721  0.8584
  427MOL0     H57585   6.542   8.788   6.578 -2.6324  0.9663 -0.6656
  427MOL0     H57586   6.743   8.821   6.697 -0.1128  0.3271  1.0837
  427MOL0     H57587   6.613   8.900   6.793 -2.1749 -1.2437 -1.3300
  427MOL0     H57588   6.618   8.682   6.940 -0.9120  2.0941  0.6478
  427MOL0     H57589   6.744   8.622   6.836 -0.7132 -0.4341 -0.9955
  427MOL0     H57590   6.760   8.893   6.978  1.5164 -0.3423  0.0107
  427MOL0     H57591   6.798   8.747   7.067  0.6141 -0.9346  0.6659
  427MOL0     H57592   6.960   8.686   6.856 -1.0241 -2.2591  3.4590
  427MOL0     H57593   6.938   8.858   6.810  0.4382  0.6706  0.0880
  427MOL0     H57594   7.141   8.848   6.890 -1.3914  1.4503 -1.5783
  427MOL0     H57595   7.102   8.752   7.030 -1.4001  1.1235  1.6590
  427MOL0     H57596   7.152   9.102   6.919  2.3564  1.0924  3.1013
  427MOL0     H57597   7.152   9.347   7.069  0.4824 -2.2566 -1.2244
  427MOL0     H57598   7.020   9.335   6.958  1.8034  3.5367  0.7574
  427MOL0     H57599   6.981   9.332   7.271  1.6592  0.5882 -0.4293
  427MOL0     H57600   6.860   9.376   7.150 -0.1432 -1.0882 -1.7504
  427MOL0     H57601   7.040   9.577   7.083 -0.2836 -0.3691 -0.2573
  427MOL0     H57602   7.119   9.528   7.232  0.5008  0.0734  0.2248
  427MOL0     H57603   6.973   9.717   7.278  1.6053 -0.9207  1.3903
  427MOL0     H57604   6.895   9.590   7.351 -2.2854 -0.2756  0.0609
  427MOL0     H57605   6.618   9.605   7.373 -0.2114  0.8646  1.5493
  427MOL0     H57606   6.457   9.837   7.569 -1.7543 -0.7362  0.7635
  427MOL0     H57607   6.335   9.768   7.470  0.8255  1.5340 -1.5467
  427MOL0     H57608   6.476   9.674   7.540  2.2486 -0.3848 -1.2373
  427MOL0     H57609   6.603  10.270   7.567  0.5950 -2.2139 -2.2516
  427MOL0     H57610   6.555  10.485   7.664 -0.8752 -0.4639  0.2931
  427MOL0     H57611   6.233  10.630   7.630 -1.5732  0.1239  1.8711
  427MOL0     H57612   6.347  10.700   7.747 -2.2929  3.9635  2.1116
  427MOL0     H57613   6.179  10.871   7.692 -0.4301  1.9951 -1.4366
  427MOL0     H57614   6.343  10.918   7.640 -1.8133  1.5580  0.4631
  427MOL0     H57615   6.276  10.839   7.416  1.9491  0.2979  1.9555
  427MOL0     H57616   6.191  10.988   7.478  0.1168 -0.4147  1.7711
  427MOL0     H57617   6.029  10.873   7.359 -2.4543 -1.3187 -0.9401
  427MOL0     H57618   6.066  10.719   7.442  1.5010  0.1540 -1.4582
  427MOL0     H57619   5.940  10.948   7.593  2.0752 -0.1986  0.1309
  427MOL0     H57620   5.992  10.792   7.651 -0.0755 -0.8575  0.1996
  427MOL0     H57621   5.778  10.868   7.450  2.3870 -0.1948 -0.6679
  427MOL0     H57622   5.836  10.699   7.489 -0.8283 -0.8622  0.7622
  427MOL0     H57623   5.687  10.890   7.684 -2.4937 -1.6949  1.8244
  427MOL0     H57624   5.754  10.743   7.738  0.5389 -0.0570  0.4800
  427MOL0     H57625   5.606  10.611   7.598  0.1159 -0.4821 -0.7093
  427MOL0     H57626   5.555  10.748   7.503  0.6513  3.3472  0.5064
  427MOL0     H57627   6.347  10.579   7.302 -1.3283  1.6072  3.3024
  427MOL0     H57628   6.415  10.374   7.201 -0.6705 -2.2035  0.3569
  427MOL0     H57629   6.630  10.036   7.137 -0.8672 -0.0877 -1.0155
  427MOL0     H57630   6.757   9.861   7.061 -3.5073 -1.9126 -3.8189
  427MOL0     H57631   6.145   9.074   6.747  0.8153  0.0229  1.8771
  427MOL0     H57632   6.092   9.312   6.771 -0.2341 -1.5090  0.8413
  427MOL0     H57633   6.014   9.736   6.426 -0.7256 -2.5812 -0.5200
  427MOL0     H57634   5.882   9.933   6.486 -0.7690 -0.1096  0.2184
  427MOL0     H57635   5.935  10.098   6.922 -2.6515 -3.6036 -2.0398
  427MOL0     H57636   6.032  10.193   6.813  0.4804 -0.8324 -0.4902
  427MOL0     H57637   5.872  10.329   6.927 -0.4880 -0.1525  0.3270
  427MOL0     H57638   5.742  10.217   6.872  0.4791  0.8402  3.3147
  427MOL0     H57639   5.694  10.335   6.708  0.4866 -1.0568 -0.3523
  427MOL0     H57640   5.856  10.311   6.639 -0.9886  1.2353 -0.1720
  427MOL0     H57641   5.940  10.517   6.712 -1.0989  3.3034 -1.1678
  427MOL0     H57642   5.838  10.523   6.852  1.5374 -1.4289  0.2601
  427MOL0     H57643   5.581  10.677   6.551  1.5128 -0.2750 -3.2009
  427MOL0     H57644   6.062   9.903   6.885 -2.2311  0.0173  0.7814
  427MOL0     H57645   6.157   9.704   6.838 -0.5832  2.0597  2.0961
  428MOL0     O57646   8.974   6.893   4.505 -0.4033  0.6257  0.1901
  428MOL0     C57647   9.038   6.951   4.414  0.5047 -0.6999  0.1137
  428MOL0     O57648   8.995   6.975   4.288  0.4893  0.2657 -0.1306
  428MOL0     C57649   8.870   6.953   4.256  0.0453  0.0161  0.0260
  428MOL0     C57650   8.861   6.893   4.134  0.2797 -1.0450  0.1792
  428MOL0     C57651   8.731   6.865   4.079  0.7749  0.0637  0.2269
  428MOL0     C57652   8.623   6.912   4.151  0.1316 -0.0480 -0.7837
  428MOL0     O57653   8.494   6.903   4.105  0.3865  0.2263 -0.0456
  428MOL0     C57654   8.470   6.897   3.964  0.1517 -0.0026  0.5711
  428MOL0     C57655   8.324   6.881   3.946 -0.0084 -0.0514 -0.1445
  428MOL0     C57656   8.272   6.922   3.804 -0.5364  0.9819 -0.0441
  428MOL0     C57657   8.128   6.898   3.783  1.0302 -0.0032 -0.4392
  428MOL0     C57658   8.084   6.961   3.656  0.2829 -0.1445  0.1551
  428MOL0     C57659   7.935   7.007   3.671 -1.1770 -0.7734 -0.7201
  428MOL0     C57660   7.862   7.039   3.535 -1.1129 -0.1581 -0.1022
  428MOL0     C57661   7.791   7.166   3.534  0.7361 -0.1220 -0.4827
  428MOL0     N57662   7.870   7.284   3.558 -1.1748  0.0790  1.0093
  428MOL0     C57663   7.835   7.357   3.665  0.1641  0.1983  0.2689
  428MOL0     C57664   7.896   7.477   3.657  0.3907 -0.4828  0.6550
  428MOL0     C57665   7.918   7.593   3.752  0.6511  0.4523 -0.6243
  428MOL0     C57666   7.995   7.554   3.876  0.2101  0.7630  0.7092
  428MOL0     C57667   8.134   7.508   3.848 -0.7258  0.0309  0.1563
  428MOL0     C57668   8.147   7.357   3.842 -0.0888 -0.0831 -0.5117
  428MOL0     O57669   8.279   7.311   3.830 -0.3135  0.2709 -0.2856
  428MOL0     C57670   8.344   7.310   3.710  0.4428  1.0578  0.8564
  428MOL0     C57671   8.282   7.306   3.582  0.2781  0.6179 -0.2792
  428MOL0     C57672   8.361   7.315   3.465  0.2793 -0.2540  0.1534
  428MOL0     C57673   8.287   7.312   3.329  0.2672 -0.5755  0.1965
  428MOL0     C57674   8.504   7.309   3.480  0.7984  0.0513 -0.3407
  428MOL0     C57675   8.593   7.306   3.362 -0.4975  0.4421  0.5284
  428MOL0     O57676   8.730   7.281   3.384  0.8885 -0.2977  0.1772
  428MOL0     C57677   8.832   7.283   3.284  1.0680 -0.2147  0.8133
  428MOL0     C57678   8.824   7.358   3.165 -0.0275  0.3158  0.7052
  428MOL0     C57679   8.925   7.351   3.067  0.2159  0.0338  0.0991
  428MOL0     C57680   9.051   7.293   3.082 -0.1656 -0.0258 -0.0494
  428MOL0     O57681   9.140   7.296   2.978  0.2598  0.8084  0.3949
  428MOL0     C57682   9.268   7.252   3.009 -0.6826 -0.5504  0.8868
  428MOL0     C57683   9.364   7.325   2.913  0.0414 -0.5033  0.7979
  428MOL0     C57684   9.510   7.300   2.951 -0.1896  0.1781 -0.5419
  428MOL0     C57685   9.605   7.341   2.839  0.1429 -0.5756  0.0575
  428MOL0     C57686   9.753   7.312   2.865 -0.5394 -0.4394 -0.0047
  428MOL0     C57687   9.827   7.406   2.958  0.9292 -0.1110 -0.1605
  428MOL0     C57688   9.856   7.548   2.916  0.4094 -0.3900 -0.7542
  428MOL0     C57689   9.919   7.619   3.034 -0.2091 -0.5917  0.9080
  428MOL0    Cl57690  10.092   7.576   3.073  0.2547 -0.1838 -0.7358
  428MOL0     C57691   9.072   7.228   3.210  0.3034 -0.5631  0.1277
  428MOL0     C57692   8.958   7.216   3.301 -0.0937 -0.6253 -0.0361
  428MOL0     O57693   8.546   7.323   3.253  0.0411 -0.8451 -0.0409
  428MOL0     C57694   8.565   7.296   3.607  0.5157 -0.2855 -0.0785
  428MOL0     C57695   8.483   7.300   3.719  0.5858 -0.0058  0.5345
  428MOL0     N57696   7.967   7.473   3.542 -0.6883  0.0874 -0.6367
  428MOL0     N57697   7.950   7.360   3.476  0.2643  0.1287  0.5478
  428MOL0     C57698   8.639   6.975   4.274  0.2097 -0.8464  0.4725
  428MOL0     C57699   8.761   7.010   4.327 -0.5640 -0.7177 -0.0363
  428MOL0     C57700   9.165   7.009   4.456  0.0218  1.0205 -0.0161
  428MOL0     C57701   9.181   7.052   4.591 -0.4466  0.3342  0.3967
  428MOL0     C57702   9.310   7.073   4.640 -0.1860  0.5194 -0.0254
  428MOL0     C57703   9.420   7.051   4.556 -0.2044 -0.0096  0.0581
  428MOL0     O57704   9.539   7.072   4.611 -0.5444 -0.1373  0.3860
  428MOL0     C57705   9.564   7.041   4.744 -0.2621 -0.4390 -0.0057
  428MOL0     C57706   9.707   7.048   4.775  0.0181 -0.3569  0.3930
  428MOL0     C57707   9.741   6.939   4.880 -0.5452 -0.6269  0.0212
  428MOL0     C57708   9.891   6.952   4.912 -0.7226  0.7777  0.5741
  428MOL0     C57709   9.974   6.892   4.804  0.1437 -0.6908 -0.3057
  428MOL0     C57710  10.059   6.848   4.730  0.6716 -0.1604  0.4527
  428MOL0     C57711   9.405   7.008   4.427  0.3927 -0.8437  0.4580
  428MOL0     C57712   9.279   6.984   4.374 -0.0965  0.1884 -0.4194
  428MOL0     H57713   8.949   6.863   4.078  0.9496  1.0851 -0.0006
  428MOL0     H57714   8.732   6.815   3.983  0.5323  1.7245 -0.6731
  428MOL0     H57715   8.500   6.991   3.917  0.8956  0.6150  2.2020
  428MOL0     H57716   8.528   6.822   3.909  0.0990 -0.8223  1.6123
  428MOL0     H57717   8.294   6.778   3.963  0.0106 -0.5060 -2.5476
  428MOL0     H57718   8.268   6.940   4.019  1.9822  5.3040 -2.3768
  428MOL0     H57719   8.294   7.027   3.779  0.4263  0.7895 -0.0507
  428MOL0     H57720   8.324   6.871   3.723  1.0683  0.6301  1.1630
  428MOL0     H57721   8.117   6.790   3.771  1.5456  0.1402 -2.8106
  428MOL0     H57722   8.071   6.941   3.865  0.7703  4.3963 -2.6097
  428MOL0     H57723   8.134   7.057   3.636 -1.9507  0.8815 -0.9239
  428MOL0     H57724   8.107   6.901   3.568 -1.1324 -0.3091 -0.1372
  428MOL0     H57725   7.875   6.930   3.720 -4.0571  1.2649 -0.6972
  428MOL0     H57726   7.930   7.093   3.739 -2.6216 -0.7864 -0.7778
  428MOL0     H57727   7.935   7.025   3.455  0.1263  0.1549  0.9331
  428MOL0     H57728   7.789   6.959   3.521  0.1190 -1.4141  0.4018
  428MOL0     H57729   7.708   7.171   3.605 -0.1954  2.8378 -1.6109
  428MOL0     H57730   7.748   7.176   3.434  0.2781  1.2533 -0.1732
  428MOL0     H57731   7.777   7.314   3.746  1.4611 -3.7245 -0.6452
  428MOL0     H57732   7.971   7.677   3.706  0.3902  0.9380 -0.0457
  428MOL0     H57733   7.817   7.631   3.770 -0.1637 -0.9396 -2.0083
  428MOL0     H57734   7.925   7.491   3.931 -1.4138  2.3563  0.5217
  428MOL0     H57735   7.990   7.646   3.935 -2.6502  0.2217  1.4303
  428MOL0     H57736   8.198   7.536   3.932 -0.2440  1.0460 -0.5342
  428MOL0     H57737   8.163   7.556   3.754 -0.5760 -0.7735 -0.2204
  428MOL0     H57738   8.094   7.303   3.763  2.5346 -2.1150 -1.0355
  428MOL0     H57739   8.122   7.320   3.942  0.0549  0.7156 -0.1757
  428MOL0     H57740   8.175   7.286   3.580  0.5283 -0.9623  0.3137
  428MOL0     H57741   8.183   7.343   3.347  0.9532  2.1587 -0.1046
  428MOL0     H57742   8.329   7.389   3.264 -0.5501  0.9101  1.3637
  428MOL0     H57743   8.305   7.214   3.285  2.3001 -0.3848  0.5417
  428MOL0     H57744   8.737   7.421   3.151  1.1159  1.6192 -0.9845
  428MOL0     H57745   8.906   7.407   2.976 -2.2955 -2.3355 -0.9971
  428MOL0     H57746   9.298   7.287   3.108 -2.1619 -0.7151  1.4176
  428MOL0     H57747   9.289   7.146   2.990  2.7575  0.4570 -2.2274
  428MOL0     H57748   9.341   7.300   2.809 -2.2411 -0.5463  1.2507
  428MOL0     H57749   9.352   7.432   2.935  1.9154 -0.4112  1.5289
  428MOL0     H57750   9.522   7.192   2.960  3.8999  0.3438 -1.9093
  428MOL0     H57751   9.535   7.342   3.049 -0.9079  0.0436 -0.2938
  428MOL0     H57752   9.585   7.287   2.746 -3.5281  1.2444 -0.4128
  428MOL0     H57753   9.594   7.448   2.815  3.4014 -0.2929 -0.5931
  428MOL0     H57754   9.799   7.313   2.766 -1.3019  1.3353 -0.3815
  428MOL0     H57755   9.780   7.215   2.908  1.0365 -0.4967 -1.0516
  428MOL0     H57756   9.768   7.416   3.049  0.8141  1.2115 -0.3681
  428MOL0     H57757   9.918   7.348   2.980 -0.3293 -1.7090  1.0972
  428MOL0     H57758   9.772   7.604   2.874  0.3534 -0.2979 -0.5218
  428MOL0     H57759   9.931   7.539   2.836  0.2173 -0.4736 -0.9257
  428MOL0     H57760   9.854   7.616   3.122 -1.0295  0.6399  0.3823
  428MOL0     H57761   9.928   7.723   3.000  0.5144 -0.2229  2.1341
  428MOL0     H57762   9.168   7.183   3.233  1.0735  1.2882  0.7105
  428MOL0     H57763   8.974   7.175   3.400 -1.6733  0.2019  0.5898
  428MOL0     H57764   8.673   7.305   3.613  0.3445  2.1962  0.2098
  428MOL0     H57765   8.532   7.299   3.815 -0.8669 -1.8181  1.3005
  428MOL0     H57766   8.556   7.015   4.332  0.9140  1.5002  0.0011
  428MOL0     H57767   8.765   7.069   4.418 -2.6599  0.6238 -0.7619
  428MOL0     H57768   9.091   7.039   4.650 -2.2260 -0.4068 -2.2904
  428MOL0     H57769   9.321   7.099   4.745  0.2948  2.6688 -0.5578
  428MOL0     H57770   9.507   7.111   4.806 -0.4887  0.5131 -1.2316
  428MOL0     H57771   9.521   6.946   4.777 -1.0566 -0.0643  0.0798
  428MOL0     H57772   9.738   7.150   4.802 -3.6345  1.0216 -0.0050
  428MOL0     H57773   9.761   7.021   4.684 -0.5337  0.6743 -0.2645
  428MOL0     H57774   9.713   6.840   4.844 -3.1685 -0.0801  0.3763
  428MOL0     H57775   9.681   6.956   4.970  0.2786  0.7020  0.3514
  428MOL0     H57776   9.895   6.894   5.005 -0.7778 -1.7464 -0.9155
  428MOL0     H57777   9.924   7.055   4.930  1.2363  0.2220  0.3949
  428MOL0     H57778  10.130   6.809   4.660  0.5721 -3.2279  1.8594
  428MOL0     H57779   9.496   6.985   4.373  0.0955 -0.4175 -0.2356
  428MOL0     H57780   9.274   6.933   4.279 -0.4108 -2.1001  0.7411
  429MOL0     O57781   2.466   7.989   7.860  0.1121 -0.1965 -0.6316
  429MOL0     C57782   2.579   7.939   7.835 -0.4228 -0.2743  0.7018
  429MOL0     O57783   2.706   7.993   7.875 -0.1090  0.4062 -0.5467
  429MOL0     C57784   2.706   8.111   7.949  0.2870 -0.4905 -0.1699
  429MOL0     C57785   2.633   8.223   7.902 -0.1618 -0.3398 -1.0400
  429MOL0     C57786   2.630   8.336   7.975 -0.1414 -0.5481 -0.2573
  429MOL0     C57787   2.705   8.354   8.097  0.4904 -0.4269 -0.7493
  429MOL0     O57788   2.683   8.469   8.164  0.0648 -0.6021 -0.8261
  429MOL0     C57789   2.780   8.540   8.236 -0.1668  0.9825 -0.2569
  429MOL0     C57790   2.712   8.636   8.338  0.8760  0.1240 -0.6038
  429MOL0     C57791   2.808   8.737   8.377  0.1299 -0.4303  0.0511
  429MOL0     C57792   2.890   8.798   8.268 -0.2680  0.4255  0.5553
  429MOL0     C57793   2.972   8.928   8.302 -0.6544 -0.2659 -0.1850
  429MOL0     C57794   2.891   9.058   8.278  0.1495  0.2557 -0.3634
  429MOL0     C57795   2.989   9.177   8.289  0.5707  0.4434  0.1706
  429MOL0     C57796   2.913   9.309   8.294  0.6461 -0.4447  0.4427
  429MOL0     N57797   2.868   9.335   8.152  0.4106 -0.4366 -0.6583
  429MOL0     C57798   2.956   9.367   8.053 -0.2048 -0.0857  0.2374
  429MOL0     C57799   2.884   9.386   7.938 -0.4727  1.4259  0.0084
  429MOL0     C57800   2.931   9.385   7.795  0.6347 -0.1476 -0.0937
  429MOL0     C57801   2.879   9.507   7.730  0.3585 -0.3192  0.7206
  429MOL0     C57802   2.943   9.632   7.778  0.4753  0.1252  0.2008
  429MOL0     C57803   3.098   9.650   7.745  0.6799 -0.0739  0.6015
  429MOL0     O57804   3.152   9.772   7.801  0.4170 -0.1984  0.0508
  429MOL0     C57805   3.128   9.887   7.730  0.5190 -0.1646  0.4232
  429MOL0     C57806   3.167  10.006   7.791  0.2537 -0.0164 -0.1672
  429MOL0     C57807   3.132  10.129   7.737  0.1100 -0.0639 -0.2610
  429MOL0     C57808   3.176  10.250   7.810  0.4389 -1.0632 -0.3364
  429MOL0     C57809   3.053  10.135   7.619 -0.4552 -0.2028 -0.5564
  429MOL0     C57810   3.000  10.262   7.567  0.7532  0.2022  0.0882
  429MOL0     O57811   2.958  10.248   7.434 -1.0184 -0.2099  0.2170
  429MOL0     C57812   2.871  10.334   7.373  0.2945 -0.3309 -0.3237
  429MOL0     C57813   2.873  10.472   7.379  0.7908  0.3105 -1.0031
  429MOL0     C57814   2.775  10.558   7.333 -0.8960  0.1005 -0.2101
  429MOL0     C57815   2.662  10.505   7.276  0.1795  0.2665  0.8576
  429MOL0     O57816   2.562  10.585   7.224  0.2695  0.0233 -0.5709
  429MOL0     C57817   2.476  10.525   7.119 -0.7586 -0.6240 -0.7438
  429MOL0     C57818   2.390  10.633   7.064 -0.4722 -0.0320  0.1647
  429MOL0     C57819   2.313  10.724   7.170 -0.2791  0.1587 -0.0344
  429MOL0     C57820   2.167  10.753   7.114 -0.2005 -0.6868 -0.3919
  429MOL0     C57821   2.094  10.846   7.216  0.3314 -0.1208  0.2758
  429MOL0     C57822   1.952  10.851   7.173  1.1498  0.0313  0.7465
  429MOL0     C57823   1.859  10.898   7.295 -0.1102 -0.3809  0.3829
  429MOL0     C57824   1.727  10.971   7.257 -0.0019 -0.0669  0.8594
  429MOL0    Cl57825   1.759  11.142   7.203  0.2706 -0.0970 -0.3938
  429MOL0     C57826   2.667  10.367   7.257 -0.5096 -0.6082  0.2273
  429MOL0     C57827   2.758  10.276   7.312  0.1439 -0.5257  0.1649
  429MOL0     O57828   2.999  10.364   7.630 -0.8454  0.2045 -0.2436
  429MOL0     C57829   3.026  10.025   7.549 -0.4358  0.1391  0.1779
  429MOL0     C57830   3.062   9.899   7.602  0.6098  0.2436  0.1529
  429MOL0     N57831   2.750   9.378   7.973  0.3805  0.2708  0.5256
  429MOL0     N57832   2.739   9.352   8.100  0.3126  1.1176 -0.2858
  429MOL0     C57833   2.789   8.247   8.137 -0.0877  0.1708  0.6117
  429MOL0     C57834   2.776   8.123   8.069 -0.8198  0.0225 -0.8009
  429MOL0     C57835   2.581   7.796   7.796  0.3817 -0.1973 -0.8103
  429MOL0     C57836   2.455   7.726   7.789 -0.5831  0.9075 -0.9838
  429MOL0     C57837   2.455   7.603   7.731 -0.3299  0.3767 -0.1216
  429MOL0     C57838   2.573   7.545   7.689 -0.0044 -0.3056  0.3873
  429MOL0     O57839   2.588   7.408   7.657  0.7119  0.7528 -0.7966
  429MOL0     C57840   2.470   7.315   7.657 -0.6310  0.7289  0.0238
  429MOL0     C57841   2.521   7.178   7.613  0.4229 -0.7217 -0.5843
  429MOL0     C57842   2.412   7.077   7.627  0.4990  0.8240  0.0441
  429MOL0     C57843   2.437   6.939   7.566  0.5228 -0.4633 -0.0098
  429MOL0     C57844   2.541   6.865   7.631 -0.0478  0.4889 -0.3235
  429MOL0     C57845   2.631   6.814   7.693  0.3171 -0.2394 -0.0051
  429MOL0     C57846   2.695   7.613   7.689  0.0274  0.1469 -0.0672
  429MOL0     C57847   2.698   7.735   7.748  0.3422 -0.5061  0.7435
  429MOL0     H57848   2.566   8.215   7.817 -0.7705 -0.1396 -0.5864
  429MOL0     H57849   2.571   8.426   7.964 -2.1291 -2.0167 -2.6040
  429MOL0     H57850   2.843   8.464   8.284 -2.7467 -1.8845 -1.1035
  429MOL0     H57851   2.847   8.591   8.166  1.1665  0.6433  0.7254
  429MOL0     H57852   2.623   8.668   8.284 -1.2549  0.1587  2.6400
  429MOL0     H57853   2.679   8.593   8.433 -0.7123  2.2436 -0.1210
  429MOL0     H57854   2.759   8.818   8.431  0.2140 -0.3001 -0.0682
  429MOL0     H57855   2.872   8.686   8.450  0.4415  3.1990  2.5820
  429MOL0     H57856   2.964   8.725   8.234 -0.0137  0.0485  1.8346
  429MOL0     H57857   2.832   8.821   8.179  3.4098  1.1680 -1.8832
  429MOL0     H57858   2.997   8.930   8.409  3.3182 -1.8516 -0.9053
  429MOL0     H57859   3.061   8.909   8.242  0.1554 -2.9719  1.6975
  429MOL0     H57860   2.846   9.048   8.179  0.2652  1.9943 -0.6213
  429MOL0     H57861   2.801   9.066   8.341 -0.0501 -0.1397 -0.5946
  429MOL0     H57862   3.050   9.160   8.378  1.6477 -0.8079 -0.7786
  429MOL0     H57863   3.063   9.170   8.208  0.5015 -0.6215  0.1929
  429MOL0     H57864   2.980   9.386   8.332  0.2923  0.1001 -0.0098
  429MOL0     H57865   2.822   9.308   8.355 -0.3135  0.9482 -0.8862
  429MOL0     H57866   3.064   9.375   8.059 -0.4542  4.2967  2.4602
  429MOL0     H57867   3.040   9.380   7.798  0.5635 -1.6255  2.2839
  429MOL0     H57868   2.891   9.294   7.748 -1.8687 -0.0073  1.5618
  429MOL0     H57869   2.770   9.507   7.742  0.4356  2.4890  2.2587
  429MOL0     H57870   2.904   9.492   7.625  0.9202 -0.4337  0.8697
  429MOL0     H57871   2.914   9.654   7.881 -2.2114 -1.8524 -0.0190
  429MOL0     H57872   2.896   9.716   7.726 -0.7244 -0.0720  0.9288
  429MOL0     H57873   3.121   9.634   7.640  2.1187  1.5332  0.6267
  429MOL0     H57874   3.149   9.564   7.791  0.1002 -1.4060 -1.1444
  429MOL0     H57875   3.226   9.996   7.881 -1.1704 -0.0820  0.7777
  429MOL0     H57876   3.238  10.310   7.743 -2.7295  0.0966 -2.4865
  429MOL0     H57877   3.092  10.310   7.845  0.2997 -0.2146 -1.9979
  429MOL0     H57878   3.238  10.230   7.897  0.6069  1.0573  0.0874
  429MOL0     H57879   2.953  10.529   7.426 -0.0122  0.4001  0.3128
  429MOL0     H57880   2.796  10.661   7.357  1.7973 -0.9022  2.4645
  429MOL0     H57881   2.536  10.479   7.041  1.2941  1.4446 -0.4890
  429MOL0     H57882   2.401  10.461   7.167 -1.9560  1.3004  0.0793
  429MOL0     H57883   2.445  10.701   6.999  1.2675 -0.0137  1.6009
  429MOL0     H57884   2.321  10.576   7.001 -0.2520  1.3901 -1.4542
  429MOL0     H57885   2.370  10.815   7.191  0.1357  0.6995 -3.1328
  429MOL0     H57886   2.297  10.670   7.264  0.6546 -2.2807 -1.2001
  429MOL0     H57887   2.182  10.792   7.012 -0.5820 -2.0445 -0.9870
  429MOL0     H57888   2.115  10.658   7.098  1.7829 -2.3372  2.1142
  429MOL0     H57889   2.135  10.946   7.203  1.9412 -0.8543 -0.6126
  429MOL0     H57890   2.110  10.803   7.315  0.9013 -0.1065  0.1962
  429MOL0     H57891   1.935  10.927   7.096  2.5530 -0.4005 -0.0271
  429MOL0     H57892   1.909  10.756   7.140 -0.8543  0.6206  1.4620
  429MOL0     H57893   1.910  10.956   7.373 -1.7469 -2.4652  3.2133
  429MOL0     H57894   1.828  10.808   7.348  1.3687 -0.1380  1.7584
  429MOL0     H57895   1.655  10.977   7.339 -0.4124  1.0370  0.4373
  429MOL0     H57896   1.678  10.923   7.171  1.1417 -0.7282  0.5415
  429MOL0     H57897   2.588  10.330   7.192 -0.1793  1.2344 -1.3168
  429MOL0     H57898   2.748  10.169   7.319 -1.5152 -0.2892  2.5037
  429MOL0     H57899   2.983  10.006   7.451 -3.5528 -3.6580  1.9845
  429MOL0     H57900   3.035   9.810   7.546  3.1791 -1.3867  1.2901
  429MOL0     H57901   2.853   8.236   8.225 -2.4118 -0.0184  2.3837
  429MOL0     H57902   2.828   8.035   8.107 -2.2392  0.2692  1.9519
  429MOL0     H57903   2.364   7.761   7.836 -0.5981  0.6914 -0.8492
  429MOL0     H57904   2.365   7.542   7.726  1.1699 -1.8502 -1.5389
  429MOL0     H57905   2.417   7.300   7.752 -1.3389 -1.5146 -0.6437
  429MOL0     H57906   2.394   7.357   7.591 -0.4787  1.4981  0.3269
  429MOL0     H57907   2.599   7.134   7.676  1.0654 -0.0236 -0.8786
  429MOL0     H57908   2.568   7.174   7.514  0.6601 -0.6219 -0.4746
  429MOL0     H57909   2.327   7.125   7.578 -1.4133 -0.1623  2.1576
  429MOL0     H57910   2.386   7.068   7.733 -3.6621  1.2361 -0.7618
  429MOL0     H57911   2.450   6.942   7.457  1.2669 -0.7269  0.0702
  429MOL0     H57912   2.345   6.882   7.581 -1.2372  1.1985 -3.2561
  429MOL0     H57913   2.707   6.757   7.743 -1.1649 -2.8898 -0.5324
  429MOL0     H57914   2.788   7.573   7.650  0.1535  1.8930 -1.6672
  429MOL0     H57915   2.792   7.789   7.747 -0.4122  0.9869  2.8177
  430MOL0     O57916   1.775  11.107   0.664 -0.2364  0.4305  0.3376
  430MOL0     C57917   1.776  11.229   0.678  0.6720 -0.4801  0.3389
  430MOL0     O57918   1.661  11.306   0.709 -0.8268  0.6656 -1.0123
  430MOL0     C57919   1.559  11.254   0.776  0.1941  0.3279  0.6254
  430MOL0     C57920   1.514  11.323   0.889 -0.0567 -0.2313  0.0582
  430MOL0     C57921   1.401  11.283   0.949 -0.4027 -0.3500  0.4180
  430MOL0     C57922   1.337  11.173   0.907  0.7510  0.2280  0.1169
  430MOL0     O57923   1.232  11.130   0.986 -0.5864  0.1686  0.0438
  430MOL0     C57924   1.161  11.014   0.943  0.0158 -0.5057 -0.6264
  430MOL0     C57925   1.067  10.977   1.050  1.1719 -0.6705 -0.1614
  430MOL0     C57926   0.951  11.079   1.056  0.1643  0.4316 -0.3136
  430MOL0     C57927   0.827  11.009   1.121 -0.8205 -0.0020 -0.2163
  430MOL0     C57928   0.849  10.995   1.271  0.2946  0.5578 -0.0706
  430MOL0     C57929   0.716  10.958   1.346 -0.5369  0.7266  0.5462
  430MOL0     C57930   0.730  10.945   1.502 -0.2997 -0.4216 -0.3803
  430MOL0     C57931   0.843  10.861   1.567 -0.1844 -1.1822 -0.4025
  430MOL0     N57932   0.847  10.729   1.509 -0.2100  0.2197  0.1964
  430MOL0     C57933   0.739  10.637   1.488  0.2877  0.0664 -0.5810
  430MOL0     C57934   0.787  10.526   1.423  0.1770  0.1559  0.2796
  430MOL0     C57935   0.723  10.400   1.387  0.6774 -0.9041 -0.3129
  430MOL0     C57936   0.751  10.284   1.491  0.0174 -0.2231 -0.6780
  430MOL0     C57937   0.758  10.328   1.633  0.0609  0.5587 -0.0872
  430MOL0     C57938   0.742  10.221   1.746 -0.2024 -0.3300  0.2103
  430MOL0     O57939   0.620  10.136   1.725  0.2483 -0.2412  0.4148
  430MOL0     C57940   0.503  10.198   1.734 -0.5253  0.3076  0.1475
  430MOL0     C57941   0.395  10.121   1.711 -0.4202 -0.0253 -0.3808
  430MOL0     C57942   0.272  10.178   1.687  0.3186  0.3153 -0.8758
  430MOL0     C57943   0.168  10.082   1.639  0.6440  0.1896  0.9342
  430MOL0     C57944   0.254  10.318   1.717  0.2763  0.2822  0.3738
  430MOL0     C57945   0.126  10.399   1.700  0.0504  0.2968  0.0415
  430MOL0     O57946   0.138  10.539   1.711 -0.9663  0.3690 -0.3062
  430MOL0     C57947   0.017  10.596   1.725 -0.5711 -0.4240 -0.7237
  430MOL0     C57948  -0.050  10.604   1.842 -0.0102  0.4080 -0.4153
  430MOL0     C57949  -0.176  10.651   1.844 -0.7549 -1.3423  0.6481
  430MOL0     C57950  -0.235  10.711   1.734 -0.6073 -1.4211  0.1365
  430MOL0     O57951  -0.359  10.757   1.762  0.2470  0.0402 -0.9698
  430MOL0     C57952  -0.437  10.811   1.660 -0.1393  1.0989 -0.9799
  430MOL0     C57953  -0.541  10.905   1.717  0.2034 -0.2572  1.2812
  430MOL0     C57954  -0.679  10.844   1.744 -0.7137  0.0262 -0.1220
  430MOL0     C57955  -0.780  10.946   1.792 -0.7332 -1.1352  0.2250
  430MOL0     C57956  -0.899  10.869   1.859  0.9208  0.6804 -0.2651
  430MOL0     C57957  -1.038  10.888   1.781 -0.2626 -0.0425  0.5759
  430MOL0     C57958  -1.040  10.824   1.642 -0.0938  0.9354  0.9363
  430MOL0     C57959  -1.026  10.671   1.650  1.2085 -0.1044 -0.3474
  430MOL0    Cl57960  -1.051  10.597   1.495  0.0132  0.0657  0.1943
  430MOL0     C57961  -0.168  10.705   1.607 -0.9602  0.1689 -0.1673
  430MOL0     C57962  -0.040  10.650   1.613 -0.0268 -0.1678 -0.8402
  430MOL0     O57963   0.016  10.337   1.687 -0.1071  0.1490  0.0656
  430MOL0     C57964   0.364  10.390   1.765  0.6367  0.3193  0.1579
  430MOL0     C57965   0.491  10.331   1.767  0.9985 -1.0789 -0.2987
  430MOL0     N57966   0.922  10.555   1.393  0.2475 -0.6169  0.2116
  430MOL0     N57967   0.955  10.665   1.453 -0.2962  0.1883  0.2239
  430MOL0     C57968   1.379  11.102   0.788 -0.2777 -0.0579 -0.2809
  430MOL0     C57969   1.492  11.140   0.726  0.8196 -0.1404  0.1941
  430MOL0     C57970   1.905  11.298   0.660  0.2004 -0.6925 -0.2297
  430MOL0     C57971   2.027  11.217   0.657  0.4155 -0.4833 -0.6275
  430MOL0     C57972   2.150  11.277   0.648 -0.0336 -0.0505  0.8650
  430MOL0     C57973   2.157  11.409   0.663 -0.1057 -0.2836 -0.5655
  430MOL0     O57974   2.288  11.463   0.656  0.0341  0.5641  0.1821
  430MOL0     C57975   2.302  11.601   0.635 -0.2121  0.5448 -0.4246
  430MOL0     C57976   2.299  11.675   0.770 -0.0112 -0.2957 -0.4075
  430MOL0     C57977   2.406  11.643   0.874 -0.6697  0.1194 -0.0837
  430MOL0     C57978   2.547  11.669   0.825  0.3706  0.4237  0.2377
  430MOL0     C57979   2.570  11.810   0.795 -0.1326 -0.6271 -0.6129
  430MOL0     C57980   2.571  11.928   0.771  0.1445  0.0650 -0.1023
  430MOL0     C57981   2.045  11.489   0.677  0.3892 -0.5445 -0.0187
  430MOL0     C57982   1.916  11.437   0.679 -0.5077 -0.2529  0.1968
  430MOL0     H57983   1.568  11.410   0.925  2.0250 -1.3504 -0.2113
  430MOL0     H57984   1.364  11.343   1.032  3.3083  1.2582  1.1448
  430MOL0     H57985   1.111  11.039   0.849  0.8842  1.1287 -0.6901
  430MOL0     H57986   1.216  10.920   0.932  0.1945 -0.2683 -1.8273
  430MOL0     H57987   1.028  10.877   1.032 -2.3081  0.1667  1.9073
  430MOL0     H57988   1.118  10.973   1.146 -1.1870 -1.3519  1.1385
  430MOL0     H57989   0.985  11.168   1.109 -0.6990  0.0461  0.9150
  430MOL0     H57990   0.922  11.105   0.954 -0.4188 -2.9293 -1.1261
  430MOL0     H57991   0.744  11.077   1.100  0.8350  1.0684 -3.9738
  430MOL0     H57992   0.819  10.914   1.068  3.5521  0.4631 -2.1240
  430MOL0     H57993   0.931  10.924   1.289 -1.7780 -2.1286 -0.7020
  430MOL0     H57994   0.877  11.090   1.316 -0.4155  0.8470 -0.2289
  430MOL0     H57995   0.643  11.038   1.329 -1.4871 -0.3758 -0.7672
  430MOL0     H57996   0.682  10.868   1.296 -0.6111  0.1614  1.5832
  430MOL0     H57997   0.746  11.045   1.542 -0.6332 -1.0515  1.4430
  430MOL0     H57998   0.633  10.907   1.535  1.8009 -5.0558  1.3882
  430MOL0     H57999   0.829  10.842   1.674 -0.4315 -0.1259 -0.2388
  430MOL0     H58000   0.937  10.913   1.547 -1.3850  0.7677 -1.2638
  430MOL0     H58001   0.633  10.645   1.507  0.4851  2.2822 -0.1227
  430MOL0     H58002   0.614  10.410   1.387  0.6549 -0.4067  2.3663
  430MOL0     H58003   0.753  10.375   1.284 -2.2184  0.7093 -1.6644
  430MOL0     H58004   0.839  10.234   1.450 -0.5602 -2.3433  0.4973
  430MOL0     H58005   0.669  10.214   1.471 -2.2662  2.3143 -0.6884
  430MOL0     H58006   0.714  10.425   1.655 -1.1388 -0.3928  2.1238
  430MOL0     H58007   0.864  10.356   1.640  0.6244 -1.3267 -0.4143
  430MOL0     H58008   0.754  10.273   1.841  3.0413  0.0224 -0.2675
  430MOL0     H58009   0.824  10.149   1.738 -0.5025 -0.7640  0.9411
  430MOL0     H58010   0.406  10.014   1.698  1.6383  0.0734  0.2203
  430MOL0     H58011   0.204   9.982   1.613  0.1532 -0.2611  1.9441
  430MOL0     H58012   0.090  10.059   1.712  0.8780 -1.2200  0.7805
  430MOL0     H58013   0.115  10.119   1.551  2.0225 -2.8065 -1.3573
  430MOL0     H58014   0.006  10.564   1.926 -2.8194 -2.3119  0.3654
  430MOL0     H58015  -0.231  10.648   1.938 -0.8640  1.4143  0.7610
  430MOL0     H58016  -0.382  10.870   1.586  1.6364  1.4972  0.5884
  430MOL0     H58017  -0.488  10.722   1.622 -1.0864  1.9107 -1.6513
  430MOL0     H58018  -0.498  10.950   1.807  3.0422  2.0229 -0.9972
  430MOL0     H58019  -0.559  10.984   1.643 -0.2892 -1.1550  0.4148
  430MOL0     H58020  -0.664  10.768   1.821 -0.9620 -0.5680 -0.6475
  430MOL0     H58021  -0.704  10.790   1.652  2.9049  1.2505 -2.0487
  430MOL0     H58022  -0.739  11.016   1.866 -4.1400  0.4838  0.7742
  430MOL0     H58023  -0.833  11.005   1.717  0.0463  1.2767  1.4584
  430MOL0     H58024  -0.903  10.907   1.962 -0.7659 -1.3987  0.5205
  430MOL0     H58025  -0.887  10.761   1.865 -0.0754  0.5238 -0.8949
  430MOL0     H58026  -1.110  10.842   1.850  0.3604 -2.3483 -0.2109
  430MOL0     H58027  -1.064  10.994   1.785 -0.2182 -0.0469  3.8328
  430MOL0     H58028  -0.965  10.863   1.572 -1.0061  1.7569  0.3909
  430MOL0     H58029  -1.134  10.845   1.591  0.8334  2.2964 -0.3117
  430MOL0     H58030  -1.098  10.633   1.723  0.7174  1.4242 -0.0075
  430MOL0     H58031  -0.926  10.636   1.675 -0.2852 -1.4860  5.1320
  430MOL0     H58032  -0.211  10.728   1.511 -0.9490 -0.6415 -0.3757
  430MOL0     H58033   0.004  10.652   1.513 -0.3772  2.3770 -1.0151
  430MOL0     H58034   0.338  10.490   1.798 -1.5869 -0.2316  0.2221
  430MOL0     H58035   0.574  10.396   1.791  1.6367 -0.8707 -2.7193
  430MOL0     H58036   1.340  11.006   0.755 -0.8502 -0.2732  0.9584
  430MOL0     H58037   1.542  11.101   0.638  2.4585  1.8704  0.1568
  430MOL0     H58038   2.024  11.111   0.681  0.8304 -1.0066 -2.7287
  430MOL0     H58039   2.240  11.218   0.650  0.7399  0.9220 -1.7639
  430MOL0     H58040   2.389  11.610   0.569 -0.0931 -2.7084 -0.8788
  430MOL0     H58041   2.218  11.627   0.571  0.4252 -2.0980 -2.5430
  430MOL0     H58042   2.211  11.658   0.833  0.7728  0.8337  1.0722
  430MOL0     H58043   2.295  11.783   0.757  1.1295 -0.1475  0.2429
  430MOL0     H58044   2.399  11.536   0.896 -1.8149  0.2121  0.0368
  430MOL0     H58045   2.396  11.711   0.959  2.7386  1.9788 -0.9701
  430MOL0     H58046   2.576  11.614   0.734  2.4654  0.2055  0.9897
  430MOL0     H58047   2.621  11.639   0.900  0.0719 -0.8966  0.0314
  430MOL0     H58048   2.558  12.034   0.760  2.0404  0.4944  1.3901
  430MOL0     H58049   2.043  11.596   0.698 -1.2426 -0.5180 -0.1587
  430MOL0     H58050   1.841  11.515   0.686  0.6999  1.4811 -3.3913
  431MOL0     O58051   6.373  10.227   7.904  0.3082  0.0523  0.1119
  431MOL0     C58052   6.308  10.327   7.886  0.2604  0.0871 -0.2713
  431MOL0     O58053   6.329  10.444   7.944 -0.3582 -0.7527 -0.1800
  431MOL0     C58054   6.423  10.490   8.031  0.4392 -0.3673  0.0391
  431MOL0     C58055   6.512  10.403   8.100  0.5325  0.2423 -0.2097
  431MOL0     C58056   6.598  10.466   8.194  0.6452 -0.3877  0.4981
  431MOL0     C58057   6.615  10.606   8.201 -0.0371  0.2944 -1.1422
  431MOL0     O58058   6.706  10.659   8.283 -0.0883 -0.1288 -0.5170
  431MOL0     C58059   6.787  10.764   8.224  0.0584  0.3194 -0.0113
  431MOL0     C58060   6.884  10.831   8.314  0.6129  1.0792 -0.3240
  431MOL0     C58061   7.012  10.758   8.342  1.2299 -0.4236 -0.5368
  431MOL0     C58062   7.097  10.833   8.433  0.0945  0.9703 -0.7599
  431MOL0     C58063   7.222  10.763   8.469  0.7080  0.2537  0.0479
  431MOL0     C58064   7.309  10.836   8.577  0.1312  1.0063  0.4927
  431MOL0     C58065   7.461  10.792   8.560 -0.3816 -0.6225  0.1693
  431MOL0     C58066   7.556  10.909   8.570 -0.4710 -0.6562 -0.1113
  431MOL0     N58067   7.502  11.033   8.508  0.8462  0.1484 -0.2829
  431MOL0     C58068   7.493  11.064   8.375  0.1699  0.6400 -0.1294
  431MOL0     C58069   7.442  11.192   8.369 -0.0108 -0.0345  0.0808
  431MOL0     C58070   7.396  11.267   8.246  0.2504  0.5209  0.1356
  431MOL0     C58071   7.249  11.228   8.199 -0.0416 -0.5894 -0.4022
  431MOL0     C58072   7.260  11.100   8.117  0.1877 -0.1663  0.0143
  431MOL0     C58073   7.136  11.057   8.041  1.0712  0.0451 -0.3879
  431MOL0     O58074   7.014  11.103   8.101 -0.7570 -0.1806 -0.3310
  431MOL0     C58075   6.890  11.079   8.053 -0.0960 -0.5925 -0.6314
  431MOL0     C58076   6.854  11.019   7.932 -0.1604 -0.4342 -0.3389
  431MOL0     C58077   6.721  10.993   7.911  0.3956 -0.8850  0.1241
  431MOL0     C58078   6.684  10.923   7.790  0.8591  0.6281  0.4916
  431MOL0     C58079   6.620  11.026   8.006  0.4959 -0.6248  0.2498
  431MOL0     C58080   6.471  11.022   7.982  1.1854  0.7633  0.4878
  431MOL0     O58081   6.395  11.128   8.032 -0.0879 -0.2496  0.2696
  431MOL0     C58082   6.261  11.102   8.067 -0.2154 -0.6544  0.9264
  431MOL0     C58083   6.170  11.063   7.966 -0.3367  0.4903  0.0719
  431MOL0     C58084   6.037  11.059   7.996 -0.0516  0.0757  0.1970
  431MOL0     C58085   5.992  11.094   8.122  0.6784  0.5257  0.5597
  431MOL0     O58086   5.850  11.091   8.126 -0.2566 -0.3655  0.1914
  431MOL0     C58087   5.782  11.125   8.249  0.6722  0.2740 -0.3904
  431MOL0     C58088   5.625  11.091   8.254  0.1926 -0.8698  0.2877
  431MOL0     C58089   5.595  10.987   8.152 -0.2496  0.6212 -0.0393
  431MOL0     C58090   5.447  10.931   8.155 -0.2915 -0.3732  0.0857
  431MOL0     C58091   5.430  10.783   8.116 -0.2448 -0.9014  0.5405
  431MOL0     C58092   5.287  10.725   8.126  0.8234  0.4437 -0.0210
  431MOL0     C58093   5.192  10.746   8.011 -0.0831  0.0686 -0.2029
  431MOL0     C58094   5.041  10.734   8.054 -0.1447  0.8588 -0.1963
  431MOL0    Cl58095   4.934  10.762   7.918  0.1217 -0.5389  0.3750
  431MOL0     C58096   6.081  11.119   8.221  0.5820  0.4538  0.3148
  431MOL0     C58097   6.218  11.126   8.195 -1.3976  0.6411 -0.5539
  431MOL0     O58098   6.434  10.909   7.949  0.3026 -0.4794  0.0376
  431MOL0     C58099   6.653  11.091   8.125  0.0338 -0.0178  0.9831
  431MOL0     C58100   6.789  11.120   8.144 -0.3254  0.1268  0.9052
  431MOL0     N58101   7.413  11.226   8.496 -0.2723 -0.5863 -0.4750
  431MOL0     N58102   7.447  11.135   8.578 -0.2608 -0.4603  0.6043
  431MOL0     C58103   6.524  10.680   8.124 -0.1654 -0.4728  0.7070
  431MOL0     C58104   6.430  10.627   8.043 -0.0320  0.5798 -0.7158
  431MOL0     C58105   6.203  10.311   7.784 -0.0484 -0.3908  0.0626
  431MOL0     C58106   6.211  10.220   7.674 -0.6228 -0.5382 -0.8807
  431MOL0     C58107   6.119  10.208   7.572  0.0147  0.5002 -0.0861
  431MOL0     C58108   6.021  10.297   7.564 -0.5310  0.3516 -0.0295
  431MOL0     O58109   5.950  10.301   7.445 -0.0774  0.6042  0.1063
  431MOL0     C58110   5.879  10.423   7.414  0.0210 -0.4522 -0.6600
  431MOL0     C58111   5.802  10.393   7.290  0.2185 -0.6966 -0.5273
  431MOL0     C58112   5.713  10.518   7.255 -0.6887  0.6587  0.4042
  431MOL0     C58113   5.729  10.541   7.099 -0.3155 -0.3136  1.5067
  431MOL0     C58114   5.642  10.647   7.071 -0.8261  0.7701  1.2465
  431MOL0     C58115   5.575  10.748   7.048 -0.7488 -0.5623  0.4167
  431MOL0     C58116   6.008  10.399   7.663 -0.0422 -1.3247 -0.2439
  431MOL0     C58117   6.095  10.400   7.773  0.6834  0.3348 -0.3748
  431MOL0     H58118   6.508  10.295   8.085  2.7987  0.0192  0.4637
  431MOL0     H58119   6.670  10.411   8.255 -0.3621 -0.3180  1.7931
  431MOL0     H58120   6.832  10.728   8.131  0.6454  1.3902 -0.1585
  431MOL0     H58121   6.725  10.849   8.193 -1.3052 -1.2694 -1.9998
  431MOL0     H58122   6.914  10.930   8.278  1.9826  1.2413  1.1457
  431MOL0     H58123   6.823  10.847   8.404 -2.1604 -1.2049 -1.6321
  431MOL0     H58124   6.978  10.664   8.385 -2.3424  0.9059 -0.1302
  431MOL0     H58125   7.067  10.746   8.248  0.3609 -0.6115 -1.0324
  431MOL0     H58126   7.115  10.926   8.377  1.6902 -0.0813 -2.0889
  431MOL0     H58127   7.035  10.849   8.522  0.6541  1.9082 -0.5212
  431MOL0     H58128   7.189  10.668   8.513 -0.2679  1.1824  1.3932
  431MOL0     H58129   7.279  10.761   8.375  0.4321  2.2444 -0.2064
  431MOL0     H58130   7.294  10.944   8.570 -0.4032  0.9895  1.2532
  431MOL0     H58131   7.298  10.807   8.682 -1.4883  1.1048  0.3698
  431MOL0     H58132   7.490  10.706   8.621 -1.8870 -0.7996  0.6651
  431MOL0     H58133   7.469  10.756   8.456 -3.6193  1.9570 -1.1361
  431MOL0     H58134   7.649  10.879   8.521 -0.7840 -0.1865 -1.0052
  431MOL0     H58135   7.581  10.941   8.672  0.1845 -2.0572  0.1925
  431MOL0     H58136   7.532  10.999   8.297  5.4735 -0.6180  3.0271
  431MOL0     H58137   7.409  11.368   8.285  2.3690  0.8598 -1.2724
  431MOL0     H58138   7.470  11.260   8.166 -1.4755 -2.5285 -1.3782
  431MOL0     H58139   7.225  11.315   8.137  1.9591 -1.6507 -2.8286
  431MOL0     H58140   7.178  11.220   8.282 -0.4162 -1.3521 -0.7841
  431MOL0     H58141   7.292  11.015   8.178 -1.1642 -2.4134 -2.2310
  431MOL0     H58142   7.341  11.106   8.044 -0.4490  0.4972 -0.6654
  431MOL0     H58143   7.134  10.948   8.039  2.4636 -0.3934  5.2394
  431MOL0     H58144   7.142  11.113   7.947  0.3684 -0.5023 -0.7657
  431MOL0     H58145   6.928  11.003   7.854 -0.8225 -0.1070 -1.0481
  431MOL0     H58146   6.647  10.821   7.805 -0.0204  0.9470  0.5998
  431MOL0     H58147   6.607  10.969   7.727 -0.6709  0.5702  2.2473
  431MOL0     H58148   6.771  10.901   7.727 -0.2554 -2.7169 -0.0563
  431MOL0     H58149   6.216  11.037   7.871  0.0668 -2.9688  1.1072
  431MOL0     H58150   5.968  11.030   7.916  2.7121 -0.3094 -2.2013
  431MOL0     H58151   5.826  11.067   8.331 -0.2343 -0.4298 -0.3826
  431MOL0     H58152   5.793  11.232   8.271 -1.8410  0.7440 -1.1072
  431MOL0     H58153   5.583  11.066   8.352  0.0501 -0.1117  0.4191
  431MOL0     H58154   5.572  11.181   8.223  1.5647 -0.3723 -0.6993
  431MOL0     H58155   5.671  10.910   8.163 -0.8610  0.2019  1.5175
  431MOL0     H58156   5.601  11.031   8.052 -1.4476 -0.1210 -0.4701
  431MOL0     H58157   5.399  10.942   8.253 -0.9719  3.2873 -0.5245
  431MOL0     H58158   5.386  10.985   8.082  1.6882  1.1050 -0.5689
  431MOL0     H58159   5.493  10.721   8.180  0.0664 -3.5648 -2.1250
  431MOL0     H58160   5.467  10.764   8.015 -0.0877 -0.4831  0.5167
  431MOL0     H58161   5.279  10.619   8.151  0.7568  0.4760  0.0914
  431MOL0     H58162   5.241  10.780   8.208 -0.0157  4.3169 -2.8105
  431MOL0     H58163   5.218  10.680   7.928  1.2140  0.4477 -0.1175
  431MOL0     H58164   5.203  10.849   7.976  0.1295 -0.4568 -1.7381
  431MOL0     H58165   5.020  10.820   8.118  1.2870  1.1720 -0.1049
  431MOL0     H58166   5.023  10.642   8.110 -0.3228  2.4128  2.4767
  431MOL0     H58167   6.047  11.129   8.324 -0.9487 -0.3381 -0.1004
  431MOL0     H58168   6.283  11.142   8.281 -1.9318 -0.1853  0.0240
  431MOL0     H58169   6.578  11.117   8.198 -0.1479 -2.5016  1.7565
  431MOL0     H58170   6.807  11.166   8.240 -2.7140  0.2841  1.3396
  431MOL0     H58171   6.526  10.788   8.135 -1.0627 -0.4722  0.8976
  431MOL0     H58172   6.354  10.675   7.981 -0.5571 -0.8394 -1.1962
  431MOL0     H58173   6.289  10.144   7.669 -1.6996 -1.9001  1.5015
  431MOL0     H58174   6.116  10.133   7.493 -2.4742 -1.8338  1.9996
  431MOL0     H58175   5.809  10.440   7.496  2.3962 -0.3598  1.4652
  431MOL0     H58176   5.949  10.505   7.394  0.4308 -0.3488  1.0001
  431MOL0     H58177   5.746  10.301   7.307  0.4854 -1.0312 -1.4006
  431MOL0     H58178   5.875  10.376   7.210  0.0281  0.6377 -1.0129
  431MOL0     H58179   5.740  10.609   7.310 -1.1815 -0.0337  1.8348
  431MOL0     H58180   5.610  10.511   7.290 -2.4419  2.6943 -3.6496
  431MOL0     H58181   5.712  10.442   7.054  2.1357  0.6787 -2.0408
  431MOL0     H58182   5.828  10.580   7.075 -0.9676  2.4101  2.8359
  431MOL0     H58183   5.517  10.835   7.028 -1.0191 -0.9500 -0.5558
  431MOL0     H58184   5.938  10.482   7.663 -0.0271 -1.2891 -1.5603
  431MOL0     H58185   6.087  10.468   7.857  0.2861  2.0976 -1.7836
  432MOL0     O58186   6.165   8.527  10.600 -0.6224 -0.0156 -0.2586
  432MOL0     C58187   6.104   8.497  10.503  0.1823  1.3951  0.5063
  432MOL0     O58188   6.159   8.472  10.378 -0.2203 -0.4033  0.5094
  432MOL0     C58189   6.295   8.483  10.368  0.2880  0.9469 -0.3418
  432MOL0     C58190   6.372   8.390  10.445  0.1866 -0.8779 -0.7439
  432MOL0     C58191   6.516   8.396  10.427  0.0853  0.8620  0.2292
  432MOL0     C58192   6.576   8.481  10.333  0.1575 -0.7143 -0.1583
  432MOL0     O58193   6.711   8.473  10.325  0.0652  0.7285  0.8202
  432MOL0     C58194   6.781   8.594  10.335  0.7631 -0.1168  0.8534
  432MOL0     C58195   6.900   8.546  10.405 -0.0166  0.1964  0.2314
  432MOL0     C58196   7.000   8.666  10.433 -0.1355 -0.3505 -0.0572
  432MOL0     C58197   6.935   8.763  10.535 -0.4088  1.3982  0.1486
  432MOL0     C58198   7.031   8.882  10.558 -0.0786 -0.1475  0.2182
  432MOL0     C58199   7.008   8.964  10.682  0.3417 -0.6002 -0.5727
  432MOL0     C58200   6.866   9.030  10.697 -0.1240  0.7729  0.2969
  432MOL0     C58201   6.818   9.132  10.586  0.2217  0.3292 -0.2827
  432MOL0     N58202   6.722   9.078  10.489  0.0354  0.1020 -0.7886
  432MOL0     C58203   6.593   9.043  10.528  0.6713 -0.9435  0.4251
  432MOL0     C58204   6.528   9.015  10.415 -0.3644 -0.6073  0.5828
  432MOL0     C58205   6.382   8.987  10.398  0.1380 -0.9644 -0.1280
  432MOL0     C58206   6.330   8.878  10.496 -0.6505 -0.8241 -0.3772
  432MOL0     C58207   6.286   8.926  10.637 -0.8012  0.2357 -0.3707
  432MOL0     C58208   6.195   8.818  10.701 -0.2004  0.7164  0.2863
  432MOL0     O58209   6.115   8.867  10.805 -0.0238  0.0384  0.3943
  432MOL0     C58210   5.986   8.890  10.776 -0.0749  0.1630 -0.3646
  432MOL0     C58211   5.940   8.937  10.651 -0.1286  0.5348  0.8786
  432MOL0     C58212   5.809   8.947  10.619 -0.0745  0.1218 -0.1733
  432MOL0     C58213   5.776   8.981  10.479  0.2106 -0.1804 -0.3882
  432MOL0     C58214   5.706   8.929  10.721  0.0147 -0.6652 -0.4935
  432MOL0     C58215   5.564   8.934  10.696 -0.3055  0.0501 -0.5263
  432MOL0     O58216   5.476   8.900  10.800 -0.1681  0.2388 -0.0176
  432MOL0     C58217   5.342   8.892  10.798  0.6325 -0.3360  1.0790
  432MOL0     C58218   5.282   8.847  10.910 -0.2959  0.0789 -0.2551
  432MOL0     C58219   5.139   8.840  10.914 -0.0950 -1.0158  0.4113
  432MOL0     C58220   5.066   8.870  10.796  0.4107 -0.2761 -0.5796
  432MOL0     O58221   4.927   8.841  10.801 -0.8164 -0.5246  0.4385
  432MOL0     C58222   4.828   8.953  10.832 -0.7784  0.1096  0.3256
  432MOL0     C58223   4.698   8.875  10.852  0.1159 -0.1807 -0.8680
  432MOL0     C58224   4.586   8.981  10.867 -0.2492  0.5998  1.0442
  432MOL0     C58225   4.456   8.935  10.945  0.4701  0.4780  0.1416
  432MOL0     C58226   4.378   9.056  10.998  0.3978  0.0920  0.1743
  432MOL0     C58227   4.243   9.004  11.056 -0.1342 -0.3702  0.2496
  432MOL0     C58228   4.160   9.121  11.110 -0.0045 -0.3145  0.2837
  432MOL0     C58229   4.019   9.086  11.163 -0.1308  0.2399  0.4109
  432MOL0    Cl58230   4.026   9.044  11.341  0.1666  0.0846 -0.4076
  432MOL0     C58231   5.125   8.914  10.685 -0.3816 -0.1274  0.0338
  432MOL0     C58232   5.261   8.932  10.689 -0.3031 -0.0765  0.3964
  432MOL0     O58233   5.530   8.961  10.584  0.1024 -0.3385  0.6075
  432MOL0     C58234   5.751   8.898  10.853 -0.5666  0.0611  0.7115
  432MOL0     C58235   5.890   8.869  10.873 -0.2135 -0.1601 -0.2296
  432MOL0     N58236   6.626   9.006  10.316  0.9868 -0.2946 -0.4280
  432MOL0     N58237   6.743   9.054  10.355 -0.1140 -0.2675 -0.0034
  432MOL0     C58238   6.500   8.575  10.262 -0.4343  0.0004 -0.2282
  432MOL0     C58239   6.362   8.573  10.274  0.7927  0.9534 -0.5771
  432MOL0     C58240   5.957   8.496  10.503 -0.3549 -0.2575 -0.0026
  432MOL0     C58241   5.883   8.538  10.614 -0.0136 -1.3078  0.6815
  432MOL0     C58242   5.742   8.540  10.614  0.2100 -0.4419  0.7004
  432MOL0     C58243   5.664   8.503  10.501 -0.0944 -0.3841 -0.3617
  432MOL0     O58244   5.525   8.495  10.502 -0.0166  0.7065  0.1931
  432MOL0     C58245   5.453   8.597  10.572  0.1429 -0.8127  0.8004
  432MOL0     C58246   5.304   8.568  10.587  0.0762  1.2582 -1.3948
  432MOL0     C58247   5.236   8.660  10.485  0.4153 -0.5703 -0.8204
  432MOL0     C58248   5.252   8.633  10.329  0.0267 -0.3233 -0.4276
  432MOL0     C58249   5.214   8.498  10.292  0.7562  0.3838  0.4259
  432MOL0     C58250   5.161   8.396  10.262 -0.2967 -0.3232  0.2505
  432MOL0     C58251   5.735   8.452  10.395 -0.1661 -0.0328 -1.3003
  432MOL0     C58252   5.875   8.442  10.398 -0.6132  0.3592  0.0300
  432MOL0     H58253   6.314   8.325  10.510 -1.2407 -0.1554 -1.2451
  432MOL0     H58254   6.579   8.333  10.489 -2.9056 -1.0399  1.5922
  432MOL0     H58255   6.801   8.629  10.234 -0.3861 -3.0295 -0.4890
  432MOL0     H58256   6.727   8.668  10.395 -0.0764 -1.3609  1.6855
  432MOL0     H58257   6.870   8.496  10.498 -1.4518 -3.8554 -2.1705
  432MOL0     H58258   6.949   8.466  10.349 -1.6271 -0.0441 -0.8949
  432MOL0     H58259   7.098   8.635  10.470  0.9288  2.8818  0.1575
  432MOL0     H58260   7.014   8.719  10.339 -0.2902  2.3453  1.3189
  432MOL0     H58261   6.843   8.799  10.489 -0.7892  0.9411  0.5386
  432MOL0     H58262   6.918   8.713  10.631  0.2673  0.5074 -0.1848
  432MOL0     H58263   7.135   8.848  10.564 -0.5792 -1.7809  0.2246
  432MOL0     H58264   7.028   8.946  10.470  4.5427 -0.1234 -0.2047
  432MOL0     H58265   7.030   8.903  10.770 -1.0718 -1.1651 -0.5813
  432MOL0     H58266   7.089   9.037  10.677 -1.2028  1.1698 -0.7139
  432MOL0     H58267   6.780   8.966  10.719  0.4417  0.0833  0.5383
  432MOL0     H58268   6.890   9.093  10.783  2.2404 -3.5400  3.2085
  432MOL0     H58269   6.906   9.165  10.530 -0.1637 -0.6709 -1.5158
  432MOL0     H58270   6.767   9.220  10.626  1.4914  1.7442 -1.6090
  432MOL0     H58271   6.556   9.045  10.630 -0.7075 -0.5740 -0.0520
  432MOL0     H58272   6.339   9.085  10.416 -2.1769 -2.1660  1.4458
  432MOL0     H58273   6.354   8.969  10.294 -1.5684 -0.3595  0.1879
  432MOL0     H58274   6.403   8.798  10.501  1.5311  1.0980  3.2757
  432MOL0     H58275   6.243   8.832  10.448 -2.0878  1.5562 -0.2616
  432MOL0     H58276   6.237   9.022  10.619  0.2860  0.9325  0.2894
  432MOL0     H58277   6.375   8.941  10.698 -2.0433  2.1171  1.1279
  432MOL0     H58278   6.248   8.733  10.746 -0.7257  1.0394  1.5479
  432MOL0     H58279   6.140   8.773  10.618  1.3568 -2.6666  0.8863
  432MOL0     H58280   6.017   8.954  10.577  0.0010 -0.1035  0.8617
  432MOL0     H58281   5.724   8.893  10.441 -0.7471 -0.0789  0.6314
  432MOL0     H58282   5.706   9.063  10.467 -0.3255 -0.6156 -0.2834
  432MOL0     H58283   5.868   8.997  10.422  0.4448  0.2225  0.0990
  432MOL0     H58284   5.334   8.813  10.998 -2.2758 -1.2565  0.4810
  432MOL0     H58285   5.090   8.803  11.003 -0.9731 -1.9909 -0.4439
  432MOL0     H58286   4.849   8.993  10.931 -2.1502 -1.8182  1.4771
  432MOL0     H58287   4.814   9.021  10.747 -1.1586  0.4632  0.6700
  432MOL0     H58288   4.666   8.801  10.778 -0.9928  0.4264 -1.0201
  432MOL0     H58289   4.702   8.832  10.952  0.7508 -0.7239 -1.1200
  432MOL0     H58290   4.570   9.019  10.766  1.0842 -2.9528 -0.6760
  432MOL0     H58291   4.632   9.058  10.930  0.7851  1.2974 -0.4917
  432MOL0     H58292   4.391   8.873  10.883 -0.4503  0.0403  1.4997
  432MOL0     H58293   4.474   8.869  11.031  0.6405 -1.9718 -1.6811
  432MOL0     H58294   4.347   9.115  10.911 -0.8548 -0.7211  0.0372
  432MOL0     H58295   4.443   9.118  11.060 -0.0509 -1.2451  2.0816
  432MOL0     H58296   4.187   8.964  10.971 -2.4511  0.6203  1.2242
  432MOL0     H58297   4.264   8.919  11.122  0.6774  0.4501  1.0665
  432MOL0     H58298   4.150   9.190  11.025 -0.0770 -0.6092  0.0514
  432MOL0     H58299   4.210   9.182  11.186 -0.1910  0.3771 -0.1357
  432MOL0     H58300   3.966   9.010  11.104 -0.6407 -0.6879  1.9866
  432MOL0     H58301   3.956   9.175  11.171 -0.6405 -0.1571  0.9401
  432MOL0     H58302   5.069   8.922  10.593 -2.5696 -1.6063  1.1298
  432MOL0     H58303   5.311   8.978  10.604  1.9182 -1.4765  0.8509
  432MOL0     H58304   5.687   8.861  10.934 -0.9080  3.0466  1.9277
  432MOL0     H58305   5.921   8.823  10.967  1.6702  0.1966 -0.6382
  432MOL0     H58306   6.542   8.647  10.193 -3.6615  3.1413  0.7990
  432MOL0     H58307   6.310   8.642  10.209 -0.0681  2.5878  1.7208
  432MOL0     H58308   5.942   8.566  10.701 -2.0394  0.5957  1.5429
  432MOL0     H58309   5.682   8.568  10.701  1.1450  0.7904  0.9753
  432MOL0     H58310   5.491   8.608  10.674 -0.6492  1.7126  0.8898
  432MOL0     H58311   5.465   8.692  10.518 -1.8872 -0.1926  1.3874
  432MOL0     H58312   5.265   8.594  10.686 -2.1033  0.2099 -1.9180
  432MOL0     H58313   5.281   8.463  10.571 -2.4964  1.6042 -0.3850
  432MOL0     H58314   5.269   8.763  10.502  2.6059 -1.4183  0.4774
  432MOL0     H58315   5.127   8.655  10.495  0.4425 -0.0952 -0.2297
  432MOL0     H58316   5.357   8.646  10.300 -0.5289  3.2647 -1.4010
  432MOL0     H58317   5.193   8.701  10.267  0.8436 -1.2243 -2.2955
  432MOL0     H58318   5.136   8.295  10.237 -1.6721  0.5899 -2.3826
  432MOL0     H58319   5.682   8.406  10.312  0.0859 -1.0349 -0.9160
  432MOL0     H58320   5.917   8.391  10.312 -0.2154  2.0593 -0.8272
  433MOL0     O58321   6.113   8.298   2.254 -1.8269  0.6283  0.3770
  433MOL0     C58322   6.091   8.303   2.130  1.2138 -0.5784 -0.3927
  433MOL0     O58323   6.008   8.394   2.074 -0.2713 -0.7414  0.3991
  433MOL0     C58324   5.919   8.469   2.152  0.2053 -0.3393 -0.8460
  433MOL0     C58325   5.869   8.582   2.084 -0.0226 -0.2634 -0.1503
  433MOL0     C58326   5.757   8.651   2.133 -0.4033 -0.5393  0.3511
  433MOL0     C58327   5.703   8.627   2.256  0.6227  0.1724 -0.1318
  433MOL0     O58328   5.612   8.716   2.302  0.2940  0.4998 -0.3714
  433MOL0     C58329   5.531   8.683   2.419 -0.1275 -0.1496  0.6967
  433MOL0     C58330   5.415   8.781   2.432  0.4443 -0.0515 -0.2627
  433MOL0     C58331   5.348   8.785   2.567  0.5059  1.5720 -0.3172
  433MOL0     C58332   5.317   8.640   2.623 -0.6011  0.0310  0.5460
  433MOL0     C58333   5.213   8.639   2.731 -0.7158  1.0115  0.0307
  433MOL0     C58334   5.064   8.653   2.698  0.4666 -0.5730  0.2316
  433MOL0     C58335   4.987   8.620   2.815  0.3591 -0.3011 -0.3302
  433MOL0     C58336   4.844   8.616   2.788  0.5101 -0.4558  0.0608
  433MOL0     N58337   4.754   8.566   2.890 -0.8711  0.4540  0.2228
  433MOL0     C58338   4.761   8.445   2.958 -0.3645 -0.2452 -0.3387
  433MOL0     C58339   4.659   8.457   3.051  0.4563  0.0818 -0.1568
  433MOL0     C58340   4.606   8.355   3.149  0.4805  0.6663 -0.3860
  433MOL0     C58341   4.477   8.395   3.223 -0.4059  0.7484 -0.3523
  433MOL0     C58342   4.351   8.373   3.146  0.7958  0.6590  1.1183
  433MOL0     C58343   4.231   8.444   3.210 -0.1169 -0.2283  0.9180
  433MOL0     O58344   4.108   8.435   3.129 -0.3748 -0.1502 -0.7422
  433MOL0     C58345   3.995   8.502   3.166  0.3712 -0.5106 -0.8559
  433MOL0     C58346   3.903   8.532   3.069 -0.3513  0.1340  0.3161
  433MOL0     C58347   3.774   8.580   3.100  0.1597 -0.4161 -0.1853
  433MOL0     C58348   3.686   8.603   2.985  0.6685 -0.7282  0.4350
  433MOL0     C58349   3.737   8.609   3.234  0.8132 -0.4854 -0.2407
  433MOL0     C58350   3.603   8.668   3.281  0.3025 -1.0486 -0.0446
  433MOL0     O58351   3.494   8.653   3.197 -0.0665 -0.7864  0.0913
  433MOL0     C58352   3.365   8.666   3.244 -0.0230  0.8444  1.4987
  433MOL0     C58353   3.317   8.613   3.370 -0.7623  0.1764 -0.2091
  433MOL0     C58354   3.186   8.630   3.425 -0.6219  0.6212  0.0471
  433MOL0     C58355   3.098   8.713   3.341 -0.2734 -0.3901  0.1825
  433MOL0     O58356   2.971   8.730   3.371 -0.1207  0.4169 -0.2187
  433MOL0     C58357   2.929   8.764   3.505  0.1169 -0.4484  0.6274
  433MOL0     C58358   2.786   8.697   3.512 -0.0262  0.4014 -0.1071
  433MOL0     C58359   2.726   8.709   3.654 -0.6430  0.6641  0.7160
  433MOL0     C58360   2.610   8.604   3.689 -0.9448 -0.7233  0.5894
  433MOL0     C58361   2.486   8.639   3.611 -1.2089 -0.7177 -0.6490
  433MOL0     C58362   2.373   8.546   3.636 -0.8425 -0.9618  0.3560
  433MOL0     C58363   2.302   8.570   3.775 -1.4017  0.0660  0.9709
  433MOL0     C58364   2.286   8.440   3.846  0.7110  0.4224 -0.1507
  433MOL0    Cl58365   2.429   8.353   3.888 -0.2924 -0.3284  0.0939
  433MOL0     C58366   3.150   8.763   3.214 -0.2176 -0.5007 -0.2594
  433MOL0     C58367   3.275   8.741   3.166 -1.3591 -1.3257 -0.0022
  433MOL0     O58368   3.595   8.698   3.400 -0.4167 -0.5347  0.6916
  433MOL0     C58369   3.832   8.580   3.334  0.4686 -0.0528  0.3414
  433MOL0     C58370   3.961   8.531   3.296  0.0214 -0.8244  0.7289
  433MOL0     N58371   4.596   8.586   3.023 -0.1007  1.1405  0.1603
  433MOL0     N58372   4.653   8.642   2.932 -0.1257 -0.7119  0.2469
  433MOL0     C58373   5.759   8.522   2.335  0.1384 -0.0669  0.2567
  433MOL0     C58374   5.852   8.430   2.276 -0.1883 -0.0095  0.6167
  433MOL0     C58375   6.153   8.200   2.040 -0.0274 -0.6890 -0.3366
  433MOL0     C58376   6.147   8.205   1.901 -0.1240 -0.6884  0.1574
  433MOL0     C58377   6.216   8.111   1.829 -0.1038  0.6420  0.1654
  433MOL0     C58378   6.274   8.003   1.881 -0.3941  0.1805 -0.1802
  433MOL0     O58379   6.329   7.904   1.799 -0.5766  0.2897  0.1639
  433MOL0     C58380   6.393   7.782   1.850 -1.6718  1.0651 -0.1127
  433MOL0     C58381   6.413   7.685   1.731  0.4700 -0.3072  0.9894
  433MOL0     C58382   6.504   7.737   1.616  0.8543 -0.4498  0.9516
  433MOL0     C58383   6.631   7.810   1.665 -0.2566 -0.1581 -0.5308
  433MOL0     C58384   6.728   7.806   1.551  0.2759  0.7078  0.7511
  433MOL0     C58385   6.805   7.812   1.457 -0.3466  0.2920  0.8472
  433MOL0     C58386   6.271   7.986   2.021 -0.5089  0.0960 -0.0900
  433MOL0     C58387   6.217   8.087   2.096 -0.3646  0.3092  0.6123
  433MOL0     H58388   5.917   8.595   1.987  0.4883 -1.2069 -0.0332
  433MOL0     H58389   5.726   8.733   2.070  1.9589  0.1519 -0.0047
  433MOL0     H58390   5.491   8.582   2.407  1.4091 -0.5847 -1.4357
  433MOL0     H58391   5.602   8.685   2.502  2.9325 -1.9915 -1.6521
  433MOL0     H58392   5.444   8.884   2.408  0.5475 -0.0033  0.0588
  433MOL0     H58393   5.327   8.762   2.370 -1.5692  0.5093  2.2839
  433MOL0     H58394   5.415   8.837   2.636 -1.0096 -0.2901  2.7813
  433MOL0     H58395   5.258   8.847   2.563 -0.3005  0.4097 -0.5746
  433MOL0     H58396   5.284   8.571   2.545 -2.5341  5.0817 -3.7083
  433MOL0     H58397   5.414   8.601   2.656 -0.9564  0.2806  1.9792
  433MOL0     H58398   5.227   8.542   2.779  1.4646  0.0918 -2.2538
  433MOL0     H58399   5.242   8.715   2.805  0.2314 -0.6895  1.4841
  433MOL0     H58400   5.034   8.748   2.654 -2.6060 -2.3868 -1.9250
  433MOL0     H58401   5.036   8.572   2.630  1.2750 -2.1193  1.6430
  433MOL0     H58402   5.020   8.524   2.858  1.2931 -1.4664 -3.3670
  433MOL0     H58403   5.008   8.701   2.886 -0.0694 -0.2867 -0.2154
  433MOL0     H58404   4.828   8.562   2.694  0.0628  0.3183 -0.3111
  433MOL0     H58405   4.805   8.717   2.778 -2.1566 -1.3138  0.9329
  433MOL0     H58406   4.840   8.370   2.960 -0.5394 -0.4612  2.1839
  433MOL0     H58407   4.581   8.258   3.105 -2.3434  0.7496  0.8346
  433MOL0     H58408   4.682   8.338   3.226  2.4612  2.3366 -1.8560
  433MOL0     H58409   4.480   8.500   3.251  0.0328  1.0381 -1.4427
  433MOL0     H58410   4.467   8.342   3.318  3.4795  2.3124  1.1488
  433MOL0     H58411   4.331   8.266   3.143  2.6397  0.2845 -1.2304
  433MOL0     H58412   4.359   8.416   3.046  1.8971 -0.7269  0.5816
  433MOL0     H58413   4.257   8.549   3.230  0.2236 -0.5912  2.4755
  433MOL0     H58414   4.204   8.408   3.310  2.8883 -1.5120  1.3611
  433MOL0     H58415   3.920   8.515   2.963  1.1476 -0.5739  0.6387
  433MOL0     H58416   3.622   8.515   2.974  0.9610 -1.0341  1.1179
  433MOL0     H58417   3.632   8.698   2.992 -0.5279 -1.3637  0.1412
  433MOL0     H58418   3.749   8.616   2.896  3.5749  2.0003  2.6996
  433MOL0     H58419   3.379   8.544   3.428 -2.3538 -4.4360 -3.4466
  433MOL0     H58420   3.154   8.586   3.519 -1.3304 -0.2639 -0.5880
  433MOL0     H58421   3.003   8.735   3.580  0.7732  1.1743  0.6304
  433MOL0     H58422   2.926   8.873   3.504 -0.9624 -0.4627 -1.0613
  433MOL0     H58423   2.723   8.754   3.443  0.0074 -0.8282 -1.1812
  433MOL0     H58424   2.786   8.595   3.473  0.6281  1.1268 -2.1175
  433MOL0     H58425   2.685   8.810   3.664 -0.8668  0.8191 -1.2594
  433MOL0     H58426   2.799   8.678   3.729 -0.6331 -0.1405  0.3836
  433MOL0     H58427   2.636   8.499   3.672 -0.6126 -0.6657  0.7313
  433MOL0     H58428   2.599   8.605   3.798  0.1830 -2.1239  0.7420
  433MOL0     H58429   2.511   8.627   3.506  3.3801 -0.4667  0.2203
  433MOL0     H58430   2.456   8.742   3.633  0.9716 -0.5449  2.1225
  433MOL0     H58431   2.295   8.566   3.562 -0.1134  0.9152  0.0281
  433MOL0     H58432   2.408   8.443   3.628  2.0870  0.0202 -0.6981
  433MOL0     H58433   2.207   8.617   3.752 -1.1772 -0.2091 -0.6150
  433MOL0     H58434   2.348   8.641   3.845 -0.9819  1.3292 -0.5401
  433MOL0     H58435   2.220   8.376   3.787  2.4281 -0.8580 -0.7657
  433MOL0     H58436   2.243   8.459   3.945 -0.5272  1.5990 -0.8702
  433MOL0     H58437   3.092   8.835   3.158 -0.0029 -0.6469 -0.6693
  433MOL0     H58438   3.303   8.776   3.067  1.5062 -2.0715  0.4543
  433MOL0     H58439   3.825   8.597   3.441  1.4160  0.1032  0.3855
  433MOL0     H58440   4.032   8.524   3.378  1.6710 -2.1122 -0.7471
  433MOL0     H58441   5.717   8.508   2.435  0.7424  3.2481  1.0883
  433MOL0     H58442   5.890   8.347   2.335 -3.2324 -2.0229 -0.0242
  433MOL0     H58443   6.091   8.281   1.849  3.4274 -0.3653 -3.7515
  433MOL0     H58444   6.217   8.116   1.721  1.1033  1.5920  0.1962
  433MOL0     H58445   6.488   7.821   1.887 -1.8499  0.1397  1.3807
  433MOL0     H58446   6.348   7.726   1.932  1.1672 -0.8509  0.2716
  433MOL0     H58447   6.318   7.651   1.688  1.7648 -0.4644 -1.9862
  433MOL0     H58448   6.466   7.596   1.766  5.7276  1.3879 -1.7038
  433MOL0     H58449   6.441   7.807   1.560  2.3582  1.8352  1.9671
  433MOL0     H58450   6.534   7.659   1.546  0.3279 -1.0802  1.4194
  433MOL0     H58451   6.681   7.766   1.752 -1.8834 -0.4763  0.3059
  433MOL0     H58452   6.605   7.914   1.690 -0.5029 -0.8525  2.4969
  433MOL0     H58453   6.887   7.822   1.389 -1.0895  0.1566 -0.0891
  433MOL0     H58454   6.309   7.896   2.069 -0.5467 -1.1629 -2.2703
  433MOL0     H58455   6.221   8.091   2.204  0.1062  2.5559  0.5447
  434MOL0     O58456   4.885  10.757   0.990 -0.4727  0.4823  0.6273
  434MOL0     C58457   4.957  10.865   0.991 -0.1625 -0.1006 -0.1277
  434MOL0     O58458   4.923  10.976   1.063 -0.4221  1.4914  0.1398
  434MOL0     C58459   4.802  10.975   1.125  0.0374  0.8460 -0.5179
  434MOL0     C58460   4.681  11.000   1.057 -0.5127  0.6690 -0.6546
  434MOL0     C58461   4.557  11.016   1.125 -0.7044  0.5398  0.1741
  434MOL0     C58462   4.552  10.983   1.262 -0.1940  0.2840 -1.0634
  434MOL0     O58463   4.426  10.994   1.316 -0.4579 -0.2606  0.2371
  434MOL0     C58464   4.393  10.930   1.438  0.4452 -0.0814 -0.0521
  434MOL0     C58465   4.241  10.901   1.459 -0.5355  0.8016 -0.0953
  434MOL0     C58466   4.191  10.804   1.352 -0.6278  0.3912 -0.3089
  434MOL0     C58467   4.041  10.813   1.341 -0.0152 -0.0542 -0.4849
  434MOL0     C58468   3.958  10.749   1.454 -0.0225  0.3074 -0.2817
  434MOL0     C58469   3.819  10.707   1.413 -0.2336 -0.3870  0.1939
  434MOL0     C58470   3.732  10.642   1.520  0.1136  0.1217 -0.7895
  434MOL0     C58471   3.685  10.747   1.624  0.1780  0.7219  0.3368
  434MOL0     N58472   3.548  10.742   1.665 -0.1188  0.5702 -1.0183
  434MOL0     C58473   3.449  10.826   1.636 -0.6161  0.0365  0.3525
  434MOL0     C58474   3.350  10.794   1.714 -0.6028 -0.3922  0.6156
  434MOL0     C58475   3.221  10.868   1.717  0.4206 -0.3749 -0.4649
  434MOL0     C58476   3.129  10.817   1.606  1.0919  0.3404 -0.0699
  434MOL0     C58477   3.088  10.663   1.615  0.7216 -0.2840  0.5537
  434MOL0     C58478   3.014  10.620   1.745 -0.1349 -0.7375  0.8572
  434MOL0     O58479   2.916  10.721   1.776 -0.4636 -0.5043 -0.0833
  434MOL0     C58480   2.788  10.693   1.813 -0.6626 -0.0244  0.7589
  434MOL0     C58481   2.694  10.792   1.805 -0.1067  0.2918 -0.4342
  434MOL0     C58482   2.561  10.768   1.824 -0.5527  0.1560 -1.2256
  434MOL0     C58483   2.477  10.900   1.848 -0.0042 -0.6219 -0.6052
  434MOL0     C58484   2.514  10.635   1.854  0.5758  0.4709  0.6883
  434MOL0     C58485   2.372  10.598   1.880 -0.7375  0.7440  0.5569
  434MOL0     O58486   2.270  10.643   1.796 -0.1828  0.6259  0.0587
  434MOL0     C58487   2.147  10.591   1.830  0.1603  0.2226  0.8122
  434MOL0     C58488   2.059  10.694   1.867  0.2909  0.2991  0.9983
  434MOL0     C58489   1.921  10.654   1.887 -0.4031  0.3040 -0.0671
  434MOL0     C58490   1.887  10.519   1.879 -0.0850  1.0649  0.1496
  434MOL0     O58491   1.770  10.465   1.914 -0.5909 -0.1198 -0.7663
  434MOL0     C58492   1.649  10.523   1.862  0.8807  0.1962 -0.1365
  434MOL0     C58493   1.531  10.487   1.942 -0.9942 -0.2969  0.3047
  434MOL0     C58494   1.402  10.480   1.863  0.8503  0.8209 -0.1419
  434MOL0     C58495   1.288  10.421   1.933  0.4161  0.1274  0.2985
  434MOL0     C58496   1.161  10.405   1.847  0.7595  0.8074  0.1457
  434MOL0     C58497   1.091  10.532   1.818  0.0015  0.0542 -0.3209
  434MOL0     C58498   0.981  10.555   1.919  0.3835  0.0330  0.5882
  434MOL0     C58499   0.899  10.669   1.887  0.0697  0.5945  0.0300
  434MOL0    Cl58500   0.726  10.640   1.918  0.3410 -0.4328  0.8088
  434MOL0     C58501   1.992  10.415   1.851  0.4660 -0.3282  0.5445
  434MOL0     C58502   2.118  10.455   1.817 -0.0711 -0.3944  0.3115
  434MOL0     O58503   2.361  10.516   1.966 -0.8437  0.1065  0.6652
  434MOL0     C58504   2.618  10.536   1.872  0.0995  0.3115 -0.2104
  434MOL0     C58505   2.751  10.560   1.844  0.1217  0.5726  0.1270
  434MOL0     N58506   3.387  10.689   1.796 -0.4711  1.4018 -0.4399
  434MOL0     N58507   3.503  10.649   1.755  0.3889 -0.4258 -0.8282
  434MOL0     C58508   4.670  10.961   1.333 -0.2938 -0.0126 -0.2389
  434MOL0     C58509   4.793  10.959   1.263 -0.3976 -0.2151 -0.8377
  434MOL0     C58510   5.097  10.867   0.930  0.5364  0.7600 -0.3421
  434MOL0     C58511   5.181  10.975   0.962  0.8857  1.1156 -0.5124
  434MOL0     C58512   5.323  10.976   0.922  0.3866  0.6525  0.5296
  434MOL0     C58513   5.372  10.878   0.837  0.4647 -0.7956  0.2240
  434MOL0     O58514   5.499  10.883   0.787  0.1551  0.6543 -0.1273
  434MOL0     C58515   5.524  10.985   0.678  0.3331  0.8102  0.7684
  434MOL0     C58516   5.673  10.998   0.654 -0.0848 -0.8971 -0.0072
  434MOL0     C58517   5.760  10.870   0.588 -0.1768  1.1019  0.2525
  434MOL0     C58518   5.734  10.744   0.676  0.4576 -0.0516  0.7867
  434MOL0     C58519   5.824  10.633   0.647 -0.4515  0.4768  0.6414
  434MOL0     C58520   5.891  10.534   0.621 -0.8533 -1.4501  1.2249
  434MOL0     C58521   5.301  10.767   0.808 -0.0433 -0.1862 -0.3596
  434MOL0     C58522   5.167  10.767   0.849 -0.0203 -0.6960  0.0075
  434MOL0     H58523   4.701  11.024   0.953  5.5951 -0.6865 -0.1897
  434MOL0     H58524   4.463  11.038   1.075 -1.7997 -3.2142  0.2757
  434MOL0     H58525   4.446  10.837   1.463  2.8343  1.4363  0.8972
  434MOL0     H58526   4.428  10.984   1.526 -0.6891 -1.4033  1.2560
  434MOL0     H58527   4.238  10.850   1.556 -1.9293  6.0809  3.0784
  434MOL0     H58528   4.177  10.989   1.468 -3.4907 -1.0297 -1.5206
  434MOL0     H58529   4.229  10.824   1.252 -0.8517 -1.1481 -0.7238
  434MOL0     H58530   4.232  10.709   1.389  2.3172  2.6118  2.7655
  434MOL0     H58531   4.008  10.916   1.332  2.2726  0.6707 -1.2191
  434MOL0     H58532   4.002  10.772   1.247 -2.2973 -0.2103  0.4612
  434MOL0     H58533   4.004  10.653   1.481  0.0305 -0.0804 -1.6666
  434MOL0     H58534   3.952  10.806   1.547  4.0697  0.3959  0.1291
  434MOL0     H58535   3.768  10.798   1.378  1.0438  0.4278  0.4133
  434MOL0     H58536   3.821  10.629   1.336 -3.2362 -0.8384  0.4515
  434MOL0     H58537   3.648  10.590   1.474  0.2211  0.6570 -1.5934
  434MOL0     H58538   3.786  10.557   1.563  1.7897  1.5429  0.0629
  434MOL0     H58539   3.701  10.851   1.595 -1.5165  1.2041  1.0022
  434MOL0     H58540   3.743  10.736   1.716  1.1426  3.3684  0.1476
  434MOL0     H58541   3.447  10.893   1.550 -1.7755 -3.1634 -2.3413
  434MOL0     H58542   3.178  10.859   1.817 -1.2724 -4.1066 -1.3402
  434MOL0     H58543   3.250  10.971   1.694  2.3687 -0.7553  0.0309
  434MOL0     H58544   3.189  10.815   1.515  0.0867 -4.2800 -0.8749
  434MOL0     H58545   3.046  10.887   1.606 -0.5441 -1.5041  1.0280
  434MOL0     H58546   3.185  10.613   1.605  3.4131  4.5240 -1.2632
  434MOL0     H58547   3.033  10.637   1.524  1.6053 -6.4446  1.3816
  434MOL0     H58548   3.094  10.611   1.818  2.6028  1.2034 -1.6725
  434MOL0     H58549   2.976  10.519   1.733 -0.1710 -0.7419  1.0003
  434MOL0     H58550   2.735  10.891   1.790  0.6609  0.1554  0.5820
  434MOL0     H58551   2.531  10.948   1.929  2.5340 -1.8080 -1.5033
  434MOL0     H58552   2.479  10.967   1.762  0.9083  3.0922  2.0877
  434MOL0     H58553   2.372  10.874   1.869 -0.3053  0.3385 -0.8625
  434MOL0     H58554   2.106  10.792   1.873  0.4830  0.1499  2.5895
  434MOL0     H58555   1.851  10.729   1.922 -1.0948  0.8599 -2.4510
  434MOL0     H58556   1.663  10.632   1.855 -1.4476  0.5249 -0.4011
  434MOL0     H58557   1.640  10.492   1.758  1.1283 -0.0831 -0.0751
  434MOL0     H58558   1.554  10.388   1.984  0.1291  0.0726  0.5805
  434MOL0     H58559   1.522  10.561   2.022 -0.6382  0.0083  0.0662
  434MOL0     H58560   1.415  10.421   1.771 -1.6661  0.0618 -0.0658
  434MOL0     H58561   1.369  10.579   1.829 -0.6791 -0.2040 -1.8243
  434MOL0     H58562   1.315  10.320   1.969 -0.5624 -0.0860  0.4523
  434MOL0     H58563   1.256  10.480   2.019 -1.2943 -1.2892  0.6813
  434MOL0     H58564   1.093  10.327   1.882  1.9963 -0.3370  0.0325
  434MOL0     H58565   1.194  10.371   1.749 -2.1398  0.0253 -0.6814
  434MOL0     H58566   1.158  10.618   1.822 -1.3078  1.1406 -0.9641
  434MOL0     H58567   1.053  10.521   1.716  2.1454 -5.4851 -0.9014
  434MOL0     H58568   1.043  10.571   2.008  1.8953 -1.7980 -0.0709
  434MOL0     H58569   0.911  10.472   1.915  1.1056 -0.5284 -1.2500
  434MOL0     H58570   0.914  10.691   1.780  0.4976  0.8822  0.1483
  434MOL0     H58571   0.930  10.755   1.947 -0.1764 -0.6788  2.0738
  434MOL0     H58572   1.979  10.307   1.846 -0.5311 -0.1678 -0.9386
  434MOL0     H58573   2.197  10.387   1.787  0.1946  0.6376 -1.4705
  434MOL0     H58574   2.591  10.441   1.915  0.5767  1.3542  2.5804
  434MOL0     H58575   2.821  10.477   1.837 -1.5286 -0.7407 -4.5615
  434MOL0     H58576   4.669  10.930   1.437 -0.3851 -2.5711 -0.9208
  434MOL0     H58577   4.878  10.924   1.320 -0.8096 -0.3923 -0.3166
  434MOL0     H58578   5.153  11.057   1.027  1.1183  1.2297 -0.5553
  434MOL0     H58579   5.405  11.043   0.948 -0.7692  1.9420  1.0032
  434MOL0     H58580   5.473  10.962   0.584 -1.2620 -3.3059  2.3910
  434MOL0     H58581   5.492  11.086   0.705 -0.5452  1.5910 -2.6149
  434MOL0     H58582   5.717  11.019   0.752 -0.5099  1.4192 -0.2646
  434MOL0     H58583   5.698  11.084   0.591  1.3233 -0.2561  1.3589
  434MOL0     H58584   5.866  10.896   0.584 -0.6517  3.4226  1.1519
  434MOL0     H58585   5.734  10.856   0.482  1.4295  0.8413 -0.1320
  434MOL0     H58586   5.627  10.721   0.673  0.2890  0.4301  2.1096
  434MOL0     H58587   5.739  10.770   0.783 -1.0764 -3.3638  1.7762
  434MOL0     H58588   5.982  10.479   0.607  0.3819  1.0758 -2.0366
  434MOL0     H58589   5.349  10.689   0.750  0.4875 -1.9589  2.2557
  434MOL0     H58590   5.097  10.689   0.823 -0.4313 -0.5404  0.6154
  435MOL0     O58591   2.605   4.257   6.589  0.3748  0.1520  0.3280
  435MOL0     C58592   2.533   4.167   6.625  0.7533  0.8868 -0.2363
  435MOL0     O58593   2.404   4.173   6.648 -0.1491 -0.5873  0.9295
  435MOL0     C58594   2.335   4.283   6.611  0.6514 -0.6637  0.4148
  435MOL0     C58595   2.323   4.331   6.483 -0.0386  1.1307  0.4388
  435MOL0     C58596   2.218   4.417   6.448 -0.5465 -0.1223  0.5265
  435MOL0     C58597   2.149   4.488   6.543  0.3708  0.6816 -1.1546
  435MOL0     O58598   2.044   4.569   6.503 -0.0026  0.0090  0.1722
  435MOL0     C58599   1.982   4.657   6.595  0.0012  0.0085  0.2822
  435MOL0     C58600   1.867   4.737   6.524 -0.4453  0.2284 -0.0660
  435MOL0     C58601   1.918   4.856   6.457 -0.3563  0.9357  0.2132
  435MOL0     C58602   1.815   4.966   6.459  0.8373  0.0296 -0.2431
  435MOL0     C58603   1.861   5.092   6.380 -0.2600  0.4379  0.2238
  435MOL0     C58604   1.811   5.096   6.229 -0.2961  0.1782  0.0916
  435MOL0     C58605   1.847   5.241   6.187 -0.0048  0.8457  0.8747
  435MOL0     C58606   1.799   5.262   6.039 -0.2628 -0.0472 -0.7798
  435MOL0     N58607   1.657   5.243   6.020 -0.0394 -0.1691 -0.3594
  435MOL0     C58608   1.602   5.135   5.948 -0.2638  0.1791 -0.3847
  435MOL0     C58609   1.481   5.169   5.929 -0.6731 -0.5121 -0.5906
  435MOL0     C58610   1.371   5.100   5.851  1.1477  0.4581 -0.2868
  435MOL0     C58611   1.374   5.144   5.704  0.5802 -0.9205 -0.4050
  435MOL0     C58612   1.325   5.030   5.618  0.0620 -0.1880 -0.7147
  435MOL0     C58613   1.168   5.015   5.627  0.0242 -0.4344  0.4164
  435MOL0     O58614   1.111   4.919   5.534 -0.5948 -0.0502 -0.0541
  435MOL0     C58615   0.978   4.913   5.513  0.2169 -0.0019  0.0420
  435MOL0     C58616   0.925   4.837   5.406 -0.6080 -0.3190 -0.6558
  435MOL0     C58617   0.790   4.840   5.368 -0.1902 -0.1245  0.7619
  435MOL0     C58618   0.732   4.744   5.266  0.3111  0.3163  0.0750
  435MOL0     C58619   0.708   4.918   5.446 -0.2948 -0.0842  0.4316
  435MOL0     C58620   0.569   4.940   5.401  0.5753  0.3429  0.5327
  435MOL0     O58621   0.468   4.948   5.503  0.0774 -0.0983  0.5861
  435MOL0     C58622   0.344   4.994   5.475  0.9676 -0.7905 -0.2692
  435MOL0     C58623   0.287   5.049   5.589  0.1431 -1.2013 -0.5699
  435MOL0     C58624   0.159   5.111   5.587  0.1303 -0.0326 -0.4689
  435MOL0     C58625   0.082   5.108   5.472 -0.5214 -0.8684 -0.9975
  435MOL0     O58626  -0.044   5.168   5.472 -0.3213 -0.6439  0.3229
  435MOL0     C58627  -0.101   5.208   5.343  0.0554 -0.2793  0.4178
  435MOL0     C58628  -0.214   5.307   5.370  0.0300 -0.3063  0.4738
  435MOL0     C58629  -0.338   5.241   5.437 -0.5580  0.1179 -0.1888
  435MOL0     C58630  -0.468   5.323   5.422  0.1556  0.1644  0.4654
  435MOL0     C58631  -0.529   5.349   5.294  0.2055  0.0952  0.1764
  435MOL0     C58632  -0.679   5.396   5.294 -0.7964  1.1986 -0.3323
  435MOL0     C58633  -0.732   5.423   5.154  1.2412 -0.8167 -0.0350
  435MOL0     C58634  -0.872   5.503   5.158  0.2906  0.0598 -0.0827
  435MOL0    Cl58635  -0.906   5.525   4.983 -0.2617 -0.2685  0.3676
  435MOL0     C58636   0.143   5.069   5.353  0.5505 -0.1192 -0.0764
  435MOL0     C58637   0.266   4.997   5.356 -0.5047  0.5466 -0.5632
  435MOL0     O58638   0.549   4.958   5.285 -0.1905  0.5827  0.2516
  435MOL0     C58639   0.756   4.991   5.556 -0.0999 -0.3333  0.3157
  435MOL0     C58640   0.891   4.991   5.588 -0.4992  0.6433 -0.1644
  435MOL0     N58641   1.465   5.287   5.991  0.1571 -0.6065  0.3601
  435MOL0     N58642   1.572   5.332   6.051  1.1123  0.3528  0.1412
  435MOL0     C58643   2.189   4.467   6.680  0.1907 -0.5562 -0.5547
  435MOL0     C58644   2.277   4.360   6.712  0.9172 -0.1779 -0.2573
  435MOL0     C58645   2.599   4.036   6.634 -0.9092  0.4866  0.6307
  435MOL0     C58646   2.556   3.938   6.719 -0.7809  0.0883  0.0905
  435MOL0     C58647   2.627   3.815   6.731  0.5400 -0.2611  0.1478
  435MOL0     C58648   2.745   3.785   6.667  0.4822 -0.2158 -0.4458
  435MOL0     O58649   2.814   3.668   6.677 -0.4669  0.2993 -0.1129
  435MOL0     C58650   2.786   3.573   6.780  0.5945 -0.0275 -0.3604
  435MOL0     C58651   2.900   3.476   6.799  0.0540 -0.7509  0.4332
  435MOL0     C58652   2.923   3.406   6.659 -0.6121 -0.5555 -0.2056
  435MOL0     C58653   3.062   3.345   6.627  0.4609 -0.1501  0.2387
  435MOL0     C58654   3.121   3.245   6.716  0.2772 -0.8923 -0.4481
  435MOL0     C58655   3.164   3.171   6.803 -0.1868 -1.3144  0.4203
  435MOL0     C58656   2.790   3.882   6.576 -0.1555  0.0562 -0.5178
  435MOL0     C58657   2.721   4.006   6.563  0.6116  0.5396 -0.4586
  435MOL0     H58658   2.380   4.283   6.405 -3.3394  2.3731 -3.0766
  435MOL0     H58659   2.194   4.450   6.348  1.9232  1.0897  0.2627
  435MOL0     H58660   1.920   4.602   6.667 -3.2261  1.2083 -1.3581
  435MOL0     H58661   2.056   4.724   6.640  0.9948 -0.9043  0.0463
  435MOL0     H58662   1.825   4.675   6.445  2.5279  0.0563 -1.6561
  435MOL0     H58663   1.791   4.765   6.597 -2.6848  1.3215 -2.6521
  435MOL0     H58664   2.002   4.892   6.516 -1.5227 -0.0670  2.6061
  435MOL0     H58665   1.946   4.843   6.351  1.1138  2.7537  0.3321
  435MOL0     H58666   1.724   4.934   6.408  0.1189 -0.2713  1.1877
  435MOL0     H58667   1.781   4.985   6.561  0.1584 -2.6196  0.0947
  435MOL0     H58668   1.823   5.177   6.437  0.5310  1.9138 -1.3677
  435MOL0     H58669   1.970   5.103   6.382  0.1113 -1.9773 -2.0937
  435MOL0     H58670   1.860   5.020   6.167  0.8317  0.1485  1.0018
  435MOL0     H58671   1.704   5.074   6.227  0.0698 -2.1241  1.6292
  435MOL0     H58672   1.796   5.310   6.255 -2.1370  0.6357 -0.3945
  435MOL0     H58673   1.955   5.256   6.193  0.8849 -3.3278 -1.0292
  435MOL0     H58674   1.848   5.194   5.970  0.7917 -1.6510  1.4114
  435MOL0     H58675   1.824   5.365   6.012 -2.7503  1.3304  1.6147
  435MOL0     H58676   1.646   5.045   5.905  2.5914  0.2776  1.9708
  435MOL0     H58677   1.376   4.993   5.871 -0.3520  0.1194 -1.4523
  435MOL0     H58678   1.272   5.124   5.892  0.8184 -1.1221 -0.0936
  435MOL0     H58679   1.480   5.158   5.683  1.0637 -1.7887  1.2558
  435MOL0     H58680   1.321   5.238   5.686 -1.3261 -1.9129 -0.2225
  435MOL0     H58681   1.366   4.935   5.652 -3.5193 -2.6557 -2.6693
  435MOL0     H58682   1.369   5.061   5.522  1.4214  1.8844  0.4924
  435MOL0     H58683   1.135   5.114   5.595  1.8979  0.0959 -0.0073
  435MOL0     H58684   1.121   4.995   5.724 -0.6780  1.7363  0.5849
  435MOL0     H58685   0.988   4.770   5.347 -0.4323  1.5080 -2.6896
  435MOL0     H58686   0.800   4.663   5.236  0.0861 -0.3730  1.3684
  435MOL0     H58687   0.635   4.702   5.295  0.1429  0.0350 -0.8540
  435MOL0     H58688   0.718   4.797   5.172  0.1178 -0.6251 -0.4421
  435MOL0     H58689   0.359   5.070   5.668 -1.0819 -0.9612  0.5147
  435MOL0     H58690   0.117   5.157   5.676  0.9612  0.3150 -0.2469
  435MOL0     H58691  -0.024   5.240   5.273 -0.3865 -0.5524 -0.2082
  435MOL0     H58692  -0.161   5.139   5.283 -0.9577  2.7441 -2.3596
  435MOL0     H58693  -0.173   5.386   5.434 -2.2026  1.4527 -0.1417
  435MOL0     H58694  -0.240   5.349   5.272  1.0759  2.0384  1.1140
  435MOL0     H58695  -0.312   5.219   5.541 -3.0330  0.2313  0.5147
  435MOL0     H58696  -0.366   5.145   5.393 -1.7793 -0.6849  2.1765
  435MOL0     H58697  -0.538   5.258   5.475 -0.1798 -0.7602 -1.0372
  435MOL0     H58698  -0.459   5.421   5.470  1.0865  1.5367 -2.2931
  435MOL0     H58699  -0.524   5.256   5.236  2.8584  0.4825 -0.3155
  435MOL0     H58700  -0.475   5.426   5.239  1.3691 -0.9158 -0.1508
  435MOL0     H58701  -0.753   5.328   5.337 -1.4062  0.9630 -1.6998
  435MOL0     H58702  -0.691   5.493   5.343 -0.0103  0.1312  2.1337
  435MOL0     H58703  -0.749   5.328   5.102  2.1756 -1.3183  0.5503
  435MOL0     H58704  -0.665   5.483   5.093 -0.9046  2.4223  0.5623
  435MOL0     H58705  -0.875   5.602   5.203 -0.4194 -0.4288  1.0040
  435MOL0     H58706  -0.955   5.439   5.191  1.5065 -1.3522  0.3281
  435MOL0     H58707   0.088   5.080   5.260  2.2691  0.9997 -1.0212
  435MOL0     H58708   0.317   4.957   5.269  2.7059 -0.7697  1.7095
  435MOL0     H58709   0.679   5.054   5.600  0.5720  1.3226 -0.7699
  435MOL0     H58710   0.919   5.051   5.674  0.2215 -0.4671  0.3937
  435MOL0     H58711   2.143   4.534   6.752 -0.5127 -0.4526 -1.0852
  435MOL0     H58712   2.279   4.333   6.818 -0.7276  1.8279  0.3537
  435MOL0     H58713   2.474   3.956   6.788 -0.9666 -3.0600  0.8614
  435MOL0     H58714   2.588   3.750   6.808  0.2359  1.7317  1.7608
  435MOL0     H58715   2.771   3.625   6.875 -4.1562 -1.4742 -0.0464
  435MOL0     H58716   2.693   3.523   6.751  0.8957 -0.8506  0.0657
  435MOL0     H58717   2.871   3.405   6.877 -1.5886 -1.4176 -0.7111
  435MOL0     H58718   2.990   3.531   6.827 -0.3894  1.0132 -1.3486
  435MOL0     H58719   2.911   3.482   6.581  3.9854 -0.1519 -0.8093
  435MOL0     H58720   2.844   3.333   6.642 -0.7947 -0.1121 -1.3542
  435MOL0     H58721   3.129   3.429   6.608  2.9264 -1.8570  0.9980
  435MOL0     H58722   3.047   3.289   6.535  0.0641 -2.1865  1.4900
  435MOL0     H58723   3.193   3.094   6.872  2.9620  1.4497  2.5148
  435MOL0     H58724   2.877   3.866   6.514 -0.9293 -0.1843 -1.5649
  435MOL0     H58725   2.761   4.076   6.490 -1.3065  3.0080  0.7410
  436MOL0     O58726   9.295   7.017   3.825  0.7690 -0.7019  0.5895
  436MOL0     C58727   9.285   6.910   3.882  0.4794  0.0543 -0.2693
  436MOL0     O58728   9.164   6.841   3.905  0.0590  0.4759  0.6573
  436MOL0     C58729   9.065   6.839   3.815 -0.1415 -0.4790  0.5772
  436MOL0     C58730   9.043   6.712   3.751 -0.5149 -0.7111  0.3499
  436MOL0     C58731   8.936   6.693   3.667  0.5343 -0.3180  0.3231
  436MOL0     C58732   8.836   6.791   3.648 -0.8052 -0.3827 -0.5587
  436MOL0     O58733   8.713   6.777   3.583  0.4868 -0.0241 -0.8642
  436MOL0     C58734   8.691   6.660   3.513 -0.0672  1.3688 -0.4104
  436MOL0     C58735   8.768   6.657   3.373  0.7329 -0.3745  0.2988
  436MOL0     C58736   8.737   6.785   3.309 -0.3631  0.2132 -0.3096
  436MOL0     C58737   8.792   6.785   3.163  0.0090 -0.8843 -0.0195
  436MOL0     C58738   8.777   6.919   3.087 -0.1177 -0.2537  0.5932
  436MOL0     C58739   8.632   6.971   3.077 -0.8253  0.0332  0.0407
  436MOL0     C58740   8.623   7.103   2.996  0.3698 -0.0273 -0.8041
  436MOL0     C58741   8.643   7.093   2.844 -0.0212 -0.6475  0.2235
  436MOL0     N58742   8.547   7.003   2.788  0.5919 -0.4917  0.7354
  436MOL0     C58743   8.560   6.868   2.768  0.5910  0.1923  1.1909
  436MOL0     C58744   8.451   6.817   2.711  0.2634  0.3730  0.1971
  436MOL0     C58745   8.430   6.681   2.671 -0.3352  0.0747  0.0664
  436MOL0     C58746   8.316   6.669   2.578  0.6142 -0.3556  0.0171
  436MOL0     C58747   8.321   6.541   2.501 -0.3392 -0.8538 -0.1503
  436MOL0     C58748   8.193   6.526   2.422  0.6897  0.0060  0.5957
  436MOL0     O58749   8.199   6.583   2.285  0.2143  0.2922 -0.1649
  436MOL0     C58750   8.093   6.558   2.201 -0.5146  0.3413 -0.4898
  436MOL0     C58751   7.975   6.486   2.240  0.2069 -0.1108  0.3834
  436MOL0     C58752   7.869   6.475   2.151  0.4701 -0.0168  0.4929
  436MOL0     C58753   7.739   6.419   2.205 -0.2162  0.1333 -0.4453
  436MOL0     C58754   7.889   6.505   2.015  0.6425 -1.0982  0.0316
  436MOL0     C58755   7.784   6.502   1.914 -0.2262  0.5430  0.8798
  436MOL0     O58756   7.839   6.493   1.790  0.0705  0.4020  0.0557
  436MOL0     C58757   7.754   6.505   1.686 -0.5710  0.9124 -0.1040
  436MOL0     C58758   7.702   6.627   1.635 -0.0019  0.2019 -0.1171
  436MOL0     C58759   7.604   6.617   1.530 -0.3985 -0.0037  0.3558
  436MOL0     C58760   7.566   6.492   1.479  0.0825 -0.3093  1.5187
  436MOL0     O58761   7.467   6.468   1.383  0.0426 -0.6386 -0.2390
  436MOL0     C58762   7.350   6.549   1.376  0.6332  0.1062 -0.3777
  436MOL0     C58763   7.281   6.582   1.516 -0.1272 -0.1661 -0.0528
  436MOL0     C58764   7.197   6.460   1.561 -1.0341  0.1757 -0.5070
  436MOL0     C58765   7.132   6.473   1.700 -0.1681  0.5233 -0.5157
  436MOL0     C58766   7.082   6.345   1.762  0.4008  0.0279  0.0769
  436MOL0     C58767   7.182   6.236   1.771  0.4008  0.0783 -0.2918
  436MOL0     C58768   7.140   6.117   1.868 -0.0650 -0.7494  0.6845
  436MOL0     C58769   7.180   6.137   2.015 -0.6752  0.6205  0.0257
  436MOL0    Cl58770   7.146   6.297   2.095 -0.0466 -0.0653 -0.4911
  436MOL0     C58771   7.627   6.371   1.529  0.2651 -0.3166 -0.3795
  436MOL0     C58772   7.725   6.381   1.625  0.3584 -0.4307 -0.3131
  436MOL0     O58773   7.660   6.502   1.941 -0.6118  1.0064  0.2042
  436MOL0     C58774   8.022   6.555   1.974  0.8984 -1.0272 -0.4948
  436MOL0     C58775   8.127   6.581   2.066 -0.1438  0.5358  0.2632
  436MOL0     N58776   8.361   6.931   2.712  0.3012  1.3751  0.8065
  436MOL0     N58777   8.416   7.031   2.757  0.0174 -0.2279  0.5530
  436MOL0     C58778   8.856   6.916   3.707 -0.1780  0.1610 -0.3860
  436MOL0     C58779   8.977   6.944   3.782  0.1283  0.0949  0.3697
  436MOL0     C58780   9.408   6.839   3.922 -0.3907 -0.6247 -0.0397
  436MOL0     C58781   9.407   6.716   3.993 -0.0993 -0.2393 -0.7348
  436MOL0     C58782   9.523   6.659   4.047 -0.6528  0.4911  0.4151
  436MOL0     C58783   9.639   6.729   4.032  0.7559  0.4854 -0.7493
  436MOL0     O58784   9.751   6.685   4.102  0.2877 -0.0546  0.0094
  436MOL0     C58785   9.879   6.733   4.062  0.9860 -0.2309 -0.3994
  436MOL0     C58786   9.987   6.646   4.132  0.2741 -0.2233  0.9277
  436MOL0     C58787   9.964   6.588   4.269  0.2534 -0.0883  0.3257
  436MOL0     C58788   9.990   6.696   4.382  0.3700  0.8129 -0.3319
  436MOL0     C58789   9.897   6.806   4.370 -0.0069 -0.0591 -0.1374
  436MOL0     C58790   9.819   6.904   4.370  0.3190  0.1606  0.3374
  436MOL0     C58791   9.641   6.851   3.960  0.1803  0.7626 -0.2001
  436MOL0     C58792   9.525   6.904   3.905  0.3167  0.7507 -0.3824
  436MOL0     H58793   9.106   6.634   3.793  1.9721  1.9667  1.9883
  436MOL0     H58794   8.916   6.597   3.620  0.2466  0.6562 -1.6573
  436MOL0     H58795   8.707   6.577   3.582  0.6736  3.1356  1.6536
  436MOL0     H58796   8.585   6.649   3.486  0.7388 -0.1030 -3.4558
  436MOL0     H58797   8.876   6.639   3.386  1.2223  0.9885 -1.4645
  436MOL0     H58798   8.726   6.575   3.314  0.6318 -0.7222  0.8411
  436MOL0     H58799   8.629   6.802   3.311 -0.7711 -2.0356 -0.2632
  436MOL0     H58800   8.789   6.863   3.366 -0.2605 -1.1677  1.5538
  436MOL0     H58801   8.898   6.761   3.171  0.3782  0.3432 -0.9759
  436MOL0     H58802   8.724   6.713   3.117 -1.4535  0.0981  0.5178
  436MOL0     H58803   8.849   6.987   3.133  0.4651 -0.8236  0.5353
  436MOL0     H58804   8.810   6.902   2.984 -1.2437  1.1919 -0.0362
  436MOL0     H58805   8.563   6.898   3.034  2.0366 -2.3212 -0.9001
  436MOL0     H58806   8.600   6.999   3.177  2.8068  2.6104  0.6694
  436MOL0     H58807   8.519   7.131   3.013  0.4662 -1.5275  3.2821
  436MOL0     H58808   8.679   7.187   3.039 -0.3447  0.2571 -0.4054
  436MOL0     H58809   8.743   7.063   2.811 -1.5321 -2.7127 -2.9876
  436MOL0     H58810   8.634   7.196   2.807 -1.1642 -1.2703 -1.3309
  436MOL0     H58811   8.637   6.801   2.805  0.1614 -0.8080  0.2989
  436MOL0     H58812   8.519   6.636   2.628  1.1271  3.2182 -0.5293
  436MOL0     H58813   8.425   6.618   2.760  1.8733  2.1627  1.8089
  436MOL0     H58814   8.315   6.748   2.503 -1.5684  0.8039  1.1648
  436MOL0     H58815   8.224   6.674   2.637 -2.4552  2.2889 -4.3090
  436MOL0     H58816   8.338   6.458   2.569 -0.1287 -0.9391 -0.3080
  436MOL0     H58817   8.412   6.543   2.441 -0.3392 -1.7234 -0.1892
  436MOL0     H58818   8.103   6.565   2.470 -1.1668 -1.9191 -1.1186
  436MOL0     H58819   8.177   6.419   2.404  2.8237 -0.4598  1.1457
  436MOL0     H58820   7.960   6.457   2.344  1.6679  1.1481  0.9812
  436MOL0     H58821   7.761   6.379   2.305  0.4347  1.6494  0.0461
  436MOL0     H58822   7.667   6.500   2.219  0.3044  0.7587 -1.2822
  436MOL0     H58823   7.707   6.338   2.139  2.3937  1.3025 -3.4256
  436MOL0     H58824   7.720   6.722   1.684  4.9333  0.5742 -2.1175
  436MOL0     H58825   7.555   6.705   1.491  0.5903 -0.0861 -1.1933
  436MOL0     H58826   7.370   6.649   1.337 -1.3864 -0.0103 -1.8323
  436MOL0     H58827   7.281   6.495   1.311 -0.1318 -2.5758  2.4040
  436MOL0     H58828   7.355   6.604   1.594  0.5492  0.7900 -0.9339
  436MOL0     H58829   7.212   6.667   1.519 -0.7937 -0.6611 -0.8920
  436MOL0     H58830   7.254   6.367   1.552 -0.9924  0.1934 -0.4306
  436MOL0     H58831   7.117   6.466   1.488  1.4943 -0.2473 -3.5279
  436MOL0     H58832   7.205   6.514   1.770 -0.4980 -1.5035  1.1213
  436MOL0     H58833   7.049   6.544   1.697 -2.1862 -1.2705  3.8460
  436MOL0     H58834   7.007   6.305   1.693  0.5803 -0.3427  0.0948
  436MOL0     H58835   7.051   6.362   1.865  1.7981 -0.4955  0.5983
  436MOL0     H58836   7.188   6.202   1.667 -1.0402 -0.7703 -0.1231
  436MOL0     H58837   7.282   6.268   1.802  1.4971 -1.1091 -2.4172
  436MOL0     H58838   7.196   6.033   1.827 -0.2587  0.0219 -1.2545
  436MOL0     H58839   7.033   6.095   1.853 -0.2253 -0.1315  0.8938
  436MOL0     H58840   7.286   6.113   2.029 -0.6587  0.0675 -0.9568
  436MOL0     H58841   7.119   6.071   2.078  4.1060 -1.5036  3.0505
  436MOL0     H58842   7.605   6.268   1.504 -1.6844 -1.1104  3.7952
  436MOL0     H58843   7.780   6.292   1.654  1.3525 -0.4377 -2.0862
  436MOL0     H58844   8.050   6.574   1.870 -1.3876  0.7577 -0.8732
  436MOL0     H58845   8.216   6.633   2.032  1.5966 -2.5714 -0.3002
  436MOL0     H58846   8.771   6.983   3.700 -1.8037 -1.7553  0.0775
  436MOL0     H58847   8.989   7.046   3.817 -0.2805  0.7992 -1.4467
  436MOL0     H58848   9.312   6.664   3.991 -0.0275 -0.3583 -1.1951
  436MOL0     H58849   9.532   6.556   4.082  2.6220 -0.0830 -1.6972
  436MOL0     H58850   9.890   6.713   3.955  0.9279 -0.3416 -0.3840
  436MOL0     H58851   9.890   6.839   4.087 -1.5227 -0.2477  1.1202
  436MOL0     H58852  10.081   6.699   4.114  0.0330  0.3118  1.2251
  436MOL0     H58853   9.988   6.554   4.073 -0.6800  0.1266  0.3232
  436MOL0     H58854  10.025   6.499   4.283 -0.2355 -0.3027  1.1622
  436MOL0     H58855   9.860   6.555   4.275  0.0630  0.7118  2.1443
  436MOL0     H58856  10.088   6.734   4.354  0.3527  1.1483  0.0535
  436MOL0     H58857   9.990   6.663   4.486 -0.0980  0.8136 -0.3265
  436MOL0     H58858   9.748   6.983   4.368  1.5571  1.5279  3.7548
  436MOL0     H58859   9.733   6.909   3.968  1.5218 -0.2109 -4.9948
  436MOL0     H58860   9.546   7.004   3.867  0.4748  0.6197 -0.6456
  437MOL0     O58861   4.506   1.095  10.266 -0.0611  0.0567 -0.4892
  437MOL0     C58862   4.488   1.021  10.174 -0.0312  1.6023  0.2228
  437MOL0     O58863   4.588   0.949  10.106 -0.1672  0.3932  0.6517
  437MOL0     C58864   4.721   0.944  10.143  0.2025  1.3978  1.4265
  437MOL0     C58865   4.789   0.851  10.068 -0.2648 -0.9115 -0.7430
  437MOL0     C58866   4.925   0.846  10.092 -0.4593  1.6754  0.1302
  437MOL0     C58867   4.993   0.907  10.203 -0.7084 -0.2035 -0.2671
  437MOL0     O58868   5.128   0.877  10.219 -0.3517  0.0281 -0.1213
  437MOL0     C58869   5.186   0.885  10.347 -0.2848 -0.6600 -0.4847
  437MOL0     C58870   5.258   1.020  10.364 -0.3532  0.6081  0.3754
  437MOL0     C58871   5.263   1.069  10.506  0.5037  0.7633 -0.3112
  437MOL0     C58872   5.286   1.222  10.504 -0.3865  0.1922  0.2843
  437MOL0     C58873   5.308   1.305  10.634 -1.0008  0.2067 -0.5983
  437MOL0     C58874   5.180   1.305  10.714  0.0624  0.6251 -0.9838
  437MOL0     C58875   5.199   1.373  10.850 -0.5928 -0.4431  0.4911
  437MOL0     C58876   5.063   1.378  10.921  1.3450 -0.1080 -0.3363
  437MOL0     N58877   4.994   1.514  10.897 -0.7635  0.8494 -0.2155
  437MOL0     C58878   4.951   1.553  10.779 -0.3601  0.4532 -0.1581
  437MOL0     C58879   4.912   1.678  10.797  0.4199  0.6067 -0.5479
  437MOL0     C58880   4.847   1.760  10.695 -1.8208  1.3961  1.0573
  437MOL0     C58881   4.740   1.695  10.616 -0.4614  0.5436 -0.7353
  437MOL0     C58882   4.655   1.801  10.560 -0.4352 -0.0035  0.2029
  437MOL0     C58883   4.522   1.735  10.525 -0.3907 -0.5353  0.1231
  437MOL0     O58884   4.429   1.748  10.629  0.1100  0.2955  0.6839
  437MOL0     C58885   4.294   1.761  10.602  0.6509 -0.1130  0.7421
  437MOL0     C58886   4.203   1.808  10.703  0.1592 -0.0276  0.6669
  437MOL0     C58887   4.064   1.804  10.683  0.2663 -0.2281  0.0715
  437MOL0     C58888   3.972   1.850  10.796  0.9231  0.4060 -0.4497
  437MOL0     C58889   4.003   1.759  10.558 -1.1065  0.3769  1.0233
  437MOL0     C58890   3.851   1.772  10.518 -0.4119  0.1828 -0.2612
  437MOL0     O58891   3.817   1.686  10.428 -0.2921  0.4384  0.6865
  437MOL0     C58892   3.698   1.675  10.357  0.2224  0.1294  0.3782
  437MOL0     C58893   3.595   1.772  10.340  0.2183 -0.5178 -0.5230
  437MOL0     C58894   3.483   1.750  10.258 -0.0119  0.0963  0.3398
  437MOL0     C58895   3.475   1.626  10.191  0.6050  1.0732 -0.0927
  437MOL0     O58896   3.353   1.597  10.129 -0.6960 -0.0748 -0.0565
  437MOL0     C58897   3.313   1.478  10.058 -0.3939 -0.2224 -0.0144
  437MOL0     C58898   3.387   1.452   9.925  0.5223  0.3793  0.3937
  437MOL0     C58899   3.352   1.570   9.829  0.3028  0.7824  0.5460
  437MOL0     C58900   3.422   1.547   9.697 -0.2363  0.6668 -0.7814
  437MOL0     C58901   3.423   1.664   9.597 -0.1207 -1.1338 -1.0780
  437MOL0     C58902   3.288   1.719   9.555  0.1605 -0.3831 -0.5947
  437MOL0     C58903   3.300   1.864   9.501  0.4163  0.1735 -0.3287
  437MOL0     C58904   3.393   1.893   9.384  1.4791  0.5175  0.5331
  437MOL0    Cl58905   3.362   2.056   9.304 -0.1575 -0.2685  0.2800
  437MOL0     C58906   3.579   1.533  10.216 -0.2655  0.2178  0.5753
  437MOL0     C58907   3.699   1.563  10.290  0.0113  0.5131  1.3541
  437MOL0     O58908   3.778   1.851  10.569  0.8078 -0.1757  0.2958
  437MOL0     C58909   4.095   1.713  10.457 -0.4592  0.5105 -1.0088
  437MOL0     C58910   4.228   1.718  10.483 -1.0402  0.0397  0.7822
  437MOL0     N58911   4.941   1.713  10.925  0.8115  0.1718  0.3174
  437MOL0     N58912   4.981   1.613  10.987 -0.6846 -0.2675  1.0390
  437MOL0     C58913   4.920   1.001  10.283 -0.0833 -0.1230  0.2885
  437MOL0     C58914   4.786   1.016  10.242  0.0964  0.3966  0.2889
  437MOL0     C58915   4.351   0.982  10.142  0.2525  0.6767 -0.3721
  437MOL0     C58916   4.317   0.888  10.050 -0.0584 -0.8771  0.5717
  437MOL0     C58917   4.186   0.836  10.032  0.2053  0.0079 -0.6742
  437MOL0     C58918   4.082   0.863  10.123 -0.4982 -0.8924  0.2882
  437MOL0     O58919   3.958   0.818  10.104  0.7835  0.2779  0.4991
  437MOL0     C58920   3.901   0.760  10.220 -0.1004  0.0786  0.0646
  437MOL0     C58921   3.774   0.839  10.258  1.1701  0.0532 -0.0412
  437MOL0     C58922   3.704   0.763  10.374 -0.1241 -0.1050 -0.1940
  437MOL0     C58923   3.571   0.838  10.413 -0.3029  0.0689 -0.1824
  437MOL0     C58924   3.473   0.745  10.461 -0.4820  0.3687 -0.9790
  437MOL0     C58925   3.401   0.669  10.518 -0.8116 -0.3130 -0.3920
  437MOL0     C58926   4.113   0.976  10.218 -0.6953  0.6556  1.0713
  437MOL0     C58927   4.247   1.029  10.226  0.7976  0.0033 -0.2533
  437MOL0     H58928   4.746   0.782   9.997  0.6890 -0.8931 -1.3519
  437MOL0     H58929   4.991   0.800  10.019 -2.4565 -0.6657 -0.3399
  437MOL0     H58930   5.110   0.874  10.424 -1.6006  1.0159 -1.4730
  437MOL0     H58931   5.269   0.813  10.353  0.4545  0.0310 -1.9289
  437MOL0     H58932   5.363   1.014  10.331  0.2963  2.1970  1.9708
  437MOL0     H58933   5.210   1.096  10.301  1.4489  1.2565 -0.3032
  437MOL0     H58934   5.172   1.052  10.565  2.1436 -0.6878  1.9351
  437MOL0     H58935   5.340   1.022  10.567 -1.7121 -1.0509  1.2901
  437MOL0     H58936   5.374   1.239  10.442 -1.9708  0.2155 -2.0855
  437MOL0     H58937   5.198   1.269  10.459 -2.0430 -1.2440  1.8294
  437MOL0     H58938   5.400   1.273  10.684  0.9430  1.3764 -3.2029
  437MOL0     H58939   5.328   1.411  10.616 -3.9213  0.5688 -2.4793
  437MOL0     H58940   5.098   1.340  10.651 -1.2752 -0.5411  0.0405
  437MOL0     H58941   5.150   1.202  10.732 -0.3868  1.0510  0.8417
  437MOL0     H58942   5.264   1.306  10.908  1.3854 -0.5835 -1.7601
  437MOL0     H58943   5.245   1.472  10.862 -0.9223 -0.3374  0.9121
  437MOL0     H58944   5.073   1.364  11.029  0.7257 -0.0421 -0.2677
  437MOL0     H58945   4.998   1.300  10.879 -0.1834  1.2985 -0.6687
  437MOL0     H58946   4.934   1.499  10.687  1.7296 -0.7595  0.1099
  437MOL0     H58947   4.804   1.846  10.746 -4.0160  1.3297 -0.5079
  437MOL0     H58948   4.926   1.797  10.628 -1.3034  0.6152  1.2238
  437MOL0     H58949   4.691   1.624  10.683  0.0421  0.9648  0.0911
  437MOL0     H58950   4.779   1.627  10.539  1.0059  0.0741  0.3657
  437MOL0     H58951   4.712   1.838  10.474  0.4793 -2.5391 -0.3721
  437MOL0     H58952   4.638   1.880  10.634 -0.3997  0.4010 -0.2142
  437MOL0     H58953   4.529   1.631  10.492  1.4045 -0.0498 -1.2153
  437MOL0     H58954   4.494   1.792  10.436  1.3233 -0.1120 -0.1882
  437MOL0     H58955   4.229   1.840  10.804  1.2976 -1.0038  0.6930
  437MOL0     H58956   3.940   1.954  10.779  0.3451 -0.2151 -3.9673
  437MOL0     H58957   3.880   1.793  10.814  2.0389 -0.6351  2.5077
  437MOL0     H58958   4.020   1.856  10.894 -1.1637  1.2996  0.5987
  437MOL0     H58959   3.605   1.872  10.380 -0.8518 -0.3637 -0.5960
  437MOL0     H58960   3.413   1.832  10.244  1.0761  1.1673  0.9651
  437MOL0     H58961   3.326   1.391  10.123  3.1570  1.6482  2.1634
  437MOL0     H58962   3.209   1.497  10.032 -0.1105 -1.5346 -2.3344
  437MOL0     H58963   3.495   1.439   9.927  0.6844  0.0139 -3.7619
  437MOL0     H58964   3.348   1.357   9.888  0.3080 -0.2758  2.1698
  437MOL0     H58965   3.384   1.666   9.870 -1.6786  0.8568  2.0879
  437MOL0     H58966   3.245   1.570   9.804  0.9424  0.8497 -2.6453
  437MOL0     H58967   3.521   1.504   9.708 -0.9035 -1.1294 -1.4919
  437MOL0     H58968   3.368   1.464   9.651 -0.4096 -1.0263  2.1897
  437MOL0     H58969   3.493   1.627   9.522  2.0230  1.1249 -0.3220
  437MOL0     H58970   3.473   1.751   9.641 -3.0686  1.3425 -2.2024
  437MOL0     H58971   3.253   1.650   9.478  0.0159 -1.0598  0.0631
  437MOL0     H58972   3.213   1.711   9.634 -0.7566 -0.4980 -1.4534
  437MOL0     H58973   3.325   1.937   9.578 -2.2997  0.3540  0.4773
  437MOL0     H58974   3.198   1.880   9.466  0.2581  0.6671  0.3431
  437MOL0     H58975   3.388   1.811   9.311 -0.3283 -0.9508  2.1814
  437MOL0     H58976   3.498   1.891   9.415  1.0022 -3.5985  2.6079
  437MOL0     H58977   3.566   1.440  10.161  1.3178 -0.5069  1.3645
  437MOL0     H58978   3.780   1.492  10.304 -0.0653  0.7160  3.0105
  437MOL0     H58979   4.047   1.657  10.378  3.3937 -0.6531 -2.7204
  437MOL0     H58980   4.292   1.669  10.410 -2.1648  0.8581 -0.8318
  437MOL0     H58981   4.961   1.061  10.364  2.8958 -0.4977 -0.8238
  437MOL0     H58982   4.730   1.099  10.284 -1.7618 -0.2312 -0.8158
  437MOL0     H58983   4.393   0.833   9.996 -0.0544  0.0308 -0.3828
  437MOL0     H58984   4.168   0.750   9.967  1.4107 -0.0395 -0.9663
  437MOL0     H58985   3.865   0.661  10.190 -0.4372  0.2193 -0.0044
  437MOL0     H58986   3.963   0.765  10.310  1.1477 -0.7794 -0.7223
  437MOL0     H58987   3.710   0.854  10.170  1.0490 -1.3860 -0.2262
  437MOL0     H58988   3.806   0.934  10.302  3.0039 -0.0936 -0.9633
  437MOL0     H58989   3.777   0.764  10.455 -0.7409  0.9962  0.3700
  437MOL0     H58990   3.678   0.662  10.340  0.4237  0.0684 -1.1555
  437MOL0     H58991   3.533   0.902  10.333  1.8239  0.1478 -1.1826
  437MOL0     H58992   3.583   0.905  10.498 -0.9097 -0.4477  0.3325
  437MOL0     H58993   3.326   0.611  10.567  0.7683 -1.1110  1.1980
  437MOL0     H58994   4.029   1.018  10.272 -0.9210 -0.7277  1.8565
  437MOL0     H58995   4.257   1.106  10.302  0.3404 -0.3318  0.1480
  438MOL0     O58996   0.115   0.236   6.443 -0.3774  0.2543 -1.1337
  438MOL0     C58997   0.159   0.341   6.420  0.6960 -0.2337  0.1096
  438MOL0     O58998   0.094   0.440   6.347 -0.4960  0.3327 -0.0213
  438MOL0     C58999  -0.042   0.424   6.312  0.0945  0.0059 -0.5735
  438MOL0     C59000  -0.129   0.316   6.285  1.0630  0.4035  0.1206
  438MOL0     C59001  -0.269   0.337   6.247 -0.0507 -0.4620 -0.1082
  438MOL0     C59002  -0.320   0.469   6.235  0.3579 -0.3891 -1.0041
  438MOL0     O59003  -0.459   0.487   6.205 -0.3722  1.1474 -0.7046
  438MOL0     C59004  -0.529   0.599   6.251  0.5015 -0.6364 -0.1705
  438MOL0     C59005  -0.677   0.569   6.208  0.4327 -1.1909  0.1196
  438MOL0     C59006  -0.752   0.703   6.183 -0.3128 -0.4921  0.0487
  438MOL0     C59007  -0.885   0.698   6.106  0.6686 -0.3377 -0.2804
  438MOL0     C59008  -0.975   0.595   6.161  1.4343 -0.0649  0.5043
  438MOL0     C59009  -1.109   0.562   6.088 -0.2416  1.0274 -0.2304
  438MOL0     C59010  -1.231   0.641   6.111  1.1333  0.0470 -0.5161
  438MOL0     C59011  -1.356   0.588   6.042 -0.2979  0.9788  0.1306
  438MOL0     N59012  -1.480   0.618   6.121 -0.8896  0.2279 -0.2781
  438MOL0     C59013  -1.499   0.737   6.182  0.0117  0.4576  0.3270
  438MOL0     C59014  -1.618   0.733   6.235 -0.9981  0.4073  0.1140
  438MOL0     C59015  -1.683   0.848   6.308 -0.1141  0.6987 -0.3484
  438MOL0     C59016  -1.807   0.911   6.230 -0.0597  0.9576  0.4111
  438MOL0     C59017  -1.924   0.813   6.202  0.2375 -0.1901 -0.2399
  438MOL0     C59018  -2.016   0.776   6.325 -0.9159  0.9744  0.3453
  438MOL0     O59019  -2.093   0.892   6.365  0.7848  0.1796 -0.6364
  438MOL0     C59020  -2.185   0.871   6.468  0.8586  0.2851  0.2875
  438MOL0     C59021  -2.228   0.746   6.515 -0.0492 -0.1241 -0.1977
  438MOL0     C59022  -2.311   0.744   6.628  0.6309 -0.1824 -0.4695
  438MOL0     C59023  -2.355   0.605   6.669 -0.1420 -1.1730 -0.9349
  438MOL0     C59024  -2.361   0.864   6.688  0.0331  0.1033 -0.1322
  438MOL0     C59025  -2.459   0.867   6.792 -1.1081 -0.8589 -1.3094
  438MOL0     O59026  -2.487   0.758   6.868  0.1983  0.3553  0.2192
  438MOL0     C59027  -2.569   0.752   6.975  1.1712 -0.1425  0.9376
  438MOL0     C59028  -2.631   0.862   7.043 -0.0831 -0.1850  0.3857
  438MOL0     C59029  -2.726   0.843   7.143 -0.0244 -1.1243 -0.1012
  438MOL0     C59030  -2.756   0.714   7.186 -1.4281  1.2280  0.5962
  438MOL0     O59031  -2.845   0.682   7.281 -0.1049  1.0323 -0.7573
  438MOL0     C59032  -2.878   0.780   7.382  0.1302 -0.1635  0.5534
  438MOL0     C59033  -2.993   0.729   7.477 -0.3179  0.0094  0.3371
  438MOL0     C59034  -3.115   0.670   7.400 -0.0764  0.1422 -0.4797
  438MOL0     C59035  -3.199   0.589   7.497  0.7829  0.3843 -0.7525
  438MOL0     C59036  -3.318   0.523   7.426 -0.5121 -0.8258  0.4443
  438MOL0     C59037  -3.453   0.502   7.501 -0.1844 -0.0688  0.2936
  438MOL0     C59038  -3.585   0.472   7.425 -0.1762  0.0671 -0.0795
  438MOL0     C59039  -3.617   0.575   7.312  0.7585 -0.9353 -0.6542
  438MOL0    Cl59040  -3.624   0.729   7.395  0.2649  0.1006 -0.3204
  438MOL0     C59041  -2.697   0.599   7.112  0.9470 -0.1624  0.9728
  438MOL0     C59042  -2.603   0.626   7.008 -0.3293 -0.6355 -0.0532
  438MOL0     O59043  -2.521   0.976   6.795 -0.3410 -0.3185 -0.0638
  438MOL0     C59044  -2.309   0.988   6.641 -0.6987  0.9217 -0.0745
  438MOL0     C59045  -2.229   0.992   6.534 -0.3058  0.8068 -0.0244
  438MOL0     N59046  -1.668   0.603   6.213  0.1141 -0.2813 -0.2332
  438MOL0     N59047  -1.585   0.539   6.137 -0.2830  0.1011 -0.1268
  438MOL0     C59048  -0.236   0.574   6.258 -0.4311 -0.0609  0.1789
  438MOL0     C59049  -0.103   0.550   6.292  0.5534 -0.2922 -0.7226
  438MOL0     C59050   0.297   0.359   6.453 -0.2727  0.4520 -0.1025
  438MOL0     C59051   0.356   0.484   6.429 -0.4282 -0.4764  0.3320
  438MOL0     C59052   0.492   0.506   6.458  0.7567 -0.8263 -0.6270
  438MOL0     C59053   0.569   0.406   6.508  0.0027  0.6456 -0.5781
  438MOL0     O59054   0.704   0.414   6.526  0.2212  0.1352  0.2280
  438MOL0     C59055   0.783   0.513   6.461 -0.1475 -0.2581 -0.0797
  438MOL0     C59056   0.917   0.463   6.446 -0.4325  0.6812  0.2443
  438MOL0     C59057   1.001   0.541   6.343 -0.5293  0.6340  0.1726
  438MOL0     C59058   1.079   0.657   6.409 -0.4353 -0.0959  0.4011
  438MOL0     C59059   1.212   0.654   6.351  0.3325 -0.1707  0.7172
  438MOL0     C59060   1.326   0.658   6.306  0.0823  0.8546  0.0289
  438MOL0     C59061   0.509   0.280   6.545  0.5659 -0.3419  0.1119
  438MOL0     C59062   0.375   0.257   6.516 -0.0988  0.6100 -0.4688
  438MOL0     H59063  -0.094   0.213   6.288 -1.6492 -0.6015  2.6603
  438MOL0     H59064  -0.340   0.255   6.237 -2.4765  1.3606  1.0827
  438MOL0     H59065  -0.528   0.612   6.359 -1.1082  1.4041 -0.3514
  438MOL0     H59066  -0.478   0.689   6.215  1.7792 -1.9354 -1.7761
  438MOL0     H59067  -0.669   0.497   6.127 -0.5416 -2.7848  1.3680
  438MOL0     H59068  -0.722   0.529   6.300 -0.5183  0.4295  0.3903
  438MOL0     H59069  -0.781   0.739   6.282 -1.4328 -2.0976  0.3501
  438MOL0     H59070  -0.685   0.770   6.127 -2.2018 -0.1387 -1.9644
  438MOL0     H59071  -0.931   0.797   6.099  1.4093 -0.0949 -2.5848
  438MOL0     H59072  -0.860   0.677   6.002 -1.8648  1.8979 -1.4710
  438MOL0     H59073  -0.922   0.501   6.174  0.5847 -0.9337 -1.7793
  438MOL0     H59074  -1.004   0.632   6.260  1.6367  0.1871  0.4724
  438MOL0     H59075  -1.092   0.570   5.980 -0.7798  1.6848 -0.2755
  438MOL0     H59076  -1.144   0.467   6.132 -0.3473  1.5953  0.9583
  438MOL0     H59077  -1.259   0.643   6.217 -3.8814 -0.5170 -1.5967
  438MOL0     H59078  -1.213   0.743   6.076  0.4328  0.3679  0.0393
  438MOL0     H59079  -1.350   0.479   6.030 -1.1470  0.7754  1.4526
  438MOL0     H59080  -1.381   0.632   5.945 -2.9166 -0.3215  0.1228
  438MOL0     H59081  -1.438   0.826   6.171  1.9743 -0.9554 -1.0097
  438MOL0     H59082  -1.720   0.804   6.401  0.5879 -2.0705 -1.3006
  438MOL0     H59083  -1.609   0.926   6.331 -0.8075  1.4687 -0.6505
  438MOL0     H59084  -1.772   0.952   6.135  1.1781 -2.2625 -0.6733
  438MOL0     H59085  -1.844   0.987   6.299 -2.4825 -0.3542  0.6643
  438MOL0     H59086  -1.898   0.715   6.162  2.7392 -0.0379  0.7867
  438MOL0     H59087  -1.998   0.858   6.135 -0.0630  0.4112  0.4870
  438MOL0     H59088  -1.948   0.746   6.406 -0.9508  0.7817  0.3041
  438MOL0     H59089  -2.069   0.683   6.305  0.1552  0.7502 -1.6253
  438MOL0     H59090  -2.200   0.655   6.464 -0.8328 -0.4486 -0.0565
  438MOL0     H59091  -2.463   0.595   6.651 -0.5893  0.3272  0.7154
  438MOL0     H59092  -2.301   0.513   6.643  3.6235  1.5440 -3.8957
  438MOL0     H59093  -2.325   0.602   6.774 -0.3945  2.2909 -0.6668
  438MOL0     H59094  -2.609   0.966   7.021 -0.1551  0.7276  3.9780
  438MOL0     H59095  -2.766   0.934   7.187 -1.5014 -2.5972  1.7316
  438MOL0     H59096  -2.792   0.814   7.441  0.1400  1.9637 -0.5849
  438MOL0     H59097  -2.922   0.871   7.341 -2.9485 -0.0656  3.6305
  438MOL0     H59098  -2.943   0.660   7.547 -0.0806  0.9809  1.1415
  438MOL0     H59099  -3.046   0.807   7.532 -1.3523  1.8629 -3.0516
  438MOL0     H59100  -3.074   0.599   7.328  1.9026 -0.3551  1.0621
  438MOL0     H59101  -3.170   0.751   7.351  1.3350  0.6104 -1.3536
  438MOL0     H59102  -3.156   0.507   7.554 -1.3846 -0.6247 -0.4758
  438MOL0     H59103  -3.245   0.648   7.576 -0.3184 -2.0160  0.4921
  438MOL0     H59104  -3.282   0.430   7.380 -1.4283  0.2757 -2.7970
  438MOL0     H59105  -3.342   0.593   7.346  1.7483 -1.0310 -0.4809
  438MOL0     H59106  -3.442   0.418   7.570 -1.7735  0.7155  1.6105
  438MOL0     H59107  -3.467   0.585   7.572  1.2084  0.4140  0.0448
  438MOL0     H59108  -3.663   0.479   7.501 -0.2183  3.1009 -0.3080
  438MOL0     H59109  -3.579   0.375   7.375 -3.1040  0.7110 -1.8989
  438MOL0     H59110  -3.718   0.553   7.275  0.2209  0.4151 -0.0759
  438MOL0     H59111  -3.546   0.582   7.230  2.0318  0.8090  0.5272
  438MOL0     H59112  -2.717   0.496   7.140  0.4411 -1.0242 -2.1021
  438MOL0     H59113  -2.555   0.550   6.947 -3.7305 -0.7525 -2.8989
  438MOL0     H59114  -2.352   1.082   6.674  0.5603  2.1091 -1.6757
  438MOL0     H59115  -2.189   1.086   6.499  2.1217 -0.4390 -0.7657
  438MOL0     H59116  -0.265   0.677   6.241 -0.9613 -0.5853 -2.8258
  438MOL0     H59117  -0.030   0.631   6.299  2.1252 -1.8466  3.6254
  438MOL0     H59118   0.300   0.565   6.383  0.2144 -1.3310 -2.0587
  438MOL0     H59119   0.549   0.595   6.436 -0.0362  0.8523  3.2603
  438MOL0     H59120   0.742   0.548   6.366  0.3488  1.2245  0.2238
  438MOL0     H59121   0.794   0.604   6.520  1.9141  0.3762 -1.3606
  438MOL0     H59122   0.905   0.360   6.409 -3.3157  1.3151 -0.8114
  438MOL0     H59123   0.961   0.467   6.546 -0.6924  0.8540  0.3513
  438MOL0     H59124   0.939   0.592   6.269  0.4016  0.7777 -0.5263
  438MOL0     H59125   1.071   0.471   6.296 -0.8131 -0.5591  1.4803
  438MOL0     H59126   1.095   0.642   6.516  1.0213 -0.6576  0.1326
  438MOL0     H59127   1.028   0.752   6.394  0.9980  0.4468 -1.3307
  438MOL0     H59128   1.420   0.668   6.256  0.9625 -1.3507  1.1318
  438MOL0     H59129   0.571   0.213   6.604 -0.9465 -1.6040  0.3531
  438MOL0     H59130   0.338   0.160   6.546  1.2128  0.1548 -0.2705
  439MOL0     O59131   9.176   5.199   5.717 -0.1509  0.0765  0.1651
  439MOL0     C59132   9.279   5.135   5.694 -0.1059  0.4671 -1.1422
  439MOL0     O59133   9.295   5.000   5.708  0.2226  0.7199  0.6907
  439MOL0     C59134   9.192   4.930   5.768  0.2415  0.6288 -0.1994
  439MOL0     C59135   9.159   4.961   5.901 -0.1922 -1.0874 -0.1451
  439MOL0     C59136   9.049   4.898   5.967  0.3610 -0.3710  0.2492
  439MOL0     C59137   8.980   4.793   5.902 -0.3859  0.4927 -0.7582
  439MOL0     O59138   8.889   4.712   5.955 -0.1713 -0.5922 -0.0218
  439MOL0     C59139   8.849   4.749   6.087  0.1844  0.6127 -0.2428
  439MOL0     C59140   8.770   4.630   6.126 -0.8970 -0.7474  0.2405
  439MOL0     C59141   8.692   4.630   6.256 -0.0105  0.6738  0.4016
  439MOL0     C59142   8.604   4.505   6.256  0.3032  0.1019 -0.5671
  439MOL0     C59143   8.514   4.511   6.386 -0.0206  0.3358  0.2788
  439MOL0     C59144   8.413   4.397   6.396  1.0129 -0.1295 -0.3029
  439MOL0     C59145   8.315   4.406   6.518 -0.2480  0.2161  0.6573
  439MOL0     C59146   8.249   4.268   6.547  0.7436  0.3477 -0.4558
  439MOL0     N59147   8.122   4.253   6.469 -0.6311 -0.2504  0.9787
  439MOL0     C59148   8.105   4.172   6.364 -0.4173  0.0868 -0.9287
  439MOL0     C59149   7.977   4.182   6.336 -0.3038 -0.1384 -0.4647
  439MOL0     C59150   7.904   4.092   6.243  0.4444  0.4626  0.7528
  439MOL0     C59151   7.855   3.968   6.323  0.4463 -0.1118  1.4416
  439MOL0     C59152   7.746   3.883   6.240 -0.5128  0.9469  0.2424
  439MOL0     C59153   7.684   3.781   6.332 -0.1145  0.1835 -0.3229
  439MOL0     O59154   7.565   3.717   6.283  0.6477  0.8776  0.6012
  439MOL0     C59155   7.573   3.623   6.180  0.6355 -0.3880  0.0949
  439MOL0     C59156   7.688   3.551   6.139 -0.2738  0.2641 -0.4757
  439MOL0     C59157   7.679   3.436   6.050  0.2365 -0.8744  0.4077
  439MOL0     C59158   7.807   3.351   6.035 -0.4623 -0.8964  0.6048
  439MOL0     C59159   7.556   3.407   5.986 -0.1570  0.7472  0.3944
  439MOL0     C59160   7.553   3.305   5.868 -0.0122 -0.0627  0.1091
  439MOL0     O59161   7.444   3.318   5.785 -0.7130 -0.7228 -0.7826
  439MOL0     C59162   7.457   3.294   5.649  0.4417 -0.2785 -0.0943
  439MOL0     C59163   7.572   3.310   5.574 -1.1513 -0.2923 -0.8854
  439MOL0     C59164   7.571   3.277   5.444 -1.2011  0.1173  1.1871
  439MOL0     C59165   7.463   3.238   5.372  0.6788  1.2694 -0.7289
  439MOL0     O59166   7.482   3.212   5.245 -0.1742  0.1490 -0.0338
  439MOL0     C59167   7.389   3.133   5.176 -0.4571  0.3958  0.4301
  439MOL0     C59168   7.437   3.092   5.041 -0.6992  0.2653 -0.0514
  439MOL0     C59169   7.448   3.215   4.943  0.1047  0.0507  0.8361
  439MOL0     C59170   7.547   3.188   4.822  0.1322 -0.4216 -0.3451
  439MOL0     C59171   7.565   3.316   4.728  0.4381  0.6230  0.2450
  439MOL0     C59172   7.678   3.318   4.632 -0.0267 -0.3924 -0.0189
  439MOL0     C59173   7.700   3.444   4.557 -0.1529  0.2564  0.6823
  439MOL0     C59174   7.768   3.409   4.425 -0.2287  0.1976  0.6266
  439MOL0    Cl59175   7.783   3.566   4.343 -0.2083 -0.0095  0.3327
  439MOL0     C59176   7.343   3.217   5.436 -0.7096  1.3980 -0.5097
  439MOL0     C59177   7.343   3.259   5.570  0.3553 -0.0100  0.2160
  439MOL0     O59178   7.647   3.223   5.851  0.6155  0.5510  0.0083
  439MOL0     C59179   7.449   3.491   6.022  0.5416  0.2578  0.2963
  439MOL0     C59180   7.459   3.596   6.114 -0.0638  0.3414 -0.2184
  439MOL0     N59181   7.916   4.265   6.424  0.4013  0.7048 -0.2173
  439MOL0     N59182   8.006   4.314   6.498 -0.1899 -0.5118  0.1353
  439MOL0     C59183   9.019   4.765   5.768 -0.1308 -1.4184  0.5840
  439MOL0     C59184   9.123   4.830   5.696  0.7882 -0.5383  0.3196
  439MOL0     C59185   9.388   5.202   5.638  0.0833  0.8592 -0.1957
  439MOL0     C59186   9.457   5.144   5.535  0.6346 -0.3880 -0.3646
  439MOL0     C59187   9.561   5.218   5.481  0.4721  0.3591  0.2378
  439MOL0     C59188   9.600   5.340   5.528  0.6615 -0.2560  0.0618
  439MOL0     O59189   9.699   5.406   5.469  0.6629 -0.3296 -0.3139
  439MOL0     C59190   9.715   5.414   5.327 -1.2618  0.9107  0.6013
  439MOL0     C59191   9.840   5.492   5.288  0.1178  0.0819 -0.2308
  439MOL0     C59192   9.981   5.461   5.365 -0.2088  1.2671  0.1759
  439MOL0     C59193  10.042   5.329   5.327  0.4694 -0.3069  0.1566
  439MOL0     C59194  10.090   5.344   5.191  0.4836 -0.3869 -0.6880
  439MOL0     C59195  10.143   5.385   5.090  0.5160  0.4866  0.0118
  439MOL0     C59196   9.539   5.390   5.651 -1.3154  0.0463 -0.3084
  439MOL0     C59197   9.428   5.322   5.701 -0.8389 -0.9903  0.1502
  439MOL0     H59198   9.219   5.033   5.956  1.7254 -2.1628 -0.7320
  439MOL0     H59199   9.038   4.929   6.071  0.6096  2.5330 -0.5058
  439MOL0     H59200   8.937   4.760   6.151 -0.4805 -1.8557  1.2410
  439MOL0     H59201   8.785   4.837   6.096 -2.7042 -1.5529  2.4206
  439MOL0     H59202   8.710   4.607   6.038  0.9163 -1.9464 -0.7513
  439MOL0     H59203   8.841   4.547   6.128 -1.5053 -1.2760 -0.0171
  439MOL0     H59204   8.758   4.622   6.343  0.2166 -1.6047  0.0726
  439MOL0     H59205   8.630   4.720   6.266 -0.1447  0.4821  1.3973
  439MOL0     H59206   8.531   4.494   6.175 -2.0647  0.6809  1.3974
  439MOL0     H59207   8.670   4.418   6.266  1.9273  1.6291  4.7662
  439MOL0     H59208   8.566   4.523   6.481  0.2174  3.1771 -0.1294
  439MOL0     H59209   8.457   4.605   6.382 -0.6567 -0.0485 -3.3724
  439MOL0     H59210   8.351   4.393   6.306 -0.1529 -1.5747  0.5106
  439MOL0     H59211   8.473   4.307   6.412 -1.3124 -1.5984  0.7318
  439MOL0     H59212   8.373   4.431   6.607 -1.4490  0.7467  1.3214
  439MOL0     H59213   8.246   4.488   6.495  0.7160  1.0926  0.8311
  439MOL0     H59214   8.228   4.258   6.654 -2.9468 -0.9545 -1.1640
  439MOL0     H59215   8.322   4.191   6.521  1.6242  1.8489 -2.7171
  439MOL0     H59216   8.178   4.097   6.336 -0.6702 -0.7603  0.6256
  439MOL0     H59217   7.819   4.150   6.205  0.0434 -1.1186 -0.9022
  439MOL0     H59218   7.967   4.053   6.162 -0.0819  0.3241  0.4027
  439MOL0     H59219   7.794   3.992   6.410 -2.7683  0.1495 -0.7331
  439MOL0     H59220   7.936   3.902   6.357  1.4649 -0.6251 -1.6389
  439MOL0     H59221   7.803   3.849   6.153 -0.5026  2.0477 -0.2052
  439MOL0     H59222   7.672   3.954   6.201 -2.5328  0.4688  2.9266
  439MOL0     H59223   7.670   3.823   6.432  5.0037 -1.3110  1.3661
  439MOL0     H59224   7.757   3.703   6.356  0.9246  1.3455  0.4139
  439MOL0     H59225   7.783   3.574   6.185  0.5293  0.6713 -2.2392
  439MOL0     H59226   7.845   3.341   5.933  0.0595 -2.5753  0.9334
  439MOL0     H59227   7.891   3.398   6.087  1.3580  0.4965 -3.1621
  439MOL0     H59228   7.789   3.250   6.070  0.3017 -1.1867  0.1862
  439MOL0     H59229   7.663   3.342   5.625 -1.0258 -0.6736 -0.8632
  439MOL0     H59230   7.663   3.288   5.387 -2.0602  4.1556  0.2306
  439MOL0     H59231   7.365   3.044   5.235 -0.3532  1.0657  1.5136
  439MOL0     H59232   7.296   3.189   5.170 -0.3124  0.4745 -1.7020
  439MOL0     H59233   7.536   3.046   5.031 -0.1754  1.5979 -1.5239
  439MOL0     H59234   7.358   3.025   5.007  0.4963 -0.8773 -0.6508
  439MOL0     H59235   7.478   3.309   4.992 -2.0017  1.3370 -0.2157
  439MOL0     H59236   7.347   3.241   4.911  0.1103  0.4676  1.1396
  439MOL0     H59237   7.643   3.164   4.869 -0.1862  0.4592  0.8101
  439MOL0     H59238   7.512   3.103   4.763 -1.3048 -1.5526  2.0199
  439MOL0     H59239   7.581   3.403   4.792 -0.6213  0.2183  1.1081
  439MOL0     H59240   7.476   3.334   4.667  0.5259 -2.9804 -1.1898
  439MOL0     H59241   7.765   3.291   4.692 -0.2759  0.2287  0.6306
  439MOL0     H59242   7.678   3.230   4.568  0.5082  0.5621 -1.3826
  439MOL0     H59243   7.761   3.515   4.613  0.7257 -0.3206  0.4656
  439MOL0     H59244   7.603   3.495   4.546 -0.0414  0.4046  0.3801
  439MOL0     H59245   7.712   3.337   4.364 -1.9790  0.2778  2.0442
  439MOL0     H59246   7.868   3.365   4.433 -1.2171 -1.9765  2.0035
  439MOL0     H59247   7.250   3.184   5.389 -2.2421  2.6034  1.5118
  439MOL0     H59248   7.253   3.253   5.630 -1.1816  1.2398 -1.8375
  439MOL0     H59249   7.356   3.484   5.967 -0.0505  0.7299  1.2156
  439MOL0     H59250   7.366   3.643   6.145  1.4634  4.1079 -0.9202
  439MOL0     H59251   8.978   4.680   5.715  0.5479  1.1886 -4.7758
  439MOL0     H59252   9.145   4.787   5.599 -3.1975  0.3308 -1.1344
  439MOL0     H59253   9.417   5.049   5.501 -3.2374  1.2368 -0.8076
  439MOL0     H59254   9.615   5.174   5.398  0.6290  0.8894  0.0566
  439MOL0     H59255   9.727   5.313   5.286  1.0866  0.2612  2.6739
  439MOL0     H59256   9.623   5.452   5.282 -1.6080  1.0497  1.4077
  439MOL0     H59257   9.807   5.596   5.302 -0.4369  0.0626 -1.2323
  439MOL0     H59258   9.865   5.476   5.182  0.2309 -0.8146 -0.0722
  439MOL0     H59259   9.956   5.451   5.471  1.4826 -1.6734  0.3986
  439MOL0     H59260  10.057   5.539   5.365  2.4889 -1.1588  2.1965
  439MOL0     H59261   9.970   5.247   5.327 -2.3002  1.9735  0.9677
  439MOL0     H59262  10.122   5.310   5.400  1.7056  1.0331 -0.8162
  439MOL0     H59263  10.195   5.428   5.006  1.6877  2.2390  1.5474
  439MOL0     H59264   9.581   5.477   5.702  3.9216  0.8186 -4.9061
  439MOL0     H59265   9.390   5.374   5.788  1.1156 -0.7202  0.8954
  440MOL0     O59266   7.131   7.897   6.025 -0.3641 -0.3315 -0.5632
  440MOL0     C59267   7.192   7.798   5.983 -0.8520 -0.6663  0.3115
  440MOL0     O59268   7.205   7.764   5.855  0.0674  0.0322  0.0355
  440MOL0     C59269   7.173   7.860   5.757  0.3704  0.3074  0.0664
  440MOL0     C59270   7.271   7.932   5.698  0.0791 -0.8398  0.0851
  440MOL0     C59271   7.238   8.029   5.606  0.1366  0.1151 -0.0086
  440MOL0     C59272   7.099   8.042   5.568 -0.0372  0.1814 -0.2187
  440MOL0     O59273   7.050   8.136   5.485  0.4314  0.6852  1.2479
  440MOL0     C59274   7.093   8.263   5.515 -0.1444  0.8274 -0.1802
  440MOL0     C59275   7.033   8.371   5.417  0.2510 -0.1251  0.3672
  440MOL0     C59276   7.083   8.516   5.455  0.0724  1.1049  0.3380
  440MOL0     C59277   7.021   8.616   5.360 -0.1764 -0.3312  0.3785
  440MOL0     C59278   7.058   8.757   5.405 -0.0299 -1.0815 -0.1062
  440MOL0     C59279   6.941   8.852   5.375  0.9906  0.1330  0.6984
  440MOL0     C59280   6.999   8.995   5.367 -0.4705  0.4865 -0.3246
  440MOL0     C59281   6.919   9.078   5.272  1.6233 -0.5123 -0.3353
  440MOL0     N59282   6.780   9.110   5.319  0.2142  0.6355 -0.4006
  440MOL0     C59283   6.742   9.154   5.439  1.4776  1.4622 -0.1213
  440MOL0     C59284   6.605   9.168   5.427 -0.5113  0.7241 -0.3955
  440MOL0     C59285   6.509   9.220   5.530 -0.0897 -0.4666  0.2795
  440MOL0     C59286   6.430   9.107   5.606  0.5872 -0.3315 -0.3015
  440MOL0     C59287   6.519   9.003   5.677  0.1019  0.1066  1.7834
  440MOL0     C59288   6.577   9.067   5.804  0.2681 -0.1328 -0.5559
  440MOL0     O59289   6.617   8.970   5.905 -0.0478 -0.0318  0.2828
  440MOL0     C59290   6.734   8.904   5.880 -0.2728  0.2254 -0.1205
  440MOL0     C59291   6.744   8.799   5.965 -0.7083  0.5830  0.0092
  440MOL0     C59292   6.856   8.711   5.961 -0.4182 -0.6899  0.3541
  440MOL0     C59293   6.841   8.592   6.048 -0.5137  0.3741  0.8817
  440MOL0     C59294   6.959   8.736   5.871 -0.0745 -0.3222  0.2782
  440MOL0     C59295   7.086   8.662   5.864  0.4160 -0.6289  0.5622
  440MOL0     O59296   7.091   8.528   5.884 -0.0336 -0.1331  0.0888
  440MOL0     C59297   7.199   8.434   5.860  0.6119 -0.5584  0.2432
  440MOL0     C59298   7.181   8.302   5.899  0.2761 -0.3942  0.8336
  440MOL0     C59299   7.283   8.214   5.893 -0.9185 -0.1978  0.2080
  440MOL0     C59300   7.403   8.250   5.830 -0.2454  0.1966 -0.8432
  440MOL0     O59301   7.491   8.147   5.822 -0.7374  0.2073 -0.2799
  440MOL0     C59302   7.602   8.149   5.736  0.8721  0.5419 -0.2133
  440MOL0     C59303   7.683   8.024   5.776 -0.3181  0.3686 -0.6252
  440MOL0     C59304   7.807   8.002   5.697 -1.0233  0.4012  0.5051
  440MOL0     C59305   7.778   7.942   5.557 -0.2257 -0.6571 -0.1872
  440MOL0     C59306   7.919   7.910   5.499 -0.4722 -0.5545 -0.1916
  440MOL0     C59307   7.903   7.882   5.337  0.3333  0.5238 -0.5533
  440MOL0     C59308   8.035   7.863   5.273 -0.2104 -0.8108  0.7972
  440MOL0     C59309   8.084   7.716   5.272  0.5177 -0.5446 -0.0277
  440MOL0    Cl59310   8.213   7.693   5.144 -0.1584  0.0592 -0.1916
  440MOL0     C59311   7.426   8.381   5.793  0.0396  0.3034  0.1561
  440MOL0     C59312   7.322   8.471   5.810 -0.4703 -0.1389  0.4374
  440MOL0     O59313   7.186   8.728   5.839  0.2238  0.7879 -1.1377
  440MOL0     C59314   6.946   8.846   5.781 -0.4926  0.2018 -0.7127
  440MOL0     C59315   6.835   8.931   5.783 -0.2435 -0.3480 -0.1227
  440MOL0     N59316   6.564   9.123   5.303  0.8712  0.3392 -0.1279
  440MOL0     N59317   6.670   9.101   5.240 -0.6412  0.1197  0.0404
  440MOL0     C59318   6.999   7.959   5.621 -0.5076 -0.8388  0.7643
  440MOL0     C59319   7.040   7.872   5.714  0.4702 -0.0630 -0.5347
  440MOL0     C59320   7.254   7.715   6.089  0.8399 -0.6127 -0.2345
  440MOL0     C59321   7.309   7.600   6.052  0.2990 -0.1474  0.0935
  440MOL0     C59322   7.360   7.505   6.143 -0.0181  0.2316 -0.2592
  440MOL0     C59323   7.365   7.539   6.275 -0.8413 -0.0991 -0.8301
  440MOL0     O59324   7.417   7.468   6.380  0.2118  0.7759  0.4860
  440MOL0     C59325   7.501   7.348   6.359  0.1358  0.2310  0.5368
  440MOL0     C59326   7.505   7.259   6.479  0.2262 -0.0473 -0.6405
  440MOL0     C59327   7.555   7.337   6.600  0.0708 -0.0645  0.3373
  440MOL0     C59328   7.702   7.349   6.593 -0.6860 -0.9977  0.3847
  440MOL0     C59329   7.765   7.402   6.721  0.2421 -0.8416 -0.7863
  440MOL0     C59330   7.845   7.428   6.806 -0.5000 -0.2920  0.9000
  440MOL0     C59331   7.320   7.667   6.308  0.4552 -1.0718 -0.9661
  440MOL0     C59332   7.265   7.751   6.221  0.7001 -0.6934  0.2474
  440MOL0     H59333   7.375   7.927   5.729  0.9083  0.9719 -2.1291
  440MOL0     H59334   7.319   8.088   5.565  1.0997 -1.6004 -0.6457
  440MOL0     H59335   7.060   8.290   5.615  0.8256  2.5976 -0.2920
  440MOL0     H59336   7.203   8.271   5.516 -0.0430 -0.2876 -0.6152
  440MOL0     H59337   7.074   8.347   5.318  0.4470 -1.0993  0.6720
  440MOL0     H59338   6.923   8.371   5.415  0.2068 -1.7270 -1.6530
  440MOL0     H59339   7.055   8.531   5.560  1.1624  0.5593  0.7211
  440MOL0     H59340   7.192   8.523   5.457  0.0790  1.2725 -0.3968
  440MOL0     H59341   7.058   8.596   5.259 -1.4780  0.3604 -0.2576
  440MOL0     H59342   6.913   8.606   5.346 -0.3489  1.8067 -0.1181
  440MOL0     H59343   7.084   8.757   5.511 -0.3833  1.9251  0.0902
  440MOL0     H59344   7.150   8.783   5.352  0.5420 -1.2958  0.7795
  440MOL0     H59345   6.893   8.825   5.280  0.1286 -1.6206  1.5829
  440MOL0     H59346   6.862   8.840   5.450 -0.0852  2.5605  0.0653
  440MOL0     H59347   6.991   9.041   5.465 -1.6294  2.8032 -1.4375
  440MOL0     H59348   7.102   8.992   5.329 -0.1867 -0.6141  0.4554
  440MOL0     H59349   6.913   9.016   5.182 -0.5652  0.5134 -0.9686
  440MOL0     H59350   6.958   9.179   5.253 -2.9163  1.2642 -1.6560
  440MOL0     H59351   6.799   9.154   5.531 -0.0353 -0.5544  0.8865
  440MOL0     H59352   6.557   9.276   5.611  3.0250 -1.7453 -0.5491
  440MOL0     H59353   6.431   9.278   5.480 -1.9225 -2.7395  0.3657
  440MOL0     H59354   6.373   9.053   5.530  0.7409 -1.2393  0.2155
  440MOL0     H59355   6.367   9.146   5.686  1.0653  1.2146 -0.6581
  440MOL0     H59356   6.598   8.973   5.608 -1.2466 -0.6807  0.5197
  440MOL0     H59357   6.473   8.905   5.697  1.9657 -2.0873 -3.2246
  440MOL0     H59358   6.491   9.127   5.835 -0.7822 -0.9431 -1.7701
  440MOL0     H59359   6.659   9.134   5.780  1.5831 -1.5967 -0.3248
  440MOL0     H59360   6.667   8.786   6.041  0.6903  2.1892  1.8155
  440MOL0     H59361   6.938   8.577   6.096 -0.9800 -3.2256  0.9319
  440MOL0     H59362   6.758   8.607   6.118 -2.1550  3.0757 -1.4179
  440MOL0     H59363   6.831   8.498   5.993  0.2903  1.0804 -0.5139
  440MOL0     H59364   7.092   8.270   5.951  0.8381  0.0110  2.0809
  440MOL0     H59365   7.258   8.112   5.920 -2.7644 -0.3503 -1.8490
  440MOL0     H59366   7.564   8.121   5.637 -1.6515  2.6445  0.0323
  440MOL0     H59367   7.662   8.241   5.732  3.1600 -0.8941 -0.9303
  440MOL0     H59368   7.706   8.035   5.883 -1.2121 -4.3216  0.2888
  440MOL0     H59369   7.621   7.934   5.781  0.9614 -0.5934 -1.3731
  440MOL0     H59370   7.867   7.932   5.756 -0.2215  1.5825  1.1355
  440MOL0     H59371   7.870   8.092   5.693  0.1872 -0.4682 -0.8107
  440MOL0     H59372   7.721   7.849   5.565 -0.0841 -0.8215 -1.0476
  440MOL0     H59373   7.736   8.021   5.495  0.2487  2.1023  2.7318
  440MOL0     H59374   7.955   7.818   5.546  1.0572 -0.4230 -1.0336
  440MOL0     H59375   7.992   7.991   5.508 -0.8592 -0.1960 -0.2394
  440MOL0     H59376   7.841   7.796   5.310 -4.7709  3.5894  0.1979
  440MOL0     H59377   7.850   7.973   5.310  1.3403  1.2652 -0.1138
  440MOL0     H59378   8.111   7.927   5.318 -1.2676  1.5069 -0.5437
  440MOL0     H59379   8.030   7.902   5.171 -1.6151 -0.9056  0.8181
  440MOL0     H59380   8.002   7.645   5.257  0.5777 -0.5207 -0.4888
  440MOL0     H59381   8.119   7.683   5.370 -1.9138 -3.0127  0.1327
  440MOL0     H59382   7.518   8.421   5.752 -0.1930  1.9004  1.0877
  440MOL0     H59383   7.347   8.569   5.771 -0.9415  0.1360  0.8098
  440MOL0     H59384   7.025   8.863   5.709  0.4308 -0.9971 -0.0038
  440MOL0     H59385   6.833   9.012   5.711  1.9535  0.0485  0.2107
  440MOL0     H59386   6.895   7.966   5.590 -0.2633  0.3704  0.1658
  440MOL0     H59387   6.975   7.797   5.759  0.6880 -0.6205 -1.1443
  440MOL0     H59388   7.326   7.586   5.946  0.1196 -1.4448  0.2158
  440MOL0     H59389   7.402   7.411   6.110  0.9348 -0.1673  1.8994
  440MOL0     H59390   7.464   7.285   6.277 -0.4158  0.5162  0.5640
  440MOL0     H59391   7.593   7.385   6.312 -0.2132 -1.6720 -1.8466
  440MOL0     H59392   7.577   7.177   6.476  0.6619  0.2555  0.8748
  440MOL0     H59393   7.403   7.224   6.496  1.0265 -2.9140 -1.2179
  440MOL0     H59394   7.540   7.282   6.694 -0.5422  0.5940  0.6276
  440MOL0     H59395   7.509   7.435   6.611  2.7477  0.9996  3.9024
  440MOL0     H59396   7.726   7.432   6.526  1.3761 -1.4217  0.5297
  440MOL0     H59397   7.761   7.265   6.555  0.8082  0.8480 -1.6988
  440MOL0     H59398   7.899   7.469   6.889  2.7250  4.4914 -2.9961
  440MOL0     H59399   7.333   7.686   6.414  0.4247 -4.2850 -0.2599
  440MOL0     H59400   7.231   7.850   6.249  1.2169 -0.1072 -1.0685
  441MOL0     O59401  10.572   9.337   7.494  0.1324  0.1230  0.8741
  441MOL0     C59402  10.555   9.319   7.616 -0.5106  0.1154  0.4118
  441MOL0     O59403  10.444   9.259   7.669  0.0129  0.1428 -0.2721
  441MOL0     C59404  10.346   9.204   7.589 -0.6542 -0.3741  0.2416
  441MOL0     C59405  10.212   9.235   7.639 -0.5051 -0.0699  0.1063
  441MOL0     C59406  10.097   9.201   7.572  0.0278 -0.0387  0.1200
  441MOL0     C59407  10.120   9.144   7.446  0.7169  0.2127  0.0906
  441MOL0     O59408  10.002   9.142   7.374  0.6532 -0.3248 -0.0627
  441MOL0     C59409   9.935   9.016   7.385  0.1121 -0.0945  0.0357
  441MOL0     C59410   9.797   9.033   7.448 -0.4375 -0.0515  0.0995
  441MOL0     C59411   9.709   8.905   7.451 -0.0285  0.0985  0.1463
  441MOL0     C59412   9.559   8.941   7.464  0.7529 -0.2239  0.2972
  441MOL0     C59413   9.473   8.813   7.501  0.0178  0.8218  0.5458
  441MOL0     C59414   9.331   8.843   7.459  0.1412  0.1442  0.4231
  441MOL0     C59415   9.247   8.711   7.490  0.0018  0.9886  0.1215
  441MOL0     C59416   9.250   8.620   7.363  0.7849  1.0029 -0.9581
  441MOL0     N59417   9.161   8.506   7.382  0.4161  0.6544 -0.1792
  441MOL0     C59418   9.216   8.378   7.395  0.1489 -0.2602  0.6941
  441MOL0     C59419   9.120   8.306   7.446  0.2463  0.1770 -0.2211
  441MOL0     C59420   9.119   8.153   7.480  0.1527 -0.2803 -0.1139
  441MOL0     C59421   9.029   8.090   7.371  0.2636  0.0348 -0.2184
  441MOL0     C59422   9.002   7.947   7.380 -0.4850  0.2313  0.2394
  441MOL0     C59423   8.912   7.916   7.499  0.1321 -0.0907 -0.2686
  441MOL0     O59424   8.785   7.956   7.458 -0.2758  0.3871  0.6886
  441MOL0     C59425   8.677   7.877   7.495  0.1467 -0.4142 -0.0847
  441MOL0     C59426   8.667   7.821   7.623 -0.9280  0.2485  0.0749
  441MOL0     C59427   8.561   7.736   7.649  0.5645  0.2131  0.0810
  441MOL0     C59428   8.581   7.655   7.768 -0.2282  0.3770  0.5513
  441MOL0     C59429   8.444   7.735   7.563 -0.8428  0.4096  0.3566
  441MOL0     C59430   8.320   7.659   7.603 -0.8057 -0.5703 -0.2190
  441MOL0     O59431   8.238   7.615   7.512  0.9430 -0.4029  0.3290
  441MOL0     C59432   8.113   7.563   7.543 -0.5166 -0.3295 -0.3238
  441MOL0     C59433   8.054   7.471   7.465  0.7055  0.7413  0.3089
  441MOL0     C59434   7.925   7.408   7.491 -0.0596 -0.1982 -0.5491
  441MOL0     C59435   7.848   7.450   7.594  0.3417  1.3545 -0.6997
  441MOL0     O59436   7.715   7.427   7.612  0.9482 -0.1928 -0.1802
  441MOL0     C59437   7.662   7.311   7.551  0.1112  0.6240 -0.0042
  441MOL0     C59438   7.518   7.274   7.607 -0.0182  0.3709  0.3493
  441MOL0     C59439   7.422   7.221   7.500 -0.3651  0.4209 -0.5566
  441MOL0     C59440   7.275   7.240   7.549 -0.1235  0.2353  0.1974
  441MOL0     C59441   7.156   7.154   7.493 -0.0364 -0.2491  0.4981
  441MOL0     C59442   7.104   7.214   7.363  0.7070  0.5912 -0.6128
  441MOL0     C59443   6.978   7.147   7.311 -0.2463  0.8275  0.6879
  441MOL0     C59444   6.883   7.247   7.244  0.1024  0.2283  0.5335
  441MOL0    Cl59445   6.955   7.383   7.150 -0.2023  1.0171 -0.3924
  441MOL0     C59446   7.901   7.550   7.678  0.3537  0.3012 -0.4531
  441MOL0     C59447   8.035   7.605   7.660  0.4186  0.4813  0.5095
  441MOL0     O59448   8.301   7.640   7.722  0.4540  0.7273 -0.0394
  441MOL0     C59449   8.450   7.806   7.447  0.7346  0.2684  0.3879
  441MOL0     C59450   8.568   7.864   7.406  0.5919  0.4084  0.2502
  441MOL0     N59451   9.009   8.380   7.472  0.3665  0.0767  0.0463
  441MOL0     N59452   9.033   8.505   7.436  0.5906  0.2817  0.5328
  441MOL0     C59453  10.243   9.097   7.401  0.7388  0.0997 -0.3127
  441MOL0     C59454  10.363   9.123   7.473  0.3263  0.3849  0.9223
  441MOL0     C59455  10.665   9.342   7.705  0.4029 -0.2109 -0.1059
  441MOL0     C59456  10.663   9.303   7.841  0.6908  0.0289  0.1696
  441MOL0     C59457  10.773   9.335   7.917 -0.0356  0.4821 -0.2606
  441MOL0     C59458  10.892   9.391   7.870 -0.8771  0.6824 -0.5567
  441MOL0     O59459  10.999   9.408   7.951  0.0613 -0.2725  0.0567
  441MOL0     C59460  11.124   9.458   7.907 -0.4175  0.0126  0.0493
  441MOL0     C59461  11.210   9.459   8.036  0.2978 -0.6854 -0.0168
  441MOL0     C59462  11.128   9.508   8.151  0.1924 -0.5299 -0.1467
  441MOL0     C59463  11.221   9.520   8.267  0.5058 -0.9712  0.0162
  441MOL0     C59464  11.324   9.633   8.265 -0.2155  0.1756  0.0639
  441MOL0     C59465  11.397   9.727   8.276  0.3854 -0.1927 -0.6337
  441MOL0     C59466  10.892   9.424   7.734  0.2861 -0.5973 -0.2621
  441MOL0     C59467  10.783   9.402   7.650  0.6760  0.6277 -1.0159
  441MOL0     H59468  10.194   9.291   7.730  0.2565  0.4045 -0.0216
  441MOL0     H59469  10.006   9.240   7.616  0.6503  0.8574  0.6540
  441MOL0     H59470   9.923   8.971   7.286 -0.9736 -0.6318  0.3858
  441MOL0     H59471   9.997   8.945   7.440  1.3368 -0.0737 -1.2499
  441MOL0     H59472   9.815   9.074   7.548 -0.5704  0.2968 -0.0170
  441MOL0     H59473   9.745   9.101   7.379 -0.5898 -0.7068 -0.4491
  441MOL0     H59474   9.709   8.854   7.354 -1.2848  1.0427 -0.3670
  441MOL0     H59475   9.748   8.831   7.521 -0.5570 -0.6045 -0.2862
  441MOL0     H59476   9.538   9.022   7.534  0.7202  1.6767 -1.7752
  441MOL0     H59477   9.519   8.975   7.368  0.6501 -1.7407 -0.2118
  441MOL0     H59478   9.507   8.724   7.447  0.5308  1.0400  0.5023
  441MOL0     H59479   9.479   8.793   7.608 -0.0959 -1.4480  0.1735
  441MOL0     H59480   9.298   8.931   7.516 -0.3514  0.6358 -0.6108
  441MOL0     H59481   9.332   8.864   7.352 -2.0618 -0.6913  0.2048
  441MOL0     H59482   9.274   8.662   7.584 -1.7802 -1.1743 -0.4373
  441MOL0     H59483   9.143   8.739   7.508 -0.5247 -0.4984 -0.5214
  441MOL0     H59484   9.348   8.587   7.328  0.3075  2.6879 -4.3061
  441MOL0     H59485   9.208   8.681   7.282  2.2262 -0.4223 -2.8461
  441MOL0     H59486   9.315   8.333   7.386  0.1188 -0.2588  0.3566
  441MOL0     H59487   9.222   8.124   7.458 -0.2157 -0.9782 -1.0000
  441MOL0     H59488   9.080   8.125   7.578 -1.5797  0.2397 -0.6146
  441MOL0     H59489   9.064   8.111   7.270 -0.2896  0.3959 -0.3383
  441MOL0     H59490   8.937   8.148   7.377  0.9878  1.2600 -0.6277
  441MOL0     H59491   9.100   7.900   7.387  1.7135  3.9226 -2.3209
  441MOL0     H59492   8.950   7.930   7.285 -0.7923  1.5072  0.1534
  441MOL0     H59493   8.931   7.952   7.601 -1.1315 -1.4250  0.4801
  441MOL0     H59494   8.914   7.807   7.505  1.9164 -0.1290 -0.9844
  441MOL0     H59495   8.746   7.839   7.695 -0.4749  1.0825 -0.6238
  441MOL0     H59496   8.542   7.702   7.859 -2.6517 -0.9860  0.3133
  441MOL0     H59497   8.537   7.556   7.752 -3.0356  1.7079 -0.6097
  441MOL0     H59498   8.688   7.638   7.785 -0.2829 -0.7957 -0.1467
  441MOL0     H59499   8.110   7.428   7.383 -2.4416 -1.3351 -0.9391
  441MOL0     H59500   7.894   7.325   7.428  0.0046  0.6912 -1.8017
  441MOL0     H59501   7.657   7.321   7.442 -2.3064  2.6383  0.2039
  441MOL0     H59502   7.738   7.236   7.576  1.5966  0.9158 -3.1642
  441MOL0     H59503   7.522   7.200   7.688 -2.3656 -1.1494 -0.8117
  441MOL0     H59504   7.475   7.367   7.645 -1.4869 -1.1418  2.5949
  441MOL0     H59505   7.429   7.113   7.484  0.3195  0.1929  1.1727
  441MOL0     H59506   7.438   7.268   7.402  0.8170 -1.1362 -1.1577
  441MOL0     H59507   7.275   7.240   7.659  0.0358  2.4240  0.2320
  441MOL0     H59508   7.234   7.339   7.531 -4.1225 -0.4514  3.8404
  441MOL0     H59509   7.073   7.149   7.565 -0.2353 -0.9953  0.2253
  441MOL0     H59510   7.188   7.050   7.487 -1.2110 -0.5095 -2.4333
  441MOL0     H59511   7.070   7.316   7.383  1.5599  0.9912 -1.0964
  441MOL0     H59512   7.179   7.228   7.284  3.1049  0.5921  1.5183
  441MOL0     H59513   6.923   7.093   7.388 -1.2910 -0.9473 -1.2199
  441MOL0     H59514   7.012   7.072   7.239 -0.3144 -1.2259  2.7006
  441MOL0     H59515   6.834   7.300   7.327  0.0313  2.5126 -0.8851
  441MOL0     H59516   6.806   7.196   7.187 -0.7350  3.0702 -1.0664
  441MOL0     H59517   7.843   7.588   7.761 -0.6067  0.1573 -1.0369
  441MOL0     H59518   8.071   7.681   7.729  0.4454  0.8951  0.0433
  441MOL0     H59519   8.366   7.796   7.380 -0.0494 -1.5610  1.5712
  441MOL0     H59520   8.589   7.898   7.305 -0.9563 -0.0137 -0.2368
  441MOL0     H59521  10.254   9.056   7.302  0.5664  2.0525 -1.1859
  441MOL0     H59522  10.461   9.107   7.429  0.2888 -0.1034  1.0061
  441MOL0     H59523  10.576   9.252   7.881  0.4198 -0.7695 -1.3826
  441MOL0     H59524  10.770   9.304   8.021 -0.1393 -0.2741 -0.4809
  441MOL0     H59525  11.180   9.393   7.840  1.3823 -0.5775  2.0372
  441MOL0     H59526  11.111   9.557   7.860 -2.4263 -0.0754  0.3218
  441MOL0     H59527  11.281   9.533   7.997 -0.3309 -0.5174 -0.8725
  441MOL0     H59528  11.241   9.354   8.048 -0.7888 -0.8544  1.4657
  441MOL0     H59529  11.052   9.437   8.186 -1.2846  1.7214  1.4897
  441MOL0     H59530  11.075   9.601   8.127 -2.0879 -1.7141  0.0582
  441MOL0     H59531  11.284   9.431   8.275  1.9086  0.0903  1.6026
  441MOL0     H59532  11.160   9.536   8.357  0.9003 -1.5316  0.3937
  441MOL0     H59533  11.459   9.813   8.294 -1.4300  1.5830 -2.2771
  441MOL0     H59534  10.967   9.483   7.684 -2.0654  2.7326 -0.1666
  441MOL0     H59535  10.776   9.439   7.548 -1.4208  0.9095 -0.8141
  442MOL0     O59536  11.115   7.632   5.376  0.3681 -0.3161 -1.1808
  442MOL0     C59537  11.039   7.596   5.285  0.9035  0.4029 -0.0319
  442MOL0     O59538  11.033   7.469   5.244  0.3560  0.6037 -0.1368
  442MOL0     C59539  11.088   7.371   5.327 -0.5735  0.1112  0.4194
  442MOL0     C59540  11.010   7.271   5.379 -0.7457  0.1998 -1.2329
  442MOL0     C59541  11.065   7.174   5.471  0.1737 -0.4746 -0.0867
  442MOL0     C59542  11.200   7.183   5.498  0.0045 -0.0281  1.0739
  442MOL0     O59543  11.241   7.090   5.596  0.0140  0.2235 -0.5344
  442MOL0     C59544  11.352   7.150   5.683  0.6417 -0.2834  0.1725
  442MOL0     C59545  11.418   7.043   5.761 -0.7557  0.4596 -0.3469
  442MOL0     C59546  11.517   7.107   5.864  0.0760  0.5034  0.5434
  442MOL0     C59547  11.549   6.991   5.957 -0.4999  0.1340  0.0014
  442MOL0     C59548  11.663   7.019   6.057 -0.0793 -0.6179  0.3327
  442MOL0     C59549  11.695   6.895   6.126 -0.1399 -0.4643 -0.1157
  442MOL0     C59550  11.786   6.917   6.250  0.8803 -0.7674 -0.2581
  442MOL0     C59551  11.785   6.791   6.346  0.5755  0.3637 -0.2925
  442MOL0     N59552  11.826   6.659   6.293  0.1114 -0.7658  0.6939
  442MOL0     C59553  11.954   6.626   6.255 -0.2277 -0.8277 -0.4306
  442MOL0     C59554  11.942   6.514   6.189 -0.2738 -0.0195  0.0874
  442MOL0     C59555  12.050   6.436   6.112 -0.1230 -0.4796 -0.2575
  442MOL0     C59556  12.084   6.313   6.205  0.2579 -0.6295 -0.1545
  442MOL0     C59557  12.191   6.365   6.304  0.4374 -0.6627  0.4649
  442MOL0     C59558  12.245   6.256   6.389 -0.3450  0.8203 -0.7124
  442MOL0     O59559  12.364   6.294   6.458 -0.7633 -0.6732  0.1729
  442MOL0     C59560  12.354   6.372   6.574  0.5170 -0.1625  0.6447
  442MOL0     C59561  12.284   6.315   6.683  0.2717  0.2922  0.2897
  442MOL0     C59562  12.262   6.387   6.804  0.2868 -0.5435  0.2258
  442MOL0     C59563  12.215   6.314   6.925 -0.5375  0.0594 -1.5347
  442MOL0     C59564  12.311   6.522   6.803 -0.2240  0.6455 -0.6729
  442MOL0     C59565  12.284   6.614   6.914 -0.2526  0.1012  0.1440
  442MOL0     O59566  12.386   6.696   6.954 -0.7057  0.1213  0.2181
  442MOL0     C59567  12.366   6.778   7.053  0.9029  0.3201  0.3201
  442MOL0     C59568  12.380   6.748   7.195  0.3129 -0.1706  0.1670
  442MOL0     C59569  12.362   6.843   7.297  0.0646 -0.4068  0.0192
  442MOL0     C59570  12.345   6.978   7.262 -0.2030  0.4784 -0.1211
  442MOL0     O59571  12.359   7.068   7.373  0.3641 -0.0315 -0.1026
  442MOL0     C59572  12.334   7.211   7.366  0.6860 -0.5940 -0.1300
  442MOL0     C59573  12.348   7.266   7.506 -0.2343  0.5851 -0.1277
  442MOL0     C59574  12.250   7.211   7.604 -0.0708  0.4593 -0.4982
  442MOL0     C59575  12.100   7.226   7.572  0.2893  0.9535 -0.4702
  442MOL0     C59576  12.021   7.274   7.694  0.8303  0.0250 -0.1246
  442MOL0     C59577  11.867   7.267   7.663  0.3432  0.3491  0.3170
  442MOL0     C59578  11.774   7.261   7.784  0.7655 -1.0790  0.4579
  442MOL0     C59579  11.629   7.207   7.752  0.0195  0.1861  0.1127
  442MOL0    Cl59580  11.543   7.323   7.649 -0.5187 -0.3508 -0.1526
  442MOL0     C59581  12.348   7.010   7.125 -0.0326  0.1820 -0.3623
  442MOL0     C59582  12.357   6.909   7.030 -1.3171 -0.6482  1.0466
  442MOL0     O59583  12.164   6.629   6.949  0.0457 -0.1742 -0.4076
  442MOL0     C59584  12.381   6.576   6.690  0.1289  0.0666 -0.0264
  442MOL0     C59585  12.413   6.494   6.576 -0.2839  0.0602 -0.7870
  442MOL0     N59586  11.807   6.484   6.180  1.5152  0.7641 -0.6280
  442MOL0     N59587  11.735   6.565   6.250 -0.4030  0.5649  0.3514
  442MOL0     C59588  11.276   7.274   5.435 -0.7002 -0.4014  0.0578
  442MOL0     C59589  11.223   7.372   5.353  1.2979 -0.5116 -0.0345
  442MOL0     C59590  10.946   7.696   5.217 -0.3253  0.1353  0.3271
  442MOL0     C59591  10.878   7.663   5.103 -0.1529 -0.3872 -0.8322
  442MOL0     C59592  10.776   7.752   5.058  0.2728  0.9940 -0.2336
  442MOL0     C59593  10.756   7.871   5.108 -0.6495 -0.2054  0.1067
  442MOL0     O59594  10.641   7.931   5.059  0.0412  0.5320 -0.3579
  442MOL0     C59595  10.593   8.037   5.138  0.5115 -1.1681 -0.4380
  442MOL0     C59596  10.457   8.091   5.103  0.3765 -0.0492  1.1751
  442MOL0     C59597  10.448   8.122   4.947  0.0805 -0.0519  1.0060
  442MOL0     C59598  10.319   8.197   4.916  0.4191 -0.7439 -0.1507
  442MOL0     C59599  10.320   8.242   4.776 -0.5746 -0.6521 -1.5091
  442MOL0     C59600  10.329   8.294   4.662  0.1980  0.0274  0.2231
  442MOL0     C59601  10.831   7.911   5.222 -0.5240 -0.2961  1.0083
  442MOL0     C59602  10.937   7.828   5.268  0.4807  0.4213 -0.5211
  442MOL0     H59603  10.902   7.280   5.373 -1.1259  0.3875  2.8312
  442MOL0     H59604  11.011   7.104   5.533  3.7482  1.4147  6.0267
  442MOL0     H59605  11.437   7.176   5.619  0.2377 -4.5313 -2.5364
  442MOL0     H59606  11.310   7.236   5.736 -0.6851  0.2045 -1.5658
  442MOL0     H59607  11.335   6.992   5.811 -1.9421  2.6763  0.0520
  442MOL0     H59608  11.477   6.974   5.699 -0.1647 -0.7543  1.4748
  442MOL0     H59609  11.603   7.154   5.817  0.4900  0.0739  0.8587
  442MOL0     H59610  11.477   7.186   5.928  0.0327  0.2402  0.8456
  442MOL0     H59611  11.461   6.963   6.016  0.8035 -0.3090  1.8154
  442MOL0     H59612  11.573   6.904   5.895 -0.4161  0.4725 -0.4443
  442MOL0     H59613  11.749   7.063   6.005 -1.9949  2.9029 -0.2069
  442MOL0     H59614  11.639   7.106   6.119  3.2684  1.6543 -1.2679
  442MOL0     H59615  11.597   6.861   6.160 -0.0453 -2.7818 -1.8612
  442MOL0     H59616  11.740   6.828   6.052 -1.8280 -0.1202 -1.5172
  442MOL0     H59617  11.888   6.945   6.224  0.6428 -0.8101 -1.3031
  442MOL0     H59618  11.746   7.006   6.301  0.7320 -1.6886  1.2910
  442MOL0     H59619  11.682   6.782   6.382  1.2615 -2.9312  1.1886
  442MOL0     H59620  11.859   6.809   6.425  5.5376  1.5350 -4.6592
  442MOL0     H59621  12.056   6.662   6.262  1.0975 -4.1536 -0.7805
  442MOL0     H59622  12.003   6.406   6.018  0.4406  2.2364 -1.5066
  442MOL0     H59623  12.142   6.491   6.090 -1.0190 -0.0787 -3.5414
  442MOL0     H59624  12.135   6.237   6.144  0.0786  0.0760 -1.2149
  442MOL0     H59625  11.990   6.270   6.239  0.6298 -2.5435 -1.3612
  442MOL0     H59626  12.170   6.459   6.356 -0.6827 -0.6484 -0.0023
  442MOL0     H59627  12.285   6.378   6.249 -0.0536 -0.4690 -0.3461
  442MOL0     H59628  12.264   6.160   6.339  1.2740  0.2190  0.9299
  442MOL0     H59629  12.170   6.237   6.466 -0.3705  0.4795 -0.8198
  442MOL0     H59630  12.244   6.217   6.662  0.7719  0.5848 -2.4109
  442MOL0     H59631  12.302   6.287   6.986 -0.0861  3.9737 -0.1491
  442MOL0     H59632  12.155   6.374   6.995  0.5619 -0.7746  0.1923
  442MOL0     H59633  12.159   6.223   6.903  0.4626 -0.9246 -0.1845
  442MOL0     H59634  12.384   6.643   7.225 -0.8219 -0.3950 -0.4095
  442MOL0     H59635  12.358   6.816   7.402  1.1023  0.0840  0.2051
  442MOL0     H59636  12.406   7.262   7.301  1.4725 -1.1549  0.2772
  442MOL0     H59637  12.235   7.234   7.326  0.3798 -2.3753 -0.4922
  442MOL0     H59638  12.451   7.241   7.534 -0.5508  1.3543  1.8601
  442MOL0     H59639  12.348   7.376   7.501  3.5745  0.6912 -3.5752
  442MOL0     H59640  12.268   7.258   7.700  2.0936 -0.1546 -0.5451
  442MOL0     H59641  12.277   7.108   7.630  0.3124  1.4930  3.9831
  442MOL0     H59642  12.090   7.304   7.497  2.1997  0.1512 -1.6204
  442MOL0     H59643  12.072   7.125   7.540  3.1388 -0.5639  1.3411
  442MOL0     H59644  12.051   7.377   7.716 -2.6513  0.8249  1.6278
  442MOL0     H59645  12.044   7.219   7.786 -3.5063  1.1665  1.9301
  442MOL0     H59646  11.844   7.345   7.590 -0.6201 -0.9443 -0.8125
  442MOL0     H59647  11.843   7.175   7.608  1.3726  1.1199 -1.5295
  442MOL0     H59648  11.768   7.364   7.819  3.9046  0.5075 -2.9133
  442MOL0     H59649  11.800   7.193   7.865 -5.0495 -2.0176  1.9415
  442MOL0     H59650  11.576   7.200   7.847 -2.8855  0.0050 -1.3860
  442MOL0     H59651  11.627   7.110   7.701  1.5029  0.4204 -0.4454
  442MOL0     H59652  12.335   7.112   7.092  1.5908  1.8775  3.6497
  442MOL0     H59653  12.374   6.939   6.927 -2.0620 -0.5356  0.9458
  442MOL0     H59654  12.421   6.676   6.700 -0.4533  0.1005  3.3440
  442MOL0     H59655  12.464   6.535   6.489 -0.6286  1.7839 -0.2128
  442MOL0     H59656  11.384   7.275   5.447 -0.7580 -0.4456  0.6403
  442MOL0     H59657  11.289   7.443   5.304 -1.3956  2.7600  0.6489
  442MOL0     H59658  10.894   7.564   5.064 -0.0016  0.5471 -3.3231
  442MOL0     H59659  10.725   7.728   4.965 -2.0715 -1.4421  1.5180
  442MOL0     H59660  10.588   8.014   5.244  2.2224  0.1504 -0.0258
  442MOL0     H59661  10.667   8.117   5.131 -0.6516 -0.0465 -0.3894
  442MOL0     H59662  10.428   8.179   5.161 -2.3238  0.4641 -0.7767
  442MOL0     H59663  10.384   8.012   5.124  1.2085 -1.1507  0.0642
  442MOL0     H59664  10.444   8.025   4.896  0.3627  1.4158 -2.0876
  442MOL0     H59665  10.538   8.170   4.908 -0.5354 -1.0019 -1.8185
  442MOL0     H59666  10.312   8.285   4.981  0.2433 -1.0265  0.2183
  442MOL0     H59667  10.231   8.134   4.934 -0.5836  1.4033  3.7998
  442MOL0     H59668  10.361   8.320   4.563  1.4635 -2.2877 -0.0296
  442MOL0     H59669  10.803   8.003   5.273  1.2023  1.9235 -1.7922
  442MOL0     H59670  10.992   7.874   5.349 -0.2900  2.2847 -0.9982
  443MOL0     O59671   3.800  10.322   1.456 -0.1408  0.4402  0.1427
  443MOL0     C59672   3.858  10.228   1.511 -0.3560 -0.2812 -0.2371
  443MOL0     O59673   3.801  10.135   1.589  0.2699 -0.1959 -0.7596
  443MOL0     C59674   3.689  10.163   1.664 -0.2633  0.4994  0.7681
  443MOL0     C59675   3.623  10.291   1.675  0.4472  0.6357 -0.0612
  443MOL0     C59676   3.510  10.302   1.764  0.1057 -0.8333  0.1602
  443MOL0     C59677   3.457  10.191   1.831 -0.3783  0.5315 -0.2516
  443MOL0     O59678   3.338  10.196   1.908 -1.1787  0.1301  0.1940
  443MOL0     C59679   3.275  10.320   1.944 -0.5818  0.3612 -0.2549
  443MOL0     C59680   3.172  10.289   2.050  0.2862 -0.0871 -0.0890
  443MOL0     C59681   3.110  10.418   2.113 -0.2161  0.4019 -0.1374
  443MOL0     C59682   2.998  10.392   2.213 -0.1074 -0.2066  0.3365
  443MOL0     C59683   2.856  10.421   2.171  0.0462  0.3680  0.2721
  443MOL0     C59684   2.766  10.420   2.291 -0.2089 -0.0437  0.5372
  443MOL0     C59685   2.728  10.285   2.366  0.7440  0.1446 -0.2252
  443MOL0     C59686   2.632  10.193   2.292  0.5704 -0.1709 -0.8730
  443MOL0     N59687   2.495  10.200   2.332 -0.2730 -0.9798 -0.0748
  443MOL0     C59688   2.397  10.262   2.254  0.6872 -0.6834 -0.1723
  443MOL0     C59689   2.282  10.228   2.302  0.7852 -0.3725  0.7484
  443MOL0     C59690   2.145  10.282   2.263  0.0316  0.6085  0.1480
  443MOL0     C59691   2.128  10.432   2.241  0.8759  0.6109  0.5667
  443MOL0     C59692   1.981  10.478   2.267  0.5324 -0.2509  0.2144
  443MOL0     C59693   1.927  10.453   2.404  0.6368  0.0378 -0.8602
  443MOL0     O59694   1.815  10.529   2.430  0.7572  0.2071  0.2377
  443MOL0     C59695   1.814  10.659   2.475  0.0391 -0.4390  0.5250
  443MOL0     C59696   1.693  10.705   2.520 -0.1689  1.1842 -0.3306
  443MOL0     C59697   1.671  10.824   2.574 -0.2779 -0.0474 -0.8385
  443MOL0     C59698   1.526  10.853   2.611  0.0952  0.4450 -0.0531
  443MOL0     C59699   1.776  10.917   2.593 -0.1192 -0.0300 -0.0894
  443MOL0     C59700   1.778  11.052   2.651 -0.1531  0.7894 -0.9488
  443MOL0     O59701   1.869  11.137   2.593 -0.1575 -0.3952 -0.2064
  443MOL0     C59702   1.880  11.257   2.663 -0.5603 -0.1241 -0.1716
  443MOL0     C59703   2.007  11.295   2.703  0.3030 -0.3922 -0.3899
  443MOL0     C59704   2.031  11.427   2.749 -0.4718  0.4603 -0.0913
  443MOL0     C59705   1.922  11.522   2.759 -0.4403  0.0225 -0.2948
  443MOL0     O59706   1.940  11.653   2.814  0.4167 -0.3396  0.3025
  443MOL0     C59707   2.071  11.693   2.848  0.7688 -0.1530  0.3730
  443MOL0     C59708   2.061  11.808   2.945  0.9480  0.0928  0.4673
  443MOL0     C59709   2.026  11.938   2.880 -0.4809 -0.4112 -0.0952
  443MOL0     C59710   2.000  12.055   2.982 -0.5476  0.0851 -0.1426
  443MOL0     C59711   1.916  12.165   2.920  0.0650 -0.4976 -0.4945
  443MOL0     C59712   1.894  12.281   3.015 -0.0157  0.5757 -0.7790
  443MOL0     C59713   1.774  12.267   3.097  0.8990 -0.5438 -0.1218
  443MOL0     C59714   1.777  12.367   3.215  0.1364  0.1938 -0.1652
  443MOL0    Cl59715   1.831  12.527   3.153  0.4906  0.3192  0.5986
  443MOL0     C59716   1.794  11.473   2.726 -0.0610 -0.4007 -0.0636
  443MOL0     C59717   1.773  11.347   2.674 -0.3563 -0.1691  0.3032
  443MOL0     O59718   1.700  11.083   2.744 -0.0475 -0.5772  0.1504
  443MOL0     C59719   1.904  10.872   2.545  0.1835  0.5369  0.4270
  443MOL0     C59720   1.926  10.747   2.489  0.7828  0.3142  0.1748
  443MOL0     N59721   2.312  10.163   2.420  0.4237 -0.0893  0.3311
  443MOL0     N59722   2.437  10.144   2.433  0.3899  0.3110 -0.1405
  443MOL0     C59723   3.521  10.070   1.813  0.2066  0.0762 -0.1566
  443MOL0     C59724   3.636  10.050   1.733  0.4357 -0.6461  0.0324
  443MOL0     C59725   4.006  10.210   1.478  0.2737 -0.1333 -0.7748
  443MOL0     C59726   4.071  10.302   1.408 -0.5595 -1.0448 -0.6197
  443MOL0     C59727   4.208  10.286   1.380  0.1109  0.5226 -0.1862
  443MOL0     C59728   4.276  10.161   1.410 -0.7086 -0.7591 -0.2473
  443MOL0     O59729   4.411  10.137   1.376  0.2685  0.8866 -0.0620
  443MOL0     C59730   4.471  10.250   1.304 -0.0969  0.2786  0.4016
  443MOL0     C59731   4.618  10.228   1.280 -0.1112 -0.5234  0.0076
  443MOL0     C59732   4.688  10.200   1.411 -0.0214 -0.1951  1.0736
  443MOL0     C59733   4.841  10.204   1.410 -0.5950 -0.2366 -0.0430
  443MOL0     C59734   4.904  10.293   1.507  0.5782  0.4760  0.2106
  443MOL0     C59735   4.965  10.373   1.582 -0.0785  0.0315 -1.0516
  443MOL0     C59736   4.208  10.069   1.488  0.3249 -0.1428  0.8559
  443MOL0     C59737   4.075  10.095   1.522  0.7598  1.2392 -0.2005
  443MOL0     H59738   3.650  10.391   1.643  0.7270  0.4988 -0.2527
  443MOL0     H59739   3.466  10.401   1.770 -0.5714 -0.9605 -1.9418
  443MOL0     H59740   3.346  10.393   1.982 -0.6276  0.6071 -0.6319
  443MOL0     H59741   3.229  10.374   1.860  0.3648  0.4326 -0.7494
  443MOL0     H59742   3.091  10.224   2.014 -0.5520 -0.4235  2.2167
  443MOL0     H59743   3.223  10.231   2.127  0.6249 -2.7727 -2.1706
  443MOL0     H59744   3.193  10.454   2.174 -0.8969 -1.7095  2.2076
  443MOL0     H59745   3.088  10.494   2.037  1.1920 -0.0712 -1.0528
  443MOL0     H59746   3.013  10.293   2.258  0.8557 -0.8934 -1.4045
  443MOL0     H59747   3.014  10.449   2.305 -0.5451 -3.3698  2.5423
  443MOL0     H59748   2.859  10.525   2.135  0.4611  1.1469  2.3948
  443MOL0     H59749   2.822  10.355   2.091 -1.1612  1.7469 -0.4197
  443MOL0     H59750   2.816  10.486   2.363  1.5815  0.8264 -1.3981
  443MOL0     H59751   2.679  10.473   2.250 -0.8035 -1.2688  0.1935
  443MOL0     H59752   2.820  10.229   2.385  0.8448  1.0759  2.3960
  443MOL0     H59753   2.679  10.310   2.460 -0.4564  1.2296 -1.1087
  443MOL0     H59754   2.664  10.090   2.310  1.5192 -0.4869 -3.7593
  443MOL0     H59755   2.634  10.194   2.182 -0.9149  0.1718 -0.9239
  443MOL0     H59756   2.412  10.316   2.161 -3.7162 -1.4238 -1.5281
  443MOL0     H59757   2.134  10.231   2.167 -0.3618  3.8475 -1.6617
  443MOL0     H59758   2.068  10.240   2.329 -0.4746  0.0136 -0.7999
  443MOL0     H59759   2.136  10.460   2.135  2.0808 -2.4747 -0.2565
  443MOL0     H59760   2.204  10.486   2.299  1.2570  0.1847  0.4692
  443MOL0     H59761   1.920  10.424   2.194 -1.2305  4.0445 -1.8579
  443MOL0     H59762   1.990  10.584   2.241 -0.0651 -0.0741  0.6958
  443MOL0     H59763   1.997  10.465   2.487  3.3738 -1.5250 -2.7831
  443MOL0     H59764   1.902  10.348   2.419 -0.0088  0.5796  2.7985
  443MOL0     H59765   1.615  10.634   2.494  2.9090 -3.1050  1.2385
  443MOL0     H59766   1.497  10.946   2.561  0.2732 -1.2413 -3.6596
  443MOL0     H59767   1.460  10.771   2.581 -0.4051  0.5602  0.6954
  443MOL0     H59768   1.516  10.862   2.719 -0.5381 -4.8046  0.5793
  443MOL0     H59769   2.078  11.215   2.683  1.6011  1.2021 -2.6140
  443MOL0     H59770   2.130  11.467   2.772 -0.7681  0.4171  1.3948
  443MOL0     H59771   2.120  11.615   2.906 -0.6657 -0.1777  1.6202
  443MOL0     H59772   2.129  11.722   2.760  1.4466 -1.1493  0.4825
  443MOL0     H59773   1.985  11.786   3.020 -0.2388 -0.9046 -0.9685
  443MOL0     H59774   2.153  11.807   3.004  0.7127  1.8406  0.9222
  443MOL0     H59775   1.934  11.939   2.821 -0.8276 -1.3538  0.4099
  443MOL0     H59776   2.101  11.971   2.807 -0.4226 -0.0725  0.1132
  443MOL0     H59777   1.946  12.008   3.065 -1.3856  1.4411  0.1141
  443MOL0     H59778   2.087  12.102   3.030  0.5260 -0.5063 -1.4362
  443MOL0     H59779   1.819  12.131   2.883  0.6273 -3.3193  0.3741
  443MOL0     H59780   1.962  12.197   2.826  0.5992  0.2053 -0.0003
  443MOL0     H59781   1.987  12.302   3.069  1.1922  1.4175 -3.0778
  443MOL0     H59782   1.893  12.371   2.954 -0.2281  0.9277 -0.2704
  443MOL0     H59783   1.762  12.164   3.130 -0.2016 -0.5689 -0.5677
  443MOL0     H59784   1.683  12.290   3.041 -0.9340 -2.5385  1.8051
  443MOL0     H59785   1.852  12.334   3.287  0.1384  1.0562  0.2302
  443MOL0     H59786   1.675  12.371   3.254  0.8400  1.1712  1.6866
  443MOL0     H59787   1.707  11.532   2.755  0.1435  0.1971 -0.6260
  443MOL0     H59788   1.671  11.317   2.655 -0.0700 -0.8988 -0.1238
  443MOL0     H59789   1.985  10.945   2.546 -0.8336  1.8125 -2.1647
  443MOL0     H59790   2.022  10.711   2.456  1.4696  0.4019  1.9529
  443MOL0     H59791   3.470   9.987   1.861  0.9925 -0.3916 -0.1112
  443MOL0     H59792   3.695   9.959   1.726  2.6457  0.4555  2.4748
  443MOL0     H59793   4.026  10.394   1.373  1.1324  0.3792  0.7096
  443MOL0     H59794   4.246  10.374   1.328  0.7425  1.1497  1.2669
  443MOL0     H59795   4.415  10.259   1.210 -1.0040  2.5056  1.0898
  443MOL0     H59796   4.460  10.344   1.359 -3.1303  1.2999 -1.7016
  443MOL0     H59797   4.657  10.317   1.230 -0.2421 -1.1295 -1.2274
  443MOL0     H59798   4.628  10.140   1.215  0.8406 -1.3471  1.2294
  443MOL0     H59799   4.662  10.099   1.443  0.6028 -0.7749 -0.1599
  443MOL0     H59800   4.650  10.272   1.484 -0.1818  0.8739 -0.0235
  443MOL0     H59801   4.874  10.249   1.315  1.9271 -0.0467  0.8548
  443MOL0     H59802   4.880  10.105   1.433  2.0027  1.0990  1.8423
  443MOL0     H59803   5.014  10.420   1.665 -3.6855  1.1997  0.5973
  443MOL0     H59804   4.262   9.981   1.521  1.1407  0.9333  2.5705
  443MOL0     H59805   4.019  10.024   1.581 -0.8003  3.0364  0.5822
  444MOL0     O59806   9.806   4.344  10.130 -0.0804 -1.0192  0.4844
  444MOL0     C59807   9.757   4.241  10.095 -0.6839 -0.3518 -0.8671
  444MOL0     O59808   9.623   4.203  10.124  1.2267 -0.0836  0.5956
  444MOL0     C59809   9.536   4.295  10.173 -0.5000 -0.4263  0.0920
  444MOL0     C59810   9.530   4.290  10.309 -0.5948  0.4076 -0.2537
  444MOL0     C59811   9.458   4.389  10.389  0.0670  0.1188  1.2110
  444MOL0     C59812   9.403   4.496  10.304  0.2052 -0.9743  1.2888
  444MOL0     O59813   9.331   4.604  10.356  0.6835 -0.2899  0.6299
  444MOL0     C59814   9.284   4.605  10.489 -0.2168 -0.8693 -0.5258
  444MOL0     C59815   9.166   4.516  10.510 -0.7581  0.4436  0.4189
  444MOL0     C59816   9.033   4.547  10.435 -0.2540  0.1385 -0.6101
  444MOL0     C59817   8.917   4.477  10.502  1.4649 -0.4549 -0.4960
  444MOL0     C59818   8.866   4.536  10.637 -0.4962 -0.3271  0.2682
  444MOL0     C59819   8.875   4.691  10.641 -0.6781 -0.8940 -0.4736
  444MOL0     C59820   8.822   4.759  10.769 -0.7063  0.0125 -0.3557
  444MOL0     C59821   8.894   4.892  10.793 -0.1940  0.1482 -0.0167
  444MOL0     N59822   8.854   4.951  10.921  0.0817 -0.1751 -0.0219
  444MOL0     C59823   8.864   5.087  10.959 -1.4641  0.6773  1.0454
  444MOL0     C59824   8.824   5.093  11.087 -0.1925  0.3397  0.9123
  444MOL0     C59825   8.808   5.211  11.180 -0.3736 -0.3931  0.5446
  444MOL0     C59826   8.663   5.224  11.217  0.4281 -0.3139  0.0660
  444MOL0     C59827   8.639   5.333  11.322 -0.1988 -0.0477 -0.7663
  444MOL0     C59828   8.486   5.337  11.345 -0.2173  0.2087  0.1460
  444MOL0     O59829   8.433   5.382  11.218  0.1647  0.6786 -0.8475
  444MOL0     C59830   8.294   5.369  11.205 -0.2938 -0.3917 -0.3724
  444MOL0     C59831   8.248   5.363  11.071 -0.4762 -0.5553  0.2247
  444MOL0     C59832   8.114   5.341  11.039  0.4140  0.1431 -0.0699
  444MOL0     C59833   8.077   5.350  10.897  0.7763  0.1120 -0.8470
  444MOL0     C59834   8.009   5.332  11.149 -0.2013  0.6241 -0.2835
  444MOL0     C59835   7.862   5.310  11.129  0.1734 -0.2396  0.1223
  444MOL0     O59836   7.782   5.353  11.227  0.1459  0.2100 -0.3613
  444MOL0     C59837   7.646   5.382  11.222 -0.3533 -0.0546  0.7747
  444MOL0     C59838   7.571   5.388  11.341  0.5375 -0.4391 -0.4627
  444MOL0     C59839   7.430   5.400  11.341 -0.2774  0.4081  0.1607
  444MOL0     C59840   7.362   5.418  11.214  0.1204  0.5517 -0.1493
  444MOL0     O59841   7.225   5.441  11.195  1.1875 -0.2162  0.4745
  444MOL0     C59842   7.157   5.517  11.295  0.0093  0.0094  0.5981
  444MOL0     C59843   7.165   5.669  11.277 -0.3066  1.1936 -1.1866
  444MOL0     C59844   7.096   5.706  11.145  0.3304 -0.8826  0.4324
  444MOL0     C59845   6.946   5.729  11.153 -0.3918 -0.4290  0.0099
  444MOL0     C59846   6.908   5.800  11.016 -0.0076  1.1022 -0.0533
  444MOL0     C59847   6.762   5.778  10.980  0.2647 -0.7428 -0.1491
  444MOL0     C59848   6.675   5.886  11.037 -0.2590  0.1619  0.4015
  444MOL0     C59849   6.534   5.888  10.978 -0.4228  0.2342 -0.0996
  444MOL0    Cl59850   6.435   5.754  11.031  0.4270  0.0739 -0.3379
  444MOL0     C59851   7.442   5.423  11.093  0.1053 -0.2112 -0.2877
  444MOL0     C59852   7.581   5.396  11.102  0.3354  0.8434 -0.2122
  444MOL0     O59853   7.821   5.237  11.037  0.2894  0.1194  0.4003
  444MOL0     C59854   8.065   5.335  11.278 -0.2273  0.6154 -0.4252
  444MOL0     C59855   8.204   5.355  11.311 -0.0191 -0.5171 -0.1113
  444MOL0     N59856   8.777   4.964  11.119 -0.5776  0.2743 -0.7374
  444MOL0     N59857   8.795   4.880  11.026 -0.1164 -1.2335 -0.3179
  444MOL0     C59858   9.420   4.495  10.167 -0.2551 -0.6788 -0.6943
  444MOL0     C59859   9.488   4.399  10.101  1.0507 -0.3334 -0.4894
  444MOL0     C59860   9.843   4.154  10.019 -0.0278 -0.3848 -0.0272
  444MOL0     C59861   9.949   4.203   9.943 -0.1536  0.2094  0.7803
  444MOL0     C59862  10.023   4.106   9.866 -0.1242 -0.6956 -0.9235
  444MOL0     C59863   9.999   3.971   9.866 -0.6247  0.3167  0.6274
  444MOL0     O59864  10.067   3.872   9.802  0.1490  0.5721 -0.2660
  444MOL0     C59865  10.177   3.903   9.711 -0.8337  0.5494 -0.0153
  444MOL0     C59866  10.261   3.771   9.709 -0.9174 -0.4701  0.3756
  444MOL0     C59867  10.184   3.653   9.647  0.6174  0.7927 -0.3797
  444MOL0     C59868  10.080   3.680   9.543 -0.6764  0.1982 -0.2654
  444MOL0     C59869  10.135   3.730   9.417  0.1543  0.0161  0.1421
  444MOL0     C59870  10.168   3.773   9.320 -0.4181 -0.8267 -1.0696
  444MOL0     C59871   9.891   3.928   9.944  0.2397  0.9869  0.5461
  444MOL0     C59872   9.815   4.016  10.012  0.5183 -1.4519 -0.5240
  444MOL0     H59873   9.576   4.205  10.358 -3.2595 -0.2904  1.2456
  444MOL0     H59874   9.449   4.375  10.496 -1.5920  3.6996  1.7025
  444MOL0     H59875   9.367   4.578  10.554 -0.5833  2.0430  1.3483
  444MOL0     H59876   9.249   4.704  10.521 -0.3103 -1.1839  0.3535
  444MOL0     H59877   9.184   4.414  10.475 -3.0876  0.7319 -1.9726
  444MOL0     H59878   9.148   4.499  10.617  3.4588  0.2321  1.2575
  444MOL0     H59879   9.014   4.654  10.433 -2.0364 -0.0619  1.5312
  444MOL0     H59880   9.039   4.519  10.329 -0.1213  0.6414 -0.7351
  444MOL0     H59881   8.838   4.495  10.428  1.7590 -1.6253 -1.1141
  444MOL0     H59882   8.926   4.368  10.510  0.2581 -0.4656  1.1997
  444MOL0     H59883   8.766   4.502  10.663 -1.2278  1.3958 -0.1531
  444MOL0     H59884   8.932   4.500  10.717  1.0629 -1.2858 -1.3787
  444MOL0     H59885   8.979   4.719  10.622 -0.0979 -2.2185  0.5894
  444MOL0     H59886   8.818   4.734  10.557 -0.8665 -1.9979 -0.9314
  444MOL0     H59887   8.717   4.786  10.756 -0.4983  1.1646  0.2170
  444MOL0     H59888   8.843   4.696  10.855 -1.5513  0.8155  0.4665
  444MOL0     H59889   8.872   4.957  10.707 -1.8511  0.6223  0.7181
  444MOL0     H59890   9.003   4.884  10.787 -0.3068 -1.9198  0.1376
  444MOL0     H59891   8.889   5.167  10.891  3.4906 -3.0926 -2.2569
  444MOL0     H59892   8.865   5.200  11.273  4.0517  1.0483 -1.6967
  444MOL0     H59893   8.844   5.299  11.126 -1.3712 -0.5503 -0.4122
  444MOL0     H59894   8.633   5.124  11.247  2.8983 -1.3783 -0.7150
  444MOL0     H59895   8.612   5.249  11.123  1.8489 -0.2157 -0.7126
  444MOL0     H59896   8.685   5.426  11.288 -2.2268  1.1050 -0.5476
  444MOL0     H59897   8.675   5.291  11.416 -2.1310 -0.5456 -0.1894
  444MOL0     H59898   8.473   5.409  11.427  0.1168  2.1444 -1.4214
  444MOL0     H59899   8.440   5.242  11.373 -2.7560  1.5115  0.8166
  444MOL0     H59900   8.319   5.364  10.989  1.7542 -1.3429  2.0251
  444MOL0     H59901   7.988   5.414  10.887  1.4188  0.8613 -2.0050
  444MOL0     H59902   8.157   5.397  10.839  0.8980  0.6065 -0.2925
  444MOL0     H59903   8.044   5.256  10.852 -1.5329  0.3411  0.2016
  444MOL0     H59904   7.623   5.381  11.436  0.5231  0.7283 -0.3527
  444MOL0     H59905   7.377   5.409  11.435  0.0634  2.9121  0.1726
  444MOL0     H59906   7.051   5.495  11.287 -0.1486  0.5149  1.1695
  444MOL0     H59907   7.180   5.490  11.399  1.0349  2.1046  0.9946
  444MOL0     H59908   7.122   5.710  11.369 -3.1171 -1.1237 -1.3214
  444MOL0     H59909   7.271   5.693  11.266 -0.1212  0.3353 -1.2972
  444MOL0     H59910   7.110   5.636  11.061  2.7795  0.7421 -0.6328
  444MOL0     H59911   7.133   5.801  11.107 -2.9099 -0.1219 -1.1387
  444MOL0     H59912   6.894   5.633  11.166  1.2333 -1.5814 -1.5715
  444MOL0     H59913   6.937   5.795  11.240  1.9570  1.2277 -0.9069
  444MOL0     H59914   6.968   5.747  10.941  0.9193 -0.0741  1.4582
  444MOL0     H59915   6.935   5.905  11.032  1.0074  0.6130  1.6536
  444MOL0     H59916   6.755   5.790  10.872  3.1438 -0.1649 -0.3562
  444MOL0     H59917   6.739   5.676  11.011  0.4201 -1.1464 -1.3121
  444MOL0     H59918   6.719   5.986  11.031 -0.2578  0.2583  1.7700
  444MOL0     H59919   6.668   5.874  11.145 -1.3921 -0.3724  0.2910
  444MOL0     H59920   6.547   5.869  10.871 -1.3868  0.3311 -0.2435
  444MOL0     H59921   6.490   5.986  10.998  4.4081  2.6125  0.3604
  444MOL0     H59922   7.396   5.437  10.996 -2.6102  4.7681  1.3646
  444MOL0     H59923   7.638   5.404  11.011  1.6800 -0.2684  0.4948
  444MOL0     H59924   7.999   5.324  11.364  0.1799  1.3093 -0.0133
  444MOL0     H59925   8.222   5.365  11.417 -0.0932  1.2006 -0.2329
  444MOL0     H59926   9.395   4.583  10.109  3.2616  0.7030 -0.3988
  444MOL0     H59927   9.496   4.406   9.993  0.9580 -1.3718 -0.5728
  444MOL0     H59928   9.976   4.308   9.949  0.9880 -0.1211  2.4102
  444MOL0     H59929  10.108   4.150   9.814 -1.0068  1.6812 -0.4733
  444MOL0     H59930  10.127   3.940   9.621 -1.4088 -2.5372 -1.0864
  444MOL0     H59931  10.242   3.982   9.749 -0.3484 -0.9122  2.4562
  444MOL0     H59932  10.283   3.755   9.814 -0.4419 -0.7610  0.2303
  444MOL0     H59933  10.351   3.784   9.648 -0.0292  2.4027  2.0768
  444MOL0     H59934  10.129   3.601   9.726  1.0693  0.3384 -0.3602
  444MOL0     H59935  10.254   3.581   9.604 -1.6769 -2.3382  0.7212
  444MOL0     H59936  10.002   3.744   9.585 -1.3854 -1.8227  1.7751
  444MOL0     H59937  10.022   3.590   9.520 -0.8632 -0.0987  1.2710
  444MOL0     H59938  10.200   3.796   9.220  2.2376 -3.5756 -1.0046
  444MOL0     H59939   9.861   3.824   9.950  4.1422 -0.4880 -1.6804
  444MOL0     H59940   9.722   3.977  10.054  1.1637 -3.1454 -0.5952
  445MOL0     O59941   4.110   1.026   9.033  0.6701 -0.5423  0.0879
  445MOL0     C59942   4.049   1.136   9.004 -0.2231 -0.2141 -0.4741
  445MOL0     O59943   4.108   1.257   8.984 -0.0060 -0.4842  0.8301
  445MOL0     C59944   4.240   1.270   8.988  0.2613  0.9244  0.6952
  445MOL0     C59945   4.307   1.301   9.111  0.2548 -0.2992 -1.0874
  445MOL0     C59946   4.443   1.319   9.121 -0.3469  0.4651 -0.2818
  445MOL0     C59947   4.521   1.322   9.004  2.0671 -0.2282  0.9467
  445MOL0     O59948   4.657   1.328   9.015  0.0629  0.2854  0.1914
  445MOL0     C59949   4.739   1.402   8.928 -0.4212 -1.2053  0.3537
  445MOL0     C59950   4.739   1.556   8.969 -0.3927  1.0609 -0.1113
  445MOL0     C59951   4.787   1.574   9.114  0.0901  0.9116 -1.1370
  445MOL0     C59952   4.800   1.726   9.146  0.1298  1.0951 -1.0459
  445MOL0     C59953   4.837   1.753   9.293  0.4726  0.6889  0.4867
  445MOL0     C59954   4.952   1.671   9.345  0.8461  0.7845  0.4109
  445MOL0     C59955   5.002   1.725   9.477 -0.0702  0.5230  0.0243
  445MOL0     C59956   4.901   1.709   9.590 -0.8599 -0.1859  0.2383
  445MOL0     N59957   4.971   1.748   9.719  0.3525  0.4592 -0.6525
  445MOL0     C59958   5.070   1.841   9.749 -0.3301  0.0324 -0.3759
  445MOL0     C59959   5.073   1.845   9.881 -0.5717 -0.0807  0.1045
  445MOL0     C59960   5.158   1.931   9.962  0.9456 -0.4254 -0.8783
  445MOL0     C59961   5.285   1.861  10.008  1.2798  0.0606  0.3272
  445MOL0     C59962   5.377   1.951  10.096 -0.4883  0.5569 -0.5661
  445MOL0     C59963   5.490   1.859  10.144  1.0973  0.1820 -0.4058
  445MOL0     O59964   5.612   1.886  10.077 -0.9305 -0.6256  1.0597
  445MOL0     C59965   5.731   1.888  10.145  0.3362 -0.2212  0.9976
  445MOL0     C59966   5.832   1.800  10.103  0.5362  0.4054 -0.1263
  445MOL0     C59967   5.958   1.805  10.168 -0.3374  0.8363 -0.5720
  445MOL0     C59968   6.058   1.702  10.120  0.3050  0.6880  0.4001
  445MOL0     C59969   5.987   1.905  10.263 -0.3225 -0.1251  0.1601
  445MOL0     C59970   6.115   1.929  10.330  0.7566  0.4205 -0.3505
  445MOL0     O59971   6.172   2.052  10.319 -0.1798  0.0613  0.3559
  445MOL0     C59972   6.305   2.065  10.294 -0.8247  0.3229  1.2298
  445MOL0     C59973   6.379   2.163  10.354  0.0501 -0.5071  0.8387
  445MOL0     C59974   6.520   2.169  10.328 -0.1901  0.1212 -0.7794
  445MOL0     C59975   6.588   2.087  10.238  0.3370 -0.2811 -0.8982
  445MOL0     O59976   6.730   2.107  10.226 -0.2191 -0.2192  0.0481
  445MOL0     C59977   6.799   2.031  10.129  0.3248 -0.1561  0.4484
  445MOL0     C59978   6.938   2.078  10.118  0.1896  0.1449  0.9547
  445MOL0     C59979   7.007   2.011   9.992  0.0922  0.0789 -0.1593
  445MOL0     C59980   7.155   1.986  10.016  0.5084  0.0649 -0.3418
  445MOL0     C59981   7.215   1.899   9.903  0.2092 -0.0168  0.0106
  445MOL0     C59982   7.361   1.910   9.898 -0.1795 -0.4220  0.4941
  445MOL0     C59983   7.421   1.794   9.801 -0.0989 -0.4202  0.1760
  445MOL0     C59984   7.573   1.789   9.787 -0.9428 -0.2364  0.0579
  445MOL0    Cl59985   7.629   1.946   9.729 -0.2787  0.1415 -0.5657
  445MOL0     C59986   6.508   2.000  10.166  1.3759 -0.6467 -0.7012
  445MOL0     C59987   6.366   1.991  10.192  0.0837 -0.6116 -0.1802
  445MOL0     O59988   6.166   1.829  10.379 -1.5366  0.0900  1.2374
  445MOL0     C59989   5.888   1.998  10.296 -0.4916  0.1140  0.1214
  445MOL0     C59990   5.762   1.986  10.238  0.4407 -0.6791  0.5419
  445MOL0     N59991   4.991   1.749   9.930 -0.1450 -0.8795  0.2871
  445MOL0     N59992   4.925   1.693   9.838  0.2586 -0.9868  0.4663
  445MOL0     C59993   4.457   1.292   8.881 -0.0801 -0.3742 -0.8893
  445MOL0     C59994   4.323   1.269   8.866  0.9763 -0.5031  0.6503
  445MOL0     C59995   3.900   1.135   8.994  0.1087 -0.2811  1.4365
  445MOL0     C59996   3.834   1.249   8.957  0.5630 -0.1268 -0.1064
  445MOL0     C59997   3.692   1.248   8.932  1.0504 -0.0725  0.0604
  445MOL0     C59998   3.618   1.133   8.942 -0.7340 -0.1015 -0.8479
  445MOL0     O59999   3.480   1.121   8.923  0.7849  1.4914 -0.4339
  445MOL0     C60000   3.397   1.229   8.886  0.6644  0.1272  0.2096
  445MOL0     C60001   3.263   1.206   8.821 -0.3666 -0.2358 -0.1251
  445MOL0     C60002   3.291   1.192   8.678 -0.5714 -0.0683  0.9634
  445MOL0     C60003   3.158   1.181   8.599 -0.9352  0.0335 -0.2595
  445MOL0     C60004   3.201   1.191   8.456  0.2797 -0.0950 -0.5632
  445MOL0     C60005   3.232   1.200   8.336 -0.8118 -0.2226 -1.2742
  445MOL0     C60006   3.693   1.016   8.966 -0.0530 -0.1167 -0.1373
  445MOL0     C60007   3.828   1.014   8.999  0.7883  0.2169 -0.1347
  445MOL0     H60008   4.255   1.304   9.206  0.4784  2.0445 -0.9890
  445MOL0     H60009   4.499   1.324   9.213 -1.4565  0.0565  0.4427
  445MOL0     H60010   4.835   1.353   8.944 -0.8645 -1.6398  1.8473
  445MOL0     H60011   4.714   1.387   8.823 -1.4455 -0.6356  0.5046
  445MOL0     H60012   4.798   1.612   8.896 -1.4541  1.5879 -0.5977
  445MOL0     H60013   4.630   1.566   8.970 -0.5573 -0.5086  0.4166
  445MOL0     H60014   4.725   1.509   9.177  2.0719 -0.1233 -0.1534
  445MOL0     H60015   4.886   1.532   9.130 -0.2343  0.1035 -1.1865
  445MOL0     H60016   4.863   1.780   9.074  0.0933  1.7588 -0.5887
  445MOL0     H60017   4.704   1.777   9.136 -1.0949 -0.4036  1.8999
  445MOL0     H60018   4.858   1.860   9.294  1.1279  0.5810 -0.4106
  445MOL0     H60019   4.744   1.741   9.349  1.9274  1.5983  3.2703
  445MOL0     H60020   4.900   1.577   9.362 -0.9315  1.9189  1.5982
  445MOL0     H60021   5.041   1.652   9.284 -1.0117 -3.1111 -1.4146
  445MOL0     H60022   5.096   1.675   9.500  1.3394  3.2695  0.5997
  445MOL0     H60023   5.035   1.829   9.468 -1.1643  0.9749  0.9184
  445MOL0     H60024   4.866   1.606   9.599 -0.2835 -0.2212  3.0354
  445MOL0     H60025   4.810   1.765   9.566 -1.2319  0.0230  1.9804
  445MOL0     H60026   5.130   1.896   9.677 -2.2507  0.6452 -1.6032
  445MOL0     H60027   5.187   2.025   9.914  0.8900 -0.2035 -0.4843
  445MOL0     H60028   5.106   1.943  10.057  3.4713 -3.0628  1.0226
  445MOL0     H60029   5.334   1.808   9.925  0.5009 -1.3165  0.7181
  445MOL0     H60030   5.253   1.775  10.068  0.1853 -0.4465 -0.9282
  445MOL0     H60031   5.322   1.981  10.185  1.2551 -0.6618  1.0070
  445MOL0     H60032   5.409   2.048  10.056  0.4635  1.8236  2.9089
  445MOL0     H60033   5.467   1.753  10.139 -1.9681  0.5591  2.2710
  445MOL0     H60034   5.501   1.871  10.252 -1.8329 -1.3227  0.1587
  445MOL0     H60035   5.807   1.727  10.026  2.0356  1.6618 -1.8949
  445MOL0     H60036   6.157   1.747  10.111 -0.5317  2.2242 -1.9680
  445MOL0     H60037   6.060   1.621  10.194  2.1812 -2.1385 -2.4903
  445MOL0     H60038   6.031   1.651  10.027  0.0123 -0.3167  1.0082
  445MOL0     H60039   6.340   2.236  10.425  2.5562  2.0463 -0.2284
  445MOL0     H60040   6.577   2.242  10.384 -1.4619 -2.4327  4.4658
  445MOL0     H60041   6.794   1.923  10.144  0.5993 -0.2729 -0.2622
  445MOL0     H60042   6.751   2.043  10.032 -0.6639 -5.0091  0.1081
  445MOL0     H60043   6.929   2.185  10.100  4.5865  0.2385 -1.9958
  445MOL0     H60044   6.998   2.055  10.206  1.2447 -2.6027 -0.3647
  445MOL0     H60045   6.997   2.075   9.905 -2.1510 -1.7348 -1.3515
  445MOL0     H60046   6.953   1.916   9.979 -0.0582  0.2417 -0.7226
  445MOL0     H60047   7.203   2.085  10.021  1.1661 -0.2950  1.1336
  445MOL0     H60048   7.172   1.932  10.110 -0.8168 -2.6698 -1.5927
  445MOL0     H60049   7.162   1.923   9.811  0.1683 -0.4936 -0.0913
  445MOL0     H60050   7.198   1.794   9.929  4.2917 -1.7831 -3.2699
  445MOL0     H60051   7.383   2.014   9.871 -0.2847 -0.7852 -1.0794
  445MOL0     H60052   7.401   1.905  10.000 -1.8046  2.6641  1.4126
  445MOL0     H60053   7.385   1.818   9.700 -2.3418  3.0077  1.5886
  445MOL0     H60054   7.374   1.701   9.834 -0.8527 -1.1760 -2.6869
  445MOL0     H60055   7.615   1.710   9.724 -2.4112  0.3285 -1.7090
  445MOL0     H60056   7.614   1.764   9.885 -0.3830  1.3161  0.2432
  445MOL0     H60057   6.558   1.929  10.101  2.0779 -1.6392  0.8555
  445MOL0     H60058   6.311   1.915  10.138  0.0197 -1.0678  0.5139
  445MOL0     H60059   5.901   2.077  10.369 -2.6333  1.4776 -0.8667
  445MOL0     H60060   5.687   2.062  10.261  1.7782  1.8842 -2.7199
  445MOL0     H60061   4.508   1.297   8.785 -0.9036 -0.9147 -1.3608
  445MOL0     H60062   4.286   1.256   8.765  0.9292  0.3675  0.5511
  445MOL0     H60063   3.896   1.337   8.941 -0.4726  0.1138 -4.0548
  445MOL0     H60064   3.634   1.340   8.925  0.2023 -0.3572  2.3015
  445MOL0     H60065   3.372   1.271   8.984  0.2232  0.6767 -0.1313
  445MOL0     H60066   3.440   1.299   8.814 -0.2364  0.4257 -0.0538
  445MOL0     H60067   3.205   1.295   8.846  2.4172  1.6593  0.0566
  445MOL0     H60068   3.208   1.117   8.851  0.3699 -0.5257  0.3848
  445MOL0     H60069   3.346   1.099   8.663 -2.9925 -1.1961 -1.9804
  445MOL0     H60070   3.352   1.272   8.634 -2.6140  1.0737  0.0712
  445MOL0     H60071   3.094   1.262   8.632 -0.6491  0.7942 -1.4892
  445MOL0     H60072   3.114   1.083   8.621 -3.9370  1.6877  1.5808
  445MOL0     H60073   3.241   1.199   8.229  2.1722 -1.1244 -1.1256
  445MOL0     H60074   3.636   0.924   8.959  0.0139 -0.0839 -1.3172
  445MOL0     H60075   3.877   0.918   9.014  0.9692  0.3973  0.4475
  446MOL0     O60076   8.171  10.091   1.288  0.0357 -0.6013  0.1654
  446MOL0     C60077   8.055  10.083   1.258 -0.4778 -0.0370  0.0369
  446MOL0     O60078   7.989   9.985   1.187  0.3208  0.4209 -0.4079
  446MOL0     C60079   8.052   9.864   1.161 -1.0154  0.3966  1.3392
  446MOL0     C60080   8.154   9.794   1.227  1.0953 -0.4065 -0.2974
  446MOL0     C60081   8.213   9.688   1.170 -0.2775 -1.7592 -0.2666
  446MOL0     C60082   8.180   9.642   1.043 -0.6377 -0.3199  0.3369
  446MOL0     O60083   8.248   9.537   0.981 -0.4976 -0.0175 -0.8862
  446MOL0     C60084   8.378   9.579   0.939 -0.2006 -0.1409  0.0394
  446MOL0     C60085   8.369   9.660   0.818  0.2741 -0.7557 -0.3705
  446MOL0     C60086   8.458   9.789   0.821 -0.0446  0.6768 -1.0341
  446MOL0     C60087   8.376   9.899   0.896  1.0276  0.4518 -0.1745
  446MOL0     C60088   8.451  10.028   0.890  0.4451 -0.7660  0.6080
  446MOL0     C60089   8.367  10.138   0.965  0.2637 -0.2176 -0.3619
  446MOL0     C60090   8.238  10.177   0.903  0.6554  1.6522  0.4971
  446MOL0     C60091   8.188  10.301   0.966 -0.4258  0.3813 -1.1207
  446MOL0     N60092   8.058  10.328   0.914  0.0005 -0.4764 -0.5049
  446MOL0     C60093   7.946  10.250   0.947 -1.7363  0.3467  0.5692
  446MOL0     C60094   7.857  10.287   0.856 -0.0492 -0.2790  0.1117
  446MOL0     C60095   7.715  10.235   0.840  0.2448  0.4456 -0.2708
  446MOL0     C60096   7.708  10.092   0.771 -0.6178  0.6353 -0.1409
  446MOL0     C60097   7.568  10.025   0.767 -0.5793  0.7238 -0.1837
  446MOL0     C60098   7.459  10.111   0.698 -0.2139 -0.9999  0.0022
  446MOL0     O60099   7.338  10.036   0.712  0.5798 -0.2828 -0.5338
  446MOL0     C60100   7.223  10.098   0.672 -0.2261  0.1170 -0.3517
  446MOL0     C60101   7.222  10.184   0.562 -0.1240 -0.5441 -1.4717
  446MOL0     C60102   7.110  10.221   0.495 -0.6129 -0.4693  0.0996
  446MOL0     C60103   7.133  10.298   0.371  0.6762  0.5861 -0.9214
  446MOL0     C60104   6.982  10.168   0.543  0.3325  0.3633 -0.4220
  446MOL0     C60105   6.860  10.203   0.473 -0.8163 -0.3330  0.7620
  446MOL0     O60106   6.820  10.330   0.488  0.7421 -0.5230  0.0068
  446MOL0     C60107   6.694  10.356   0.446 -1.0070  0.1360  0.1852
  446MOL0     C60108   6.597  10.367   0.552 -0.1747  0.2788  0.6830
  446MOL0     C60109   6.465  10.395   0.512 -0.5209 -0.3165  0.4886
  446MOL0     C60110   6.433  10.410   0.377 -0.2447  0.0724  0.3723
  446MOL0     O60111   6.311  10.450   0.326  0.2797 -1.2560  0.4794
  446MOL0     C60112   6.276  10.583   0.368  0.2085 -0.0483  0.2835
  446MOL0     C60113   6.133  10.633   0.332  0.0920  1.0751  0.0413
  446MOL0     C60114   6.070  10.763   0.394 -0.1721  0.3444 -0.1183
  446MOL0     C60115   6.155  10.885   0.356  0.7331  0.2485 -0.5279
  446MOL0     C60116   6.105  11.010   0.435 -0.0959  0.0590 -0.9570
  446MOL0     C60117   6.210  11.129   0.416  0.6055  0.4695  0.3078
  446MOL0     C60118   6.144  11.254   0.461 -0.3798 -0.4769 -1.2274
  446MOL0     C60119   6.233  11.368   0.442 -0.2607 -0.6570  0.1501
  446MOL0    Cl60120   6.206  11.511   0.549 -0.0986  0.5370  0.0067
  446MOL0     C60121   6.531  10.393   0.280 -0.0351 -0.8000 -0.3049
  446MOL0     C60122   6.662  10.379   0.313  0.1889 -0.2469  0.7173
  446MOL0     O60123   6.808  10.118   0.404  0.6444  0.1732 -0.6049
  446MOL0     C60124   6.984  10.093   0.663 -0.3538 -0.7914  0.6533
  446MOL0     C60125   7.101  10.059   0.720 -0.4660 -0.7801  0.5128
  446MOL0     N60126   7.906  10.391   0.781  0.1789 -0.0655  0.1850
  446MOL0     N60127   8.027  10.420   0.812 -0.3875  0.9437  0.1154
  446MOL0     C60128   8.087   9.711   0.975 -0.7200 -0.4144  0.1905
  446MOL0     C60129   8.021   9.816   1.029  0.4440 -0.4026  0.6516
  446MOL0     C60130   7.957  10.187   1.313 -0.6483 -0.2213 -0.3213
  446MOL0     C60131   7.998  10.284   1.406  0.0150  1.0431  0.6928
  446MOL0     C60132   7.915  10.378   1.466  0.0933  0.0720  0.0512
  446MOL0     C60133   7.780  10.377   1.438 -0.9767 -0.1568  0.0428
  446MOL0     O60134   7.696  10.457   1.507  0.6573 -0.6722 -0.0651
  446MOL0     C60135   7.566  10.489   1.468  0.7023 -0.9254  0.7903
  446MOL0     C60136   7.457  10.462   1.574  1.3711  0.1416  0.3749
  446MOL0     C60137   7.341  10.562   1.543  0.0798  0.8134  0.0492
  446MOL0     C60138   7.265  10.559   1.680  0.2133 -0.5921 -0.0530
  446MOL0     C60139   7.127  10.620   1.677 -0.2122 -0.7681 -0.2602
  446MOL0     C60140   7.016  10.664   1.674 -0.4155 -0.1367  0.2815
  446MOL0     C60141   7.732  10.273   1.359 -0.0138  0.1806 -0.5825
  446MOL0     C60142   7.820  10.181   1.287  0.6417  0.1397  0.3758
  446MOL0     H60143   8.182   9.837   1.323 -5.5552  2.8078  0.8125
  446MOL0     H60144   8.308   9.664   1.217  0.9700 -0.5579 -2.0422
  446MOL0     H60145   8.434   9.636   1.013 -2.5419  1.0731  0.9903
  446MOL0     H60146   8.428   9.486   0.909  0.2296  0.1400 -0.1267
  446MOL0     H60147   8.396   9.596   0.733 -1.4434  0.7069 -2.1260
  446MOL0     H60148   8.266   9.688   0.793  0.7915  1.4796 -0.2380
  446MOL0     H60149   8.555   9.765   0.865 -0.2362  0.8806 -0.4884
  446MOL0     H60150   8.472   9.818   0.717  2.9748  1.6263 -0.4646
  446MOL0     H60151   8.278   9.918   0.850  0.8799  1.2985  0.4581
  446MOL0     H60152   8.355   9.864   0.997  0.7706 -1.4124 -0.8251
  446MOL0     H60153   8.544  10.021   0.946 -0.5429  0.0928  2.4531
  446MOL0     H60154   8.476  10.067   0.791  0.5432  0.9509  1.2667
  446MOL0     H60155   8.344  10.107   1.068 -0.2326 -1.7297 -0.9094
  446MOL0     H60156   8.437  10.222   0.968 -2.0456  1.7901  1.5667
  446MOL0     H60157   8.249  10.187   0.795 -2.2324  1.5987  0.1145
  446MOL0     H60158   8.169  10.094   0.920  3.6025 -1.6600 -2.3455
  446MOL0     H60159   8.247  10.390   0.943 -0.7588  0.9889  0.2743
  446MOL0     H60160   8.198  10.297   1.075  0.5637  2.1336 -1.1097
  446MOL0     H60161   7.941  10.189   1.036  0.3152 -0.6607  0.0633
  446MOL0     H60162   7.682  10.213   0.941 -0.5913 -0.6200 -0.7598
  446MOL0     H60163   7.654  10.314   0.794  1.6582  0.1830 -2.7843
  446MOL0     H60164   7.785  10.030   0.818 -0.6284  0.5956 -0.1739
  446MOL0     H60165   7.745  10.105   0.669  0.9268  4.0426  0.7073
  446MOL0     H60166   7.542  10.009   0.873 -0.0348 -1.0946 -0.2919
  446MOL0     H60167   7.566   9.921   0.733  2.7142 -0.0833  1.6928
  446MOL0     H60168   7.474  10.114   0.590 -5.0906 -1.5661 -0.9023
  446MOL0     H60169   7.457  10.215   0.734  1.8707 -0.4495 -1.2874
  446MOL0     H60170   7.312  10.225   0.517  0.1991  0.0622 -0.3399
  446MOL0     H60171   7.088  10.396   0.389 -0.1905  0.1979 -0.9434
  446MOL0     H60172   7.239  10.313   0.346  0.4301 -0.4971 -2.7762
  446MOL0     H60173   7.077  10.257   0.287 -0.4628  1.6792 -0.7251
  446MOL0     H60174   6.632  10.357   0.654  3.3380 -1.7436 -0.5354
  446MOL0     H60175   6.382  10.425   0.575 -1.2934 -0.2397 -0.5592
  446MOL0     H60176   6.290  10.587   0.477  1.3486  0.7863  0.1288
  446MOL0     H60177   6.343  10.658   0.326  2.5676 -2.1941 -0.0903
  446MOL0     H60178   6.141  10.650   0.225  3.6996  0.5240  0.0953
  446MOL0     H60179   6.065  10.550   0.354 -2.4044  2.5301 -1.7051
  446MOL0     H60180   6.070  10.754   0.503  3.1823 -2.8851 -0.1718
  446MOL0     H60181   5.968  10.772   0.355  0.2773  2.8958 -0.8999
  446MOL0     H60182   6.261  10.871   0.381  0.4699 -0.3546  0.3009
  446MOL0     H60183   6.158  10.904   0.248 -2.1493 -1.9589 -1.1148
  446MOL0     H60184   6.090  10.980   0.539  0.9905 -4.0206 -1.7594
  446MOL0     H60185   6.004  11.031   0.399 -1.4603 -0.8361  2.0462
  446MOL0     H60186   6.289  11.103   0.486 -0.4793 -0.3405  1.2694
  446MOL0     H60187   6.241  11.134   0.311 -0.4578 -0.8466 -0.1059
  446MOL0     H60188   6.108  11.240   0.563  3.8807 -0.1271  0.5093
  446MOL0     H60189   6.050  11.272   0.407 -3.8274 -2.1355  3.5018
  446MOL0     H60190   6.228  11.399   0.337 -3.2313  3.6628  1.2968
  446MOL0     H60191   6.340  11.352   0.458 -0.1085 -0.2563 -0.4153
  446MOL0     H60192   6.500  10.400   0.177 -1.5959  2.1685  0.2470
  446MOL0     H60193   6.743  10.371   0.240  2.6079  1.5423  2.9953
  446MOL0     H60194   6.896  10.061   0.718 -0.2455 -1.8020  0.2545
  446MOL0     H60195   7.101   9.996   0.808  4.1100 -3.4326 -1.0608
  446MOL0     H60196   8.070   9.679   0.873 -0.7368  1.1409 -0.3193
  446MOL0     H60197   7.942   9.860   0.968  1.6027 -0.6071 -1.0656
  446MOL0     H60198   8.101  10.295   1.437 -0.0972 -0.5754  1.7472
  446MOL0     H60199   7.961  10.448   1.535  1.6341  1.7358 -2.5298
  446MOL0     H60200   7.558  10.597   1.452 -0.0049 -1.1354 -0.4192
  446MOL0     H60201   7.535  10.443   1.374 -0.9785 -1.8792  1.7525
  446MOL0     H60202   7.511  10.481   1.667  2.0156 -2.9269  0.7368
  446MOL0     H60203   7.431  10.356   1.580  1.9397 -0.0643 -0.4646
  446MOL0     H60204   7.277  10.521   1.464  2.2901 -0.7920 -1.0178
  446MOL0     H60205   7.370  10.665   1.523 -0.4816  1.5235  2.5507
  446MOL0     H60206   7.331  10.600   1.756  2.4518 -1.6902 -1.2939
  446MOL0     H60207   7.241  10.458   1.716  0.9354 -1.1409 -1.0575
  446MOL0     H60208   6.920  10.712   1.684  0.3341  1.3015  0.9935
  446MOL0     H60209   7.627  10.266   1.334  0.7168  1.8191 -4.7979
  446MOL0     H60210   7.785  10.120   1.205  0.7357  5.3869 -4.1353
  447MOL0     O60211   6.291   7.640   9.009  0.2912 -0.1877  0.2472
  447MOL0     C60212   6.218   7.652   9.114 -0.7502  0.3531 -0.0594
  447MOL0     O60213   6.085   7.632   9.124  0.8716 -0.0466 -0.1279
  447MOL0     C60214   6.025   7.575   9.012 -0.1723 -0.0863  0.2047
  447MOL0     C60215   5.908   7.627   8.971  0.2553 -0.0978  0.6995
  447MOL0     C60216   5.829   7.576   8.870  0.1235  0.3595  0.3641
  447MOL0     C60217   5.873   7.460   8.800  0.2292 -0.3674 -0.0585
  447MOL0     O60218   5.809   7.403   8.691  0.1058 -0.7767 -1.0589
  447MOL0     C60219   5.673   7.436   8.671 -0.8407 -0.4134 -0.4187
  447MOL0     C60220   5.610   7.348   8.555  0.2130 -0.3738 -0.1277
  447MOL0     C60221   5.458   7.345   8.571 -0.1907  0.2226  0.2197
  447MOL0     C60222   5.394   7.301   8.442  1.1132  1.3853 -0.6276
  447MOL0     C60223   5.245   7.275   8.456  0.4166 -0.4077  0.4005
  447MOL0     C60224   5.162   7.401   8.430 -0.0191  0.1036 -0.5422
  447MOL0     C60225   5.010   7.393   8.450 -0.7196  0.3881 -0.1715
  447MOL0     C60226   4.942   7.287   8.361 -0.1831  0.0614 -0.1663
  447MOL0     N60227   4.978   7.294   8.220  0.9482  0.2032 -0.1758
  447MOL0     C60228   4.931   7.381   8.127  0.1187 -0.5790  0.0040
  447MOL0     C60229   4.963   7.337   8.001  0.7420  0.1818  0.1003
  447MOL0     C60230   4.922   7.398   7.872  0.6033  0.0549 -0.1138
  447MOL0     C60231   4.771   7.418   7.848 -0.3298  0.4284 -0.4930
  447MOL0     C60232   4.690   7.292   7.827 -0.1782 -0.4115  0.2955
  447MOL0     C60233   4.551   7.331   7.788 -0.5441 -0.2911  0.1075
  447MOL0     O60234   4.476   7.360   7.904 -0.3098  0.6388  0.0369
  447MOL0     C60235   4.339   7.376   7.883  0.2958 -0.0114 -0.3285
  447MOL0     C60236   4.252   7.267   7.913 -0.5266 -0.0787 -0.7423
  447MOL0     C60237   4.119   7.285   7.923  0.8672 -0.3746  0.1922
  447MOL0     C60238   4.039   7.158   7.956  0.1479  0.0996 -0.4204
  447MOL0     C60239   4.063   7.413   7.922 -0.1250 -0.0453 -0.3486
  447MOL0     C60240   3.917   7.439   7.936  0.6906  0.9404 -0.3945
  447MOL0     O60241   3.822   7.355   7.870 -0.2851 -0.5948 -0.0685
  447MOL0     C60242   3.691   7.369   7.870 -0.1475 -0.7126 -0.1155
  447MOL0     C60243   3.614   7.253   7.869  0.1701 -0.7520 -0.6617
  447MOL0     C60244   3.478   7.263   7.876  0.0440  0.0707  1.3989
  447MOL0     C60245   3.405   7.385   7.874  0.1437 -0.5594 -0.1590
  447MOL0     O60246   3.269   7.378   7.867 -1.4671  0.0122 -0.4329
  447MOL0     C60247   3.196   7.475   7.934  0.1864  0.4761  0.4054
  447MOL0     C60248   3.058   7.455   7.887  0.5569  0.7756  0.1968
  447MOL0     C60249   2.984   7.336   7.969 -0.9906 -0.2409 -0.3302
  447MOL0     C60250   2.842   7.317   7.929  0.7721 -0.2279  0.1365
  447MOL0     C60251   2.771   7.209   7.995 -0.1298  0.2263 -0.3913
  447MOL0     C60252   2.823   7.073   8.005  0.0754  0.3765  0.0294
  447MOL0     C60253   2.715   6.962   8.013 -0.3350  0.4333  0.1316
  447MOL0     C60254   2.649   6.959   8.139 -0.0157  0.6013 -0.4084
  447MOL0    Cl60255   2.481   6.879   8.107  0.1732  0.1368 -0.0370
  447MOL0     C60256   3.479   7.500   7.882 -0.3421 -1.0251 -0.6908
  447MOL0     C60257   3.621   7.490   7.885 -0.3808  0.8924  0.6442
  447MOL0     O60258   3.885   7.538   8.002  0.6574 -0.4137 -0.9259
  447MOL0     C60259   4.147   7.528   7.903 -0.7027 -0.0760  0.9794
  447MOL0     C60260   4.286   7.503   7.893  0.3994  0.5898 -0.1291
  447MOL0     N60261   5.042   7.227   8.020 -0.6186  0.7309 -0.1525
  447MOL0     N60262   5.048   7.201   8.144 -0.5321 -0.3474 -0.0987
  447MOL0     C60263   5.988   7.401   8.855  0.1020  0.6864 -0.2039
  447MOL0     C60264   6.061   7.459   8.956  0.9484 -0.0069  0.2441
  447MOL0     C60265   6.291   7.680   9.234  0.0445 -0.6458 -0.1362
  447MOL0     C60266   6.230   7.722   9.351 -0.6804 -0.4587  0.2389
  447MOL0     C60267   6.301   7.747   9.466 -0.3362 -0.5439 -0.5235
  447MOL0     C60268   6.439   7.744   9.476 -0.6067 -0.3894  0.8863
  447MOL0     O60269   6.504   7.755   9.597 -1.0581 -0.1003  0.0308
  447MOL0     C60270   6.518   7.633   9.661 -0.8689  0.3287  0.2028
  447MOL0     C60271   6.501   7.645   9.810  0.7820  0.0210  0.6354
  447MOL0     C60272   6.537   7.509   9.885  0.5093 -0.0907  0.3243
  447MOL0     C60273   6.470   7.496  10.021 -1.1742 -0.7594 -0.5785
  447MOL0     C60274   6.550   7.568  10.116  0.1596 -0.6830 -0.8059
  447MOL0     C60275   6.620   7.629  10.196  0.0228  0.5837 -0.5643
  447MOL0     C60276   6.511   7.699   9.358  0.7813  0.5370  0.1962
  447MOL0     C60277   6.438   7.679   9.231  0.1581 -0.6892  0.0302
  447MOL0     H60278   5.877   7.729   8.995  1.7350  0.3383  0.8209
  447MOL0     H60279   5.735   7.628   8.855  0.3963  1.1695  1.3402
  447MOL0     H60280   5.615   7.414   8.761  1.4069  1.1440  1.5338
  447MOL0     H60281   5.664   7.537   8.628 -2.1444 -1.1170 -1.8988
  447MOL0     H60282   5.638   7.387   8.457 -1.8290  0.9114 -0.2624
  447MOL0     H60283   5.640   7.242   8.552  0.2205 -0.6228  3.6556
  447MOL0     H60284   5.421   7.276   8.648 -2.3178 -0.3264 -1.1923
  447MOL0     H60285   5.425   7.440   8.613  0.7670  0.0048  1.5214
  447MOL0     H60286   5.410   7.387   8.377  0.2799  3.6681  2.0024
  447MOL0     H60287   5.447   7.211   8.412  1.2545  1.6938 -1.3093
  447MOL0     H60288   5.221   7.218   8.366  2.9177  2.4835 -2.3519
  447MOL0     H60289   5.231   7.219   8.549  1.7943  0.7581  1.3512
  447MOL0     H60290   5.195   7.473   8.506 -3.6854  0.1607  1.2033
  447MOL0     H60291   5.195   7.439   8.333  3.3169 -0.4057  0.2594
  447MOL0     H60292   4.992   7.384   8.557 -0.7773  2.9912  0.1089
  447MOL0     H60293   4.984   7.498   8.436 -1.0128  0.4231  0.5796
  447MOL0     H60294   4.833   7.297   8.366 -0.1982 -0.4100  0.6919
  447MOL0     H60295   4.969   7.187   8.395 -0.8489 -0.1722 -0.2991
  447MOL0     H60296   4.861   7.462   8.144  2.1057  1.1687  0.1754
  447MOL0     H60297   4.974   7.494   7.864 -2.2629  1.5957 -1.8660
  447MOL0     H60298   4.958   7.336   7.789 -0.7463  0.6257 -1.1648
  447MOL0     H60299   4.762   7.493   7.769 -0.6285  0.9855  0.0582
  447MOL0     H60300   4.729   7.477   7.930 -1.0608  3.7658 -3.0826
  447MOL0     H60301   4.694   7.223   7.911 -2.0144  1.5540  2.1162
  447MOL0     H60302   4.737   7.238   7.744 -0.3126 -1.2711  0.7689
  447MOL0     H60303   4.501   7.250   7.735  0.2791 -1.4758  1.0803
  447MOL0     H60304   4.554   7.416   7.719 -2.4714 -0.1136  0.2042
  447MOL0     H60305   4.288   7.169   7.943 -2.7249 -0.5158  0.6513
  447MOL0     H60306   4.013   7.101   7.867 -4.3355  1.2675 -0.1319
  447MOL0     H60307   4.090   7.086   8.021 -0.9983 -2.5216 -2.2650
  447MOL0     H60308   3.939   7.169   8.000 -1.7688 -5.1909 -2.6540
  447MOL0     H60309   3.663   7.157   7.861  0.7306 -0.6044  0.8120
  447MOL0     H60310   3.425   7.169   7.864 -2.2496  1.5190 -1.1871
  447MOL0     H60311   3.203   7.468   8.043  0.2047  2.0954  0.5293
  447MOL0     H60312   3.209   7.583   7.922 -5.1372  1.4751  1.1357
  447MOL0     H60313   3.004   7.549   7.904  1.0899  1.1136  0.0608
  447MOL0     H60314   3.054   7.447   7.778  0.2734  1.9464  0.1024
  447MOL0     H60315   2.996   7.346   8.077  0.9799 -0.7185 -0.4612
  447MOL0     H60316   3.051   7.250   7.951 -0.2267 -0.2825  2.3037
  447MOL0     H60317   2.785   7.410   7.926 -1.5702 -1.5990 -0.9736
  447MOL0     H60318   2.849   7.301   7.821  2.2597 -0.8964  0.3172
  447MOL0     H60319   2.685   7.208   7.927  1.3491  3.4872 -2.5265
  447MOL0     H60320   2.742   7.251   8.092  0.5842 -0.0667 -0.0454
  447MOL0     H60321   2.887   7.067   7.916  0.4027 -1.2209  0.3448
  447MOL0     H60322   2.892   7.064   8.089  1.3399 -0.0694 -1.0171
  447MOL0     H60323   2.767   6.867   7.995  1.1991  1.4944 -1.3303
  447MOL0     H60324   2.643   6.972   7.931  0.7646 -1.1513 -1.1005
  447MOL0     H60325   2.640   7.059   8.182  0.5957  0.5751 -0.2088
  447MOL0     H60326   2.697   6.894   8.211 -1.7535 -1.0016 -0.6201
  447MOL0     H60327   3.426   7.594   7.891  1.6466 -0.0393  2.1910
  447MOL0     H60328   3.680   7.581   7.891 -1.3502  1.4496  2.2456
  447MOL0     H60329   4.116   7.632   7.909 -1.4213 -0.1780 -0.5740
  447MOL0     H60330   4.354   7.587   7.882  1.0821  0.2489  1.3853
  447MOL0     H60331   6.020   7.300   8.829  0.2539 -0.0986  2.6459
  447MOL0     H60332   6.146   7.407   8.999  1.5164  3.4769  4.0025
  447MOL0     H60333   6.122   7.733   9.358 -1.0509  0.4183 -4.0517
  447MOL0     H60334   6.232   7.760   9.549 -1.8340 -0.2853 -1.7571
  447MOL0     H60335   6.441   7.565   9.623  0.1072  0.2547 -1.7441
  447MOL0     H60336   6.617   7.595   9.634 -0.4947  2.0974 -1.1047
  447MOL0     H60337   6.395   7.665   9.820  0.0097 -3.0358 -0.2689
  447MOL0     H60338   6.557   7.725   9.861 -0.7780  0.4716  1.7073
  447MOL0     H60339   6.645   7.493   9.897  0.4883 -3.1421 -2.3454
  447MOL0     H60340   6.509   7.421   9.827  0.0113  0.5529 -0.4471
  447MOL0     H60341   6.477   7.393  10.058  5.1667  0.4956  3.3545
  447MOL0     H60342   6.366   7.528  10.016 -1.2669 -0.8308  0.6056
  447MOL0     H60343   6.683   7.676  10.269 -1.1080 -1.3963  1.8081
  447MOL0     H60344   6.619   7.694   9.366  1.0123 -0.2161 -2.4389
  447MOL0     H60345   6.501   7.643   9.151  0.9167  0.8241 -0.0876
  448MOL0     O60346   7.140   6.718  10.198  0.2117 -0.0214  0.2799
  448MOL0     C60347   7.154   6.658  10.092  0.8836  0.2792 -0.1213
  448MOL0     O60348   7.065   6.573  10.036  0.2742 -0.5288 -0.1009
  448MOL0     C60349   6.955   6.552  10.117  0.4464 -0.2503 -0.4245
  448MOL0     C60350   6.852   6.638  10.115 -0.1405 -0.7132 -0.4225
  448MOL0     C60351   6.731   6.614  10.178 -0.3097 -1.0150 -1.0254
  448MOL0     C60352   6.715   6.495  10.247  0.3040 -0.6123 -0.4905
  448MOL0     O60353   6.591   6.457  10.298 -0.9432 -0.2573 -0.0286
  448MOL0     C60354   6.500   6.561  10.338 -1.0070 -0.4797  0.3766
  448MOL0     C60355   6.417   6.513  10.455 -0.4405  0.4190  1.0568
  448MOL0     C60356   6.360   6.632  10.538 -0.2092 -0.2144 -0.6345
  448MOL0     C60357   6.270   6.595  10.661  0.5183 -0.1574  0.9088
  448MOL0     C60358   6.216   6.712  10.741 -0.5936  0.0467 -0.0053
  448MOL0     C60359   6.117   6.660  10.844 -0.6717  0.0435 -0.5919
  448MOL0     C60360   6.080   6.773  10.925  0.1472  0.3453 -0.5734
  448MOL0     C60361   5.976   6.744  11.027  0.4346 -0.5081  0.3238
  448MOL0     N60362   5.874   6.645  10.986  0.6268 -0.4718 -0.2153
  448MOL0     C60363   5.770   6.670  10.907  0.1629  0.1154  0.2125
  448MOL0     C60364   5.692   6.560  10.909  0.7357 -0.2612 -0.2337
  448MOL0     C60365   5.564   6.544  10.825  0.0776  0.3103  0.2234
  448MOL0     C60366   5.560   6.628  10.699 -0.2175 -0.4928  0.4359
  448MOL0     C60367   5.461   6.577  10.595  0.9022 -0.8210  0.0542
  448MOL0     C60368   5.311   6.601  10.604 -0.2087 -0.7048 -0.1694
  448MOL0     O60369   5.288   6.736  10.661 -0.7324  0.0958  0.3740
  448MOL0     C60370   5.158   6.787  10.668  0.1617 -0.8595  0.3826
  448MOL0     C60371   5.133   6.902  10.755 -1.2342  0.5531 -0.5221
  448MOL0     C60372   5.002   6.957  10.761 -0.2269 -0.6128 -0.2463
  448MOL0     C60373   4.983   7.070  10.848  0.2246  0.1191  0.3127
  448MOL0     C60374   4.901   6.908  10.671 -0.7998  0.3259 -0.5764
  448MOL0     C60375   4.768   6.966  10.667 -0.2852  0.3002  0.2953
  448MOL0     O60376   4.673   6.886  10.608 -0.2726 -1.1719 -0.5662
  448MOL0     C60377   4.542   6.905  10.637  0.2967 -0.6092  0.6086
  448MOL0     C60378   4.487   6.884  10.762  0.2586 -0.6061 -0.3387
  448MOL0     C60379   4.346   6.888  10.777 -0.0103 -0.2145 -1.1486
  448MOL0     C60380   4.259   6.896  10.667 -0.4340 -0.4014 -0.5709
  448MOL0     O60381   4.128   6.909  10.692 -1.2095  0.7307 -0.4700
  448MOL0     C60382   4.083   6.777  10.727  0.2002  0.4533 -0.6290
  448MOL0     C60383   3.929   6.766  10.745 -0.1664  0.1239  0.1943
  448MOL0     C60384   3.854   6.843  10.620 -0.8006  0.1509 -0.6530
  448MOL0     C60385   3.716   6.809  10.598  0.0713  0.1144  0.4489
  448MOL0     C60386   3.653   6.882  10.472 -0.3043 -0.6496 -0.3073
  448MOL0     C60387   3.503   6.880  10.473  0.2349  0.2865  0.0537
  448MOL0     C60388   3.437   6.946  10.593  0.0104 -0.3247  0.2984
  448MOL0     C60389   3.294   6.992  10.567  0.5551 -0.2690 -0.7887
  448MOL0    Cl60390   3.196   6.846  10.565 -0.3179 -0.2018  0.0513
  448MOL0     C60391   4.316   6.895  10.539 -0.3161  0.4431 -0.6158
  448MOL0     C60392   4.452   6.916  10.522  0.1167  0.0424  0.8734
  448MOL0     O60393   4.745   7.081  10.705  0.1371 -0.7686 -0.1135
  448MOL0     C60394   4.935   6.811  10.583 -0.5899 -0.8877  0.3431
  448MOL0     C60395   5.058   6.744  10.588 -0.0091  0.2399  0.5406
  448MOL0     N60396   5.753   6.475  11.000 -0.8250  0.1785 -0.4793
  448MOL0     N60397   5.864   6.521  11.039  0.5969 -0.1290  0.3613
  448MOL0     C60398   6.826   6.405  10.262 -0.6080  0.1278  0.6069
  448MOL0     C60399   6.948   6.430  10.195 -0.2653 -0.2913  0.7657
  448MOL0     C60400   7.287   6.658  10.035  0.5939  0.5930  0.3759
  448MOL0     C60401   7.302   6.632   9.894 -0.2352  0.7051 -0.7191
  448MOL0     C60402   7.437   6.598   9.852  0.2796 -1.0784  0.0556
  448MOL0     C60403   7.549   6.619   9.922 -0.5981 -0.4057 -0.0126
  448MOL0     O60404   7.680   6.584   9.870  0.4106 -0.7119  0.0384
  448MOL0     C60405   7.803   6.626   9.936 -0.1799  0.5449 -0.7133
  448MOL0     C60406   7.812   6.777   9.919  0.4526  0.0682  0.2100
  448MOL0     C60407   7.819   6.822   9.778  0.0583 -0.1092  0.5583
  448MOL0     C60408   7.833   6.974   9.762 -0.8206  0.0073  0.5523
  448MOL0     C60409   7.795   7.025   9.627  0.3705 -0.4165  0.1860
  448MOL0     C60410   7.758   7.082   9.531 -0.1526  0.1717  0.0538
  448MOL0     C60411   7.533   6.660  10.056 -0.3631  0.3801  0.2184
  448MOL0     C60412   7.408   6.675  10.112 -0.3818  0.4224 -0.9662
  448MOL0     H60413   6.858   6.724  10.049 -1.8875  0.7518  1.2115
  448MOL0     H60414   6.652   6.686  10.163 -1.8590 -2.5288 -0.4361
  448MOL0     H60415   6.557   6.648  10.372 -1.5632 -1.1144  3.1582
  448MOL0     H60416   6.431   6.582  10.255 -1.0087 -3.6809 -0.5654
  448MOL0     H60417   6.333   6.448  10.425  0.2796  0.4499 -1.2738
  448MOL0     H60418   6.474   6.442  10.516  0.4131  0.4427  0.3204
  448MOL0     H60419   6.447   6.682  10.583  1.6419 -2.8903 -0.9502
  448MOL0     H60420   6.302   6.710  10.488  0.2204  2.0004  2.0328
  448MOL0     H60421   6.184   6.546  10.615  0.7472 -0.1959  0.5214
  448MOL0     H60422   6.326   6.517  10.713  0.4462 -0.6393  0.2701
  448MOL0     H60423   6.303   6.755  10.792  0.3334 -0.2003 -1.3348
  448MOL0     H60424   6.159   6.789  10.688  0.0935  0.4032 -0.2380
  448MOL0     H60425   6.040   6.612  10.783  0.5569 -0.7015 -1.6343
  448MOL0     H60426   6.171   6.587  10.906  0.5158  2.2903  1.1459
  448MOL0     H60427   6.167   6.812  10.979  0.5121 -0.5257 -0.5124
  448MOL0     H60428   6.046   6.859  10.866 -2.4442 -0.7950 -0.8630
  448MOL0     H60429   5.926   6.838  11.049 -0.9829 -1.8076  3.1121
  448MOL0     H60430   6.042   6.724  11.113  2.3978 -0.1409 -1.0214
  448MOL0     H60431   5.761   6.763  10.851 -1.3726 -0.5631 -0.7158
  448MOL0     H60432   5.557   6.440  10.794 -4.8276  0.5905 -0.4297
  448MOL0     H60433   5.482   6.571  10.892  0.6772  2.8701  0.0578
  448MOL0     H60434   5.658   6.606  10.655 -0.5939 -1.3954  0.0123
  448MOL0     H60435   5.541   6.733  10.725 -0.3876  0.1676 -2.0688
  448MOL0     H60436   5.469   6.468  10.598  1.8326 -0.8806  5.1870
  448MOL0     H60437   5.485   6.625  10.500 -0.0100 -1.2664 -0.4172
  448MOL0     H60438   5.273   6.528  10.676  1.2577  0.1806  1.5570
  448MOL0     H60439   5.263   6.578  10.508 -0.3706 -0.2396 -0.2036
  448MOL0     H60440   5.215   6.933  10.818 -0.4348  0.3391 -1.4281
  448MOL0     H60441   4.883   7.073  10.894  1.0177  2.4736  2.0641
  448MOL0     H60442   5.058   7.080  10.927  0.5628  0.7678 -0.0856
  448MOL0     H60443   5.000   7.164  10.795 -1.1424  0.9701  1.3066
  448MOL0     H60444   4.548   6.866  10.850 -0.3521 -0.6526  0.0829
  448MOL0     H60445   4.302   6.864  10.873  0.1150 -0.0577 -1.0507
  448MOL0     H60446   4.106   6.708  10.645 -0.6366  0.3867 -0.8110
  448MOL0     H60447   4.121   6.739  10.822 -0.2736  0.2332 -0.5265
  448MOL0     H60448   3.893   6.663  10.752 -1.7519  0.5290 -1.3275
  448MOL0     H60449   3.897   6.807  10.842 -0.1402  0.5526  0.0243
  448MOL0     H60450   3.914   6.817  10.532  1.7560 -0.7787  1.2373
  448MOL0     H60451   3.860   6.949  10.647 -1.0260 -0.7133  3.4279
  448MOL0     H60452   3.704   6.703  10.571 -4.8787  0.3862  0.6339
  448MOL0     H60453   3.661   6.817  10.692 -1.7444 -0.6968 -0.4810
  448MOL0     H60454   3.682   6.845  10.373 -2.8871  1.5605 -2.0397
  448MOL0     H60455   3.681   6.987  10.480 -0.6421 -0.4430 -1.6322
  448MOL0     H60456   3.463   6.927  10.383 -1.1272 -1.6877 -0.4464
  448MOL0     H60457   3.465   6.777  10.478  2.1210 -0.5115 -0.8073
  448MOL0     H60458   3.501   7.028  10.625  0.8722 -0.9160  0.1030
  448MOL0     H60459   3.434   6.880  10.681  0.7880 -0.1440  0.4660
  448MOL0     H60460   3.293   7.048  10.473  0.6973 -0.7555 -1.0847
  448MOL0     H60461   3.249   7.053  10.645  1.6394  1.4689 -1.4468
  448MOL0     H60462   4.262   6.882  10.446 -0.2565 -2.3387 -0.3411
  448MOL0     H60463   4.479   6.921  10.416  1.2038 -2.5055  0.9549
  448MOL0     H60464   4.862   6.793  10.505 -3.0499 -0.2592  2.3716
  448MOL0     H60465   5.072   6.655  10.527  0.9623  0.9510 -0.3292
  448MOL0     H60466   6.823   6.309  10.311  1.2732 -0.5155 -0.4424
  448MOL0     H60467   7.028   6.359  10.209  0.2872  0.4871  1.6654
  448MOL0     H60468   7.224   6.624   9.819  1.3649  3.2662 -2.8158
  448MOL0     H60469   7.447   6.545   9.758  0.7057 -1.2430  0.1916
  448MOL0     H60470   7.812   6.580  10.034  0.5440 -0.8372 -1.3954
  448MOL0     H60471   7.883   6.578   9.878  0.0685  0.0610  0.0193
  448MOL0     H60472   7.899   6.823   9.967  3.1820 -3.7550 -0.5958
  448MOL0     H60473   7.724   6.816   9.971 -0.4884 -2.3432  0.5301
  448MOL0     H60474   7.730   6.794   9.721  0.9675  1.0220 -1.5339
  448MOL0     H60475   7.908   6.782   9.730 -2.1993 -1.1647 -3.1193
  448MOL0     H60476   7.938   7.001   9.781 -0.4359  1.5544 -2.8701
  448MOL0     H60477   7.768   7.011   9.841  1.3352 -0.0294  2.4583
  448MOL0     H60478   7.724   7.125   9.439  0.0295  1.5103  0.5960
  448MOL0     H60479   7.620   6.665  10.121  0.2978  2.2425 -0.7362
  448MOL0     H60480   7.394   6.712  10.213 -2.1517  0.2304 -1.1116
  449MOL0     O60481   5.408  10.397   0.271 -0.6181  0.0248 -0.0374
  449MOL0     C60482   5.460  10.355   0.374  0.2317 -0.5051  0.4509
  449MOL0     O60483   5.421  10.396   0.500  0.3766 -0.1650  0.5878
  449MOL0     C60484   5.291  10.450   0.502 -0.2155 -0.6708 -0.2188
  449MOL0     C60485   5.184  10.358   0.508 -0.0616 -0.1227  1.3521
  449MOL0     C60486   5.055  10.413   0.490 -0.2919 -0.1981  0.8866
  449MOL0     C60487   5.037  10.548   0.476  0.3369  0.3783  0.0357
  449MOL0     O60488   4.915  10.600   0.457  0.4101 -0.6295 -0.2365
  449MOL0     C60489   4.840  10.601   0.582  0.4127 -0.3960 -0.2502
  449MOL0     C60490   4.705  10.522   0.562 -0.6481  0.0314  0.3940
  449MOL0     C60491   4.634  10.586   0.447  0.2049 -0.4428 -0.1157
  449MOL0     C60492   4.498  10.506   0.432 -1.0811  0.3876  0.4099
  449MOL0     C60493   4.408  10.554   0.322 -0.0424 -0.8560  0.1469
  449MOL0     C60494   4.288  10.471   0.296 -0.0347  0.1900 -1.1277
  449MOL0     C60495   4.180  10.469   0.414  0.3881  0.2307  0.2977
  449MOL0     C60496   4.046  10.418   0.376  0.3416 -0.5612  0.1113
  449MOL0     N60497   4.046  10.271   0.379  0.7106  0.1390 -0.0558
  449MOL0     C60498   4.017  10.188   0.488  1.2091  0.5507  0.4176
  449MOL0     C60499   4.008  10.059   0.433 -0.1635 -0.6835 -0.3382
  449MOL0     C60500   3.949   9.941   0.522 -0.7949 -0.3192 -0.2918
  449MOL0     C60501   3.827   9.974   0.607 -1.1869  0.5798  0.5688
  449MOL0     C60502   3.693   9.949   0.523 -0.0324 -0.1704 -1.2494
  449MOL0     C60503   3.653  10.064   0.434 -0.0104  0.3898  1.2485
  449MOL0     O60504   3.657  10.189   0.506 -0.0720 -0.7907 -0.1464
  449MOL0     C60505   3.617  10.296   0.429  0.7864 -0.1319  0.1481
  449MOL0     C60506   3.674  10.335   0.301  0.0714 -0.0148  0.9119
  449MOL0     C60507   3.620  10.432   0.221 -0.3444 -0.3905  0.0727
  449MOL0     C60508   3.694  10.463   0.090 -0.5577  0.1386 -0.7040
  449MOL0     C60509   3.514  10.513   0.274 -0.8211  0.2799 -0.4607
  449MOL0     C60510   3.452  10.624   0.202  0.6245 -0.8364 -0.4621
  449MOL0     O60511   3.379  10.708   0.288  0.2835 -0.7547  0.0430
  449MOL0     C60512   3.305  10.818   0.232 -0.7492 -0.1134 -0.5182
  449MOL0     C60513   3.190  10.837   0.300 -0.0359 -0.9073  0.0488
  449MOL0     C60514   3.096  10.932   0.267 -0.3790  0.5544 -0.0493
  449MOL0     C60515   3.124  11.023   0.162 -0.0327  1.0104  0.0204
  449MOL0     O60516   3.045  11.122   0.119 -0.3255  0.5422 -0.4482
  449MOL0     C60517   2.915  11.142   0.172  0.3853 -0.3616  0.9125
  449MOL0     C60518   2.844  11.188   0.047 -0.2730 -0.0558 -0.0145
  449MOL0     C60519   2.712  11.268   0.060 -0.0734  0.5396 -0.1875
  449MOL0     C60520   2.587  11.178   0.064  0.4511 -0.7243 -1.0100
  449MOL0     C60521   2.463  11.277   0.034 -0.6296  1.6774 -0.8393
  449MOL0     C60522   2.421  11.338   0.165  0.0529  0.8932 -0.0077
  449MOL0     C60523   2.309  11.433   0.160 -0.3787  0.1918  0.5783
  449MOL0     C60524   2.290  11.507   0.282 -0.5704  0.3352 -0.3763
  449MOL0    Cl60525   2.399  11.640   0.291  0.0771 -0.2542 -0.0570
  449MOL0     C60526   3.240  11.008   0.095 -0.5308  0.0157 -0.8347
  449MOL0     C60527   3.340  10.912   0.125  0.1327  0.2381  0.5851
  449MOL0     O60528   3.460  10.639   0.079 -0.1283  1.0148 -0.4017
  449MOL0     C60529   3.469  10.483   0.406 -0.9924  0.1571  0.0878
  449MOL0     C60530   3.514  10.376   0.474 -0.2305 -0.1814  0.5571
  449MOL0     N60531   4.029  10.064   0.297 -0.0824 -0.1196 -0.3805
  449MOL0     N60532   4.042  10.193   0.271 -0.0641 -0.0324 -0.3880
  449MOL0     C60533   5.145  10.635   0.496  0.0934 -0.2431  1.0208
  449MOL0     C60534   5.271  10.588   0.499 -0.1966 -0.0405  0.4612
  449MOL0     C60535   5.567  10.254   0.355 -0.0214 -0.2166 -0.7805
  449MOL0     C60536   5.657  10.227   0.457  0.9248  0.5242 -0.5309
  449MOL0     C60537   5.772  10.154   0.446  0.0833  0.3632 -0.1306
  449MOL0     C60538   5.798  10.090   0.324 -0.5353 -0.0064 -0.3301
  449MOL0     O60539   5.907  10.017   0.321  0.2463  0.6290  0.3249
  449MOL0     C60540   5.877   9.881   0.299  0.3474  0.7635  0.8392
  449MOL0     C60541   5.991   9.791   0.347 -1.3728  0.4962  0.5413
  449MOL0     C60542   6.108   9.784   0.245 -1.0093 -0.8850  0.6246
  449MOL0     C60543   6.213   9.681   0.296 -0.2248  0.0600 -0.6854
  449MOL0     C60544   6.311   9.667   0.194 -0.2918  0.6604 -0.2708
  449MOL0     C60545   6.391   9.646   0.107 -0.7089  0.9843 -0.2698
  449MOL0     C60546   5.709  10.103   0.216  1.6523 -0.0499  0.5585
  449MOL0     C60547   5.597  10.187   0.231  0.8482  0.0152  0.5797
  449MOL0     H60548   5.206  10.252   0.514 -1.0104 -0.3384  1.2979
  449MOL0     H60549   4.963  10.355   0.497 -1.1665  0.8286 -1.3275
  449MOL0     H60550   4.894  10.547   0.660 -1.6863  1.5580  2.7901
  449MOL0     H60551   4.811  10.702   0.613  2.1228 -0.4863  1.8604
  449MOL0     H60552   4.721  10.414   0.554  1.5873 -0.0271  3.7666
  449MOL0     H60553   4.650  10.540   0.654  2.4997  3.4518  1.8718
  449MOL0     H60554   4.633  10.695   0.448  0.8447 -0.3556 -2.6067
  449MOL0     H60555   4.690  10.570   0.355 -0.7975 -2.6209 -0.4237
  449MOL0     H60556   4.529  10.402   0.426 -0.9239  0.1007  3.9648
  449MOL0     H60557   4.447  10.523   0.527 -2.1234 -1.0665  0.1423
  449MOL0     H60558   4.375  10.649   0.365 -0.4719  0.6703 -3.2399
  449MOL0     H60559   4.454  10.574   0.225 -1.2530  0.5005 -0.1903
  449MOL0     H60560   4.241  10.528   0.214 -0.2945  0.7249 -0.6152
  449MOL0     H60561   4.324  10.373   0.266  0.8607 -0.4164  1.7283
  449MOL0     H60562   4.214  10.410   0.499 -2.1702 -1.3681  0.3260
  449MOL0     H60563   4.169  10.569   0.456  3.3051 -0.0660  1.9912
  449MOL0     H60564   4.025  10.442   0.271  0.0219  0.3050  0.3577
  449MOL0     H60565   3.968  10.466   0.436  0.3819  0.9808 -1.0160
  449MOL0     H60566   4.008  10.219   0.591 -0.0378  1.8800 -0.0578
  449MOL0     H60567   3.936   9.852   0.459  4.9522  0.1428 -2.7486
  449MOL0     H60568   4.025   9.911   0.594 -1.2235 -1.7333 -0.4047
  449MOL0     H60569   3.841  10.072   0.654  2.7952  2.0344 -3.0493
  449MOL0     H60570   3.822   9.899   0.687 -2.8859  0.1938  0.1240
  449MOL0     H60571   3.612   9.944   0.596  1.2722  0.9719  0.3686
  449MOL0     H60572   3.711   9.860   0.462  0.0123 -1.0181 -0.0277
  449MOL0     H60573   3.552  10.045   0.397  0.6899 -0.0520 -0.5746
  449MOL0     H60574   3.718  10.075   0.346 -2.4671  1.6403 -0.5113
  449MOL0     H60575   3.761  10.286   0.259 -0.2215  1.8215 -2.1588
  449MOL0     H60576   3.772  10.392   0.061 -1.7202 -0.7259 -1.8517
  449MOL0     H60577   3.616  10.454   0.014 -2.5417 -4.8464  1.4877
  449MOL0     H60578   3.731  10.565   0.090 -0.5372  0.1335 -1.0189
  449MOL0     H60579   3.159  10.775   0.384  1.4458 -0.5960  0.8701
  449MOL0     H60580   3.003  10.946   0.321 -0.3753 -1.7695  0.6694
  449MOL0     H60581   2.853  11.056   0.200 -1.9774  1.2460  0.9475
  449MOL0     H60582   2.931  11.206   0.259  2.2646 -0.1927  0.4783
  449MOL0     H60583   2.915  11.257   0.001 -0.4925 -0.1854 -0.5646
  449MOL0     H60584   2.825  11.104  -0.021 -1.0751 -0.8512  1.1531
  449MOL0     H60585   2.710  11.345  -0.018 -0.0419  1.3989  0.6430
  449MOL0     H60586   2.710  11.330   0.150  3.1433  2.1272 -1.0549
  449MOL0     H60587   2.592  11.112  -0.024  3.2037  1.6082 -2.7861
  449MOL0     H60588   2.583  11.128   0.161 -2.1907 -0.2444 -0.8039
  449MOL0     H60589   2.383  11.215  -0.007 -0.4675 -1.3440  2.8221
  449MOL0     H60590   2.494  11.364  -0.025 -1.2165  1.8956 -0.8415
  449MOL0     H60591   2.389  11.249   0.221  0.2598 -0.1974 -1.5350
  449MOL0     H60592   2.507  11.388   0.210 -0.4791 -0.0808  2.2353
  449MOL0     H60593   2.217  11.374   0.145  1.6729 -3.6665  1.6923
  449MOL0     H60594   2.327  11.483   0.064  1.5079  0.4016  0.9989
  449MOL0     H60595   2.300  11.437   0.366  0.5301  2.1606  1.1096
  449MOL0     H60596   2.193  11.558   0.290 -0.2112  1.1391 -1.0253
  449MOL0     H60597   3.271  11.077   0.017 -1.4293  1.5877  0.1293
  449MOL0     H60598   3.429  10.915   0.064 -1.4415 -0.6263 -1.8955
  449MOL0     H60599   3.388  10.549   0.436 -0.7195  1.9520 -2.6512
  449MOL0     H60600   3.471  10.351   0.571 -1.1393 -2.3279 -0.3520
  449MOL0     H60601   5.115  10.740   0.494 -1.9613 -0.8081  0.0859
  449MOL0     H60602   5.364  10.644   0.495  0.6521 -1.4634 -2.5717
  449MOL0     H60603   5.638  10.276   0.552  0.5411 -0.5177 -0.0529
  449MOL0     H60604   5.827  10.149   0.540  3.6008  1.1700 -1.9942
  449MOL0     H60605   5.789   9.863   0.362 -1.1896 -0.8597 -1.5895
  449MOL0     H60606   5.843   9.878   0.195 -0.6122  0.5575  1.1522
  449MOL0     H60607   5.950   9.692   0.367 -1.7813 -0.0256 -2.4372
  449MOL0     H60608   6.040   9.823   0.439  0.9197  0.0919 -0.4788
  449MOL0     H60609   6.155   9.880   0.221  1.5477 -1.3188  3.3356
  449MOL0     H60610   6.072   9.749   0.148 -0.8779  1.3630 -0.2907
  449MOL0     H60611   6.159   9.592   0.330  0.9589 -0.3024  0.3501
  449MOL0     H60612   6.265   9.705   0.390 -2.5109  1.7233  0.2616
  449MOL0     H60613   6.461   9.628   0.027  0.2948  0.8300  0.6265
  449MOL0     H60614   5.729  10.054   0.121  0.4973  0.1272  0.2141
  449MOL0     H60615   5.530  10.205   0.148  0.9543 -1.1840  0.2048
  450MOL0     O60616   4.698   8.740   5.938  0.4009  0.6093 -0.3566
  450MOL0     C60617   4.750   8.849   5.937 -0.5163  0.7598  0.5036
  450MOL0     O60618   4.690   8.966   5.965 -0.0162 -0.2177  0.3028
  450MOL0     C60619   4.565   8.970   6.007  0.4479 -0.5046 -1.1152
  450MOL0     C60620   4.468   8.992   5.911  0.0244 -0.2418  0.1697
  450MOL0     C60621   4.336   8.987   5.950 -0.3790  0.2997  0.3132
  450MOL0     C60622   4.308   8.987   6.088  0.3268  0.4604 -0.3939
  450MOL0     O60623   4.174   8.996   6.122 -0.0916 -0.2889  0.8944
  450MOL0     C60624   4.137   9.121   6.191 -0.6957  0.5925 -0.3204
  450MOL0     C60625   4.012   9.080   6.270 -0.3808  0.3322 -2.0057
  450MOL0     C60626   3.889   9.149   6.238 -0.0946  0.4459 -0.1649
  450MOL0     C60627   3.879   9.279   6.306  0.1508 -0.8665 -0.8607
  450MOL0     C60628   3.748   9.353   6.263  0.2683 -0.2085  0.2085
  450MOL0     C60629   3.722   9.489   6.338 -0.0951  0.5572  0.0393
  450MOL0     C60630   3.639   9.470   6.472  0.2496  0.4929  0.0739
  450MOL0     C60631   3.618   9.600   6.535  0.9592 -0.3739  0.1353
  450MOL0     N60632   3.527   9.685   6.456  0.5572  0.7881 -0.8672
  450MOL0     C60633   3.566   9.784   6.369 -0.2745 -0.4007  0.9565
  450MOL0     C60634   3.454   9.843   6.322  0.2195 -0.3518 -0.2207
  450MOL0     C60635   3.450   9.944   6.211  0.1740 -0.1023  0.2062
  450MOL0     C60636   3.484  10.087   6.248 -1.0162 -0.4386  0.6823
  450MOL0     C60637   3.631  10.116   6.278 -0.3102 -0.6372  0.2110
  450MOL0     C60638   3.655  10.262   6.334 -0.3686 -1.0115  0.1781
  450MOL0     O60639   3.585  10.355   6.246 -0.6704  0.5119 -0.2728
  450MOL0     C60640   3.552  10.470   6.303  0.2438  0.3528  0.1867
  450MOL0     C60641   3.622  10.588   6.276 -0.2475 -1.1696  0.9844
  450MOL0     C60642   3.585  10.708   6.344 -0.9229 -0.4285  0.2491
  450MOL0     C60643   3.662  10.827   6.297 -0.1631  0.0289  0.4845
  450MOL0     C60644   3.485  10.712   6.438  0.0273 -0.0929 -0.1652
  450MOL0     C60645   3.417  10.826   6.503 -0.6282 -0.2283  0.4604
  450MOL0     O60646   3.281  10.833   6.520 -0.0003  0.6009  0.1775
  450MOL0     C60647   3.238  10.946   6.577 -0.0716  0.9246 -0.6001
  450MOL0     C60648   3.223  10.949   6.717 -0.2860  1.1489  1.1810
  450MOL0     C60649   3.186  11.059   6.791 -0.7515  0.2982 -0.1090
  450MOL0     C60650   3.146  11.173   6.722  0.3105  0.6362  0.1252
  450MOL0     O60651   3.084  11.284   6.770 -0.0945  0.1633  1.1545
  450MOL0     C60652   3.139  11.331   6.894 -0.2850 -0.9002  0.4027
  450MOL0     C60653   3.120  11.488   6.885 -0.6469  0.2336  0.1424
  450MOL0     C60654   2.980  11.536   6.851  0.5150 -1.2093  0.0757
  450MOL0     C60655   2.950  11.685   6.877 -1.2268  0.0926  0.4435
  450MOL0     C60656   2.809  11.709   6.856  0.5348 -0.1952  0.6683
  450MOL0     C60657   2.774  11.857   6.844  0.9375  0.8095 -0.1307
  450MOL0     C60658   2.845  11.940   6.731 -1.0056 -0.1309 -0.0198
  450MOL0     C60659   2.764  12.066   6.708  0.0136  0.4737 -0.7568
  450MOL0    Cl60660   2.884  12.177   6.616 -0.0402  0.3983  0.0894
  450MOL0     C60661   3.170  11.172   6.585  0.1918 -0.2866  0.8273
  450MOL0     C60662   3.211  11.061   6.515 -0.2408 -0.2648  0.4432
  450MOL0     O60663   3.498  10.913   6.543 -0.2093 -0.2268 -0.8114
  450MOL0     C60664   3.426  10.593   6.462  0.3476 -0.4419 -0.8279
  450MOL0     C60665   3.447  10.479   6.394 -0.8767  0.3306  0.3079
  450MOL0     N60666   3.345   9.778   6.387 -0.0484 -0.1080  0.0932
  450MOL0     N60667   3.388   9.681   6.462  0.9438 -0.0937  0.3808
  450MOL0     C60668   4.402   8.959   6.185 -0.3151 -0.3301  0.4320
  450MOL0     C60669   4.539   8.958   6.145  0.0930  0.1074 -0.0843
  450MOL0     C60670   4.895   8.855   5.925  0.1972 -0.2781  0.4289
  450MOL0     C60671   4.966   8.972   5.936  0.1587 -0.4777 -0.4251
  450MOL0     C60672   5.109   8.982   5.933  0.3850 -0.0579 -0.4490
  450MOL0     C60673   5.182   8.864   5.922 -0.8740  0.4368  0.1285
  450MOL0     O60674   5.315   8.868   5.951 -0.6422  0.8689  0.1460
  450MOL0     C60675   5.393   8.759   5.905  0.5170 -0.4859 -1.0444
  450MOL0     C60676   5.534   8.799   5.895 -0.5419 -0.0248 -0.2887
  450MOL0     C60677   5.571   8.933   5.825 -0.2345  0.0690  0.1563
  450MOL0     C60678   5.722   8.966   5.816  0.4897  0.2936 -0.5896
  450MOL0     C60679   5.787   8.903   5.697  0.5188 -0.0318 -0.3438
  450MOL0     C60680   5.838   8.851   5.598  0.1552  0.2858 -0.2901
  450MOL0     C60681   5.110   8.744   5.914  0.7459  0.3297 -0.1276
  450MOL0     C60682   4.972   8.737   5.920  0.3946 -0.4071 -0.0038
  450MOL0     H60683   4.492   8.983   5.805  0.5609 -2.3073  0.4368
  450MOL0     H60684   4.257   9.001   5.878 -2.1128 -4.6809  0.8463
  450MOL0     H60685   4.222   9.151   6.252 -0.1032 -0.0880 -0.7866
  450MOL0     H60686   4.105   9.196   6.117  1.2664  1.9567  0.1243
  450MOL0     H60687   4.000   8.972   6.261 -1.3828  0.1820  0.3380
  450MOL0     H60688   4.045   9.105   6.372 -1.3893  2.1949 -2.0907
  450MOL0     H60689   3.877   9.160   6.130  0.5928  0.4852 -0.2435
  450MOL0     H60690   3.810   9.077   6.260  0.6832 -1.0957 -2.0806
  450MOL0     H60691   3.873   9.279   6.415 -1.2695  1.3886 -0.8652
  450MOL0     H60692   3.950   9.354   6.269 -0.3670  0.3868  0.5813
  450MOL0     H60693   3.760   9.360   6.155  0.7264 -1.6109  0.1424
  450MOL0     H60694   3.653   9.302   6.282 -0.3735  1.6870  2.6536
  450MOL0     H60695   3.823   9.525   6.362  0.4905 -1.3554  0.6027
  450MOL0     H60696   3.672   9.564   6.275  0.3332  1.4789  0.7695
  450MOL0     H60697   3.545   9.419   6.447 -0.4044  0.7576  1.8196
  450MOL0     H60698   3.697   9.407   6.540  0.9166  0.1181 -0.8324
  450MOL0     H60699   3.713   9.649   6.557  1.3306 -1.7686  1.8227
  450MOL0     H60700   3.566   9.570   6.626 -0.9977 -0.2308 -0.8855
  450MOL0     H60701   3.665   9.788   6.325 -0.7755  0.7747 -0.1155
  450MOL0     H60702   3.527   9.910   6.142  0.0451  0.5314 -0.2591
  450MOL0     H60703   3.353   9.931   6.162 -1.0002  2.0392  1.7780
  450MOL0     H60704   3.421  10.129   6.326 -1.2096 -0.8823  0.7680
  450MOL0     H60705   3.468  10.141   6.154  2.3209 -1.3519 -0.5575
  450MOL0     H60706   3.686  10.109   6.183  2.6357  1.6455  1.5738
  450MOL0     H60707   3.681  10.060   6.357 -0.7149 -0.8596  0.3104
  450MOL0     H60708   3.759  10.295   6.344 -0.1589 -0.2175 -3.3177
  450MOL0     H60709   3.606  10.248   6.431 -1.7411 -2.3206 -0.6483
  450MOL0     H60710   3.702  10.598   6.204 -0.7990  3.2432  0.7450
  450MOL0     H60711   3.758  10.807   6.248  0.0059  0.9806  0.4173
  450MOL0     H60712   3.606  10.882   6.222  2.2339  1.1873 -0.5728
  450MOL0     H60713   3.685  10.895   6.380 -1.8395  1.0421  0.1672
  450MOL0     H60714   3.244  10.861   6.777 -1.3597  0.5916  0.7563
  450MOL0     H60715   3.162  11.052   6.897 -3.2004  1.6414 -0.5019
  450MOL0     H60716   3.081  11.294   6.979 -0.1674  0.3426  1.0562
  450MOL0     H60717   3.245  11.310   6.915 -0.4336 -0.8168  1.3043
  450MOL0     H60718   3.153  11.533   6.980  0.4888  2.0042 -1.0244
  450MOL0     H60719   3.192  11.531   6.814  1.9113 -2.4118  0.9291
  450MOL0     H60720   2.923  11.483   6.927 -0.8379  1.4909  1.0749
  450MOL0     H60721   2.956  11.504   6.749 -2.9313 -3.9691  1.5461
  450MOL0     H60722   2.978  11.698   6.982 -2.0904  3.0829  0.3983
  450MOL0     H60723   3.010  11.753   6.816 -1.4331  2.0132  2.2693
  450MOL0     H60724   2.768  11.684   6.955  1.1955  0.9209  1.2544
  450MOL0     H60725   2.764  11.670   6.764 -2.6178  1.4625  1.3413
  450MOL0     H60726   2.666  11.857   6.829  1.0715 -1.0257 -1.6195
  450MOL0     H60727   2.807  11.902   6.937  1.9933  1.0592 -0.6114
  450MOL0     H60728   2.847  11.886   6.636 -0.8532  0.2610 -0.2434
  450MOL0     H60729   2.947  11.953   6.769 -0.7113  2.8896 -1.5604
  450MOL0     H60730   2.722  12.112   6.799  0.3159  1.8931 -1.3061
  450MOL0     H60731   2.676  12.052   6.646 -0.4436 -1.5847  0.2564
  450MOL0     H60732   3.140  11.263   6.532 -1.1294  0.5123  2.8446
  450MOL0     H60733   3.223  11.051   6.408 -0.7725 -1.8286  0.5133
  450MOL0     H60734   3.349  10.590   6.538  0.3674  0.5129 -0.7565
  450MOL0     H60735   3.408  10.386   6.434 -0.4488  0.6137  1.4109
  450MOL0     H60736   4.377   8.943   6.289  2.3512  1.9236  1.5483
  450MOL0     H60737   4.619   8.936   6.214  0.9022  2.2724 -0.2590
  450MOL0     H60738   4.908   9.064   5.924  0.6585 -0.2695 -1.3341
  450MOL0     H60739   5.155   9.080   5.938  1.6350 -0.5593 -1.4293
  450MOL0     H60740   5.385   8.675   5.974 -1.9223 -1.3569 -2.2802
  450MOL0     H60741   5.358   8.725   5.807 -1.5771 -4.9230  0.9414
  450MOL0     H60742   5.579   8.719   5.836  0.5035  0.0199  0.4294
  450MOL0     H60743   5.594   8.793   5.986  4.0199  0.6642 -2.9539
  450MOL0     H60744   5.534   9.011   5.892  0.8815 -0.7438  1.7877
  450MOL0     H60745   5.529   8.934   5.724  0.5545 -0.0167 -0.1851
  450MOL0     H60746   5.771   8.940   5.911 -1.1844 -2.4741 -0.3633
  450MOL0     H60747   5.733   9.075   5.818  1.8570  0.1661  1.4223
  450MOL0     H60748   5.881   8.796   5.517  2.8595  1.6406  0.1341
  450MOL0     H60749   5.162   8.650   5.924 -1.5621 -0.8986  1.0643
  450MOL0     H60750   4.926   8.638   5.919  1.5842 -1.0301  1.6181
  451MOL0     O60751   8.304   1.124   9.723  0.1011 -0.1532  0.4364
  451MOL0     C60752   8.245   1.055   9.807 -0.0194 -0.9715  0.3737
  451MOL0     O60753   8.135   0.978   9.774 -0.5331 -0.1303  0.2855
  451MOL0     C60754   8.084   0.988   9.649 -0.0079 -0.3450 -1.1579
  451MOL0     C60755   8.022   0.870   9.608  0.7274  0.4048 -0.2455
  451MOL0     C60756   7.970   0.858   9.480  0.2501 -0.0739 -0.3230
  451MOL0     C60757   7.956   0.968   9.393 -0.4185 -0.3822 -1.0798
  451MOL0     O60758   7.900   0.964   9.262  0.4154 -0.0521  0.0707
  451MOL0     C60759   7.859   0.837   9.218  0.9688 -0.7567  0.4047
  451MOL0     C60760   7.795   0.827   9.078 -0.4733  0.1224 -0.2871
  451MOL0     C60761   7.682   0.938   9.055  0.6053  0.5949 -0.6812
  451MOL0     C60762   7.622   0.939   8.920  0.7730 -0.3812 -0.0861
  451MOL0     C60763   7.504   1.038   8.920  0.0246 -0.0871  1.2035
  451MOL0     C60764   7.417   1.037   8.790 -0.5250 -0.3852  0.2733
  451MOL0     C60765   7.406   1.174   8.720 -0.6535  0.9265  0.2305
  451MOL0     C60766   7.548   1.208   8.666  0.2607  0.7331  0.2664
  451MOL0     N60767   7.569   1.351   8.640  0.1324 -0.5308  0.0459
  451MOL0     C60768   7.470   1.444   8.608 -0.5894  0.2233  0.0183
  451MOL0     C60769   7.521   1.565   8.600 -0.3035 -0.3874 -0.3716
  451MOL0     C60770   7.441   1.686   8.554 -0.0338  0.0162  1.1442
  451MOL0     C60771   7.358   1.658   8.428  0.2738  0.6626  0.1940
  451MOL0     C60772   7.272   1.777   8.389 -0.3643 -0.9457 -1.2524
  451MOL0     C60773   7.165   1.754   8.277  0.2545 -0.3154 -0.1293
  451MOL0     O60774   7.222   1.733   8.155 -0.1516  0.1711  0.1963
  451MOL0     C60775   7.156   1.659   8.050 -0.8244 -0.3626 -0.1869
  451MOL0     C60776   7.218   1.664   7.933  0.7378 -0.5603  0.6832
  451MOL0     C60777   7.158   1.605   7.818  0.5921  0.3751 -0.6177
  451MOL0     C60778   7.234   1.601   7.687  0.3586  0.2472  1.1561
  451MOL0     C60779   7.031   1.550   7.826  0.3356 -0.5339 -0.1205
  451MOL0     C60780   6.951   1.492   7.718  0.2565  0.3062 -0.9098
  451MOL0     O60781   6.871   1.576   7.655  0.1968  0.1763 -0.3418
  451MOL0     C60782   6.744   1.546   7.604 -0.2580  0.2902  0.4335
  451MOL0     C60783   6.682   1.640   7.526  0.5836 -1.3403 -0.4557
  451MOL0     C60784   6.544   1.633   7.492 -0.6996  0.8721 -0.4309
  451MOL0     C60785   6.470   1.514   7.527  0.1276 -0.0685  0.1012
  451MOL0     O60786   6.339   1.497   7.493 -0.0401 -0.1005  0.5089
  451MOL0     C60787   6.293   1.572   7.383 -0.0620 -0.2057  0.3835
  451MOL0     C60788   6.179   1.498   7.314  0.9135  0.3470  0.0429
  451MOL0     C60789   6.236   1.360   7.262  0.2668  0.2669  1.3058
  451MOL0     C60790   6.318   1.380   7.132 -0.4564  0.7568 -0.4409
  451MOL0     C60791   6.342   1.264   7.048 -0.2518  0.9480 -0.1366
  451MOL0     C60792   6.403   1.288   6.911  0.0648  0.0913  0.2774
  451MOL0     C60793   6.388   1.180   6.808  0.3479 -0.6032  0.9601
  451MOL0     C60794   6.241   1.161   6.768  0.0968  0.2653 -0.6498
  451MOL0    Cl60795   6.236   1.068   6.617  0.7124 -0.3682  0.0476
  451MOL0     C60796   6.539   1.417   7.601 -0.3444 -0.7288  0.8097
  451MOL0     C60797   6.671   1.433   7.642 -0.4148 -0.0478  0.2444
  451MOL0     O60798   6.965   1.374   7.690 -0.7122 -0.6473  0.6008
  451MOL0     C60799   6.976   1.536   7.958  0.6198 -0.1312 -0.0046
  451MOL0     C60800   7.035   1.588   8.070 -0.2798 -0.3363  0.7260
  451MOL0     N60801   7.647   1.559   8.645 -0.7421 -0.3250 -0.1054
  451MOL0     N60802   7.678   1.429   8.655  0.4124  0.3703  0.2965
  451MOL0     C60803   8.006   1.089   9.442  0.0599 -0.2821 -1.6895
  451MOL0     C60804   8.066   1.101   9.568 -0.2373 -0.4581 -0.0363
  451MOL0     C60805   8.287   1.059   9.949  0.3348  0.1892  0.4362
  451MOL0     C60806   8.406   1.126   9.992  0.9277  0.1928 -0.2770
  451MOL0     C60807   8.466   1.108  10.116  0.0648 -0.0356  0.3631
  451MOL0     C60808   8.406   1.022  10.213 -1.6233  0.6900 -0.1177
  451MOL0     O60809   8.470   1.018  10.343 -0.1634  0.0373 -0.3973
  451MOL0     C60810   8.411   0.946  10.449  1.0697 -0.0343  0.0397
  451MOL0     C60811   8.502   0.898  10.558  0.4499  0.1361  0.5897
  451MOL0     C60812   8.613   0.809  10.509  0.5436 -0.1190 -0.0022
  451MOL0     C60813   8.691   0.730  10.614 -0.2928 -0.3421  0.0205
  451MOL0     C60814   8.772   0.823  10.689  0.0864  0.5113 -0.1193
  451MOL0     C60815   8.873   0.884  10.731 -0.1761  0.0385  0.3831
  451MOL0     C60816   8.291   0.954  10.174  0.3640 -0.2191  0.2247
  451MOL0     C60817   8.242   0.964  10.044  0.4924 -0.1499  0.4774
  451MOL0     H60818   8.020   0.784   9.674 -0.0531  1.4312  1.1182
  451MOL0     H60819   7.931   0.760   9.455  0.4117 -0.2491  0.0903
  451MOL0     H60820   7.946   0.770   9.221  1.1071 -0.5332  1.4510
  451MOL0     H60821   7.790   0.801   9.294 -0.5713  0.2339 -0.4633
  451MOL0     H60822   7.876   0.837   9.005  0.9300  3.3314  1.5088
  451MOL0     H60823   7.748   0.729   9.065 -3.8609  1.6074 -0.1797
  451MOL0     H60824   7.598   0.942   9.125  2.3304  0.6150  1.4838
  451MOL0     H60825   7.735   1.030   9.079 -0.6892  0.9615  0.9047
  451MOL0     H60826   7.692   0.958   8.838 -0.6859 -0.6034 -1.4507
  451MOL0     H60827   7.582   0.840   8.894  0.8368 -0.6451  0.8068
  451MOL0     H60828   7.442   1.027   9.010 -0.4112  0.7194  1.0096
  451MOL0     H60829   7.541   1.140   8.932 -0.2273  0.1802 -0.2008
  451MOL0     H60830   7.460   0.964   8.720  0.6446  0.7175 -0.1822
  451MOL0     H60831   7.313   1.018   8.819 -0.3811 -2.1038 -0.2230
  451MOL0     H60832   7.330   1.169   8.642 -0.5700 -0.5599  0.2074
  451MOL0     H60833   7.369   1.258   8.779  0.8382  1.7391  0.0671
  451MOL0     H60834   7.563   1.149   8.574 -0.0558 -0.0484  0.7070
  451MOL0     H60835   7.627   1.174   8.733  1.4700 -1.5690 -2.1180
  451MOL0     H60836   7.367   1.412   8.593 -0.3222 -1.1897  1.0397
  451MOL0     H60837   7.369   1.716   8.630 -1.9667  0.4679 -0.7590
  451MOL0     H60838   7.512   1.768   8.540 -1.3627  1.6546  3.4550
  451MOL0     H60839   7.286   1.579   8.453 -1.3774  2.1973  0.4474
  451MOL0     H60840   7.411   1.636   8.335  0.6987  0.3310  0.5035
  451MOL0     H60841   7.337   1.864   8.371  1.9714 -2.5408 -0.9727
  451MOL0     H60842   7.218   1.807   8.479  1.0375 -0.7987 -0.4367
  451MOL0     H60843   7.080   1.822   8.267 -0.8268 -1.3595  1.4812
  451MOL0     H60844   7.116   1.664   8.315 -0.7990  0.4361  0.3309
  451MOL0     H60845   7.312   1.715   7.916  1.0994 -1.6863 -0.9174
  451MOL0     H60846   7.342   1.619   7.699 -0.0293  3.9054  0.2787
  451MOL0     H60847   7.218   1.507   7.633 -0.5454  0.1939  1.4953
  451MOL0     H60848   7.192   1.683   7.628  0.1893 -0.1648  0.7019
  451MOL0     H60849   6.740   1.731   7.515 -0.7443 -0.2279  1.1284
  451MOL0     H60850   6.504   1.718   7.437  0.0064  1.2198 -0.4087
  451MOL0     H60851   6.251   1.667   7.419 -1.4869 -0.2774 -0.9726
  451MOL0     H60852   6.360   1.590   7.299 -1.3707  0.6057 -0.5309
  451MOL0     H60853   6.106   1.466   7.390  1.5721  2.3106  1.6079
  451MOL0     H60854   6.128   1.544   7.229  2.2559 -0.9484 -1.5270
  451MOL0     H60855   6.152   1.303   7.220 -1.4924  4.3712 -1.4563
  451MOL0     H60856   6.296   1.312   7.339  3.1441  1.5022 -0.0110
  451MOL0     H60857   6.274   1.462   7.074  1.5049  3.4442  1.6029
  451MOL0     H60858   6.417   1.422   7.153 -1.5316  2.9130  0.6177
  451MOL0     H60859   6.252   1.205   7.027  1.0750 -0.6510 -1.5783
  451MOL0     H60860   6.411   1.206   7.111 -0.9015  0.1681 -0.1281
  451MOL0     H60861   6.349   1.374   6.871 -2.6013 -1.0789  1.1504
  451MOL0     H60862   6.509   1.305   6.934  0.0389 -0.3073  0.7132
  451MOL0     H60863   6.423   1.088   6.855  0.4940 -1.3899 -0.6171
  451MOL0     H60864   6.456   1.207   6.727 -1.6945 -0.9268 -0.9409
  451MOL0     H60865   6.201   1.259   6.741  2.3859  0.5223 -3.6023
  451MOL0     H60866   6.183   1.119   6.851 -0.4163  1.7546 -0.2229
  451MOL0     H60867   6.479   1.329   7.621  1.6138 -2.9833 -2.3338
  451MOL0     H60868   6.718   1.368   7.716 -1.4894  0.2487  1.2284
  451MOL0     H60869   6.891   1.470   7.974  0.5853 -0.3072 -0.8315
  451MOL0     H60870   6.986   1.573   8.166 -1.8419 -0.5928 -0.0824
  451MOL0     H60871   8.010   1.173   9.374  3.0622  1.0817 -0.0241
  451MOL0     H60872   8.105   1.197   9.602 -0.9088 -0.5522  1.0304
  451MOL0     H60873   8.462   1.188   9.923 -0.5214  1.3839 -0.4307
  451MOL0     H60874   8.556   1.163  10.142 -1.0025  1.9590  0.0976
  451MOL0     H60875   8.326   1.000  10.491  1.6950  1.2177 -0.2732
  451MOL0     H60876   8.371   0.856  10.402 -1.1876  2.3513 -3.0155
  451MOL0     H60877   8.439   0.845  10.631  0.2863 -3.4781 -1.9135
  451MOL0     H60878   8.551   0.981  10.609 -1.8190  1.9652 -0.0128
  451MOL0     H60879   8.688   0.871  10.460  1.6915  1.5561  3.5086
  451MOL0     H60880   8.572   0.734  10.441  3.3841  0.6239 -2.7516
  451MOL0     H60881   8.767   0.663  10.572  0.2838 -0.0595  0.5938
  451MOL0     H60882   8.615   0.677  10.672 -0.6953 -0.6298 -0.7493
  451MOL0     H60883   8.956   0.945  10.763  2.2994 -1.1517 -3.1389
  451MOL0     H60884   8.228   0.899  10.243 -2.7118 -0.6528 -2.6932
  451MOL0     H60885   8.149   0.913  10.021 -0.7707  1.4305  1.8439
  452MOL0     O60886   6.063   4.112   7.046 -0.3438 -0.2415  0.7699
  452MOL0     C60887   6.008   4.175   7.133  0.0758  0.0006 -0.3849
  452MOL0     O60888   6.065   4.230   7.241 -0.3149 -0.1999 -0.1733
  452MOL0     C60889   6.199   4.212   7.263 -0.3674  0.3449 -0.6184
  452MOL0     C60890   6.243   4.126   7.369  0.7564  0.7695  0.0187
  452MOL0     C60891   6.379   4.123   7.391 -0.3391 -0.4341  0.0914
  452MOL0     C60892   6.476   4.193   7.316  0.2803  0.4417 -0.0121
  452MOL0     O60893   6.604   4.168   7.356  1.2192  0.5473 -0.2713
  452MOL0     C60894   6.700   4.142   7.257  0.0247  0.8444 -0.0522
  452MOL0     C60895   6.835   4.174   7.314 -0.2005 -1.1859  0.4389
  452MOL0     C60896   6.950   4.118   7.228  0.1990 -0.5215  0.5007
  452MOL0     C60897   7.086   4.122   7.294  0.1290  0.2728 -1.1106
  452MOL0     C60898   7.175   4.036   7.209 -0.6471  0.1430 -0.6432
  452MOL0     C60899   7.321   4.051   7.251  0.2272 -0.2660  0.0763
  452MOL0     C60900   7.411   3.996   7.141 -1.0345 -0.0507  0.5566
  452MOL0     C60901   7.421   3.839   7.164  0.5891  0.3515  0.2695
  452MOL0     N60902   7.484   3.764   7.055  0.3310 -0.2956 -0.2824
  452MOL0     C60903   7.432   3.755   6.929 -0.2627 -0.2682 -0.7748
  452MOL0     C60904   7.530   3.685   6.875 -0.2991 -0.6376 -0.8757
  452MOL0     C60905   7.524   3.650   6.724  0.1470 -0.4085  0.8953
  452MOL0     C60906   7.589   3.511   6.684 -0.7408 -0.8444 -0.4477
  452MOL0     C60907   7.729   3.478   6.738  0.1629 -0.4014 -0.0067
  452MOL0     C60908   7.833   3.564   6.673  0.4937  0.2354 -0.6273
  452MOL0     O60909   7.894   3.492   6.561  0.1390 -0.2125 -0.0288
  452MOL0     C60910   7.990   3.565   6.484  0.1819 -0.1985 -0.0392
  452MOL0     C60911   8.074   3.495   6.395  0.4087  0.4776 -0.0298
  452MOL0     C60912   8.188   3.546   6.335 -0.6225 -1.1560  0.1411
  452MOL0     C60913   8.263   3.445   6.241  0.6845 -0.1541 -0.7829
  452MOL0     C60914   8.211   3.692   6.342  0.3832  1.1418  0.5783
  452MOL0     C60915   8.313   3.771   6.267  0.1176  0.9351 -0.7877
  452MOL0     O60916   8.382   3.715   6.164 -0.4658  0.3235 -0.3731
  452MOL0     C60917   8.485   3.780   6.094 -0.5789 -0.6436 -0.8912
  452MOL0     C60918   8.566   3.876   6.150  0.5382 -0.5531 -0.3142
  452MOL0     C60919   8.667   3.928   6.071 -0.8993 -0.0999 -0.9891
  452MOL0     C60920   8.688   3.883   5.943  0.4125  0.2735  0.4598
  452MOL0     O60921   8.785   3.949   5.862  0.3879 -0.7972 -0.5532
  452MOL0     C60922   8.908   3.881   5.870  0.0500  0.1557  0.2446
  452MOL0     C60923   9.010   3.991   5.842  0.8776  0.3234  0.9881
  452MOL0     C60924   9.139   3.935   5.827  0.7091 -0.5547  0.3799
  452MOL0     C60925   9.240   4.056   5.828  0.5038 -0.7406  0.7391
  452MOL0     C60926   9.372   3.997   5.791 -0.4015  0.7002 -0.1067
  452MOL0     C60927   9.484   4.106   5.799 -0.0613  0.2447  0.3114
  452MOL0     C60928   9.636   4.064   5.806 -1.4778 -0.6361 -0.5035
  452MOL0     C60929   9.739   4.171   5.827 -0.2068 -0.5960  0.6204
  452MOL0    Cl60930   9.781   4.267   5.683 -0.2203  0.3726 -0.0992
  452MOL0     C60931   8.597   3.793   5.878  0.7979  1.0465 -0.1706
  452MOL0     C60932   8.495   3.738   5.962  0.3346 -0.4178  0.1056
  452MOL0     O60933   8.331   3.887   6.306 -0.2023  0.8993  0.9614
  452MOL0     C60934   8.125   3.756   6.430  0.2549  0.1217  0.0604
  452MOL0     C60935   8.023   3.692   6.506  0.0457 -0.8871 -0.5500
  452MOL0     N60936   7.645   3.678   6.951  0.5383 -0.0646  0.4245
  452MOL0     N60937   7.610   3.728   7.063 -1.2436 -0.3250 -0.0904
  452MOL0     C60938   6.431   4.275   7.210 -0.9546  0.6185 -0.3499
  452MOL0     C60939   6.297   4.283   7.185  0.4963 -0.3184  0.1188
  452MOL0     C60940   5.860   4.190   7.117  0.2880  0.2281 -0.7257
  452MOL0     C60941   5.783   4.280   7.196 -0.7085 -0.3709  0.2278
  452MOL0     C60942   5.641   4.293   7.172  0.4681  0.6994 -0.6476
  452MOL0     C60943   5.570   4.210   7.082  0.0728 -0.1457  0.9778
  452MOL0     O60944   5.436   4.225   7.067  0.8527 -0.8517  0.0629
  452MOL0     C60945   5.370   4.113   7.005 -0.0677 -0.0346 -1.2167
  452MOL0     C60946   5.217   4.105   7.030 -0.1499 -0.3257  0.2985
  452MOL0     C60947   5.158   4.259   7.022 -0.2111  0.7712 -0.6453
  452MOL0     C60948   5.009   4.252   7.035 -0.4899  0.1000  0.2112
  452MOL0     C60949   4.944   4.199   6.917  0.6611  0.3796 -0.0725
  452MOL0     C60950   4.877   4.155   6.830 -0.2132 -0.6859  0.8032
  452MOL0     C60951   5.648   4.112   7.013  0.8221 -0.0930  0.3179
  452MOL0     C60952   5.787   4.108   7.028 -0.1138  0.5519  0.9529
  452MOL0     H60953   6.175   4.054   7.412  0.6196  1.0479  0.2729
  452MOL0     H60954   6.423   4.052   7.461  1.8073  0.2425 -0.4789
  452MOL0     H60955   6.686   4.036   7.235 -1.7541  0.4181  2.7374
  452MOL0     H60956   6.678   4.199   7.166  1.5075 -0.4491 -1.2826
  452MOL0     H60957   6.843   4.283   7.328  2.2017 -0.7401 -3.0994
  452MOL0     H60958   6.855   4.135   7.415  0.5925  1.2625  1.3096
  452MOL0     H60959   6.928   4.016   7.196 -1.9087  0.1449 -0.3095
  452MOL0     H60960   6.957   4.181   7.140  0.4723 -1.4700 -0.1715
  452MOL0     H60961   7.126   4.224   7.303 -0.7339  0.6376 -1.3677
  452MOL0     H60962   7.073   4.082   7.395 -0.9231  0.6569 -1.0811
  452MOL0     H60963   7.147   3.930   7.204 -0.6318 -0.2512  3.9858
  452MOL0     H60964   7.160   4.077   7.108 -1.9969  0.4574 -0.3424
  452MOL0     H60965   7.348   4.154   7.279 -0.8161 -0.5284  2.2937
  452MOL0     H60966   7.351   3.996   7.341 -2.3526  0.9318  1.7981
  452MOL0     H60967   7.375   4.024   7.042 -3.1926 -0.2605  1.2341
  452MOL0     H60968   7.514   4.031   7.158 -1.4265  0.8398  1.1868
  452MOL0     H60969   7.328   3.785   7.184 -0.5544  1.7545 -0.9952
  452MOL0     H60970   7.493   3.817   7.243 -0.6458 -2.3366  0.7406
  452MOL0     H60971   7.334   3.780   6.888 -0.6657  0.2410  0.4671
  452MOL0     H60972   7.419   3.648   6.693 -0.1038  0.4528  1.6212
  452MOL0     H60973   7.566   3.740   6.680 -1.6450  1.4447  2.7305
  452MOL0     H60974   7.598   3.515   6.575 -2.2629  0.0823 -0.5678
  452MOL0     H60975   7.517   3.434   6.714 -3.0248  2.3572  3.1011
  452MOL0     H60976   7.748   3.373   6.715 -0.3090 -0.1498 -1.6696
  452MOL0     H60977   7.734   3.484   6.847 -1.0540  0.7666  0.0064
  452MOL0     H60978   7.913   3.587   6.743 -0.1583 -0.5572  0.4001
  452MOL0     H60979   7.787   3.658   6.643 -2.5609 -0.5278  1.2240
  452MOL0     H60980   8.046   3.391   6.404 -3.4956  1.5210  2.0004
  452MOL0     H60981   8.199   3.423   6.155  0.3822  1.6551 -1.0650
  452MOL0     H60982   8.360   3.474   6.198  2.5377 -1.2782  2.2989
  452MOL0     H60983   8.281   3.352   6.295  1.9731 -0.4545 -1.6487
  452MOL0     H60984   8.555   3.906   6.254 -0.8024  0.6061 -0.7540
  452MOL0     H60985   8.738   3.996   6.118 -2.2837  0.8123 -0.1378
  452MOL0     H60986   8.915   3.819   5.960  0.0347 -2.1868 -1.2918
  452MOL0     H60987   8.914   3.796   5.802  3.6245  0.5010 -0.0395
  452MOL0     H60988   8.983   4.042   5.748 -1.8705 -1.6455  0.5666
  452MOL0     H60989   9.008   4.048   5.935 -2.3112 -3.0020  3.2570
  452MOL0     H60990   9.139   3.886   5.729 -2.7586 -1.9021  0.9040
  452MOL0     H60991   9.166   3.854   5.895 -0.8428 -2.2096 -0.8796
  452MOL0     H60992   9.206   4.128   5.752 -1.1109 -0.5580  1.5870
  452MOL0     H60993   9.251   4.101   5.927  2.7483 -0.6750  0.4994
  452MOL0     H60994   9.373   3.953   5.692  1.9710  2.3219 -0.9030
  452MOL0     H60995   9.407   3.918   5.859  1.2204  1.4422 -0.0339
  452MOL0     H60996   9.479   4.153   5.701 -0.8736 -2.5365 -1.0779
  452MOL0     H60997   9.453   4.172   5.881 -1.1162  1.5861 -1.1187
  452MOL0     H60998   9.654   4.015   5.710  1.0309  1.5063 -1.2740
  452MOL0     H60999   9.661   3.992   5.884  3.6770  0.2058 -1.0348
  452MOL0     H61000   9.828   4.128   5.873  1.2163 -1.6365 -2.7906
  452MOL0     H61001   9.699   4.237   5.905  0.9572 -1.6975  2.2105
  452MOL0     H61002   8.598   3.767   5.772 -0.9108 -1.4197  0.3441
  452MOL0     H61003   8.429   3.671   5.909 -1.8122 -0.4671  2.6130
  452MOL0     H61004   8.145   3.860   6.451  0.9642  0.3327 -1.4531
  452MOL0     H61005   7.967   3.760   6.569  1.3629  0.2608 -0.5797
  452MOL0     H61006   6.495   4.344   7.157 -1.1399  0.7362 -0.4221
  452MOL0     H61007   6.245   4.344   7.112 -0.4224  0.8191  1.6690
  452MOL0     H61008   5.837   4.346   7.263  1.0778 -1.0696 -0.4601
  452MOL0     H61009   5.579   4.368   7.222  1.1339  0.6416  0.2910
  452MOL0     H61010   5.388   4.102   6.897  1.1905 -0.3538 -0.9925
  452MOL0     H61011   5.416   4.023   7.045 -2.5226 -0.7826  0.1399
  452MOL0     H61012   5.212   4.061   7.130 -0.6762  0.8540  0.8092
  452MOL0     H61013   5.167   4.032   6.965 -2.6354  1.1827  0.3849
  452MOL0     H61014   5.188   4.312   6.931  3.6683  0.0110  0.0035
  452MOL0     H61015   5.206   4.316   7.103  1.0773  0.1904 -0.9793
  452MOL0     H61016   4.976   4.354   7.053  0.4817 -0.0230  3.3489
  452MOL0     H61017   4.984   4.186   7.119 -2.2831  0.7787  0.2490
  452MOL0     H61018   4.805   4.122   6.758  0.1788  0.7382 -0.2841
  452MOL0     H61019   5.604   4.047   6.937 -0.3835 -0.2892  1.1517
  452MOL0     H61020   5.824   4.027   6.966 -1.1071  0.7508  0.0697
  453MOL0     O61021   9.225   5.747   4.904  0.2401  0.3839 -0.3406
  453MOL0     C61022   9.161   5.648   4.936  0.0528  0.9707 -0.7125
  453MOL0     O61023   9.168   5.517   4.883  0.2303 -0.1480  0.3066
  453MOL0     C61024   9.260   5.479   4.790 -0.3424 -0.2008 -0.9718
  453MOL0     C61025   9.303   5.552   4.677 -0.5900 -0.4466 -0.3478
  453MOL0     C61026   9.379   5.498   4.580 -1.2568  0.4341  0.4088
  453MOL0     C61027   9.424   5.369   4.586 -0.8514 -0.4067  0.2195
  453MOL0     O61028   9.502   5.315   4.491 -0.0603  0.7421 -0.5131
  453MOL0     C61029   9.621   5.261   4.547 -0.2669 -0.5471  1.5903
  453MOL0     C61030   9.729   5.245   4.442  1.0446 -0.1254  0.0312
  453MOL0     C61031   9.761   5.376   4.367 -0.0065  0.2064 -0.9527
  453MOL0     C61032   9.769   5.367   4.217  0.3132  0.1470  0.3933
  453MOL0     C61033   9.888   5.288   4.167  0.2875  0.6854 -0.8019
  453MOL0     C61034  10.022   5.352   4.190  0.8037  0.6989 -0.6536
  453MOL0     C61035  10.127   5.319   4.078  0.5795 -0.7661  0.0794
  453MOL0     C61036  10.153   5.165   4.074  0.2214  0.3792 -0.4925
  453MOL0     N61037  10.231   5.120   4.187 -0.2227  0.0793 -0.4582
  453MOL0     C61038  10.357   5.158   4.225  0.3162  0.4382  0.2647
  453MOL0     C61039  10.381   5.087   4.341 -1.1382  0.0256  0.3189
  453MOL0     C61040  10.501   5.096   4.423  0.1729  0.6704 -0.0750
  453MOL0     C61041  10.619   5.008   4.381  0.8317  0.8687 -0.1154
  453MOL0     C61042  10.734   5.014   4.481 -0.2217  0.6161  0.0774
  453MOL0     C61043  10.859   4.934   4.438 -0.5167  0.3496  0.3439
  453MOL0     O61044  10.929   4.893   4.554  0.9070  0.4285  0.5036
  453MOL0     C61045  11.036   4.804   4.548  0.5980 -0.2238 -0.3736
  453MOL0     C61046  11.113   4.774   4.442  0.1603  0.7234  0.0436
  453MOL0     C61047  11.210   4.665   4.451 -0.0246 -0.5055  1.2509
  453MOL0     C61048  11.286   4.620   4.317 -0.3279 -0.3370 -0.6276
  453MOL0     C61049  11.242   4.620   4.576 -0.4725  0.6263 -0.8008
  453MOL0     C61050  11.345   4.514   4.608 -0.6491  0.1288 -1.3654
  453MOL0     O61051  11.390   4.492   4.737  0.0019  0.4935 -0.1473
  453MOL0     C61052  11.486   4.399   4.755 -0.4569 -0.8274  0.2159
  453MOL0     C61053  11.573   4.422   4.869  1.1432  0.1687  0.2210
  453MOL0     C61054  11.662   4.326   4.909  0.0433  0.5761 -0.4879
  453MOL0     C61055  11.689   4.209   4.823  0.1931 -0.4715 -0.1937
  453MOL0     O61056  11.788   4.122   4.843  0.1578 -0.3163 -0.5386
  453MOL0     C61057  11.913   4.168   4.880 -0.3065  0.4606 -1.3323
  453MOL0     C61058  12.012   4.058   4.868 -0.2976 -0.7074  0.6468
  453MOL0     C61059  12.160   4.112   4.895 -0.4322 -0.3424 -1.0558
  453MOL0     C61060  12.266   3.995   4.886  0.1080 -0.2692  0.7631
  453MOL0     C61061  12.394   4.051   4.953  0.4158 -0.1422  0.3716
  453MOL0     C61062  12.483   3.933   4.988 -0.7298 -0.4016  0.5216
  453MOL0     C61063  12.528   3.835   4.870 -0.0971  0.0099 -1.5874
  453MOL0     C61064  12.587   3.911   4.754 -0.3756 -0.5198  0.3659
  453MOL0    Cl61065  12.697   4.043   4.814 -0.2391 -0.0917  0.4122
  453MOL0     C61066  11.594   4.185   4.718 -1.1588 -1.1027  1.0346
  453MOL0     C61067  11.499   4.277   4.686 -0.9840 -0.3593  0.2451
  453MOL0     O61068  11.372   4.443   4.511  0.5336  0.0353  0.5288
  453MOL0     C61069  11.173   4.666   4.685 -0.5874  0.2603 -0.2755
  453MOL0     C61070  11.068   4.752   4.668  0.3229  0.4964 -0.2068
  453MOL0     N61071  10.273   5.016   4.373 -0.1103 -0.0060 -0.0623
  453MOL0     N61072  10.181   5.044   4.288 -0.8830  0.3150  0.1207
  453MOL0     C61073   9.384   5.293   4.691 -0.5911  1.5061 -0.2307
  453MOL0     C61074   9.296   5.339   4.791 -0.0953 -0.3737  0.2618
  453MOL0     C61075   9.070   5.673   5.050 -0.4535 -0.7219 -0.1297
  453MOL0     C61076   9.062   5.799   5.120 -0.7326 -0.1271 -0.3535
  453MOL0     C61077   8.992   5.811   5.236 -0.5495  0.0334 -0.7612
  453MOL0     C61078   8.926   5.710   5.292 -0.4497  0.4390 -0.6592
  453MOL0     O61079   8.856   5.737   5.403 -0.0145 -0.6016 -0.2965
  453MOL0     C61080   8.720   5.684   5.413 -0.4301  0.5643  0.4493
  453MOL0     C61081   8.625   5.776   5.496 -0.5065  0.2453 -0.3633
  453MOL0     C61082   8.478   5.714   5.500 -0.1319 -0.3615  0.3558
  453MOL0     C61083   8.436   5.665   5.630 -0.2525  0.3501 -0.4244
  453MOL0     C61084   8.415   5.762   5.740  0.1094 -1.0870  0.5538
  453MOL0     C61085   8.395   5.850   5.821  0.7189  0.0397  0.7629
  453MOL0     C61086   8.919   5.589   5.227  0.5139  0.1568  0.5401
  453MOL0     C61087   9.005   5.570   5.114  0.4055 -0.7136 -0.4848
  453MOL0     H61088   9.273   5.655   4.660 -1.4584 -0.8386 -1.3314
  453MOL0     H61089   9.410   5.554   4.492  0.5201 -0.5055  0.3923
  453MOL0     H61090   9.657   5.339   4.615 -0.6598 -0.5606  1.8176
  453MOL0     H61091   9.601   5.165   4.597 -2.5268 -0.6866  0.5232
  453MOL0     H61092   9.820   5.209   4.491  1.3050 -0.4651 -0.6971
  453MOL0     H61093   9.690   5.163   4.380 -1.0137  0.2994  0.6635
  453MOL0     H61094   9.686   5.450   4.396  0.9471  2.0301 -2.8682
  453MOL0     H61095   9.849   5.420   4.414 -1.1927 -0.7506  2.4490
  453MOL0     H61096   9.677   5.315   4.188  0.1913 -0.3858  1.6770
  453MOL0     H61097   9.777   5.468   4.176  3.6041 -0.7141 -1.3942
  453MOL0     H61098   9.886   5.186   4.206 -1.6857  0.2769 -1.8458
  453MOL0     H61099   9.881   5.285   4.058 -0.1807 -0.8740 -0.7489
  453MOL0     H61100  10.022   5.461   4.194 -0.8920  0.7066  0.2801
  453MOL0     H61101  10.060   5.315   4.286 -0.1229 -1.4487 -1.0521
  453MOL0     H61102  10.083   5.348   3.982 -0.0564 -2.2514 -0.0923
  453MOL0     H61103  10.217   5.381   4.086  0.8921 -1.2344  0.1851
  453MOL0     H61104  10.203   5.150   3.978  2.0783  1.0339  0.3184
  453MOL0     H61105  10.056   5.116   4.084  0.5821 -0.2236  0.2021
  453MOL0     H61106  10.429   5.222   4.174  0.4695 -0.7862 -1.1294
  453MOL0     H61107  10.526   5.203   4.422  2.9041  0.1963 -3.2628
  453MOL0     H61108  10.474   5.063   4.523  0.5376 -1.8059 -0.7292
  453MOL0     H61109  10.656   5.028   4.279  0.9054 -2.4767 -0.8592
  453MOL0     H61110  10.579   4.906   4.377  3.1932 -0.1650  0.6034
  453MOL0     H61111  10.709   4.968   4.577  0.3095  1.1130  0.4595
  453MOL0     H61112  10.757   5.120   4.496 -1.5265  0.7087  1.6514
  453MOL0     H61113  10.930   4.990   4.376  0.2509  0.3690  1.2202
  453MOL0     H61114  10.824   4.857   4.369 -0.0548  2.7668 -2.8045
  453MOL0     H61115  11.099   4.823   4.346  2.7754 -0.3650 -0.9914
  453MOL0     H61116  11.270   4.705   4.251 -2.4832  0.4779  0.8196
  453MOL0     H61117  11.393   4.609   4.337 -0.3630  0.6975  0.2124
  453MOL0     H61118  11.248   4.525   4.278  1.8703 -2.0360  1.0839
  453MOL0     H61119  11.579   4.519   4.917  5.2118  0.7347 -1.0653
  453MOL0     H61120  11.719   4.339   5.000 -0.7398 -2.3346  0.5300
  453MOL0     H61121  11.941   4.259   4.826 -1.7495  1.6991 -0.0877
  453MOL0     H61122  11.908   4.198   4.985  4.5748 -0.8901 -0.4215
  453MOL0     H61123  11.994   3.969   4.929  3.6050 -2.0269  0.1529
  453MOL0     H61124  12.017   4.013   4.768  1.6073 -0.2083  0.4839
  453MOL0     H61125  12.162   4.152   4.996  3.1532 -2.7620  0.0422
  453MOL0     H61126  12.175   4.190   4.820 -2.2145  0.7699 -0.3046
  453MOL0     H61127  12.228   3.909   4.941 -2.4112 -0.2475 -0.7975
  453MOL0     H61128  12.278   3.950   4.786  0.5059 -2.9182  1.9144
  453MOL0     H61129  12.361   4.113   5.037 -4.2547  3.1184 -3.3823
  453MOL0     H61130  12.443   4.121   4.885 -1.1042 -0.4653 -1.1062
  453MOL0     H61131  12.575   3.977   5.028  0.3292  0.5201 -2.6371
  453MOL0     H61132  12.441   3.878   5.073  0.9597 -0.6582  1.2520
  453MOL0     H61133  12.436   3.783   4.844 -0.3670 -1.4207  1.7013
  453MOL0     H61134  12.602   3.763   4.906  0.7468  2.1107  1.2596
  453MOL0     H61135  12.501   3.952   4.700 -3.0396 -0.5906  4.1367
  453MOL0     H61136  12.639   3.842   4.686 -0.9665 -0.0504 -0.5928
  453MOL0     H61137  11.588   4.091   4.664 -2.7904 -0.4849  0.0644
  453MOL0     H61138  11.433   4.247   4.606  0.8074 -0.0900 -1.4095
  453MOL0     H61139  11.200   4.640   4.787  0.3856  0.2364 -0.5322
  453MOL0     H61140  11.015   4.787   4.756  1.1385  0.4834  0.3022
  453MOL0     H61141   9.417   5.190   4.690  1.7663  2.1534  1.9896
  453MOL0     H61142   9.253   5.277   4.868 -0.0085 -0.6224  0.1102
  453MOL0     H61143   9.100   5.894   5.083 -0.5755 -0.3297 -0.7129
  453MOL0     H61144   8.988   5.910   5.282 -2.3599  0.2176 -1.2298
  453MOL0     H61145   8.668   5.678   5.317 -2.1711  4.4834  0.9556
  453MOL0     H61146   8.726   5.583   5.456 -0.9955 -0.0341 -0.8136
  453MOL0     H61147   8.635   5.874   5.448  0.3377 -0.0414 -0.7882
  453MOL0     H61148   8.664   5.777   5.598  0.6700 -0.9275 -0.7783
  453MOL0     H61149   8.468   5.637   5.423 -2.1060  1.2234 -1.0568
  453MOL0     H61150   8.409   5.793   5.469 -1.4614 -1.8667 -0.6601
  453MOL0     H61151   8.494   5.576   5.657 -1.4708 -0.2679  0.2718
  453MOL0     H61152   8.338   5.620   5.613 -0.0258  0.5849 -2.5144
  453MOL0     H61153   8.375   5.924   5.895 -4.3496 -1.2968  1.1212
  453MOL0     H61154   8.847   5.513   5.258  0.6027  0.2797  1.0451
  453MOL0     H61155   9.010   5.478   5.056  1.9290  0.2234 -1.9588
  454MOL0     O61156   1.122   5.354   6.456  0.0485  0.0142 -0.1932
  454MOL0     C61157   1.168   5.462   6.445  0.0359 -0.1045 -0.1058
  454MOL0     O61158   1.178   5.538   6.325  0.1953  0.7059 -0.3420
  454MOL0     C61159   1.141   5.478   6.204  0.2898 -0.7671  0.8851
  454MOL0     C61160   1.225   5.440   6.096 -0.1764 -0.6350  0.1940
  454MOL0     C61161   1.166   5.381   5.978  0.1424 -0.0808  0.2369
  454MOL0     C61162   1.024   5.370   5.971  1.3677 -0.1735  0.5493
  454MOL0     O61163   0.950   5.322   5.863 -0.2343 -0.0697  0.6919
  454MOL0     C61164   1.002   5.337   5.734 -1.0217 -0.5303  0.5925
  454MOL0     C61165   0.972   5.478   5.687  0.5203 -0.5982 -0.6396
  454MOL0     C61166   1.047   5.508   5.562  0.0061  0.5564 -0.0798
  454MOL0     C61167   0.988   5.618   5.482 -1.2312  0.2265 -0.4902
  454MOL0     C61168   1.003   5.756   5.561 -1.1115 -1.2147 -0.7474
  454MOL0     C61169   1.133   5.785   5.638  0.5525  0.3001  0.5220
  454MOL0     C61170   1.256   5.781   5.533 -0.1925  0.0504 -0.6247
  454MOL0     C61171   1.284   5.919   5.467 -0.0982  0.1699  0.0951
  454MOL0     N61172   1.307   6.027   5.569 -0.5131  0.4171 -0.8013
  454MOL0     C61173   1.203   6.109   5.622  0.3957  0.5049  0.7900
  454MOL0     C61174   1.262   6.202   5.703  0.1393  0.7123 -0.0758
  454MOL0     C61175   1.203   6.313   5.787  0.3825 -0.3076  0.0146
  454MOL0     C61176   1.052   6.294   5.809  0.5283 -0.5588 -0.2945
  454MOL0     C61177   1.030   6.179   5.913 -0.2596  0.2671  0.0308
  454MOL0     C61178   0.877   6.161   5.937 -0.1623  0.1327 -0.5890
  454MOL0     O61179   0.819   6.091   5.819 -0.0436  0.6055  0.1125
  454MOL0     C61180   0.696   6.038   5.845  0.3522  0.6253  1.0131
  454MOL0     C61181   0.673   5.904   5.828 -0.2304  0.9587 -0.5207
  454MOL0     C61182   0.552   5.857   5.865  0.5033 -0.7470 -1.5374
  454MOL0     C61183   0.547   5.703   5.875  0.8501 -0.0417 -0.3693
  454MOL0     C61184   0.447   5.937   5.904  0.4538 -0.0263 -0.1566
  454MOL0     C61185   0.307   5.899   5.946 -0.7921  0.4316  0.8076
  454MOL0     O61186   0.205   5.986   5.950  0.2853 -0.4770  0.2329
  454MOL0     C61187   0.090   5.939   5.997  0.5391 -0.7674 -0.4286
  454MOL0     C61188   0.088   5.880   6.121 -0.0001  0.4369 -0.0660
  454MOL0     C61189  -0.030   5.819   6.171 -0.2943  0.4009 -0.4124
  454MOL0     C61190  -0.155   5.821   6.099  0.1234  0.1645  1.0278
  454MOL0     O61191  -0.257   5.746   6.159  0.1466  0.2312  0.1209
  454MOL0     C61192  -0.381   5.762   6.088 -0.3498 -0.2943  0.2288
  454MOL0     C61193  -0.487   5.686   6.155  0.1611 -0.6503  0.7753
  454MOL0     C61194  -0.614   5.711   6.077  0.2006  0.2637 -0.5727
  454MOL0     C61195  -0.719   5.617   6.127 -0.3445  0.5366 -0.1381
  454MOL0     C61196  -0.856   5.654   6.081  0.5787 -0.4442  1.1825
  454MOL0     C61197  -0.956   5.541   6.101  0.0594 -0.0175 -1.0152
  454MOL0     C61198  -1.094   5.604   6.135  0.8071 -0.1582  0.6213
  454MOL0     C61199  -1.201   5.509   6.168  0.2439  0.8262 -0.5301
  454MOL0    Cl61200  -1.229   5.416   6.013  0.0045 -0.0584 -0.3010
  454MOL0     C61201  -0.154   5.886   5.974  0.0860  0.0841  0.6455
  454MOL0     C61202  -0.032   5.938   5.921 -0.8961 -0.0063 -0.0810
  454MOL0     O61203   0.296   5.781   5.964  0.5816  0.4243  0.5021
  454MOL0     C61204   0.466   6.075   5.905  0.4697  0.4174 -0.6539
  454MOL0     C61205   0.594   6.125   5.880 -0.5005 -0.3627  0.5023
  454MOL0     N61206   1.404   6.178   5.696  0.1567 -0.1874  1.2217
  454MOL0     N61207   1.431   6.075   5.612  1.6050  0.3997 -0.0022
  454MOL0     C61208   0.944   5.426   6.080 -0.9089 -0.2688 -0.6693
  454MOL0     C61209   1.002   5.479   6.194 -0.2887 -0.5983 -0.2791
  454MOL0     C61210   1.198   5.537   6.570 -0.4852  0.6501 -0.3334
  454MOL0     C61211   1.199   5.474   6.696 -0.3378  0.0465  0.2342
  454MOL0     C61212   1.249   5.546   6.813  0.3810 -0.8956 -0.6696
  454MOL0     C61213   1.267   5.687   6.803 -0.9967  0.6283  0.7156
  454MOL0     O61214   1.296   5.751   6.929  0.4988  0.2109  0.2693
  454MOL0     C61215   1.338   5.890   6.934  0.7432  0.7576  0.0109
  454MOL0     C61216   1.387   5.938   7.071 -0.5246 -1.1109 -0.3447
  454MOL0     C61217   1.261   5.949   7.172 -1.3709 -0.0038  0.1673
  454MOL0     C61218   1.187   6.078   7.161 -0.1152 -0.8041 -0.7240
  454MOL0     C61219   1.259   6.182   7.236 -1.0473 -0.6759 -0.2133
  454MOL0     C61220   1.320   6.265   7.304 -1.2953  0.0809  0.2155
  454MOL0     C61221   1.269   5.742   6.672 -0.0277 -0.3450  0.7218
  454MOL0     C61222   1.234   5.665   6.563 -1.0055  0.8706 -0.0996
  454MOL0     H61223   1.333   5.442   6.106 -0.2006 -0.1562  0.3605
  454MOL0     H61224   1.224   5.344   5.894 -0.3768  0.6644 -0.4695
  454MOL0     H61225   1.111   5.332   5.731 -0.6877  3.3685 -0.8837
  454MOL0     H61226   0.959   5.269   5.660  1.9362  0.1225 -1.9309
  454MOL0     H61227   0.863   5.486   5.676  0.2138  2.1357  2.7546
  454MOL0     H61228   0.991   5.554   5.763  0.3378  0.3981 -1.5642
  454MOL0     H61229   1.153   5.523   5.583  0.0787 -0.5599  0.4047
  454MOL0     H61230   1.044   5.417   5.500  2.1910 -0.3217  0.9836
  454MOL0     H61231   1.043   5.628   5.388  0.2087  3.1570  0.5318
  454MOL0     H61232   0.882   5.603   5.461 -1.3376  2.2059 -1.5683
  454MOL0     H61233   0.997   5.839   5.490 -0.2926 -1.6378 -1.3406
  454MOL0     H61234   0.926   5.768   5.637 -0.4802 -0.0634 -0.2697
  454MOL0     H61235   1.128   5.885   5.682 -0.1068 -0.0275  1.2025
  454MOL0     H61236   1.148   5.707   5.712  1.0425 -0.8931 -0.7855
  454MOL0     H61237   1.346   5.743   5.582  0.2699 -0.0731 -1.5509
  454MOL0     H61238   1.243   5.703   5.458  3.5649 -1.7673  0.3473
  454MOL0     H61239   1.197   5.942   5.406 -1.1161 -3.4752 -0.0471
  454MOL0     H61240   1.376   5.906   5.409  0.0167  4.4501 -0.9985
  454MOL0     H61241   1.097   6.115   5.601  0.8328 -2.4816 -3.4214
  454MOL0     H61242   1.254   6.308   5.883 -4.2328  1.4586  2.8759
  454MOL0     H61243   1.213   6.414   5.745 -0.6557 -0.5387 -0.8600
  454MOL0     H61244   1.011   6.274   5.710  3.3495  0.9700 -1.9018
  454MOL0     H61245   1.017   6.388   5.853  2.0206 -0.2457  0.2930
  454MOL0     H61246   1.071   6.201   6.012  0.7046 -1.8841  0.1629
  454MOL0     H61247   1.068   6.082   5.882 -0.7087  0.2898 -0.5963
  454MOL0     H61248   0.842   6.262   5.961  0.0749  0.5535 -1.9253
  454MOL0     H61249   0.865   6.094   6.022 -0.1844  2.1806  1.0843
  454MOL0     H61250   0.760   5.845   5.802  1.0000  2.0545  1.0045
  454MOL0     H61251   0.647   5.659   5.882  0.5428 -0.5541  0.9505
  454MOL0     H61252   0.497   5.672   5.967  0.1236  1.1461 -0.3507
  454MOL0     H61253   0.489   5.657   5.795  0.0016 -2.1248  1.3443
  454MOL0     H61254   0.175   5.877   6.185  1.2642 -3.9839 -1.6442
  454MOL0     H61255  -0.040   5.760   6.261 -2.6775 -2.3624 -2.3228
  454MOL0     H61256  -0.406   5.869   6.095 -2.8882 -0.9065  1.7513
  454MOL0     H61257  -0.368   5.728   5.985  2.7232 -3.1551  1.4034
  454MOL0     H61258  -0.451   5.582   6.148  0.8151 -0.3455 -1.1183
  454MOL0     H61259  -0.500   5.722   6.257 -0.8452  0.7085  0.1882
  454MOL0     H61260  -0.600   5.690   5.971  2.7054  0.4936 -0.3669
  454MOL0     H61261  -0.643   5.816   6.088  2.7672  1.4627 -3.6435
  454MOL0     H61262  -0.704   5.521   6.077 -0.3778  1.0837 -1.2206
  454MOL0     H61263  -0.716   5.624   6.236 -1.2445  0.2894 -0.0882
  454MOL0     H61264  -0.860   5.684   5.975  1.2647 -1.3041  0.8999
  454MOL0     H61265  -0.878   5.749   6.131  1.0700  2.6621 -3.8128
  454MOL0     H61266  -0.958   5.469   6.018 -3.7125 -0.4485 -0.7092
  454MOL0     H61267  -0.926   5.476   6.183 -0.6576  1.3472  0.3645
  454MOL0     H61268  -1.131   5.657   6.047  1.5301  0.9044  0.9333
  454MOL0     H61269  -1.080   5.675   6.218  3.2138  1.0247 -0.6893
  454MOL0     H61270  -1.300   5.543   6.198 -0.8662 -2.3226 -0.2256
  454MOL0     H61271  -1.175   5.444   6.252 -1.4982  0.7368 -0.0239
  454MOL0     H61272  -0.244   5.885   5.912  0.5675 -0.6936 -0.0663
  454MOL0     H61273  -0.020   5.969   5.818 -1.2186  2.3851  0.5501
  454MOL0     H61274   0.375   6.131   5.923  0.6574  0.3984  0.4328
  454MOL0     H61275   0.607   6.232   5.881 -0.8200 -0.3152  1.5198
  454MOL0     H61276   0.836   5.426   6.074 -1.1373 -1.0443  1.9847
  454MOL0     H61277   0.935   5.526   6.267  2.4995  1.3884  1.1836
  454MOL0     H61278   1.173   5.369   6.701  0.7174 -0.2008  0.8723
  454MOL0     H61279   1.267   5.493   6.906  2.6284  1.7896  0.5873
  454MOL0     H61280   1.415   5.900   6.857  0.6232 -1.7212 -0.5442
  454MOL0     H61281   1.253   5.952   6.903  0.9320  0.7300 -0.5685
  454MOL0     H61282   1.440   6.033   7.065  0.7954 -1.7180  0.9290
  454MOL0     H61283   1.450   5.859   7.114  1.8887  1.7580  1.7646
  454MOL0     H61284   1.308   5.942   7.271  2.1261  0.5694 -1.3126
  454MOL0     H61285   1.200   5.861   7.155  1.4980 -1.4451 -4.3350
  454MOL0     H61286   1.091   6.070   7.213  0.8054 -0.3302  1.1445
  454MOL0     H61287   1.181   6.106   7.055  3.0564 -2.3012 -1.4260
  454MOL0     H61288   1.396   6.316   7.360  1.6164 -0.5507 -2.8424
  454MOL0     H61289   1.308   5.843   6.659  2.4550 -1.5251 -2.2556
  454MOL0     H61290   1.246   5.720   6.470 -1.3535 -0.8051 -1.1748
  455MOL0     O61291   4.850   6.802   3.808 -0.1044 -0.5728 -0.1302
  455MOL0     C61292   4.892   6.700   3.756 -1.1732  0.2925  0.6158
  455MOL0     O61293   4.820   6.583   3.749 -0.4296 -0.2748  0.4299
  455MOL0     C61294   4.681   6.590   3.763  0.2971 -0.5253  0.3715
  455MOL0     C61295   4.610   6.654   3.876 -0.0082  0.0387 -0.1687
  455MOL0     C61296   4.468   6.645   3.878  0.2114 -0.3284 -0.1812
  455MOL0     C61297   4.392   6.566   3.792  1.4977  0.9845 -0.2360
  455MOL0     O61298   4.258   6.554   3.794  0.2133 -0.4265  0.6749
  455MOL0     C61299   4.185   6.571   3.917 -0.1064 -0.1358 -0.3218
  455MOL0     C61300   4.120   6.442   3.964 -0.1688  0.0881  0.4889
  455MOL0     C61301   3.997   6.462   4.049 -0.8086  1.0591 -0.5380
  455MOL0     C61302   3.950   6.326   4.095  0.8089 -0.2341  0.7027
  455MOL0     C61303   3.811   6.337   4.171  0.0367  0.9568  0.0239
  455MOL0     C61304   3.739   6.201   4.200  0.1832 -0.1480  0.5287
  455MOL0     C61305   3.587   6.214   4.220 -0.0827  0.7565 -0.1055
  455MOL0     C61306   3.548   6.272   4.353  0.6907 -0.6258 -0.0716
  455MOL0     N61307   3.510   6.417   4.348 -0.4243 -0.5665 -0.0672
  455MOL0     C61308   3.440   6.482   4.252  0.6657  0.7720  0.4639
  455MOL0     C61309   3.429   6.617   4.286  0.3594 -0.8987 -0.3516
  455MOL0     C61310   3.365   6.748   4.232 -0.4448  0.0545 -0.0331
  455MOL0     C61311   3.216   6.728   4.203 -0.5476 -0.4381 -0.2692
  455MOL0     C61312   3.133   6.722   4.326 -0.0776  0.7189 -1.0345
  455MOL0     C61313   2.975   6.754   4.305  0.5685 -0.0649 -1.0704
  455MOL0     O61314   2.902   6.683   4.410  0.3513  0.0954 -0.4695
  455MOL0     C61315   2.776   6.737   4.422 -0.4692  0.5461  0.5245
  455MOL0     C61316   2.775   6.843   4.511 -0.3737 -0.5343  0.0991
  455MOL0     C61317   2.659   6.914   4.546 -0.7305  0.7022  0.1981
  455MOL0     C61318   2.676   7.028   4.640 -0.2826 -0.2114  0.1911
  455MOL0     C61319   2.532   6.864   4.491 -0.8784  0.2301 -0.8953
  455MOL0     C61320   2.399   6.918   4.513 -0.3062  0.3228  0.8924
  455MOL0     O61321   2.297   6.879   4.424 -0.5436  0.2731 -0.2640
  455MOL0     C61322   2.166   6.914   4.453 -0.1739 -0.7588 -0.0644
  455MOL0     C61323   2.069   6.814   4.456  0.4049 -0.4873 -0.5720
  455MOL0     C61324   1.932   6.853   4.446 -0.2896  0.1415  0.3871
  455MOL0     C61325   1.890   6.982   4.468 -0.5400  0.4297 -0.2303
  455MOL0     O61326   1.755   7.022   4.472  0.3450 -0.2811  0.2995
  455MOL0     C61327   1.646   6.938   4.423  0.1942 -0.2055  0.0778
  455MOL0     C61328   1.518   7.004   4.467  0.1381  0.6751  0.8216
  455MOL0     C61329   1.466   7.128   4.395 -0.0581 -0.3469  0.2536
  455MOL0     C61330   1.457   7.255   4.474  0.6163  0.2865  0.7608
  455MOL0     C61331   1.590   7.304   4.536  0.5249  0.5737  0.3875
  455MOL0     C61332   1.703   7.336   4.429  0.0062 -0.6811 -1.5547
  455MOL0     C61333   1.655   7.426   4.317 -0.7441 -1.0589 -0.4732
  455MOL0     C61334   1.749   7.456   4.205 -0.1376  0.1806 -0.0113
  455MOL0    Cl61335   1.889   7.547   4.257 -0.7851 -0.1176 -0.1954
  455MOL0     C61336   1.985   7.076   4.482  0.6497 -0.0727  0.1098
  455MOL0     C61337   2.126   7.042   4.468  1.0842  0.0783 -0.6945
  455MOL0     O61338   2.390   6.992   4.604  0.2250  0.3189 -0.0265
  455MOL0     C61339   2.543   6.754   4.402  0.1694 -0.3224  0.1229
  455MOL0     C61340   2.659   6.695   4.359 -0.0807 -1.2540  0.1251
  455MOL0     N61341   3.518   6.634   4.394  0.1413 -0.6629 -0.5792
  455MOL0     N61342   3.547   6.521   4.432  0.3768 -0.4147 -0.6488
  455MOL0     C61343   4.457   6.498   3.690  0.4301  0.0547 -0.1180
  455MOL0     C61344   4.597   6.513   3.674 -1.1160  1.0892  0.3648
  455MOL0     C61345   5.044   6.700   3.718  0.3953 -0.8319 -1.0113
  455MOL0     C61346   5.121   6.815   3.744 -0.8576  0.2287 -0.2394
  455MOL0     C61347   5.250   6.825   3.687 -0.3556 -0.9903 -0.2757
  455MOL0     C61348   5.304   6.716   3.622 -0.3465  0.1114  0.5401
  455MOL0     O61349   5.425   6.724   3.549  0.1838 -0.0840  0.1127
  455MOL0     C61350   5.515   6.840   3.582  0.8697 -0.1451  0.1611
  455MOL0     C61351   5.650   6.845   3.500  0.5066 -1.2049  0.0621
  455MOL0     C61352   5.708   6.706   3.467 -0.4895 -0.0213  0.4976
  455MOL0     C61353   5.849   6.720   3.416  0.2148  0.0519  0.5442
  455MOL0     C61354   5.869   6.736   3.269 -0.6803 -0.3034  0.1988
  455MOL0     C61355   5.884   6.754   3.151  1.0229  0.2321 -1.1776
  455MOL0     C61356   5.223   6.606   3.592 -1.2012  0.2070  0.0242
  455MOL0     C61357   5.104   6.590   3.652 -0.5052  1.2485  0.2738
  455MOL0     H61358   4.670   6.709   3.947  1.3878 -0.7129 -0.7288
  455MOL0     H61359   4.419   6.696   3.960  0.0067 -1.4125  0.3904
  455MOL0     H61360   4.249   6.605   3.998  1.6041  0.4570 -1.8722
  455MOL0     H61361   4.100   6.640   3.909 -1.0157 -1.0806  0.7664
  455MOL0     H61362   4.089   6.374   3.884  1.5671 -1.4601  1.0359
  455MOL0     H61363   4.202   6.396   4.021 -0.7241  0.3560  1.5248
  455MOL0     H61364   4.026   6.529   4.130  3.8732 -0.8156 -0.3858
  455MOL0     H61365   3.914   6.500   3.988 -1.1986 -1.6131 -1.7987
  455MOL0     H61366   3.949   6.261   4.007  0.6943  0.1790  0.3927
  455MOL0     H61367   4.019   6.270   4.158  0.4731 -0.6466  0.7073
  455MOL0     H61368   3.821   6.398   4.262  4.1562  4.0553 -2.1288
  455MOL0     H61369   3.740   6.387   4.105 -1.9782 -4.7094 -2.7408
  455MOL0     H61370   3.766   6.136   4.116 -2.4682 -1.5277  0.6276
  455MOL0     H61371   3.779   6.157   4.292 -2.4020 -0.6358  1.5191
  455MOL0     H61372   3.533   6.260   4.136 -1.2171 -0.0619  0.1513
  455MOL0     H61373   3.567   6.107   4.224  2.4936  0.2382  0.6882
  455MOL0     H61374   3.628   6.257   4.426  0.7857 -0.6524 -0.1805
  455MOL0     H61375   3.467   6.207   4.388 -0.7624  2.2418  2.3958
  455MOL0     H61376   3.395   6.440   4.162 -1.7528  2.2107  0.9299
  455MOL0     H61377   3.380   6.834   4.298 -0.0846  1.0543 -1.3744
  455MOL0     H61378   3.419   6.769   4.139  1.7581 -0.7622  1.0003
  455MOL0     H61379   3.195   6.638   4.143 -2.4839 -0.2948  0.1250
  455MOL0     H61380   3.173   6.813   4.149 -2.2012 -0.4972  0.8686
  455MOL0     H61381   3.180   6.784   4.403  0.6980  0.6269 -1.4301
  455MOL0     H61382   3.143   6.625   4.376  1.5364  1.1613 -0.4428
  455MOL0     H61383   2.927   6.720   4.214 -2.4768 -0.1855  0.4550
  455MOL0     H61384   2.971   6.863   4.319  0.5230  0.0008 -1.5984
  455MOL0     H61385   2.868   6.878   4.554  0.1577 -1.9311  0.1516
  455MOL0     H61386   2.649   7.121   4.590 -0.8781 -0.7007 -0.4082
  455MOL0     H61387   2.602   7.017   4.720  0.9041 -2.0765  1.1086
  455MOL0     H61388   2.769   7.026   4.698 -1.4443 -2.4642  2.1397
  455MOL0     H61389   2.108   6.716   4.432 -1.1651 -0.7865 -2.1163
  455MOL0     H61390   1.857   6.777   4.428  1.4656 -2.0703  1.9181
  455MOL0     H61391   1.654   6.927   4.315 -1.5487  0.0419 -0.1081
  455MOL0     H61392   1.664   6.842   4.471  1.8790 -1.1361 -2.2249
  455MOL0     H61393   1.441   6.928   4.449 -2.2646  2.9793  0.6934
  455MOL0     H61394   1.515   7.025   4.574  0.9019  1.5399  0.6840
  455MOL0     H61395   1.359   7.120   4.370 -1.6830  3.8649  4.4058
  455MOL0     H61396   1.515   7.147   4.299 -0.2776  0.2481  0.2553
  455MOL0     H61397   1.414   7.326   4.402  1.8845 -0.4901 -0.8266
  455MOL0     H61398   1.403   7.237   4.568  1.4383 -3.3670  0.6822
  455MOL0     H61399   1.631   7.228   4.603 -2.3653 -0.1494  1.5184
  455MOL0     H61400   1.565   7.390   4.598 -1.0054  0.8214 -0.5192
  455MOL0     H61401   1.794   7.366   4.481 -0.7091 -1.2202  0.0700
  455MOL0     H61402   1.719   7.241   4.378  0.6289 -2.6169  1.9285
  455MOL0     H61403   1.611   7.516   4.361 -0.5147 -0.3733 -1.6132
  455MOL0     H61404   1.580   7.366   4.265 -1.4268  1.2167 -2.2638
  455MOL0     H61405   1.695   7.503   4.123  1.4782 -0.3842 -1.4644
  455MOL0     H61406   1.794   7.363   4.168  1.0366  0.3797  0.8684
  455MOL0     H61407   1.933   7.171   4.494 -1.9909 -1.6111  1.7341
  455MOL0     H61408   2.202   7.118   4.473  2.4398 -0.9979 -3.1331
  455MOL0     H61409   2.452   6.705   4.369 -0.0603 -0.6686  1.2426
  455MOL0     H61410   2.658   6.628   4.274  1.7982 -3.2687  1.5562
  455MOL0     H61411   4.406   6.428   3.625  0.1542 -1.5059  1.6824
  455MOL0     H61412   4.644   6.459   3.593 -1.2350 -1.9850  2.2022
  455MOL0     H61413   5.077   6.898   3.800 -0.5250 -1.9286  3.5515
  455MOL0     H61414   5.304   6.917   3.707  0.4846 -0.7616 -3.2195
  455MOL0     H61415   5.453   6.930   3.575 -0.8619 -0.8718  3.6657
  455MOL0     H61416   5.546   6.831   3.687  1.4144 -0.8806 -0.0583
  455MOL0     H61417   5.721   6.898   3.564 -2.6711  0.5612  2.3553
  455MOL0     H61418   5.649   6.912   3.414  2.1894  0.3631  1.1946
  455MOL0     H61419   5.645   6.645   3.402  1.2127 -2.0921  0.6750
  455MOL0     H61420   5.714   6.654   3.564  1.3291 -2.6124 -0.9035
  455MOL0     H61421   5.897   6.628   3.450  1.5702  1.2345  1.9848
  455MOL0     H61422   5.891   6.811   3.461 -2.4033  0.7659  1.7277
  455MOL0     H61423   5.891   6.777   3.046  1.3885  1.3345 -0.9311
  455MOL0     H61424   5.273   6.526   3.538  0.7029  1.5088 -0.2237
  455MOL0     H61425   5.057   6.495   3.631  2.5960 -1.2129  3.2468
  456MOL0     O61426  11.292   3.537   2.652  0.1601 -0.3243 -0.3272
  456MOL0     C61427  11.227   3.638   2.667  0.0772  0.7001 -0.1064
  456MOL0     O61428  11.277   3.771   2.678  0.2801 -0.6309 -0.0254
  456MOL0     C61429  11.407   3.811   2.671  0.1601  0.1838  0.7376
  456MOL0     C61430  11.522   3.722   2.678 -0.2065 -0.5624  0.6212
  456MOL0     C61431  11.649   3.784   2.668 -1.0388  0.1310  0.3831
  456MOL0     C61432  11.670   3.918   2.635 -0.6728  1.0881  0.6651
  456MOL0     O61433  11.799   3.970   2.630  0.4239  0.4169 -0.6054
  456MOL0     C61434  11.832   4.084   2.709  0.3432  0.1794  0.9397
  456MOL0     C61435  11.928   4.054   2.818  0.1699  1.0115  0.0200
  456MOL0     C61436  11.860   3.968   2.937 -0.4625 -0.9979  0.4589
  456MOL0     C61437  11.948   3.930   3.053 -0.9339 -0.1120 -0.2535
  456MOL0     C61438  11.866   3.897   3.183  0.3474  0.2557 -0.9348
  456MOL0     C61439  11.839   4.019   3.265 -0.5889 -0.2463 -0.1097
  456MOL0     C61440  11.781   3.979   3.398  0.1184  0.5786  0.5156
  456MOL0     C61441  11.754   4.102   3.484  0.5528  0.1352 -0.5464
  456MOL0     N61442  11.878   4.142   3.545 -0.0964 -0.5797  0.3471
  456MOL0     C61443  11.952   4.078   3.641 -0.6495 -0.4616  0.3323
  456MOL0     C61444  12.042   4.173   3.676  0.0316  0.3275  0.5375
  456MOL0     C61445  12.158   4.142   3.776  1.5126 -0.5458  0.5183
  456MOL0     C61446  12.127   4.054   3.905 -1.4973 -0.6429 -0.3302
  456MOL0     C61447  12.114   4.134   4.035  0.7581 -0.8059 -0.5275
  456MOL0     C61448  11.994   4.237   4.039 -0.3791  0.6137  0.1844
  456MOL0     O61449  11.871   4.176   3.991  0.2187  0.6148 -0.9302
  456MOL0     C61450  11.761   4.244   4.006  0.7660 -0.0981  0.0013
  456MOL0     C61451  11.746   4.387   4.009 -0.1379  0.4469  1.0351
  456MOL0     C61452  11.623   4.448   4.026 -0.2938  0.1587 -0.0722
  456MOL0     C61453  11.632   4.598   4.039  0.0632  0.7863  0.1458
  456MOL0     C61454  11.509   4.367   4.039  0.3164  0.4248 -0.7517
  456MOL0     C61455  11.371   4.422   4.036  0.0361  0.0309 -0.0417
  456MOL0     O61456  11.260   4.336   4.048 -0.5716  0.4951  0.3043
  456MOL0     C61457  11.160   4.368   3.960  0.3180  1.0880 -0.7008
  456MOL0     C61458  11.180   4.351   3.820  1.0662 -0.0104  0.0983
  456MOL0     C61459  11.082   4.391   3.733 -0.2160  0.6047 -0.2886
  456MOL0     C61460  10.962   4.436   3.782  0.5288 -0.6861 -0.4659
  456MOL0     O61461  10.860   4.479   3.695 -0.2169 -0.1795 -0.5395
  456MOL0     C61462  10.844   4.617   3.678  0.1950  0.1555 -0.0922
  456MOL0     C61463  10.884   4.655   3.535 -0.1498 -0.0729  0.0806
  456MOL0     C61464  11.029   4.699   3.522 -0.5136 -0.1782  0.0093
  456MOL0     C61465  11.043   4.852   3.562  0.0685  0.4317 -0.6494
  456MOL0     C61466  11.191   4.880   3.600 -0.8305 -0.7647 -0.4486
  456MOL0     C61467  11.198   4.848   3.753  0.6392 -0.3893  0.9234
  456MOL0     C61468  11.336   4.846   3.811  0.5824  0.4823  0.0614
  456MOL0     C61469  11.389   4.986   3.837 -0.9855 -0.0556  0.0479
  456MOL0    Cl61470  11.559   4.977   3.883 -0.3647 -0.1598  0.1577
  456MOL0     C61471  10.946   4.460   3.921 -0.0071 -0.6439  0.2343
  456MOL0     C61472  11.046   4.427   4.011 -0.2704  0.2992  0.2974
  456MOL0     O61473  11.358   4.545   4.026  0.0269  0.1147 -0.8369
  456MOL0     C61474  11.514   4.228   4.032  0.2050 -0.0421  0.3215
  456MOL0     C61475  11.642   4.169   4.025 -0.2064 -0.3507 -0.6522
  456MOL0     N61476  12.038   4.279   3.587  0.8175  0.0990  0.2638
  456MOL0     N61477  11.932   4.264   3.515 -0.5179  0.3274  0.0101
  456MOL0     C61478  11.562   3.998   2.609 -0.6590 -0.6585  0.1021
  456MOL0     C61479  11.433   3.945   2.634 -0.6128 -1.0438 -0.1568
  456MOL0     C61480  11.082   3.611   2.665  0.5096  0.9699  0.2310
  456MOL0     C61481  11.002   3.722   2.686  0.3547  0.3644  0.9336
  456MOL0     C61482  10.860   3.709   2.681 -0.3342  0.5441  1.4507
  456MOL0     C61483  10.808   3.579   2.655  0.6454 -0.1074  0.0517
  456MOL0     O61484  10.669   3.577   2.642  0.7573 -1.2090 -0.2925
  456MOL0     C61485  10.618   3.497   2.743 -0.2319  0.6464 -0.7658
  456MOL0     C61486  10.466   3.512   2.755 -1.4459 -0.1606  0.6548
  456MOL0     C61487  10.400   3.471   2.622  0.6102 -0.0385 -1.4101
  456MOL0     C61488  10.239   3.466   2.619 -0.4829  0.8349 -0.5968
  456MOL0     C61489  10.184   3.357   2.710 -0.2179 -0.0604  0.1548
  456MOL0     C61490  10.147   3.271   2.790 -1.3097 -0.4445 -0.4274
  456MOL0     C61491  10.887   3.469   2.617 -0.4090  0.6065 -0.6993
  456MOL0     C61492  11.028   3.492   2.628  0.4187  0.6068  0.1924
  456MOL0     H61493  11.514   3.618   2.708 -1.9661 -0.7908 -0.4965
  456MOL0     H61494  11.734   3.719   2.689 -2.7180 -2.6569 -0.9486
  456MOL0     H61495  11.878   4.156   2.641 -0.8416  0.5657  0.5300
  456MOL0     H61496  11.741   4.122   2.756 -0.8488 -3.2129  1.7028
  456MOL0     H61497  12.011   3.990   2.789  0.0336 -1.3587  4.0334
  456MOL0     H61498  11.966   4.147   2.861 -1.0644 -0.1643  4.1803
  456MOL0     H61499  11.768   4.017   2.969 -0.4037 -0.6941  0.1778
  456MOL0     H61500  11.830   3.866   2.912  0.4175 -2.6884  5.2192
  456MOL0     H61501  12.008   3.843   3.026 -1.9360 -0.0991 -2.7542
  456MOL0     H61502  12.024   4.007   3.073 -0.0952 -0.9481 -0.1428
  456MOL0     H61503  11.768   3.852   3.163  0.2014 -0.3621  1.0274
  456MOL0     H61504  11.928   3.827   3.239 -1.4457 -0.6739 -0.0323
  456MOL0     H61505  11.930   4.079   3.274 -2.2627  2.2730  1.1879
  456MOL0     H61506  11.766   4.075   3.204 -1.1596 -0.8976 -0.0404
  456MOL0     H61507  11.691   3.920   3.379  0.0152  1.4884 -2.4323
  456MOL0     H61508  11.848   3.910   3.450 -1.2810 -0.8496  0.5123
  456MOL0     H61509  11.689   4.076   3.568 -0.3242 -1.2174 -1.5924
  456MOL0     H61510  11.705   4.186   3.435 -0.1617  0.3250  0.4718
  456MOL0     H61511  11.920   3.985   3.686 -1.5568  0.0642  0.8328
  456MOL0     H61512  12.241   4.113   3.711  1.9258 -0.6317  1.0765
  456MOL0     H61513  12.184   4.242   3.811 -0.0750 -0.6083  2.0117
  456MOL0     H61514  12.208   3.981   3.912 -0.3670  0.5761 -0.4840
  456MOL0     H61515  12.041   3.987   3.893  0.8544 -4.5195  2.0556
  456MOL0     H61516  12.214   4.167   4.063  0.6547  0.7674 -1.8645
  456MOL0     H61517  12.091   4.057   4.110  0.6523  0.2969  0.6053
  456MOL0     H61518  12.016   4.319   3.970  0.3503 -0.1562 -0.5158
  456MOL0     H61519  11.974   4.272   4.141 -0.2681  1.3165 -0.0275
  456MOL0     H61520  11.831   4.453   3.997 -0.5846  0.8760  0.1281
  456MOL0     H61521  11.573   4.632   3.953  0.4595 -1.6150 -1.1686
  456MOL0     H61522  11.582   4.621   4.134 -4.3120 -2.5533 -0.9864
  456MOL0     H61523  11.735   4.634   4.035 -0.8648  3.7247  0.1573
  456MOL0     H61524  11.277   4.315   3.787  0.6771 -0.5186 -0.5137
  456MOL0     H61525  11.076   4.377   3.626  0.6213  1.9918 -0.5416
  456MOL0     H61526  10.735   4.621   3.689 -0.6124 -0.4740 -5.3760
  456MOL0     H61527  10.886   4.678   3.759  3.2674 -1.5016 -0.3193
  456MOL0     H61528  10.861   4.575   3.465 -0.8624 -2.8024  3.1689
  456MOL0     H61529  10.825   4.733   3.487  1.1343  1.4150  0.8044
  456MOL0     H61530  11.062   4.690   3.418  1.6557  0.4484  0.5859
  456MOL0     H61531  11.097   4.631   3.575 -0.1060 -1.0113 -1.5091
  456MOL0     H61532  11.018   4.911   3.474 -1.2330  0.1039 -0.5157
  456MOL0     H61533  10.969   4.874   3.639 -0.4770  0.5282 -1.1912
  456MOL0     H61534  11.220   4.985   3.586  0.0703 -1.0188 -0.5503
  456MOL0     H61535  11.257   4.822   3.535  1.8040  0.5835  0.8775
  456MOL0     H61536  11.125   4.915   3.801 -2.2079 -0.7813 -2.3924
  456MOL0     H61537  11.143   4.754   3.764 -1.9252  0.7212 -1.2119
  456MOL0     H61538  11.400   4.788   3.744 -0.0826  0.6108 -0.6966
  456MOL0     H61539  11.335   4.799   3.910  2.5195 -2.1313 -1.0573
  456MOL0     H61540  11.336   5.029   3.922  2.2611  1.0717  1.6963
  456MOL0     H61541  11.376   5.036   3.741 -3.1827 -0.5887  0.0222
  456MOL0     H61542  10.854   4.512   3.945 -0.5150 -1.2935 -0.2412
  456MOL0     H61543  11.023   4.432   4.117 -1.2873 -1.8154  0.2320
  456MOL0     H61544  11.422   4.174   4.050  1.1698 -1.6368  0.7436
  456MOL0     H61545  11.650   4.064   4.049  1.2063  0.1161  1.1393
  456MOL0     H61546  11.574   4.099   2.572 -0.7108 -0.1015  1.5559
  456MOL0     H61547  11.348   4.010   2.618  1.0937  1.7805  1.3502
  456MOL0     H61548  11.043   3.821   2.705 -1.2083  1.1233  0.5016
  456MOL0     H61549  10.796   3.794   2.698 -0.3231  0.9230 -0.2669
  456MOL0     H61550  10.637   3.396   2.707 -0.6327  0.0755  0.5581
  456MOL0     H61551  10.668   3.502   2.840 -0.1382 -1.1642 -0.7021
  456MOL0     H61552  10.447   3.614   2.791  1.8632  1.1247 -0.9064
  456MOL0     H61553  10.425   3.449   2.835  0.0945  0.4050  1.9541
  456MOL0     H61554  10.427   3.366   2.607 -1.9404 -0.7189 -1.6932
  456MOL0     H61555  10.441   3.537   2.544  2.2976 -1.7982 -2.1073
  456MOL0     H61556  10.206   3.449   2.516 -1.7162 -1.1123  0.0813
  456MOL0     H61557  10.194   3.555   2.663 -3.4504 -1.1483  0.6647
  456MOL0     H61558  10.106   3.193   2.851 -2.6591  0.0062 -0.7174
  456MOL0     H61559  10.843   3.373   2.591  0.5146 -0.2801  0.8632
  456MOL0     H61560  11.090   3.415   2.584 -1.7025 -0.5760 -0.9173
  457MOL0     O61561   7.624   1.494   0.183  0.0503 -0.2436  0.6578
  457MOL0     C61562   7.685   1.450   0.279  0.4862 -0.5585  0.4316
  457MOL0     O61563   7.630   1.443   0.413  0.9182  0.3490  0.1812
  457MOL0     C61564   7.505   1.495   0.446 -0.5449 -0.7778  0.9476
  457MOL0     C61565   7.442   1.432   0.555 -0.3843  0.0824  0.0181
  457MOL0     C61566   7.327   1.483   0.604  0.0155  0.0584 -0.4498
  457MOL0     C61567   7.265   1.593   0.553  0.6590 -0.8412 -0.1150
  457MOL0     O61568   7.144   1.651   0.598 -0.0871  0.9573  0.1338
  457MOL0     C61569   7.043   1.654   0.496 -0.3044 -0.0816 -0.0689
  457MOL0     C61570   6.946   1.777   0.515 -1.4842  0.5943 -0.7844
  457MOL0     C61571   6.813   1.728   0.466 -0.0455  0.4000  1.0188
  457MOL0     C61572   6.727   1.847   0.408 -0.3099 -0.1399 -1.4634
  457MOL0     C61573   6.589   1.804   0.347  0.0466  0.2759 -0.0213
  457MOL0     C61574   6.505   1.745   0.468  0.0289  0.0207 -0.0504
  457MOL0     C61575   6.351   1.736   0.438 -0.6683 -0.6374  0.4147
  457MOL0     C61576   6.274   1.652   0.542 -0.4227 -0.1290  0.2921
  457MOL0     N61577   6.147   1.608   0.497 -0.2005 -0.2837  0.0647
  457MOL0     C61578   6.120   1.483   0.452  0.3307  0.3015  0.4455
  457MOL0     C61579   5.989   1.480   0.449  0.5484  0.0730 -0.7463
  457MOL0     C61580   5.904   1.380   0.381  0.0731 -1.4766  0.0608
  457MOL0     C61581   5.885   1.258   0.462 -0.5002  0.0048 -0.2054
  457MOL0     C61582   5.800   1.288   0.594  0.2733 -0.3295  0.8517
  457MOL0     C61583   5.654   1.325   0.553  0.1225 -0.0008 -0.4113
  457MOL0     O61584   5.566   1.339   0.664  0.2806 -0.3352 -0.1489
  457MOL0     C61585   5.554   1.454   0.735  0.9277  0.7301 -0.0242
  457MOL0     C61586   5.643   1.557   0.732 -0.3640  0.2545  0.1305
  457MOL0     C61587   5.621   1.680   0.805  0.5039 -0.0014  1.1967
  457MOL0     C61588   5.710   1.792   0.787 -0.5355 -0.5090  0.1506
  457MOL0     C61589   5.499   1.691   0.876 -0.0686  0.6146  0.1456
  457MOL0     C61590   5.457   1.817   0.954  0.1685  0.3053 -0.3016
  457MOL0     O61591   5.319   1.851   0.946 -1.0718 -0.2955 -0.6643
  457MOL0     C61592   5.278   1.969   1.003  0.5088  0.6031 -0.3814
  457MOL0     C61593   5.321   2.027   1.119 -0.0099  0.3843 -0.9923
  457MOL0     C61594   5.257   2.145   1.172 -0.0494 -0.4152 -0.5567
  457MOL0     C61595   5.161   2.213   1.095  0.3105  0.1858  0.3155
  457MOL0     O61596   5.115   2.330   1.149  0.2236 -0.1373  0.2107
  457MOL0     C61597   5.101   2.442   1.056  0.1971 -0.5147 -0.1264
  457MOL0     C61598   5.086   2.574   1.126  0.0013 -0.7201  0.0949
  457MOL0     C61599   4.934   2.589   1.171  0.0847 -0.5118 -0.4690
  457MOL0     C61600   4.834   2.607   1.061 -0.9713 -0.7195 -0.0746
  457MOL0     C61601   4.689   2.652   1.111 -0.0818  0.4203 -0.5610
  457MOL0     C61602   4.599   2.681   0.989  0.9577  0.6590 -0.1378
  457MOL0     C61603   4.456   2.673   1.045  0.0254  0.6021 -0.2411
  457MOL0     C61604   4.360   2.688   0.934  0.2565  0.8025 -0.1632
  457MOL0    Cl61605   4.189   2.702   0.984 -0.3748  0.2932 -0.1310
  457MOL0     C61606   5.126   2.159   0.974 -0.1018 -0.5294  1.5173
  457MOL0     C61607   5.175   2.037   0.938  1.3660  0.1140 -0.4313
  457MOL0     O61608   5.540   1.884   1.010  0.3966  0.4154 -0.3685
  457MOL0     C61609   5.416   1.580   0.892 -0.2280 -0.6164  0.3151
  457MOL0     C61610   5.431   1.467   0.803  0.0454 -0.2596  0.4302
  457MOL0     N61611   5.938   1.596   0.506 -0.5370 -0.8473  0.0439
  457MOL0     N61612   6.033   1.671   0.536 -0.2331 -0.9232  0.3489
  457MOL0     C61613   7.331   1.659   0.446 -0.2552  0.3741  0.5640
  457MOL0     C61614   7.447   1.608   0.390  0.8232 -0.2976  0.2762
  457MOL0     C61615   7.829   1.432   0.263 -0.3588 -0.1685 -0.6401
  457MOL0     C61616   7.902   1.490   0.160 -0.3508 -0.0108 -0.3442
  457MOL0     C61617   8.040   1.460   0.139 -1.5596 -1.4942 -0.3809
  457MOL0     C61618   8.105   1.372   0.223  0.2847 -0.1045 -0.3768
  457MOL0     O61619   8.240   1.351   0.194  0.8803  0.5749 -0.5298
  457MOL0     C61620   8.316   1.298   0.307  0.4879 -0.7222 -0.0200
  457MOL0     C61621   8.464   1.342   0.291  0.3610 -0.3720 -1.2058
  457MOL0     C61622   8.542   1.337   0.425  0.2346 -0.3753 -0.4466
  457MOL0     C61623   8.687   1.395   0.405 -0.2048  0.6656 -0.9246
  457MOL0     C61624   8.703   1.546   0.385  0.1053  0.6429 -0.5021
  457MOL0     C61625   8.725   1.666   0.390  0.2325 -0.1370 -0.4467
  457MOL0     C61626   8.029   1.319   0.329 -0.4658 -0.0165  0.5538
  457MOL0     C61627   7.898   1.345   0.351  0.3238 -0.3428 -0.3469
  457MOL0     H61628   7.495   1.351   0.604  1.0935 -0.2500 -1.9764
  457MOL0     H61629   7.288   1.441   0.695 -0.2040  1.4028  0.1008
  457MOL0     H61630   7.088   1.671   0.397  0.4786  2.6670  0.6471
  457MOL0     H61631   6.992   1.558   0.500  1.3500 -0.9470  2.5384
  457MOL0     H61632   6.945   1.807   0.620  2.8519  0.0007 -0.3510
  457MOL0     H61633   6.979   1.859   0.451 -2.8342  1.4374 -0.4415
  457MOL0     H61634   6.822   1.669   0.374 -0.4157  1.1339  0.4928
  457MOL0     H61635   6.774   1.656   0.538  1.3049 -2.8588 -1.2757
  457MOL0     H61636   6.693   1.903   0.496  0.5257 -1.3144 -0.3570
  457MOL0     H61637   6.784   1.914   0.343  2.2119 -2.6682 -2.0208
  457MOL0     H61638   6.550   1.896   0.303 -0.3275 -0.3671 -1.0729
  457MOL0     H61639   6.604   1.735   0.263 -2.3383  0.9635 -1.1043
  457MOL0     H61640   6.540   1.642   0.476 -1.5480 -0.3921  3.0485
  457MOL0     H61641   6.507   1.803   0.561  0.5615 -1.3794  0.8423
  457MOL0     H61642   6.312   1.838   0.441 -0.9509 -0.5777 -2.1876
  457MOL0     H61643   6.339   1.691   0.338  0.4069  0.2486 -0.1309
  457MOL0     H61644   6.252   1.714   0.629  0.0699 -1.8157  1.6875
  457MOL0     H61645   6.345   1.571   0.564  1.5300  1.7882  1.4027
  457MOL0     H61646   6.191   1.413   0.410 -0.2287  0.7837 -1.3867
  457MOL0     H61647   5.807   1.425   0.357  0.3873 -0.1694  1.1626
  457MOL0     H61648   5.951   1.343   0.289 -1.2522 -2.6370 -0.1864
  457MOL0     H61649   5.983   1.221   0.493 -0.9743  0.7865  2.5209
  457MOL0     H61650   5.830   1.185   0.402 -1.7127 -0.5815  1.5294
  457MOL0     H61651   5.845   1.375   0.645  0.8328 -0.1470  0.0608
  457MOL0     H61652   5.811   1.206   0.666  2.0770  0.9835  2.2021
  457MOL0     H61653   5.613   1.247   0.487  1.7814  0.1829 -1.7178
  457MOL0     H61654   5.660   1.423   0.504  2.4940  0.7300  1.2114
  457MOL0     H61655   5.735   1.552   0.675  0.2485  1.7127  0.9223
  457MOL0     H61656   5.791   1.797   0.861 -0.3432  0.1011 -0.0959
  457MOL0     H61657   5.754   1.780   0.687 -2.0339 -0.1072 -0.5846
  457MOL0     H61658   5.649   1.882   0.793 -0.6011 -0.5649  0.3154
  457MOL0     H61659   5.396   1.969   1.172  1.1302 -0.3912 -3.3163
  457MOL0     H61660   5.295   2.198   1.259  0.1863  3.5953 -2.8735
  457MOL0     H61661   5.183   2.452   0.984 -0.6408  0.8528 -0.9545
  457MOL0     H61662   5.018   2.432   0.986 -0.1436 -0.9143  0.3383
  457MOL0     H61663   5.148   2.587   1.216  0.7253 -0.4800 -0.4300
  457MOL0     H61664   5.103   2.653   1.052 -1.7328  0.8004  1.2418
  457MOL0     H61665   4.936   2.674   1.240  1.3056 -0.9558  0.0759
  457MOL0     H61666   4.906   2.510   1.242 -0.8467  0.0037 -0.2394
  457MOL0     H61667   4.869   2.697   1.009  0.3992 -0.4368  1.2696
  457MOL0     H61668   4.817   2.523   0.993 -1.3894 -0.7150  0.0241
  457MOL0     H61669   4.694   2.738   1.179 -1.9680 -1.2058  1.7976
  457MOL0     H61670   4.652   2.571   1.174  0.5474  0.4345 -0.1691
  457MOL0     H61671   4.626   2.781   0.955  5.3254 -0.1064  0.5062
  457MOL0     H61672   4.613   2.614   0.904 -0.3205  0.7913 -0.4689
  457MOL0     H61673   4.430   2.738   1.129 -0.2387 -0.3837  0.4544
  457MOL0     H61674   4.445   2.570   1.080  0.6267  0.3518 -0.7643
  457MOL0     H61675   4.371   2.598   0.872 -2.9287  0.2900 -0.1468
  457MOL0     H61676   4.378   2.779   0.876 -1.0264  1.3027  0.1960
  457MOL0     H61677   5.068   2.220   0.905 -0.3111 -1.5757  0.7434
  457MOL0     H61678   5.139   2.006   0.841 -2.1760  2.7453 -0.1424
  457MOL0     H61679   5.323   1.579   0.947 -0.5785  0.1487 -0.2526
  457MOL0     H61680   5.359   1.386   0.809 -0.4592 -0.0673 -2.1036
  457MOL0     H61681   7.306   1.756   0.405  3.4405  2.1439  2.0415
  457MOL0     H61682   7.502   1.663   0.315 -1.0370  2.4501  0.8122
  457MOL0     H61683   7.858   1.560   0.089  0.1928  3.1438  2.1659
  457MOL0     H61684   8.094   1.502   0.054 -2.1745  2.9390  1.1701
  457MOL0     H61685   8.281   1.342   0.401  0.1461 -2.0869  0.5155
  457MOL0     H61686   8.297   1.190   0.318 -0.2922 -0.8370 -2.0918
  457MOL0     H61687   8.482   1.439   0.242  0.9727  0.7903  1.1583
  457MOL0     H61688   8.513   1.266   0.230  1.8785 -1.1312  0.8532
  457MOL0     H61689   8.559   1.235   0.461  2.3776  0.7114  1.9927
  457MOL0     H61690   8.481   1.393   0.497 -1.2330 -2.2145 -0.1762
  457MOL0     H61691   8.730   1.347   0.317  3.1799  0.6712  0.5538
  457MOL0     H61692   8.742   1.368   0.496 -1.6182  3.0633  0.7494
  457MOL0     H61693   8.743   1.771   0.386  1.4410 -0.1403  2.5834
  457MOL0     H61694   8.078   1.250   0.397 -0.2636  0.8708  1.3183
  457MOL0     H61695   7.848   1.294   0.432  1.6989 -1.4075 -0.1292
  458MOL0     O61696   0.442   2.800   8.978 -0.2387  0.3258 -0.4010
  458MOL0     C61697   0.483   2.918   8.995 -0.1624  0.5612 -0.3909
  458MOL0     O61698   0.614   2.962   8.964 -0.7274  0.0482  0.9133
  458MOL0     C61699   0.711   2.897   8.893  0.8642  0.4658  0.5819
  458MOL0     C61700   0.771   2.982   8.798  0.1773  0.1070 -0.3613
  458MOL0     C61701   0.885   2.931   8.726 -0.3469 -0.8981 -0.0324
  458MOL0     C61702   0.946   2.814   8.765  0.3462 -0.5746 -0.5430
  458MOL0     O61703   1.074   2.788   8.715  0.2583 -0.5236  0.6566
  458MOL0     C61704   1.177   2.730   8.795 -0.5494  0.7935  0.3579
  458MOL0     C61705   1.322   2.736   8.724  0.6466 -0.4786  0.0343
  458MOL0     C61706   1.369   2.876   8.671 -0.2883  1.2973  0.4846
  458MOL0     C61707   1.474   2.856   8.565 -0.3139 -0.3057  0.5089
  458MOL0     C61708   1.548   2.992   8.551  1.2962 -0.5879 -0.9160
  458MOL0     C61709   1.646   2.999   8.439 -0.0433  0.2516  0.1245
  458MOL0     C61710   1.692   3.137   8.403 -0.5734 -0.2379  0.1543
  458MOL0     C61711   1.618   3.198   8.287  0.4869  0.3686 -0.3568
  458MOL0     N61712   1.470   3.205   8.301 -0.3247 -0.6006  0.0442
  458MOL0     C61713   1.393   3.257   8.405 -0.6922 -0.5669  0.1238
  458MOL0     C61714   1.261   3.223   8.391 -0.1835  0.6883  1.2547
  458MOL0     C61715   1.137   3.270   8.458 -0.0697  0.3855  0.6431
  458MOL0     C61716   1.024   3.177   8.424  0.2786  0.3783  0.9495
  458MOL0     C61717   0.888   3.247   8.448 -0.3462 -0.1252  0.3338
  458MOL0     C61718   0.770   3.159   8.403  0.1511 -0.0835 -0.9016
  458MOL0     O61719   0.729   3.035   8.486 -0.4458 -1.3150  0.2865
  458MOL0     C61720   0.589   3.014   8.487 -0.0351  0.6814 -0.7192
  458MOL0     C61721   0.495   3.071   8.396  0.0600  0.6040  0.7181
  458MOL0     C61722   0.353   3.057   8.409 -0.9240 -0.3086 -0.6511
  458MOL0     C61723   0.260   3.132   8.309  0.0494 -0.2299  0.4418
  458MOL0     C61724   0.299   3.002   8.530 -0.3611 -0.3173  0.5449
  458MOL0     C61725   0.150   2.983   8.552  0.1271 -0.2190 -0.2170
  458MOL0     O61726   0.116   2.944   8.678  0.0533  0.3967 -0.2592
  458MOL0     C61727  -0.016   2.968   8.703  0.3500 -0.2323 -1.1171
  458MOL0     C61728  -0.123   2.896   8.642 -0.3984  0.7755  0.2404
  458MOL0     C61729  -0.251   2.928   8.663  0.9098  0.1037 -0.8542
  458MOL0     C61730  -0.287   3.029   8.754 -0.1340 -0.8704 -0.9593
  458MOL0     O61731  -0.417   3.066   8.773  0.2516  0.9029  0.0972
  458MOL0     C61732  -0.489   2.956   8.840  0.5492  0.9054 -0.8540
  458MOL0     C61733  -0.640   2.969   8.824  0.0529 -0.2793  0.7344
  458MOL0     C61734  -0.701   3.107   8.843 -0.0019  0.4963  0.4373
  458MOL0     C61735  -0.646   3.192   8.947  0.7815  0.1097 -0.1587
  458MOL0     C61736  -0.740   3.308   8.980 -0.4386  0.3700  0.2901
  458MOL0     C61737  -0.693   3.389   9.107  0.8483  0.7260  0.2747
  458MOL0     C61738  -0.780   3.518   9.115  0.7715  0.8154  0.0053
  458MOL0     C61739  -0.739   3.604   9.242 -0.7321  0.5991  0.1090
  458MOL0    Cl61740  -0.569   3.661   9.219  0.1896 -0.0382  0.0636
  458MOL0     C61741  -0.178   3.097   8.828  1.2417  0.2693  0.3942
  458MOL0     C61742  -0.045   3.068   8.803 -0.3574 -0.3298  0.6449
  458MOL0     O61743   0.067   3.005   8.465 -1.0045  0.6914 -0.3729
  458MOL0     C61744   0.387   2.944   8.615 -0.0341 -0.7799  0.2030
  458MOL0     C61745   0.529   2.943   8.593  0.7454 -0.3937 -0.3976
  458MOL0     N61746   1.264   3.140   8.271 -0.0509 -0.4539 -0.7006
  458MOL0     N61747   1.385   3.126   8.226 -0.2136  0.0652  0.1488
  458MOL0     C61748   0.883   2.725   8.852 -0.4721 -0.0911  0.5156
  458MOL0     C61749   0.762   2.768   8.916 -0.5712 -0.4741  0.0031
  458MOL0     C61750   0.391   3.012   9.053 -0.9240 -0.6349 -0.0641
  458MOL0     C61751   0.254   2.983   9.072  0.0800  0.4400  0.4536
  458MOL0     C61752   0.165   3.066   9.140  0.8413 -1.2061  0.3270
  458MOL0     C61753   0.199   3.190   9.186 -0.5795  0.1757  1.1674
  458MOL0     O61754   0.111   3.273   9.246  0.3663 -0.0693  0.3001
  458MOL0     C61755   0.114   3.276   9.385 -0.2603  0.3762  0.2270
  458MOL0     C61756   0.228   3.362   9.441  0.1067 -0.0061  0.1653
  458MOL0     C61757   0.217   3.513   9.396 -0.4937 -0.5450 -0.2275
  458MOL0     C61758   0.076   3.572   9.421 -0.0576  0.2401  0.4724
  458MOL0     C61759   0.018   3.541   9.555 -0.9652  0.2983  0.3784
  458MOL0     C61760  -0.033   3.511   9.661 -0.1848 -0.0379 -0.2327
  458MOL0     C61761   0.334   3.229   9.165  0.6350  0.4749  0.5095
  458MOL0     C61762   0.431   3.145   9.096  0.2666 -0.1314  0.0674
  458MOL0     H61763   0.734   3.084   8.797 -1.0367 -0.2931  0.4930
  458MOL0     H61764   0.938   2.997   8.657  0.8762 -0.7627  1.0013
  458MOL0     H61765   1.167   2.795   8.882 -0.9233  2.5743 -0.9717
  458MOL0     H61766   1.164   2.625   8.826  1.6961  0.6565  1.0505
  458MOL0     H61767   1.402   2.699   8.789  0.0554 -1.4850  0.2080
  458MOL0     H61768   1.325   2.660   8.646 -1.5366 -0.1162 -0.4600
  458MOL0     H61769   1.280   2.910   8.618 -1.1585  0.3089  1.2758
  458MOL0     H61770   1.389   2.953   8.746 -2.6617  1.5548  0.9454
  458MOL0     H61771   1.544   2.779   8.601  0.5086 -0.6146 -1.6230
  458MOL0     H61772   1.443   2.819   8.467 -1.5142 -0.6219  0.9843
  458MOL0     H61773   1.468   3.064   8.531  2.9484  1.7927  0.5186
  458MOL0     H61774   1.599   3.010   8.646 -2.4081 -1.2021  1.3914
  458MOL0     H61775   1.735   2.940   8.462 -1.0059 -0.4246  2.3451
  458MOL0     H61776   1.603   2.954   8.348  1.4280 -3.2093  0.9938
  458MOL0     H61777   1.684   3.200   8.492  1.0819 -2.7297  2.2068
  458MOL0     H61778   1.795   3.137   8.366  0.2079 -4.0089  1.8200
  458MOL0     H61779   1.636   3.158   8.187 -1.7743  2.3832 -1.7024
  458MOL0     H61780   1.642   3.305   8.291 -1.6765  0.9998 -1.9197
  458MOL0     H61781   1.418   3.285   8.507 -2.5244  0.6742  0.2881
  458MOL0     H61782   1.158   3.259   8.565 -1.0871 -2.3757  0.6206
  458MOL0     H61783   1.118   3.375   8.434  1.4548  0.6765  0.5778
  458MOL0     H61784   1.038   3.081   8.475 -0.9009  2.2036  5.1686
  458MOL0     H61785   1.032   3.155   8.317  1.4292 -3.2642  1.6409
  458MOL0     H61786   0.893   3.332   8.379  2.3157 -0.2278  0.2902
  458MOL0     H61787   0.884   3.276   8.554 -0.2982 -0.1986  0.3564
  458MOL0     H61788   0.789   3.123   8.301 -0.4151 -2.2213 -0.3131
  458MOL0     H61789   0.678   3.217   8.397 -0.8912 -1.5109  0.4869
  458MOL0     H61790   0.536   3.119   8.307  1.2058 -0.6471  0.5472
  458MOL0     H61791   0.327   3.177   8.235 -1.1811  1.2624  0.1753
  458MOL0     H61792   0.186   3.061   8.271  0.9108 -0.9733  0.1245
  458MOL0     H61793   0.214   3.225   8.344 -0.2760  0.6973 -2.2377
  458MOL0     H61794  -0.106   2.823   8.564  1.6081 -0.2710  1.5668
  458MOL0     H61795  -0.321   2.865   8.609  2.1734 -4.4154  2.2233
  458MOL0     H61796  -0.454   2.855   8.814 -0.1460  0.6779 -0.9203
  458MOL0     H61797  -0.474   2.977   8.946  1.0869  1.0163 -0.9467
  458MOL0     H61798  -0.658   2.930   8.724  1.4536  2.3116 -0.6417
  458MOL0     H61799  -0.692   2.901   8.892 -1.1549  2.7363  3.0869
  458MOL0     H61800  -0.809   3.100   8.861 -0.4558  4.5453  0.1058
  458MOL0     H61801  -0.694   3.170   8.754  0.2802  0.7122  0.6135
  458MOL0     H61802  -0.634   3.133   9.038 -0.5692  1.5765  1.0098
  458MOL0     H61803  -0.547   3.223   8.913  0.7644  0.5088  0.1550
  458MOL0     H61804  -0.842   3.273   8.998 -1.4551  3.1804  0.5397
  458MOL0     H61805  -0.743   3.374   8.893  2.3038  0.4427  0.1587
  458MOL0     H61806  -0.698   3.327   9.197  3.6465  0.3319  0.2527
  458MOL0     H61807  -0.587   3.410   9.095  0.8117  0.3561 -0.8040
  458MOL0     H61808  -0.887   3.499   9.125  0.8779  1.3534  3.4011
  458MOL0     H61809  -0.746   3.583   9.033  3.8545  3.6415  3.1677
  458MOL0     H61810  -0.735   3.542   9.332  1.0706 -1.3662 -1.2284
  458MOL0     H61811  -0.805   3.690   9.252 -1.2950  0.0853  0.9672
  458MOL0     H61812  -0.198   3.175   8.901 -1.9905  0.3783 -0.4422
  458MOL0     H61813   0.035   3.117   8.857 -0.2739 -0.4770  0.6554
  458MOL0     H61814   0.350   2.908   8.710 -0.7695  3.6404  1.8333
  458MOL0     H61815   0.594   2.895   8.665 -1.2190 -3.3109 -0.4359
  458MOL0     H61816   0.945   2.640   8.880  1.0402  1.3494  1.7731
  458MOL0     H61817   0.719   2.716   9.002 -3.7343 -0.0648 -1.1953
  458MOL0     H61818   0.217   2.885   9.046  2.8040 -1.4499  3.1038
  458MOL0     H61819   0.061   3.041   9.159  0.4454  0.0563 -0.1046
  458MOL0     H61820   0.020   3.312   9.426 -0.3442  0.8672 -0.3815
  458MOL0     H61821   0.131   3.175   9.425  0.0143  0.5330  0.5141
  458MOL0     H61822   0.328   3.332   9.408 -0.2795 -1.4191  0.1960
  458MOL0     H61823   0.219   3.351   9.550  1.7933  0.6035  0.4065
  458MOL0     H61824   0.235   3.515   9.289  0.1363 -2.3849 -0.1870
  458MOL0     H61825   0.293   3.568   9.453 -0.5199 -0.8968  0.1591
  458MOL0     H61826   0.005   3.543   9.342  1.2559  4.7248 -2.7899
  458MOL0     H61827   0.080   3.680   9.403  1.4094  0.3766  1.5010
  458MOL0     H61828  -0.070   3.479   9.756 -1.2792 -1.7699 -1.1866
  458MOL0     H61829   0.347   3.332   9.195  0.2827  0.1289  1.9107
  458MOL0     H61830   0.531   3.183   9.077  0.2227  0.1039  0.2997
  459MOL0     O61831   5.829   6.808   5.776 -1.0766  0.0615  1.1942
  459MOL0     C61832   5.840   6.935   5.779  0.6758 -0.3596 -0.4914
  459MOL0     O61833   5.918   7.012   5.698 -0.2154 -0.2920  0.1821
  459MOL0     C61834   5.988   6.949   5.593 -0.6015 -0.6753  0.2070
  459MOL0     C61835   6.115   6.913   5.615 -1.5210  1.3606  1.3431
  459MOL0     C61836   6.184   6.849   5.512  1.1460 -0.4578 -0.1811
  459MOL0     C61837   6.128   6.843   5.378  0.2232 -0.3049 -0.4350
  459MOL0     O61838   6.188   6.820   5.259 -0.4067 -0.2672  0.3213
  459MOL0     C61839   6.331   6.791   5.251 -0.2418 -0.3211  0.2180
  459MOL0     C61840   6.353   6.723   5.113  0.4461 -0.4974  0.5176
  459MOL0     C61841   6.491   6.654   5.104 -0.3220 -0.0473 -0.1957
  459MOL0     C61842   6.560   6.642   4.972  0.1201  0.6062  0.2360
  459MOL0     C61843   6.689   6.566   4.989  0.1441  0.4733  0.3503
  459MOL0     C61844   6.766   6.554   4.850 -0.2262  0.2741 -0.5087
  459MOL0     C61845   6.900   6.486   4.864  0.1830 -0.5626  0.5807
  459MOL0     C61846   7.013   6.576   4.925 -0.2927 -0.7042 -0.5550
  459MOL0     N61847   7.143   6.522   4.936  0.1951  1.0972 -0.0135
  459MOL0     C61848   7.180   6.388   4.976  0.2658 -0.1220  0.4409
  459MOL0     C61849   7.317   6.380   4.957  1.1086 -0.3674 -0.5764
  459MOL0     C61850   7.414   6.276   4.980 -0.1379 -0.0373  0.2160
  459MOL0     C61851   7.375   6.141   4.903  0.3646  0.2615 -0.1046
  459MOL0     C61852   7.390   6.158   4.755  0.5046  0.2771  0.5310
  459MOL0     C61853   7.271   6.235   4.688 -0.6919  0.1834  0.4149
  459MOL0     O61854   7.149   6.163   4.715  0.9457 -0.2308  0.8121
  459MOL0     C61855   7.041   6.224   4.650 -0.2094 -0.5022 -0.3945
  459MOL0     C61856   6.914   6.188   4.703  0.1106  0.1890  0.2339
  459MOL0     C61857   6.795   6.233   4.642 -0.6086 -0.0538  0.6739
  459MOL0     C61858   6.672   6.199   4.716  0.6010  0.0069 -0.6538
  459MOL0     C61859   6.794   6.317   4.529  0.0754 -0.0445  0.8710
  459MOL0     C61860   6.673   6.354   4.451 -0.3715 -0.0438  0.4743
  459MOL0     O61861   6.687   6.481   4.389 -0.1697  0.4221 -0.0881
  459MOL0     C61862   6.584   6.510   4.307 -1.0940  0.1442 -0.0808
  459MOL0     C61863   6.557   6.432   4.197  0.1781  0.4206 -0.5305
  459MOL0     C61864   6.455   6.458   4.110 -0.4896 -0.0543 -0.2619
  459MOL0     C61865   6.377   6.561   4.139 -0.1545 -0.7363  0.6445
  459MOL0     O61866   6.275   6.581   4.049  0.5727  0.0421  0.4649
  459MOL0     C61867   6.160   6.506   4.085 -0.4021 -0.4805  0.7125
  459MOL0     C61868   6.079   6.473   3.959 -0.8635  0.2857  0.4472
  459MOL0     C61869   5.950   6.400   3.985  0.5010  0.3878  0.3566
  459MOL0     C61870   5.847   6.425   3.874 -0.4185 -0.1310 -0.8067
  459MOL0     C61871   5.781   6.568   3.885 -0.5613  0.2896  0.6929
  459MOL0     C61872   5.702   6.596   4.020  0.0595  0.0755 -0.3606
  459MOL0     C61873   5.602   6.709   4.006 -0.5523  0.1400 -0.4115
  459MOL0     C61874   5.573   6.790   4.135  1.8502 -0.5375 -1.2040
  459MOL0    Cl61875   5.493   6.694   4.263 -0.3730 -0.1306  0.3255
  459MOL0     C61876   6.398   6.652   4.243  0.4781  0.5096  0.6641
  459MOL0     C61877   6.514   6.626   4.324  0.0930 -0.2909  1.2536
  459MOL0     O61878   6.575   6.276   4.443  0.6026  0.2408 -0.3389
  459MOL0     C61879   6.925   6.361   4.487  0.5489  0.3895  0.9488
  459MOL0     C61880   7.043   6.318   4.546  0.2870 -0.4067  0.4241
  459MOL0     N61881   7.348   6.500   4.909  0.1678 -0.0632  1.0725
  459MOL0     N61882   7.254   6.587   4.896  0.1840 -0.8721  0.4250
  459MOL0     C61883   5.993   6.880   5.357  0.2922 -0.7633  0.2062
  459MOL0     C61884   5.931   6.938   5.470  0.1837 -0.7532  0.1484
  459MOL0     C61885   5.768   6.993   5.894 -0.0173 -0.0506  0.4779
  459MOL0     C61886   5.674   6.917   5.959 -0.4388  0.1518  0.4936
  459MOL0     C61887   5.628   6.966   6.082 -0.3979 -0.3545 -0.6412
  459MOL0     C61888   5.672   7.080   6.141 -0.8162  0.2389 -0.9772
  459MOL0     O61889   5.616   7.120   6.260  0.3313  0.2953 -0.0126
  459MOL0     C61890   5.683   7.207   6.357  0.2851  0.3538 -0.5621
  459MOL0     C61891   5.587   7.243   6.478 -1.0384  0.4418 -0.0501
  459MOL0     C61892   5.661   7.321   6.593  0.5906  0.5644 -0.5985
  459MOL0     C61893   5.566   7.412   6.673 -0.9575 -0.4795  0.4198
  459MOL0     C61894   5.655   7.517   6.746 -0.5439 -0.0548 -0.3302
  459MOL0     C61895   5.720   7.609   6.796 -0.5178  0.1493  0.9375
  459MOL0     C61896   5.764   7.161   6.076 -0.8638  0.0360 -0.4300
  459MOL0     C61897   5.801   7.120   5.945 -1.1685  0.0952 -0.7285
  459MOL0     H61898   6.159   6.933   5.713  0.1589  0.2968  0.8556
  459MOL0     H61899   6.288   6.825   5.533  1.9897  0.9123 -2.4371
  459MOL0     H61900   6.381   6.888   5.250 -0.1024 -0.3924  0.2455
  459MOL0     H61901   6.371   6.721   5.326 -0.1505 -2.0242 -1.3485
  459MOL0     H61902   6.265   6.666   5.081 -1.3573  3.7557 -3.2844
  459MOL0     H61903   6.350   6.804   5.039 -0.0809 -2.0764 -1.2780
  459MOL0     H61904   6.561   6.714   5.163  0.5292  2.0990 -3.1323
  459MOL0     H61905   6.487   6.562   5.162 -3.2565 -0.5237 -1.0014
  459MOL0     H61906   6.503   6.583   4.899 -1.3619  2.6754 -0.3504
  459MOL0     H61907   6.582   6.739   4.926  0.8718  1.2948  1.9508
  459MOL0     H61908   6.751   6.615   5.065 -0.9139  1.0082  0.8799
  459MOL0     H61909   6.651   6.466   5.011 -2.4889  0.7337 -2.3350
  459MOL0     H61910   6.724   6.492   4.770  3.8950 -0.1847 -2.6597
  459MOL0     H61911   6.780   6.657   4.813  0.0999 -0.1194 -1.5216
  459MOL0     H61912   6.883   6.402   4.931 -0.4986  0.6054  1.9174
  459MOL0     H61913   6.929   6.442   4.768 -0.7414 -0.9493  0.4631
  459MOL0     H61914   6.973   6.602   5.023  1.7214  1.1346 -0.1421
  459MOL0     H61915   7.010   6.661   4.856 -1.7368 -1.5934 -1.6209
  459MOL0     H61916   7.122   6.303   5.010  1.6457 -1.5019 -0.5428
  459MOL0     H61917   7.517   6.315   4.976  0.5999 -1.8502  0.5074
  459MOL0     H61918   7.385   6.240   5.079 -2.2479  1.2521  0.1223
  459MOL0     H61919   7.270   6.113   4.918  0.7168 -1.5803 -0.7789
  459MOL0     H61920   7.434   6.058   4.943 -0.1306  0.0362  0.1612
  459MOL0     H61921   7.407   6.060   4.708 -3.0010 -0.0066 -0.4462
  459MOL0     H61922   7.476   6.223   4.740  2.0250 -1.6368  0.4711
  459MOL0     H61923   7.289   6.232   4.580  0.8809 -0.3852  0.6743
  459MOL0     H61924   7.267   6.340   4.717 -2.0834  0.2442  0.1030
  459MOL0     H61925   6.909   6.127   4.793 -0.4153 -1.5200 -0.9038
  459MOL0     H61926   6.693   6.163   4.817 -2.1283  0.7710  0.2719
  459MOL0     H61927   6.603   6.284   4.716 -0.1428 -0.5384  1.3885
  459MOL0     H61928   6.630   6.108   4.673 -0.0522 -0.3093  0.6081
  459MOL0     H61929   6.621   6.345   4.187 -0.1902 -0.0502  1.0252
  459MOL0     H61930   6.430   6.400   4.022 -2.0358  2.8726 -1.8941
  459MOL0     H61931   6.186   6.422   4.150  1.5706 -0.9342 -0.5613
  459MOL0     H61932   6.108   6.586   4.138  0.3187  0.4848  0.0078
  459MOL0     H61933   6.060   6.567   3.907 -3.6143 -0.1716  0.5152
  459MOL0     H61934   6.135   6.423   3.879 -1.7410  0.7581 -0.4753
  459MOL0     H61935   5.904   6.440   4.076 -2.3330  0.7310 -1.1235
  459MOL0     H61936   5.970   6.293   3.988  0.6781  0.4056 -0.0751
  459MOL0     H61937   5.905   6.408   3.783  1.5820  1.8429 -0.0069
  459MOL0     H61938   5.758   6.363   3.883  1.1481 -2.3959  0.0174
  459MOL0     H61939   5.712   6.578   3.800 -1.3694  0.5620  1.3719
  459MOL0     H61940   5.863   6.639   3.872  1.1680 -1.7873 -0.3914
  459MOL0     H61941   5.645   6.507   4.046 -1.3220  0.6695 -1.2173
  459MOL0     H61942   5.772   6.607   4.104 -1.5577 -1.8216  1.3349
  459MOL0     H61943   5.503   6.675   3.977 -1.6106  1.6661  1.1829
  459MOL0     H61944   5.630   6.789   3.936 -1.5948  0.4720 -0.4604
  459MOL0     H61945   5.497   6.860   4.099  0.2833 -0.2876  2.2150
  459MOL0     H61946   5.666   6.840   4.161  0.1252  2.6964 -0.7898
  459MOL0     H61947   6.327   6.735   4.245 -0.7377 -0.4527 -0.6731
  459MOL0     H61948   6.535   6.701   4.400 -0.0426  1.3346 -0.2253
  459MOL0     H61949   6.931   6.424   4.398 -0.7584 -2.3934 -1.2789
  459MOL0     H61950   7.133   6.366   4.506 -1.2133  3.0233  0.8106
  459MOL0     H61951   5.938   6.859   5.266 -1.6024  1.0543  0.8608
  459MOL0     H61952   5.828   6.969   5.454 -0.3636 -3.0131 -1.1347
  459MOL0     H61953   5.640   6.818   5.928  3.0538 -1.4277  1.1949
  459MOL0     H61954   5.557   6.905   6.137 -0.0431 -1.2562 -1.1589
  459MOL0     H61955   5.774   7.154   6.386  1.3974  0.5581 -3.3001
  459MOL0     H61956   5.715   7.297   6.302 -1.0193  0.8128 -0.6039
  459MOL0     H61957   5.538   7.155   6.520 -1.6551  0.1383 -1.3657
  459MOL0     H61958   5.507   7.305   6.437 -1.2696  0.4737  0.4503
  459MOL0     H61959   5.749   7.378   6.561  2.8524 -0.9001  2.4862
  459MOL0     H61960   5.698   7.254   6.672  1.3499  1.6997  0.0346
  459MOL0     H61961   5.512   7.361   6.753 -2.9229 -0.4758 -0.8489
  459MOL0     H61962   5.486   7.455   6.612  0.1794 -1.2667 -1.7277
  459MOL0     H61963   5.792   7.676   6.839  1.9392 -2.3474  0.9809
  459MOL0     H61964   5.817   7.248   6.114  1.2826  0.4329 -3.9129
  459MOL0     H61965   5.876   7.175   5.889  1.1461  0.1761  2.2357
  460MOL0     O61966  11.085   6.561   7.386  0.0943  1.0874  0.0017
  460MOL0     C61967  11.149   6.575   7.284  0.1515  0.1622 -0.1324
  460MOL0     O61968  11.234   6.685   7.262 -0.4616 -0.0508  0.0708
  460MOL0     C61969  11.227   6.787   7.358  0.6495  0.2432  0.8402
  460MOL0     C61970  11.337   6.809   7.441 -0.1105 -0.1521 -0.5001
  460MOL0     C61971  11.326   6.906   7.537 -0.0781  0.5957 -0.5871
  460MOL0     C61972  11.205   6.973   7.556  0.6701 -0.0104 -0.7130
  460MOL0     O61973  11.174   7.062   7.650  0.0653  0.0381 -0.8042
  460MOL0     C61974  11.236   7.045   7.782 -0.8844 -0.3613 -0.2846
  460MOL0     C61975  11.185   7.164   7.864  0.9369  0.1607  0.5925
  460MOL0     C61976  11.034   7.149   7.898  0.6393  0.2917  0.8621
  460MOL0     C61977  10.996   7.279   7.970 -0.1528 -0.2830 -0.4687
  460MOL0     C61978  10.848   7.267   7.995  0.2403 -0.0365  0.2931
  460MOL0     C61979  10.813   7.390   8.074  0.0012 -1.0140 -0.6765
  460MOL0     C61980  10.680   7.405   8.119  0.1779 -0.8389  0.5349
  460MOL0     C61981  10.593   7.454   8.005 -0.4599  0.0208 -0.3795
  460MOL0     N61982  10.451   7.427   8.014  0.4585  0.3849 -0.0751
  460MOL0     C61983  10.352   7.440   7.916 -0.9976 -0.6675 -0.4799
  460MOL0     C61984  10.241   7.411   7.970 -0.2930  1.1039 -0.8948
  460MOL0     C61985  10.105   7.401   7.906  0.3061  0.0199  0.2555
  460MOL0     C61986  10.003   7.464   8.002 -0.4216 -0.4309  0.6684
  460MOL0     C61987   9.949   7.344   8.085  0.1575  0.1076  0.2337
  460MOL0     C61988   9.856   7.410   8.194 -0.0789 -0.9113  0.0431
  460MOL0     O61989   9.754   7.480   8.123  0.3152  0.6115  0.7794
  460MOL0     C61990   9.649   7.535   8.204  0.3039 -1.0107 -0.5909
  460MOL0     C61991   9.562   7.631   8.147 -1.1078  0.6493  0.5837
  460MOL0     C61992   9.469   7.702   8.220 -0.2357 -0.4242 -0.3453
  460MOL0     C61993   9.391   7.812   8.141  0.0043  0.4168  0.5121
  460MOL0     C61994   9.449   7.673   8.353  0.0679 -1.0413 -0.5411
  460MOL0     C61995   9.354   7.745   8.435 -0.4391 -0.4829 -0.7939
  460MOL0     O61996   9.391   7.769   8.570 -0.4679 -0.3069  0.0765
  460MOL0     C61997   9.336   7.876   8.639  0.3021  0.3571  0.0794
  460MOL0     C61998   9.302   7.992   8.572 -0.8967 -1.0158  0.1517
  460MOL0     C61999   9.258   8.104   8.642 -0.2839  0.5478  0.6800
  460MOL0     C62000   9.232   8.100   8.776  0.0132  0.4450  0.3944
  460MOL0     O62001   9.163   8.208   8.814 -0.2305  0.0720  0.2043
  460MOL0     C62002   9.137   8.213   8.957 -1.2332  0.2203  0.3714
  460MOL0     C62003   9.059   8.341   8.993  0.0876 -0.5228 -1.1037
  460MOL0     C62004   9.064   8.366   9.146  0.0185  0.5082  0.4589
  460MOL0     C62005   9.022   8.238   9.216 -0.6774  0.6718 -0.4728
  460MOL0     C62006   8.973   8.260   9.363 -0.3932  0.8343  0.3166
  460MOL0     C62007   9.022   8.141   9.455 -0.2899 -0.3420  0.2737
  460MOL0     C62008   9.172   8.116   9.471  0.0880  0.2833 -0.2627
  460MOL0     C62009   9.243   8.221   9.566 -0.1904 -0.2893  0.5478
  460MOL0    Cl62010   9.406   8.150   9.570  0.2948 -0.2948  0.0396
  460MOL0     C62011   9.268   7.983   8.847 -0.3257 -0.3308 -0.3260
  460MOL0     C62012   9.319   7.873   8.782 -0.3850  0.1996 -0.0214
  460MOL0     O62013   9.254   7.792   8.389 -0.2854  0.4094 -1.1848
  460MOL0     C62014   9.536   7.588   8.415 -0.0691 -0.1667  0.0195
  460MOL0     C62015   9.630   7.514   8.337 -0.5583 -0.7971 -0.2577
  460MOL0     N62016  10.266   7.380   8.105  0.0462 -0.9542 -0.2562
  460MOL0     N62017  10.392   7.395   8.132 -1.0309 -0.0991 -0.9078
  460MOL0     C62018  11.103   6.954   7.463 -0.7237 -0.9684 -0.1361
  460MOL0     C62019  11.111   6.858   7.374  0.2672 -0.2177 -0.1739
  460MOL0     C62020  11.139   6.471   7.174 -0.3875 -0.3604  0.3416
  460MOL0     C62021  11.180   6.501   7.041  0.3411  0.7618 -0.4230
  460MOL0     C62022  11.167   6.403   6.933 -0.0023  1.1656  1.0312
  460MOL0     C62023  11.112   6.273   6.960  0.8321 -0.0220 -0.1648
  460MOL0     O62024  11.119   6.166   6.873  0.1148 -0.0049  0.3286
  460MOL0     C62025  11.142   6.189   6.737 -0.0487  0.1721  0.3679
  460MOL0     C62026  11.112   6.063   6.656  0.0243 -0.4120  0.6500
  460MOL0     C62027  11.089   6.112   6.509 -0.7046  0.1168  0.3394
  460MOL0     C62028  11.074   5.998   6.410  0.3091  0.6459  0.7377
  460MOL0     C62029  10.956   5.909   6.442 -0.0941  0.8378  0.5674
  460MOL0     C62030  10.851   5.849   6.481 -0.7709 -0.3318  0.3353
  460MOL0     C62031  11.067   6.247   7.093  0.3198  1.1955  0.5247
  460MOL0     C62032  11.086   6.347   7.192 -0.2980  0.0281 -0.5915
  460MOL0     H62033  11.429   6.756   7.419  0.5947 -0.1775  2.1382
  460MOL0     H62034  11.422   6.921   7.586 -1.7444  1.0155  2.8209
  460MOL0     H62035  11.215   6.948   7.828 -0.4024 -0.9475 -1.2801
  460MOL0     H62036  11.345   7.053   7.773 -0.4467 -2.1122  2.2215
  460MOL0     H62037  11.243   7.162   7.957 -0.6687 -1.5337  1.6224
  460MOL0     H62038  11.199   7.245   7.792  2.0878 -0.0634  0.5450
  460MOL0     H62039  10.968   7.135   7.812 -1.5177 -3.2130  2.8423
  460MOL0     H62040  11.018   7.055   7.951  1.1007 -0.1821  0.1728
  460MOL0     H62041  11.049   7.282   8.066 -0.3182  1.3206 -0.4084
  460MOL0     H62042  11.020   7.367   7.910  1.4635  0.5359  1.2456
  460MOL0     H62043  10.790   7.276   7.903  1.9252 -2.5812 -1.1569
  460MOL0     H62044  10.822   7.180   8.055 -2.1564  0.5854  0.2500
  460MOL0     H62045  10.868   7.389   8.169 -1.7793  2.1450  0.5195
  460MOL0     H62046  10.852   7.478   8.022  2.1124 -1.9078 -0.7489
  460MOL0     H62047  10.640   7.310   8.154  1.0267 -1.2242  0.4758
  460MOL0     H62048  10.691   7.474   8.203  1.2883 -1.1781  0.6767
  460MOL0     H62049  10.630   7.402   7.916  0.4267 -0.3788  0.2084
  460MOL0     H62050  10.596   7.562   7.986 -4.2638  0.7855  2.1866
  460MOL0     H62051  10.373   7.458   7.811 -0.9114 -0.3005 -0.4032
  460MOL0     H62052  10.103   7.455   7.810  0.2119 -0.7616 -0.1851
  460MOL0     H62053  10.084   7.299   7.875  1.2985 -0.1620  0.1249
  460MOL0     H62054   9.925   7.509   7.940  1.1605 -0.2876 -1.3279
  460MOL0     H62055  10.038   7.549   8.061  0.5263  0.1896 -0.7328
  460MOL0     H62056  10.028   7.281   8.128 -1.3333 -3.2627 -1.5973
  460MOL0     H62057   9.895   7.279   8.017  2.0758 -1.7968  0.4314
  460MOL0     H62058   9.919   7.485   8.241 -1.7902  0.7861 -0.2557
  460MOL0     H62059   9.813   7.336   8.263 -0.1338  0.5099  1.5885
  460MOL0     H62060   9.589   7.664   8.047  2.8796 -1.5522  0.7157
  460MOL0     H62061   9.401   7.910   8.189  2.1744  0.3024  0.4128
  460MOL0     H62062   9.416   7.827   8.036  0.8807 -0.0693  0.6377
  460MOL0     H62063   9.288   7.777   8.153  0.2614 -0.1720  1.0890
  460MOL0     H62064   9.344   7.996   8.472  4.2506 -3.5639  1.8774
  460MOL0     H62065   9.224   8.191   8.586  2.0080  1.2668  0.3182
  460MOL0     H62066   9.079   8.128   8.993 -0.9884 -0.1910 -0.1890
  460MOL0     H62067   9.224   8.213   9.023 -1.3307 -1.2369  0.5232
  460MOL0     H62068   9.104   8.431   8.952 -0.8846  2.3101  3.2926
  460MOL0     H62069   8.954   8.322   8.969 -1.3420 -1.9674  4.7150
  460MOL0     H62070   8.995   8.449   9.165 -1.5296 -0.9277  1.5001
  460MOL0     H62071   9.168   8.389   9.170  0.6221  0.9374 -2.2548
  460MOL0     H62072   8.935   8.190   9.170 -3.3252  1.3869  3.3836
  460MOL0     H62073   9.101   8.162   9.212 -1.2539  0.1126 -2.0198
  460MOL0     H62074   8.867   8.282   9.350 -0.3720  1.7042  1.4850
  460MOL0     H62075   9.026   8.341   9.412 -0.4121  1.3053 -0.4250
  460MOL0     H62076   8.973   8.139   9.552 -0.3392  0.2449  0.2634
  460MOL0     H62077   8.992   8.048   9.404 -1.2156 -0.6028  1.2690
  460MOL0     H62078   9.222   8.111   9.374  2.9805 -3.4553  1.2039
  460MOL0     H62079   9.194   8.016   9.510  1.3878 -0.5572 -2.8861
  460MOL0     H62080   9.193   8.213   9.663 -1.9403 -2.5783 -0.4524
  460MOL0     H62081   9.237   8.327   9.540  0.7774 -0.1309  0.9201
  460MOL0     H62082   9.257   7.975   8.954 -1.0431  1.2086 -0.2670
  460MOL0     H62083   9.344   7.780   8.832  0.2797  0.7072  0.6002
  460MOL0     H62084   9.524   7.565   8.520  1.1911  0.2352  0.2670
  460MOL0     H62085   9.688   7.439   8.390  0.9917  1.8503  1.9936
  460MOL0     H62086  11.009   7.007   7.474  0.4683  2.0465 -2.7554
  460MOL0     H62087  11.028   6.861   7.303 -1.8286 -1.4042  2.0589
  460MOL0     H62088  11.204   6.603   7.015 -0.7411  0.9485 -0.7353
  460MOL0     H62089  11.208   6.422   6.835  0.9253 -0.5447  1.0469
  460MOL0     H62090  11.075   6.267   6.700 -0.5943  0.7803  2.4885
  460MOL0     H62091  11.248   6.214   6.728 -0.0848  0.2152  0.0533
  460MOL0     H62092  11.027   6.010   6.702  1.2302 -3.4362 -0.3291
  460MOL0     H62093  11.195   5.993   6.649 -0.7602 -1.1742 -2.4468
  460MOL0     H62094  11.178   6.167   6.476 -0.6936 -0.4925 -0.6727
  460MOL0     H62095  10.999   6.172   6.491 -1.2755 -1.0355 -0.7681
  460MOL0     H62096  11.163   5.935   6.406 -0.7718 -0.9832  1.3013
  460MOL0     H62097  11.055   6.035   6.309  0.6110  0.6693  0.6908
  460MOL0     H62098  10.784   5.788   6.538  1.2209  0.0092  3.2606
  460MOL0     H62099  11.031   6.148   7.116  1.0674  0.7887 -0.0143
  460MOL0     H62100  11.065   6.316   7.294  0.6558  1.3998  0.0492
  461MOL0     O62101   6.722   6.338   3.376  0.1688  0.0217 -0.1561
  461MOL0     C62102   6.697   6.410   3.280 -1.4344  0.1650 -0.4730
  461MOL0     O62103   6.574   6.436   3.232  0.1375 -0.6855 -0.0475
  461MOL0     C62104   6.458   6.398   3.290 -0.3956 -0.1942 -0.5864
  461MOL0     C62105   6.346   6.460   3.246  0.2464 -0.3500  0.0889
  461MOL0     C62106   6.214   6.442   3.294  0.0541  0.5597 -0.1848
  461MOL0     C62107   6.200   6.360   3.411 -1.0838  0.4640  0.1758
  461MOL0     O62108   6.084   6.340   3.480 -0.1455 -0.8333 -0.2643
  461MOL0     C62109   5.968   6.323   3.404  1.1570 -1.0311  0.2067
  461MOL0     C62110   5.849   6.285   3.486  0.3799  0.0801  0.5935
  461MOL0     C62111   5.735   6.254   3.390 -1.0981 -0.3172 -0.1295
  461MOL0     C62112   5.732   6.100   3.360  0.2881  0.1506  0.1415
  461MOL0     C62113   5.645   6.079   3.230 -0.2453 -0.6487  0.5200
  461MOL0     C62114   5.660   5.938   3.187  0.2403  0.6116 -0.2555
  461MOL0     C62115   5.582   5.894   3.070 -0.1657  0.2589  0.1424
  461MOL0     C62116   5.625   5.762   3.023  0.4853  0.6232  0.3498
  461MOL0     N62117   5.754   5.775   2.944  0.5034 -0.3279 -0.5525
  461MOL0     C62118   5.743   5.824   2.818 -0.1538  0.3759 -0.1858
  461MOL0     C62119   5.870   5.853   2.790  0.3901  0.5324  0.0292
  461MOL0     C62120   5.927   5.920   2.669  0.6390 -0.6412 -0.2293
  461MOL0     C62121   5.887   6.064   2.653  0.5247 -0.7827  0.2940
  461MOL0     C62122   5.976   6.133   2.547 -0.0285 -0.9613 -0.1631
  461MOL0     C62123   5.958   6.280   2.572  1.3123  0.4494  0.5010
  461MOL0     O62124   5.974   6.357   2.447  0.4583 -0.0184 -0.0114
  461MOL0     C62125   6.084   6.439   2.449  0.8246 -0.7436 -0.2990
  461MOL0     C62126   6.185   6.407   2.355  0.8594 -0.4830 -0.4845
  461MOL0     C62127   6.305   6.472   2.354  0.9847  0.0480 -0.1771
  461MOL0     C62128   6.409   6.400   2.261 -0.5186 -0.0211 -0.8749
  461MOL0     C62129   6.325   6.574   2.454 -0.8644  0.3192 -0.6546
  461MOL0     C62130   6.463   6.635   2.469 -0.0433  1.7255 -0.2730
  461MOL0     O62131   6.556   6.605   2.374 -0.4426 -1.2246 -0.8007
  461MOL0     C62132   6.687   6.620   2.401 -0.2043 -0.3366 -0.1767
  461MOL0     C62133   6.779   6.715   2.350 -0.2888 -0.0215  0.1438
  461MOL0     C62134   6.917   6.724   2.368  0.0200  0.0762  0.0808
  461MOL0     C62135   6.973   6.622   2.450  0.2653  0.5083 -0.2335
  461MOL0     O62136   7.111   6.608   2.470  0.5171  0.1295  0.9343
  461MOL0     C62137   7.183   6.657   2.354  0.1755 -0.4412  0.1103
  461MOL0     C62138   7.322   6.595   2.350  0.9546 -0.1820  0.4084
  461MOL0     C62139   7.385   6.611   2.486  0.3851  0.5122 -0.1762
  461MOL0     C62140   7.521   6.551   2.484 -0.1605  0.3844  0.2852
  461MOL0     C62141   7.572   6.557   2.625  0.0695  0.5530 -0.6182
  461MOL0     C62142   7.717   6.501   2.649  0.1771  0.2116 -0.1242
  461MOL0     C62143   7.826   6.582   2.581  0.5501 -0.5326 -0.4722
  461MOL0     C62144   7.836   6.720   2.637 -0.6809  0.3046  0.8039
  461MOL0    Cl62145   7.983   6.798   2.579  0.0459  0.1841 -0.0888
  461MOL0     C62146   6.883   6.538   2.517  0.3723  0.2392  0.2492
  461MOL0     C62147   6.747   6.532   2.493  0.2584 -0.3641  0.8932
  461MOL0     O62148   6.483   6.707   2.572 -0.5775  0.7284  0.2879
  461MOL0     C62149   6.222   6.618   2.538  0.2296 -0.4830  0.0528
  461MOL0     C62150   6.096   6.549   2.526 -0.5283  0.3356  0.2106
  461MOL0     N62151   5.950   5.797   2.890 -0.7646 -0.3500  0.0501
  461MOL0     N62152   5.881   5.753   2.987 -0.0153  0.3837  0.7143
  461MOL0     C62153   6.313   6.283   3.451 -0.7677  0.2380  0.3162
  461MOL0     C62154   6.433   6.296   3.386  0.2807 -0.3471  0.4762
  461MOL0     C62155   6.819   6.440   3.191 -0.1051  0.2011 -0.1366
  461MOL0     C62156   6.944   6.417   3.239 -0.6604  0.2359 -0.2295
  461MOL0     C62157   7.053   6.453   3.162 -0.8746  0.6388  0.2880
  461MOL0     C62158   7.039   6.505   3.032  0.4114 -0.4365  0.0852
  461MOL0     O62159   7.148   6.525   2.949 -0.6058 -0.2760  0.8603
  461MOL0     C62160   7.277   6.512   3.003  0.0195  0.0741 -0.8323
  461MOL0     C62161   7.321   6.649   3.075 -0.0523 -0.3005  0.0025
  461MOL0     C62162   7.475   6.665   3.098  0.4867  0.8065 -0.0944
  461MOL0     C62163   7.561   6.648   2.977 -0.1981  0.5117 -0.5325
  461MOL0     C62164   7.696   6.678   3.019  0.3174  0.2559  0.9049
  461MOL0     C62165   7.816   6.708   3.043  1.2146 -0.0862  0.2224
  461MOL0     C62166   6.913   6.519   2.981  0.1799 -0.6407  0.9496
  461MOL0     C62167   6.801   6.489   3.064  0.8253 -0.7018  0.6446
  461MOL0     H62168   6.357   6.529   3.163 -0.0856 -0.5149 -0.0951
  461MOL0     H62169   6.136   6.508   3.257  1.3043  1.3178 -1.6158
  461MOL0     H62170   5.953   6.413   3.343  0.0424 -0.8275  0.7517
  461MOL0     H62171   5.991   6.240   3.337  0.2953  0.2599 -1.7960
  461MOL0     H62172   5.878   6.204   3.553 -0.4554 -0.9239 -0.2098
  461MOL0     H62173   5.823   6.360   3.560  2.2408 -1.8760  3.4196
  461MOL0     H62174   5.649   6.283   3.450 -1.7243 -3.4861  0.7048
  461MOL0     H62175   5.747   6.314   3.300  4.0415 -1.2012 -0.3413
  461MOL0     H62176   5.834   6.061   3.359 -0.0729 -1.3513  4.4851
  461MOL0     H62177   5.691   6.041   3.441  0.5861 -4.1610 -2.5477
  461MOL0     H62178   5.540   6.102   3.248 -1.5701 -0.6824 -5.2936
  461MOL0     H62179   5.680   6.147   3.151 -3.4389 -1.5931 -1.9089
  461MOL0     H62180   5.765   5.915   3.171  0.5092 -2.8272  4.1356
  461MOL0     H62181   5.635   5.870   3.270 -2.2985 -0.4525 -1.7536
  461MOL0     H62182   5.475   5.896   3.093  0.4045 -1.0299  3.3711
  461MOL0     H62183   5.583   5.970   2.991 -2.8793  0.6520  0.3754
  461MOL0     H62184   5.545   5.717   2.963  1.5335 -1.5102  0.4534
  461MOL0     H62185   5.637   5.694   3.107  0.5446 -0.0399 -0.1864
  461MOL0     H62186   5.654   5.850   2.762 -1.0555 -3.1113 -0.5860
  461MOL0     H62187   6.036   5.923   2.683  0.6407  2.1214 -0.2859
  461MOL0     H62188   5.902   5.851   2.587  2.4189 -1.2301 -0.3327
  461MOL0     H62189   5.905   6.111   2.750  0.2494 -1.0788  0.4907
  461MOL0     H62190   5.780   6.075   2.635  0.7536 -0.9639 -1.4390
  461MOL0     H62191   5.953   6.106   2.443  2.9513 -0.6018 -1.0063
  461MOL0     H62192   6.081   6.110   2.568  0.2887  2.1423  2.4705
  461MOL0     H62193   6.020   6.314   2.656  1.4420 -2.3129  1.5983
  461MOL0     H62194   5.851   6.281   2.594  0.9763 -0.5283 -0.9740
  461MOL0     H62195   6.172   6.337   2.274  0.1892  1.3561 -2.0511
  461MOL0     H62196   6.501   6.368   2.311 -1.7061  0.3817  1.7561
  461MOL0     H62197   6.371   6.312   2.208 -0.8072 -1.4074  1.4590
  461MOL0     H62198   6.422   6.473   2.180  3.6415  0.1105 -0.2830
  461MOL0     H62199   6.740   6.782   2.274  0.8663 -1.2600 -1.6420
  461MOL0     H62200   6.978   6.806   2.331  1.2280  0.5774  2.9491
  461MOL0     H62201   7.134   6.641   2.258  1.2061  0.5686 -0.6112
  461MOL0     H62202   7.203   6.763   2.369 -1.6846  0.3052 -2.1885
  461MOL0     H62203   7.297   6.496   2.310 -1.8941  0.4362  0.3795
  461MOL0     H62204   7.381   6.644   2.272  1.5941 -3.2610 -1.1933
  461MOL0     H62205   7.319   6.557   2.554 -0.7043  1.7225 -0.2215
  461MOL0     H62206   7.383   6.718   2.509 -0.6330  0.6038 -0.5984
  461MOL0     H62207   7.524   6.444   2.464  0.6628  0.4533 -0.0150
  461MOL0     H62208   7.588   6.597   2.410 -0.8523  1.6916  0.4337
  461MOL0     H62209   7.514   6.494   2.692  0.8342 -2.4307 -2.5945
  461MOL0     H62210   7.563   6.659   2.664 -0.2757 -0.5875  2.5436
  461MOL0     H62211   7.745   6.493   2.755 -1.7365 -0.9007  0.3325
  461MOL0     H62212   7.716   6.397   2.615 -2.0612 -0.0642  0.6133
  461MOL0     H62213   7.797   6.588   2.476 -1.1432  2.0535  0.0537
  461MOL0     H62214   7.923   6.539   2.606  0.9813  1.4220  1.6028
  461MOL0     H62215   7.834   6.704   2.745 -0.7210  2.0154  1.0747
  461MOL0     H62216   7.749   6.782   2.616  1.7713  5.0339  2.9815
  461MOL0     H62217   6.943   6.491   2.595  1.4879  2.7144  0.9745
  461MOL0     H62218   6.679   6.460   2.538 -2.1667  0.0778 -1.7509
  461MOL0     H62219   6.236   6.697   2.611 -0.7250  0.4958 -0.7773
  461MOL0     H62220   6.021   6.585   2.597  1.6473  0.3479  2.6680
  461MOL0     H62221   6.305   6.209   3.530 -0.8372 -2.1378 -1.7952
  461MOL0     H62222   6.522   6.238   3.409  1.3664  1.3163  0.6433
  461MOL0     H62223   6.948   6.382   3.342  0.5924 -3.5535 -1.3969
  461MOL0     H62224   7.152   6.445   3.207  0.4846 -0.5514 -2.6896
  461MOL0     H62225   7.291   6.417   3.055  0.9592  0.0595 -1.0920
  461MOL0     H62226   7.346   6.506   2.918  2.2481 -0.4177  0.9257
  461MOL0     H62227   7.264   6.664   3.167  0.3873  3.1020 -0.1673
  461MOL0     H62228   7.291   6.738   3.020  0.0759 -1.0367 -1.3170
  461MOL0     H62229   7.512   6.605   3.182 -0.8981  0.3449  0.2270
  461MOL0     H62230   7.468   6.765   3.140 -1.5906  0.1332  1.3199
  461MOL0     H62231   7.526   6.723   2.905 -2.1464 -0.9822 -1.2567
  461MOL0     H62232   7.551   6.546   2.938 -1.1140  0.2474  0.3465
  461MOL0     H62233   7.918   6.738   3.055  0.6446  1.1038  2.9796
  461MOL0     H62234   6.903   6.552   2.878  0.2864 -0.1029  1.1140
  461MOL0     H62235   6.699   6.503   3.029  2.0849  1.3070 -2.7681
  462MOL0     O62236   7.110  10.686   7.096 -0.4604  0.5400 -0.1279
  462MOL0     C62237   7.199  10.603   7.100  0.4522  0.6026  0.9074
  462MOL0     O62238   7.202  10.507   7.191 -0.3069  0.5083 -0.7049
  462MOL0     C62239   7.130  10.515   7.305  0.2557 -0.4223  0.7078
  462MOL0     C62240   7.169  10.604   7.407  0.5788 -0.1750  0.1321
  462MOL0     C62241   7.081  10.633   7.509 -0.4582  0.2292 -0.2035
  462MOL0     C62242   6.960  10.563   7.521  0.5488  0.2702 -0.4155
  462MOL0     O62243   6.881  10.566   7.633  0.4257  0.1105  0.0646
  462MOL0     C62244   6.932  10.587   7.759  0.1230 -0.4328 -0.3957
  462MOL0     C62245   6.856  10.515   7.877  0.9744  0.1582  1.4538
  462MOL0     C62246   6.886  10.359   7.872  0.3068 -0.1268 -0.0832
  462MOL0     C62247   6.799  10.286   7.974 -0.3127  0.4524 -0.3212
  462MOL0     C62248   6.877  10.164   8.025 -0.0415 -0.0076 -0.1709
  462MOL0     C62249   6.777  10.071   8.089 -0.0179  0.5268  0.0859
  462MOL0     C62250   6.683  10.014   7.992  0.1732  0.1706 -0.0987
  462MOL0     C62251   6.612   9.892   8.056 -0.5598 -0.4678  0.8848
  462MOL0     N62252   6.514   9.833   7.961 -0.0386 -1.1841 -0.2476
  462MOL0     C62253   6.396   9.891   7.948  0.2987 -0.7266 -0.2006
  462MOL0     C62254   6.337   9.815   7.851 -0.1494 -0.5835  1.1688
  462MOL0     C62255   6.203   9.860   7.797 -0.3619  0.7006  0.9755
  462MOL0     C62256   6.102   9.913   7.897  0.1056  0.2951  0.3881
  462MOL0     C62257   5.968   9.929   7.826  0.3121 -0.1680 -1.1406
  462MOL0     C62258   5.866   9.993   7.913 -0.4359 -0.2601  0.3325
  462MOL0     O62259   5.829   9.908   8.018  0.4405  0.2779 -0.5227
  462MOL0     C62260   5.746   9.958   8.121  0.5173  0.3013  0.4504
  462MOL0     C62261   5.679  10.078   8.109  0.0822  0.5796  0.0630
  462MOL0     C62262   5.603  10.123   8.215 -1.6115  0.2538 -0.2232
  462MOL0     C62263   5.547  10.261   8.206  0.5364 -0.2942 -0.2915
  462MOL0     C62264   5.579  10.032   8.323 -0.4000 -0.3046 -0.2458
  462MOL0     C62265   5.499  10.072   8.436  0.7658  1.2845 -0.3348
  462MOL0     O62266   5.378   9.996   8.468  0.0628 -0.2041 -0.2028
  462MOL0     C62267   5.310  10.010   8.591 -0.6610  0.5237 -0.3105
  462MOL0     C62268   5.353   9.960   8.710 -0.3082 -1.0433 -0.1087
  462MOL0     C62269   5.261   9.981   8.826 -1.2811  0.0549  0.6811
  462MOL0     C62270   5.141  10.050   8.807  0.7624 -2.1281  0.3063
  462MOL0     O62271   5.058  10.059   8.912 -0.5937  0.4729  0.2396
  462MOL0     C62272   4.922  10.022   8.884  0.9195  0.5948  1.3774
  462MOL0     C62273   4.891   9.869   8.894 -0.0325 -0.0034 -0.8504
  462MOL0     C62274   4.836   9.826   9.030  0.6076 -0.1324 -0.1942
  462MOL0     C62275   4.686   9.856   9.043 -0.0847  0.4807 -0.1115
  462MOL0     C62276   4.626   9.821   9.182 -0.0172  1.1668 -1.0766
  462MOL0     C62277   4.471   9.832   9.190  0.0822 -0.6552  0.4322
  462MOL0     C62278   4.419   9.846   9.329  0.9096 -0.1221  0.3451
  462MOL0     C62279   4.273   9.884   9.330 -0.0441 -0.2112 -0.5287
  462MOL0    Cl62280   4.265  10.055   9.284  0.1490  0.2318  0.5978
  462MOL0     C62281   5.102  10.099   8.681  1.0170  0.8225  0.7479
  462MOL0     C62282   5.188  10.074   8.576 -0.3363 -0.6874  0.4466
  462MOL0     O62283   5.540  10.169   8.507  0.0587  0.4831 -0.6147
  462MOL0     C62284   5.646   9.912   8.336  0.0249  0.3158  0.1050
  462MOL0     C62285   5.723   9.871   8.226  0.4627  0.8063 -0.1529
  462MOL0     N62286   6.425   9.717   7.806 -0.6645 -0.4478 -0.8709
  462MOL0     N62287   6.536   9.736   7.871  0.4155 -0.0978 -0.9001
  462MOL0     C62288   6.924  10.473   7.421  0.8472  0.9693  0.2934
  462MOL0     C62289   7.010  10.452   7.312  0.1664  1.4704  0.0162
  462MOL0     C62290   7.291  10.582   6.987 -0.3595 -0.0538 -1.0623
  462MOL0     C62291   7.305  10.685   6.888 -0.0069  0.1392  0.5470
  462MOL0     C62292   7.405  10.679   6.793  0.1949 -0.3915 -0.4564
  462MOL0     C62293   7.487  10.573   6.781  0.7525 -0.2932  0.1141
  462MOL0     O62294   7.579  10.556   6.678  0.6273 -0.0421 -0.0341
  462MOL0     C62295   7.610  10.674   6.600  0.3768 -0.6731 -0.2803
  462MOL0     C62296   7.737  10.632   6.516 -0.9266 -0.2719  0.7386
  462MOL0     C62297   7.779  10.728   6.409  0.7076 -0.2068  0.0724
  462MOL0     C62298   7.921  10.707   6.351  0.1662 -0.0045  0.3159
  462MOL0     C62299   7.934  10.578   6.282  0.5165  0.4679  0.5820
  462MOL0     C62300   7.934  10.470   6.230 -0.5593  0.0657  0.5743
  462MOL0     C62301   7.473  10.468   6.869  1.1612  0.1913  0.4518
  462MOL0     C62302   7.380  10.471   6.973 -0.2919 -0.1285 -0.0007
  462MOL0     H62303   7.259  10.665   7.413  1.0132 -0.8963  1.4667
  462MOL0     H62304   7.107  10.713   7.578 -4.1290  1.6744 -0.2559
  462MOL0     H62305   7.037  10.560   7.774  0.2665  1.1002  1.9597
  462MOL0     H62306   6.930  10.696   7.774  0.2760 -0.7969  3.1768
  462MOL0     H62307   6.900  10.556   7.969 -2.1377  1.9476  2.2916
  462MOL0     H62308   6.749  10.534   7.887  0.5125 -2.0290  1.1114
  462MOL0     H62309   6.873  10.314   7.773 -0.2274 -2.5859  1.0123
  462MOL0     H62310   6.993  10.349   7.890 -0.0899 -0.6248  2.3625
  462MOL0     H62311   6.768  10.346   8.060 -2.7736  1.2730 -1.6948
  462MOL0     H62312   6.703  10.273   7.924 -0.6204  2.2757 -0.2701
  462MOL0     H62313   6.916  10.110   7.939  2.3291 -1.1923  1.5345
  462MOL0     H62314   6.967  10.191   8.080  0.3344  1.1080 -1.3145
  462MOL0     H62315   6.835   9.992   8.137  0.0616 -0.3336 -1.3508
  462MOL0     H62316   6.720  10.119   8.169 -1.7639  2.5415 -2.2219
  462MOL0     H62317   6.606  10.088   7.970  0.8659  2.3589  3.8817
  462MOL0     H62318   6.719   9.966   7.900 -0.8557 -1.8497  0.4787
  462MOL0     H62319   6.576   9.925   8.154  4.3443  2.4070  2.0746
  462MOL0     H62320   6.685   9.816   8.084 -0.8837 -1.4787 -0.8999
  462MOL0     H62321   6.354   9.975   8.002  1.5308 -2.4270  3.7267
  462MOL0     H62322   6.219   9.930   7.715 -0.7310 -0.1365  0.1679
  462MOL0     H62323   6.162   9.772   7.747  0.8747  0.7525 -0.1842
  462MOL0     H62324   6.140   9.999   7.951 -0.3581  0.7042  0.0714
  462MOL0     H62325   6.086   9.828   7.964  1.3668 -0.9500 -0.8129
  462MOL0     H62326   5.927   9.831   7.802  0.5284 -0.4522 -0.3913
  462MOL0     H62327   5.973   9.993   7.738 -1.3678  1.8086  0.0912
  462MOL0     H62328   5.785   9.991   7.840  1.3402 -1.3300 -1.7077
  462MOL0     H62329   5.898  10.095   7.937 -1.5355 -0.0479  0.9784
  462MOL0     H62330   5.694  10.152   8.031 -1.0358  1.5109  0.6933
  462MOL0     H62331   5.619  10.344   8.211  0.5891  0.1680 -4.4892
  462MOL0     H62332   5.477  10.266   8.122  0.9030 -1.4045 -0.6754
  462MOL0     H62333   5.486  10.282   8.294  0.0618 -0.1506 -0.6482
  462MOL0     H62334   5.442   9.899   8.718  1.0314  1.0114  1.7731
  462MOL0     H62335   5.285   9.946   8.926  1.9225 -2.5758 -0.8184
  462MOL0     H62336   4.858  10.082   8.950 -0.0519  2.5480 -1.1569
  462MOL0     H62337   4.904  10.047   8.779 -1.1138 -1.4154  1.1788
  462MOL0     H62338   4.817   9.840   8.819 -0.3191  0.6184 -0.8183
  462MOL0     H62339   4.984   9.820   8.864  1.3015  3.1454 -2.2761
  462MOL0     H62340   4.878   9.882   9.114 -0.5819 -1.4364  1.3450
  462MOL0     H62341   4.834   9.718   9.047 -0.5788 -0.0071  0.6062
  462MOL0     H62342   4.666   9.962   9.025 -2.0707 -0.0204 -1.0991
  462MOL0     H62343   4.625   9.806   8.968 -0.2250  2.6305 -1.5184
  462MOL0     H62344   4.671   9.887   9.256  0.2247 -0.8024  0.6285
  462MOL0     H62345   4.646   9.716   9.204 -1.3956  1.1286  0.1920
  462MOL0     H62346   4.436   9.919   9.133 -0.5001 -0.0158  1.7119
  462MOL0     H62347   4.429   9.744   9.140  2.1197 -0.8942 -0.9619
  462MOL0     H62348   4.477   9.918   9.387 -0.2880  1.9014 -0.8438
  462MOL0     H62349   4.423   9.745   9.371 -1.8382 -0.8914 -0.9810
  462MOL0     H62350   4.238   9.881   9.434  1.5612  0.9141  0.1014
  462MOL0     H62351   4.210   9.820   9.269 -1.1277 -1.3402  1.6562
  462MOL0     H62352   5.016  10.164   8.668  0.1704 -0.7289 -2.2446
  462MOL0     H62353   5.173  10.119   8.479  2.3062 -0.7301 -0.0616
  462MOL0     H62354   5.632   9.844   8.419 -1.1495 -3.7449 -3.0598
  462MOL0     H62355   5.763   9.770   8.225 -1.6545 -0.0963 -1.9633
  462MOL0     H62356   6.831  10.417   7.416  1.0791  0.6496 -0.8105
  462MOL0     H62357   6.989  10.404   7.216  0.8093  0.8671  0.1651
  462MOL0     H62358   7.239  10.771   6.884 -0.3947  0.0255  2.8022
  462MOL0     H62359   7.395  10.760   6.721 -0.5291 -1.5802 -1.7297
  462MOL0     H62360   7.527  10.707   6.536 -0.1187  0.0646  0.7055
  462MOL0     H62361   7.628  10.764   6.660 -1.7619 -0.6388  0.3885
  462MOL0     H62362   7.716  10.536   6.469  1.9047  0.4707 -2.5479
  462MOL0     H62363   7.823  10.615   6.582  0.7047 -0.1071 -1.2384
  462MOL0     H62364   7.768  10.829   6.451 -2.4180 -0.9564  1.4027
  462MOL0     H62365   7.703  10.723   6.330  0.9388 -0.7610 -0.1144
  462MOL0     H62366   7.980  10.713   6.442 -0.1506 -1.9113  0.6883
  462MOL0     H62367   7.957  10.781   6.279  1.1420 -0.2022  0.5955
  462MOL0     H62368   7.936  10.369   6.196  0.6636  0.5185 -0.8055
  462MOL0     H62369   7.535  10.382   6.846  0.6179 -0.1297  0.1613
  462MOL0     H62370   7.364  10.392   7.045  2.8792 -1.5890 -0.7028
  463MOL0     O62371   6.144   4.150   2.782 -0.3544 -0.2157 -0.0574
  463MOL0     C62372   6.226   4.060   2.746  0.1183  0.5098 -0.4069
  463MOL0     O62373   6.206   3.978   2.639  1.0196 -0.3175 -0.0494
  463MOL0     C62374   6.091   3.976   2.563 -0.3469  0.1301 -0.2567
  463MOL0     C62375   6.016   4.088   2.511  0.2697  0.4545 -1.0300
  463MOL0     C62376   5.895   4.062   2.446  0.6840 -0.5279  0.4535
  463MOL0     C62377   5.856   3.933   2.425  0.9031  0.3512  0.7772
  463MOL0     O62378   5.734   3.902   2.369  0.4407 -0.0363  0.1303
  463MOL0     C62379   5.628   4.010   2.357  0.5330  1.0081 -1.4529
  463MOL0     C62380   5.628   4.119   2.246 -0.6154 -0.1842 -0.0458
  463MOL0     C62381   5.672   4.058   2.108 -0.4142  0.6922 -0.2749
  463MOL0     C62382   5.618   4.140   1.994 -0.2742 -0.4813 -0.7112
  463MOL0     C62383   5.676   4.095   1.854  0.0692  0.3569  0.1445
  463MOL0     C62384   5.671   4.218   1.751  0.2358  0.8510  0.1251
  463MOL0     C62385   5.522   4.269   1.736 -0.0568 -0.3515  0.7409
  463MOL0     C62386   5.511   4.404   1.662  0.3883  0.8764 -0.0350
  463MOL0     N62387   5.590   4.505   1.730  0.0725  0.7703  0.6489
  463MOL0     C62388   5.698   4.564   1.674 -1.0707  0.0966 -0.3734
  463MOL0     C62389   5.725   4.667   1.756 -0.1280  0.0269 -0.0180
  463MOL0     C62390   5.845   4.752   1.732 -0.1488  0.3361 -0.2095
  463MOL0     C62391   5.951   4.722   1.830  0.1107  0.3109 -0.4862
  463MOL0     C62392   6.081   4.805   1.836 -0.5435 -1.0870 -0.2005
  463MOL0     C62393   6.194   4.749   1.748 -0.0058  0.2179  0.1518
  463MOL0     O62394   6.302   4.831   1.782  0.2295 -0.2174 -0.1616
  463MOL0     C62395   6.414   4.819   1.712 -0.4666  0.1461 -0.0528
  463MOL0     C62396   6.503   4.923   1.722  0.0113 -0.6509 -0.1681
  463MOL0     C62397   6.632   4.925   1.672 -0.6372  0.3893  0.5459
  463MOL0     C62398   6.714   5.045   1.714  0.9224  0.1206  1.0346
  463MOL0     C62399   6.684   4.812   1.609 -0.2510  0.5868 -0.2851
  463MOL0     C62400   6.823   4.810   1.551 -0.4985  0.4778  0.1352
  463MOL0     O62401   6.899   4.694   1.564  0.6946  0.2017  0.9575
  463MOL0     C62402   7.031   4.697   1.521  0.4230  0.4374 -0.1356
  463MOL0     C62403   7.118   4.796   1.573 -0.1278  0.3729 -1.1549
  463MOL0     C62404   7.255   4.797   1.549  0.2177 -0.2292 -0.7569
  463MOL0     C62405   7.311   4.691   1.477 -0.3039  0.5188 -0.9270
  463MOL0     O62406   7.445   4.685   1.463 -0.1147  0.4710  0.0663
  463MOL0     C62407   7.532   4.790   1.510 -0.0956  0.0560  0.1475
  463MOL0     C62408   7.679   4.782   1.484 -1.0429 -0.6456  0.2940
  463MOL0     C62409   7.729   4.827   1.343  0.7480 -0.5523 -0.8830
  463MOL0     C62410   7.709   4.978   1.338 -0.5600  1.2346 -0.0156
  463MOL0     C62411   7.776   5.030   1.206  0.9110 -0.3468  0.1435
  463MOL0     C62412   7.763   5.185   1.195  0.6512 -0.4871  0.1425
  463MOL0     C62413   7.811   5.230   1.055 -0.6980 -0.0830  0.0456
  463MOL0     C62414   7.847   5.382   1.070  0.3640 -0.7562  0.1400
  463MOL0    Cl62415   7.888   5.481   0.928  0.0265  0.1378  0.1668
  463MOL0     C62416   7.235   4.598   1.409  0.0747 -0.1322  0.4988
  463MOL0     C62417   7.093   4.596   1.446 -0.3813 -0.3369  0.5717
  463MOL0     O62418   6.853   4.918   1.487  0.0871 -0.1316 -0.3845
  463MOL0     C62419   6.594   4.700   1.591 -0.1999  0.5593  0.1789
  463MOL0     C62420   6.463   4.700   1.654 -0.3540  0.7602  0.0179
  463MOL0     N62421   5.639   4.661   1.865 -0.5594 -0.3418  0.4861
  463MOL0     N62422   5.551   4.556   1.848  0.2928 -0.1012 -0.2462
  463MOL0     C62423   5.936   3.828   2.463  0.1266  0.2042  0.0067
  463MOL0     C62424   6.052   3.850   2.535  0.8204 -0.9563 -0.2702
  463MOL0     C62425   6.351   4.048   2.811  0.6571 -0.8013 -0.4596
  463MOL0     C62426   6.369   4.103   2.940  0.4253 -0.6125 -0.0230
  463MOL0     C62427   6.489   4.076   3.015 -0.5422 -0.2495  0.1435
  463MOL0     C62428   6.592   3.993   2.954  0.8615  0.4778 -0.7686
  463MOL0     O62429   6.715   3.966   3.006  0.1506 -0.6229 -0.2764
  463MOL0     C62430   6.754   4.043   3.121 -0.2214  0.3954  0.2658
  463MOL0     C62431   6.900   4.020   3.138 -0.1412  0.7883  0.1997
  463MOL0     C62432   6.934   3.893   3.214 -1.1243  0.3885  0.6608
  463MOL0     C62433   7.023   3.921   3.336  0.4498 -0.2825 -0.2323
  463MOL0     C62434   6.945   3.986   3.440  0.3847  0.2165 -0.3212
  463MOL0     C62435   6.883   4.033   3.535  0.4306 -0.0186  0.0057
  463MOL0     C62436   6.574   3.945   2.827 -0.6562 -0.2837 -0.1675
  463MOL0     C62437   6.451   3.974   2.764 -0.2106 -0.2853  0.2937
  463MOL0     H62438   6.048   4.191   2.526  3.2324 -0.0759 -2.8131
  463MOL0     H62439   5.835   4.147   2.413 -0.5208 -1.4304  0.2391
  463MOL0     H62440   5.530   3.963   2.344  1.9405 -2.4439 -0.6676
  463MOL0     H62441   5.628   4.066   2.452 -4.3596  0.2869 -0.7378
  463MOL0     H62442   5.526   4.156   2.231  0.1306  1.6024 -1.0600
  463MOL0     H62443   5.691   4.203   2.276  1.2987 -2.0556  1.5067
  463MOL0     H62444   5.781   4.069   2.109 -0.4179  0.7468  0.7806
  463MOL0     H62445   5.642   3.953   2.108 -1.7115  1.0479 -0.7137
  463MOL0     H62446   5.511   4.129   2.011 -0.0226  1.6191  3.7556
  463MOL0     H62447   5.653   4.243   2.010  1.9822 -1.6346  3.1574
  463MOL0     H62448   5.777   4.054   1.856 -0.5426 -1.1938  0.0699
  463MOL0     H62449   5.606   4.021   1.815  0.3124  0.1960  0.0172
  463MOL0     H62450   5.739   4.290   1.797  0.8526  1.5779 -1.8088
  463MOL0     H62451   5.705   4.183   1.653 -1.4563  0.7990 -0.4742
  463MOL0     H62452   5.461   4.193   1.685 -0.2071  0.9314 -1.0793
  463MOL0     H62453   5.477   4.292   1.834 -1.3314  4.7250 -0.7275
  463MOL0     H62454   5.407   4.431   1.642 -0.1816 -0.1943  1.3336
  463MOL0     H62455   5.562   4.386   1.566  1.6449  0.6161  0.6577
  463MOL0     H62456   5.754   4.541   1.584 -2.5969  0.2811 -1.4010
  463MOL0     H62457   5.878   4.737   1.629 -0.3809 -1.6458 -0.0324
  463MOL0     H62458   5.815   4.856   1.744  2.1334  1.1506 -1.0536
  463MOL0     H62459   5.977   4.616   1.831  0.4741  0.3605 -2.1322
  463MOL0     H62460   5.896   4.733   1.924 -0.5313 -4.0527 -0.1397
  463MOL0     H62461   6.115   4.819   1.939 -1.6299  1.5784 -0.1269
  463MOL0     H62462   6.060   4.906   1.798  3.3726 -0.9986 -2.5822
  463MOL0     H62463   6.173   4.750   1.640  0.9198  0.1031 -0.0413
  463MOL0     H62464   6.210   4.644   1.774 -1.7067  0.5289  2.7968
  463MOL0     H62465   6.469   5.007   1.780  3.9145  1.9442 -1.2221
  463MOL0     H62466   6.766   5.033   1.809  0.9270 -1.0146  0.9101
  463MOL0     H62467   6.787   5.085   1.642  1.1897  1.9667  2.2691
  463MOL0     H62468   6.635   5.119   1.724 -2.8239 -3.4238  0.5779
  463MOL0     H62469   7.069   4.872   1.634 -0.6882 -0.1758 -0.9078
  463MOL0     H62470   7.309   4.869   1.611 -0.9795  0.7417 -0.8165
  463MOL0     H62471   7.489   4.882   1.470  1.0588  0.7709  0.4850
  463MOL0     H62472   7.524   4.811   1.617 -0.5279  0.9428 -0.0514
  463MOL0     H62473   7.736   4.849   1.549 -0.9724 -0.7843  0.3756
  463MOL0     H62474   7.713   4.679   1.496 -3.6635 -1.6935 -0.5739
  463MOL0     H62475   7.671   4.771   1.270  1.7105 -3.7952  0.6288
  463MOL0     H62476   7.828   4.780   1.334  0.5469 -1.0238 -0.6361
  463MOL0     H62477   7.603   5.006   1.344 -1.0219 -0.4396  0.3319
  463MOL0     H62478   7.760   5.030   1.420 -1.0743  3.9158 -1.3172
  463MOL0     H62479   7.720   4.977   1.129  1.1554 -2.2228  1.1882
  463MOL0     H62480   7.882   5.001   1.201  1.1879  0.8356 -1.3667
  463MOL0     H62481   7.657   5.210   1.192  1.2942  2.5501 -0.8278
  463MOL0     H62482   7.826   5.230   1.272  0.9250  1.4165 -1.1301
  463MOL0     H62483   7.731   5.203   0.986  0.9472 -1.1691 -1.5378
  463MOL0     H62484   7.894   5.180   1.003 -0.9707  1.8548 -2.4664
  463MOL0     H62485   7.927   5.396   1.143 -1.0099  2.1326  1.2159
  463MOL0     H62486   7.755   5.423   1.111  1.4465  2.4600 -0.3830
  463MOL0     H62487   7.287   4.525   1.348  2.1964  1.2994  0.4618
  463MOL0     H62488   7.035   4.516   1.401 -0.3866 -0.7970  1.3757
  463MOL0     H62489   6.638   4.615   1.540  2.1117  1.7282  0.0805
  463MOL0     H62490   6.410   4.607   1.638  4.5468 -2.4106 -0.1672
  463MOL0     H62491   5.918   3.723   2.442  0.8459  0.4613 -2.0751
  463MOL0     H62492   6.102   3.761   2.570  1.2852 -0.4485  0.3829
  463MOL0     H62493   6.290   4.154   2.994 -1.9477 -2.5111 -1.5126
  463MOL0     H62494   6.490   4.116   3.115 -2.6649  0.5678 -0.0953
  463MOL0     H62495   6.733   4.147   3.096  2.5409  0.5068 -2.1095
  463MOL0     H62496   6.698   4.003   3.206 -0.2675 -1.6733 -0.6581
  463MOL0     H62497   6.948   4.106   3.186 -0.9453  1.0660  0.5145
  463MOL0     H62498   6.954   4.013   3.043  0.7508  3.4705  0.4174
  463MOL0     H62499   6.979   3.814   3.154 -2.1621 -1.2682  1.9556
  463MOL0     H62500   6.846   3.849   3.261 -1.0067  2.4987  3.1272
  463MOL0     H62501   7.116   3.969   3.302  0.1570 -0.2105 -0.9591
  463MOL0     H62502   7.052   3.825   3.380  3.2838  0.6801  0.2389
  463MOL0     H62503   6.839   4.077   3.622  3.0688  1.1946  0.8312
  463MOL0     H62504   6.654   3.908   2.765 -0.4061  2.2269 -1.4669
  463MOL0     H62505   6.453   3.948   2.658  1.1547  1.8092 -0.2594
  464MOL0     O62506   9.759   6.661   2.508  0.0396 -0.1024  1.1120
  464MOL0     C62507   9.821   6.607   2.596 -0.9416  0.1469 -0.0357
  464MOL0     O62508   9.779   6.519   2.687 -0.3571  0.3227  0.2403
  464MOL0     C62509   9.673   6.439   2.671  0.5019 -0.4227 -0.1842
  464MOL0     C62510   9.637   6.369   2.543  0.2130 -0.4497 -0.6197
  464MOL0     C62511   9.531   6.282   2.536  0.4261  1.8251 -0.0591
  464MOL0     C62512   9.437   6.272   2.642  0.3632 -0.2170  0.1156
  464MOL0     O62513   9.322   6.202   2.633  0.2221  0.1362 -0.0275
  464MOL0     C62514   9.269   6.184   2.504  0.2568  1.1093 -0.3045
  464MOL0     C62515   9.113   6.166   2.523 -0.3885  0.3691 -0.0090
  464MOL0     C62516   9.031   6.141   2.400 -0.2611 -0.4715  0.1794
  464MOL0     C62517   9.040   5.994   2.352  0.3987 -0.7537 -0.0026
  464MOL0     C62518   8.999   5.966   2.208 -0.1705  0.6462 -0.3831
  464MOL0     C62519   8.852   5.942   2.196  0.1523  0.7569  0.4805
  464MOL0     C62520   8.809   5.888   2.054 -0.1983 -0.2114 -0.4252
  464MOL0     C62521   8.657   5.891   2.052 -0.1047 -0.0920 -0.0210
  464MOL0     N62522   8.605   5.797   1.947 -1.0202  0.0981  0.1127
  464MOL0     C62523   8.564   5.663   1.967 -0.0999  0.0187  0.2881
  464MOL0     C62524   8.544   5.612   1.840  0.0411 -0.3284  0.0709
  464MOL0     C62525   8.535   5.470   1.807 -0.5454 -0.1099 -0.1751
  464MOL0     C62526   8.391   5.417   1.854  0.7936 -0.4472  0.0743
  464MOL0     C62527   8.387   5.276   1.787  0.2368 -0.1856 -0.6382
  464MOL0     C62528   8.246   5.224   1.796  0.2957 -0.7262  0.3018
  464MOL0     O62529   8.164   5.312   1.714  0.5783  0.7022 -0.1694
  464MOL0     C62530   8.029   5.280   1.704  0.3276 -1.1768 -0.8877
  464MOL0     C62531   7.947   5.368   1.630 -0.1982  0.2411 -0.6185
  464MOL0     C62532   7.807   5.342   1.610 -0.7647  0.2153 -0.4847
  464MOL0     C62533   7.734   5.448   1.527 -0.0321 -0.9082  0.1470
  464MOL0     C62534   7.752   5.220   1.676  0.4015  0.0596  0.0610
  464MOL0     C62535   7.615   5.170   1.665  0.6177  0.3044  0.6816
  464MOL0     O62536   7.578   5.074   1.751  0.3942  0.8166 -0.4943
  464MOL0     C62537   7.451   5.035   1.787  0.0670 -0.4437 -0.3940
  464MOL0     C62538   7.423   4.917   1.871 -1.1246  0.2265  0.2237
  464MOL0     C62539   7.296   4.887   1.912 -0.4817  0.4020 -0.9933
  464MOL0     C62540   7.182   4.953   1.870  0.0482  0.7768 -0.6588
  464MOL0     O62541   7.054   4.928   1.904  1.0242 -0.8907  0.1128
  464MOL0     C62542   7.031   4.814   1.990  0.2556  0.3328 -1.0763
  464MOL0     C62543   7.017   4.681   1.905  0.0467  0.6191  0.0765
  464MOL0     C62544   7.026   4.554   1.999 -0.3539  0.8083 -0.1698
  464MOL0     C62545   6.906   4.545   2.100  0.0875 -0.2137  0.0606
  464MOL0     C62546   6.783   4.497   2.022  0.3457 -0.2176  0.4922
  464MOL0     C62547   6.655   4.478   2.102  0.6010  0.0632  0.0565
  464MOL0     C62548   6.541   4.398   2.025 -0.2026  0.2089 -0.2292
  464MOL0     C62549   6.477   4.470   1.906  0.2274 -0.6203 -0.6231
  464MOL0    Cl62550   6.340   4.368   1.864  0.0871 -0.0673  0.1362
  464MOL0     C62551   7.206   5.060   1.789 -1.0183 -0.2827 -0.1028
  464MOL0     C62552   7.337   5.107   1.751  0.4014  0.2674  0.0937
  464MOL0     O62553   7.542   5.213   1.569  0.5431 -0.5783 -0.6570
  464MOL0     C62554   7.834   5.145   1.756  0.0774 -0.0847 -0.1101
  464MOL0     C62555   7.966   5.176   1.774 -0.2414 -0.1267  0.3118
  464MOL0     N62556   8.567   5.719   1.747  0.6767  0.2342 -0.5757
  464MOL0     N62557   8.597   5.834   1.818 -0.3777  0.1114  0.5882
  464MOL0     C62558   9.460   6.346   2.759 -0.0775  0.5524 -0.8523
  464MOL0     C62559   9.575   6.422   2.776  0.3308  0.2867  0.0254
  464MOL0     C62560   9.967   6.630   2.601 -0.2517  1.0313 -0.6367
  464MOL0     C62561  10.056   6.571   2.700 -0.3034 -0.0031 -0.0524
  464MOL0     C62562  10.191   6.605   2.705  0.3343  0.8841 -0.3943
  464MOL0     C62563  10.251   6.694   2.621 -0.0872 -1.2095 -0.8787
  464MOL0     O62564  10.387   6.724   2.640 -0.3341 -0.8453  0.4410
  464MOL0     C62565  10.449   6.798   2.527 -0.4344  0.2231 -0.8096
  464MOL0     C62566  10.456   6.947   2.547  0.1194 -0.3074 -0.2273
  464MOL0     C62567  10.496   7.007   2.408  0.3669  0.3337 -0.0074
  464MOL0     C62568  10.502   7.160   2.414  0.1884  0.5570 -0.1753
  464MOL0     C62569  10.543   7.226   2.284  0.7494  0.4435  0.0853
  464MOL0     C62570  10.586   7.268   2.179 -0.2938  0.2985 -0.3574
  464MOL0     C62571  10.163   6.753   2.528  0.2133 -0.2924  0.2207
  464MOL0     C62572  10.025   6.716   2.511 -0.1416  0.4336 -0.3815
  464MOL0     H62573   9.700   6.378   2.456  2.0321  0.8322  0.7395
  464MOL0     H62574   9.515   6.218   2.449  2.4406 -2.8596  2.6072
  464MOL0     H62575   9.291   6.276   2.448  0.2965  0.7428 -0.9088
  464MOL0     H62576   9.319   6.101   2.454  1.3584  1.5311  0.0667
  464MOL0     H62577   9.090   6.090   2.598  0.6634  1.1442  1.1367
  464MOL0     H62578   9.086   6.255   2.580 -1.7299 -1.7475  2.9631
  464MOL0     H62579   8.926   6.154   2.431  1.0437  0.9095  4.9241
  464MOL0     H62580   9.062   6.209   2.321 -4.0559  2.5329  0.9503
  464MOL0     H62581   9.146   5.970   2.361  1.0294  0.8158 -2.4266
  464MOL0     H62582   8.985   5.934   2.426 -1.4910 -0.7797 -1.3623
  464MOL0     H62583   9.022   6.051   2.144 -0.8794  0.9592 -0.2257
  464MOL0     H62584   9.050   5.874   2.176 -2.6370 -1.2160  0.6864
  464MOL0     H62585   8.811   5.886   2.281 -0.6432 -1.3562 -1.2314
  464MOL0     H62586   8.796   6.035   2.210 -0.4605  0.0801  3.0950
  464MOL0     H62587   8.831   5.960   1.975 -0.9809  1.4601  0.8064
  464MOL0     H62588   8.853   5.790   2.035 -0.0706 -0.2215 -0.0992
  464MOL0     H62589   8.630   5.989   2.011  1.2008  0.6231  0.7655
  464MOL0     H62590   8.619   5.883   2.154  2.0307  0.1291  0.8455
  464MOL0     H62591   8.565   5.601   2.057 -0.6117 -1.4061 -0.6574
  464MOL0     H62592   8.553   5.458   1.700 -0.7056  1.8971 -0.4641
  464MOL0     H62593   8.607   5.406   1.859  1.3044 -2.5814 -5.1864
  464MOL0     H62594   8.318   5.484   1.807  0.6114 -1.3376 -0.9519
  464MOL0     H62595   8.373   5.421   1.962 -2.3325  0.1529 -0.3577
  464MOL0     H62596   8.459   5.207   1.832  2.4527  1.0763 -2.0826
  464MOL0     H62597   8.410   5.292   1.682 -1.2195  4.5825 -0.4849
  464MOL0     H62598   8.212   5.225   1.900  1.8353  0.8015  0.8416
  464MOL0     H62599   8.242   5.120   1.762 -1.9049 -0.2686 -1.0420
  464MOL0     H62600   7.989   5.458   1.586  1.7854  0.9685  2.4516
  464MOL0     H62601   7.779   5.547   1.540 -0.4587 -0.6241 -0.4903
  464MOL0     H62602   7.742   5.441   1.418  2.5198  0.9520  0.1317
  464MOL0     H62603   7.634   5.456   1.571 -0.9890  0.5367 -2.1178
  464MOL0     H62604   7.507   4.863   1.912  1.0937  2.8201 -0.6012
  464MOL0     H62605   7.286   4.799   1.976 -0.1937  0.3253 -1.0528
  464MOL0     H62606   7.111   4.803   2.064 -0.0705  1.2190 -0.5864
  464MOL0     H62607   6.938   4.825   2.047 -0.0384 -0.2443 -1.4235
  464MOL0     H62608   6.927   4.686   1.843  1.4540  0.2322 -2.0818
  464MOL0     H62609   7.097   4.681   1.830  1.4465 -2.1492  1.4105
  464MOL0     H62610   7.122   4.565   2.049 -0.2283 -1.0542  0.0761
  464MOL0     H62611   7.024   4.461   1.941  1.1533 -0.4436  1.6809
  464MOL0     H62612   6.941   4.480   2.181 -0.3773  2.5659  2.6731
  464MOL0     H62613   6.880   4.644   2.138 -0.4134 -0.1164 -0.5262
  464MOL0     H62614   6.803   4.401   1.974 -1.1145 -0.2448 -0.1085
  464MOL0     H62615   6.755   4.576   1.952  1.2505  0.3843  0.7957
  464MOL0     H62616   6.680   4.417   2.190 -0.7993  0.5554  0.8276
  464MOL0     H62617   6.615   4.576   2.129 -5.3354 -1.1335 -2.8879
  464MOL0     H62618   6.466   4.371   2.099  0.9547 -0.9299  0.5617
  464MOL0     H62619   6.583   4.306   1.984 -0.7343 -0.0532 -0.1773
  464MOL0     H62620   6.542   4.481   1.819  1.7248  0.8624  0.6243
  464MOL0     H62621   6.449   4.571   1.935 -0.8203 -1.6423  2.2741
  464MOL0     H62622   7.118   5.113   1.752  0.4558  1.2655 -1.6007
  464MOL0     H62623   7.350   5.202   1.699 -0.7328  1.6334  2.1575
  464MOL0     H62624   7.807   5.052   1.805  1.4001 -1.5671 -2.0249
  464MOL0     H62625   8.026   5.096   1.817  0.1360 -1.1624 -1.9920
  464MOL0     H62626   9.385   6.337   2.837  2.7710  2.1306  2.3671
  464MOL0     H62627   9.595   6.472   2.870 -2.2014  1.0629  0.2278
  464MOL0     H62628  10.026   6.497   2.774  1.0192  0.9418  1.5227
  464MOL0     H62629  10.245   6.553   2.783 -1.0822 -0.8995 -0.5224
  464MOL0     H62630  10.548   6.751   2.520  1.4492  3.2354  2.4335
  464MOL0     H62631  10.394   6.782   2.434  0.1501  1.3487 -1.3630
  464MOL0     H62632  10.519   6.986   2.627  0.0123  1.3277 -0.9067
  464MOL0     H62633  10.359   6.992   2.572 -0.2025 -1.5975  1.0133
  464MOL0     H62634  10.419   6.990   2.332  0.6124  2.9559 -0.9088
  464MOL0     H62635  10.588   6.970   2.362 -0.6659  0.1326 -2.0293
  464MOL0     H62636  10.583   7.189   2.482  0.7372 -1.9231  0.3351
  464MOL0     H62637  10.410   7.207   2.452 -1.2927 -2.9089  0.9572
  464MOL0     H62638  10.628   7.294   2.084 -0.9339  1.0359 -0.4398
  464MOL0     H62639  10.202   6.824   2.456  2.6119 -0.9005  0.8259
  464MOL0     H62640   9.964   6.759   2.433  0.8594 -0.5039 -1.7372
  465MOL0     O62641   4.692   9.882   5.701  0.1413  0.3515  0.1363
  465MOL0     C62642   4.772   9.806   5.753 -0.1269  0.7223 -1.1609
  465MOL0     O62643   4.783   9.778   5.890 -0.4576  0.3097 -0.9693
  465MOL0     C62644   4.741   9.872   5.985 -0.3759  0.2536 -0.2348
  465MOL0     C62645   4.623   9.947   5.977 -0.4120 -0.7065 -0.6933
  465MOL0     C62646   4.587  10.039   6.087  0.2526 -0.0351 -0.6105
  465MOL0     C62647   4.677  10.051   6.200  0.0423  0.4505 -0.2756
  465MOL0     O62648   4.660  10.138   6.308 -0.0282  0.3846  0.6670
  465MOL0     C62649   4.566  10.239   6.301  0.0240 -0.2750  0.0406
  465MOL0     C62650   4.597  10.342   6.204  0.2662 -0.1439  0.2607
  465MOL0     C62651   4.480  10.419   6.153 -0.5774 -0.0934  0.1870
  465MOL0     C62652   4.533  10.524   6.052  0.5852  0.1674  0.0637
  465MOL0     C62653   4.433  10.630   6.005  0.5655 -0.2165 -0.1168
  465MOL0     C62654   4.520  10.711   5.895  1.3848  0.2947  0.7268
  465MOL0     C62655   4.425  10.813   5.834 -0.0941 -0.3205  0.1607
  465MOL0     C62656   4.489  10.857   5.697  0.9896 -0.5607 -0.3347
  465MOL0     N62657   4.402  10.949   5.630  0.4911  0.2850 -0.0381
  465MOL0     C62658   4.432  11.082   5.640  0.4005  0.3390 -0.0355
  465MOL0     C62659   4.349  11.140   5.547 -0.1494 -0.3916  0.2385
  465MOL0     C62660   4.362  11.289   5.505  0.6990  0.3827  0.2651
  465MOL0     C62661   4.323  11.319   5.352 -0.0732 -0.6977 -0.5436
  465MOL0     C62662   4.330  11.468   5.324  0.1259 -0.4505 -0.1745
  465MOL0     C62663   4.454  11.538   5.376 -0.0412  0.8217  0.2927
  465MOL0     O62664   4.459  11.679   5.346 -0.3941 -0.3719 -0.2401
  465MOL0     C62665   4.559  11.712   5.247  0.1552  0.3660 -0.0339
  465MOL0     C62666   4.652  11.807   5.282  0.6817  0.1994 -0.5286
  465MOL0     C62667   4.740  11.850   5.176 -1.3219  0.3319  0.2185
  465MOL0     C62668   4.852  11.927   5.234 -0.2172 -0.3710 -0.2245
  465MOL0     C62669   4.741  11.793   5.044  0.1528 -1.0910 -0.2811
  465MOL0     C62670   4.843  11.829   4.950 -0.1371  0.6267  0.0655
  465MOL0     O62671   4.858  11.962   4.921 -0.4900  0.4301 -0.3968
  465MOL0     C62672   4.956  11.993   4.836 -0.2535  0.2410 -0.5013
  465MOL0     C62673   5.079  12.026   4.890  0.2981 -0.1235  0.0941
  465MOL0     C62674   5.179  12.089   4.810 -0.3384 -0.1025 -0.7171
  465MOL0     C62675   5.159  12.127   4.684 -0.1197  0.8710 -1.0535
  465MOL0     O62676   5.253  12.191   4.605 -0.0892  0.8522 -0.5822
  465MOL0     C62677   5.276  12.157   4.469 -0.1162  0.0106 -0.3831
  465MOL0     C62678   5.214  12.259   4.382  0.0187 -0.4487 -0.9317
  465MOL0     C62679   5.256  12.401   4.414 -0.7342  0.7497  0.4392
  465MOL0     C62680   5.186  12.497   4.323  0.1989  0.7958  0.6268
  465MOL0     C62681   5.250  12.632   4.338  0.1382  0.8775  0.1189
  465MOL0     C62682   5.226  12.721   4.465 -0.3867 -1.1347  0.2164
  465MOL0     C62683   5.075  12.738   4.508 -0.2725 -0.7823  0.4080
  465MOL0     C62684   5.068  12.729   4.664  0.5470  0.2066 -0.8057
  465MOL0    Cl62685   5.131  12.574   4.742 -0.1524 -0.0525 -0.0707
  465MOL0     C62686   5.045  12.079   4.627  0.4756  0.5105 -0.1615
  465MOL0     C62687   4.940  12.023   4.698 -0.4704 -0.7333  1.0781
  465MOL0     O62688   4.907  11.738   4.896 -0.2360  0.4973 -0.3566
  465MOL0     C62689   4.639  11.700   5.012 -0.6260  0.0209 -0.1596
  465MOL0     C62690   4.551  11.662   5.121  0.3804  0.0132 -0.2008
  465MOL0     N62691   4.265  11.046   5.494 -0.0449 -0.0620  0.1909
  465MOL0     N62692   4.295  10.933   5.541  1.0506  0.8888 -0.2490
  465MOL0     C62693   4.792   9.976   6.199 -0.3233  0.5181  0.0204
  465MOL0     C62694   4.825   9.888   6.095  0.7238 -1.0710 -0.2468
  465MOL0     C62695   4.850   9.720   5.665  0.1967 -0.2339 -0.7159
  465MOL0     C62696   4.959   9.656   5.716 -0.6416  0.1089  0.6421
  465MOL0     C62697   5.040   9.571   5.629 -0.4938 -0.4621 -0.9323
  465MOL0     C62698   5.015   9.551   5.500  1.1559  0.2155  0.3948
  465MOL0     O62699   5.088   9.464   5.428 -0.0891  0.6753  0.9711
  465MOL0     C62700   5.206   9.527   5.372 -0.8322  0.8837 -0.4783
  465MOL0     C62701   5.226   9.492   5.226  0.1883  1.1126  0.5472
  465MOL0     C62702   5.119   9.555   5.138  0.7602  0.0332 -0.4079
  465MOL0     C62703   5.120   9.505   4.989 -0.2756 -0.0392  1.4177
  465MOL0     C62704   5.226   9.565   4.904  0.4223 -0.1753  0.7108
  465MOL0     C62705   5.299   9.635   4.839  0.2555  0.2626 -0.1956
  465MOL0     C62706   4.913   9.627   5.445  0.7877 -0.7435  0.1093
  465MOL0     C62707   4.830   9.703   5.525  0.7093 -0.9204  0.1699
  465MOL0     H62708   4.555   9.929   5.894  0.6648  0.1215 -1.7844
  465MOL0     H62709   4.493  10.092   6.093 -0.7521 -1.8191 -0.0295
  465MOL0     H62710   4.468  10.194   6.282 -0.3411  0.7707 -0.5920
  465MOL0     H62711   4.560  10.284   6.401 -1.8010  0.1382 -0.2262
  465MOL0     H62712   4.681  10.407   6.231  1.7592 -0.5827 -2.8629
  465MOL0     H62713   4.640  10.292   6.117 -0.6070 -3.6849  1.6695
  465MOL0     H62714   4.398  10.357   6.116 -0.6552  0.7960 -1.2072
  465MOL0     H62715   4.439  10.471   6.240  1.1493 -0.0211  1.0034
  465MOL0     H62716   4.617  10.569   6.105  2.2127 -1.7293 -0.7642
  465MOL0     H62717   4.563  10.469   5.962 -1.9193 -0.2007 -0.6298
  465MOL0     H62718   4.338  10.586   5.971 -0.5938 -1.1368  3.7653
  465MOL0     H62719   4.395  10.698   6.082 -0.4452 -0.2311 -0.5754
  465MOL0     H62720   4.606  10.761   5.942  1.3873  1.7522 -0.7345
  465MOL0     H62721   4.550  10.641   5.817 -0.5504 -0.1157  0.3085
  465MOL0     H62722   4.331  10.761   5.815  1.8702 -4.4973  0.5699
  465MOL0     H62723   4.412  10.908   5.886  1.1572 -0.3877  0.6556
  465MOL0     H62724   4.502  10.772   5.629 -0.4719 -1.2181  0.1732
  465MOL0     H62725   4.592  10.888   5.718  1.1876 -2.7088  2.4952
  465MOL0     H62726   4.503  11.133   5.705  0.9565 -0.6180  0.1297
  465MOL0     H62727   4.305  11.349   5.577 -0.0845  0.9898 -0.8365
  465MOL0     H62728   4.470  11.309   5.509  0.7968  0.8225 -2.6306
  465MOL0     H62729   4.232  11.273   5.315 -2.3764  1.8925  1.4865
  465MOL0     H62730   4.399  11.273   5.288 -0.5216 -0.4139 -1.2997
  465MOL0     H62731   4.237  11.504   5.371 -0.6905 -4.3222  1.5349
  465MOL0     H62732   4.320  11.477   5.216 -0.2093 -0.5043 -0.1507
  465MOL0     H62733   4.543  11.487   5.339 -0.3938  1.5100 -1.6138
  465MOL0     H62734   4.451  11.538   5.486 -1.1997 -0.2314  0.2733
  465MOL0     H62735   4.650  11.846   5.383 -1.2206 -0.0220 -0.4340
  465MOL0     H62736   4.877  11.884   5.331 -0.2582 -1.7394 -0.7974
  465MOL0     H62737   4.946  11.926   5.178 -0.6145 -0.2110 -0.9069
  465MOL0     H62738   4.816  12.030   5.243  1.5773  0.1462  1.9017
  465MOL0     H62739   5.105  12.005   4.994  2.5034  1.6818 -0.0162
  465MOL0     H62740   5.267  12.123   4.864 -0.3949 -1.4466  0.2819
  465MOL0     H62741   5.383  12.154   4.448 -0.0518  2.6525 -0.8433
  465MOL0     H62742   5.235  12.059   4.446  1.2073 -0.7460  0.3993
  465MOL0     H62743   5.249  12.239   4.280  0.4921 -0.9400 -0.6757
  465MOL0     H62744   5.106  12.256   4.399 -0.3044 -0.4398 -2.7073
  465MOL0     H62745   5.363  12.415   4.400 -0.9182  3.5607  1.2517
  465MOL0     H62746   5.237  12.430   4.518  1.9632 -0.7984  1.4445
  465MOL0     H62747   5.200  12.457   4.222 -1.0269 -1.4393  1.2780
  465MOL0     H62748   5.078  12.500   4.340  0.4354 -1.8298  3.3112
  465MOL0     H62749   5.226  12.697   4.253 -1.8229  0.7689  0.5525
  465MOL0     H62750   5.359  12.619   4.340  0.2908  2.0419  1.6106
  465MOL0     H62751   5.285  12.682   4.548  0.3524  0.8822  0.7032
  465MOL0     H62752   5.265  12.820   4.439 -1.0818 -0.8824  0.1285
  465MOL0     H62753   5.023  12.650   4.468  2.5079 -2.7327  0.7862
  465MOL0     H62754   5.025  12.829   4.475 -1.5720 -1.8772 -0.7524
  465MOL0     H62755   4.959  12.729   4.673  0.4587 -2.3340 -1.0737
  465MOL0     H62756   5.110  12.818   4.712 -2.1833 -0.3829  3.2052
  465MOL0     H62757   5.022  12.103   4.523  0.4117  0.8013 -0.0819
  465MOL0     H62758   4.852  11.997   4.639 -0.7352 -0.0115  1.1389
  465MOL0     H62759   4.652  11.657   4.913 -1.1018  3.1927 -1.7274
  465MOL0     H62760   4.470  11.590   5.109  0.1572 -0.1437  1.8992
  465MOL0     H62761   4.853   9.989   6.288 -0.5133 -0.5722  0.3354
  465MOL0     H62762   4.910   9.822   6.105  0.3904 -1.2420  2.0040
  465MOL0     H62763   4.988   9.666   5.820 -1.0271  1.2161  0.6577
  465MOL0     H62764   5.123   9.514   5.669 -0.4695  1.2003  1.6200
  465MOL0     H62765   5.210   9.636   5.369 -1.7375  0.9434 -3.9510
  465MOL0     H62766   5.299   9.497   5.421 -0.9849  2.2522  0.6880
  465MOL0     H62767   5.232   9.383   5.221  0.3684  1.2003 -2.7870
  465MOL0     H62768   5.320   9.528   5.184 -0.5776 -0.1437 -2.4990
  465MOL0     H62769   5.132   9.663   5.139  0.8199  0.0516  1.9154
  465MOL0     H62770   5.018   9.527   5.171  0.1682  2.1036 -0.3223
  465MOL0     H62771   5.023   9.534   4.946  0.0657 -0.4356  0.3556
  465MOL0     H62772   5.121   9.396   4.982  1.1944  0.0695 -1.1752
  465MOL0     H62773   5.353   9.698   4.771  0.2113  1.1061  0.5256
  465MOL0     H62774   4.877   9.630   5.343 -1.9237  0.7522  1.0168
  465MOL0     H62775   4.761   9.777   5.488 -1.5325 -1.7882  2.2897
  466MOL0     O62776   2.120   0.814   7.440  0.0761 -0.0492  1.0424
  466MOL0     C62777   2.134   0.819   7.559  0.2160 -0.4292  0.1764
  466MOL0     O62778   2.095   0.930   7.635  0.0884 -0.1168  0.4640
  466MOL0     C62779   2.034   1.038   7.590  0.3578 -0.3430 -0.2021
  466MOL0     C62780   1.921   1.085   7.663 -0.1955  0.4530  0.4443
  466MOL0     C62781   1.849   1.199   7.621 -0.5793  0.2193 -0.0958
  466MOL0     C62782   1.889   1.280   7.511 -0.6126  0.0228  0.3339
  466MOL0     O62783   1.818   1.397   7.490 -0.2202  0.0423  0.4338
  466MOL0     C62784   1.855   1.498   7.393  0.5709 -0.5171 -0.6213
  466MOL0     C62785   1.798   1.628   7.454  0.7749 -0.1446  0.5407
  466MOL0     C62786   1.894   1.690   7.550 -0.1261 -0.3307  0.5574
  466MOL0     C62787   1.834   1.811   7.622  0.0915 -0.3929  0.1255
  466MOL0     C62788   1.945   1.881   7.702  0.8718 -0.5291 -0.5723
  466MOL0     C62789   1.898   2.020   7.765  0.2494 -0.1277  0.3458
  466MOL0     C62790   1.762   2.010   7.834  0.7796  0.2834 -0.0038
  466MOL0     C62791   1.730   2.121   7.934  0.4357 -0.9628 -0.3989
  466MOL0     N62792   1.602   2.113   7.997 -0.1150  0.6020  0.1666
  466MOL0     C62793   1.580   2.058   8.116 -0.2268  0.2943 -0.0528
  466MOL0     C62794   1.447   2.076   8.146 -0.4371 -0.6975  0.7850
  466MOL0     C62795   1.358   2.045   8.267  0.3483 -0.0720  0.5661
  466MOL0     C62796   1.209   2.030   8.240  0.8799 -0.4860  0.0889
  466MOL0     C62797   1.150   2.176   8.251  0.8025  0.3637  0.0048
  466MOL0     C62798   0.999   2.186   8.230  0.7764 -0.3849 -0.1719
  466MOL0     O62799   0.929   2.129   8.351  0.0074  0.2342  0.5634
  466MOL0     C62800   0.800   2.101   8.333 -0.0537 -0.0310 -0.3003
  466MOL0     C62801   0.708   2.199   8.331  0.3321  0.5495  1.0619
  466MOL0     C62802   0.572   2.168   8.329  0.0417  0.3003 -0.4550
  466MOL0     C62803   0.481   2.287   8.327 -0.0991  0.2547 -0.3810
  466MOL0     C62804   0.530   2.037   8.333 -0.3662 -0.6565 -0.4630
  466MOL0     C62805   0.386   1.996   8.328 -0.3112 -0.4321 -0.2101
  466MOL0     O62806   0.309   2.062   8.234 -0.7164  0.8712 -0.0782
  466MOL0     C62807   0.172   2.047   8.237 -0.0461 -0.1425 -0.4101
  466MOL0     C62808   0.099   2.054   8.119 -0.0877 -0.8170 -0.7381
  466MOL0     C62809  -0.037   2.037   8.119  0.0576  0.7132  0.5569
  466MOL0     C62810  -0.114   2.007   8.232  0.2136  0.2381  0.1142
  466MOL0     O62811  -0.247   1.987   8.228 -0.0227 -0.2409  0.1474
  466MOL0     C62812  -0.295   1.926   8.102  1.0182 -0.7204  0.1660
  466MOL0     C62813  -0.432   1.868   8.126 -0.0657  0.0947  0.4881
  466MOL0     C62814  -0.498   1.804   8.004  0.4864 -0.6895 -0.0083
  466MOL0     C62815  -0.449   1.660   7.988  0.0976  0.2131 -0.7414
  466MOL0     C62816  -0.482   1.595   7.862  0.1194  0.2557 -0.0108
  466MOL0     C62817  -0.412   1.460   7.871 -0.2580  0.0945 -0.2435
  466MOL0     C62818  -0.427   1.380   7.734  0.1469  0.0964 -0.5194
  466MOL0     C62819  -0.316   1.417   7.636 -0.2882 -0.2228 -0.1899
  466MOL0    Cl62820  -0.165   1.356   7.710  0.0715 -0.0771  0.1042
  466MOL0     C62821  -0.046   2.017   8.355 -0.6248  0.3089  0.4920
  466MOL0     C62822   0.096   2.043   8.356 -0.4322 -0.0592 -0.3576
  466MOL0     O62823   0.353   1.914   8.407 -1.0770 -0.0389  1.0823
  466MOL0     C62824   0.625   1.938   8.318  0.1814 -0.1888 -0.9994
  466MOL0     C62825   0.761   1.969   8.318  0.3861 -0.2699 -0.5899
  466MOL0     N62826   1.392   2.142   8.037  0.0185 -0.5099 -0.0230
  466MOL0     N62827   1.486   2.162   7.949 -0.2959 -0.3747  0.1247
  466MOL0     C62828   2.004   1.238   7.442  0.3477  0.2105 -0.8349
  466MOL0     C62829   2.073   1.117   7.480 -0.1315  0.5040  0.0151
  466MOL0     C62830   2.200   0.703   7.628  0.4032 -0.1818 -0.2473
  466MOL0     C62831   2.165   0.686   7.764  0.7318 -0.3333 -0.3592
  466MOL0     C62832   2.230   0.591   7.845  0.3280  0.0331  0.9926
  466MOL0     C62833   2.334   0.517   7.791 -0.3474  0.5181 -0.8620
  466MOL0     O62834   2.397   0.419   7.868  0.4150 -0.1391  0.4765
  466MOL0     C62835   2.377   0.416   8.009  0.2755 -0.2171  1.0140
  466MOL0     C62836   2.445   0.533   8.082  0.6208  0.3557  0.6582
  466MOL0     C62837   2.589   0.563   8.041 -0.3040  0.5280  0.4471
  466MOL0     C62838   2.653   0.681   8.119 -0.2749 -0.0766  0.3135
  466MOL0     C62839   2.687   0.658   8.260  0.2547  0.1659  0.0850
  466MOL0     C62840   2.727   0.639   8.371  0.0424 -0.0786  0.2160
  466MOL0     C62841   2.363   0.536   7.657 -0.4853  0.9517 -0.3899
  466MOL0     C62842   2.301   0.627   7.572  0.2070 -0.1614  0.0872
  466MOL0     H62843   1.896   1.035   7.756  0.4848 -3.8105 -1.3874
  466MOL0     H62844   1.769   1.232   7.686 -0.7011 -1.6302  0.7666
  466MOL0     H62845   1.962   1.502   7.375  0.8946  0.0206  1.2113
  466MOL0     H62846   1.789   1.481   7.307 -2.6356 -0.2390  1.6115
  466MOL0     H62847   1.762   1.695   7.375  0.6343  0.5515  1.1824
  466MOL0     H62848   1.702   1.605   7.501 -0.9791  1.1156 -2.1563
  466MOL0     H62849   1.921   1.621   7.630 -1.9649  0.3521  1.8483
  466MOL0     H62850   1.979   1.727   7.492 -0.9696  0.6832 -0.0759
  466MOL0     H62851   1.809   1.885   7.545  1.6919  0.8037  0.6976
  466MOL0     H62852   1.749   1.780   7.683 -0.4266 -0.7504 -0.7621
  466MOL0     H62853   1.982   1.815   7.780 -0.6573  2.6087  3.1414
  466MOL0     H62854   2.029   1.906   7.637  1.2630  2.3968  0.8745
  466MOL0     H62855   1.960   2.061   7.846 -0.3070  1.6769 -0.0915
  466MOL0     H62856   1.891   2.094   7.685  3.0573 -1.3171 -1.1044
  466MOL0     H62857   1.692   2.015   7.750 -0.7815 -1.2978  1.1367
  466MOL0     H62858   1.757   1.918   7.893  2.8053 -0.7051 -1.2794
  466MOL0     H62859   1.744   2.221   7.890  1.4139 -0.8948  0.0277
  466MOL0     H62860   1.809   2.129   8.010  1.3627 -2.0625 -1.2073
  466MOL0     H62861   1.655   2.022   8.186  1.0515 -0.9945 -1.9846
  466MOL0     H62862   1.396   1.958   8.321 -1.6360  0.5910  3.2175
  466MOL0     H62863   1.375   2.124   8.341  3.5877 -0.9472  0.8989
  466MOL0     H62864   1.165   1.963   8.315  1.3013 -2.3382 -1.2615
  466MOL0     H62865   1.178   1.987   8.144 -2.3968 -2.3702  1.7959
  466MOL0     H62866   1.194   2.233   8.169 -2.2017 -1.4993 -3.1663
  466MOL0     H62867   1.175   2.227   8.345 -3.5373 -2.1676  2.8947
  466MOL0     H62868   0.969   2.135   8.138  1.2527  1.2428 -1.2628
  466MOL0     H62869   0.967   2.291   8.231  0.0682 -0.5980  0.1659
  466MOL0     H62870   0.743   2.301   8.348  1.7973 -0.0035  1.5109
  466MOL0     H62871   0.407   2.270   8.406  1.6236  0.2803  1.3245
  466MOL0     H62872   0.523   2.387   8.338 -3.3849  1.9662 -2.0701
  466MOL0     H62873   0.439   2.286   8.226  0.3689  2.7741 -0.6546
  466MOL0     H62874   0.153   2.056   8.025 -0.6362  0.9342 -1.0571
  466MOL0     H62875  -0.089   2.038   8.024 -1.8394  2.0778  1.5352
  466MOL0     H62876  -0.309   2.009   8.032  1.8785  0.9539  1.8868
  466MOL0     H62877  -0.226   1.848   8.068  2.7541  0.7905  0.0468
  466MOL0     H62878  -0.428   1.799   8.211  0.7254  3.1619  3.1048
  466MOL0     H62879  -0.502   1.942   8.165 -2.4751 -3.0779  2.6384
  466MOL0     H62880  -0.488   1.875   7.921 -0.4070  1.1908  1.4295
  466MOL0     H62881  -0.607   1.800   8.008  0.5443 -2.9363  0.3484
  466MOL0     H62882  -0.341   1.673   8.001  0.3850 -1.3228 -1.2859
  466MOL0     H62883  -0.490   1.593   8.064  2.8714 -1.5415 -0.6253
  466MOL0     H62884  -0.455   1.650   7.771  1.3601  0.1526  0.2768
  466MOL0     H62885  -0.589   1.570   7.862  0.3797 -1.2490  2.9064
  466MOL0     H62886  -0.311   1.459   7.912 -0.2459  0.7821 -0.2365
  466MOL0     H62887  -0.461   1.391   7.941 -0.4754  1.1634  0.6864
  466MOL0     H62888  -0.523   1.404   7.687 -2.2798  1.1784  4.2856
  466MOL0     H62889  -0.417   1.276   7.764  0.0840  0.1413 -0.3412
  466MOL0     H62890  -0.315   1.526   7.638  0.6985 -0.2265  0.0827
  466MOL0     H62891  -0.352   1.380   7.540  0.9159 -2.6548  0.2233
  466MOL0     H62892  -0.102   2.025   8.448 -2.4489  2.5792 -0.6930
  466MOL0     H62893   0.145   2.042   8.453 -0.7819  0.6775 -0.1622
  466MOL0     H62894   0.598   1.834   8.303 -2.0872 -0.3529  3.0203
  466MOL0     H62895   0.837   1.892   8.314  0.4710 -0.1407 -1.6618
  466MOL0     H62896   2.045   1.301   7.364 -1.4310  0.0129 -1.9625
  466MOL0     H62897   2.160   1.086   7.422  0.4232  1.0846  0.5223
  466MOL0     H62898   2.082   0.747   7.799 -1.0159 -2.3053 -0.8677
  466MOL0     H62899   2.202   0.581   7.949  0.6778  0.6983  1.1540
  466MOL0     H62900   2.272   0.415   8.040  0.1174  0.5940  0.5508
  466MOL0     H62901   2.419   0.320   8.039 -0.1775 -0.8398 -0.2868
  466MOL0     H62902   2.440   0.507   8.188 -0.0246 -1.4726  0.2181
  466MOL0     H62903   2.384   0.621   8.061 -1.3014 -0.8698  0.9632
  466MOL0     H62904   2.590   0.593   7.936  0.1796 -0.5345  0.1276
  466MOL0     H62905   2.658   0.478   8.051 -2.2546 -2.0441 -4.4125
  466MOL0     H62906   2.582   0.765   8.114 -0.1307  0.0307  0.0560
  466MOL0     H62907   2.750   0.712   8.078  0.1511 -2.7647 -0.9293
  466MOL0     H62908   2.770   0.610   8.465  1.2727 -0.9521 -0.5841
  466MOL0     H62909   2.437   0.468   7.616 -2.3236 -1.1744 -0.3937
  466MOL0     H62910   2.320   0.638   7.466 -1.5490  0.8014 -0.1642
  467MOL0     O62911   2.214   7.311   5.515  0.3575 -0.3380 -0.3239
  467MOL0     C62912   2.137   7.249   5.442 -0.1442 -0.3973  1.0327
  467MOL0     O62913   2.162   7.117   5.400  0.5572 -0.6451 -0.0123
  467MOL0     C62914   2.280   7.063   5.439  0.1142  0.2319 -0.4814
  467MOL0     C62915   2.299   7.002   5.569 -0.1530 -0.1307  0.8159
  467MOL0     C62916   2.424   6.951   5.603 -0.2220  0.2063 -0.6408
  467MOL0     C62917   2.526   6.951   5.512 -0.8424  0.5429 -0.1825
  467MOL0     O62918   2.646   6.886   5.543  0.6354 -0.1100 -0.0708
  467MOL0     C62919   2.649   6.749   5.525 -0.5269  0.2230 -0.6238
  467MOL0     C62920   2.774   6.677   5.576 -0.4435 -0.7899 -0.6871
  467MOL0     C62921   2.892   6.705   5.485  0.3973  0.5093 -0.6019
  467MOL0     C62922   3.009   6.607   5.509 -0.0785 -0.7858 -0.1619
  467MOL0     C62923   3.122   6.602   5.408 -0.0931 -0.7781 -0.1891
  467MOL0     C62924   3.086   6.528   5.274  0.0804 -0.6951 -0.2416
  467MOL0     C62925   3.206   6.502   5.184  0.5303 -0.1952 -0.1525
  467MOL0     C62926   3.277   6.622   5.138  0.1915  0.1419  0.0164
  467MOL0     N62927   3.409   6.587   5.075  0.0030  0.1770 -0.1292
  467MOL0     C62928   3.428   6.550   4.943  0.0893 -0.6419  0.0894
  467MOL0     C62929   3.563   6.514   4.928 -0.5242  0.6860 -0.4117
  467MOL0     C62930   3.619   6.500   4.790 -0.5251  0.2896  1.1789
  467MOL0     C62931   3.766   6.544   4.781  0.3575 -0.4301  0.5112
  467MOL0     C62932   3.870   6.428   4.803 -0.0736 -0.1627 -0.3372
  467MOL0     C62933   3.854   6.350   4.932 -0.0687 -0.4777  0.3468
  467MOL0     O62934   3.953   6.254   4.953 -0.1508  0.1128 -0.1476
  467MOL0     C62935   4.082   6.288   4.979  1.3927  0.1093 -0.6595
  467MOL0     C62936   4.134   6.416   5.001 -0.4256 -0.5445 -0.2722
  467MOL0     C62937   4.261   6.431   5.058 -0.1075  0.5041 -1.1689
  467MOL0     C62938   4.300   6.575   5.107 -0.1210  0.5535  0.4375
  467MOL0     C62939   4.354   6.324   5.070  1.6494  0.6295  0.1865
  467MOL0     C62940   4.492   6.336   5.129  0.3495  0.3914  0.0028
  467MOL0     O62941   4.572   6.432   5.085  0.0111  0.4119 -0.0805
  467MOL0     C62942   4.681   6.463   5.158 -0.1678  0.7407  0.7023
  467MOL0     C62943   4.805   6.391   5.146  0.1902 -0.1973  0.0736
  467MOL0     C62944   4.924   6.437   5.204  0.0457 -0.3778  0.1859
  467MOL0     C62945   4.927   6.547   5.288 -1.0645  0.3694  0.4962
  467MOL0     O62946   5.044   6.584   5.344  0.3058 -0.9829 -0.3670
  467MOL0     C62947   5.056   6.705   5.420 -0.1958  1.0807 -0.6197
  467MOL0     C62948   5.201   6.742   5.443  0.1543  0.3501  1.3628
  467MOL0     C62949   5.248   6.664   5.572 -0.5361  0.0572  0.6221
  467MOL0     C62950   5.388   6.695   5.632 -0.3587 -0.3486 -0.4925
  467MOL0     C62951   5.430   6.622   5.759 -0.0193  0.6555 -0.4934
  467MOL0     C62952   5.344   6.639   5.888  0.6944  0.3570  0.8211
  467MOL0     C62953   5.377   6.570   6.018 -0.0621 -0.3076  0.3686
  467MOL0     C62954   5.253   6.564   6.120 -0.0616 -0.5284 -0.2255
  467MOL0    Cl62955   5.137   6.431   6.071 -0.1881 -0.0170  0.0160
  467MOL0     C62956   4.809   6.617   5.290 -1.1318  0.1731  0.4537
  467MOL0     C62957   4.690   6.580   5.236 -0.2375 -0.6164  0.2318
  467MOL0     O62958   4.518   6.260   5.222  0.1056  0.2982 -0.0982
  467MOL0     C62959   4.298   6.193   5.047  0.0523  0.5597 -1.0038
  467MOL0     C62960   4.165   6.180   5.007  0.5062  0.2787 -0.4787
  467MOL0     N62961   3.620   6.519   5.054  0.4206  0.3061 -0.0056
  467MOL0     N62962   3.533   6.573   5.142  0.1764  1.0649 -0.1176
  467MOL0     C62963   2.502   7.009   5.386 -0.0490 -0.2937 -1.0676
  467MOL0     C62964   2.384   7.067   5.351  0.0896 -0.2491  0.6823
  467MOL0     C62965   2.005   7.322   5.403 -0.3911 -0.0587  0.5735
  467MOL0     C62966   1.911   7.253   5.318  1.1307 -0.2385 -0.0883
  467MOL0     C62967   1.794   7.311   5.289 -0.0566 -0.4622  0.6281
  467MOL0     C62968   1.753   7.432   5.345  1.0414 -1.9478  1.1930
  467MOL0     O62969   1.629   7.478   5.303 -0.7980 -0.1315  0.7955
  467MOL0     C62970   1.575   7.607   5.334 -0.0958 -1.0215 -0.9420
  467MOL0     C62971   1.447   7.600   5.249 -0.2304 -0.4838 -0.0544
  467MOL0     C62972   1.474   7.605   5.101  0.3685 -0.3455  0.1624
  467MOL0     C62973   1.478   7.744   5.040 -0.7912 -0.3919  0.1577
  467MOL0     C62974   1.370   7.832   5.056  1.5225  0.1666  0.5404
  467MOL0     C62975   1.269   7.901   5.076 -0.7629 -0.2902 -0.3585
  467MOL0     C62976   1.842   7.508   5.412  0.0134 -0.1068 -0.7843
  467MOL0     C62977   1.969   7.452   5.448  0.3624  0.2687  0.6855
  467MOL0     H62978   2.229   6.991   5.651  0.4734 -0.1808  1.3485
  467MOL0     H62979   2.454   6.920   5.703 -2.8532 -1.1788 -0.1987
  467MOL0     H62980   2.566   6.696   5.574 -0.1509  0.3333  0.1604
  467MOL0     H62981   2.647   6.721   5.420 -0.1187  0.7265 -0.7687
  467MOL0     H62982   2.796   6.718   5.675  1.3390  1.2868 -1.8483
  467MOL0     H62983   2.775   6.569   5.594  0.0937 -0.5563  0.7883
  467MOL0     H62984   2.872   6.698   5.378 -3.3117  0.3914 -0.0087
  467MOL0     H62985   2.924   6.808   5.503  3.0107 -0.2458 -0.5120
  467MOL0     H62986   3.044   6.646   5.605 -0.3551  3.5670 -1.6108
  467MOL0     H62987   2.970   6.505   5.518  0.3778 -0.9406  0.1129
  467MOL0     H62988   3.161   6.700   5.383 -3.4552  0.4307 -1.2775
  467MOL0     H62989   3.205   6.552   5.459  0.2016  1.0242  1.1836
  467MOL0     H62990   3.035   6.433   5.295 -0.8119 -0.2204 -0.2179
  467MOL0     H62991   3.008   6.585   5.222 -1.9131 -0.2063  2.9776
  467MOL0     H62992   3.285   6.446   5.235  1.1659 -1.3191 -2.2079
  467MOL0     H62993   3.174   6.435   5.103 -0.3530 -1.0494  0.8781
  467MOL0     H62994   3.285   6.695   5.220  0.9923 -0.2700  0.3187
  467MOL0     H62995   3.218   6.672   5.062  0.0550  0.2265  0.1773
  467MOL0     H62996   3.349   6.561   4.869  0.7745 -1.6570 -0.8103
  467MOL0     H62997   3.603   6.394   4.765 -2.6473  1.0616 -1.1288
  467MOL0     H62998   3.553   6.563   4.730  0.2011 -0.6846 -0.7655
  467MOL0     H62999   3.778   6.633   4.844  0.2124  0.4976 -0.7261
  467MOL0     H63000   3.780   6.576   4.677 -0.5088 -1.2329  0.1384
  467MOL0     H63001   3.962   6.488   4.798 -0.7908  1.2265  1.7949
  467MOL0     H63002   3.868   6.359   4.718  1.2379 -1.1740  0.4134
  467MOL0     H63003   3.764   6.289   4.937  0.2353 -1.4730 -3.5703
  467MOL0     H63004   3.842   6.433   5.003 -0.8805  0.2187 -0.5840
  467MOL0     H63005   4.065   6.497   4.980 -1.5024 -1.7469 -1.5969
  467MOL0     H63006   4.226   6.654   5.091 -0.3187  0.3230  0.1908
  467MOL0     H63007   4.332   6.571   5.211  1.0066 -0.7354  0.0718
  467MOL0     H63008   4.383   6.610   5.045 -1.5142  4.1224  0.3377
  467MOL0     H63009   4.809   6.304   5.081 -4.4367  0.9176 -2.0630
  467MOL0     H63010   5.012   6.375   5.191  1.3498  1.3779  0.1621
  467MOL0     H63011   5.003   6.788   5.372 -3.2680  0.3765  1.2704
  467MOL0     H63012   5.006   6.696   5.517 -0.6627  0.8814 -0.8780
  467MOL0     H63013   5.260   6.711   5.356 -0.3780 -1.4833  1.6038
  467MOL0     H63014   5.205   6.848   5.468  2.5814  0.6644 -0.0847
  467MOL0     H63015   5.251   6.557   5.547  2.6276  0.3514 -0.7634
  467MOL0     H63016   5.168   6.671   5.646 -1.4088 -1.0393 -0.1773
  467MOL0     H63017   5.462   6.678   5.553  1.2169  3.0360  0.0834
  467MOL0     H63018   5.405   6.801   5.647  3.1772 -0.3545 -3.1260
  467MOL0     H63019   5.533   6.646   5.783 -0.8337  1.8519  2.2232
  467MOL0     H63020   5.432   6.514   5.742  4.3305  0.1092  2.0313
  467MOL0     H63021   5.342   6.746   5.909 -0.0291  0.9560 -1.8995
  467MOL0     H63022   5.243   6.609   5.860  0.1816  1.5292  1.3174
  467MOL0     H63023   5.467   6.623   6.051  2.2115 -1.8589 -2.8110
  467MOL0     H63024   5.399   6.464   6.000  3.1841  0.7173 -2.8558
  467MOL0     H63025   5.206   6.658   6.089 -1.7404 -1.2200  0.0913
  467MOL0     H63026   5.290   6.557   6.223  0.5139 -4.0177 -0.5554
  467MOL0     H63027   4.807   6.712   5.342 -0.4205 -0.4193  1.5855
  467MOL0     H63028   4.610   6.653   5.234  0.5295  0.2636 -2.0313
  467MOL0     H63029   4.347   6.099   5.070 -1.5029 -1.1381 -4.1036
  467MOL0     H63030   4.121   6.083   4.991  1.0303  0.1958 -1.5345
  467MOL0     H63031   2.570   7.006   5.301 -1.5458 -0.9186 -2.2937
  467MOL0     H63032   2.362   7.103   5.251  2.7091 -1.3333 -0.3783
  467MOL0     H63033   1.931   7.150   5.290 -2.1434 -0.5486 -1.7687
  467MOL0     H63034   1.713   7.276   5.226 -2.3054  1.0551  2.4987
  467MOL0     H63035   1.563   7.613   5.442 -0.1074 -1.0123 -0.9439
  467MOL0     H63036   1.646   7.683   5.299  0.2139 -1.4790 -1.3281
  467MOL0     H63037   1.394   7.691   5.279  0.9256 -0.0343  0.7026
  467MOL0     H63038   1.374   7.524   5.277 -1.0582  0.6126  0.8714
  467MOL0     H63039   1.391   7.568   5.040 -2.1931  3.8429  0.6913
  467MOL0     H63040   1.565   7.549   5.078  2.0690  1.6351  1.7196
  467MOL0     H63041   1.499   7.724   4.934  2.4186  0.9174  0.4502
  467MOL0     H63042   1.568   7.791   5.079 -0.3760 -0.4443 -0.7154
  467MOL0     H63043   1.178   7.949   5.104  0.5656  1.0661  1.9299
  467MOL0     H63044   1.826   7.607   5.453  4.3733  0.6082 -0.3455
  467MOL0     H63045   2.043   7.522   5.486  1.4168  0.2960 -1.2737
  468MOL0     O63046   9.821   4.129   9.406  0.0885 -0.6291 -0.0100
  468MOL0     C63047   9.884   4.193   9.494  0.5704  0.8147  0.2351
  468MOL0     O63048   9.822   4.271   9.591 -0.2727  0.3409 -0.5723
  468MOL0     C63049   9.687   4.276   9.590  0.1380 -0.3942 -0.2168
  468MOL0     C63050   9.618   4.319   9.482  1.0032 -0.3119 -0.6315
  468MOL0     C63051   9.474   4.306   9.485 -0.1910 -0.4335 -0.2308
  468MOL0     C63052   9.409   4.248   9.599 -0.1170 -1.1646  0.2772
  468MOL0     O63053   9.271   4.224   9.621 -0.1439  0.0635  0.2533
  468MOL0     C63054   9.187   4.231   9.502 -0.2903  0.1793  0.3172
  468MOL0     C63055   9.104   4.360   9.521  0.2416  0.5367 -0.5692
  468MOL0     C63056   9.126   4.463   9.413 -0.3561 -0.6653 -0.5932
  468MOL0     C63057   9.062   4.436   9.288 -0.1720 -0.0174  0.1085
  468MOL0     C63058   9.076   4.556   9.198  0.2757 -0.1431  1.0542
  468MOL0     C63059   8.993   4.535   9.067 -0.1762  0.3956  0.5109
  468MOL0     C63060   8.837   4.526   9.066 -0.3471  0.0295  0.0331
  468MOL0     C63061   8.785   4.529   8.924 -0.0851 -0.6225  0.0633
  468MOL0     N63062   8.643   4.542   8.930  0.4130  0.0875  0.3595
  468MOL0     C63063   8.550   4.459   8.992 -0.1536 -0.2958 -0.1698
  468MOL0     C63064   8.427   4.510   8.969 -0.0930  1.2893 -0.4246
  468MOL0     C63065   8.307   4.481   9.042 -0.8574 -0.4867 -0.4244
  468MOL0     C63066   8.189   4.466   8.937  0.2169 -0.2550 -0.3842
  468MOL0     C63067   8.189   4.313   8.886  0.6394 -0.5272 -0.8692
  468MOL0     C63068   8.045   4.280   8.833 -0.7722  0.0102 -0.5592
  468MOL0     O63069   7.973   4.233   8.950 -0.1214 -1.0531 -0.5045
  468MOL0     C63070   7.835   4.245   8.962  0.1680 -0.8782  0.0685
  468MOL0     C63071   7.775   4.309   9.073 -0.2357  0.5204  0.3886
  468MOL0     C63072   7.634   4.316   9.088 -0.2784 -0.2508  0.9160
  468MOL0     C63073   7.593   4.387   9.211 -0.1122 -0.4400  0.2504
  468MOL0     C63074   7.552   4.271   8.985 -0.5869 -0.4165  0.0377
  468MOL0     C63075   7.408   4.284   8.996  0.8588  0.0141  0.3421
  468MOL0     O63076   7.334   4.182   8.940 -0.9967 -0.2109 -0.5315
  468MOL0     C63077   7.199   4.185   8.953  1.1863  0.0460 -0.4591
  468MOL0     C63078   7.104   4.246   8.865 -0.3071  0.2255  0.0180
  468MOL0     C63079   6.971   4.237   8.893 -0.3842  0.4456 -0.5425
  468MOL0     C63080   6.918   4.171   9.004  0.0434  0.2705 -0.8093
  468MOL0     O63081   6.791   4.177   9.042 -0.0066  0.1466  0.6777
  468MOL0     C63082   6.688   4.201   8.938 -0.8149  0.7934  0.2813
  468MOL0     C63083   6.546   4.193   8.997  0.4988 -0.1007 -0.3400
  468MOL0     C63084   6.449   4.244   8.892  0.2095 -0.5489 -0.1393
  468MOL0     C63085   6.328   4.326   8.945 -0.4092  0.3610  1.1212
  468MOL0     C63086   6.232   4.251   9.027 -0.1419  0.4716 -0.7715
  468MOL0     C63087   6.124   4.341   9.084  0.3994  0.7934 -0.3205
  468MOL0     C63088   6.025   4.255   9.151 -0.0853 -0.3714  0.5852
  468MOL0     C63089   5.907   4.345   9.216 -0.0994  0.1840  0.1439
  468MOL0    Cl63090   5.971   4.427   9.365 -0.0851  0.1420 -0.1260
  468MOL0     C63091   7.013   4.105   9.089  0.4225 -0.3107 -0.1350
  468MOL0     C63092   7.148   4.107   9.066  0.4816 -0.2794  0.6008
  468MOL0     O63093   7.355   4.386   9.042 -0.4695  0.2733  0.1252
  468MOL0     C63094   7.605   4.211   8.872 -1.0534  0.0775 -0.5013
  468MOL0     C63095   7.745   4.189   8.864 -0.2374  0.3978  0.4007
  468MOL0     N63096   8.450   4.618   8.891 -0.0092  0.3361  0.0922
  468MOL0     N63097   8.574   4.642   8.871  0.9489 -0.4248  0.3567
  468MOL0     C63098   9.483   4.209   9.710 -0.1900 -0.5570  0.7968
  468MOL0     C63099   9.626   4.217   9.699 -0.2708  0.8316 -0.0766
  468MOL0     C63100  10.030   4.184   9.495  0.1626  0.0922 -1.5267
  468MOL0     C63101  10.098   4.116   9.393 -0.6778 -0.1727  0.5829
  468MOL0     C63102  10.242   4.123   9.383 -0.5471 -0.9078  0.0634
  468MOL0     C63103  10.315   4.194   9.478  0.6083 -0.3710  0.3431
  468MOL0     O63104  10.452   4.202   9.498  0.7277 -0.2119  0.8042
  468MOL0     C63105  10.536   4.127   9.403 -0.1671 -0.0174  0.5771
  468MOL0     C63106  10.685   4.157   9.434  0.3334  0.5661  0.9769
  468MOL0     C63107  10.751   4.032   9.479 -0.3287 -0.1669 -0.1229
  468MOL0     C63108  10.900   4.065   9.505  0.4148  0.6340 -0.0539
  468MOL0     C63109  10.991   3.949   9.483  0.0025  0.3695 -0.0728
  468MOL0     C63110  11.059   3.860   9.448 -0.3197  0.1907  0.4424
  468MOL0     C63111  10.239   4.273   9.570 -0.7663 -0.4356 -0.7855
  468MOL0     C63112  10.103   4.270   9.576  0.0819 -0.1576 -1.1411
  468MOL0     H63113   9.678   4.353   9.399  2.2723  0.9975  0.7613
  468MOL0     H63114   9.424   4.348   9.398 -1.8834  0.5161  1.1317
  468MOL0     H63115   9.247   4.229   9.410  1.9036  2.8948  1.5471
  468MOL0     H63116   9.134   4.135   9.505 -0.7231  0.3711 -0.9041
  468MOL0     H63117   8.996   4.341   9.527  0.6364 -1.5160  1.2848
  468MOL0     H63118   9.131   4.398   9.619  0.0686 -1.2588  0.2113
  468MOL0     H63119   9.066   4.545   9.454  0.4381 -0.2859 -0.1881
  468MOL0     H63120   9.230   4.493   9.404 -1.1420  2.0427 -1.4724
  468MOL0     H63121   9.123   4.359   9.240 -1.1539 -1.2151  0.7079
  468MOL0     H63122   8.955   4.411   9.293 -0.5226  1.3450 -0.0848
  468MOL0     H63123   9.049   4.648   9.252 -0.8475 -1.4470  2.8443
  468MOL0     H63124   9.182   4.565   9.172 -0.1653 -0.7020 -1.0662
  468MOL0     H63125   9.032   4.610   8.997 -2.9484  0.1061 -1.5220
  468MOL0     H63126   9.017   4.440   9.019 -2.1930  1.8828 -4.0715
  468MOL0     H63127   8.794   4.438   9.115 -3.2285  0.8887 -0.7569
  468MOL0     H63128   8.790   4.608   9.121 -1.3130  0.3266 -1.1718
  468MOL0     H63129   8.801   4.439   8.864  0.1871  0.0423 -0.8914
  468MOL0     H63130   8.830   4.612   8.869  2.0952 -0.8961  1.3379
  468MOL0     H63131   8.587   4.391   9.068 -1.6048 -0.9108  0.0053
  468MOL0     H63132   8.326   4.392   9.103  0.4423 -0.2577 -0.4517
  468MOL0     H63133   8.278   4.563   9.109  1.4012 -0.2536  0.3871
  468MOL0     H63134   8.199   4.540   8.857 -2.7766  0.6355 -0.0310
  468MOL0     H63135   8.095   4.479   8.991  1.4932  1.2043  1.6228
  468MOL0     H63136   8.206   4.243   8.967  0.6204 -0.9918 -1.2620
  468MOL0     H63137   8.269   4.296   8.814  1.8998 -2.1336  0.8302
  468MOL0     H63138   8.045   4.194   8.766 -2.7911 -0.8640  0.4576
  468MOL0     H63139   7.999   4.365   8.782 -0.9206  1.0480  1.1930
  468MOL0     H63140   7.844   4.352   9.146 -0.3980  1.7627 -0.1687
  468MOL0     H63141   7.554   4.483   9.174  1.4815  0.2696  0.2923
  468MOL0     H63142   7.511   4.338   9.263  1.1908 -0.8073  2.0847
  468MOL0     H63143   7.674   4.404   9.283  2.3599 -1.3972 -2.1094
  468MOL0     H63144   7.136   4.305   8.779 -1.4045 -0.5834 -0.9697
  468MOL0     H63145   6.910   4.283   8.816  0.1464  2.9283  0.4086
  468MOL0     H63146   6.711   4.301   8.901  1.8636  0.6778  1.3306
  468MOL0     H63147   6.703   4.125   8.861  0.4828 -0.9221  2.1183
  468MOL0     H63148   6.514   4.094   9.032  0.5710 -0.1599 -0.4401
  468MOL0     H63149   6.561   4.255   9.086  2.0296 -0.5948 -0.2252
  468MOL0     H63150   6.410   4.162   8.830  0.0684  0.6382 -1.6850
  468MOL0     H63151   6.502   4.317   8.829 -1.1928  0.7340  0.1129
  468MOL0     H63152   6.369   4.403   9.011  0.0414 -0.3897  1.7349
  468MOL0     H63153   6.271   4.365   8.860  1.2300  0.3431 -0.0324
  468MOL0     H63154   6.289   4.197   9.103 -1.8124 -1.2456 -0.6450
  468MOL0     H63155   6.184   4.177   8.962  1.1040 -0.1958 -0.9607
  468MOL0     H63156   6.165   4.409   9.159  1.4395 -2.4812  2.3567
  468MOL0     H63157   6.074   4.388   8.999  1.7171  0.2416 -1.4411
  468MOL0     H63158   6.081   4.203   9.229  0.8008 -0.6265 -0.1919
  468MOL0     H63159   5.979   4.194   9.072  1.6149 -1.2461  0.2131
  468MOL0     H63160   5.834   4.267   9.240 -1.2197  1.4458  0.9629
  468MOL0     H63161   5.869   4.417   9.142  0.9260  0.1080 -0.4749
  468MOL0     H63162   6.979   4.058   9.181  1.9065 -0.0089  0.6064
  468MOL0     H63163   7.222   4.059   9.129  3.2053  2.3005 -0.3947
  468MOL0     H63164   7.545   4.163   8.796 -3.3958  0.4984  0.9708
  468MOL0     H63165   7.786   4.150   8.772  1.3267  2.2407  0.2361
  468MOL0     H63166   9.446   4.173   9.806  2.6606 -0.2343  2.1375
  468MOL0     H63167   9.679   4.162   9.776 -1.4658  0.4507  0.4927
  468MOL0     H63168  10.045   4.062   9.315 -0.0642  0.4898 -0.3070
  468MOL0     H63169  10.297   4.060   9.313  3.5878 -0.5434  2.6410
  468MOL0     H63170  10.521   4.019   9.396  0.8084 -0.0943 -0.6407
  468MOL0     H63171  10.510   4.167   9.304 -1.3856 -1.0670  0.4359
  468MOL0     H63172  10.685   4.247   9.496 -1.7548  1.2427  0.1054
  468MOL0     H63173  10.728   4.190   9.339  0.8268 -0.3015  0.8919
  468MOL0     H63174  10.745   3.955   9.401 -1.7068 -1.5021  1.2251
  468MOL0     H63175  10.706   3.984   9.566 -0.4889 -1.1610 -0.7380
  468MOL0     H63176  10.923   4.117   9.598  2.9131 -2.1613  1.0570
  468MOL0     H63177  10.914   4.136   9.423  1.0288  0.5925  0.0058
  468MOL0     H63178  11.134   3.784   9.439  0.6139  1.1736 -0.2645
  468MOL0     H63179  10.288   4.320   9.654  0.6444 -2.2242 -0.5396
  468MOL0     H63180  10.057   4.343   9.642  1.7469 -1.0192  1.0781
  469MOL0     O63181  11.361   4.009   6.600  0.0806 -1.0783  0.1277
  469MOL0     C63182  11.433   3.959   6.686  0.0772  0.1557 -0.3432
  469MOL0     O63183  11.393   3.860   6.765  0.5791  0.0233 -0.6826
  469MOL0     C63184  11.284   3.781   6.746  0.1935  1.1647  0.1604
  469MOL0     C63185  11.248   3.722   6.870 -0.1599  0.0706 -0.6692
  469MOL0     C63186  11.128   3.638   6.867  1.0216 -0.3106  0.5326
  469MOL0     C63187  11.057   3.607   6.749 -0.8152  0.7699 -0.6136
  469MOL0     O63188  10.952   3.519   6.738 -0.6402 -0.4061  0.4580
  469MOL0     C63189  10.894   3.465   6.858 -0.2308  0.2204  0.3337
  469MOL0     C63190  10.770   3.389   6.843 -0.4409  0.0453 -0.1424
  469MOL0     C63191  10.727   3.349   6.978 -0.3494  0.1847 -1.0302
  469MOL0     C63192  10.588   3.277   6.980 -0.8004 -0.3889  0.4277
  469MOL0     C63193  10.540   3.261   7.131  0.0197 -0.0673 -0.2593
  469MOL0     C63194  10.407   3.193   7.130  0.0044  1.0333 -0.5815
  469MOL0     C63195  10.336   3.163   7.268  0.0735  0.8059  0.6341
  469MOL0     C63196  10.197   3.096   7.246 -0.6371  0.9537 -0.7978
  469MOL0     N63197  10.129   3.045   7.376 -0.9822 -0.3261 -0.0675
  469MOL0     C63198  10.051   2.936   7.393 -0.2890 -0.1958  0.2535
  469MOL0     C63199   9.992   2.947   7.513 -0.4070  0.3386 -0.0961
  469MOL0     C63200   9.915   2.847   7.579  0.9424  0.2559 -0.0599
  469MOL0     C63201   9.781   2.895   7.624  0.3110 -0.0676  0.6262
  469MOL0     C63202   9.685   2.934   7.517  0.6160  0.1951  0.8011
  469MOL0     C63203   9.535   2.936   7.568  0.2949 -1.3707 -0.6902
  469MOL0     O63204   9.489   2.824   7.640 -0.2284  0.5758  0.1950
  469MOL0     C63205   9.358   2.801   7.647  0.4959  0.7679  0.0709
  469MOL0     C63206   9.313   2.665   7.666  0.4812  1.2584  0.0003
  469MOL0     C63207   9.176   2.631   7.675  0.0220 -0.5401  0.5668
  469MOL0     C63208   9.147   2.486   7.669  0.1836 -0.0709  0.1473
  469MOL0     C63209   9.076   2.733   7.667  0.2062  0.4831  0.6762
  469MOL0     C63210   8.930   2.708   7.652  0.0298  0.5175 -0.7188
  469MOL0     O63211   8.858   2.825   7.638  0.1256 -0.7766 -0.6379
  469MOL0     C63212   8.721   2.815   7.657  0.2565 -0.3946 -0.5350
  469MOL0     C63213   8.670   2.750   7.766  0.9408 -0.3853 -0.0666
  469MOL0     C63214   8.532   2.739   7.792 -0.0778 -1.0504 -0.6275
  469MOL0     C63215   8.442   2.800   7.704 -0.0494 -0.9515 -0.3429
  469MOL0     O63216   8.306   2.791   7.723  0.1529 -0.3572 -0.1652
  469MOL0     C63217   8.255   2.739   7.847 -0.8433 -0.6047  0.3228
  469MOL0     C63218   8.107   2.758   7.873 -0.3384  0.0333 -0.1501
  469MOL0     C63219   8.071   2.879   7.803 -0.2011  0.3256 -0.5467
  469MOL0     C63220   7.927   2.923   7.833  0.3047 -0.4906 -0.6198
  469MOL0     C63221   7.888   3.053   7.759 -0.1423  0.2360  0.7606
  469MOL0     C63222   7.748   3.104   7.775  0.6612 -0.0374  0.8805
  469MOL0     C63223   7.635   3.009   7.811 -0.4715  0.2607 -0.1313
  469MOL0     C63224   7.494   3.080   7.813 -0.1293 -0.8132 -0.4989
  469MOL0    Cl63225   7.495   3.263   7.848 -0.0088 -0.1190  0.4422
  469MOL0     C63226   8.492   2.866   7.599  0.0088 -1.6698 -0.1005
  469MOL0     C63227   8.629   2.874   7.575  0.0693  0.5857  0.5950
  469MOL0     O63228   8.888   2.587   7.646  0.0901  0.1848  0.0572
  469MOL0     C63229   9.124   2.873   7.659 -1.0583  0.6132 -0.3922
  469MOL0     C63230   9.264   2.903   7.647 -0.4299  0.2327  0.1707
  469MOL0     N63231  10.044   3.061   7.571 -0.1805 -0.1667  0.0527
  469MOL0     N63232  10.129   3.117   7.491  0.1340  0.5511 -0.7389
  469MOL0     C63233  11.113   3.660   6.634 -0.0102 -0.5506  1.1933
  469MOL0     C63234  11.218   3.748   6.628 -0.2110 -0.0757 -0.3726
  469MOL0     C63235  11.559   4.027   6.728 -0.5365  0.4913  0.1183
  469MOL0     C63236  11.645   3.970   6.826  0.0883 -0.3637 -0.4212
  469MOL0     C63237  11.774   4.026   6.855  0.0076 -0.4100  0.5489
  469MOL0     C63238  11.815   4.146   6.793  1.0183 -0.1339  0.1564
  469MOL0     O63239  11.924   4.205   6.843 -1.0693 -0.1847 -0.5536
  469MOL0     C63240  12.007   4.293   6.761 -0.3385  0.8992  1.5266
  469MOL0     C63241  12.157   4.291   6.821  0.0648 -1.2864 -0.0455
  469MOL0     C63242  12.198   4.161   6.882 -0.5342  0.5321  0.4046
  469MOL0     C63243  12.231   4.056   6.780  0.6172  0.4257  0.3553
  469MOL0     C63244  12.141   3.944   6.794 -0.7845 -0.4325 -0.5358
  469MOL0     C63245  12.067   3.843   6.806 -0.4047 -1.0599  0.1232
  469MOL0     C63246  11.731   4.200   6.697  0.1436  0.1688  0.4778
  469MOL0     C63247  11.607   4.144   6.666  0.5532  0.0668 -0.2999
  469MOL0     H63248  11.294   3.760   6.960 -0.9847 -2.1772  0.7782
  469MOL0     H63249  11.100   3.587   6.959 -5.5088  0.6531 -0.4313
  469MOL0     H63250  10.958   3.391   6.908 -0.9477 -0.8149 -0.2361
  469MOL0     H63251  10.887   3.548   6.929 -1.4773 -1.9241  2.9048
  469MOL0     H63252  10.692   3.447   6.792  1.4230  1.0661 -1.9677
  469MOL0     H63253  10.783   3.300   6.781  0.2273 -1.0269  1.4562
  469MOL0     H63254  10.805   3.278   7.009 -1.8850 -1.3064 -0.4253
  469MOL0     H63255  10.732   3.431   7.049 -1.4380 -0.8085  0.2496
  469MOL0     H63256  10.524   3.334   6.911  0.8363  2.6527  1.2403
  469MOL0     H63257  10.599   3.178   6.935 -0.2557 -0.0135 -0.2847
  469MOL0     H63258  10.608   3.193   7.182  0.9212 -1.2268 -2.8184
  469MOL0     H63259  10.524   3.356   7.183 -1.7135 -0.4046 -0.1194
  469MOL0     H63260  10.336   3.247   7.067 -2.2223 -1.0262  0.0189
  469MOL0     H63261  10.429   3.099   7.079  3.6919  1.2578  0.3398
  469MOL0     H63262  10.395   3.104   7.339 -0.7165  1.1074  1.5618
  469MOL0     H63263  10.325   3.254   7.328  1.2631  0.6366  1.1352
  469MOL0     H63264  10.201   3.007   7.182 -2.4904 -1.3595  2.0566
  469MOL0     H63265  10.131   3.171   7.202  0.9866  2.2330 -1.1648
  469MOL0     H63266  10.034   2.858   7.319 -0.3173  2.3183 -2.6035
  469MOL0     H63267   9.903   2.764   7.509 -3.2328  0.5870  0.0312
  469MOL0     H63268   9.958   2.812   7.674  0.4325  4.2656  1.8789
  469MOL0     H63269   9.800   2.986   7.681 -0.6187  1.2874 -1.1342
  469MOL0     H63270   9.735   2.819   7.689  0.7309 -1.9858 -1.2096
  469MOL0     H63271   9.698   2.856   7.441  1.1065  0.0349  1.0471
  469MOL0     H63272   9.707   3.033   7.477  0.2476  0.3672  1.0187
  469MOL0     H63273   9.465   2.948   7.484 -0.4674 -0.0162  0.1039
  469MOL0     H63274   9.518   3.027   7.625  1.8773  0.3425 -2.8027
  469MOL0     H63275   9.378   2.579   7.650 -0.5715  0.7566 -1.8720
  469MOL0     H63276   9.135   2.450   7.567  1.3609  2.2785 -0.9020
  469MOL0     H63277   9.233   2.434   7.711  1.4906  1.0536 -1.0628
  469MOL0     H63278   9.059   2.457   7.729 -0.0413  0.1265 -0.0855
  469MOL0     H63279   8.743   2.696   7.825  1.9549  3.4316  2.5497
  469MOL0     H63280   8.493   2.690   7.881 -3.4667  0.3348 -1.1935
  469MOL0     H63281   8.289   2.635   7.852  3.7925  0.7013  0.9373
  469MOL0     H63282   8.310   2.799   7.920 -0.9893 -1.1105  0.8509
  469MOL0     H63283   8.047   2.672   7.842 -1.4078 -0.5463  3.1277
  469MOL0     H63284   8.095   2.764   7.981  0.5958  1.8859 -0.1175
  469MOL0     H63285   8.082   2.869   7.695 -1.0676  0.7959 -0.6883
  469MOL0     H63286   8.129   2.962   7.846 -3.3583  0.8451  3.2424
  469MOL0     H63287   7.859   2.839   7.818 -3.0522  1.4965  2.0458
  469MOL0     H63288   7.935   2.940   7.941 -1.2972  1.8277 -0.7949
  469MOL0     H63289   7.899   3.014   7.658 -1.5864  0.1238  0.6216
  469MOL0     H63290   7.955   3.135   7.784 -1.6950  2.0764 -0.8077
  469MOL0     H63291   7.748   3.175   7.858  2.1612  2.4791 -1.1450
  469MOL0     H63292   7.713   3.157   7.686 -2.1679 -1.7619  0.8244
  469MOL0     H63293   7.648   2.976   7.914  1.0289  0.9811 -0.0632
  469MOL0     H63294   7.622   2.928   7.739  1.5555 -2.6623  2.5600
  469MOL0     H63295   7.420   3.033   7.878 -1.3660  0.5271 -0.8726
  469MOL0     H63296   7.448   3.069   7.715 -1.3075  0.1517 -0.0842
  469MOL0     H63297   8.425   2.918   7.532  0.7077 -0.4883  0.0890
  469MOL0     H63298   8.660   2.929   7.487 -1.1522 -0.2715 -0.4124
  469MOL0     H63299   9.052   2.953   7.650 -0.6250  1.0448 -0.0579
  469MOL0     H63300   9.304   3.003   7.639 -1.0083  0.5171  0.7802
  469MOL0     H63301  11.076   3.629   6.537  3.2600 -0.3887 -0.2322
  469MOL0     H63302  11.242   3.775   6.526 -1.6004 -0.5622 -0.8389
  469MOL0     H63303  11.608   3.882   6.877 -0.6559 -1.4179 -2.6672
  469MOL0     H63304  11.846   3.989   6.927  1.2929  0.8300 -0.0589
  469MOL0     H63305  12.018   4.256   6.659 -2.2344  2.3986  0.7284
  469MOL0     H63306  11.962   4.393   6.765 -1.2864  0.5355  0.4140
  469MOL0     H63307  12.163   4.364   6.902 -0.0633 -0.9565 -0.3306
  469MOL0     H63308  12.226   4.328   6.745 -1.3325  1.5634 -0.0567
  469MOL0     H63309  12.135   4.121   6.962  2.3676 -4.3384  0.6606
  469MOL0     H63310  12.295   4.177   6.930 -1.3324  0.1736  2.2255
  469MOL0     H63311  12.330   4.009   6.784  1.4734  1.7984 -2.2734
  469MOL0     H63312  12.220   4.089   6.676  0.5255  0.7820  0.4759
  469MOL0     H63313  12.035   3.741   6.821  1.1363 -1.7400 -0.9936
  469MOL0     H63314  11.759   4.291   6.644 -3.4790  0.5652 -1.0757
  469MOL0     H63315  11.545   4.193   6.592 -2.0036 -0.4322  1.3764
  470MOL0     O63316   2.170   6.449   3.199 -0.9665  1.4230 -0.3444
  470MOL0     C63317   2.225   6.556   3.224 -0.2747  0.5839 -0.1479
  470MOL0     O63318   2.164   6.681   3.209  0.6890  0.2985  0.4035
  470MOL0     C63319   2.031   6.689   3.173 -0.8042 -0.0489 -0.2183
  470MOL0     C63320   1.942   6.603   3.224  0.0103  0.3544 -0.4880
  470MOL0     C63321   1.809   6.617   3.193  0.6821  0.0483  0.5797
  470MOL0     C63322   1.762   6.705   3.098  0.5784 -0.2501  1.2303
  470MOL0     O63323   1.629   6.729   3.055 -0.1451 -0.2122  0.9491
  470MOL0     C63324   1.529   6.674   3.132 -0.2135 -0.2415 -0.1193
  470MOL0     C63325   1.510   6.751   3.267  0.6134 -0.2979  0.3113
  470MOL0     C63326   1.410   6.663   3.351 -0.8469 -0.2938  0.9028
  470MOL0     C63327   1.282   6.626   3.280  0.2578 -1.3921  0.1752
  470MOL0     C63328   1.186   6.555   3.381  0.1564  0.0557  0.0496
  470MOL0     C63329   1.066   6.506   3.300 -0.6229 -0.9437  0.8429
  470MOL0     C63330   0.960   6.437   3.384  0.2288 -0.0486  0.7651
  470MOL0     C63331   0.819   6.449   3.324 -0.1416  0.0859 -1.1996
  470MOL0     N63332   0.728   6.406   3.432 -0.2266  0.0855  0.4130
  470MOL0     C63333   0.746   6.396   3.565  0.9538  0.1961 -0.2624
  470MOL0     C63334   0.632   6.342   3.614  0.6358 -0.3683 -0.1062
  470MOL0     C63335   0.606   6.310   3.764  0.0004  0.1786  0.4210
  470MOL0     C63336   0.566   6.439   3.833 -0.1911 -0.1014  0.4037
  470MOL0     C63337   0.599   6.447   3.978 -0.5501 -0.3389 -0.4785
  470MOL0     C63338   0.754   6.444   4.018 -0.8087  0.2266  0.7033
  470MOL0     O63339   0.832   6.500   3.910  0.2581 -0.1236  0.6533
  470MOL0     C63340   0.969   6.478   3.910  0.2726  0.3545 -0.4705
  470MOL0     C63341   1.039   6.416   4.007  0.0371  0.1046  0.3593
  470MOL0     C63342   1.179   6.400   3.993 -0.2043  0.4421 -0.7003
  470MOL0     C63343   1.248   6.348   4.113  0.2812  0.6983 -0.0056
  470MOL0     C63344   1.249   6.451   3.876 -0.1621 -0.2827  0.3595
  470MOL0     C63345   1.389   6.462   3.852 -0.6049  0.2550  0.3158
  470MOL0     O63346   1.432   6.554   3.768  0.1260  0.7751  0.2068
  470MOL0     C63347   1.566   6.574   3.732 -0.1201 -0.4358 -0.2318
  470MOL0     C63348   1.654   6.468   3.683  0.1245 -0.1225  0.1398
  470MOL0     C63349   1.793   6.484   3.672  0.2170 -0.3263 -0.5663
  470MOL0     C63350   1.849   6.606   3.697  1.2406 -0.1737 -0.5363
  470MOL0     O63351   1.987   6.607   3.680 -0.0308  0.1364 -0.1966
  470MOL0     C63352   2.033   6.715   3.591 -0.0966  0.7096  0.0001
  470MOL0     C63353   2.171   6.671   3.539 -0.6795 -0.2546 -0.0603
  470MOL0     C63354   2.275   6.664   3.648  0.0678  0.2806  0.6364
  470MOL0     C63355   2.278   6.528   3.714 -0.0551  0.3327  0.0327
  470MOL0     C63356   2.379   6.515   3.830  0.7044 -0.0903  0.1533
  470MOL0     C63357   2.510   6.454   3.779  0.4454 -0.0670 -0.0520
  470MOL0     C63358   2.610   6.460   3.896 -0.4151 -0.2682 -0.0479
  470MOL0     C63359   2.746   6.469   3.832  0.2592  0.9398 -0.2993
  470MOL0    Cl63360   2.858   6.509   3.965  0.1643  0.3340  0.1404
  470MOL0     C63361   1.771   6.710   3.747 -0.1094  0.0404  0.2113
  470MOL0     C63362   1.632   6.692   3.768 -0.0884  0.4003 -0.2760
  470MOL0     O63363   1.456   6.378   3.912 -0.2737 -0.5538 -0.0133
  470MOL0     C63364   1.164   6.522   3.788  0.0699 -0.3489  0.3191
  470MOL0     C63365   1.026   6.532   3.794 -0.4141  0.4202 -1.0531
  470MOL0     N63366   0.542   6.337   3.514  0.9782 -0.0433  0.0211
  470MOL0     N63367   0.594   6.371   3.406 -0.2909 -0.1928  0.0608
  470MOL0     C63368   1.860   6.782   3.037 -0.6415  0.2665 -1.1093
  470MOL0     C63369   1.995   6.778   3.077  0.0153 -0.3833 -1.0595
  470MOL0     C63370   2.358   6.560   3.275 -0.3279  1.2055  0.3241
  470MOL0     C63371   2.407   6.437   3.325  0.6870 -0.8485  0.2632
  470MOL0     C63372   2.544   6.428   3.372  0.2833 -0.0906  0.0001
  470MOL0     C63373   2.625   6.543   3.373  0.6665  0.1303  0.0650
  470MOL0     O63374   2.739   6.547   3.448 -0.7063  0.1875 -0.4797
  470MOL0     C63375   2.828   6.438   3.473 -0.2267 -0.5981 -0.8010
  470MOL0     C63376   2.966   6.501   3.489 -0.5313 -0.0878 -0.2285
  470MOL0     C63377   3.017   6.589   3.367 -0.3560  0.1383 -0.1438
  470MOL0     C63378   2.976   6.734   3.385 -0.0234  0.7787  0.0536
  470MOL0     C63379   3.070   6.828   3.339  0.7338 -0.3989 -0.4200
  470MOL0     C63380   3.154   6.900   3.291  0.2152 -0.1959 -0.3320
  470MOL0     C63381   2.566   6.665   3.332  0.3580 -0.6082  0.1527
  470MOL0     C63382   2.439   6.672   3.278  0.4397 -0.1483  0.1021
  470MOL0     H63383   1.964   6.533   3.304 -0.3377  0.5276 -0.2388
  470MOL0     H63384   1.740   6.559   3.253 -1.4686  2.5447  0.6827
  470MOL0     H63385   1.436   6.696   3.079 -1.4858  2.4823  2.8923
  470MOL0     H63386   1.543   6.566   3.145 -1.0814 -0.2794  0.5526
  470MOL0     H63387   1.606   6.773   3.316 -0.0517  0.9273  1.1205
  470MOL0     H63388   1.462   6.848   3.249  0.8446 -0.6576 -2.7454
  470MOL0     H63389   1.460   6.571   3.383 -1.2221 -1.0438 -0.5550
  470MOL0     H63390   1.383   6.735   3.429  1.2125  2.3764 -0.6811
  470MOL0     H63391   1.238   6.714   3.233  0.6518 -0.4140  1.5785
  470MOL0     H63392   1.303   6.554   3.200 -0.1265 -1.4802  0.1539
  470MOL0     H63393   1.238   6.474   3.432 -0.4133 -0.5078 -0.2546
  470MOL0     H63394   1.151   6.621   3.461 -0.2307 -0.7620  0.5586
  470MOL0     H63395   1.019   6.595   3.257 -0.7454 -0.1073  2.6073
  470MOL0     H63396   1.101   6.435   3.224  1.8698  1.5903 -0.5895
  470MOL0     H63397   0.985   6.331   3.386 -2.0676 -0.7234 -1.1628
  470MOL0     H63398   0.962   6.479   3.485  0.8713  1.8265  0.0120
  470MOL0     H63399   0.807   6.390   3.233 -1.7209 -0.9065 -0.3834
  470MOL0     H63400   0.788   6.553   3.306  0.8145 -0.0309 -4.0631
  470MOL0     H63401   0.835   6.418   3.623 -0.1010 -1.5146  2.2119
  470MOL0     H63402   0.528   6.235   3.780  0.4572 -0.4679 -0.2725
  470MOL0     H63403   0.698   6.267   3.806  1.5866 -0.8354 -3.6528
  470MOL0     H63404   0.457   6.441   3.829 -0.3313 -1.1715  2.5173
  470MOL0     H63405   0.619   6.524   3.789  0.6618  0.6029  2.6574
  470MOL0     H63406   0.558   6.355   4.021 -0.5349 -0.8156 -1.4637
  470MOL0     H63407   0.551   6.532   4.027  1.5932  0.8048 -0.2760
  470MOL0     H63408   0.773   6.336   4.014  1.5416  0.6354 -1.5595
  470MOL0     H63409   0.777   6.492   4.113 -1.9488 -0.4169  1.3366
  470MOL0     H63410   0.987   6.377   4.094 -3.3807 -0.2016 -1.6589
  470MOL0     H63411   1.321   6.415   4.160 -1.4810 -0.6182  5.3974
  470MOL0     H63412   1.181   6.318   4.195 -1.3050  1.2025 -1.0641
  470MOL0     H63413   1.308   6.261   4.088  0.7189  1.4276 -1.6234
  470MOL0     H63414   1.625   6.365   3.669  0.3734  0.0429 -1.9448
  470MOL0     H63415   1.863   6.409   3.637  1.0060 -0.1935  0.6906
  470MOL0     H63416   1.970   6.724   3.502  0.5216  0.7115 -0.4402
  470MOL0     H63417   2.031   6.811   3.645  2.2148  1.6931 -1.5187
  470MOL0     H63418   2.159   6.571   3.497 -0.7131 -0.6413  0.8328
  470MOL0     H63419   2.198   6.746   3.464 -0.5648 -1.4182 -1.2129
  470MOL0     H63420   2.267   6.745   3.721  2.1376  0.3634  0.8417
  470MOL0     H63421   2.368   6.677   3.592 -0.4851  0.5853 -0.2274
  470MOL0     H63422   2.183   6.504   3.761 -2.0016 -2.0192 -4.5225
  470MOL0     H63423   2.297   6.454   3.636 -0.1605  0.3542 -0.0127
  470MOL0     H63424   2.345   6.445   3.906  3.4034 -1.7569 -0.0363
  470MOL0     H63425   2.390   6.603   3.894  2.4856 -0.7992  0.8982
  470MOL0     H63426   2.497   6.350   3.746  0.3816 -0.0102 -0.2085
  470MOL0     H63427   2.547   6.500   3.686  1.8252 -2.8032 -0.9685
  470MOL0     H63428   2.594   6.380   3.970  0.0614 -1.6497 -1.3816
  470MOL0     H63429   2.606   6.555   3.950 -4.0296  0.8172 -1.8776
  470MOL0     H63430   2.758   6.548   3.757  1.0133  0.2451 -0.9251
  470MOL0     H63431   2.771   6.370   3.793  1.2779  0.7828  0.6925
  470MOL0     H63432   1.818   6.806   3.766 -2.6998  1.4270  0.0541
  470MOL0     H63433   1.582   6.777   3.813  1.9600  2.1321 -1.1172
  470MOL0     H63434   1.206   6.584   3.709  1.2205  2.2941  2.8146
  470MOL0     H63435   0.966   6.590   3.725 -0.8191  3.0727  1.3555
  470MOL0     H63436   1.836   6.857   2.963 -0.3808  2.3917  0.8777
  470MOL0     H63437   2.062   6.851   3.034  0.1762  2.0430  2.8359
  470MOL0     H63438   2.343   6.352   3.346 -1.6672  1.4417  3.5174
  470MOL0     H63439   2.569   6.335   3.423 -0.8832  1.1029  2.9866
  470MOL0     H63440   2.795   6.395   3.568  2.0124 -1.2954 -0.2804
  470MOL0     H63441   2.837   6.369   3.389  2.5171  0.4095 -1.4099
  470MOL0     H63442   3.041   6.421   3.491 -0.7132 -0.2636  2.1065
  470MOL0     H63443   2.978   6.551   3.585 -0.0792 -1.8253  0.6636
  470MOL0     H63444   2.972   6.540   3.281  1.4731 -0.1424 -0.9730
  470MOL0     H63445   3.125   6.587   3.354 -0.3974 -0.4106 -0.4270
  470MOL0     H63446   2.962   6.756   3.491  1.2579 -2.6599  1.0614
  470MOL0     H63447   2.877   6.744   3.340 -0.0573 -1.6871 -0.5702
  470MOL0     H63448   3.220   6.979   3.260 -1.7221  2.8958  2.6729
  470MOL0     H63449   2.620   6.757   3.317 -1.2438  0.4768  0.6882
  470MOL0     H63450   2.404   6.772   3.252  0.4169 -0.0420  0.5318
  471MOL0     O63451   1.285   6.296  10.591 -0.4674  0.6821  0.2255
  471MOL0     C63452   1.255   6.243  10.483 -0.6974  0.8322  0.0498
  471MOL0     O63453   1.129   6.226  10.436 -0.5952 -0.4505 -0.2461
  471MOL0     C63454   1.026   6.283  10.510  0.4994 -0.5449 -0.4156
  471MOL0     C63455   0.915   6.333  10.437  0.2362 -0.4603  0.3064
  471MOL0     C63456   0.795   6.364  10.498 -0.2699  0.9248  0.0346
  471MOL0     C63457   0.779   6.341  10.638 -0.2844 -0.1030 -0.1341
  471MOL0     O63458   0.659   6.356  10.703  1.0684  0.1746 -0.0346
  471MOL0     C63459   0.583   6.234  10.703  0.1238 -0.2004 -0.1757
  471MOL0     C63460   0.428   6.262  10.712 -0.3816 -0.4392  0.1517
  471MOL0     C63461   0.371   6.328  10.843  0.5486 -0.1310 -0.0022
  471MOL0     C63462   0.216   6.317  10.858  1.1639  0.8205 -0.4074
  471MOL0     C63463   0.134   6.419  10.773  0.1989  0.3558  0.7377
  471MOL0     C63464   0.102   6.553  10.845 -0.3862  0.4265 -1.4066
  471MOL0     C63465  -0.006   6.630  10.756  0.6826  0.1249 -0.7877
  471MOL0     C63466  -0.006   6.767  10.817 -0.3762  0.6202 -0.3245
  471MOL0     N63467  -0.134   6.842  10.816  0.2124  0.1015  0.6338
  471MOL0     C63468  -0.252   6.798  10.767 -0.2171  0.1264  0.3412
  471MOL0     C63469  -0.341   6.897  10.798 -0.6031  0.4807 -0.6105
  471MOL0     C63470  -0.486   6.903  10.770 -0.5135 -0.6523 -0.4830
  471MOL0     C63471  -0.556   6.978  10.889 -1.3046  0.5116 -0.7563
  471MOL0     C63472  -0.534   6.900  11.021 -0.1059 -0.2888  0.5750
  471MOL0     C63473  -0.630   6.948  11.139 -0.7604  0.0744 -0.3559
  471MOL0     O63474  -0.763   6.967  11.090  0.4018 -0.0856 -0.0651
  471MOL0     C63475  -0.853   7.026  11.183 -0.5408 -0.7904  0.2792
  471MOL0     C63476  -0.827   7.077  11.310 -0.1123  0.4659  0.0005
  471MOL0     C63477  -0.923   7.135  11.397  0.2464 -0.3173  0.9617
  471MOL0     C63478  -0.870   7.193  11.526 -0.4582 -0.0391 -0.0331
  471MOL0     C63479  -1.060   7.129  11.340 -0.6668 -0.2797 -0.0171
  471MOL0     C63480  -1.179   7.181  11.412 -1.1955 -0.2337  0.3646
  471MOL0     O63481  -1.153   7.239  11.539 -0.6518 -0.1603  0.1111
  471MOL0     C63482  -1.263   7.291  11.609 -0.0104  0.4372 -0.5986
  471MOL0     C63483  -1.392   7.232  11.636 -0.2623  0.1667  0.5373
  471MOL0     C63484  -1.499   7.299  11.690 -0.0327  1.5053 -0.7145
  471MOL0     C63485  -1.487   7.428  11.725 -1.2482  0.4779  1.1178
  471MOL0     O63486  -1.598   7.479  11.790 -0.2223 -0.2903 -0.4791
  471MOL0     C63487  -1.643   7.602  11.737  0.4293  0.2176 -0.8217
  471MOL0     C63488  -1.786   7.619  11.775 -0.1623 -0.8143 -0.2910
  471MOL0     C63489  -1.810   7.686  11.907 -0.0750  0.3366  0.5267
  471MOL0     C63490  -1.887   7.815  11.888 -0.0550  0.4705  1.6882
  471MOL0     C63491  -1.918   7.892  12.018  0.6221  0.9914  0.0462
  471MOL0     C63492  -2.012   7.816  12.119 -0.1255  0.3873  0.5036
  471MOL0     C63493  -2.006   7.859  12.268 -0.7834 -0.2537  0.1092
  471MOL0     C63494  -2.036   8.019  12.276  0.2639 -0.3431  0.5842
  471MOL0    Cl63495  -2.196   8.078  12.206 -0.5329  0.3642  0.2049
  471MOL0     C63496  -1.372   7.501  11.686  0.4234  0.0624 -0.0136
  471MOL0     C63497  -1.259   7.432  11.632  0.5434 -0.2412  0.0405
  471MOL0     O63498  -1.289   7.173  11.353 -0.5345 -0.6808 -0.1121
  471MOL0     C63499  -1.077   7.078  11.212 -0.1280  0.8660 -0.9654
  471MOL0     C63500  -0.974   7.034  11.133 -0.4652 -0.1048  0.3524
  471MOL0     N63501  -0.270   6.999  10.870 -0.0828  0.2559 -0.6317
  471MOL0     N63502  -0.146   6.970  10.861 -0.4180  0.1552  0.5802
  471MOL0     C63503   0.890   6.317  10.713 -0.4286  0.6955  0.2045
  471MOL0     C63504   1.010   6.281  10.652 -1.0576  0.1091  0.0227
  471MOL0     C63505   1.361   6.225  10.381  0.5817 -0.4808  0.0872
  471MOL0     C63506   1.502   6.240  10.414  0.3167 -0.3845  0.1959
  471MOL0     C63507   1.605   6.228  10.315  0.0974 -0.0710  0.8253
  471MOL0     C63508   1.565   6.195  10.189 -0.6288  0.4346  1.0274
  471MOL0     O63509   1.669   6.190  10.101  0.2000 -1.1848 -0.8572
  471MOL0     C63510   1.757   6.077  10.125 -0.8534 -0.8290  0.0672
  471MOL0     C63511   1.720   5.963  10.027  0.7470 -0.8975  0.2977
  471MOL0     C63512   1.751   6.009   9.876 -0.3196 -0.7623  0.1613
  471MOL0     C63513   1.836   5.911   9.805 -0.2050  0.0975 -0.1485
  471MOL0     C63514   1.923   5.977   9.701  0.1638 -0.2498  0.1071
  471MOL0     C63515   1.998   6.032   9.618  0.5533 -0.1164 -0.6826
  471MOL0     C63516   1.434   6.167  10.156  0.0827 -0.4240 -0.1117
  471MOL0     C63517   1.334   6.179  10.255  0.4730 -0.5694 -0.3952
  471MOL0     H63518   0.899   6.337  10.329 -1.1071  0.9569  0.5174
  471MOL0     H63519   0.705   6.383  10.440  0.0244 -1.8769 -1.5054
  471MOL0     H63520   0.609   6.179  10.612  1.9899  1.2023 -0.5383
  471MOL0     H63521   0.601   6.170  10.790 -0.6125  0.9324  0.8450
  471MOL0     H63522   0.391   6.324  10.630 -0.6358  1.1000  1.3844
  471MOL0     H63523   0.376   6.168  10.694  0.5424 -0.6211 -1.7773
  471MOL0     H63524   0.413   6.281  10.932 -1.5493  1.4017  1.8838
  471MOL0     H63525   0.396   6.435  10.843  1.8196 -0.4051  0.5246
  471MOL0     H63526   0.186   6.215  10.833  0.3429  0.8517  0.3773
  471MOL0     H63527   0.197   6.327  10.965 -1.4835 -1.2194 -0.5678
  471MOL0     H63528   0.176   6.443  10.675 -0.5077 -2.1420 -0.2527
  471MOL0     H63529   0.043   6.365  10.747  0.9791 -0.8075  0.3262
  471MOL0     H63530   0.061   6.529  10.943 -0.2794 -0.0606 -1.4746
  471MOL0     H63531   0.194   6.612  10.849 -1.9252  3.2925 -3.9735
  471MOL0     H63532   0.037   6.642  10.656  0.5241  0.2160 -0.8459
  471MOL0     H63533  -0.101   6.576  10.763 -0.0870  1.6005  0.9605
  471MOL0     H63534   0.068   6.821  10.757 -0.6567 -0.5920 -1.8398
  471MOL0     H63535   0.028   6.769  10.921 -0.4268 -1.9733 -0.1984
  471MOL0     H63536  -0.276   6.710  10.709  0.4106  1.4318 -2.0221
  471MOL0     H63537  -0.529   6.951  10.681 -2.1246 -0.2675  0.4539
  471MOL0     H63538  -0.522   6.799  10.768  2.7751 -2.0709  2.5912
  471MOL0     H63539  -0.663   6.996  10.876 -1.6336 -0.2555  0.6806
  471MOL0     H63540  -0.516   7.075  10.917  1.5913 -0.8646  0.2149
  471MOL0     H63541  -0.433   6.927  11.053  1.2748 -1.4494 -2.4127
  471MOL0     H63542  -0.533   6.791  11.010  0.6552 -0.1686 -0.9233
  471MOL0     H63543  -0.591   7.044  11.174  0.4965  0.5138 -2.7188
  471MOL0     H63544  -0.637   6.876  11.221 -1.0351  0.1242 -0.3350
  471MOL0     H63545  -0.725   7.078  11.346 -0.7093  1.3318  1.7466
  471MOL0     H63546  -0.886   7.301  11.526 -1.2733 -0.1525  0.6860
  471MOL0     H63547  -0.919   7.154  11.616 -0.3281  1.2976  0.6272
  471MOL0     H63548  -0.762   7.185  11.538 -0.4605  1.5659  1.4144
  471MOL0     H63549  -1.401   7.127  11.610  0.7556  0.5254 -1.5318
  471MOL0     H63550  -1.590   7.248  11.717  1.0940 -0.8219 -1.1003
  471MOL0     H63551  -1.591   7.696  11.755  3.0562 -1.1999 -0.4543
  471MOL0     H63552  -1.637   7.584  11.629 -1.3081 -1.7147 -0.6475
  471MOL0     H63553  -1.824   7.675  11.688  0.3786 -0.9218 -0.5972
  471MOL0     H63554  -1.840   7.524  11.766 -2.5458  0.5088 -1.0935
  471MOL0     H63555  -1.721   7.694  11.969  0.3590 -0.0661 -0.0410
  471MOL0     H63556  -1.879   7.622  11.963  0.5293 -0.8557 -0.0520
  471MOL0     H63557  -1.830   7.877  11.819 -0.4288 -3.4337 -2.6555
  471MOL0     H63558  -1.980   7.793  11.835  1.1076 -2.0233  0.5036
  471MOL0     H63559  -1.964   7.984  11.980 -0.0185 -0.3910 -2.8024
  471MOL0     H63560  -1.824   7.923  12.066  0.7348 -1.0424  1.2683
  471MOL0     H63561  -2.116   7.803  12.086  0.9029  0.7662 -3.2523
  471MOL0     H63562  -1.975   7.713  12.119 -1.6639 -0.2274 -1.5195
  471MOL0     H63563  -1.905   7.842  12.307 -0.3332  1.9615  0.0397
  471MOL0     H63564  -2.073   7.794  12.325  1.2755 -0.7411  2.1430
  471MOL0     H63565  -1.960   8.075  12.220 -1.2495  1.8869  0.6105
  471MOL0     H63566  -2.021   8.054  12.378 -1.6902  0.5683  0.6084
  471MOL0     H63567  -1.371   7.606  11.711  1.9972  0.1214 -0.2191
  471MOL0     H63568  -1.165   7.475  11.599 -0.1556  1.6331  0.3553
  471MOL0     H63569  -1.173   7.067  11.163 -0.9640  0.5677  0.6578
  471MOL0     H63570  -0.996   7.004  11.031 -1.0276  1.2379  0.0644
  471MOL0     H63571   0.880   6.308  10.821 -1.1747 -3.1133 -0.0163
  471MOL0     H63572   1.081   6.233  10.718  0.4084  1.4613 -0.5155
  471MOL0     H63573   1.537   6.255  10.516 -1.7981 -1.6916  1.1814
  471MOL0     H63574   1.708   6.232  10.346 -0.0382 -1.1501  1.4916
  471MOL0     H63575   1.859   6.110  10.105 -1.2822  1.7891  1.7455
  471MOL0     H63576   1.752   6.033  10.225 -1.1121  0.4212  0.6270
  471MOL0     H63577   1.620   5.923  10.045  0.7640 -1.4315 -0.7383
  471MOL0     H63578   1.783   5.876  10.049  0.3481 -1.6952 -1.4994
  471MOL0     H63579   1.819   6.095   9.882 -0.1450 -0.7520 -1.4578
  471MOL0     H63580   1.663   6.035   9.816 -1.0076 -2.3125  0.4505
  471MOL0     H63581   1.767   5.852   9.744 -0.2698  0.0260 -0.0076
  471MOL0     H63582   1.899   5.851   9.872  1.7936  0.9162 -1.2193
  471MOL0     H63583   2.063   6.082   9.550 -0.5274  2.9781  0.3739
  471MOL0     H63584   1.402   6.138  10.057 -1.2673  0.3559  0.0714
  471MOL0     H63585   1.232   6.157  10.225  0.5575 -3.3830  1.0174
  472MOL0     O63586   8.365   0.544   3.412 -0.5058  1.1572  0.0651
  472MOL0     C63587   8.402   0.639   3.480  0.1807  1.5013 -0.3139
  472MOL0     O63588   8.328   0.722   3.552 -0.5501 -0.1045  1.0393
  472MOL0     C63589   8.201   0.738   3.525  1.5299 -0.6824 -0.7259
  472MOL0     C63590   8.134   0.799   3.633 -0.4150  0.3917 -0.1834
  472MOL0     C63591   7.998   0.817   3.642 -0.5139 -0.2754 -0.5668
  472MOL0     C63592   7.921   0.758   3.546 -0.2103 -0.7750  0.5802
  472MOL0     O63593   7.787   0.780   3.546 -0.4759  0.1429 -0.4408
  472MOL0     C63594   7.738   0.859   3.434 -0.2350  0.4234  0.5771
  472MOL0     C63595   7.741   1.011   3.488  0.1228  0.5473  0.1648
  472MOL0     C63596   7.661   1.098   3.392  0.4448 -1.1638  1.1786
  472MOL0     C63597   7.676   1.243   3.446  0.3766  0.0264  0.7032
  472MOL0     C63598   7.566   1.341   3.382 -0.0892  0.2822 -0.0903
  472MOL0     C63599   7.567   1.489   3.422 -0.1361  0.1460 -0.3259
  472MOL0     C63600   7.445   1.575   3.361 -0.3613  0.4635 -0.0248
  472MOL0     C63601   7.306   1.549   3.425 -0.8474  0.9195 -0.1268
  472MOL0     N63602   7.211   1.653   3.391  0.0401 -0.3334 -0.4830
  472MOL0     C63603   7.204   1.782   3.444 -0.3897  0.6090  0.0302
  472MOL0     C63604   7.121   1.844   3.360  0.2966  0.0642 -0.4859
  472MOL0     C63605   7.078   1.983   3.358 -0.1504 -0.9166 -0.0785
  472MOL0     C63606   7.154   2.085   3.440  0.7165 -0.0869 -0.1387
  472MOL0     C63607   7.112   2.085   3.585  0.7363 -0.0726 -0.7411
  472MOL0     C63608   6.971   2.127   3.621  0.4083  0.3662  0.3834
  472MOL0     O63609   6.886   2.005   3.615  0.2919 -0.0902  0.1237
  472MOL0     C63610   6.758   2.002   3.668  0.1693 -0.4290  0.4746
  472MOL0     C63611   6.688   1.885   3.699  0.0775  0.2737 -0.4854
  472MOL0     C63612   6.555   1.881   3.757  0.4745  0.5387 -0.7986
  472MOL0     C63613   6.500   1.761   3.804 -0.1738  0.7353 -0.0109
  472MOL0     C63614   6.485   2.006   3.777  0.5729 -1.0014  0.6775
  472MOL0     C63615   6.344   2.037   3.818  1.4782 -0.3255  0.2012
  472MOL0     O63616   6.320   2.167   3.864 -1.1089  0.0377 -0.8961
  472MOL0     C63617   6.200   2.206   3.906 -0.0564  0.2583  0.0471
  472MOL0     C63618   6.086   2.217   3.823  0.1111 -0.7956 -0.2158
  472MOL0     C63619   5.973   2.295   3.865 -0.2872 -0.2142  0.0699
  472MOL0     C63620   5.967   2.316   4.006 -1.2092  0.7644 -1.2910
  472MOL0     O63621   5.843   2.370   4.049 -0.3212  0.2907 -0.4710
  472MOL0     C63622   5.747   2.272   4.082 -1.2319 -0.3603  0.1184
  472MOL0     C63623   5.597   2.294   4.042 -0.5178  0.0480 -0.0788
  472MOL0     C63624   5.525   2.416   4.097 -0.1807  0.3495  0.3083
  472MOL0     C63625   5.383   2.425   4.058  0.3269  0.1088 -0.2421
  472MOL0     C63626   5.342   2.568   4.041  1.2070 -0.6132  0.5610
  472MOL0     C63627   5.190   2.587   4.072  0.2903 -0.6653  0.1046
  472MOL0     C63628   5.153   2.729   4.040 -0.4833 -0.6876  0.0852
  472MOL0     C63629   5.024   2.771   4.114  0.4713  0.4505  0.1152
  472MOL0    Cl63630   5.005   2.955   4.090  0.2844  0.4256  0.1896
  472MOL0     C63631   6.083   2.293   4.095  0.1601  0.0127 -0.1666
  472MOL0     C63632   6.196   2.235   4.044  0.2401  0.4462 -0.3224
  472MOL0     O63633   6.253   1.954   3.799 -1.1071 -0.1837 -0.3104
  472MOL0     C63634   6.550   2.127   3.733 -0.8192  0.4561  0.2623
  472MOL0     C63635   6.685   2.122   3.682 -0.1103 -1.3974  0.0160
  472MOL0     N63636   7.068   1.750   3.272 -0.5243 -0.2661 -0.4641
  472MOL0     N63637   7.128   1.639   3.289  0.0579  0.0448  0.8677
  472MOL0     C63638   7.984   0.705   3.422 -0.2269 -0.3356  1.2430
  472MOL0     C63639   8.121   0.702   3.417 -0.2046 -0.1811 -0.8321
  472MOL0     C63640   8.552   0.657   3.489  0.0203  0.2154  0.5172
  472MOL0     C63641   8.606   0.780   3.515 -0.0542  0.0084 -0.0566
  472MOL0     C63642   8.746   0.795   3.529 -0.6640 -0.1236 -0.8201
  472MOL0     C63643   8.834   0.688   3.508 -0.8079 -0.7141 -0.5940
  472MOL0     O63644   8.973   0.690   3.496  0.8435  0.5720 -0.3144
  472MOL0     C63645   9.039   0.776   3.587 -0.3012 -0.0749 -0.2856
  472MOL0     C63646   9.189   0.789   3.554 -0.5484 -0.1246 -0.2314
  472MOL0     C63647   9.215   0.860   3.419  0.6723  0.1247 -1.0024
  472MOL0     C63648   9.240   0.755   3.314 -0.2733  0.3113 -0.8256
  472MOL0     C63649   9.276   0.823   3.191 -0.1512  0.1285 -0.0143
  472MOL0     C63650   9.294   0.883   3.088 -0.0639  0.2399  0.1687
  472MOL0     C63651   8.778   0.567   3.487 -0.4539  0.8574  0.2524
  472MOL0     C63652   8.638   0.552   3.468  0.0592  1.3488  0.0090
  472MOL0     H63653   8.191   0.826   3.721  0.3795 -0.0716 -0.5451
  472MOL0     H63654   7.943   0.865   3.722 -2.2458 -1.4275 -1.0135
  472MOL0     H63655   7.804   0.860   3.347 -0.8967  0.8898  0.0696
  472MOL0     H63656   7.637   0.830   3.403  0.2485 -0.2167 -0.4768
  472MOL0     H63657   7.686   1.008   3.583 -1.2188  1.7138 -0.5324
  472MOL0     H63658   7.839   1.054   3.512  0.3634 -0.3108  0.7572
  472MOL0     H63659   7.698   1.082   3.290  1.7350 -0.9266  1.6016
  472MOL0     H63660   7.554   1.074   3.384  0.3540 -0.2059 -1.2033
  472MOL0     H63661   7.681   1.247   3.555  0.3247  0.0764  0.7037
  472MOL0     H63662   7.774   1.285   3.420 -0.8013  2.9800  0.7644
  472MOL0     H63663   7.569   1.333   3.273  0.9249  4.2196 -0.5132
  472MOL0     H63664   7.472   1.295   3.414  0.9321 -0.6037  1.8060
  472MOL0     H63665   7.562   1.507   3.530 -0.3711  3.8740 -0.8290
  472MOL0     H63666   7.664   1.529   3.391  0.7065 -0.8474  0.9521
  472MOL0     H63667   7.460   1.682   3.374 -0.7239  0.3442  1.4813
  472MOL0     H63668   7.440   1.560   3.252 -0.0065  4.6036 -0.7542
  472MOL0     H63669   7.307   1.535   3.534 -1.7883 -5.7996 -0.5685
  472MOL0     H63670   7.265   1.454   3.389 -0.6046 -0.6692  3.3900
  472MOL0     H63671   7.262   1.831   3.521 -1.7952 -0.8331  2.0997
  472MOL0     H63672   7.069   2.014   3.253 -3.4056 -1.5339 -0.0975
  472MOL0     H63673   6.973   1.996   3.388  0.0605  0.4562  0.1448
  472MOL0     H63674   7.120   2.183   3.406  1.4842  0.1242 -0.3280
  472MOL0     H63675   7.263   2.094   3.430  0.9980 -2.9639 -0.4922
  472MOL0     H63676   7.182   2.154   3.632  1.0804  0.2676 -1.7495
  472MOL0     H63677   7.137   1.991   3.635  3.2485  1.4100  0.9893
  472MOL0     H63678   6.945   2.205   3.549  1.2732  1.3578  1.1205
  472MOL0     H63679   6.978   2.159   3.725  1.4083 -1.0404  0.7694
  472MOL0     H63680   6.731   1.793   3.661 -0.2031  0.1437 -0.4906
  472MOL0     H63681   6.493   1.759   3.914  5.5466 -2.5209  0.6915
  472MOL0     H63682   6.408   1.742   3.747  1.1523  1.2883 -2.4287
  472MOL0     H63683   6.563   1.675   3.783 -1.8565 -0.9166  1.2746
  472MOL0     H63684   6.095   2.198   3.716  1.1918  2.2980 -0.7795
  472MOL0     H63685   5.887   2.300   3.800 -0.4314  3.9055  0.3078
  472MOL0     H63686   5.784   2.170   4.065 -1.3232 -0.1221 -1.7171
  472MOL0     H63687   5.749   2.287   4.190 -0.6481 -1.0151  0.2106
  472MOL0     H63688   5.606   2.305   3.934 -1.1203 -0.1234 -0.1533
  472MOL0     H63689   5.541   2.203   4.068  0.7767 -0.8121 -0.1912
  472MOL0     H63690   5.581   2.502   4.059 -0.8652  0.8046  0.3050
  472MOL0     H63691   5.539   2.413   4.206  1.8818 -0.5818  0.0658
  472MOL0     H63692   5.343   2.372   3.972  0.6685 -1.4617  0.5388
  472MOL0     H63693   5.323   2.380   4.138 -0.7180  0.3564 -0.8680
  472MOL0     H63694   5.361   2.594   3.937 -0.9032  0.4802  0.4111
  472MOL0     H63695   5.405   2.639   4.095 -0.4910  3.2511 -2.1448
  472MOL0     H63696   5.132   2.506   4.028 -1.8456  2.0194 -2.4864
  472MOL0     H63697   5.178   2.578   4.180  0.6855  4.5012  0.8517
  472MOL0     H63698   5.146   2.736   3.931  1.5704  0.6657 -0.0106
  472MOL0     H63699   5.236   2.788   4.079 -0.4414 -2.3365  2.7709
  472MOL0     H63700   5.045   2.759   4.221  0.9508 -1.5242 -0.1649
  472MOL0     H63701   4.943   2.703   4.086  0.2518 -1.7252  4.9666
  472MOL0     H63702   6.093   2.313   4.201 -0.0808  0.1984 -0.1767
  472MOL0     H63703   6.287   2.210   4.098  0.0826 -1.8281 -1.0097
  472MOL0     H63704   6.516   2.230   3.730  0.7877  1.3665  4.7901
  472MOL0     H63705   6.728   2.213   3.641  1.6115 -1.9423  0.5482
  472MOL0     H63706   7.923   0.663   3.343 -0.5323 -1.0047  1.8206
  472MOL0     H63707   8.164   0.638   3.341  0.0996  0.6847 -1.4074
  472MOL0     H63708   8.546   0.870   3.514  0.1972  0.1825 -0.8936
  472MOL0     H63709   8.800   0.888   3.542 -0.3089 -0.3026 -0.9843
  472MOL0     H63710   8.994   0.875   3.574  0.9442  0.4493 -0.8076
  472MOL0     H63711   9.023   0.739   3.689  0.3898  0.8334  0.1680
  472MOL0     H63712   9.235   0.690   3.557 -0.5617 -0.3209 -3.2207
  472MOL0     H63713   9.240   0.851   3.628  1.3904 -1.3271 -0.4827
  472MOL0     H63714   9.294   0.936   3.415 -1.0343  2.0490  0.1026
  472MOL0     H63715   9.123   0.903   3.379  0.3791  0.0734 -0.3913
  472MOL0     H63716   9.151   0.690   3.313 -0.2426  0.1308  1.8420
  472MOL0     H63717   9.323   0.690   3.342 -0.0229  1.6926  1.9555
  472MOL0     H63718   9.318   0.936   2.998  1.6841  1.0255  1.0331
  472MOL0     H63719   8.846   0.482   3.480 -2.2916 -0.5186 -2.8987
  472MOL0     H63720   8.608   0.450   3.447 -0.8517  2.1500 -2.9827
  473MOL0     O63721   7.323   5.014   7.404  0.2161 -0.1364  0.8661
  473MOL0     C63722   7.263   5.110   7.354  0.4730 -0.8911 -0.2771
  473MOL0     O63723   7.134   5.116   7.322  0.0168  0.1009  0.1873
  473MOL0     C63724   7.037   5.020   7.357  0.4930 -0.3152 -0.7060
  473MOL0     C63725   7.045   4.897   7.430  0.0390 -0.3565  1.1535
  473MOL0     C63726   6.933   4.824   7.451  0.5081  0.4210 -0.0433
  473MOL0     C63727   6.801   4.870   7.417 -0.6055  0.3528  0.5236
  473MOL0     O63728   6.692   4.790   7.450 -0.4143  0.0384  0.2495
  473MOL0     C63729   6.563   4.855   7.475  0.1975  0.3430  0.1290
  473MOL0     C63730   6.564   4.946   7.601 -0.0937  0.2146  0.4558
  473MOL0     C63731   6.436   5.026   7.624 -0.0992  1.2537  0.6635
  473MOL0     C63732   6.304   4.945   7.635  0.0834  0.1785 -0.6359
  473MOL0     C63733   6.202   5.041   7.699  1.2998  1.1721 -0.0010
  473MOL0     C63734   6.054   4.986   7.682 -0.2519  0.2075 -0.3624
  473MOL0     C63735   5.952   5.072   7.755 -0.5413 -0.4328 -0.1972
  473MOL0     C63736   5.815   5.006   7.742 -0.8121  0.2881  0.1565
  473MOL0     N63737   5.703   5.086   7.795 -0.0014  0.5508  0.5678
  473MOL0     C63738   5.707   5.212   7.829  0.1391  0.4339  0.9290
  473MOL0     C63739   5.586   5.236   7.895 -0.1492  0.5189 -0.3687
  473MOL0     C63740   5.532   5.375   7.930  0.3299 -0.1311  0.4324
  473MOL0     C63741   5.592   5.425   8.063  0.4903  0.6494  0.3898
  473MOL0     C63742   5.509   5.361   8.179 -0.3470 -0.2947  0.4484
  473MOL0     C63743   5.536   5.422   8.318  0.3150  0.8290  0.1116
  473MOL0     O63744   5.420   5.401   8.399 -0.0964 -0.1544 -0.0105
  473MOL0     C63745   5.368   5.520   8.452  0.3333 -0.2234  0.5421
  473MOL0     C63746   5.240   5.551   8.411 -0.6135 -0.1690  0.7457
  473MOL0     C63747   5.158   5.649   8.466 -0.0176  0.2117  0.6458
  473MOL0     C63748   5.017   5.641   8.419  0.1282 -0.7590  0.0654
  473MOL0     C63749   5.221   5.741   8.552 -0.1980  0.3735 -0.2996
  473MOL0     C63750   5.158   5.870   8.596 -0.6927  0.4835 -0.2351
  473MOL0     O63751   5.034   5.905   8.559 -0.1457 -0.3927  0.5216
  473MOL0     C63752   4.969   6.010   8.626  0.2778 -0.6616 -0.2571
  473MOL0     C63753   4.853   5.986   8.689  0.2289  0.3639 -0.2088
  473MOL0     C63754   4.786   6.087   8.761  0.6158 -0.3007 -0.4260
  473MOL0     C63755   4.823   6.223   8.738  0.2019 -0.0064 -0.5491
  473MOL0     O63756   4.752   6.333   8.780 -0.0909  0.0516 -0.0908
  473MOL0     C63757   4.666   6.324   8.894 -0.7687 -0.7019 -0.4855
  473MOL0     C63758   4.668   6.450   8.973 -0.6107 -0.0339  0.6243
  473MOL0     C63759   4.798   6.466   9.047 -0.0980  0.0019  0.7101
  473MOL0     C63760   4.838   6.613   9.053 -0.5877 -0.7877 -0.7310
  473MOL0     C63761   4.967   6.628   9.141 -0.2316 -0.2184  0.3237
  473MOL0     C63762   5.003   6.777   9.153  0.2297  0.2385  0.1536
  473MOL0     C63763   5.141   6.800   9.226 -0.0325 -0.4756  0.1585
  473MOL0     C63764   5.119   6.803   9.376  0.3805  0.8654 -0.5279
  473MOL0    Cl63765   5.074   6.969   9.428 -0.1650  0.5479 -0.1490
  473MOL0     C63766   4.938   6.247   8.663  0.0729  0.0634  0.1246
  473MOL0     C63767   5.008   6.141   8.603 -0.9570  0.3702 -0.5256
  473MOL0     O63768   5.218   5.935   8.683 -0.1546  0.0224  0.1407
  473MOL0     C63769   5.353   5.713   8.596  0.6376 -0.5437 -0.7441
  473MOL0     C63770   5.426   5.603   8.551 -0.3880 -0.4390  0.4537
  473MOL0     N63771   5.509   5.125   7.912  0.0261 -0.3914  0.3030
  473MOL0     N63772   5.585   5.032   7.849  0.3408  0.2316 -0.0166
  473MOL0     C63773   6.798   4.991   7.359 -0.1664 -0.2426 -0.4197
  473MOL0     C63774   6.911   5.064   7.328 -0.3764 -0.2912 -0.1582
  473MOL0     C63775   7.341   5.220   7.298 -0.3271 -0.6798 -0.0484
  473MOL0     C63776   7.291   5.349   7.279  0.0127 -0.3648 -0.2985
  473MOL0     C63777   7.371   5.446   7.229  0.2998  0.3198  0.3853
  473MOL0     C63778   7.505   5.424   7.197 -0.2637 -0.0831  0.3887
  473MOL0     O63779   7.559   5.528   7.136  0.3870 -0.2537  0.5199
  473MOL0     C63780   7.692   5.530   7.070  0.6701  1.1128  0.7709
  473MOL0     C63781   7.712   5.664   6.997  0.0504  0.6085 -0.4951
  473MOL0     C63782   7.617   5.687   6.876  0.5396  0.3416 -0.8058
  473MOL0     C63783   7.661   5.811   6.804 -1.0807  0.0840 -0.2358
  473MOL0     C63784   7.588   5.845   6.682 -0.4004  0.1861 -0.0942
  473MOL0     C63785   7.538   5.891   6.583  0.1598  0.5810  0.4522
  473MOL0     C63786   7.567   5.303   7.230 -0.7454  0.3159 -0.4202
  473MOL0     C63787   7.483   5.203   7.278  0.0133  0.9561 -0.2132
  473MOL0     H63788   7.142   4.856   7.458  1.2223  1.9850  0.7220
  473MOL0     H63789   6.945   4.726   7.498  0.5889  1.5735  2.5058
  473MOL0     H63790   6.528   4.914   7.390 -0.0960 -0.1624 -0.1016
  473MOL0     H63791   6.491   4.774   7.490 -0.1853  0.6880  0.1527
  473MOL0     H63792   6.568   4.881   7.688 -3.2061 -1.6715 -0.6450
  473MOL0     H63793   6.654   5.009   7.597  1.0904 -1.3029 -4.5867
  473MOL0     H63794   6.449   5.079   7.719  1.1759  0.3413  1.0124
  473MOL0     H63795   6.429   5.097   7.541 -2.0866  1.6943  1.1364
  473MOL0     H63796   6.265   4.907   7.540 -0.0892 -0.9043 -0.1547
  473MOL0     H63797   6.324   4.868   7.710  1.8452 -1.0275 -2.2656
  473MOL0     H63798   6.237   5.055   7.802 -0.0918 -1.2015  0.8721
  473MOL0     H63799   6.203   5.137   7.647 -3.8460  1.9510  0.7953
  473MOL0     H63800   6.028   4.974   7.576  1.2133  0.9358 -0.8332
  473MOL0     H63801   6.054   4.889   7.731  2.8962 -1.0292 -2.4406
  473MOL0     H63802   5.987   5.097   7.856  0.8601 -0.0381 -0.7523
  473MOL0     H63803   5.938   5.168   7.705 -0.4072  0.1492  0.8552
  473MOL0     H63804   5.810   4.910   7.795 -1.6195  0.7132  0.8728
  473MOL0     H63805   5.794   4.998   7.635 -1.2668  1.2898  0.1661
  473MOL0     H63806   5.773   5.292   7.797 -0.3163 -0.5015 -2.9055
  473MOL0     H63807   5.556   5.448   7.851  2.9344 -1.1502  0.1703
  473MOL0     H63808   5.423   5.376   7.936  0.2264 -1.7349 -0.5609
  473MOL0     H63809   5.576   5.533   8.061  0.4575  0.6824  1.6013
  473MOL0     H63810   5.697   5.397   8.079  0.1542  0.2268  2.0317
  473MOL0     H63811   5.526   5.255   8.196 -1.3249 -1.3870 -4.1005
  473MOL0     H63812   5.407   5.388   8.148  1.0341  3.6950 -1.3024
  473MOL0     H63813   5.556   5.530   8.319 -3.3177  1.6390  0.7649
  473MOL0     H63814   5.617   5.369   8.368  1.3884  0.4972 -1.8825
  473MOL0     H63815   5.199   5.490   8.331 -0.1587  0.3909  0.0771
  473MOL0     H63816   5.002   5.546   8.368  1.9155 -0.2255 -1.5572
  473MOL0     H63817   4.949   5.655   8.504 -2.4436 -0.2050 -1.9534
  473MOL0     H63818   4.986   5.727   8.359  0.2190 -0.0409  1.0266
  473MOL0     H63819   4.808   5.888   8.700 -4.0006  1.5274 -4.1623
  473MOL0     H63820   4.697   6.070   8.821  0.4822  0.1145 -0.5006
  473MOL0     H63821   4.560   6.310   8.869 -0.3880  0.5228 -3.1743
  473MOL0     H63822   4.706   6.246   8.959  2.2818  0.7231 -0.5166
  473MOL0     H63823   4.654   6.530   8.900 -1.0302 -0.6628  0.0075
  473MOL0     H63824   4.587   6.462   9.045 -0.2142  1.7399  0.8313
  473MOL0     H63825   4.879   6.413   8.996  0.3412 -0.1702  1.5547
  473MOL0     H63826   4.796   6.431   9.151 -1.8995 -0.3686  0.5853
  473MOL0     H63827   4.855   6.676   8.965 -1.7384 -1.8372 -1.7600
  473MOL0     H63828   4.757   6.662   9.107  1.0116  0.5042  0.5658
  473MOL0     H63829   5.046   6.598   9.072 -1.8179  3.5605 -3.6054
  473MOL0     H63830   4.966   6.565   9.231 -2.6144 -1.4885 -0.5137
  473MOL0     H63831   4.993   6.822   9.054  0.1338 -1.6277 -0.7229
  473MOL0     H63832   4.925   6.821   9.216  0.8471  0.2568  0.9339
  473MOL0     H63833   5.186   6.893   9.191  0.0835 -0.4150  0.4683
  473MOL0     H63834   5.206   6.717   9.197 -0.4280 -0.2463 -1.5144
  473MOL0     H63835   5.222   6.783   9.407  0.3387 -2.6538 -2.1717
  473MOL0     H63836   5.058   6.720   9.412  1.7348  0.5608  1.2088
  473MOL0     H63837   4.987   6.344   8.655 -1.0833  0.6938  0.4820
  473MOL0     H63838   5.102   6.170   8.556 -0.4342 -1.3294 -0.5850
  473MOL0     H63839   5.402   5.779   8.667 -1.3704 -1.3826  1.5451
  473MOL0     H63840   5.529   5.591   8.580  0.4275  1.6912 -1.2889
  473MOL0     H63841   6.702   5.025   7.323 -0.5582 -1.9158 -1.0667
  473MOL0     H63842   6.894   5.162   7.286 -0.0462  2.2349  4.7965
  473MOL0     H63843   7.186   5.368   7.299  0.1559 -1.3908  1.6189
  473MOL0     H63844   7.333   5.541   7.193  1.9151  0.9889  0.3651
  473MOL0     H63845   7.773   5.499   7.135  0.9024 -2.1050 -0.8795
  473MOL0     H63846   7.686   5.465   6.983 -1.2998  2.7219 -0.4109
  473MOL0     H63847   7.816   5.677   6.968  0.6340  0.1166  1.2520
  473MOL0     H63848   7.695   5.733   7.081 -0.2014 -1.2001  1.0243
  473MOL0     H63849   7.512   5.688   6.906  0.5974 -4.0262  0.3138
  473MOL0     H63850   7.633   5.597   6.815 -1.4525 -0.7207  0.1518
  473MOL0     H63851   7.768   5.802   6.784 -0.6531  3.5981 -0.1349
  473MOL0     H63852   7.644   5.891   6.877  1.0667  1.3136 -0.9948
  473MOL0     H63853   7.469   5.908   6.503  0.0705  0.4022  0.4886
  473MOL0     H63854   7.671   5.309   7.201 -0.8537 -0.9034 -1.1150
  473MOL0     H63855   7.535   5.109   7.295  0.3876  1.4422  1.4539
  474MOL0     O63856   2.008   9.974   9.732  0.3620 -0.2579  0.2972
  474MOL0     C63857   2.012  10.075   9.657 -0.0457 -0.6533  0.2620
  474MOL0     O63858   2.064  10.196   9.688  0.5316 -0.5252 -0.0191
  474MOL0     C63859   2.115  10.216   9.818 -0.5888  0.2152 -0.6873
  474MOL0     C63860   2.242  10.277   9.809 -0.3171  0.1084 -0.1245
  474MOL0     C63861   2.317  10.309   9.918  0.4134  0.6175  0.9395
  474MOL0     C63862   2.269  10.267  10.040 -0.5998  0.0078 -0.7617
  474MOL0     O63863   2.333  10.278  10.163 -0.4993  1.1587 -0.0424
  474MOL0     C63864   2.419  10.391  10.170 -0.2787 -0.1816 -0.2536
  474MOL0     C63865   2.493  10.401  10.308 -0.5627 -0.3302 -0.1574
  474MOL0     C63866   2.560  10.275  10.360  0.2599 -0.2443 -0.1401
  474MOL0     C63867   2.576  10.270  10.514  0.6417  0.0179  0.7335
  474MOL0     C63868   2.671  10.150  10.559  0.2562 -0.3683 -0.2953
  474MOL0     C63869   2.697  10.157  10.709 -0.1691  1.3637  0.0066
  474MOL0     C63870   2.572  10.119  10.790 -0.4339 -0.2054  0.5395
  474MOL0     C63871   2.613  10.067  10.931 -0.3594 -0.0275 -0.4132
  474MOL0     N63872   2.666   9.926  10.940  0.0358  0.7857 -0.4872
  474MOL0     C63873   2.597   9.815  10.893  0.6917  0.1061 -0.2846
  474MOL0     C63874   2.689   9.719  10.925 -0.0498 -0.9700  0.9916
  474MOL0     C63875   2.675   9.569  10.925 -0.3175 -0.3401 -0.1250
  474MOL0     C63876   2.539   9.531  10.972 -0.1998  0.0226 -0.0395
  474MOL0     C63877   2.529   9.388  11.021 -1.0973  0.0491 -0.2026
  474MOL0     C63878   2.450   9.380  11.147  0.7828 -0.3640 -0.0523
  474MOL0     O63879   2.308   9.413  11.133  0.5377 -0.4498  0.1556
  474MOL0     C63880   2.220   9.326  11.079 -0.0472 -0.5094  0.0261
  474MOL0     C63881   2.102   9.372  11.022 -0.0287 -0.5877  0.3867
  474MOL0     C63882   2.028   9.305  10.925 -0.3852 -0.6266  0.4102
  474MOL0     C63883   1.918   9.390  10.862  1.1096  0.0315 -0.8032
  474MOL0     C63884   2.056   9.166  10.902 -0.0444 -0.4239  0.3006
  474MOL0     C63885   1.978   9.082  10.818 -0.0229 -0.4601  0.3017
  474MOL0     O63886   2.009   8.954  10.842  0.5759 -0.4304  0.4670
  474MOL0     C63887   1.927   8.856  10.786 -0.3213 -0.5820  0.9541
  474MOL0     C63888   1.968   8.785  10.677 -0.1624  0.5818  0.3010
  474MOL0     C63889   1.877   8.687  10.630  0.5078  0.0930 -1.4106
  474MOL0     C63890   1.746   8.662  10.683  0.0955 -0.1947  0.4396
  474MOL0     O63891   1.651   8.574  10.629  0.2076  0.2347 -0.3407
  474MOL0     C63892   1.685   8.516  10.497 -0.7958  0.0984 -0.4132
  474MOL0     C63893   1.555   8.462  10.450  0.7495  0.1673  0.0659
  474MOL0     C63894   1.569   8.372  10.321  0.0318  0.1248  0.3897
  474MOL0     C63895   1.446   8.294  10.267  0.9891 -0.7970 -0.3433
  474MOL0     C63896   1.475   8.214  10.136 -0.2880 -0.0968  0.6983
  474MOL0     C63897   1.353   8.123  10.104 -0.7421  0.1133 -0.2459
  474MOL0     C63898   1.240   8.208  10.067  0.7787  0.5802 -0.5086
  474MOL0     C63899   1.134   8.143   9.968  0.2512  0.8429 -0.0833
  474MOL0    Cl63900   1.046   7.999  10.028  0.3200  0.1552  0.1606
  474MOL0     C63901   1.708   8.750  10.791 -0.0131  0.2568 -0.4693
  474MOL0     C63902   1.803   8.838  10.845 -0.1391 -0.0021  0.6327
  474MOL0     O63903   1.901   9.124  10.728 -0.9230  0.6396  0.4564
  474MOL0     C63904   2.166   9.112  10.971 -0.2984  0.2302 -0.4056
  474MOL0     C63905   2.250   9.189  11.048 -0.8658 -1.0762 -0.3246
  474MOL0     N63906   2.808   9.772  10.970 -0.4222 -0.8707  0.0735
  474MOL0     N63907   2.790   9.897  10.991 -0.3746 -0.4468 -0.7087
  474MOL0     C63908   2.142  10.215  10.053  0.9357 -0.3288 -0.5084
  474MOL0     C63909   2.055  10.193   9.948 -1.2391  1.1129  1.0812
  474MOL0     C63910   1.961  10.079   9.519 -0.8455 -0.0556 -0.3623
  474MOL0     C63911   1.935   9.952   9.452 -0.2198 -0.3893 -0.2984
  474MOL0     C63912   1.889   9.942   9.321 -0.0015 -0.0859  0.0594
  474MOL0     C63913   1.863  10.059   9.251 -0.0850  0.3196  0.0899
  474MOL0     O63914   1.807  10.065   9.126 -0.2230 -0.1982 -0.3962
  474MOL0     C63915   1.772   9.940   9.063  0.4126  0.8796  1.0571
  474MOL0     C63916   1.677   9.981   8.943  0.2583  0.2498 -0.0056
  474MOL0     C63917   1.563  10.062   8.992 -0.0266 -0.4961 -0.4796
  474MOL0     C63918   1.454  10.083   8.889  0.0573  0.2069  0.7967
  474MOL0     C63919   1.503  10.152   8.779 -1.0047  0.2498  0.2558
  474MOL0     C63920   1.551  10.208   8.680 -0.0161 -0.4190 -0.3040
  474MOL0     C63921   1.872  10.182   9.317 -1.6306 -0.0893 -0.0365
  474MOL0     C63922   1.925  10.194   9.449  0.3241  0.4462  0.7971
  474MOL0     H63923   2.277  10.299   9.708  0.5538  3.3987  0.7674
  474MOL0     H63924   2.402  10.376   9.910  0.3061  0.5242 -2.4982
  474MOL0     H63925   2.492  10.388  10.089 -0.1031 -1.1272 -0.0793
  474MOL0     H63926   2.369  10.487  10.159  1.7046  0.8326 -0.9017
  474MOL0     H63927   2.573  10.475  10.316 -1.6621  0.9862 -0.9186
  474MOL0     H63928   2.409  10.423  10.376 -1.2244  1.3102 -1.4493
  474MOL0     H63929   2.509  10.183  10.328  0.6760 -0.5425  0.0403
  474MOL0     H63930   2.659  10.265  10.316  0.3851  2.2906 -0.5708
  474MOL0     H63931   2.610  10.368  10.546  0.1478  0.1390  0.8971
  474MOL0     H63932   2.478  10.256  10.561  0.7402  3.0471  2.0265
  474MOL0     H63933   2.639  10.049  10.531 -1.0500  0.6434 -2.8020
  474MOL0     H63934   2.769  10.164  10.512 -0.1542  1.8110 -0.6013
  474MOL0     H63935   2.771  10.077  10.720  0.4842  1.9945  0.2660
  474MOL0     H63936   2.743  10.252  10.737  0.0003  1.2662  0.0651
  474MOL0     H63937   2.508  10.206  10.804 -1.5811 -0.9315 -0.0507
  474MOL0     H63938   2.519  10.057  10.718 -0.5006  1.0587 -0.5439
  474MOL0     H63939   2.530  10.063  11.002  0.0430 -2.7118  0.0193
  474MOL0     H63940   2.683  10.133  10.984 -2.8569  1.0384  1.7570
  474MOL0     H63941   2.499   9.809  10.846  0.1285 -1.9235  1.0505
  474MOL0     H63942   2.691   9.530  10.824 -1.8447 -1.1246 -0.0847
  474MOL0     H63943   2.754   9.531  10.991 -0.3221 -0.1177  0.0104
  474MOL0     H63944   2.472   9.535  10.886 -3.5420 -1.1208  2.3124
  474MOL0     H63945   2.506   9.601  11.049 -3.2680  2.3295 -3.1625
  474MOL0     H63946   2.628   9.346  11.037 -1.2366  0.3323  1.6744
  474MOL0     H63947   2.494   9.322  10.941  0.2355 -2.8537  1.4597
  474MOL0     H63948   2.479   9.450  11.226 -0.8190  3.1090 -2.2581
  474MOL0     H63949   2.451   9.278  11.186 -0.2895 -0.7980 -1.1135
  474MOL0     H63950   2.069   9.467  11.062  2.0633  1.0987 -1.6309
  474MOL0     H63951   1.835   9.330  10.823 -0.0804  0.0084  1.5781
  474MOL0     H63952   1.871   9.451  10.940 -0.5867 -1.6410 -0.4473
  474MOL0     H63953   1.966   9.460  10.793  0.9694  0.8321 -0.0964
  474MOL0     H63954   2.068   8.783  10.635  0.8121 -1.0051  2.4873
  474MOL0     H63955   1.908   8.627  10.545  0.8186  0.2371 -1.3981
  474MOL0     H63956   1.709   8.589  10.419 -2.4919  2.0410  0.7556
  474MOL0     H63957   1.752   8.431  10.508 -0.3999  0.0676 -2.6234
  474MOL0     H63958   1.526   8.387  10.524  1.6160 -1.4733 -1.1865
  474MOL0     H63959   1.475   8.536  10.440  3.4486  3.3855  0.6970
  474MOL0     H63960   1.642   8.294  10.345 -1.9467 -2.5169 -1.6443
  474MOL0     H63961   1.596   8.434  10.235 -0.6862 -1.2379 -0.8736
  474MOL0     H63962   1.407   8.227  10.345 -0.2645 -0.5254 -0.7174
  474MOL0     H63963   1.374   8.368  10.234 -0.5329 -2.8482 -1.8658
  474MOL0     H63964   1.565   8.152  10.151 -0.3836 -0.4985 -0.3318
  474MOL0     H63965   1.476   8.283  10.052 -1.2358 -0.5560  0.2917
  474MOL0     H63966   1.373   8.056  10.021  1.2700  3.0437 -2.3351
  474MOL0     H63967   1.320   8.061  10.188 -1.1283 -1.4266 -1.4879
  474MOL0     H63968   1.280   8.290  10.007 -1.3926  0.1118 -2.7558
  474MOL0     H63969   1.180   8.237  10.154  0.7142 -2.7778  0.6855
  474MOL0     H63970   1.183   8.117   9.874 -1.1280 -0.4006 -0.4958
  474MOL0     H63971   1.059   8.217   9.939 -0.9741 -0.7447 -1.2049
  474MOL0     H63972   1.614   8.750  10.845  1.0678 -0.7194  1.5105
  474MOL0     H63973   1.762   8.901  10.922 -0.9498  1.5019 -0.9518
  474MOL0     H63974   2.203   9.011  10.955  1.3308  0.6399  0.5616
  474MOL0     H63975   2.341   9.147  11.088  0.1279  0.6567 -0.6774
  474MOL0     H63976   2.100  10.179  10.147  1.5691  0.0640 -0.0603
  474MOL0     H63977   1.962  10.138   9.955 -0.4541 -0.1278  2.1577
  474MOL0     H63978   1.959   9.857   9.499  2.9749 -0.2310 -1.3301
  474MOL0     H63979   1.868   9.843   9.281 -0.5652  0.2673 -0.5527
  474MOL0     H63980   1.869   9.899   9.031  1.3523  1.2201  3.2900
  474MOL0     H63981   1.729   9.864   9.129  2.3741 -0.5525  0.8128
  474MOL0     H63982   1.646   9.888   8.894  0.2672  0.2570 -0.0246
  474MOL0     H63983   1.714  10.040   8.859 -0.1661 -0.9892 -1.1050
  474MOL0     H63984   1.595  10.163   9.017 -2.2101  0.2461 -0.4709
  474MOL0     H63985   1.506  10.022   9.077  1.2980  1.1612  1.2671
  474MOL0     H63986   1.372  10.146   8.926 -1.4469 -0.4987 -1.1545
  474MOL0     H63987   1.404   9.991   8.856 -2.0212  1.0035  1.5400
  474MOL0     H63988   1.574  10.271   8.597 -1.3723  1.2406  0.5247
  474MOL0     H63989   1.845  10.266   9.254 -2.4925 -0.0077  0.4304
  474MOL0     H63990   1.917  10.289   9.501 -3.3992  0.9889 -0.3967
  475MOL0     O63991   2.909   5.608   0.273 -0.4042  0.5570  0.0999
  475MOL0     C63992   2.834   5.663   0.347  0.4078  0.3484  0.4716
  475MOL0     O63993   2.750   5.596   0.423  0.8220  0.6059  0.2524
  475MOL0     C63994   2.729   5.459   0.403 -0.5280  0.6222 -0.3811
  475MOL0     C63995   2.728   5.381   0.525  0.5979 -0.7322 -0.7034
  475MOL0     C63996   2.728   5.242   0.521 -0.0643 -0.3618 -0.1990
  475MOL0     C63997   2.740   5.186   0.398 -0.5497  0.2547 -0.0200
  475MOL0     O63998   2.760   5.048   0.419 -0.3890  0.2175  0.8501
  475MOL0     C63999   2.810   4.960   0.313  0.4865 -0.8106 -0.3237
  475MOL0     C64000   2.681   4.915   0.227  0.3056  0.2476  0.1928
  475MOL0     C64001   2.570   4.840   0.303  1.2009 -0.4962 -0.4555
  475MOL0     C64002   2.476   4.760   0.207 -0.2374 -0.0961 -0.5812
  475MOL0     C64003   2.375   4.678   0.281 -0.7333 -0.2377  0.0995
  475MOL0     C64004   2.292   4.592   0.183 -0.7103 -0.3737 -0.1698
  475MOL0     C64005   2.180   4.520   0.249  0.1692 -0.5410 -1.0671
  475MOL0     C64006   2.038   4.595   0.230 -0.5867  0.1566 -0.5772
  475MOL0     N64007   1.920   4.514   0.283 -0.8673 -0.1014  0.3344
  475MOL0     C64008   1.789   4.557   0.282 -0.6719  0.7898 -0.3459
  475MOL0     C64009   1.716   4.456   0.330  0.0051  0.1106 -0.0818
  475MOL0     C64010   1.572   4.457   0.361 -0.3019 -0.3266 -0.9707
  475MOL0     C64011   1.486   4.564   0.291  0.8307  0.4552 -0.1325
  475MOL0     C64012   1.333   4.577   0.330 -1.2482  0.9006  0.8146
  475MOL0     C64013   1.257   4.712   0.312  0.3596 -0.3036 -0.2237
  475MOL0     O64014   1.291   4.812   0.407 -0.2782 -0.1437  0.1933
  475MOL0     C64015   1.227   4.938   0.407  0.8136 -0.8485 -0.0353
  475MOL0     C64016   1.113   4.965   0.335 -0.1418 -0.6941 -0.5740
  475MOL0     C64017   1.046   5.086   0.329 -0.4001 -0.2421 -0.9044
  475MOL0     C64018   0.915   5.096   0.257  0.0451  0.2801  0.3787
  475MOL0     C64019   1.096   5.195   0.413  0.0577  0.3001 -0.0359
  475MOL0     C64020   1.025   5.328   0.421  0.6455 -0.3761  0.0401
  475MOL0     O64021   1.030   5.377   0.547  0.9163  0.4228 -0.2567
  475MOL0     C64022   0.955   5.481   0.597  0.7930  0.1770  0.2965
  475MOL0     C64023   1.020   5.583   0.670 -0.5313 -0.0272 -0.6124
  475MOL0     C64024   0.950   5.693   0.721  0.3418 -0.0212 -0.4007
  475MOL0     C64025   0.807   5.688   0.708 -0.2348 -0.2399 -0.1496
  475MOL0     O64026   0.722   5.786   0.762 -0.5639  0.5233 -0.0060
  475MOL0     C64027   0.786   5.878   0.850 -0.4531 -0.4090 -0.2317
  475MOL0     C64028   0.686   5.934   0.956 -0.6095 -0.5422  0.4856
  475MOL0     C64029   0.748   5.952   1.096 -0.1910 -0.2524  0.4649
  475MOL0     C64030   0.627   5.992   1.189  0.6366 -0.4292  0.3746
  475MOL0     C64031   0.676   6.040   1.324 -0.1144  0.3716 -0.7662
  475MOL0     C64032   0.761   6.167   1.329  0.9070  0.1595  0.2437
  475MOL0     C64033   0.804   6.201   1.475  0.3457  0.0694 -0.6124
  475MOL0     C64034   0.937   6.257   1.476 -0.1784 -0.4763 -0.7009
  475MOL0    Cl64035   0.938   6.423   1.427 -0.0325  0.1322 -0.4768
  475MOL0     C64036   0.747   5.588   0.635  0.1764  0.2245 -0.2140
  475MOL0     C64037   0.818   5.487   0.574  0.2992  0.4201  0.0766
  475MOL0     O64038   0.965   5.377   0.325 -0.1500 -0.3169  0.1588
  475MOL0     C64039   1.210   5.168   0.482 -0.3610 -0.0742 -0.9430
  475MOL0     C64040   1.274   5.048   0.479  0.3567 -0.0800 -0.6296
  475MOL0     N64041   1.800   4.345   0.350  0.0969 -0.0002 -0.2578
  475MOL0     N64042   1.918   4.386   0.333 -0.0110 -0.1820 -0.5201
  475MOL0     C64043   2.726   5.255   0.274 -0.0884  0.1544 -1.1548
  475MOL0     C64044   2.714   5.392   0.274 -0.4688  0.0988  0.3004
  475MOL0     C64045   2.827   5.804   0.349 -0.1969  0.0495 -0.0524
  475MOL0     C64046   2.713   5.872   0.405 -0.7650 -0.1157  0.1467
  475MOL0     C64047   2.714   6.012   0.400  0.5486 -0.4348 -0.0417
  475MOL0     C64048   2.815   6.091   0.359 -0.8790 -0.4415  1.1651
  475MOL0     O64049   2.789   6.224   0.351 -0.1998  0.1801  0.2419
  475MOL0     C64050   2.888   6.313   0.381 -0.9802  0.1348  0.8373
  475MOL0     C64051   2.851   6.465   0.374 -0.7192  0.4580  0.4283
  475MOL0     C64052   2.748   6.504   0.486 -0.5512 -0.7637 -0.7809
  475MOL0     C64053   2.782   6.477   0.631 -0.5410  0.0725  0.1029
  475MOL0     C64054   2.906   6.555   0.655 -0.0825  0.4940 -0.4669
  475MOL0     C64055   3.003   6.624   0.679 -0.0827  0.2657  0.0856
  475MOL0     C64056   2.930   6.027   0.309 -0.0764  0.5620  0.0410
  475MOL0     C64057   2.932   5.883   0.295  0.8925  0.5559  0.3904
  475MOL0     H64058   2.746   5.437   0.616 -0.9671 -0.1049 -0.7600
  475MOL0     H64059   2.729   5.184   0.613  0.2127 -1.9057 -1.1473
  475MOL0     H64060   2.882   5.007   0.246 -0.7433  1.5917 -0.0413
  475MOL0     H64061   2.859   4.868   0.348  1.5593  0.2988  1.2420
  475MOL0     H64062   2.648   5.003   0.170  2.2926  1.8449  1.3786
  475MOL0     H64063   2.730   4.846   0.158  2.0876  3.3022 -1.8293
  475MOL0     H64064   2.617   4.772   0.375  1.5631 -0.1506 -0.3636
  475MOL0     H64065   2.506   4.911   0.356  0.5516 -0.3510 -1.3969
  475MOL0     H64066   2.431   4.832   0.138  1.5926  2.5407  0.8111
  475MOL0     H64067   2.545   4.691   0.156  0.5863 -1.5644  2.2999
  475MOL0     H64068   2.411   4.607   0.356 -1.4681 -1.1589 -0.4006
  475MOL0     H64069   2.304   4.740   0.337  1.4612  1.1218  1.5576
  475MOL0     H64070   2.260   4.652   0.097  0.1166  1.0244  0.4525
  475MOL0     H64071   2.349   4.514   0.133 -0.2955  0.2889 -0.7623
  475MOL0     H64072   2.167   4.418   0.212 -1.1215 -0.9383  0.3939
  475MOL0     H64073   2.208   4.514   0.354  2.6103 -2.6210 -1.7230
  475MOL0     H64074   2.019   4.595   0.123  1.9439 -1.4714 -1.1211
  475MOL0     H64075   2.022   4.690   0.282 -1.6398  0.0492 -0.6891
  475MOL0     H64076   1.775   4.662   0.261  0.0800  1.6180  2.8471
  475MOL0     H64077   1.531   4.358   0.339 -2.6761  0.3980 -0.1477
  475MOL0     H64078   1.548   4.467   0.467 -2.7914 -4.0711 -0.9881
  475MOL0     H64079   1.486   4.562   0.181  0.7489  1.1378 -0.1514
  475MOL0     H64080   1.536   4.657   0.319  0.5366  0.2108  1.2496
  475MOL0     H64081   1.321   4.563   0.438 -0.4726 -1.3966  0.6472
  475MOL0     H64082   1.286   4.500   0.268 -0.5947  1.8660 -0.9503
  475MOL0     H64083   1.148   4.697   0.305 -0.1264  2.4520  0.0552
  475MOL0     H64084   1.285   4.748   0.212 -3.6254 -1.6464 -2.0536
  475MOL0     H64085   1.068   4.882   0.281 -2.4910  0.7080 -0.8676
  475MOL0     H64086   0.856   5.064   0.344  0.4391 -3.9586 -0.6754
  475MOL0     H64087   0.877   5.191   0.219  0.1529  0.3119  0.3479
  475MOL0     H64088   0.908   5.016   0.182  1.8724  0.4996 -0.0701
  475MOL0     H64089   1.128   5.584   0.677 -0.6124  2.5404  2.9420
  475MOL0     H64090   1.000   5.772   0.777 -3.5171 -0.0083  3.5152
  475MOL0     H64091   0.872   5.837   0.904  0.5865  1.5703 -0.2986
  475MOL0     H64092   0.823   5.954   0.781  2.1252  3.2429  4.5233
  475MOL0     H64093   0.642   6.026   0.916  2.4783  0.0776 -1.8942
  475MOL0     H64094   0.601   5.866   0.966 -1.3437  0.2658 -0.0771
  475MOL0     H64095   0.813   6.040   1.091 -1.6951  1.0089  2.1789
  475MOL0     H64096   0.801   5.863   1.133 -3.6787 -2.9693 -0.5015
  475MOL0     H64097   0.575   6.077   1.145  0.1949 -1.2768 -0.7784
  475MOL0     H64098   0.563   5.904   1.195 -0.0385 -0.1485 -1.7729
  475MOL0     H64099   0.736   5.955   1.358  0.1156 -0.2485 -2.5710
  475MOL0     H64100   0.595   6.052   1.396  1.1186 -1.6306  1.0884
  475MOL0     H64101   0.844   6.153   1.259  1.3758  1.5931  0.4910
  475MOL0     H64102   0.709   6.247   1.275  0.6278 -0.2809 -0.1487
  475MOL0     H64103   0.803   6.105   1.528 -1.0383 -2.9356 -5.3808
  475MOL0     H64104   0.737   6.276   1.516 -1.4496 -1.4863 -0.5979
  475MOL0     H64105   1.006   6.210   1.406  1.0595 -0.5902  0.5603
  475MOL0     H64106   0.985   6.255   1.574 -0.2074  3.3104 -0.4624
  475MOL0     H64107   0.639   5.579   0.630  0.1678  0.3305 -5.0473
  475MOL0     H64108   0.771   5.408   0.518 -1.7312  2.2467 -0.9484
  475MOL0     H64109   1.249   5.248   0.544 -1.5346  0.9667 -1.5014
  475MOL0     H64110   1.362   5.043   0.542  0.8326  2.9771 -0.8859
  475MOL0     H64111   2.726   5.196   0.184 -0.4564  0.6325 -1.4725
  475MOL0     H64112   2.701   5.447   0.182 -1.4840  0.7827  0.8273
  475MOL0     H64113   2.619   5.831   0.440 -0.9329 -0.1371 -0.3331
  475MOL0     H64114   2.629   6.069   0.437  0.0612 -0.0031 -1.7550
  475MOL0     H64115   2.932   6.299   0.480  2.6149 -2.3052 -0.8648
  475MOL0     H64116   2.962   6.289   0.304 -4.7942 -2.0672 -2.4919
  475MOL0     H64117   2.810   6.484   0.274  1.5767 -1.0748 -0.8955
  475MOL0     H64118   2.947   6.515   0.385 -0.2329 -0.3612  0.0041
  475MOL0     H64119   2.661   6.440   0.468 -1.0777 -0.1982 -0.2826
  475MOL0     H64120   2.717   6.608   0.475 -1.8303 -0.8180  1.6498
  475MOL0     H64121   2.798   6.373   0.660  0.9479  0.3473  0.3416
  475MOL0     H64122   2.702   6.520   0.691 -2.1403 -1.0230 -1.1816
  475MOL0     H64123   3.073   6.706   0.681 -0.6759  0.8278  3.0696
  475MOL0     H64124   3.015   6.089   0.282 -2.4621  2.6715 -3.3540
  475MOL0     H64125   3.023   5.834   0.263 -1.8033 -3.2339 -2.4176
  476MOL0     O64126   9.439   4.244   7.321 -0.2147 -0.0732 -0.9401
  476MOL0     C64127   9.336   4.214   7.270 -0.5657  0.2576 -0.1391
  476MOL0     O64128   9.223   4.181   7.330  0.2562  0.5144 -0.3759
  476MOL0     C64129   9.212   4.190   7.471 -0.3788 -0.5670 -0.5027
  476MOL0     C64130   9.076   4.186   7.519 -0.2515 -0.4285  0.6682
  476MOL0     C64131   9.041   4.169   7.650  0.1227 -1.0113 -0.6909
  476MOL0     C64132   9.139   4.178   7.750  0.8122  0.3760  0.0923
  476MOL0     O64133   9.086   4.162   7.879 -0.4076 -0.2512  0.4734
  476MOL0     C64134   9.153   4.238   7.985 -1.7364  0.1503  0.3736
  476MOL0     C64135   9.082   4.236   8.124 -0.0965 -0.4510  0.5086
  476MOL0     C64136   8.961   4.320   8.129 -0.7996 -0.5151  0.2523
  476MOL0     C64137   8.897   4.317   8.268  0.1305  0.0400  0.5067
  476MOL0     C64138   8.778   4.405   8.278  0.6223 -0.5830 -0.5531
  476MOL0     C64139   8.690   4.374   8.393  0.5191 -0.4589 -0.3908
  476MOL0     C64140   8.584   4.484   8.415  0.3603  1.1221 -0.7838
  476MOL0     C64141   8.518   4.476   8.560 -0.1689 -0.4554 -0.8568
  476MOL0     N64142   8.375   4.456   8.553  0.1777  0.1291  0.2324
  476MOL0     C64143   8.275   4.556   8.571 -0.5886  1.2378 -0.7686
  476MOL0     C64144   8.155   4.501   8.541 -0.5925 -0.1785 -0.3141
  476MOL0     C64145   8.029   4.571   8.526  0.4230 -0.8716 -0.7803
  476MOL0     C64146   8.013   4.617   8.375  0.9711 -0.5227 -0.0242
  476MOL0     C64147   7.998   4.498   8.280  0.3020  0.3068  0.1049
  476MOL0     C64148   7.958   4.549   8.134  0.0267  0.1492  0.3745
  476MOL0     O64149   7.940   4.436   8.043 -0.7944  0.8563  0.3920
  476MOL0     C64150   8.045   4.377   7.972 -0.8272  0.5187  0.8296
  476MOL0     C64151   8.190   4.389   7.998  0.3145  0.1394  0.2939
  476MOL0     C64152   8.291   4.319   7.921  0.1031  0.8595 -1.1231
  476MOL0     C64153   8.441   4.349   7.957  0.2498  0.8131  0.1328
  476MOL0     C64154   8.246   4.227   7.820 -1.1214 -0.4007 -0.0874
  476MOL0     C64155   8.348   4.141   7.737  0.2333  0.5702  0.2222
  476MOL0     O64156   8.479   4.156   7.763  0.4158 -0.2664 -0.1006
  476MOL0     C64157   8.567   4.056   7.717  0.3858 -1.5770 -0.5170
  476MOL0     C64158   8.616   4.057   7.588  0.6083  0.2774  0.5794
  476MOL0     C64159   8.700   3.959   7.544 -0.5838  0.4924  0.1704
  476MOL0     C64160   8.753   3.860   7.634 -0.1849 -0.1501  1.3613
  476MOL0     O64161   8.841   3.761   7.601  0.3209 -0.0378 -0.7156
  476MOL0     C64162   8.860   3.727   7.464 -0.2294  0.1385  0.1401
  476MOL0     C64163   8.936   3.592   7.457 -0.0972  0.0812  0.3212
  476MOL0     C64164   8.959   3.537   7.318  0.6949 -0.6629  0.9383
  476MOL0     C64165   9.078   3.618   7.252  0.5953  0.9943  0.1854
  476MOL0     C64166   9.143   3.540   7.138  0.1623  0.0274 -0.4788
  476MOL0     C64167   9.278   3.607   7.107 -1.1116 -0.5709 -1.0304
  476MOL0     C64168   9.341   3.533   6.993  0.0944  0.5050  0.3518
  476MOL0     C64169   9.492   3.572   6.998 -0.5842 -0.2004 -0.4866
  476MOL0    Cl64170   9.507   3.732   6.953  0.6300 -0.2955  0.1535
  476MOL0     C64171   8.729   3.893   7.769 -0.5416  0.4640  0.1456
  476MOL0     C64172   8.628   3.979   7.814 -0.0621 -0.2333  0.0042
  476MOL0     O64173   8.297   4.090   7.633  0.0757 -0.5443  0.8528
  476MOL0     C64174   8.107   4.227   7.792  0.0518  0.0077  0.6301
  476MOL0     C64175   8.014   4.295   7.861  0.2822 -0.3683 -0.3766
  476MOL0     N64176   8.185   4.368   8.505  0.2283  0.4247 -0.0073
  476MOL0     N64177   8.320   4.340   8.523  0.1926  0.2643  0.0309
  476MOL0     C64178   9.279   4.193   7.714  0.8351 -0.4397  0.1264
  476MOL0     C64179   9.308   4.186   7.578 -0.1830  0.6683  0.2639
  476MOL0     C64180   9.331   4.209   7.120 -0.0292  0.6840  0.1125
  476MOL0     C64181   9.449   4.197   7.043  0.3397 -0.4531 -0.3592
  476MOL0     C64182   9.436   4.195   6.906 -0.2491 -0.8892  0.3118
  476MOL0     C64183   9.317   4.225   6.845 -0.4188  0.2677  0.3211
  476MOL0     O64184   9.299   4.250   6.712 -0.1528 -0.3443  0.1965
  476MOL0     C64185   9.344   4.374   6.662  0.0683 -0.1486 -0.0942
  476MOL0     C64186   9.478   4.377   6.582 -0.5405 -0.0341 -0.4209
  476MOL0     C64187   9.447   4.322   6.443  0.9208 -0.7533 -0.3044
  476MOL0     C64188   9.423   4.429   6.325 -0.3428  0.8182 -0.7138
  476MOL0     C64189   9.285   4.455   6.298  0.2311  0.3499  0.6219
  476MOL0     C64190   9.161   4.476   6.289  0.1550  0.6883  0.7956
  476MOL0     C64191   9.200   4.235   6.918 -0.9494 -0.2459 -0.3791
  476MOL0     C64192   9.208   4.230   7.058 -0.3080 -0.5381 -0.7697
  476MOL0     H64193   8.992   4.192   7.450  0.2437 -0.4346  0.0571
  476MOL0     H64194   8.936   4.167   7.677  0.2204 -0.2459 -0.2049
  476MOL0     H64195   9.252   4.193   7.996 -0.9454  0.5647 -3.6540
  476MOL0     H64196   9.153   4.335   7.934 -2.8197  0.1956  0.4436
  476MOL0     H64197   9.057   4.130   8.134  0.2612 -0.9624 -2.8478
  476MOL0     H64198   9.146   4.274   8.204  0.3853 -0.6920  0.2382
  476MOL0     H64199   8.980   4.422   8.095 -1.6196 -0.9167 -1.5468
  476MOL0     H64200   8.890   4.275   8.059 -1.3654 -0.2360  0.6398
  476MOL0     H64201   8.858   4.215   8.270 -2.9276  1.0543 -1.1363
  476MOL0     H64202   8.972   4.342   8.344  0.1998 -0.4911  0.6201
  476MOL0     H64203   8.818   4.507   8.287  0.5432 -0.7640  3.6373
  476MOL0     H64204   8.717   4.388   8.188 -0.4416 -0.6440  0.1537
  476MOL0     H64205   8.629   4.284   8.383 -0.2024  0.1462 -1.7132
  476MOL0     H64206   8.755   4.375   8.481 -1.7847  1.0363  1.4137
  476MOL0     H64207   8.624   4.586   8.420  0.6789  0.9350  2.8405
  476MOL0     H64208   8.501   4.474   8.344 -2.4098 -4.0662  2.5171
  476MOL0     H64209   8.541   4.572   8.607  0.6555 -2.0444  2.2259
  476MOL0     H64210   8.576   4.404   8.618  1.6507  1.4776 -0.1498
  476MOL0     H64211   8.276   4.657   8.611 -3.2168  0.6077  1.1472
  476MOL0     H64212   7.945   4.502   8.542 -0.8743  0.8426  0.1947
  476MOL0     H64213   8.011   4.650   8.599 -3.2180 -1.9285 -0.3076
  476MOL0     H64214   8.105   4.666   8.345 -0.0084  1.4626  0.0437
  476MOL0     H64215   7.927   4.683   8.359  0.4453 -1.0871  0.3938
  476MOL0     H64216   7.927   4.424   8.317  1.2130 -0.6977 -0.1109
  476MOL0     H64217   8.090   4.440   8.270 -0.1402 -0.2127 -1.1873
  476MOL0     H64218   8.030   4.621   8.096 -0.3356 -0.3885 -1.4465
  476MOL0     H64219   7.858   4.594   8.135  0.5383  1.3772  2.0509
  476MOL0     H64220   8.216   4.443   8.089 -3.6675  0.5758  1.3604
  476MOL0     H64221   8.451   4.395   8.055  3.2725 -0.6746  0.6476
  476MOL0     H64222   8.509   4.263   7.953  1.6146  1.8962 -2.3791
  476MOL0     H64223   8.467   4.422   7.880 -0.9043 -1.0671 -2.2034
  476MOL0     H64224   8.571   4.133   7.524 -0.6194  1.1532  2.4208
  476MOL0     H64225   8.738   3.961   7.442  1.1204 -0.2936  0.7622
  476MOL0     H64226   8.771   3.726   7.401  1.3431 -1.0592 -2.2518
  476MOL0     H64227   8.925   3.805   7.421  0.1583 -0.0507  0.3789
  476MOL0     H64228   9.040   3.603   7.488  0.3928 -5.5926  1.8038
  476MOL0     H64229   8.882   3.519   7.519  0.9148  0.0013  1.1241
  476MOL0     H64230   8.881   3.536   7.241  0.6851  0.2792  0.9259
  476MOL0     H64231   8.986   3.432   7.336 -1.4709 -1.8346 -1.8936
  476MOL0     H64232   9.046   3.710   7.203  2.6765 -0.2841 -4.1107
  476MOL0     H64233   9.160   3.624   7.324  0.3445 -4.8458  1.4608
  476MOL0     H64234   9.087   3.544   7.044  3.1741  2.5459 -2.3818
  476MOL0     H64235   9.165   3.439   7.173 -0.4491  0.1415  0.2553
  476MOL0     H64236   9.257   3.711   7.080  1.4370 -0.0097 -1.1078
  476MOL0     H64237   9.331   3.616   7.202 -2.3805 -2.8629 -0.0188
  476MOL0     H64238   9.304   3.559   6.893 -0.1639 -1.3175 -0.0736
  476MOL0     H64239   9.338   3.424   7.002  0.3918  0.5530  1.0988
  476MOL0     H64240   9.547   3.507   6.930  1.1313  0.1744  0.4974
  476MOL0     H64241   9.539   3.566   7.096  0.6349  0.6238 -0.9914
  476MOL0     H64242   8.766   3.809   7.828 -2.5764 -0.9359 -0.4714
  476MOL0     H64243   8.589   3.976   7.916 -1.5240 -1.2104 -0.5476
  476MOL0     H64244   8.077   4.156   7.715  0.0472  0.8098 -0.1200
  476MOL0     H64245   7.909   4.278   7.841  0.5383 -3.9119  0.5887
  476MOL0     H64246   9.356   4.209   7.788 -0.6229  1.5173  1.3194
  476MOL0     H64247   9.410   4.159   7.556  0.5471  0.3998  3.5463
  476MOL0     H64248   9.546   4.187   7.092 -0.5323 -0.7915  1.3900
  476MOL0     H64249   9.519   4.175   6.839 -0.7645  2.3244 -1.4715
  476MOL0     H64250   9.268   4.430   6.607 -2.1453 -2.2708  0.6466
  476MOL0     H64251   9.359   4.436   6.752  0.4649  1.8490 -1.4770
  476MOL0     H64252   9.543   4.324   6.652 -1.2631  1.4927  1.5004
  476MOL0     H64253   9.519   4.479   6.579  2.1466 -1.0434 -1.9583
  476MOL0     H64254   9.360   4.255   6.445  1.0468 -1.0259 -1.9021
  476MOL0     H64255   9.535   4.260   6.423  3.9157  2.0891  2.7294
  476MOL0     H64256   9.465   4.378   6.238  0.4845 -0.7216  0.5185
  476MOL0     H64257   9.475   4.523   6.342 -0.2247  0.5647  0.3941
  476MOL0     H64258   9.057   4.474   6.262  0.5778  3.1439 -1.4826
  476MOL0     H64259   9.109   4.244   6.859 -0.0517 -2.6831 -2.2857
  476MOL0     H64260   9.122   4.258   7.119  1.4916  0.6381  1.3690
  477MOL0     O64261   1.331   8.317   7.273  0.0925 -0.2051 -0.2590
  477MOL0     C64262   1.338   8.427   7.335 -0.2947  0.4303  0.5690
  477MOL0     O64263   1.265   8.539   7.301 -0.0460  0.8907  0.0929
  477MOL0     C64264   1.167   8.540   7.204  0.3604  0.7756  0.2350
  477MOL0     C64265   1.165   8.634   7.098  0.0244  0.2690  0.6468
  477MOL0     C64266   1.074   8.620   6.993  0.5875  0.2788  0.5147
  477MOL0     C64267   1.004   8.498   6.989  0.0201  0.1035 -0.2237
  477MOL0     O64268   0.928   8.478   6.878 -0.0344 -0.0161 -0.5676
  477MOL0     C64269   0.873   8.347   6.847  0.3157  0.0349 -0.5158
  477MOL0     C64270   0.798   8.351   6.718 -0.7676  1.3221 -0.5991
  477MOL0     C64271   0.717   8.218   6.703 -0.3486  0.7740  0.0339
  477MOL0     C64272   0.618   8.239   6.585 -0.5226 -0.4030  0.1651
  477MOL0     C64273   0.522   8.120   6.575 -0.5165 -0.5340  0.0663
  477MOL0     C64274   0.410   8.122   6.680 -0.4309 -0.2653 -0.3089
  477MOL0     C64275   0.292   8.026   6.648 -0.2143  0.2586 -0.1562
  477MOL0     C64276   0.181   8.037   6.752  0.3864 -0.4292  0.5181
  477MOL0     N64277   0.057   7.968   6.710 -0.0756 -0.1879  0.2524
  477MOL0     C64278  -0.060   8.003   6.769  0.7264  1.1959 -0.8021
  477MOL0     C64279  -0.149   7.902   6.721 -0.2009 -0.5489 -0.8885
  477MOL0     C64280  -0.294   7.896   6.765  0.2820 -0.4624 -0.7086
  477MOL0     C64281  -0.401   7.902   6.660  0.5753 -0.0275 -0.4397
  477MOL0     C64282  -0.533   7.917   6.734  0.2989  0.1161 -0.4760
  477MOL0     C64283  -0.658   7.920   6.643 -0.7338  0.4686  0.2545
  477MOL0     O64284  -0.776   7.912   6.722 -0.7919 -0.3615 -0.2626
  477MOL0     C64285  -0.888   7.945   6.654 -0.1997  0.0661 -0.2712
  477MOL0     C64286  -0.895   7.976   6.511 -0.7960  0.2933  0.9365
  477MOL0     C64287  -1.004   8.039   6.465  0.7771 -0.1606 -0.3028
  477MOL0     C64288  -1.002   8.079   6.315  0.0386 -0.2210 -0.1963
  477MOL0     C64289  -1.125   8.066   6.547  0.7091  0.2649  0.4550
  477MOL0     C64290  -1.251   8.133   6.502 -0.0571 -0.0832 -0.5235
  477MOL0     O64291  -1.370   8.107   6.564 -0.2527 -0.4738 -0.2521
  477MOL0     C64292  -1.479   8.190   6.532 -0.3318 -0.7729 -0.0127
  477MOL0     C64293  -1.605   8.131   6.532 -0.2035 -0.0031  0.5893
  477MOL0     C64294  -1.721   8.207   6.502  1.1179 -0.2507 -0.2035
  477MOL0     C64295  -1.713   8.345   6.465  0.0372  0.1853  0.1672
  477MOL0     O64296  -1.829   8.408   6.421 -0.1823  0.0800 -0.5853
  477MOL0     C64297  -1.899   8.351   6.302 -0.1112  0.1867 -0.6974
  477MOL0     C64298  -2.054   8.365   6.288 -0.1750  1.2793 -0.2272
  477MOL0     C64299  -2.124   8.361   6.423 -0.4206 -0.4199 -0.1497
  477MOL0     C64300  -2.114   8.228   6.495  0.1133 -0.2650 -0.9527
  477MOL0     C64301  -2.242   8.201   6.585 -0.2436 -0.1704  0.7312
  477MOL0     C64302  -2.239   8.065   6.664  0.4520 -0.0760 -0.3522
  477MOL0     C64303  -2.373   8.013   6.698 -0.2032  0.5888  0.7915
  477MOL0     C64304  -2.361   7.905   6.805 -0.2141  0.6289  1.1025
  477MOL0    Cl64305  -2.248   7.768   6.747 -0.2614 -0.0282 -0.7446
  477MOL0     C64306  -1.591   8.404   6.465 -0.6370  0.3646  0.0767
  477MOL0     C64307  -1.468   8.329   6.509  1.1891 -0.7158 -0.1635
  477MOL0     O64308  -1.221   8.228   6.429 -0.2417  0.1662 -0.6292
  477MOL0     C64309  -1.117   8.033   6.684 -1.2964  0.3129 -0.6328
  477MOL0     C64310  -0.997   7.976   6.735  0.3352 -0.3977 -0.8011
  477MOL0     N64311  -0.072   7.814   6.647  0.1771 -0.5085  0.1194
  477MOL0     N64312   0.046   7.862   6.630  0.0946 -0.6739 -0.3866
  477MOL0     C64313   0.987   8.417   7.100 -0.0719  0.3744  0.6423
  477MOL0     C64314   1.070   8.431   7.209  1.0634 -1.1452  0.0075
  477MOL0     C64315   1.416   8.441   7.461  0.6411 -0.0839  1.1264
  477MOL0     C64316   1.376   8.530   7.563  0.5464 -0.1738  0.1886
  477MOL0     C64317   1.450   8.554   7.679 -0.6867  0.7711  0.6270
  477MOL0     C64318   1.567   8.489   7.703 -0.0910  0.0954 -0.2432
  477MOL0     O64319   1.643   8.496   7.813  0.0802  0.6002 -0.2389
  477MOL0     C64320   1.645   8.617   7.891 -0.8711 -0.1141  0.1843
  477MOL0     C64321   1.795   8.653   7.917  0.9015 -0.0392 -0.2277
  477MOL0     C64322   1.877   8.563   8.011  0.3491 -0.1005  0.3123
  477MOL0     C64323   1.818   8.551   8.148  0.5126  0.0039  0.0248
  477MOL0     C64324   1.905   8.463   8.228  0.3873  0.0342  0.0842
  477MOL0     C64325   1.969   8.410   8.316 -0.1136  0.2714  0.0887
  477MOL0     C64326   1.609   8.398   7.610  0.3464 -0.7259  0.6427
  477MOL0     C64327   1.535   8.376   7.485 -0.2416  0.4417  0.0469
  477MOL0     H64328   1.243   8.709   7.094  2.2007 -1.8054  1.6908
  477MOL0     H64329   1.082   8.691   6.911 -0.0935 -0.5409 -0.2925
  477MOL0     H64330   0.955   8.278   6.824 -1.8127 -1.5786 -4.3246
  477MOL0     H64331   0.809   8.322   6.931  2.2741 -2.6699  0.3225
  477MOL0     H64332   0.733   8.439   6.709 -0.9839  1.0895 -1.3939
  477MOL0     H64333   0.873   8.358   6.639 -3.4527  1.3003 -3.3388
  477MOL0     H64334   0.783   8.131   6.696  2.4930  2.3361  3.7430
  477MOL0     H64335   0.664   8.203   6.798  3.8843  0.8184  2.6736
  477MOL0     H64336   0.561   8.332   6.596 -3.1455 -2.1697  3.2944
  477MOL0     H64337   0.677   8.235   6.493  0.6823 -2.7106  0.9698
  477MOL0     H64338   0.470   8.115   6.479 -2.0802  2.2119  0.6366
  477MOL0     H64339   0.578   8.027   6.582  2.8392  1.3071  0.0542
  477MOL0     H64340   0.462   8.082   6.768 -1.7544 -1.1519  0.0964
  477MOL0     H64341   0.380   8.225   6.700  0.0638  0.3102 -2.2744
  477MOL0     H64342   0.253   8.041   6.547 -1.7294 -0.7383  0.2607
  477MOL0     H64343   0.330   7.924   6.653 -1.0569 -0.0573 -0.0822
  477MOL0     H64344   0.161   8.144   6.761  3.4150  0.5211 -2.0871
  477MOL0     H64345   0.218   7.991   6.844 -0.6692 -0.8850  0.7207
  477MOL0     H64346  -0.085   8.090   6.830 -0.2464  1.7419 -1.9337
  477MOL0     H64347  -0.301   7.799   6.816  0.7629  0.5918  1.5098
  477MOL0     H64348  -0.304   7.964   6.850  3.0431 -0.0307 -0.6518
  477MOL0     H64349  -0.395   7.811   6.601  0.9148  1.3834 -2.7221
  477MOL0     H64350  -0.370   7.982   6.592  3.8216 -0.3503  0.5316
  477MOL0     H64351  -0.546   8.005   6.798 -1.0424  0.7172 -1.5286
  477MOL0     H64352  -0.548   7.845   6.815 -3.5951  2.6854  1.3860
  477MOL0     H64353  -0.644   7.838   6.572  0.5975 -0.4255  1.5013
  477MOL0     H64354  -0.639   8.012   6.586  2.0728 -0.0159  0.2291
  477MOL0     H64355  -0.808   7.962   6.448  1.5679  0.0660  4.0437
  477MOL0     H64356  -0.993   8.188   6.317  3.0821 -0.3460  2.9967
  477MOL0     H64357  -0.919   8.030   6.264  1.1516  3.8983 -2.8239
  477MOL0     H64358  -1.094   8.052   6.264  1.1832 -1.7027 -1.5946
  477MOL0     H64359  -1.603   8.025   6.555 -0.5824  0.3207  2.2781
  477MOL0     H64360  -1.821   8.166   6.491  0.9529 -0.2965  1.2952
  477MOL0     H64361  -1.867   8.415   6.219  2.3762  0.8640  0.6971
  477MOL0     H64362  -1.875   8.245   6.287 -3.4136 -1.1366  2.0477
  477MOL0     H64363  -2.073   8.457   6.232  0.4179  1.4677 -0.1297
  477MOL0     H64364  -2.088   8.288   6.218  3.4459  1.0098 -1.9479
  477MOL0     H64365  -2.228   8.381   6.396 -0.5785  0.2720  0.9312
  477MOL0     H64366  -2.086   8.447   6.478 -2.9153  0.6048  0.1136
  477MOL0     H64367  -2.111   8.147   6.420 -2.5131 -0.7889 -0.5769
  477MOL0     H64368  -2.023   8.221   6.556  0.3864 -0.8052 -1.4138
  477MOL0     H64369  -2.328   8.216   6.519  0.8875  1.2415 -0.5020
  477MOL0     H64370  -2.258   8.271   6.668  0.2139  0.1992  0.5161
  477MOL0     H64371  -2.178   8.000   6.601  0.3893  0.1488 -0.6493
  477MOL0     H64372  -2.193   8.082   6.762 -2.4745  2.7980  0.7190
  477MOL0     H64373  -2.416   7.969   6.608  0.1262  0.3255  0.7633
  477MOL0     H64374  -2.439   8.094   6.730 -1.7265 -0.1067 -0.4271
  477MOL0     H64375  -2.463   7.871   6.828 -0.4382 -0.3754 -1.1677
  477MOL0     H64376  -2.314   7.950   6.893  0.6049 -2.0177  2.1241
  477MOL0     H64377  -1.596   8.510   6.443 -3.5074  0.2277 -0.2442
  477MOL0     H64378  -1.379   8.387   6.533  1.3105 -0.4471 -1.2156
  477MOL0     H64379  -1.194   8.063   6.754  3.8624  2.8753  4.8168
  477MOL0     H64380  -0.996   7.956   6.842  0.6218 -0.1319 -0.7539
  477MOL0     H64381   0.904   8.347   7.098 -0.6125  1.0143 -1.1177
  477MOL0     H64382   1.052   8.358   7.287 -1.3336 -3.5601 -2.5734
  477MOL0     H64383   1.292   8.597   7.545  0.3144 -0.9829 -1.9180
  477MOL0     H64384   1.410   8.622   7.753  2.3292  1.8805  1.3574
  477MOL0     H64385   1.597   8.698   7.834  1.7842  2.0671  0.7927
  477MOL0     H64386   1.593   8.620   7.987 -1.6585  0.1057 -0.2369
  477MOL0     H64387   1.805   8.754   7.959  1.5307 -1.5437  3.7244
  477MOL0     H64388   1.836   8.655   7.816 -2.1571  1.8138 -1.5985
  477MOL0     H64389   1.978   8.604   8.013  0.0030  0.8092  2.6144
  477MOL0     H64390   1.894   8.465   7.964 -1.0912  0.3105 -1.1759
  477MOL0     H64391   1.718   8.506   8.147  0.7637 -0.7658 -3.5087
  477MOL0     H64392   1.820   8.652   8.190  3.0468  0.4334 -0.9316
  477MOL0     H64393   2.029   8.375   8.398  0.8743 -1.2270 -1.2115
  477MOL0     H64394   1.701   8.342   7.625  1.7222  1.2730  0.1257
  477MOL0     H64395   1.569   8.314   7.403 -2.7619 -0.2451 -0.5717
  478MOL0     O64396  11.056   8.254   5.447 -0.2299  0.8116  0.4685
  478MOL0     C64397  11.056   8.234   5.328  0.3309  0.3522 -0.3279
  478MOL0     O64398  11.158   8.161   5.267 -0.1286 -1.7136  0.0549
  478MOL0     C64399  11.269   8.129   5.337  0.0510  0.8657 -0.2372
  478MOL0     C64400  11.291   8.015   5.416 -0.4176  0.3240 -0.1027
  478MOL0     C64401  11.429   7.981   5.450 -0.2601 -0.6214 -0.2626
  478MOL0     C64402  11.533   8.069   5.426 -1.3377 -0.4794 -0.1998
  478MOL0     O64403  11.656   8.026   5.462  0.1275  0.1039  0.1154
  478MOL0     C64404  11.745   8.123   5.509 -0.2585 -0.4113  0.3698
  478MOL0     C64405  11.893   8.088   5.511 -0.1247  0.7589  0.6150
  478MOL0     C64406  11.951   8.094   5.362 -0.3235 -0.0122 -1.1792
  478MOL0     C64407  12.067   7.993   5.377  0.7633 -0.1634  0.0685
  478MOL0     C64408  12.158   7.984   5.255  0.1390 -0.1617 -0.0349
  478MOL0     C64409  12.307   7.988   5.302 -0.0227  0.0109 -0.6496
  478MOL0     C64410  12.364   7.875   5.394  0.1031 -1.1261 -0.2568
  478MOL0     C64411  12.364   7.735   5.326  0.8224  0.6960  0.3017
  478MOL0     N64412  12.415   7.631   5.430 -0.3050 -0.4400  0.1530
  478MOL0     C64413  12.547   7.609   5.477  1.4805  0.5552 -0.0194
  478MOL0     C64414  12.544   7.482   5.539  0.1882 -0.3117  0.3309
  478MOL0     C64415  12.656   7.414   5.610 -0.6608  0.3661  0.3343
  478MOL0     C64416  12.726   7.310   5.524 -0.7518  0.0263  0.4977
  478MOL0     C64417  12.864   7.269   5.589 -0.3343  0.5607 -0.7926
  478MOL0     C64418  12.914   7.136   5.532  0.4054  0.5045  0.9754
  478MOL0     O64419  13.014   7.085   5.624  0.1661  0.0581  0.3081
  478MOL0     C64420  13.095   6.984   5.574  0.4579 -1.1886  0.2801
  478MOL0     C64421  13.051   6.890   5.482 -0.5984 -0.2374  0.2264
  478MOL0     C64422  13.139   6.803   5.419 -0.5275  0.3806 -0.8399
  478MOL0     C64423  13.095   6.698   5.326 -0.1164  0.0169 -1.2684
  478MOL0     C64424  13.282   6.815   5.454 -0.0710 -0.9459 -0.6990
  478MOL0     C64425  13.391   6.731   5.397 -0.1879  0.1468 -0.5257
  478MOL0     O64426  13.502   6.709   5.467 -0.1244 -0.2535 -0.7311
  478MOL0     C64427  13.605   6.625   5.431 -0.5138  0.8831 -0.2386
  478MOL0     C64428  13.681   6.584   5.536 -0.8859  0.6278 -0.3454
  478MOL0     C64429  13.775   6.485   5.517 -1.0113  0.3988 -0.1386
  478MOL0     C64430  13.810   6.438   5.390  0.3935 -0.2055 -0.1488
  478MOL0     O64431  13.916   6.357   5.345 -0.5882  0.0033 -0.0209
  478MOL0     C64432  13.972   6.283   5.456  0.5217  0.1930  0.6455
  478MOL0     C64433  13.881   6.172   5.491  0.9590  0.8169  1.1930
  478MOL0     C64434  13.860   6.078   5.375  0.4274  0.1526  0.0063
  478MOL0     C64435  13.759   5.966   5.415  0.0699 -0.6467  0.0842
  478MOL0     C64436  13.748   5.870   5.299  0.1513  0.2871  0.5408
  478MOL0     C64437  13.669   5.739   5.309  0.8745 -0.5058  0.2849
  478MOL0     C64438  13.521   5.755   5.361 -0.3157 -0.1324  0.8515
  478MOL0     C64439  13.441   5.858   5.271 -0.3680 -0.4193 -0.1151
  478MOL0    Cl64440  13.272   5.810   5.315 -0.1446  0.1324  0.2055
  478MOL0     C64441  13.742   6.485   5.284 -0.4053 -0.6221 -0.5713
  478MOL0     C64442  13.635   6.572   5.307 -0.0862  1.2151 -0.1395
  478MOL0     O64443  13.379   6.700   5.281  0.4224  0.7265  0.1117
  478MOL0     C64444  13.323   6.914   5.545 -0.1289 -1.3334 -0.2848
  478MOL0     C64445  13.231   6.994   5.602  0.7028 -1.0540 -0.2205
  478MOL0     N64446  12.422   7.428   5.523 -0.1600 -0.3526  0.2714
  478MOL0     N64447  12.352   7.516   5.454 -0.0019 -0.1734  0.4121
  478MOL0     C64448  11.506   8.181   5.340  0.1663 -0.1972  0.8942
  478MOL0     C64449  11.376   8.207   5.297 -0.7918 -0.2290  0.8077
  478MOL0     C64450  10.939   8.288   5.259 -0.4036 -0.8657 -0.3480
  478MOL0     C64451  10.934   8.295   5.117 -0.6311  0.3528 -0.8669
  478MOL0     C64452  10.821   8.337   5.053 -1.0011  0.3004 -1.3000
  478MOL0     C64453  10.725   8.409   5.118  0.1424  0.1075 -0.3429
  478MOL0     O64454  10.609   8.462   5.064  0.0965  0.3257  0.6213
  478MOL0     C64455  10.581   8.454   4.920 -0.1133 -0.2807  0.5570
  478MOL0     C64456  10.606   8.591   4.869  0.4763 -0.2049 -0.5711
  478MOL0     C64457  10.568   8.613   4.724 -0.1631  0.0214  0.9052
  478MOL0     C64458  10.413   8.630   4.715 -0.0713 -0.0083  0.4403
  478MOL0     C64459  10.372   8.602   4.575  0.0986 -0.6788  0.1802
  478MOL0     C64460  10.354   8.596   4.458  0.2964  0.6336  0.6746
  478MOL0     C64461  10.727   8.411   5.256 -0.2393  0.0882  0.1774
  478MOL0     C64462  10.831   8.350   5.327  0.0037  0.2329  0.3466
  478MOL0     H64463  11.208   7.953   5.448  1.3503 -0.6212  3.0909
  478MOL0     H64464  11.452   7.893   5.509  0.1223  0.0097  0.5455
  478MOL0     H64465  11.734   8.225   5.472  0.2599 -0.5511 -0.1881
  478MOL0     H64466  11.720   8.131   5.615 -0.9836  1.0261  0.1167
  478MOL0     H64467  11.953   8.160   5.568  0.7355  0.7889 -0.2798
  478MOL0     H64468  11.892   7.987   5.552 -1.5273  1.0336  1.3133
  478MOL0     H64469  11.875   8.062   5.290 -1.6890  0.0979  0.1637
  478MOL0     H64470  11.986   8.191   5.326  0.6507 -0.7426 -2.2914
  478MOL0     H64471  12.125   8.028   5.463  2.4602  1.2110 -1.5230
  478MOL0     H64472  12.039   7.890   5.400  2.0634 -0.7160 -0.6948
  478MOL0     H64473  12.131   7.896   5.196  0.6953  0.8812 -1.9240
  478MOL0     H64474  12.151   8.069   5.186  0.2146  0.4829  0.7375
  478MOL0     H64475  12.355   7.967   5.206 -1.9333  0.2417 -1.7077
  478MOL0     H64476  12.338   8.084   5.344 -1.3667 -0.1858  0.8656
  478MOL0     H64477  12.468   7.900   5.417  0.5885 -0.5852 -2.7347
  478MOL0     H64478  12.301   7.869   5.484 -3.2422  1.1864 -2.1819
  478MOL0     H64479  12.426   7.746   5.237  1.9778  3.7624  1.3418
  478MOL0     H64480  12.269   7.702   5.283  2.0193  0.2295 -2.1035
  478MOL0     H64481  12.630   7.680   5.477  2.4376 -0.4871 -2.0554
  478MOL0     H64482  12.736   7.478   5.649 -0.3269  2.1268 -2.8988
  478MOL0     H64483  12.615   7.359   5.695 -0.4897  1.4294  1.1222
  478MOL0     H64484  12.743   7.363   5.430  1.1857 -0.8347  0.3229
  478MOL0     H64485  12.673   7.217   5.499 -0.5534  0.4587 -1.8219
  478MOL0     H64486  12.845   7.257   5.696 -0.9303 -2.9892 -1.1799
  478MOL0     H64487  12.938   7.344   5.561 -1.0839  0.3491 -3.6873
  478MOL0     H64488  12.957   7.143   5.432 -1.4144  1.7112  0.2301
  478MOL0     H64489  12.831   7.065   5.533  0.6782 -0.0124 -2.4499
  478MOL0     H64490  12.944   6.882   5.465 -0.8187 -0.5317  1.6272
  478MOL0     H64491  12.986   6.697   5.318 -0.1531 -1.7069 -0.9708
  478MOL0     H64492  13.121   6.732   5.225 -0.3605  0.3215 -1.2279
  478MOL0     H64493  13.140   6.603   5.357 -1.6053 -0.4157 -0.3456
  478MOL0     H64494  13.662   6.616   5.638 -1.9079 -1.3005  0.1142
  478MOL0     H64495  13.818   6.451   5.611 -1.0830  1.5438  0.3241
  478MOL0     H64496  14.071   6.251   5.421  0.8260  1.3882  0.3604
  478MOL0     H64497  13.976   6.342   5.548  2.0053 -2.9640  2.7856
  478MOL0     H64498  13.921   6.115   5.575  0.6632 -3.2298 -1.1450
  478MOL0     H64499  13.785   6.202   5.532 -0.7155 -1.4045 -0.8324
  478MOL0     H64500  13.955   6.031   5.350 -0.5746 -2.2470  0.3866
  478MOL0     H64501  13.826   6.141   5.292 -1.2049 -1.7038 -0.8120
  478MOL0     H64502  13.800   5.921   5.505  1.7756  1.4752  0.4607
  478MOL0     H64503  13.660   5.999   5.447  0.7116  1.1173  0.3519
  478MOL0     H64504  13.847   5.834   5.271  0.7566  3.6723 -2.2933
  478MOL0     H64505  13.701   5.920   5.213  0.4126 -0.8502 -0.2912
  478MOL0     H64506  13.670   5.693   5.210  3.2068 -0.9543  0.4692
  478MOL0     H64507  13.711   5.667   5.380 -0.9042 -1.7891  0.1048
  478MOL0     H64508  13.526   5.788   5.465 -0.7246 -1.0315  1.1699
  478MOL0     H64509  13.475   5.656   5.360  0.0943 -0.5121 -3.6428
  478MOL0     H64510  13.469   5.860   5.166  1.8678  2.6191  0.4081
  478MOL0     H64511  13.454   5.963   5.299 -1.3453  0.1084 -1.5371
  478MOL0     H64512  13.786   6.477   5.185  1.2084  0.4142  0.0159
  478MOL0     H64513  13.593   6.623   5.222 -2.8261 -0.4205  0.0922
  478MOL0     H64514  13.424   6.933   5.580 -0.6649  2.9607 -0.4379
  478MOL0     H64515  13.263   7.068   5.676 -0.8749  0.7067 -1.1987
  478MOL0     H64516  11.590   8.245   5.316  0.8344 -1.1686  0.5868
  478MOL0     H64517  11.360   8.292   5.231  0.9907  1.9122  2.9372
  478MOL0     H64518  11.023   8.269   5.062  0.5753  2.6766 -0.1513
  478MOL0     H64519  10.821   8.334   4.944 -0.5833  1.5212 -1.3524
  478MOL0     H64520  10.642   8.381   4.866 -0.6225 -0.2942 -0.0128
  478MOL0     H64521  10.481   8.417   4.893  0.5181 -0.1899 -2.1661
  478MOL0     H64522  10.714   8.601   4.888  0.8766 -2.3522 -1.3562
  478MOL0     H64523  10.560   8.668   4.930 -2.4349 -1.7895 -0.6092
  478MOL0     H64524  10.621   8.529   4.677 -1.5241 -1.0548  1.2037
  478MOL0     H64525  10.608   8.706   4.684  0.6209 -0.3854  0.7151
  478MOL0     H64526  10.388   8.729   4.754 -0.3958 -1.0062  2.9595
  478MOL0     H64527  10.366   8.547   4.769 -4.0595 -0.9820 -3.8644
  478MOL0     H64528  10.321   8.564   4.361 -1.0571 -0.0485  1.3337
  478MOL0     H64529  10.640   8.462   5.296 -0.5686  1.6918 -2.3481
  478MOL0     H64530  10.827   8.352   5.436  4.5188  2.5993  0.7076
  479MOL0     O64531   7.690   6.277   4.084 -0.1281 -0.2271 -0.0671
  479MOL0     C64532   7.570   6.276   4.053 -0.1850  0.0640  1.2764
  479MOL0     O64533   7.523   6.212   3.946 -0.3418  0.0540  0.5686
  479MOL0     C64534   7.599   6.115   3.885 -0.2632  0.7943 -0.2598
  479MOL0     C64535   7.590   5.984   3.937  0.2455  0.4846 -0.4197
  479MOL0     C64536   7.668   5.880   3.876 -0.3970 -0.0352 -0.0434
  479MOL0     C64537   7.747   5.907   3.765 -0.8378 -0.1271  0.9288
  479MOL0     O64538   7.825   5.811   3.691 -0.8401  0.5759 -0.4263
  479MOL0     C64539   7.771   5.681   3.675  0.3679 -0.5598  0.8558
  479MOL0     C64540   7.876   5.575   3.723  0.0819 -0.1806  0.0244
  479MOL0     C64541   7.817   5.438   3.694  0.2984 -0.0602 -0.1851
  479MOL0     C64542   7.897   5.320   3.752 -1.0683  0.1399 -0.3696
  479MOL0     C64543   7.879   5.187   3.686  0.4960  0.3481 -0.3272
  479MOL0     C64544   7.940   5.069   3.748 -0.0737 -0.1645 -0.1297
  479MOL0     C64545   8.090   5.050   3.730  0.3254  0.0026 -0.1589
  479MOL0     C64546   8.130   4.910   3.775 -0.0962 -0.7478  0.2826
  479MOL0     N64547   8.146   4.906   3.920  0.2503 -0.2019 -0.4821
  479MOL0     C64548   8.266   4.937   3.981  0.2372  0.3572  0.8314
  479MOL0     C64549   8.258   4.879   4.102  1.1967  0.4767 -0.7448
  479MOL0     C64550   8.369   4.865   4.194 -0.6195 -0.1253 -0.2958
  479MOL0     C64551   8.379   4.986   4.288  0.8995  0.5004  0.2235
  479MOL0     C64552   8.291   4.960   4.409  0.5358  0.0618 -0.0077
  479MOL0     C64553   8.297   5.083   4.503 -0.9363  0.4975 -0.8007
  479MOL0     O64554   8.165   5.129   4.546 -0.1378  0.3763 -0.4792
  479MOL0     C64555   8.094   5.211   4.469 -0.6785 -0.3906  0.0817
  479MOL0     C64556   8.101   5.251   4.332  0.0504  0.5641 -0.0267
  479MOL0     C64557   8.006   5.333   4.267 -0.2495 -0.2635 -0.0617
  479MOL0     C64558   8.044   5.382   4.127  0.1695  0.1749 -0.4849
  479MOL0     C64559   7.899   5.380   4.342 -1.6555  0.2873 -1.0171
  479MOL0     C64560   7.785   5.471   4.290  0.1851  1.0219 -1.1346
  479MOL0     O64561   7.740   5.434   4.164  0.6432 -0.3145 -0.1823
  479MOL0     C64562   7.636   5.490   4.092 -0.2351  0.2155 -0.8543
  479MOL0     C64563   7.574   5.617   4.119 -1.1599 -0.0916  0.2713
  479MOL0     C64564   7.458   5.663   4.051 -0.0985 -0.3497 -0.0887
  479MOL0     C64565   7.417   5.594   3.935 -0.3701  0.1275 -0.4319
  479MOL0     O64566   7.305   5.628   3.866  0.3190  0.5589 -0.2224
  479MOL0     C64567   7.228   5.736   3.903  0.6393  0.3203  1.4253
  479MOL0     C64568   7.103   5.730   3.820 -0.1877  0.2316  0.3138
  479MOL0     C64569   7.033   5.862   3.822 -0.3837  0.0167  0.4226
  479MOL0     C64570   6.888   5.862   3.768  0.1552 -0.5183 -0.1443
  479MOL0     C64571   6.836   6.004   3.726 -0.2232  0.0464 -0.2937
  479MOL0     C64572   6.685   6.009   3.705  0.2008 -0.4228 -0.8692
  479MOL0     C64573   6.628   5.911   3.615  0.4702  0.1783  0.7310
  479MOL0     C64574   6.489   5.952   3.571  0.2938  0.3413  0.0809
  479MOL0    Cl64575   6.382   5.953   3.701 -0.0721 -0.3676  0.0689
  479MOL0     C64576   7.482   5.480   3.896  0.1906 -0.5260 -0.4006
  479MOL0     C64577   7.591   5.429   3.973  0.2535 -0.6762  0.5557
  479MOL0     O64578   7.725   5.543   4.371 -0.4901  0.2742  0.2110
  479MOL0     C64579   7.896   5.352   4.480 -0.4123  0.3561 -0.2684
  479MOL0     C64580   7.983   5.258   4.537 -0.9666  0.4368  0.2977
  479MOL0     N64581   8.139   4.807   4.105  0.3069  0.4056 -0.4185
  479MOL0     N64582   8.072   4.822   3.997  0.4979 -0.4465  1.0996
  479MOL0     C64583   7.747   6.035   3.714 -0.0671 -0.4398 -1.1002
  479MOL0     C64584   7.666   6.137   3.768 -0.4655  0.8095 -0.5381
  479MOL0     C64585   7.478   6.374   4.120  0.3436 -0.2790  0.3087
  479MOL0     C64586   7.350   6.402   4.073 -0.5517  0.6345 -0.9260
  479MOL0     C64587   7.265   6.501   4.130 -0.7983  0.2279 -0.4746
  479MOL0     C64588   7.311   6.579   4.233 -0.1364 -0.4194 -0.0340
  479MOL0     O64589   7.224   6.676   4.286 -0.4767  0.2991 -0.0300
  479MOL0     C64590   7.231   6.720   4.419  0.1075 -0.9325 -0.0269
  479MOL0     C64591   7.096   6.770   4.462  0.0040 -0.2492  0.2314
  479MOL0     C64592   7.097   6.816   4.608  0.1209  0.1532 -0.1361
  479MOL0     C64593   7.174   6.948   4.644  0.4385 -0.3360 -0.3802
  479MOL0     C64594   7.097   7.059   4.597 -0.3982 -0.9624 -0.2432
  479MOL0     C64595   7.027   7.149   4.560 -0.4939  0.5471 -0.0046
  479MOL0     C64596   7.442   6.554   4.291 -0.5903  0.3085 -0.5101
  479MOL0     C64597   7.520   6.454   4.234  0.9749  0.9004  1.6188
  479MOL0     H64598   7.524   5.967   4.021  1.0586 -0.1031  0.1135
  479MOL0     H64599   7.658   5.778   3.912 -0.3137  0.8905  2.8818
  479MOL0     H64600   7.670   5.668   3.715 -0.0001  4.2492  2.0075
  479MOL0     H64601   7.765   5.651   3.570  0.0880 -0.3547  0.8134
  479MOL0     H64602   7.969   5.590   3.667  0.9498  1.2644  1.7164
  479MOL0     H64603   7.893   5.582   3.831  2.4170 -3.1443 -0.0343
  479MOL0     H64604   7.711   5.438   3.723  0.5251  4.0685  1.2029
  479MOL0     H64605   7.821   5.422   3.586  0.8361  0.5309 -0.2601
  479MOL0     H64606   8.004   5.341   3.757 -0.8228 -1.2423  1.4736
  479MOL0     H64607   7.869   5.317   3.858  1.2770 -2.3983  0.3017
  479MOL0     H64608   7.776   5.148   3.689  2.2320 -5.1848 -0.9604
  479MOL0     H64609   7.905   5.199   3.581  2.5370  1.2369  0.2331
  479MOL0     H64610   7.912   5.071   3.853  1.9582  0.3770  0.4599
  479MOL0     H64611   7.883   4.984   3.708 -0.9695  0.6706 -0.6456
  479MOL0     H64612   8.105   5.061   3.622  0.0135  1.4912 -0.0698
  479MOL0     H64613   8.143   5.133   3.777  0.7908 -0.2297 -0.2596
  479MOL0     H64614   8.227   4.898   3.727 -0.4532  1.8694 -1.3069
  479MOL0     H64615   8.064   4.832   3.739 -0.1666 -0.4892 -0.1514
  479MOL0     H64616   8.361   4.976   3.945  0.5473 -3.1064 -2.9384
  479MOL0     H64617   8.348   4.780   4.259 -0.9010 -1.9208 -2.6075
  479MOL0     H64618   8.467   4.843   4.153  1.9682  0.4770  4.7610
  479MOL0     H64619   8.354   5.085   4.248 -2.2823 -0.3410 -0.1279
  479MOL0     H64620   8.482   5.004   4.318 -0.0857  3.6775  2.1497
  479MOL0     H64621   8.314   4.875   4.474 -3.5069  0.4632  2.2959
  479MOL0     H64622   8.186   4.945   4.381  0.9031 -2.1825 -0.3619
  479MOL0     H64623   8.345   5.166   4.452 -1.2309  0.9802 -0.3039
  479MOL0     H64624   8.360   5.057   4.588  1.7990 -0.9206 -3.0761
  479MOL0     H64625   8.175   5.223   4.258  0.3467  1.3467 -0.0403
  479MOL0     H64626   8.152   5.378   4.114  0.1389  0.5132 -0.8951
  479MOL0     H64627   7.995   5.301   4.073  0.2691 -2.4389  3.0285
  479MOL0     H64628   8.002   5.481   4.107  1.3940  0.9715  0.7171
  479MOL0     H64629   7.593   5.669   4.213 -0.3924 -1.3368  0.8415
  479MOL0     H64630   7.414   5.758   4.082  1.1165 -0.2895  1.5951
  479MOL0     H64631   7.194   5.740   4.007 -1.7179  0.1633  0.7296
  479MOL0     H64632   7.280   5.831   3.888  0.5941  0.1018 -0.2614
  479MOL0     H64633   7.126   5.695   3.718  3.0747  2.6512  0.0568
  479MOL0     H64634   7.050   5.652   3.876  3.7341 -1.6638  1.7475
  479MOL0     H64635   7.099   5.913   3.750  1.2973 -0.0516  1.8447
  479MOL0     H64636   7.031   5.913   3.919 -1.2184  2.8021 -0.9377
  479MOL0     H64637   6.879   5.800   3.678  0.0818  0.7462 -1.0378
  479MOL0     H64638   6.824   5.807   3.837 -2.0655 -0.6589 -2.1690
  479MOL0     H64639   6.877   6.027   3.628 -0.9701 -1.3035 -0.9592
  479MOL0     H64640   6.851   6.092   3.789  4.5648  0.6239 -1.8533
  479MOL0     H64641   6.643   5.988   3.803 -1.7673  1.0294 -1.3422
  479MOL0     H64642   6.650   6.109   3.677 -0.5373 -0.8444 -1.5001
  479MOL0     H64643   6.635   5.809   3.652  1.7502  0.3782  1.1067
  479MOL0     H64644   6.680   5.922   3.519  0.7288  4.2271  1.1672
  479MOL0     H64645   6.450   5.886   3.493 -3.8041 -0.8609  2.7971
  479MOL0     H64646   6.491   6.055   3.533  0.6489 -0.0289 -0.9217
  479MOL0     H64647   7.455   5.430   3.803 -1.2200 -0.3961 -0.0811
  479MOL0     H64648   7.639   5.338   3.938  0.8512 -0.5062  0.9094
  479MOL0     H64649   7.824   5.402   4.544 -2.2814 -0.9766 -1.2610
  479MOL0     H64650   7.971   5.223   4.639  1.0017 -1.5957 -0.1057
  479MOL0     H64651   7.800   6.055   3.622  0.9981 -0.9745 -0.6264
  479MOL0     H64652   7.671   6.239   3.731  1.4813  1.9952  2.5541
  479MOL0     H64653   7.311   6.349   3.986 -1.0282  1.4042 -1.1892
  479MOL0     H64654   7.167   6.512   4.084 -1.8303  3.8391  2.1872
  479MOL0     H64655   7.259   6.639   4.487  1.3515  2.4024  3.8703
  479MOL0     H64656   7.307   6.798   4.423 -0.4355 -0.3457 -0.8448
  479MOL0     H64657   7.014   6.702   4.438  0.5310 -0.8129 -0.0152
  479MOL0     H64658   7.080   6.857   4.398 -0.1498  0.8454  1.7064
  479MOL0     H64659   7.136   6.727   4.660 -0.5967 -1.5436 -2.3464
  479MOL0     H64660   6.990   6.824   4.628 -0.4178  1.8191 -3.0900
  479MOL0     H64661   7.273   6.938   4.599  0.3326 -4.0326 -0.0701
  479MOL0     H64662   7.199   6.962   4.750  4.3903 -1.9534 -0.9237
  479MOL0     H64663   6.968   7.234   4.531 -0.4388  1.9381  3.5326
  479MOL0     H64664   7.468   6.615   4.377 -2.0194  1.9702 -1.1835
  479MOL0     H64665   7.616   6.450   4.285  1.4523  2.1563  0.8764
  480MOL0     O64666   2.270   2.797   9.552  0.4241 -0.1684 -0.3530
  480MOL0     C64667   2.226   2.839   9.443 -1.0548  0.9555 -0.8158
  480MOL0     O64668   2.277   2.803   9.319 -0.3069  0.0588 -0.1334
  480MOL0     C64669   2.379   2.712   9.317 -0.7666 -0.2674  0.1766
  480MOL0     C64670   2.349   2.587   9.283 -0.9692 -0.0271 -0.2919
  480MOL0     C64671   2.449   2.493   9.294  0.3801  0.6550  0.1701
  480MOL0     C64672   2.582   2.523   9.318 -0.4049  0.6975 -0.5222
  480MOL0     O64673   2.675   2.413   9.315  0.4480  0.2135  0.8484
  480MOL0     C64674   2.813   2.457   9.311 -0.3227  0.7330  0.0918
  480MOL0     C64675   2.907   2.339   9.271 -0.5025 -0.7711 -0.6528
  480MOL0     C64676   2.892   2.240   9.391 -0.4459 -0.3988 -0.5493
  480MOL0     C64677   2.958   2.100   9.363  0.7353  0.2004  0.3396
  480MOL0     C64678   2.848   1.992   9.396  0.6798 -0.5921  0.2076
  480MOL0     C64679   2.907   1.855   9.385 -0.0830  0.2653  0.1691
  480MOL0     C64680   2.787   1.751   9.395 -0.1270  0.1391  0.4727
  480MOL0     C64681   2.830   1.605   9.413  0.7314  0.5470  0.9109
  480MOL0     N64682   2.722   1.516   9.442 -0.0832 -0.1508  0.4900
  480MOL0     C64683   2.588   1.532   9.419  0.1756  1.2955  0.3590
  480MOL0     C64684   2.523   1.432   9.488  0.2142  0.3630 -0.1319
  480MOL0     C64685   2.371   1.403   9.493 -0.6949  0.1788 -0.6204
  480MOL0     C64686   2.296   1.475   9.610 -0.4830 -0.3634 -0.2270
  480MOL0     C64687   2.388   1.473   9.740 -0.4409 -0.1869  1.2270
  480MOL0     C64688   2.409   1.328   9.797 -0.3379  0.2781  0.2237
  480MOL0     O64689   2.418   1.347   9.946  0.7503  0.0660 -0.8545
  480MOL0     C64690   2.542   1.372  10.008  1.1001 -0.0874 -0.5024
  480MOL0     C64691   2.664   1.399   9.943  0.1811 -0.5417 -0.6233
  480MOL0     C64692   2.784   1.426  10.014  1.2323 -0.6097  0.0146
  480MOL0     C64693   2.897   1.488   9.941  0.3063 -0.6449  0.6000
  480MOL0     C64694   2.776   1.400  10.155 -0.7639  0.1034 -0.5629
  480MOL0     C64695   2.896   1.420  10.237  0.4444  1.0134 -0.1148
  480MOL0     O64696   2.881   1.487  10.348 -0.3963  0.0450 -0.2007
  480MOL0     C64697   3.001   1.521  10.408  0.5442  0.1383 -0.4224
  480MOL0     C64698   3.037   1.443  10.519  1.2364 -0.2787  0.7550
  480MOL0     C64699   3.131   1.488  10.610  0.7147  0.5598  0.3917
  480MOL0     C64700   3.206   1.605  10.580  0.2819 -0.4185  0.1702
  480MOL0     O64701   3.297   1.642  10.676 -0.0735 -0.5032 -0.5572
  480MOL0     C64702   3.399   1.742  10.653 -0.4572  0.6425 -0.2336
  480MOL0     C64703   3.496   1.746  10.775  0.9181  0.2043  0.4057
  480MOL0     C64704   3.581   1.610  10.776 -0.1324 -0.7812  0.0451
  480MOL0     C64705   3.594   1.557  10.918 -0.7192  0.2893  0.1435
  480MOL0     C64706   3.716   1.461  10.940  0.0946  0.5703 -0.5671
  480MOL0     C64707   3.846   1.535  10.927 -0.4452  0.1972  0.1330
  480MOL0     C64708   3.969   1.450  10.959 -0.2717 -0.1793 -0.1092
  480MOL0     C64709   4.003   1.448  11.110 -0.0362  0.4821 -0.4305
  480MOL0    Cl64710   4.182   1.392  11.122  0.1409  0.3121 -0.2428
  480MOL0     C64711   3.180   1.671  10.465 -1.1895 -0.8272  0.8393
  480MOL0     C64712   3.076   1.634  10.375  0.1167  0.2237 -0.6983
  480MOL0     O64713   3.003   1.376  10.189 -0.0305 -0.2133 -0.3504
  480MOL0     C64714   2.656   1.385  10.222  0.8612 -0.2442  0.1199
  480MOL0     C64715   2.540   1.375  10.154 -0.4319  0.6604  1.6796
  480MOL0     N64716   2.623   1.355   9.552  0.1938  0.4172 -0.7726
  480MOL0     N64717   2.737   1.412   9.526  0.3144  0.5902  0.0541
  480MOL0     C64718   2.615   2.653   9.349 -0.0852  0.8892 -0.3171
  480MOL0     C64719   2.518   2.748   9.346 -0.0501 -0.0972  0.1211
  480MOL0     C64720   2.107   2.922   9.438  0.6435  0.0955 -0.5655
  480MOL0     C64721   2.060   2.988   9.556 -0.3623 -0.5125  0.3724
  480MOL0     C64722   1.948   3.064   9.545  0.3695 -0.3885 -0.1004
  480MOL0     C64723   1.870   3.078   9.428 -0.4593  0.2843  0.0777
  480MOL0     O64724   1.746   3.130   9.416  0.3532 -0.3734  0.5472
  480MOL0     C64725   1.725   3.243   9.487  0.2352 -0.4757 -0.7521
  480MOL0     C64726   1.826   3.356   9.447 -0.1612 -0.4628  0.3928
  480MOL0     C64727   1.755   3.492   9.419 -0.3810  0.1482 -0.1058
  480MOL0     C64728   1.859   3.597   9.406 -0.1116 -0.4149  0.6992
  480MOL0     C64729   1.967   3.563   9.317  0.0010 -0.1318  0.4906
  480MOL0     C64730   2.057   3.539   9.245 -0.3734  0.4116  0.4927
  480MOL0     C64731   1.916   3.010   9.310 -0.5109 -0.1942  0.0364
  480MOL0     C64732   2.036   2.934   9.317  0.3262 -0.2985  0.0750
  480MOL0     H64733   2.248   2.558   9.258 -1.7717 -0.0140  2.5857
  480MOL0     H64734   2.426   2.391   9.264 -0.9417  1.0824 -0.3329
  480MOL0     H64735   2.815   2.543   9.243 -2.1876  1.8256  1.3221
  480MOL0     H64736   2.837   2.499   9.410  2.5894 -1.1881  0.3138
  480MOL0     H64737   2.869   2.294   9.179 -0.9251 -2.0184  0.1141
  480MOL0     H64738   3.011   2.370   9.260 -0.2570  0.6852  3.6270
  480MOL0     H64739   2.951   2.279   9.476 -1.8418 -0.6447  0.5666
  480MOL0     H64740   2.792   2.225   9.432 -0.0721 -0.2540  0.4620
  480MOL0     H64741   3.004   2.088   9.264 -2.0477 -1.7387 -0.8277
  480MOL0     H64742   3.027   2.077   9.445 -2.5702 -0.7866  3.0474
  480MOL0     H64743   2.810   2.009   9.497 -0.4935  0.6671 -0.4235
  480MOL0     H64744   2.769   1.998   9.321  0.0945  0.1075  0.8696
  480MOL0     H64745   2.949   1.844   9.285  0.0968  2.4064 -0.0409
  480MOL0     H64746   2.980   1.842   9.465 -0.2778 -0.1137  0.2857
  480MOL0     H64747   2.719   1.776   9.477  1.4222 -0.6460  2.0424
  480MOL0     H64748   2.738   1.766   9.298  0.7537  0.0284 -0.0009
  480MOL0     H64749   2.900   1.590   9.496  0.4752 -3.1489  0.6520
  480MOL0     H64750   2.883   1.571   9.323  1.1565  1.2466  0.8911
  480MOL0     H64751   2.551   1.613   9.358  0.0423  1.9482  1.3012
  480MOL0     H64752   2.322   1.414   9.396  2.0059 -0.4208 -2.1714
  480MOL0     H64753   2.367   1.296   9.515 -0.4414  0.3329  0.2171
  480MOL0     H64754   2.201   1.426   9.633 -0.3733  0.7561  3.1717
  480MOL0     H64755   2.289   1.579   9.577  0.7746 -0.5922 -1.3226
  480MOL0     H64756   2.332   1.539   9.807 -2.2149 -2.1576  1.7881
  480MOL0     H64757   2.485   1.521   9.724 -0.1683 -0.6322  1.5396
  480MOL0     H64758   2.493   1.275   9.752 -2.2723 -4.6114  1.7505
  480MOL0     H64759   2.322   1.262   9.787 -1.4354  1.7201 -0.1471
  480MOL0     H64760   2.674   1.409   9.835  2.4104  0.6920 -0.3725
  480MOL0     H64761   2.951   1.564   9.997  1.8679 -1.5599  0.3976
  480MOL0     H64762   2.972   1.409   9.927  1.6592  0.4549  1.3967
  480MOL0     H64763   2.870   1.529   9.843  0.6347  1.2977  1.2743
  480MOL0     H64764   2.977   1.354  10.534  0.7225 -0.0910 -0.1505
  480MOL0     H64765   3.160   1.434  10.699 -3.4570 -2.2149  0.3452
  480MOL0     H64766   3.453   1.727  10.560  1.6541  2.2035  0.6682
  480MOL0     H64767   3.347   1.838  10.642  1.0438  1.5713  0.4798
  480MOL0     H64768   3.564   1.831  10.782  1.5400 -0.1847 -0.6641
  480MOL0     H64769   3.424   1.758  10.856  1.4315 -2.1271  1.2710
  480MOL0     H64770   3.675   1.623  10.722  0.2694 -1.0129  0.6687
  480MOL0     H64771   3.531   1.538  10.710 -2.3781 -0.5258  1.3463
  480MOL0     H64772   3.614   1.635  10.991  6.1635 -1.6969  1.1516
  480MOL0     H64773   3.503   1.506  10.951 -1.0473  1.0221  0.3739
  480MOL0     H64774   3.713   1.372  10.876 -2.7589 -0.1751  0.4508
  480MOL0     H64775   3.709   1.413  11.037 -1.7194  0.6763 -0.6143
  480MOL0     H64776   3.865   1.574  10.827 -1.4382  1.6912  0.4997
  480MOL0     H64777   3.856   1.622  10.993  3.2988  1.5335 -1.8506
  480MOL0     H64778   4.050   1.499  10.905 -0.5063  2.4115  1.6808
  480MOL0     H64779   3.950   1.347  10.925 -3.7807 -0.6520  2.6996
  480MOL0     H64780   3.944   1.369  11.157 -1.7975  1.2649 -1.2569
  480MOL0     H64781   3.984   1.540  11.165 -1.2702  1.1626 -1.9165
  480MOL0     H64782   3.244   1.756  10.445 -0.9168 -0.7397  2.0370
  480MOL0     H64783   3.047   1.690  10.287  1.9167  1.6742 -0.4297
  480MOL0     H64784   2.662   1.395  10.330  1.6150 -0.7961  0.1397
  480MOL0     H64785   2.445   1.374  10.206 -1.0988 -1.5921  0.5472
  480MOL0     H64786   2.714   2.675   9.386  0.5772 -0.2484 -1.3172
  480MOL0     H64787   2.547   2.850   9.368  0.5192  0.4270 -2.6623
  480MOL0     H64788   2.117   2.996   9.648 -0.9590  2.1726  0.5913
  480MOL0     H64789   1.933   3.124   9.635  6.7811  2.0716 -0.1584
  480MOL0     H64790   1.620   3.275   9.485  0.0523 -0.6448  1.9110
  480MOL0     H64791   1.732   3.208   9.590  1.0492 -3.5080 -1.7369
  480MOL0     H64792   1.873   3.313   9.357 -0.8280 -0.0253 -0.1760
  480MOL0     H64793   1.907   3.371   9.519 -0.4629 -2.2646  1.1632
  480MOL0     H64794   1.698   3.511   9.510  2.0765 -1.6435  1.9428
  480MOL0     H64795   1.693   3.483   9.329 -2.5298 -1.7557  1.4538
  480MOL0     H64796   1.897   3.630   9.503  2.1028 -0.2404 -0.1807
  480MOL0     H64797   1.819   3.693   9.370  0.0649 -0.2779  0.8684
  480MOL0     H64798   2.146   3.508   9.195 -1.9802 -0.5198 -1.9971
  480MOL0     H64799   1.843   3.016   9.230 -1.6836  0.2372  1.1169
  480MOL0     H64800   2.079   2.884   9.231  0.8976  1.4738 -0.7253
  481MOL0     O64801   8.849  10.499   4.233  0.0439  0.4660  0.0970
  481MOL0     C64802   8.802  10.596   4.295  0.0353 -0.0451  0.5279
  481MOL0     O64803   8.695  10.670   4.258  0.6257  0.4033  0.0156
  481MOL0     C64804   8.628  10.642   4.144 -0.0900  0.2827  0.3477
  481MOL0     C64805   8.576  10.512   4.107 -0.8603 -0.3005 -0.6011
  481MOL0     C64806   8.501  10.494   3.990 -0.6391 -0.2910 -0.5452
  481MOL0     C64807   8.462  10.604   3.909 -0.2936 -0.3165 -0.7397
  481MOL0     O64808   8.400  10.565   3.794  0.8506  0.5738 -0.3355
  481MOL0     C64809   8.314  10.669   3.753  0.4884 -0.3827  0.4867
  481MOL0     C64810   8.230  10.625   3.632  0.4340 -0.2082 -0.7218
  481MOL0     C64811   8.112  10.725   3.591 -0.2529  0.6714  0.6297
  481MOL0     C64812   8.009  10.643   3.508  0.1860 -0.4505 -0.1293
  481MOL0     C64813   8.057  10.613   3.367 -0.4740 -0.0121 -0.5485
  481MOL0     C64814   8.100  10.727   3.274 -0.2886 -0.3747 -0.0881
  481MOL0     C64815   7.983  10.821   3.244  0.0572 -0.4443  0.0528
  481MOL0     C64816   8.004  10.891   3.112  0.2777  0.9657 -0.0016
  481MOL0     N64817   7.883  10.911   3.028  0.5015  0.2251  0.2728
  481MOL0     C64818   7.802  10.809   2.975 -0.1542 -0.3020  0.6106
  481MOL0     C64819   7.717  10.870   2.893  0.6102 -0.6668 -0.2644
  481MOL0     C64820   7.610  10.798   2.820  0.0073  0.3178 -0.0802
  481MOL0     C64821   7.486  10.818   2.909 -0.6977 -0.2692  0.0464
  481MOL0     C64822   7.419  10.957   2.889  0.4758  0.3633  0.2852
  481MOL0     C64823   7.355  10.992   2.748 -0.4098  0.5417 -0.0695
  481MOL0     O64824   7.262  11.112   2.744  0.0815 -0.4063  0.2346
  481MOL0     C64825   7.133  11.095   2.779 -0.2294  0.3080  0.3615
  481MOL0     C64826   7.060  11.214   2.772 -0.9772  0.1453  0.5748
  481MOL0     C64827   6.921  11.219   2.814 -0.8288 -0.4825  0.3412
  481MOL0     C64828   6.861  11.356   2.786  0.2328 -0.4939  0.1718
  481MOL0     C64829   6.853  11.104   2.858 -0.0496  0.6791  0.2037
  481MOL0     C64830   6.707  11.097   2.875 -1.1970 -0.2207  0.1768
  481MOL0     O64831   6.662  11.022   2.983 -0.7539  0.0450  0.2952
  481MOL0     C64832   6.527  11.016   3.019 -0.3069  1.5123 -0.4202
  481MOL0     C64833   6.478  10.901   3.080 -0.0499  0.4324 -0.2465
  481MOL0     C64834   6.346  10.894   3.122 -0.4625 -0.0213  0.1256
  481MOL0     C64835   6.261  10.995   3.099  0.3532  0.1895 -0.5316
  481MOL0     O64836   6.126  10.991   3.123 -0.0308  0.5550 -0.4826
  481MOL0     C64837   6.085  10.914   3.235  0.8116 -0.8091 -0.1929
  481MOL0     C64838   5.940  10.957   3.259 -0.3679  0.6076 -0.5234
  481MOL0     C64839   5.920  11.097   3.311 -0.2894 -0.1363 -0.3316
  481MOL0     C64840   5.778  11.162   3.301 -0.9799 -0.3181 -0.2080
  481MOL0     C64841   5.667  11.078   3.371  0.0702  0.1745 -0.5212
  481MOL0     C64842   5.523  11.122   3.317  0.0955 -0.6253  0.2050
  481MOL0     C64843   5.414  11.062   3.404  0.6563  0.2216  1.5229
  481MOL0     C64844   5.276  11.058   3.332  0.9458  0.7433 -0.6233
  481MOL0    Cl64845   5.161  10.959   3.418  0.3269  0.2181 -0.1785
  481MOL0     C64846   6.306  11.118   3.046 -0.5193  0.4151 -0.5243
  481MOL0     C64847   6.440  11.128   3.005  0.4163 -0.6613  0.8349
  481MOL0     O64848   6.637  11.149   2.784  0.2458 -0.7301 -0.4321
  481MOL0     C64849   6.932  10.985   2.862  0.4491  0.1399 -0.1677
  481MOL0     C64850   7.068  10.979   2.822  1.1638  0.7814 -0.3210
  481MOL0     N64851   7.749  11.000   2.884  0.5309 -0.2449 -0.1131
  481MOL0     N64852   7.846  11.026   2.971 -0.3989 -0.1591 -0.3071
  481MOL0     C64853   8.501  10.730   3.954  0.0802 -0.4350  0.2057
  481MOL0     C64854   8.585  10.747   4.071  0.4688 -0.1210  0.2955
  481MOL0     C64855   8.864  10.636   4.421 -0.1501  0.4359  0.1013
  481MOL0     C64856   8.936  10.547   4.503 -0.8823  0.6148 -0.5357
  481MOL0     C64857   8.986  10.586   4.629  0.0844  0.0717 -0.8245
  481MOL0     C64858   8.983  10.722   4.658 -0.0317 -0.5712 -0.6349
  481MOL0     O64859   9.056  10.761   4.771 -0.1795 -0.1269 -0.1278
  481MOL0     C64860   9.087  10.902   4.799 -0.1483 -0.9923  0.5292
  481MOL0     C64861   9.204  10.918   4.901  0.7426  0.4798  0.9482
  481MOL0     C64862   9.320  10.815   4.870 -0.6002 -0.4737 -0.0427
  481MOL0     C64863   9.421  10.812   4.981  0.1400 -0.2977  0.8577
  481MOL0     C64864   9.451  10.941   5.034  0.4848 -0.3451  0.5145
  481MOL0     C64865   9.472  11.056   5.071 -0.3150 -0.0918 -0.4283
  481MOL0     C64866   8.924  10.814   4.577 -0.0948  0.1644  0.8253
  481MOL0     C64867   8.851  10.770   4.467  0.9086  0.5552  0.9721
  481MOL0     H64868   8.597  10.426   4.169  2.6742  0.2213 -0.8650
  481MOL0     H64869   8.469  10.393   3.967  1.2093 -0.4559 -2.7623
  481MOL0     H64870   8.248  10.705   3.832  0.2038  1.2091 -0.4360
  481MOL0     H64871   8.378  10.755   3.728  1.8140 -0.5228  3.0344
  481MOL0     H64872   8.302  10.603   3.552  0.5026  0.2630 -0.7924
  481MOL0     H64873   8.185  10.530   3.664 -0.7233 -0.0986 -1.9317
  481MOL0     H64874   8.064  10.765   3.681 -2.0056 -2.8044  1.4372
  481MOL0     H64875   8.160  10.796   3.523 -1.2000  0.6461 -0.0967
  481MOL0     H64876   7.996  10.542   3.550 -2.6288  0.1097  0.5527
  481MOL0     H64877   7.917  10.700   3.495  0.9381  2.3637  4.5992
  481MOL0     H64878   8.154  10.562   3.377 -0.3462  0.4424  0.6169
  481MOL0     H64879   7.987  10.548   3.314  3.1716 -1.1080 -4.7046
  481MOL0     H64880   8.186  10.785   3.310 -0.0753 -2.8345  4.0077
  481MOL0     H64881   8.124  10.680   3.178 -1.2713  6.9188 -4.7164
  481MOL0     H64882   7.890  10.763   3.245  0.8156 -1.7374 -0.7832
  481MOL0     H64883   7.971  10.889   3.329 -1.3826 -2.5810  1.6887
  481MOL0     H64884   8.069  10.829   3.050 -2.9622  0.0815 -2.7803
  481MOL0     H64885   8.058  10.985   3.130 -0.3374  1.8547 -2.4178
  481MOL0     H64886   7.800  10.705   3.007  0.8186 -0.5035  0.0676
  481MOL0     H64887   7.600  10.843   2.721 -0.4216  0.2778 -0.0550
  481MOL0     H64888   7.623  10.691   2.798  1.4305  1.0596 -3.4699
  481MOL0     H64889   7.516  10.810   3.014 -0.3652 -0.4434 -0.0577
  481MOL0     H64890   7.416  10.735   2.896 -0.9856  0.2310 -1.8301
  481MOL0     H64891   7.492  11.030   2.923  2.8891 -1.9460  0.4132
  481MOL0     H64892   7.336  10.977   2.957 -0.4757  1.3487 -1.1115
  481MOL0     H64893   7.313  10.902   2.702  3.0697 -0.9207 -0.7188
  481MOL0     H64894   7.433  11.013   2.675 -2.6199 -0.5360 -2.9502
  481MOL0     H64895   7.106  11.306   2.739 -0.0159  0.3597  2.3710
  481MOL0     H64896   6.826  11.372   2.684 -0.3091 -0.5397  0.3492
  481MOL0     H64897   6.776  11.372   2.853 -0.8034 -2.0330 -0.7133
  481MOL0     H64898   6.940  11.431   2.797  0.5193 -0.3512 -2.2448
  481MOL0     H64899   6.549  10.820   3.091 -1.3872 -0.5336  2.1114
  481MOL0     H64900   6.309  10.799   3.159 -1.2138  0.0111 -0.5163
  481MOL0     H64901   6.083  10.807   3.215  0.7546 -0.6450 -1.1239
  481MOL0     H64902   6.155  10.932   3.317  1.0747  0.9022 -0.7407
  481MOL0     H64903   5.876  10.942   3.172  0.0950 -0.7367 -0.6524
  481MOL0     H64904   5.911  10.886   3.337 -3.8425  2.9430  0.5480
  481MOL0     H64905   5.995  11.158   3.259 -0.2989  1.0327  0.9619
  481MOL0     H64906   5.957  11.101   3.414 -2.8678 -0.4636  0.6813
  481MOL0     H64907   5.788  11.258   3.351 -2.4326 -0.9489  1.3857
  481MOL0     H64908   5.752  11.181   3.196 -0.6033  2.6001  0.1479
  481MOL0     H64909   5.668  11.068   3.480  0.6957 -1.5587 -0.6606
  481MOL0     H64910   5.682  10.974   3.340 -1.4653 -0.6643  1.3070
  481MOL0     H64911   5.520  11.232   3.319 -0.3207 -0.5629 -1.8455
  481MOL0     H64912   5.515  11.085   3.215  1.5209 -0.0833 -0.1295
  481MOL0     H64913   5.414  11.111   3.502 -0.2990 -0.5657  1.9261
  481MOL0     H64914   5.438  10.956   3.419  1.0686  0.3184  1.5765
  481MOL0     H64915   5.294  11.012   3.234 -2.0196  0.7849 -1.2774
  481MOL0     H64916   5.247  11.164   3.329  2.5101  1.3464  2.1954
  481MOL0     H64917   6.235  11.199   3.036  1.1049  1.8705 -0.9381
  481MOL0     H64918   6.485  11.220   2.970  0.6458 -0.7250  0.9643
  481MOL0     H64919   6.894  10.893   2.905 -0.2343  0.4818 -0.0183
  481MOL0     H64920   7.122  10.885   2.826 -3.2616 -2.1263 -1.1426
  481MOL0     H64921   8.468  10.823   3.910  1.1030  1.2682  2.8592
  481MOL0     H64922   8.609  10.847   4.106 -1.3504 -0.0671  1.5514
  481MOL0     H64923   8.937  10.442   4.474 -4.4207  0.3384 -0.0753
  481MOL0     H64924   9.025  10.512   4.699 -3.8647  1.7958  3.7680
  481MOL0     H64925   9.115  10.955   4.707  1.6113 -1.1968  0.9145
  481MOL0     H64926   9.001  10.951   4.846  1.2070  0.8291  1.1927
  481MOL0     H64927   9.176  10.900   5.005  0.9363 -1.4745  0.6941
  481MOL0     H64928   9.236  11.022   4.895 -1.5370  1.1736 -1.1478
  481MOL0     H64929   9.365  10.844   4.775  1.5701  1.4224  1.4481
  481MOL0     H64930   9.282  10.713   4.869  1.0943 -1.1492  0.9193
  481MOL0     H64931   9.509  10.759   4.942 -0.4370 -2.8677  2.7497
  481MOL0     H64932   9.383  10.751   5.063 -3.8062  1.1983  0.3332
  481MOL0     H64933   9.480  11.137   5.141 -0.3952 -1.3260  1.0584
  481MOL0     H64934   8.914  10.918   4.605  2.0439 -0.2128  3.2979
  481MOL0     H64935   8.796  10.844   4.410 -0.5149  0.2555  1.9164
  482MOL0     O64936   5.162   2.231   0.680  0.0516  0.1657 -0.5039
  482MOL0     C64937   5.238   2.296   0.604  0.5549 -0.1427 -1.1111
  482MOL0     O64938   5.201   2.416   0.535 -0.2163  0.6502  0.3861
  482MOL0     C64939   5.070   2.457   0.555  0.7536 -0.0594 -0.1789
  482MOL0     C64940   5.040   2.550   0.661 -0.1245  0.0667 -0.7892
  482MOL0     C64941   4.912   2.622   0.654 -0.5959  0.2289 -0.5548
  482MOL0     C64942   4.815   2.589   0.558 -0.0292 -0.4702 -0.3322
  482MOL0     O64943   4.698   2.663   0.572  0.4765  0.2735  0.1458
  482MOL0     C64944   4.585   2.635   0.488  0.0405  0.0491 -0.6860
  482MOL0     C64945   4.458   2.695   0.558 -0.8720 -0.5982 -0.4882
  482MOL0     C64946   4.333   2.637   0.498 -0.0406 -0.5609 -0.3089
  482MOL0     C64947   4.205   2.719   0.536 -0.4939  0.2061 -0.9063
  482MOL0     C64948   4.072   2.644   0.497 -0.0365  0.1322  0.3812
  482MOL0     C64949   4.056   2.508   0.572 -0.3772 -0.3545  0.4670
  482MOL0     C64950   3.926   2.441   0.574 -0.6907  0.5660 -0.6054
  482MOL0     C64951   3.887   2.377   0.438 -0.6595  0.9279  0.3194
  482MOL0     N64952   3.741   2.349   0.432 -0.7009  0.5997 -0.5996
  482MOL0     C64953   3.668   2.273   0.522  0.4534 -1.1518 -0.7496
  482MOL0     C64954   3.565   2.221   0.456 -0.1741 -1.2329 -0.4330
  482MOL0     C64955   3.469   2.115   0.508  0.1686 -0.0955 -0.1980
  482MOL0     C64956   3.336   2.170   0.575  0.1266  0.0539  0.1868
  482MOL0     C64957   3.256   2.259   0.479  0.2280  0.4975 -1.0442
  482MOL0     C64958   3.138   2.330   0.555  1.0636 -0.8977  0.1470
  482MOL0     O64959   3.008   2.260   0.541 -0.7535 -0.5779  0.5287
  482MOL0     C64960   2.905   2.332   0.503  0.0586  0.0407 -0.5417
  482MOL0     C64961   2.827   2.376   0.608  0.1984 -0.3089 -0.2007
  482MOL0     C64962   2.713   2.452   0.584  0.9068  0.9219  0.8332
  482MOL0     C64963   2.638   2.492   0.704  0.5963  0.4133 -0.3195
  482MOL0     C64964   2.686   2.489   0.446  0.4727 -0.2100  0.0683
  482MOL0     C64965   2.572   2.570   0.406 -0.4022  0.5770 -0.5081
  482MOL0     O64966   2.507   2.635   0.506  0.6983 -0.1849 -0.1268
  482MOL0     C64967   2.374   2.662   0.488 -1.2237 -0.1416  0.0061
  482MOL0     C64968   2.277   2.575   0.548 -0.7972  0.1018  0.1214
  482MOL0     C64969   2.142   2.606   0.534  0.2785  0.0836 -0.1800
  482MOL0     C64970   2.106   2.697   0.448 -0.4174 -0.0952  0.2192
  482MOL0     O64971   1.973   2.717   0.428 -0.4953  0.2056  0.0034
  482MOL0     C64972   1.893   2.598   0.388 -0.1781 -0.6182 -0.0023
  482MOL0     C64973   1.780   2.669   0.317 -0.5079 -0.5130 -0.0679
  482MOL0     C64974   1.676   2.570   0.272  0.1398 -0.5249  0.5317
  482MOL0     C64975   1.608   2.638   0.147 -0.0614  0.4382 -0.3742
  482MOL0     C64976   1.559   2.793   0.158 -0.3875  0.4693 -0.0859
  482MOL0     C64977   1.459   2.828   0.046  0.0046  0.8396 -0.6269
  482MOL0     C64978   1.405   2.963   0.073 -0.1286  0.2735  0.0057
  482MOL0     C64979   1.270   2.972   0.001 -0.5229 -0.6691  0.3277
  482MOL0    Cl64980   1.229   3.148  -0.033  0.7818  0.0834 -0.2080
  482MOL0     C64981   2.199   2.775   0.378 -0.0609  0.3635 -0.3085
  482MOL0     C64982   2.334   2.761   0.398  0.7096 -0.3001  0.2971
  482MOL0     O64983   2.535   2.574   0.287  0.1143 -0.0780 -0.3310
  482MOL0     C64984   2.768   2.439   0.339  1.1134  0.0036 -0.4589
  482MOL0     C64985   2.871   2.349   0.370 -0.8920 -0.2238 -0.5585
  482MOL0     N64986   3.574   2.267   0.332  0.5262  0.7988  0.8338
  482MOL0     N64987   3.683   2.329   0.312  0.2680 -0.6124 -0.0298
  482MOL0     C64988   4.837   2.490   0.467  0.2551  0.2563  0.1256
  482MOL0     C64989   4.959   2.419   0.469  0.0480  0.0203 -0.2187
  482MOL0     C64990   5.380   2.268   0.592 -0.3134  0.1447  0.3119
  482MOL0     C64991   5.448   2.320   0.475 -0.0942  0.5056  0.3680
  482MOL0     C64992   5.586   2.298   0.479  0.6476 -0.5542  0.6757
  482MOL0     C64993   5.654   2.234   0.577 -0.8205 -0.2652  0.2307
  482MOL0     O64994   5.791   2.226   0.592  0.0040  0.3739 -0.1000
  482MOL0     C64995   5.879   2.279   0.488 -0.2242 -0.8660  0.5631
  482MOL0     C64996   5.899   2.185   0.359 -0.6731 -0.1259  0.2292
  482MOL0     C64997   5.965   2.044   0.405 -0.1061  0.3924  0.3042
  482MOL0     C64998   6.018   1.962   0.283  0.3881  0.7205  0.1607
  482MOL0     C64999   6.127   2.022   0.213  0.1832 -0.1621 -0.9859
  482MOL0     C65000   6.224   2.062   0.152 -0.0632 -0.2425 -0.2942
  482MOL0     C65001   5.582   2.175   0.677 -0.5659  0.0605 -0.0457
  482MOL0     C65002   5.448   2.193   0.691 -0.3717 -0.3080  0.6412
  482MOL0     H65003   5.105   2.588   0.738 -2.5111  0.7657  0.9983
  482MOL0     H65004   4.894   2.701   0.726 -1.0492  2.0006 -2.4795
  482MOL0     H65005   4.606   2.686   0.394  0.4518  2.0184  0.4011
  482MOL0     H65006   4.577   2.528   0.465 -0.2008  0.0713 -0.7114
  482MOL0     H65007   4.455   2.652   0.659  2.6443  0.8256  0.3763
  482MOL0     H65008   4.462   2.804   0.565  3.1213 -0.3650 -3.1687
  482MOL0     H65009   4.340   2.627   0.389 -2.0956 -1.7352 -0.3936
  482MOL0     H65010   4.334   2.533   0.533 -0.7267 -0.2860  0.5557
  482MOL0     H65011   4.211   2.724   0.645 -0.3515 -1.5463 -0.8121
  482MOL0     H65012   4.208   2.817   0.488  0.5740  1.1814  1.0325
  482MOL0     H65013   3.983   2.704   0.520  0.0748  0.3219  0.3088
  482MOL0     H65014   4.071   2.624   0.389 -0.7714  3.0529 -0.2322
  482MOL0     H65015   4.126   2.440   0.522  1.1827  1.7314 -0.3546
  482MOL0     H65016   4.096   2.511   0.674  1.0809  1.3592 -0.0992
  482MOL0     H65017   3.921   2.361   0.649 -2.5623 -2.4033 -3.6056
  482MOL0     H65018   3.848   2.514   0.602  1.0757  1.7664  1.5087
  482MOL0     H65019   3.948   2.288   0.421 -2.2554 -0.0747 -0.4609
  482MOL0     H65020   3.919   2.424   0.345 -2.7257 -0.7348 -1.3303
  482MOL0     H65021   3.708   2.248   0.620 -0.1894 -0.7775 -0.3939
  482MOL0     H65022   3.445   2.058   0.418  1.4995  0.7242 -1.1091
  482MOL0     H65023   3.515   2.032   0.563  1.7735  2.1169  2.0479
  482MOL0     H65024   3.372   2.226   0.662  2.8532 -0.7622 -0.3093
  482MOL0     H65025   3.285   2.079   0.608 -1.2494  0.7167 -0.0442
  482MOL0     H65026   3.212   2.193   0.404  0.4001 -4.0772  2.4008
  482MOL0     H65027   3.328   2.334   0.444  2.3645 -1.9097 -2.0918
  482MOL0     H65028   3.133   2.435   0.527  1.7315 -0.2735  2.1930
  482MOL0     H65029   3.150   2.334   0.664  1.5599  0.3151  0.0589
  482MOL0     H65030   2.855   2.345   0.708  1.6608 -0.3201 -0.5869
  482MOL0     H65031   2.650   2.598   0.727 -0.8046  0.8282 -1.3997
  482MOL0     H65032   2.534   2.465   0.685  0.8556  0.2887 -1.6395
  482MOL0     H65033   2.680   2.436   0.789 -2.2691 -2.5838 -0.7125
  482MOL0     H65034   2.301   2.485   0.603 -1.1872  0.8933  1.6507
  482MOL0     H65035   2.066   2.542   0.578 -1.7168  2.4529  0.0561
  482MOL0     H65036   1.938   2.525   0.320 -0.8718 -1.4706  0.4358
  482MOL0     H65037   1.870   2.542   0.480 -0.8250 -1.2167 -0.5205
  482MOL0     H65038   1.732   2.744   0.379 -1.9045 -0.0089 -1.6898
  482MOL0     H65039   1.814   2.726   0.230  1.6907 -1.1388  0.3160
  482MOL0     H65040   1.593   2.568   0.343 -1.8342  0.8850 -1.5855
  482MOL0     H65041   1.709   2.467   0.254 -0.9093 -0.9704  1.0836
  482MOL0     H65042   1.671   2.618   0.060  1.6083  0.6099  0.7328
  482MOL0     H65043   1.512   2.588   0.134  0.0933  0.0430 -0.0084
  482MOL0     H65044   1.651   2.853   0.161  2.8838 -3.9894 -0.7763
  482MOL0     H65045   1.502   2.804   0.251 -4.1756  0.0292 -2.1567
  482MOL0     H65046   1.516   2.830  -0.048  2.3537  0.0929  0.6867
  482MOL0     H65047   1.385   2.749   0.034  0.7723  0.3872 -2.8454
  482MOL0     H65048   1.458   3.047   0.026  1.8799 -0.9351  0.0191
  482MOL0     H65049   1.407   2.976   0.182 -1.8859 -1.6953  0.3349
  482MOL0     H65050   1.202   2.922   0.071 -1.0147  0.5782  0.7778
  482MOL0     H65051   1.266   2.918  -0.094  0.7648  0.3086 -0.3253
  482MOL0     H65052   2.167   2.844   0.300  2.7557 -0.3232 -2.2227
  482MOL0     H65053   2.403   2.827   0.346 -0.2655  0.9217  0.4906
  482MOL0     H65054   2.747   2.459   0.234  2.2057  0.1653 -0.6558
  482MOL0     H65055   2.936   2.306   0.294  0.8231  2.8247 -0.9751
  482MOL0     H65056   4.760   2.465   0.395  0.1782  1.6361 -0.2925
  482MOL0     H65057   4.974   2.344   0.391 -0.0856 -0.1176 -0.1126
  482MOL0     H65058   5.397   2.372   0.394 -1.3294  0.9705  1.4169
  482MOL0     H65059   5.642   2.345   0.398 -1.0568  2.3686  1.0799
  482MOL0     H65060   5.856   2.379   0.450  0.9283 -0.1703  1.6244
  482MOL0     H65061   5.976   2.285   0.538  0.0747 -2.0571  0.1370
  482MOL0     H65062   5.968   2.236   0.291 -1.3917 -0.7844 -1.0108
  482MOL0     H65063   5.805   2.153   0.315 -0.0088  0.1915 -1.4946
  482MOL0     H65064   5.885   1.987   0.452  0.8196 -2.2246 -1.0765
  482MOL0     H65065   6.040   2.056   0.484  0.6097 -4.2067  0.6057
  482MOL0     H65066   5.942   1.940   0.208 -0.6582  1.4342  0.9824
  482MOL0     H65067   6.046   1.862   0.317 -1.7729 -0.2781 -0.8051
  482MOL0     H65068   6.311   2.097   0.099 -0.0583 -0.4086 -0.4002
  482MOL0     H65069   5.646   2.130   0.753  0.4105  0.0004 -0.8860
  482MOL0     H65070   5.383   2.156   0.769 -1.1942  0.9140  0.5527
  483MOL0     O65071   0.277   3.507   2.971 -0.2614 -0.7125  0.0547
  483MOL0     C65072   0.372   3.537   3.050 -0.5734 -0.4186  0.4616
  483MOL0     O65073   0.359   3.532   3.181 -0.2866  0.1621  0.4048
  483MOL0     C65074   0.239   3.512   3.237 -0.4369  0.8795  0.5153
  483MOL0     C65075   0.175   3.385   3.214 -0.4790 -0.3790  0.1548
  483MOL0     C65076   0.055   3.354   3.266  0.2655  0.0895  0.3520
  483MOL0     C65077  -0.016   3.452   3.341 -0.6913  0.8289 -0.4291
  483MOL0     O65078  -0.147   3.438   3.397 -0.1959 -1.0099 -0.7880
  483MOL0     C65079  -0.197   3.307   3.429  0.0292  0.5997 -0.7179
  483MOL0     C65080  -0.326   3.304   3.499  0.2520 -0.2876  0.3804
  483MOL0     C65081  -0.456   3.310   3.412 -0.7333  0.0519  0.8394
  483MOL0     C65082  -0.581   3.323   3.492  0.2821 -0.2261  0.1968
  483MOL0     C65083  -0.693   3.377   3.406  0.0639  0.0386 -0.0430
  483MOL0     C65084  -0.813   3.392   3.491 -0.5175 -0.1112 -0.0878
  483MOL0     C65085  -0.932   3.477   3.431  0.3611 -0.6949  0.7447
  483MOL0     C65086  -1.020   3.385   3.338 -0.0276 -0.0732 -0.6843
  483MOL0     N65087  -1.134   3.450   3.289  0.3063 -0.8342  0.4086
  483MOL0     C65088  -1.137   3.557   3.200 -0.1455 -0.1828 -0.4993
  483MOL0     C65089  -1.268   3.572   3.180  0.3375  0.3115  0.0517
  483MOL0     C65090  -1.339   3.686   3.113 -0.6010 -0.0167  0.1470
  483MOL0     C65091  -1.310   3.683   2.965 -0.3356  0.0686 -0.3467
  483MOL0     C65092  -1.439   3.689   2.891  0.4644  0.4954 -0.4364
  483MOL0     C65093  -1.535   3.561   2.897  0.8023 -0.4040  0.1890
  483MOL0     O65094  -1.651   3.614   2.830 -0.4749  0.6267 -0.3332
  483MOL0     C65095  -1.750   3.518   2.787 -0.2580  0.1339 -0.0179
  483MOL0     C65096  -1.731   3.391   2.719 -0.0080  0.2658 -1.0868
  483MOL0     C65097  -1.839   3.307   2.697  1.0081  0.9450  0.6198
  483MOL0     C65098  -1.796   3.174   2.639  0.1207 -0.5894 -0.2525
  483MOL0     C65099  -1.971   3.342   2.724  0.1302  0.3339 -0.4707
  483MOL0     C65100  -2.089   3.261   2.692  0.5588 -0.1195 -0.5525
  483MOL0     O65101  -2.080   3.128   2.670  0.0893 -0.2595 -0.0819
  483MOL0     C65102  -2.197   3.070   2.651  0.0240  0.6172 -0.1102
  483MOL0     C65103  -2.277   3.034   2.760 -0.5416  0.5349 -0.0926
  483MOL0     C65104  -2.393   2.959   2.738  0.0675 -0.0571  0.0058
  483MOL0     C65105  -2.425   2.911   2.611 -0.3316 -0.3069  0.0460
  483MOL0     O65106  -2.546   2.852   2.580  0.3116 -0.5727  0.1404
  483MOL0     C65107  -2.647   2.829   2.677 -0.9079 -0.2789  0.3485
  483MOL0     C65108  -2.778   2.828   2.598 -0.8479 -0.4084  0.4912
  483MOL0     C65109  -2.827   2.970   2.581 -0.2068 -0.4758  0.7111
  483MOL0     C65110  -2.966   2.973   2.515  0.1437 -0.0093 -0.4238
  483MOL0     C65111  -3.020   3.117   2.505  0.1456  0.3187 -0.7748
  483MOL0     C65112  -3.164   3.104   2.469  0.1693 -0.2727  0.1480
  483MOL0     C65113  -3.263   3.095   2.591  0.6579 -0.0048  1.3510
  483MOL0     C65114  -3.412   3.078   2.537  0.9593 -0.9315 -0.5873
  483MOL0    Cl65115  -3.508   2.999   2.669 -0.2396  0.2738 -0.1312
  483MOL0     C65116  -2.340   2.945   2.504  0.4228  0.3484 -0.9164
  483MOL0     C65117  -2.231   3.021   2.526  0.2712  0.0746 -0.2900
  483MOL0     O65118  -2.202   3.321   2.697 -0.0961 -0.1382 -0.6236
  483MOL0     C65119  -1.990   3.469   2.782 -0.4526  0.1051  0.0393
  483MOL0     C65120  -1.882   3.560   2.806  0.4184  0.7664 -0.2726
  483MOL0     N65121  -1.351   3.492   3.256 -0.7306 -0.0626 -0.7785
  483MOL0     N65122  -1.264   3.422   3.326  0.5171  1.0201  0.3290
  483MOL0     C65123   0.051   3.581   3.367 -0.0983 -0.3739  0.4233
  483MOL0     C65124   0.183   3.606   3.321  0.8475  0.0850 -0.3456
  483MOL0     C65125   0.503   3.552   2.991  0.4370  0.1741 -0.4762
  483MOL0     C65126   0.607   3.568   3.079 -0.3267 -1.3299 -0.2215
  483MOL0     C65127   0.737   3.604   3.032  0.5679  0.3946 -1.3031
  483MOL0     C65128   0.745   3.642   2.900  0.2416  0.1374 -0.8152
  483MOL0     O65129   0.859   3.686   2.846 -0.0478 -0.3170 -0.6004
  483MOL0     C65130   0.875   3.825   2.866  0.2179  0.2719  0.4205
  483MOL0     C65131   0.992   3.876   2.777  0.1235 -0.3917  0.4444
  483MOL0     C65132   0.969   3.846   2.627  1.0910  0.3253  0.2582
  483MOL0     C65133   1.080   3.897   2.529  0.1019 -0.5425 -0.9037
  483MOL0     C65134   1.126   4.042   2.545 -1.1492  1.1895 -0.3164
  483MOL0     C65135   1.159   4.151   2.517  0.4620  0.2365 -0.3703
  483MOL0     C65136   0.640   3.622   2.809  0.4886  0.0890  0.5234
  483MOL0     C65137   0.512   3.574   2.849 -0.3768 -0.0217  0.1940
  483MOL0     H65138   0.222   3.312   3.149 -0.8999  0.3121 -0.9557
  483MOL0     H65139   0.016   3.257   3.234 -0.3494  0.6375 -0.6158
  483MOL0     H65140  -0.215   3.244   3.341  3.5410 -1.4369 -0.1627
  483MOL0     H65141  -0.126   3.258   3.496 -1.8710 -1.0091  0.2171
  483MOL0     H65142  -0.338   3.223   3.573  0.6841  1.8151  2.8916
  483MOL0     H65143  -0.326   3.392   3.564  2.0708  0.5014 -0.6229
  483MOL0     H65144  -0.447   3.402   3.353  1.5345 -0.8664 -0.3689
  483MOL0     H65145  -0.460   3.224   3.344 -2.9214  0.6574  0.1300
  483MOL0     H65146  -0.611   3.226   3.535 -4.9242  0.2551 -1.6069
  483MOL0     H65147  -0.576   3.392   3.576 -2.4831  1.5652 -0.9776
  483MOL0     H65148  -0.653   3.466   3.357  0.2250  1.2445  2.1614
  483MOL0     H65149  -0.720   3.305   3.328 -0.6838  0.7146 -0.4138
  483MOL0     H65150  -0.839   3.299   3.542 -1.1308  0.1872  0.1671
  483MOL0     H65151  -0.784   3.453   3.578 -1.2092  0.0543  0.0352
  483MOL0     H65152  -0.989   3.513   3.517  2.3946  2.4933  0.9065
  483MOL0     H65153  -0.892   3.566   3.380  2.0590 -2.1864 -0.6791
  483MOL0     H65154  -1.052   3.296   3.394  0.4591 -0.3184 -0.7915
  483MOL0     H65155  -0.968   3.351   3.248 -0.0355  1.1190 -1.1515
  483MOL0     H65156  -1.047   3.607   3.165  1.9476 -1.4952  2.5956
  483MOL0     H65157  -1.446   3.686   3.135 -0.2406 -1.2545  2.1783
  483MOL0     H65158  -1.296   3.778   3.154  0.5140 -1.0173  1.3179
  483MOL0     H65159  -1.256   3.593   2.934 -0.6369 -0.2077 -0.0918
  483MOL0     H65160  -1.250   3.767   2.929 -0.4622 -0.4770 -1.9104
  483MOL0     H65161  -1.419   3.699   2.783 -1.2933 -1.4598 -1.0117
  483MOL0     H65162  -1.506   3.769   2.923 -2.8059 -1.6783 -1.3225
  483MOL0     H65163  -1.562   3.542   3.002  1.2885 -2.5395 -0.0368
  483MOL0     H65164  -1.478   3.480   2.851 -3.0327 -1.0457 -4.1468
  483MOL0     H65165  -1.629   3.364   2.694 -0.7543 -1.5923 -2.3765
  483MOL0     H65166  -1.774   3.104   2.720 -0.3559 -2.4628 -1.6608
  483MOL0     H65167  -1.866   3.142   2.562  0.7254  0.0989 -1.1094
  483MOL0     H65168  -1.698   3.181   2.591  0.3671 -0.8366  0.2044
  483MOL0     H65169  -2.249   3.069   2.859 -2.5269 -0.7355  0.9848
  483MOL0     H65170  -2.453   2.950   2.828  0.1541  0.5833  0.1367
  483MOL0     H65171  -2.642   2.735   2.732 -1.2581  0.7682  2.2430
  483MOL0     H65172  -2.654   2.904   2.756  0.4509  1.6722 -1.2940
  483MOL0     H65173  -2.763   2.765   2.510 -1.2797 -0.8230  0.7158
  483MOL0     H65174  -2.855   2.773   2.652  0.3381 -4.0699 -1.2539
  483MOL0     H65175  -2.763   3.038   2.524 -0.0516 -2.0060 -1.0761
  483MOL0     H65176  -2.832   3.022   2.677 -3.4299 -1.8309  1.4164
  483MOL0     H65177  -2.956   2.933   2.414  0.1214  0.5716 -0.6580
  483MOL0     H65178  -3.037   2.905   2.563  1.1354 -1.1523 -0.5396
  483MOL0     H65179  -2.967   3.175   2.430  0.2112 -0.4979 -1.3802
  483MOL0     H65180  -3.011   3.166   2.602  1.9449 -1.4197  0.0080
  483MOL0     H65181  -3.176   3.200   2.419 -1.3744  0.6682  2.1679
  483MOL0     H65182  -3.165   3.025   2.394 -2.6186  1.5931 -1.9508
  483MOL0     H65183  -3.256   3.178   2.661  0.7248 -0.1656  1.5385
  483MOL0     H65184  -3.237   3.007   2.651  0.4054 -0.3345  0.9853
  483MOL0     H65185  -3.414   3.012   2.450  0.0277 -0.8475 -0.6367
  483MOL0     H65186  -3.458   3.175   2.516  0.6158 -1.3355 -1.7372
  483MOL0     H65187  -2.369   2.905   2.407 -1.0119 -0.9276 -0.0042
  483MOL0     H65188  -2.147   3.036   2.459  2.6502  0.0201  2.4688
  483MOL0     H65189  -2.085   3.512   2.813 -0.8414 -0.4671 -0.3301
  483MOL0     H65190  -1.895   3.660   2.847  0.5398  1.4605 -1.8570
  483MOL0     H65191  -0.014   3.653   3.416  0.8803 -1.2466  3.1925
  483MOL0     H65192   0.234   3.702   3.324  0.1510  0.5624 -2.1961
  483MOL0     H65193   0.597   3.543   3.184  2.0642 -0.8968  0.1793
  483MOL0     H65194   0.820   3.599   3.101 -0.1574 -3.0721 -0.5342
  483MOL0     H65195   0.791   3.884   2.829 -0.2780 -0.1201  0.8995
  483MOL0     H65196   0.902   3.829   2.972 -0.6174  0.7505  0.6256
  483MOL0     H65197   1.083   3.835   2.822  2.1088  3.4843  0.4053
  483MOL0     H65198   1.009   3.984   2.783 -0.6802 -0.2219 -0.2346
  483MOL0     H65199   0.882   3.903   2.591  1.1906 -0.1821 -0.8284
  483MOL0     H65200   0.948   3.741   2.605  2.0485 -0.1369  1.4221
  483MOL0     H65201   1.048   3.875   2.427 -1.7941 -3.1919  0.1418
  483MOL0     H65202   1.171   3.841   2.554  0.5449  0.8271  0.7271
  483MOL0     H65203   1.188   4.253   2.506  3.1706 -0.6339 -2.3963
  483MOL0     H65204   0.658   3.644   2.704 -3.0569 -1.6262 -0.6251
  483MOL0     H65205   0.424   3.584   2.786 -0.7280 -0.4252  0.6171
  484MOL0     O65206   9.133   4.272   1.567  0.2876  0.5804  0.6674
  484MOL0     C65207   9.140   4.389   1.546 -0.0324  0.0347 -1.2471
  484MOL0     O65208   9.036   4.476   1.534 -0.3870  0.0389  1.1093
  484MOL0     C65209   8.908   4.428   1.557 -0.1259  0.4874  0.0663
  484MOL0     C65210   8.796   4.472   1.472  0.1502  0.0402  0.5952
  484MOL0     C65211   8.671   4.426   1.512  0.1193 -1.0011  0.5251
  484MOL0     C65212   8.651   4.331   1.608 -0.1985 -0.4647  0.7214
  484MOL0     O65213   8.517   4.286   1.632 -0.6346  0.5932 -0.1814
  484MOL0     C65214   8.488   4.154   1.700 -0.2357 -0.1747  0.1541
  484MOL0     C65215   8.345   4.140   1.681  0.0709 -0.1968 -0.9272
  484MOL0     C65216   8.240   4.222   1.764 -0.0155  0.3562 -0.0285
  484MOL0     C65217   8.102   4.170   1.719  0.5130  0.5038 -0.4546
  484MOL0     C65218   7.989   4.206   1.811 -0.1345  0.4171 -0.1326
  484MOL0     C65219   7.991   4.353   1.852 -0.1650 -1.1158  0.0816
  484MOL0     C65220   7.984   4.457   1.733 -0.1378 -0.5605  1.5574
  484MOL0     C65221   8.005   4.602   1.767 -0.0413  0.1720  0.0865
  484MOL0     N65222   7.917   4.656   1.871  1.0043 -0.9692 -0.3962
  484MOL0     C65223   7.887   4.616   1.998 -0.5057 -0.0522  0.2955
  484MOL0     C65224   7.794   4.697   2.046 -0.1948 -0.6941 -0.0504
  484MOL0     C65225   7.740   4.672   2.193  0.2066 -0.5461 -0.1732
  484MOL0     C65226   7.605   4.745   2.220 -0.2892 -0.3558 -0.2904
  484MOL0     C65227   7.537   4.698   2.346 -0.1533  0.4159  0.1921
  484MOL0     C65228   7.409   4.777   2.387 -0.2234 -0.1906 -0.1142
  484MOL0     O65229   7.315   4.794   2.278  0.2899 -0.2918  0.2443
  484MOL0     C65230   7.189   4.842   2.304  0.3589 -0.2626  0.6229
  484MOL0     C65231   7.108   4.758   2.382  0.2328  0.4223 -0.2582
  484MOL0     C65232   6.971   4.788   2.403 -0.3462  0.9687 -0.3882
  484MOL0     C65233   6.899   4.692   2.504  0.5040  0.3335  0.4644
  484MOL0     C65234   6.924   4.913   2.347  0.1106 -0.1626  0.3999
  484MOL0     C65235   6.795   4.963   2.366 -0.0300  0.8361  0.8824
  484MOL0     O65236   6.713   4.920   2.266  0.1089  0.4188 -0.2059
  484MOL0     C65237   6.581   4.946   2.255  0.6265  0.4905 -0.5675
  484MOL0     C65238   6.535   4.933   2.125  0.8069  0.0948  0.1120
  484MOL0     C65239   6.398   4.948   2.095 -0.7197  0.7622  0.0588
  484MOL0     C65240   6.313   5.002   2.187  0.7472 -0.0019 -0.1978
  484MOL0     O65241   6.185   5.036   2.142  0.4116  0.1795  0.5242
  484MOL0     C65242   6.083   5.088   2.225  0.0038  0.3674 -0.2389
  484MOL0     C65243   5.958   5.145   2.154 -0.4584  0.2003 -0.0477
  484MOL0     C65244   5.907   5.042   2.053  0.0573  0.4841  0.2878
  484MOL0     C65245   5.758   5.060   2.002  0.2477 -0.1870  0.6405
  484MOL0     C65246   5.659   4.996   2.095  0.6693  0.1070 -0.1897
  484MOL0     C65247   5.522   4.964   2.039  1.1063 -0.2903  0.2606
  484MOL0     C65248   5.427   4.917   2.147  0.4046 -0.3555 -0.4556
  484MOL0     C65249   5.295   4.893   2.080  0.4121 -0.7393  0.2066
  484MOL0    Cl65250   5.171   4.910   2.206 -0.5032 -0.4592 -0.1853
  484MOL0     C65251   6.358   5.016   2.323 -0.2170 -0.9233 -0.2001
  484MOL0     C65252   6.490   4.977   2.357  0.1890 -0.1844  0.9176
  484MOL0     O65253   6.772   5.039   2.460  0.8929 -0.8120 -0.5132
  484MOL0     C65254   7.014   4.992   2.275 -0.0884  0.1272 -0.3785
  484MOL0     C65255   7.149   4.964   2.256  0.2950 -0.8885  0.2149
  484MOL0     N65256   7.750   4.781   1.947 -0.1782 -0.3600  0.2088
  484MOL0     N65257   7.829   4.767   1.847 -0.9294 -0.1553  0.0218
  484MOL0     C65258   8.759   4.288   1.683  0.4519  0.3413 -0.2428
  484MOL0     C65259   8.888   4.334   1.662 -0.3206 -0.8939  0.2522
  484MOL0     C65260   9.274   4.448   1.538 -0.4975 -0.8500 -0.1745
  484MOL0     C65261   9.298   4.555   1.447  0.6616  0.6773  0.0313
  484MOL0     C65262   9.414   4.623   1.467 -0.4231  0.0361 -0.4170
  484MOL0     C65263   9.521   4.580   1.548  0.2553 -0.0862 -0.3471
  484MOL0     O65264   9.643   4.633   1.569  0.5386 -0.0676  0.0050
  484MOL0     C65265   9.670   4.766   1.514  1.0719  0.0716  0.5822
  484MOL0     C65266   9.792   4.826   1.575  0.5572  0.2754  0.4404
  484MOL0     C65267   9.911   4.797   1.481 -0.1928 -0.3047 -0.1651
  484MOL0     C65268  10.039   4.851   1.543 -1.1840  0.5303 -0.7649
  484MOL0     C65269  10.155   4.828   1.455  0.7056 -0.9003 -0.4269
  484MOL0     C65270  10.258   4.815   1.398 -0.1658 -0.2653  0.8587
  484MOL0     C65271   9.498   4.469   1.624  0.3735 -0.2170 -0.9460
  484MOL0     C65272   9.373   4.405   1.630  0.1222 -0.3217  1.0313
  484MOL0     H65273   8.816   4.558   1.409 -2.2451  2.8602  3.3072
  484MOL0     H65274   8.576   4.455   1.468  0.0504 -0.6722  0.8850
  484MOL0     H65275   8.543   4.073   1.651 -0.1680  1.3370 -2.4770
  484MOL0     H65276   8.520   4.147   1.804  2.2552 -1.4857 -0.6201
  484MOL0     H65277   8.320   4.165   1.577 -0.3839  2.6822 -0.2046
  484MOL0     H65278   8.309   4.037   1.677 -5.4590  1.4587 -1.2770
  484MOL0     H65279   8.243   4.211   1.873 -1.6843  1.6062  0.1806
  484MOL0     H65280   8.249   4.328   1.740 -0.3256  0.9336  2.1904
  484MOL0     H65281   8.083   4.220   1.623 -0.1778  5.1265  1.8219
  484MOL0     H65282   8.097   4.061   1.713 -1.9230  0.4217  1.3312
  484MOL0     H65283   7.897   4.178   1.759  0.8381 -0.4107 -1.4758
  484MOL0     H65284   8.002   4.144   1.901 -0.3692 -0.1468 -0.4827
  484MOL0     H65285   7.905   4.356   1.920 -3.5137 -3.0237 -3.6728
  484MOL0     H65286   8.079   4.393   1.904 -1.1872  2.9999 -1.0184
  484MOL0     H65287   8.060   4.437   1.656 -1.3574 -0.7820  0.3561
  484MOL0     H65288   7.881   4.446   1.695 -0.4805  1.4405  1.8086
  484MOL0     H65289   8.007   4.673   1.684  0.4160  3.5111  2.7424
  484MOL0     H65290   8.104   4.611   1.811  0.2579  0.9448 -0.7066
  484MOL0     H65291   7.941   4.537   2.049 -2.4846 -1.0140  0.9886
  484MOL0     H65292   7.724   4.564   2.197 -0.8068 -0.4418 -0.8843
  484MOL0     H65293   7.809   4.695   2.275  0.0275 -4.0903  1.1197
  484MOL0     H65294   7.545   4.730   2.129 -1.4071 -1.5073  0.6030
  484MOL0     H65295   7.618   4.853   2.235 -1.8220 -0.4131  1.7815
  484MOL0     H65296   7.618   4.716   2.419  1.1236 -0.4188 -0.9662
  484MOL0     H65297   7.521   4.590   2.352  2.4214 -0.2080 -2.3118
  484MOL0     H65298   7.449   4.875   2.414  4.1793 -2.0843  1.0966
  484MOL0     H65299   7.368   4.717   2.468  2.3916 -0.8091  0.8672
  484MOL0     H65300   7.147   4.670   2.433 -0.8121 -0.1821 -0.4650
  484MOL0     H65301   6.939   4.590   2.502 -1.0074 -0.2704 -0.0087
  484MOL0     H65302   6.910   4.737   2.603 -1.1456  2.2683 -0.1698
  484MOL0     H65303   6.794   4.686   2.473  0.3647 -1.6882  1.1763
  484MOL0     H65304   6.607   4.906   2.049  0.5504 -2.4679  0.7058
  484MOL0     H65305   6.376   4.938   1.990  1.0018  1.4476 -0.4145
  484MOL0     H65306   6.055   5.004   2.290  4.3934 -1.9656 -1.0117
  484MOL0     H65307   6.125   5.172   2.282 -2.1362 -0.9206  3.6655
  484MOL0     H65308   5.879   5.166   2.228  0.6176  0.6592  1.0132
  484MOL0     H65309   5.989   5.242   2.114  2.7898 -1.2804 -1.4010
  484MOL0     H65310   5.925   4.936   2.072 -0.2401  0.6670  1.6467
  484MOL0     H65311   5.950   5.074   1.957 -0.3076 -1.6421 -0.6401
  484MOL0     H65312   5.733   5.165   1.985  0.8303  0.2233  2.0892
  484MOL0     H65313   5.745   5.002   1.911 -0.2631 -0.6179  0.9886
  484MOL0     H65314   5.648   5.068   2.176 -0.3520  1.3236 -1.3595
  484MOL0     H65315   5.706   4.903   2.127  4.0800  1.2074 -1.5240
  484MOL0     H65316   5.478   5.051   1.989  1.6804  1.6087  2.8685
  484MOL0     H65317   5.542   4.878   1.974  0.7082 -0.0505 -0.1941
  484MOL0     H65318   5.422   4.994   2.224 -0.6028 -0.3443 -0.5094
  484MOL0     H65319   5.464   4.819   2.179  1.1847 -0.4139 -1.4935
  484MOL0     H65320   5.292   4.798   2.026 -0.0270  0.0014 -1.1494
  484MOL0     H65321   5.267   4.964   2.001 -1.1846 -0.1832  1.2079
  484MOL0     H65322   6.298   5.052   2.406  0.1481  0.5929 -0.5495
  484MOL0     H65323   6.510   4.973   2.464 -1.8757 -2.6250  1.3268
  484MOL0     H65324   6.965   5.064   2.210 -0.4644 -2.6115 -3.3852
  484MOL0     H65325   7.216   5.028   2.199  1.2715 -0.1000  2.1458
  484MOL0     H65326   8.750   4.213   1.761 -1.6208  1.7732  0.9775
  484MOL0     H65327   8.963   4.302   1.734 -1.9095  0.2698  2.5795
  484MOL0     H65328   9.221   4.587   1.378  1.6977 -0.0457 -1.5090
  484MOL0     H65329   9.437   4.717   1.416  2.6671 -0.4258 -0.0257
  484MOL0     H65330   9.667   4.753   1.406 -1.6150 -1.6243  0.7700
  484MOL0     H65331   9.587   4.832   1.540  2.3096  2.7863 -1.8805
  484MOL0     H65332   9.802   4.790   1.677 -1.1485 -3.1672 -0.4714
  484MOL0     H65333   9.793   4.935   1.584  1.7811  0.0977  3.4678
  484MOL0     H65334   9.889   4.830   1.379 -0.2230 -0.5692 -0.2453
  484MOL0     H65335   9.918   4.689   1.463 -2.5254 -0.3852 -0.8775
  484MOL0     H65336  10.062   4.789   1.631 -2.4687 -1.5172 -1.7943
  484MOL0     H65337  10.016   4.958   1.545 -1.8293  0.4589 -2.6247
  484MOL0     H65338  10.349   4.811   1.343  0.3673  0.6297  1.6356
  484MOL0     H65339   9.570   4.425   1.692 -0.0709 -0.8560 -0.8860
  484MOL0     H65340   9.349   4.316   1.687  0.6310 -2.2519 -1.5534
  485MOL0     O65341   9.909   5.882   0.623  0.2963  0.2797 -0.0085
  485MOL0     C65342   9.859   5.819   0.711 -0.4600  0.3347  0.2697
  485MOL0     O65343   9.726   5.829   0.744 -0.0963  0.3283 -0.1775
  485MOL0     C65344   9.636   5.902   0.669  1.2536  0.6273  0.3503
  485MOL0     C65345   9.643   6.038   0.641  0.0992 -0.5173 -0.5039
  485MOL0     C65346   9.528   6.103   0.589 -0.1041  0.4048  0.6629
  485MOL0     C65347   9.401   6.039   0.563  0.0968  0.1509  0.5409
  485MOL0     O65348   9.288   6.099   0.510  0.0970  0.3178  0.0678
  485MOL0     C65349   9.279   6.241   0.483  0.0974  0.7616  0.1437
  485MOL0     C65350   9.162   6.285   0.404  0.0937 -0.2073 -0.5975
  485MOL0     C65351   9.052   6.321   0.503 -1.0767  0.6119 -0.0823
  485MOL0     C65352   8.960   6.196   0.524 -0.1228  0.2426  0.3491
  485MOL0     C65353   8.869   6.179   0.400  0.4193  0.3952 -0.3337
  485MOL0     C65354   8.735   6.100   0.441 -0.2008  0.3722  0.7326
  485MOL0     C65355   8.744   5.952   0.432 -0.2353 -1.3185  0.2366
  485MOL0     C65356   8.630   5.884   0.507  0.0640  0.0749 -0.3352
  485MOL0     N65357   8.490   5.923   0.471  0.0861  0.0152  0.3031
  485MOL0     C65358   8.407   5.855   0.386  0.3017 -0.8355 -0.0253
  485MOL0     C65359   8.292   5.932   0.381 -0.0056  0.1241  0.3331
  485MOL0     C65360   8.174   5.921   0.287 -0.2145 -0.4629 -0.2120
  485MOL0     C65361   8.062   5.833   0.340  0.6398  0.7446  0.1150
  485MOL0     C65362   8.097   5.685   0.360  0.3618 -0.0726 -0.3997
  485MOL0     C65363   8.093   5.599   0.232 -0.4558 -0.7016  0.0102
  485MOL0     O65364   8.071   5.459   0.259 -0.4811  0.2738 -0.1874
  485MOL0     C65365   7.949   5.400   0.250 -0.2659  0.8094  0.9587
  485MOL0     C65366   7.940   5.263   0.274  0.1133  0.0981  1.2356
  485MOL0     C65367   7.814   5.205   0.288  0.5472  0.1023 -0.7397
  485MOL0     C65368   7.810   5.051   0.307 -0.9634 -0.1985  0.0512
  485MOL0     C65369   7.691   5.279   0.302 -0.5613 -0.6292 -0.6414
  485MOL0     C65370   7.557   5.225   0.321 -0.8463  0.8549 -0.2972
  485MOL0     O65371   7.466   5.309   0.367 -0.1736 -0.4403 -0.5989
  485MOL0     C65372   7.329   5.280   0.373 -0.2294  0.3343 -0.0676
  485MOL0     C65373   7.274   5.183   0.467  0.2372 -0.5984 -0.0667
  485MOL0     C65374   7.135   5.165   0.454 -0.0395 -0.1496 -0.0750
  485MOL0     C65375   7.054   5.225   0.352  0.0070  0.4752 -0.0075
  485MOL0     O65376   6.921   5.203   0.331  0.2636  0.1327  0.0562
  485MOL0     C65377   6.832   5.203   0.444 -0.6940  0.7310  0.4121
  485MOL0     C65378   6.697   5.258   0.400  0.6306 -0.3195 -0.0139
  485MOL0     C65379   6.591   5.289   0.515 -0.3593 -0.8003  0.1087
  485MOL0     C65380   6.472   5.367   0.454 -0.3009  0.1857 -0.4274
  485MOL0     C65381   6.336   5.327   0.511 -0.2552 -0.8161  0.3395
  485MOL0     C65382   6.232   5.433   0.469 -0.1047  0.7386  0.4272
  485MOL0     C65383   6.087   5.379   0.489 -0.1422  0.6233 -0.8172
  485MOL0     C65384   5.985   5.488   0.484  0.8249  0.5924 -0.5961
  485MOL0    Cl65385   5.822   5.420   0.555  0.0327 -0.3237  0.6303
  485MOL0     C65386   7.116   5.314   0.264  0.4563 -0.0094 -0.3840
  485MOL0     C65387   7.249   5.341   0.281 -0.7210  0.7388 -0.0713
  485MOL0     O65388   7.530   5.112   0.281  0.1965 -0.0648  0.2879
  485MOL0     C65389   7.706   5.417   0.280  0.3649  0.7551  0.1826
  485MOL0     C65390   7.829   5.476   0.249 -0.7045  0.6804 -0.4501
  485MOL0     N65391   8.305   6.027   0.479 -0.3219 -0.6963 -0.9269
  485MOL0     N65392   8.426   6.018   0.536  0.3930  0.0660  0.4304
  485MOL0     C65393   9.396   5.898   0.586 -0.9804 -0.5593 -0.2137
  485MOL0     C65394   9.511   5.835   0.640  0.3985 -0.3553 -0.5467
  485MOL0     C65395   9.942   5.736   0.814 -1.3702 -0.3797 -0.6521
  485MOL0     C65396   9.900   5.721   0.945 -0.3284  0.9066 -0.7162
  485MOL0     C65397   9.979   5.670   1.044  0.2735 -0.2874  0.6807
  485MOL0     C65398  10.114   5.633   1.016 -0.2928  0.3707 -0.6795
  485MOL0     O65399  10.201   5.583   1.099 -0.7209 -0.6726 -0.0119
  485MOL0     C65400  10.206   5.626   1.230 -0.5252  0.3918 -0.4117
  485MOL0     C65401  10.358   5.646   1.251  0.3201  0.0578 -0.0948
  485MOL0     C65402  10.413   5.761   1.154  0.8690 -0.4058  0.7184
  485MOL0     C65403  10.541   5.737   1.086 -0.5735  0.2696 -0.6519
  485MOL0     C65404  10.581   5.871   1.029 -0.1176 -0.7857  0.5617
  485MOL0     C65405  10.605   5.981   0.980 -0.6934 -0.1748  0.1455
  485MOL0     C65406  10.158   5.644   0.885 -0.0929  0.3759  0.0980
  485MOL0     C65407  10.077   5.703   0.791 -0.5958  0.3744 -0.5097
  485MOL0     H65408   9.731   6.094   0.672 -2.4091  2.9375  1.0916
  485MOL0     H65409   9.532   6.211   0.578  1.3352  0.2024 -1.2845
  485MOL0     H65410   9.292   6.291   0.579  0.7277 -1.6839  1.4201
  485MOL0     H65411   9.372   6.260   0.428  0.9776  1.7948  1.9005
  485MOL0     H65412   9.183   6.377   0.347 -1.2974  0.8719  0.5686
  485MOL0     H65413   9.128   6.209   0.332  0.8600 -1.1626  0.0354
  485MOL0     H65414   9.095   6.341   0.601  0.7879 -2.4983 -0.1135
  485MOL0     H65415   8.983   6.402   0.477 -2.2322 -0.2563  0.1572
  485MOL0     H65416   9.026   6.111   0.541  0.0333 -0.2029 -2.0824
  485MOL0     H65417   8.900   6.202   0.615  1.8027  1.6515  1.6056
  485MOL0     H65418   8.848   6.274   0.351 -3.7103 -0.2363 -0.1248
  485MOL0     H65419   8.923   6.132   0.318  1.7600  1.9299 -0.3969
  485MOL0     H65420   8.700   6.127   0.541  1.0506 -2.0714  1.9312
  485MOL0     H65421   8.655   6.124   0.371  1.0671 -0.8647 -1.2446
  485MOL0     H65422   8.742   5.919   0.328 -0.8720 -2.4051  0.5856
  485MOL0     H65423   8.844   5.918   0.463 -0.2264 -1.9786 -0.4793
  485MOL0     H65424   8.643   5.907   0.613 -1.5119  0.5944 -0.2283
  485MOL0     H65425   8.649   5.780   0.480 -1.4314 -0.9931  2.3378
  485MOL0     H65426   8.440   5.776   0.319 -1.2383  0.0052 -1.8765
  485MOL0     H65427   8.148   6.024   0.261  1.0227 -0.1274 -0.1643
  485MOL0     H65428   8.205   5.881   0.190 -1.1331 -0.5217 -0.4895
  485MOL0     H65429   7.965   5.846   0.292  0.2285 -1.2526  0.3336
  485MOL0     H65430   8.041   5.865   0.443 -0.3671 -1.2539  0.5766
  485MOL0     H65431   8.024   5.646   0.431  2.1238 -0.3768  1.3319
  485MOL0     H65432   8.196   5.675   0.406 -0.0986 -0.3595  0.5421
  485MOL0     H65433   8.192   5.603   0.187 -0.3615  1.8532  0.3000
  485MOL0     H65434   8.023   5.634   0.156  1.5721  0.7433 -1.2996
  485MOL0     H65435   8.028   5.200   0.282  0.2679  0.4868  3.0801
  485MOL0     H65436   7.734   5.010   0.375 -1.3053 -1.6290 -1.1421
  485MOL0     H65437   7.790   5.000   0.213 -1.1866  2.8086 -1.6412
  485MOL0     H65438   7.911   5.018   0.331 -1.5519 -1.3103  1.1035
  485MOL0     H65439   7.346   5.131   0.530 -0.1175 -0.1769  0.6974
  485MOL0     H65440   7.078   5.102   0.521 -2.7347  2.0084 -0.1435
  485MOL0     H65441   6.819   5.100   0.480  0.0696  0.7259  0.6976
  485MOL0     H65442   6.874   5.259   0.528  0.6311  2.3306 -1.2208
  485MOL0     H65443   6.721   5.351   0.347 -0.4768 -2.5896 -5.1629
  485MOL0     H65444   6.648   5.188   0.332 -0.6922 -0.4092  1.0061
  485MOL0     H65445   6.639   5.353   0.590  0.5298  0.9702 -1.8777
  485MOL0     H65446   6.552   5.194   0.553  1.2425 -2.3832 -1.9304
  485MOL0     H65447   6.489   5.474   0.470  2.2804 -0.5368  2.8422
  485MOL0     H65448   6.469   5.342   0.348  0.7112 -2.3288  0.0779
  485MOL0     H65449   6.341   5.315   0.620  0.3406  0.5085  0.4853
  485MOL0     H65450   6.302   5.231   0.470 -1.7316  0.4433 -1.5820
  485MOL0     H65451   6.240   5.526   0.526  0.3778  1.5536 -0.9340
  485MOL0     H65452   6.246   5.467   0.367  1.6302  1.9265  1.0169
  485MOL0     H65453   6.100   5.330   0.586  3.5170  0.5331 -1.1953
  485MOL0     H65454   6.071   5.299   0.417  1.7921  0.4554 -1.1346
  485MOL0     H65455   5.966   5.532   0.386  1.2790  2.1529 -0.0179
  485MOL0     H65456   6.022   5.561   0.558 -1.4463 -0.5432  1.8645
  485MOL0     H65457   7.064   5.356   0.179 -2.2377 -0.5764  0.8809
  485MOL0     H65458   7.287   5.423   0.221 -0.7712  0.8710  0.0778
  485MOL0     H65459   7.622   5.485   0.286 -1.4331 -1.3649  0.5610
  485MOL0     H65460   7.837   5.583   0.232  1.7410  0.3190 -2.0199
  485MOL0     H65461   9.309   5.838   0.562 -2.7691  1.5158  0.7000
  485MOL0     H65462   9.514   5.727   0.651  0.4274 -0.1821  1.7097
  485MOL0     H65463   9.797   5.747   0.970 -0.4606 -2.2504  2.8885
  485MOL0     H65464   9.938   5.667   1.144 -0.0552  2.0157  0.6678
  485MOL0     H65465  10.146   5.715   1.249  1.6085  1.7325  0.4390
  485MOL0     H65466  10.176   5.548   1.301  4.2811 -1.0276  0.4102
  485MOL0     H65467  10.414   5.553   1.265 -0.5234 -0.4293  0.1757
  485MOL0     H65468  10.373   5.682   1.354 -1.1826 -1.5323  0.7492
  485MOL0     H65469  10.414   5.849   1.220  3.0183 -1.0747  1.6637
  485MOL0     H65470  10.340   5.783   1.076  1.6882 -2.6865 -0.7825
  485MOL0     H65471  10.536   5.663   1.005 -0.1283  1.6900 -2.0313
  485MOL0     H65472  10.609   5.700   1.163 -2.5427 -0.1755  0.9620
  485MOL0     H65473  10.611   6.081   0.941 -0.1184  0.2215  1.2226
  485MOL0     H65474  10.256   5.619   0.847 -1.4610  0.9738 -4.4014
  485MOL0     H65475  10.125   5.746   0.704  0.6566  0.3922  0.1659
  486MOL0     O65476   9.860   3.650   6.059  0.1618  0.2065  0.5804
  486MOL0     C65477   9.836   3.664   5.937 -0.6926  0.9160 -0.8844
  486MOL0     O65478   9.724   3.607   5.873 -1.2090 -0.3954  0.0141
  486MOL0     C65479   9.641   3.533   5.962  0.7508 -0.0738  0.4702
  486MOL0     C65480   9.671   3.402   6.002 -0.0782  0.5781  0.4630
  486MOL0     C65481   9.575   3.339   6.091  0.3525 -0.1538 -0.1904
  486MOL0     C65482   9.453   3.397   6.134 -0.2065 -0.9597 -0.2446
  486MOL0     O65483   9.368   3.320   6.214  0.7383 -0.9245 -0.5786
  486MOL0     C65484   9.257   3.397   6.274  0.2640  0.1468 -0.0883
  486MOL0     C65485   9.309   3.464   6.401 -0.2901  0.1714  0.0752
  486MOL0     C65486   9.195   3.523   6.488 -0.0596 -0.3335 -0.5156
  486MOL0     C65487   9.257   3.555   6.623 -0.3889  0.2533  0.0341
  486MOL0     C65488   9.311   3.693   6.620 -0.7292  0.5218  0.0300
  486MOL0     C65489   9.214   3.811   6.594 -0.6720  0.5238  0.4381
  486MOL0     C65490   9.087   3.810   6.676  0.5225 -0.0398 -0.0693
  486MOL0     C65491   9.095   3.834   6.832  0.5768  0.6396 -0.1328
  486MOL0     N65492   8.961   3.872   6.889 -0.0044 -0.3314  0.5620
  486MOL0     C65493   8.946   3.963   6.992  0.1363  0.1522 -0.3026
  486MOL0     C65494   8.813   3.956   7.020 -0.6282 -0.0526 -1.7376
  486MOL0     C65495   8.791   4.027   7.159 -0.3714  0.0700  0.9797
  486MOL0     C65496   8.819   4.187   7.141 -0.3972  1.2631  0.1014
  486MOL0     C65497   8.773   4.266   7.266 -0.3183  1.3216 -0.2683
  486MOL0     C65498   8.629   4.306   7.254 -0.7807 -0.2853  0.3056
  486MOL0     O65499   8.600   4.385   7.373 -0.0105 -0.0569  0.9296
  486MOL0     C65500   8.473   4.425   7.399 -0.2713 -0.7404  1.0472
  486MOL0     C65501   8.378   4.452   7.301 -0.5298  0.1633  0.0421
  486MOL0     C65502   8.250   4.494   7.330 -0.3237 -0.2809  0.1247
  486MOL0     C65503   8.148   4.534   7.221  0.8219 -0.1649 -0.2616
  486MOL0     C65504   8.217   4.495   7.467  0.6305  0.0543 -0.1308
  486MOL0     C65505   8.091   4.551   7.508 -0.0499  0.0817  0.3778
  486MOL0     O65506   8.014   4.481   7.583  0.8623  0.3690 -0.0168
  486MOL0     C65507   7.897   4.545   7.622 -1.2686  0.0973  0.0245
  486MOL0     C65508   7.782   4.538   7.557  0.7523  0.3372  0.4539
  486MOL0     C65509   7.662   4.579   7.609  0.3817  0.5857  0.7821
  486MOL0     C65510   7.677   4.657   7.725  0.3331 -0.7749 -0.6056
  486MOL0     O65511   7.569   4.708   7.795  0.0079  0.1636  0.1893
  486MOL0     C65512   7.438   4.715   7.732  0.6091  0.0697  1.0552
  486MOL0     C65513   7.356   4.827   7.799 -0.5494  0.3162 -0.0293
  486MOL0     C65514   7.203   4.816   7.777 -0.3610  0.2569 -0.7373
  486MOL0     C65515   7.123   4.946   7.822 -0.4436  0.4584 -0.2827
  486MOL0     C65516   6.973   4.912   7.818  0.1257  0.1163  0.0565
  486MOL0     C65517   6.930   4.855   7.953 -0.6713  0.0695 -0.2054
  486MOL0     C65518   6.789   4.800   7.955 -0.2720  0.4174 -0.5218
  486MOL0     C65519   6.703   4.839   8.076 -0.5458 -0.9017 -0.3331
  486MOL0    Cl65520   6.659   5.013   8.063  0.2449  0.4902  0.2865
  486MOL0     C65521   7.802   4.682   7.785  0.4823 -0.8509  0.6560
  486MOL0     C65522   7.909   4.608   7.742  0.8550 -0.0900 -1.0518
  486MOL0     O65523   8.070   4.664   7.469  0.2396 -1.0365 -0.2870
  486MOL0     C65524   8.307   4.459   7.569  0.3985  0.8748 -0.4714
  486MOL0     C65525   8.437   4.431   7.531  0.0269  0.4680  0.1341
  486MOL0     N65526   8.754   3.865   6.941  0.1276 -0.0475  0.5600
  486MOL0     N65527   8.845   3.808   6.863 -0.5533  0.6456 -0.0039
  486MOL0     C65528   9.428   3.523   6.071  0.4097  0.3213 -0.0029
  486MOL0     C65529   9.518   3.593   5.987  0.1396 -0.3044 -0.3291
  486MOL0     C65530   9.921   3.749   5.857 -0.1419  0.2909 -0.0130
  486MOL0     C65531  10.027   3.813   5.919 -0.1308 -0.1721 -0.4725
  486MOL0     C65532  10.116   3.890   5.831 -0.1606  0.1702 -0.4409
  486MOL0     C65533  10.090   3.895   5.693 -0.5949  0.0611 -1.0353
  486MOL0     O65534  10.177   3.951   5.608 -0.0396  0.1328 -0.2853
  486MOL0     C65535  10.304   3.887   5.610  0.1433 -0.1116 -0.1694
  486MOL0     C65536  10.409   3.986   5.574 -0.3476  1.2578  0.0430
  486MOL0     C65537  10.399   4.030   5.428  0.5913  0.0566 -0.6671
  486MOL0     C65538  10.477   4.160   5.403 -0.0390  1.4530 -0.9927
  486MOL0     C65539  10.465   4.205   5.267  0.2836 -0.4120  1.3552
  486MOL0     C65540  10.442   4.251   5.154  0.6076 -0.1369  0.8279
  486MOL0     C65541   9.978   3.833   5.644 -0.3100 -0.0945 -0.0060
  486MOL0     C65542   9.898   3.744   5.721 -0.2233 -0.2776  0.2476
  486MOL0     H65543   9.754   3.338   5.973 -0.4691  1.0865 -1.9914
  486MOL0     H65544   9.598   3.239   6.126  0.8863 -0.9316 -2.6268
  486MOL0     H65545   9.213   3.465   6.201 -1.6504 -2.2535 -1.3075
  486MOL0     H65546   9.173   3.330   6.297 -0.9213  1.0432 -1.6024
  486MOL0     H65547   9.357   3.389   6.465  1.1282  0.4339 -0.6442
  486MOL0     H65548   9.389   3.534   6.372 -1.4895  1.9005  0.7584
  486MOL0     H65549   9.139   3.608   6.448  2.3090  0.8040 -1.6169
  486MOL0     H65550   9.121   3.443   6.495  0.0115 -0.3087  0.7794
  486MOL0     H65551   9.181   3.558   6.702 -1.8285  1.5298 -1.3310
  486MOL0     H65552   9.341   3.494   6.656 -1.1095 -0.9585 -0.2683
  486MOL0     H65553   9.367   3.707   6.713  0.3254 -2.5350 -0.0210
  486MOL0     H65554   9.388   3.698   6.542 -0.8440  0.8044 -0.0656
  486MOL0     H65555   9.277   3.901   6.589 -2.3332  1.6636 -1.1292
  486MOL0     H65556   9.181   3.803   6.490  2.0005  1.9700 -0.6326
  486MOL0     H65557   9.026   3.890   6.633  3.3056  2.8838  1.0443
  486MOL0     H65558   9.040   3.711   6.678 -0.3042  0.3108  2.9513
  486MOL0     H65559   9.176   3.903   6.858 -0.5488  2.2970 -0.8143
  486MOL0     H65560   9.123   3.742   6.882 -2.7256 -0.4607 -0.0753
  486MOL0     H65561   9.016   4.023   7.050 -2.0166  0.4381  2.1988
  486MOL0     H65562   8.698   4.007   7.215 -1.2995  2.9742  0.6127
  486MOL0     H65563   8.859   3.987   7.235  0.2016  2.5952  1.8770
  486MOL0     H65564   8.768   4.222   7.051 -1.0199  1.3452  0.4821
  486MOL0     H65565   8.928   4.196   7.143  0.2907 -3.4362  4.2043
  486MOL0     H65566   8.826   4.361   7.259  2.1219 -0.0726 -2.6061
  486MOL0     H65567   8.780   4.212   7.361 -1.4519  1.2318 -0.2258
  486MOL0     H65568   8.575   4.212   7.240 -0.7393 -0.0066 -2.2671
  486MOL0     H65569   8.625   4.363   7.161  1.3613  2.5812  1.8281
  486MOL0     H65570   8.406   4.439   7.197 -0.4010 -1.7961  0.2900
  486MOL0     H65571   8.052   4.483   7.230  0.5961  0.1123 -1.0165
  486MOL0     H65572   8.130   4.642   7.230 -0.6688 -0.4932  0.9576
  486MOL0     H65573   8.185   4.505   7.123  0.3688 -0.8554 -0.2307
  486MOL0     H65574   7.784   4.487   7.461  2.2937  0.0117  0.6444
  486MOL0     H65575   7.565   4.561   7.564  0.0218 -1.0427  2.1048
  486MOL0     H65576   7.452   4.750   7.629  0.2904 -1.5928  0.4255
  486MOL0     H65577   7.384   4.620   7.741 -1.1869  0.7832 -1.2427
  486MOL0     H65578   7.382   4.824   7.905  3.4581  0.9462 -0.8238
  486MOL0     H65579   7.398   4.922   7.763  1.1711  1.0233  3.3850
  486MOL0     H65580   7.167   4.738   7.845 -0.0497 -0.6496 -1.5886
  486MOL0     H65581   7.176   4.783   7.676 -0.5449 -0.5860 -0.4223
  486MOL0     H65582   7.148   4.990   7.919 -1.6203  0.3321  0.0945
  486MOL0     H65583   7.152   5.026   7.753 -1.4627  0.0458 -1.2228
  486MOL0     H65584   6.946   4.866   7.723 -0.7605  1.0945 -0.1901
  486MOL0     H65585   6.940   5.015   7.803  3.0252  0.9655 -1.3659
  486MOL0     H65586   7.001   4.778   7.984  0.6658  1.4468  0.2384
  486MOL0     H65587   6.952   4.931   8.028  2.7668 -0.2012 -0.7805
  486MOL0     H65588   6.802   4.692   7.951  1.0219  0.5928 -1.3992
  486MOL0     H65589   6.729   4.822   7.866  1.7461  2.9174 -1.4039
  486MOL0     H65590   6.774   4.809   8.154 -0.4417 -2.6911 -1.0529
  486MOL0     H65591   6.612   4.779   8.069 -1.4139  0.2253  1.0142
  486MOL0     H65592   7.815   4.721   7.885 -1.6200  0.7865  0.3399
  486MOL0     H65593   7.998   4.605   7.804 -1.0908  4.6835  2.5848
  486MOL0     H65594   8.268   4.457   7.670 -2.1440 -1.1692 -1.3691
  486MOL0     H65595   8.511   4.390   7.598  2.0375  2.4088 -0.7984
  486MOL0     H65596   9.338   3.581   6.089  0.5636  0.6103 -0.1698
  486MOL0     H65597   9.506   3.697   5.958 -0.8426  0.1575  1.6315
  486MOL0     H65598  10.046   3.801   6.025  0.5626 -1.6908 -0.7338
  486MOL0     H65599  10.195   3.953   5.871 -0.8900  1.3149 -0.7436
  486MOL0     H65600  10.331   3.832   5.701 -2.1198 -3.0020 -1.0828
  486MOL0     H65601  10.296   3.810   5.533  0.5900  1.3984 -1.7608
  486MOL0     H65602  10.511   3.954   5.595 -0.3035  1.3051 -0.1043
  486MOL0     H65603  10.399   4.069   5.645  0.3824 -0.5029  2.3366
  486MOL0     H65604  10.294   4.052   5.405 -0.1796 -2.9128 -0.4843
  486MOL0     H65605  10.426   3.952   5.355  0.7157 -0.3682 -0.1745
  486MOL0     H65606  10.585   4.144   5.418 -0.5126 -1.2799  0.1274
  486MOL0     H65607  10.449   4.233   5.479  2.0787  0.5187  0.8054
  486MOL0     H65608  10.411   4.291   5.060  2.5466 -1.0865 -0.2674
  486MOL0     H65609   9.971   3.854   5.538 -0.8926  3.8686  0.6480
  486MOL0     H65610   9.817   3.695   5.668  1.7986 -2.5051 -0.9726
  487MOL0     O65611   3.435   6.993   0.301 -0.7924 -0.2088 -0.4913
  487MOL0     C65612   3.365   7.075   0.360 -0.2396  0.5598 -0.1151
  487MOL0     O65613   3.406   7.187   0.436  0.2967  0.3778 -0.1963
  487MOL0     C65614   3.534   7.223   0.435 -0.6589  0.4376  0.4838
  487MOL0     C65615   3.575   7.349   0.409  0.7685  0.0521 -0.1663
  487MOL0     C65616   3.708   7.387   0.407  0.2565  0.0443 -0.3450
  487MOL0     C65617   3.808   7.293   0.462  0.3383 -0.8100  0.0277
  487MOL0     O65618   3.945   7.322   0.461 -0.0665  0.9912 -0.0012
  487MOL0     C65619   4.021   7.295   0.584 -0.2350 -0.2238 -0.0683
  487MOL0     C65620   4.168   7.331   0.564  0.6873  0.2020 -0.1783
  487MOL0     C65621   4.235   7.243   0.463  0.9332  0.7252  0.1764
  487MOL0     C65622   4.381   7.290   0.420 -0.3246 -0.1541 -0.6606
  487MOL0     C65623   4.442   7.190   0.324  0.6245 -0.1535  1.1484
  487MOL0     C65624   4.423   7.050   0.370  0.3512  0.3263  0.2063
  487MOL0     C65625   4.518   6.945   0.320  0.3392 -0.8193 -0.7155
  487MOL0     C65626   4.533   6.953   0.163 -0.5193  0.5039  0.6842
  487MOL0     N65627   4.580   6.823   0.106 -0.1769 -0.4265 -0.0130
  487MOL0     C65628   4.711   6.789   0.127  0.4269 -0.7682  0.1993
  487MOL0     C65629   4.734   6.668   0.075  0.6263 -0.1080  0.6036
  487MOL0     C65630   4.866   6.610   0.072 -0.7726 -0.5497 -1.0095
  487MOL0     C65631   4.860   6.468   0.122 -0.4866  0.4456  0.7831
  487MOL0     C65632   4.834   6.474   0.275  0.4873  0.7081  0.4021
  487MOL0     C65633   4.957   6.449   0.356 -0.4382  0.9642 -1.0367
  487MOL0     O65634   5.058   6.555   0.326 -0.5372  0.6244 -0.1799
  487MOL0     C65635   5.187   6.504   0.358 -0.2952  0.9841 -0.0925
  487MOL0     C65636   5.286   6.567   0.294 -0.0794  0.5797 -0.5753
  487MOL0     C65637   5.420   6.527   0.316 -0.4611 -0.6801 -0.1406
  487MOL0     C65638   5.515   6.619   0.241  0.2408 -0.0395  0.1380
  487MOL0     C65639   5.457   6.418   0.398  0.5915 -0.5388  0.2034
  487MOL0     C65640   5.595   6.377   0.434  0.8811  0.1636 -0.2496
  487MOL0     O65641   5.615   6.280   0.531  0.1125  1.0320  0.3251
  487MOL0     C65642   5.737   6.224   0.543 -0.7009 -0.4775 -0.8374
  487MOL0     C65643   5.799   6.146   0.440  0.4802  0.3233 -1.2394
  487MOL0     C65644   5.932   6.130   0.446 -0.3461 -0.2774  0.1238
  487MOL0     C65645   6.014   6.173   0.552  0.5080  0.5651  0.2278
  487MOL0     O65646   6.152   6.163   0.559 -0.0201 -0.8077 -0.0706
  487MOL0     C65647   6.218   6.105   0.447 -0.1351  0.1224 -0.0135
  487MOL0     C65648   6.204   5.948   0.437 -0.3366  0.1861  1.0343
  487MOL0     C65649   6.291   5.888   0.319  0.5205 -0.4622  0.4766
  487MOL0     C65650   6.320   5.732   0.328  0.9912 -0.1895 -0.1599
  487MOL0     C65651   6.388   5.682   0.195 -0.2955  1.2383  0.7040
  487MOL0     C65652   6.524   5.752   0.168 -0.5174  0.0265 -0.2822
  487MOL0     C65653   6.591   5.704   0.031  0.1285  0.9053  0.7826
  487MOL0     C65654   6.646   5.562   0.024 -0.1757 -0.7622 -0.8944
  487MOL0    Cl65655   6.803   5.538   0.121  0.1523 -0.2877 -0.0718
  487MOL0     C65656   5.941   6.247   0.651 -0.3119 -0.3822 -0.1382
  487MOL0     C65657   5.803   6.271   0.647 -0.5041 -1.4072 -0.7241
  487MOL0     O65658   5.677   6.421   0.357 -0.0959  0.1074 -0.2461
  487MOL0     C65659   5.348   6.361   0.470  0.4075  0.1876 -0.4868
  487MOL0     C65660   5.214   6.400   0.453  0.3028  0.6055  0.7173
  487MOL0     N65661   4.609   6.623   0.026  0.2573 -0.0211  0.2388
  487MOL0     N65662   4.520   6.723   0.032  0.0309 -0.6923 -0.0077
  487MOL0     C65663   3.763   7.164   0.501 -0.1004 -1.0021 -0.3829
  487MOL0     C65664   3.632   7.130   0.477 -1.3027  0.3628 -0.4492
  487MOL0     C65665   3.230   7.025   0.387  0.1419 -0.1886 -0.3086
  487MOL0     C65666   3.139   7.108   0.454 -0.0635 -0.6935  0.1960
  487MOL0     C65667   3.013   7.071   0.489  0.7322  0.5648  0.2178
  487MOL0     C65668   2.962   6.953   0.431  1.2264  0.3455 -0.0390
  487MOL0     O65669   2.834   6.910   0.442 -0.4817 -0.2768 -0.2504
  487MOL0     C65670   2.741   7.019   0.434  0.9498  0.6390  0.8043
  487MOL0     C65671   2.630   6.985   0.324  1.2800  0.0157  0.9503
  487MOL0     C65672   2.519   6.895   0.377  0.9634  0.1782  0.1219
  487MOL0     C65673   2.442   6.815   0.265 -0.0019 -0.1072 -0.4121
  487MOL0     C65674   2.537   6.718   0.203 -0.0196  0.5384  0.0038
  487MOL0     C65675   2.610   6.649   0.135 -0.4450  0.4503  0.7925
  487MOL0     C65676   3.051   6.865   0.376  0.1329  0.2632  0.4133
  487MOL0     C65677   3.185   6.896   0.351 -0.0665 -0.2665 -0.6654
  487MOL0     H65678   3.512   7.427   0.366  0.2705  0.2837  0.9640
  487MOL0     H65679   3.730   7.487   0.372  1.4760 -0.9698 -2.7154
  487MOL0     H65680   3.983   7.352   0.669  1.6833 -0.7985  1.2556
  487MOL0     H65681   4.011   7.189   0.608 -0.0806 -0.1519  0.3267
  487MOL0     H65682   4.174   7.433   0.526 -1.1572  0.7192  0.7915
  487MOL0     H65683   4.215   7.327   0.663 -0.4804  3.6905  0.6659
  487MOL0     H65684   4.239   7.141   0.504  0.5760  0.8439  0.5158
  487MOL0     H65685   4.181   7.238   0.368  1.5109 -0.0678 -0.1215
  487MOL0     H65686   4.377   7.390   0.375 -1.9562 -0.1802 -0.6470
  487MOL0     H65687   4.449   7.310   0.503 -0.6489  0.6648 -0.5771
  487MOL0     H65688   4.399   7.197   0.224  1.1806 -0.0269  0.9127
  487MOL0     H65689   4.546   7.223   0.314  0.3888  0.3031  0.0568
  487MOL0     H65690   4.437   7.050   0.479  4.6005 -0.9328 -0.1473
  487MOL0     H65691   4.324   7.010   0.347 -0.4428  2.2957 -0.0010
  487MOL0     H65692   4.606   6.957   0.384 -0.2073 -0.7092  0.0404
  487MOL0     H65693   4.471   6.850   0.348 -1.6245  0.3419  0.1234
  487MOL0     H65694   4.612   7.025   0.140  0.3249  0.5913  3.4005
  487MOL0     H65695   4.438   6.977   0.113 -0.4107  0.7612  0.6005
  487MOL0     H65696   4.787   6.858   0.163  0.5725 -0.6640 -0.3103
  487MOL0     H65697   4.901   6.608  -0.032  1.9582  0.4994 -0.2055
  487MOL0     H65698   4.946   6.664   0.124 -0.9356 -1.0979 -0.1707
  487MOL0     H65699   4.955   6.418   0.103  0.4526 -0.3908  6.0079
  487MOL0     H65700   4.776   6.417   0.074 -0.5269  1.1956  0.0417
  487MOL0     H65701   4.766   6.391   0.299  0.2114  1.5486  2.7700
  487MOL0     H65702   4.781   6.563   0.311  0.0486  0.3451  0.6600
  487MOL0     H65703   4.992   6.350   0.323 -2.4764 -0.0968 -0.2295
  487MOL0     H65704   4.945   6.428   0.463 -1.9033  4.0657 -0.4683
  487MOL0     H65705   5.256   6.645   0.225  0.6229  0.6952 -0.7547
  487MOL0     H65706   5.573   6.567   0.164  1.2917  2.9379 -1.2583
  487MOL0     H65707   5.448   6.694   0.196 -0.0409 -1.8993 -2.8642
  487MOL0     H65708   5.588   6.664   0.308  0.6690 -0.3144 -0.1448
  487MOL0     H65709   5.738   6.122   0.354 -1.0016  1.1143 -0.4478
  487MOL0     H65710   5.975   6.086   0.357  1.3352  0.8385  0.3265
  487MOL0     H65711   6.176   6.145   0.354 -2.6185 -2.6258 -0.2356
  487MOL0     H65712   6.322   6.128   0.473 -0.1240 -0.1527  0.1823
  487MOL0     H65713   6.244   5.894   0.523  1.8737 -1.2746 -0.8012
  487MOL0     H65714   6.099   5.917   0.430 -0.5311  0.9594  0.1822
  487MOL0     H65715   6.388   5.939   0.322  0.0620  0.4000  3.1074
  487MOL0     H65716   6.245   5.918   0.224  2.4966  1.9086  0.1651
  487MOL0     H65717   6.376   5.709   0.419  1.2301  2.9540  0.6202
  487MOL0     H65718   6.221   5.686   0.336  0.5941  0.4789 -1.0372
  487MOL0     H65719   6.327   5.700   0.106  1.5497  1.4148 -0.5845
  487MOL0     H65720   6.392   5.572   0.198 -3.2095  1.0790  0.7406
  487MOL0     H65721   6.514   5.859   0.150  5.3079  0.6561 -2.0731
  487MOL0     H65722   6.596   5.728   0.247 -2.0528 -1.7678  0.6481
  487MOL0     H65723   6.664   5.769  -0.018 -0.1745 -0.7190 -2.0138
  487MOL0     H65724   6.513   5.703  -0.046 -0.0932 -0.1125  1.0001
  487MOL0     H65725   6.670   5.538  -0.080  0.0086 -0.2919 -0.9659
  487MOL0     H65726   6.568   5.495   0.060  0.5892 -1.4411 -0.4567
  487MOL0     H65727   6.012   6.285   0.723  0.6776  1.8090 -2.1077
  487MOL0     H65728   5.756   6.342   0.714  2.2481 -2.2628  2.3110
  487MOL0     H65729   5.354   6.279   0.541 -1.9042  1.2989  1.0968
  487MOL0     H65730   5.142   6.339   0.508 -0.8786 -0.8189 -2.2099
  487MOL0     H65731   3.825   7.080   0.530 -0.7871 -2.0336 -1.7733
  487MOL0     H65732   3.599   7.035   0.518 -1.1042  2.2200  4.7786
  487MOL0     H65733   3.167   7.208   0.486 -0.1490  0.0567 -1.8982
  487MOL0     H65734   2.949   7.136   0.547 -0.7151  0.5052 -1.2493
  487MOL0     H65735   2.695   7.056   0.526 -0.7794  0.2698  0.1293
  487MOL0     H65736   2.787   7.109   0.391  2.6205 -0.3519  0.4243
  487MOL0     H65737   2.691   6.950   0.241  0.6680  3.0341 -0.9436
  487MOL0     H65738   2.589   7.082   0.292  2.2082 -0.2232 -1.0975
  487MOL0     H65739   2.444   6.952   0.434 -1.9320  0.1164 -3.2173
  487MOL0     H65740   2.553   6.821   0.450 -0.6246  0.4136  1.1719
  487MOL0     H65741   2.417   6.883   0.182 -1.9838 -1.0351 -0.6321
  487MOL0     H65742   2.353   6.757   0.292  0.6738 -1.0377 -0.1227
  487MOL0     H65743   2.662   6.579   0.073 -3.1122 -0.8247 -0.1447
  487MOL0     H65744   3.027   6.760   0.358  2.6475 -0.7197  2.1734
  487MOL0     H65745   3.255   6.824   0.310 -1.3195 -1.5747 -0.6278
  488MOL0     O65746   4.016   5.042   1.409  0.4944  1.0367  0.8103
  488MOL0     C65747   4.058   5.139   1.349 -0.3314  0.4326 -0.3150
  488MOL0     O65748   3.992   5.220   1.266 -0.4562  0.7895 -0.5615
  488MOL0     C65749   3.858   5.208   1.242  0.8495  0.3662  0.8744
  488MOL0     C65750   3.769   5.308   1.279  0.5906 -0.6235  0.2792
  488MOL0     C65751   3.635   5.295   1.267 -0.2127  1.2349 -1.0123
  488MOL0     C65752   3.583   5.175   1.212 -0.0774  0.0441  0.4189
  488MOL0     O65753   3.446   5.155   1.192 -0.0189  1.0270  0.5343
  488MOL0     C65754   3.361   5.213   1.280  0.1781 -0.4314  0.5872
  488MOL0     C65755   3.219   5.155   1.255 -0.5228 -0.2829 -0.2294
  488MOL0     C65756   3.198   5.137   1.106  0.6299 -0.1429  0.1744
  488MOL0     C65757   3.060   5.092   1.077 -0.3651 -0.3266  0.4307
  488MOL0     C65758   3.026   5.076   0.924 -0.6756  0.2321  1.1996
  488MOL0     C65759   3.134   5.000   0.838 -0.0983  0.3621 -0.3829
  488MOL0     C65760   3.072   4.932   0.712 -0.1938 -0.1727 -0.5427
  488MOL0     C65761   3.182   4.865   0.633  0.1637  0.4734 -0.0457
  488MOL0     N65762   3.135   4.787   0.514 -0.5428 -0.5725 -0.8217
  488MOL0     C65763   3.158   4.825   0.386 -0.5569 -0.2936  1.0384
  488MOL0     C65764   3.104   4.733   0.310  0.4474  0.5021 -0.4135
  488MOL0     C65765   3.088   4.717   0.159  0.3036 -0.6926  0.0878
  488MOL0     C65766   3.106   4.847   0.082 -0.2097  0.1958  0.0160
  488MOL0     C65767   3.121   4.839  -0.067  0.7125  0.6922 -0.5842
  488MOL0     C65768   2.984   4.801  -0.123  0.6185 -0.6362 -0.3020
  488MOL0     O65769   2.893   4.919  -0.124 -0.1671  0.0750  0.1643
  488MOL0     C65770   2.759   4.918  -0.145  0.2483  0.2300  0.5317
  488MOL0     C65771   2.685   4.796  -0.153 -0.1582 -0.3949  0.4499
  488MOL0     C65772   2.549   4.801  -0.185 -0.0081  0.2991  0.5520
  488MOL0     C65773   2.491   4.670  -0.190  0.1116  0.7269 -0.4051
  488MOL0     C65774   2.483   4.919  -0.211 -0.1125 -0.2616 -0.8827
  488MOL0     C65775   2.338   4.931  -0.243  0.2024  0.3420  0.2130
  488MOL0     O65776   2.292   5.062  -0.253  0.0921  0.8439  1.0759
  488MOL0     C65777   2.173   5.057  -0.326 -1.8498 -0.0797 -0.5095
  488MOL0     C65778   2.162   5.001  -0.460  0.0849 -0.0486  0.2176
  488MOL0     C65779   2.039   5.011  -0.530 -1.2123  0.0251 -0.1023
  488MOL0     C65780   1.932   5.072  -0.463  0.2676  0.4600 -0.4135
  488MOL0     O65781   1.810   5.078  -0.540  1.0711 -0.6026 -0.4974
  488MOL0     C65782   1.696   5.081  -0.454  0.6478  0.6368 -0.9155
  488MOL0     C65783   1.568   5.050  -0.537 -0.1399  0.0602 -0.6090
  488MOL0     C65784   1.448   5.040  -0.451 -0.1020  0.0318  0.6242
  488MOL0     C65785   1.332   5.020  -0.541  0.1693  0.6151 -0.1156
  488MOL0     C65786   1.213   5.016  -0.446  0.8057 -0.1180  0.7152
  488MOL0     C65787   1.073   5.037  -0.522 -0.7705 -0.4324 -0.3473
  488MOL0     C65788   1.031   4.903  -0.590  0.0178  0.9390  0.7860
  488MOL0     C65789   0.884   4.905  -0.647 -0.4596  0.6932  0.5035
  488MOL0    Cl65790   0.775   4.893  -0.509  0.2326  0.0231 -0.1073
  488MOL0     C65791   1.946   5.142  -0.342  0.2241 -0.6175  0.5786
  488MOL0     C65792   2.064   5.127  -0.270 -0.6373 -0.0050 -0.2210
  488MOL0     O65793   2.277   4.829  -0.273  0.2020  0.2535 -0.1602
  488MOL0     C65794   2.564   5.036  -0.210 -0.2060  0.4285 -0.0995
  488MOL0     C65795   2.697   5.043  -0.164 -0.6283  0.6122 -0.8121
  488MOL0     N65796   3.046   4.636   0.400  0.5567  0.5159  0.3035
  488MOL0     N65797   3.059   4.670   0.517 -0.1334 -0.7321 -0.2455
  488MOL0     C65798   3.679   5.080   1.164  0.0509  0.1909 -0.5924
  488MOL0     C65799   3.817   5.090   1.187 -0.0937 -0.6965 -0.9288
  488MOL0     C65800   4.206   5.164   1.364 -0.4369  0.1755 -0.8451
  488MOL0     C65801   4.283   5.078   1.444 -0.4148 -0.1665 -0.2188
  488MOL0     C65802   4.414   5.100   1.450  0.1149  1.8145  0.4868
  488MOL0     C65803   4.475   5.209   1.388 -1.2382  0.9947 -0.3785
  488MOL0     O65804   4.607   5.248   1.395 -0.1724 -0.1859 -0.1089
  488MOL0     C65805   4.697   5.173   1.481 -0.4508  0.2540  0.4332
  488MOL0     C65806   4.825   5.250   1.488 -0.2060 -0.5962 -0.8738
  488MOL0     C65807   4.936   5.201   1.393  1.0622 -0.4591 -0.4752
  488MOL0     C65808   4.898   5.251   1.253 -0.4629  0.6780 -0.1996
  488MOL0     C65809   5.001   5.209   1.167 -0.2114 -0.3497  0.2184
  488MOL0     C65810   5.100   5.183   1.095 -0.0511 -0.5672 -0.3065
  488MOL0     C65811   4.400   5.301   1.322 -0.0828  0.4004  0.1484
  488MOL0     C65812   4.263   5.278   1.310 -0.6594 -0.0758  0.6195
  488MOL0     H65813   3.801   5.397   1.331  1.7171 -0.4495 -0.6782
  488MOL0     H65814   3.569   5.368   1.312 -3.2724 -1.3430 -0.9654
  488MOL0     H65815   3.395   5.183   1.379  2.0592 -1.4477 -0.3182
  488MOL0     H65816   3.375   5.321   1.267  1.4551 -0.5499  0.8990
  488MOL0     H65817   3.194   5.070   1.319 -0.6169  1.7853  2.6631
  488MOL0     H65818   3.151   5.232   1.293 -1.2454 -0.1820 -1.6331
  488MOL0     H65819   3.206   5.240   1.069 -0.7621  0.0304  0.3053
  488MOL0     H65820   3.261   5.063   1.057 -0.7435 -2.4304  1.6640
  488MOL0     H65821   3.058   4.995   1.126 -1.9278 -1.3926 -1.6271
  488MOL0     H65822   2.982   5.153   1.123 -0.9740  1.4405 -2.6474
  488MOL0     H65823   2.930   5.027   0.908 -0.8512  1.4478 -2.3767
  488MOL0     H65824   3.014   5.174   0.876  0.9133  0.7919  1.8812
  488MOL0     H65825   3.209   5.073   0.806 -2.1843  1.8562 -2.1887
  488MOL0     H65826   3.180   4.919   0.894 -1.4768 -0.2732 -0.1141
  488MOL0     H65827   3.006   4.849   0.737  1.7571 -1.3190  1.0542
  488MOL0     H65828   3.022   5.007   0.650  0.5684  1.0050  0.2092
  488MOL0     H65829   3.239   4.800   0.700  0.4548 -1.2970 -1.9172
  488MOL0     H65830   3.259   4.934   0.597  2.0198 -1.3250  0.3157
  488MOL0     H65831   3.229   4.902   0.359  1.1499 -1.3616  2.2846
  488MOL0     H65832   3.163   4.640   0.137 -1.7945 -2.7545 -0.2152
  488MOL0     H65833   2.993   4.665   0.150  0.9274 -2.0162  0.9100
  488MOL0     H65834   3.201   4.885   0.121  1.3091 -2.2851 -1.0483
  488MOL0     H65835   3.027   4.918   0.109  0.4576  1.2517 -0.7141
  488MOL0     H65836   3.198   4.764  -0.089 -1.7798 -2.6989  1.1604
  488MOL0     H65837   3.150   4.937  -0.104 -0.6687  1.1129 -0.6172
  488MOL0     H65838   2.939   4.715  -0.073  2.4015 -0.4755  1.7266
  488MOL0     H65839   3.006   4.773  -0.227  3.2558 -0.6135  0.1631
  488MOL0     H65840   2.738   4.703  -0.134  0.1885  0.1341  2.2625
  488MOL0     H65841   2.467   4.642  -0.293 -0.0373 -2.1092  0.2991
  488MOL0     H65842   2.555   4.590  -0.150  0.0491  0.7637 -0.2261
  488MOL0     H65843   2.405   4.668  -0.122  1.1366  0.2736  0.9398
  488MOL0     H65844   2.252   4.973  -0.514  1.9220  1.9169  2.0262
  488MOL0     H65845   2.041   4.963  -0.628 -3.8378 -2.3375  0.8515
  488MOL0     H65846   1.696   5.000  -0.380 -3.0291  1.6033  0.3973
  488MOL0     H65847   1.673   5.172  -0.397 -1.9678 -1.2161  1.3009
  488MOL0     H65848   1.570   5.138  -0.601  1.5092 -0.6752 -1.6488
  488MOL0     H65849   1.590   4.956  -0.589  2.8433 -0.1875  0.8544
  488MOL0     H65850   1.447   5.135  -0.397  3.8798  0.4631  0.2234
  488MOL0     H65851   1.454   4.955  -0.383 -0.9367 -0.4364  0.1208
  488MOL0     H65852   1.323   5.093  -0.622 -0.7455 -2.9988 -3.5924
  488MOL0     H65853   1.348   4.928  -0.598 -0.2650  1.1973 -1.2184
  488MOL0     H65854   1.215   5.103  -0.380 -1.7762  0.9408 -0.4288
  488MOL0     H65855   1.202   4.922  -0.391  2.9751 -1.6765 -1.2697
  488MOL0     H65856   1.001   5.058  -0.441  0.5556  1.4799  0.3895
  488MOL0     H65857   1.077   5.125  -0.586 -0.7028  0.3508  0.7063
  488MOL0     H65858   1.043   4.813  -0.530  1.0881  0.6568  0.1793
  488MOL0     H65859   1.098   4.894  -0.677 -0.0458  2.5888  0.5281
  488MOL0     H65860   0.871   4.817  -0.712  1.0380  0.6536  0.2185
  488MOL0     H65861   0.868   5.002  -0.695 -0.5201  1.1743  1.4814
  488MOL0     H65862   1.868   5.207  -0.303 -1.3494 -0.1115 -2.9618
  488MOL0     H65863   2.083   5.162  -0.169  1.3486  1.7003 -1.0937
  488MOL0     H65864   2.524   5.126  -0.254  0.8996  1.6040  1.1794
  488MOL0     H65865   2.754   5.135  -0.160 -0.0913  0.2396  1.1958
  488MOL0     H65866   3.637   4.992   1.115  0.0712  1.9036 -3.9815
  488MOL0     H65867   3.894   5.026   1.146  1.2292  0.8738 -0.9953
  488MOL0     H65868   4.255   4.985   1.492  0.8455 -0.1767  0.5315
  488MOL0     H65869   4.475   5.030   1.506 -0.0724  3.1264  2.4346
  488MOL0     H65870   4.658   5.177   1.583  2.2910  3.7160  1.5512
  488MOL0     H65871   4.706   5.071   1.442  0.7607 -0.1592  1.7223
  488MOL0     H65872   4.866   5.229   1.587  2.2351  1.6556 -1.3014
  488MOL0     H65873   4.812   5.358   1.479 -0.6805 -0.8100 -3.6290
  488MOL0     H65874   4.929   5.092   1.400 -1.4616 -0.3454 -0.1494
  488MOL0     H65875   5.033   5.237   1.429  0.7745 -1.5720  1.5498
  488MOL0     H65876   4.863   5.354   1.240 -2.1614  0.1429 -0.0891
  488MOL0     H65877   4.807   5.195   1.228  0.2673  0.3607 -2.4356
  488MOL0     H65878   5.167   5.155   1.017  0.8100  2.1428 -0.6242
  488MOL0     H65879   4.449   5.383   1.271  0.7061  0.0433  0.3071
  488MOL0     H65880   4.211   5.331   1.231  2.3559 -1.0497 -2.2341
  489MOL0     O65881  10.608   0.346   9.206 -0.8498  0.3171 -0.7952
  489MOL0     C65882  10.666   0.360   9.312  0.5537 -0.9933  0.6864
  489MOL0     O65883  10.614   0.339   9.430  0.2521 -0.2911  0.3245
  489MOL0     C65884  10.479   0.327   9.442  0.1359 -0.7904 -0.9825
  489MOL0     C65885  10.432   0.265   9.555 -0.2745 -0.4599 -0.1910
  489MOL0     C65886  10.304   0.257   9.592  0.0027  0.2743 -0.2755
  489MOL0     C65887  10.200   0.303   9.507 -0.0297  0.5109  0.4612
  489MOL0     O65888  10.064   0.280   9.531 -0.7185  0.2412 -0.1090
  489MOL0     C65889  10.036   0.242   9.666 -0.0362 -0.5250  1.2194
  489MOL0     C65890   9.873   0.243   9.674 -0.0424 -1.6559 -0.1096
  489MOL0     C65891   9.837   0.208   9.825 -0.1221  0.2354  0.7743
  489MOL0     C65892   9.696   0.141   9.830 -0.3199 -0.2334  0.7699
  489MOL0     C65893   9.648   0.138   9.973 -0.4749 -0.2334 -0.5651
  489MOL0     C65894   9.499   0.103   9.980 -0.3955  0.2638 -0.4070
  489MOL0     C65895   9.477  -0.046   9.941  0.0196 -0.1400 -0.8078
  489MOL0     C65896   9.378  -0.125  10.029 -0.2799 -0.4739 -0.1082
  489MOL0     N65897   9.378  -0.270   9.991  0.0441 -0.4434  0.7583
  489MOL0     C65898   9.488  -0.346   9.993 -1.0116  1.2804 -0.0940
  489MOL0     C65899   9.462  -0.455   9.917  0.6160  1.1067 -0.9733
  489MOL0     C65900   9.542  -0.566   9.866 -0.6016 -0.2714 -1.3052
  489MOL0     C65901   9.691  -0.535   9.860 -0.2085 -0.8043 -1.0267
  489MOL0     C65902   9.766  -0.560   9.989  0.7150  0.1390 -0.1907
  489MOL0     C65903   9.906  -0.508   9.981 -0.1779  0.9117  0.5000
  489MOL0     O65904   9.967  -0.556   9.852  0.0734  0.1101 -0.1855
  489MOL0     C65905  10.105  -0.530   9.846 -0.3800  0.9118 -0.8374
  489MOL0     C65906  10.181  -0.575   9.735 -0.5019  0.9078 -0.1273
  489MOL0     C65907  10.321  -0.569   9.730  1.1645 -0.3467 -0.1746
  489MOL0     C65908  10.391  -0.624   9.612  0.7687  0.2542 -0.7073
  489MOL0     C65909  10.392  -0.509   9.840 -0.0355 -0.3600 -0.8523
  489MOL0     C65910  10.538  -0.486   9.846 -0.1762 -0.1538  0.9431
  489MOL0     O65911  10.589  -0.430   9.959  0.3559  0.2512  0.0180
  489MOL0     C65912  10.728  -0.451   9.977 -0.2519 -0.9168 -0.3751
  489MOL0     C65913  10.784  -0.574  10.007  0.1691 -0.0070  0.1165
  489MOL0     C65914  10.917  -0.583  10.034  0.7845 -0.5000 -1.4509
  489MOL0     C65915  11.006  -0.472  10.015  0.1473 -0.4676  0.2927
  489MOL0     O65916  11.137  -0.478  10.046  0.0255  0.4434 -0.9507
  489MOL0     C65917  11.194  -0.602  10.094 -0.2473  0.0324 -0.3581
  489MOL0     C65918  11.339  -0.569  10.101 -1.1758  0.3899  0.1169
  489MOL0     C65919  11.407  -0.684  10.174  0.8680  0.3308  0.3247
  489MOL0     C65920  11.559  -0.688  10.178  0.2081 -0.7544  0.9949
  489MOL0     C65921  11.611  -0.806  10.262  0.5190  0.1247  0.3269
  489MOL0     C65922  11.761  -0.824  10.247  0.1370 -0.5256 -0.3093
  489MOL0     C65923  11.812  -0.918  10.362  0.0213 -0.4930 -1.3365
  489MOL0     C65924  11.912  -1.022  10.325 -0.3950 -0.6581 -0.0560
  489MOL0    Cl65925  11.831  -1.132  10.219  0.2650  0.5030  0.4828
  489MOL0     C65926  10.945  -0.353   9.976 -0.9046 -0.6497 -0.2922
  489MOL0     C65927  10.813  -0.340   9.955  0.6888  0.3746  0.3288
  489MOL0     O65928  10.605  -0.538   9.762 -0.8337 -0.7308 -0.5249
  489MOL0     C65929  10.312  -0.459   9.949 -0.8839  0.3729  0.2026
  489MOL0     C65930  10.177  -0.472   9.950  0.0755 -0.3775  0.3302
  489MOL0     N65931   9.326  -0.454   9.894 -0.1737 -0.4631 -0.2117
  489MOL0     N65932   9.276  -0.336   9.927  0.1618  0.2199  0.3562
  489MOL0     C65933  10.249   0.372   9.400 -0.4334 -0.4090 -0.1567
  489MOL0     C65934  10.383   0.392   9.358 -0.3953  0.4469 -0.5427
  489MOL0     C65935  10.807   0.400   9.312  1.1048  0.1349 -0.1408
  489MOL0     C65936  10.900   0.355   9.408 -0.6981  0.6598  0.6297
  489MOL0     C65937  11.034   0.373   9.393 -0.2765 -0.1275 -0.2820
  489MOL0     C65938  11.090   0.445   9.289 -0.4269 -0.4116  0.1427
  489MOL0     O65939  11.220   0.471   9.270  0.0127  0.7961  0.4591
  489MOL0     C65940  11.318   0.416   9.362  0.2055 -0.9804  1.1527
  489MOL0     C65941  11.455   0.475   9.339 -1.0291 -0.2427  0.6361
  489MOL0     C65942  11.522   0.405   9.213 -0.2111  0.6201  0.3703
  489MOL0     C65943  11.632   0.474   9.140 -0.2254  0.3757  0.5739
  489MOL0     C65944  11.746   0.507   9.227  0.2361  0.4074  0.2217
  489MOL0     C65945  11.824   0.517   9.321 -0.4745  0.3201  0.1285
  489MOL0     C65946  11.002   0.488   9.188 -0.7539 -0.1020 -0.3236
  489MOL0     C65947  10.865   0.468   9.210 -0.4022  0.6426  0.6160
  489MOL0     H65948  10.503   0.217   9.622 -2.4617  1.5057  3.9103
  489MOL0     H65949  10.286   0.216   9.691 -0.0121  0.4670 -0.1982
  489MOL0     H65950  10.066   0.140   9.691  3.2424  0.7226  2.8906
  489MOL0     H65951  10.077   0.312   9.739 -3.8674  1.0221  2.1536
  489MOL0     H65952   9.822   0.338   9.656  0.1515 -0.7129  3.4523
  489MOL0     H65953   9.837   0.163   9.609 -0.1546 -0.1094 -2.0599
  489MOL0     H65954   9.910   0.138   9.866 -0.7605 -0.4789  0.7188
  489MOL0     H65955   9.845   0.301   9.883 -0.1969  0.5710  0.2523
  489MOL0     H65956   9.621   0.188   9.766  0.2845 -0.1176  0.1343
  489MOL0     H65957   9.702   0.036   9.799 -2.6384 -0.7879  1.9401
  489MOL0     H65958   9.709   0.082  10.045  1.1084  0.3666 -1.3940
  489MOL0     H65959   9.651   0.240  10.012  1.7352 -1.9205  4.6390
  489MOL0     H65960   9.443   0.122  10.072 -0.4671 -0.0466 -0.3835
  489MOL0     H65961   9.452   0.170   9.908 -0.1254  2.1653  1.0930
  489MOL0     H65962   9.436  -0.056   9.840 -0.9322 -0.7761 -0.3724
  489MOL0     H65963   9.575  -0.096   9.940  1.1038  1.8711 -1.1186
  489MOL0     H65964   9.275  -0.090  10.026 -0.2760  0.2811  3.6089
  489MOL0     H65965   9.408  -0.113  10.133  1.2670  1.9242 -0.7550
  489MOL0     H65966   9.587  -0.318  10.028 -0.4476 -0.9648  0.2494
  489MOL0     H65967   9.509  -0.655   9.921 -2.5802  0.7164 -0.7999
  489MOL0     H65968   9.518  -0.571   9.759 -2.7768 -0.1766 -0.8587
  489MOL0     H65969   9.715  -0.432   9.830 -0.8646 -0.8292 -1.6632
  489MOL0     H65970   9.728  -0.595   9.777 -0.5478 -1.4363 -0.7268
  489MOL0     H65971   9.769  -0.668  10.006 -2.2165  0.3466  2.7528
  489MOL0     H65972   9.720  -0.513  10.077  0.1192  2.0000 -1.4511
  489MOL0     H65973   9.957  -0.549  10.069 -0.7806  0.3862  0.6067
  489MOL0     H65974   9.899  -0.399   9.983  0.4966  0.9943 -0.9847
  489MOL0     H65975  10.124  -0.627   9.659 -0.2488  1.0689 -0.4284
  489MOL0     H65976  10.321  -0.632   9.529  2.5853 -1.1337 -2.2022
  489MOL0     H65977  10.476  -0.577   9.562  1.7879 -3.1934 -2.5370
  489MOL0     H65978  10.415  -0.730   9.625 -1.2205  0.1351  4.1745
  489MOL0     H65979  10.725  -0.663  10.025 -1.8570  1.7900  3.4716
  489MOL0     H65980  10.952  -0.683  10.058  0.4856 -0.3422 -0.3449
  489MOL0     H65981  11.158  -0.629  10.194 -2.1242  2.4283 -0.2865
  489MOL0     H65982  11.179  -0.686  10.025  4.2900 -0.3552 -1.1731
  489MOL0     H65983  11.373  -0.565   9.997  0.4467  1.7548  0.6500
  489MOL0     H65984  11.365  -0.475  10.152  4.0686 -0.9097  0.3803
  489MOL0     H65985  11.377  -0.779  10.129  1.3441  0.4265 -0.2004
  489MOL0     H65986  11.376  -0.685  10.279  1.3695  0.3634  0.4746
  489MOL0     H65987  11.591  -0.699  10.074  0.2646  4.8596  0.0826
  489MOL0     H65988  11.600  -0.590  10.205 -2.9368  1.0996 -0.3680
  489MOL0     H65989  11.567  -0.902  10.230  2.8409 -1.1851  0.8939
  489MOL0     H65990  11.587  -0.796  10.368 -3.3668 -0.7001 -0.3036
  489MOL0     H65991  11.787  -0.865  10.149 -0.3430 -1.7109  0.0434
  489MOL0     H65992  11.803  -0.723  10.243 -3.2959  0.9940 -1.2166
  489MOL0     H65993  11.725  -0.964  10.410 -0.6946  1.8424 -0.2065
  489MOL0     H65994  11.851  -0.857  10.444 -0.4646 -2.0127  0.0798
  489MOL0     H65995  11.944  -1.070  10.418 -3.0374  0.5823  1.5984
  489MOL0     H65996  12.001  -0.988  10.271 -0.9752 -1.6859 -1.7514
  489MOL0     H65997  11.001  -0.261   9.973  0.7025 -1.6122 -0.9835
  489MOL0     H65998  10.769  -0.241   9.948 -1.0861 -0.4016  0.0363
  489MOL0     H65999  10.344  -0.403  10.036  0.0655  1.7061 -0.9477
  489MOL0     H66000  10.136  -0.431  10.042  2.7501 -0.7351  1.7705
  489MOL0     H66001  10.181   0.417   9.328  0.3956 -0.2900 -0.8727
  489MOL0     H66002  10.395   0.442   9.263  0.7349  0.4207 -0.4247
  489MOL0     H66003  10.872   0.291   9.491  0.8366 -0.2611  0.4829
  489MOL0     H66004  11.111   0.333   9.458  1.0910  3.0700  0.2434
  489MOL0     H66005  11.279   0.417   9.464 -0.1425 -1.1660  1.0224
  489MOL0     H66006  11.328   0.309   9.345 -1.2434 -1.1914  1.5133
  489MOL0     H66007  11.513   0.461   9.430  0.0958 -0.0083 -0.0286
  489MOL0     H66008  11.437   0.580   9.312 -0.0880  1.4804  5.6659
  489MOL0     H66009  11.437   0.396   9.145  0.6484 -0.6938 -0.5895
  489MOL0     H66010  11.558   0.305   9.240  0.3562 -1.2174 -5.5655
  489MOL0     H66011  11.588   0.563   9.095  1.3451  1.0965  0.4055
  489MOL0     H66012  11.673   0.418   9.056 -0.5619  1.0808 -0.0799
  489MOL0     H66013  11.886   0.513   9.408 -1.7528  1.0409  1.0896
  489MOL0     H66014  11.047   0.549   9.110  0.0108  0.0174  0.1949
  489MOL0     H66015  10.799   0.504   9.131  1.5696 -0.2364 -1.5409
  490MOL0     O66016   1.358   4.414   1.740 -0.2921 -1.0097  0.4823
  490MOL0     C66017   1.459   4.349   1.715 -0.2316 -0.1354  1.1636
  490MOL0     O66018   1.462   4.224   1.654  0.2931  0.5622  0.0577
  490MOL0     C66019   1.349   4.148   1.626 -0.5288 -0.1634  0.3897
  490MOL0     C66020   1.229   4.155   1.695 -0.3529  0.1797  0.6869
  490MOL0     C66021   1.117   4.072   1.658 -0.4110 -0.5376  1.8341
  490MOL0     C66022   1.128   3.984   1.549  0.7157  0.0397  0.3707
  490MOL0     O66023   1.027   3.901   1.521 -0.3772 -0.3590  0.1690
  490MOL0     C66024   0.887   3.937   1.517  0.0464  0.0096  0.2423
  490MOL0     C66025   0.793   3.816   1.511  0.1747 -0.0165  0.2061
  490MOL0     C66026   0.746   3.782   1.655 -0.9165 -0.4468  0.3322
  490MOL0     C66027   0.658   3.656   1.669 -0.1440  0.2588  0.0377
  490MOL0     C66028   0.637   3.630   1.815  0.0482 -0.0723 -0.4251
  490MOL0     C66029   0.526   3.525   1.842 -0.0098 -0.0057  0.3690
  490MOL0     C66030   0.392   3.574   1.775 -0.5125  0.1444  0.0519
  490MOL0     C66031   0.272   3.511   1.842 -0.5848  0.0560 -0.4909
  490MOL0     N66032   0.148   3.478   1.766 -0.8249  0.2877 -0.0167
  490MOL0     C66033   0.022   3.445   1.822 -0.9686  0.3892 -0.0391
  490MOL0     C66034  -0.060   3.415   1.715  0.4467 -1.0268 -0.4576
  490MOL0     C66035  -0.204   3.377   1.718  0.1689  0.0620 -1.3942
  490MOL0     C66036  -0.203   3.241   1.780 -1.0633 -0.0486  0.0983
  490MOL0     C66037  -0.344   3.183   1.786  0.0368  0.3447 -0.0885
  490MOL0     C66038  -0.328   3.034   1.830  0.3526  0.5167  0.2185
  490MOL0     O66039  -0.456   2.980   1.805 -0.0093  0.5689  0.4452
  490MOL0     C66040  -0.490   2.848   1.854 -0.0627  0.5887  1.1498
  490MOL0     C66041  -0.615   2.794   1.816 -0.6041 -1.2560  0.3469
  490MOL0     C66042  -0.665   2.663   1.845 -0.3076  0.1472  0.4122
  490MOL0     C66043  -0.797   2.620   1.778 -0.6378  0.0419 -0.9976
  490MOL0     C66044  -0.590   2.587   1.943  0.6582  0.3111  1.1442
  490MOL0     C66045  -0.639   2.466   2.008 -0.8457 -0.0484  0.2714
  490MOL0     O66046  -0.542   2.391   2.067 -0.4554  0.3349  0.2767
  490MOL0     C66047  -0.573   2.265   2.127 -0.0476 -1.0265  0.0717
  490MOL0     C66048  -0.482   2.164   2.095 -1.0373 -0.7942  0.1234
  490MOL0     C66049  -0.483   2.040   2.157 -0.1107  1.3186 -0.4742
  490MOL0     C66050  -0.575   2.016   2.268 -0.1025 -1.5051  0.7213
  490MOL0     O66051  -0.567   1.891   2.316 -0.4431  0.1494 -0.2790
  490MOL0     C66052  -0.641   1.865   2.437  0.2664 -0.5966 -0.2389
  490MOL0     C66053  -0.663   1.710   2.457  0.5165 -0.6529 -0.2691
  490MOL0     C66054  -0.755   1.671   2.567  1.1172  0.1381  0.7735
  490MOL0     C66055  -0.778   1.523   2.608 -0.0624 -0.2783  0.4250
  490MOL0     C66056  -0.892   1.515   2.714  0.4475 -0.0552 -0.2730
  490MOL0     C66057  -0.872   1.403   2.815  0.2053 -0.1972  0.1619
  490MOL0     C66058  -0.994   1.397   2.900  0.6847  0.3222 -0.7743
  490MOL0     C66059  -0.960   1.386   3.054  0.0482 -0.0613  0.3692
  490MOL0    Cl66060  -0.890   1.219   3.092  0.5480 -0.6820  0.2626
  490MOL0     C66061  -0.655   2.123   2.309 -0.1333 -0.3365  0.5583
  490MOL0     C66062  -0.652   2.253   2.240 -0.1144 -0.0603  0.4664
  490MOL0     O66063  -0.756   2.441   2.002  0.6090  0.1618 -0.4856
  490MOL0     C66064  -0.464   2.643   1.981 -0.6053  0.6370  0.7004
  490MOL0     C66065  -0.418   2.764   1.934  0.1588 -1.1160  0.2143
  490MOL0     N66066   0.011   3.431   1.601  0.6769 -0.3830  0.3515
  490MOL0     N66067   0.121   3.475   1.632 -0.6660 -0.3209  0.5564
  490MOL0     C66068   1.250   3.970   1.487 -0.1293 -0.3536 -0.1749
  490MOL0     C66069   1.363   4.051   1.527  0.9546  0.1407  0.1956
  490MOL0     C66070   1.585   4.429   1.732  0.1279  0.2573 -0.1427
  490MOL0     C66071   1.587   4.572   1.761 -0.3143 -0.7858  0.3447
  490MOL0     C66072   1.710   4.644   1.737  0.4771  0.3656 -0.5597
  490MOL0     C66073   1.825   4.576   1.693 -0.3698  0.0086  0.5732
  490MOL0     O66074   1.937   4.649   1.680 -0.4466  0.3907  0.7530
  490MOL0     C66075   2.049   4.572   1.726 -0.0420 -0.3264 -0.2797
  490MOL0     C66076   2.188   4.639   1.757 -0.0224  0.5823  0.3578
  490MOL0     C66077   2.190   4.701   1.896 -0.8378 -0.4456 -0.3005
  490MOL0     C66078   2.139   4.840   1.899  0.4434  0.3486 -0.0082
  490MOL0     C66079   2.171   4.911   2.022 -0.1145 -0.3493 -0.5265
  490MOL0     C66080   2.192   5.000   2.106 -0.1076  0.6202 -0.1624
  490MOL0     C66081   1.816   4.438   1.665 -0.4559  0.0811  0.6487
  490MOL0     C66082   1.702   4.363   1.686  0.5661  0.4153 -0.1326
  490MOL0     H66083   1.213   4.218   1.783 -1.2976  0.5483  0.2697
  490MOL0     H66084   1.035   4.072   1.729  0.8753 -1.6981  3.4230
  490MOL0     H66085   0.857   4.004   1.598 -1.3184 -0.3111  0.0289
  490MOL0     H66086   0.875   3.989   1.422 -1.7957 -1.3948 -0.3427
  490MOL0     H66087   0.709   3.839   1.445  0.4099  2.6632  0.7170
  490MOL0     H66088   0.844   3.733   1.462  0.8234 -1.0462  2.5003
  490MOL0     H66089   0.834   3.770   1.719 -0.4462 -0.3165 -0.2686
  490MOL0     H66090   0.686   3.868   1.688 -1.6875  0.3838 -2.8401
  490MOL0     H66091   0.563   3.680   1.621 -1.2981  4.5216  3.7223
  490MOL0     H66092   0.709   3.574   1.618  1.1873  1.0674  0.0121
  490MOL0     H66093   0.726   3.607   1.873 -1.8198 -0.6122  2.4149
  490MOL0     H66094   0.601   3.724   1.857  0.1073  1.0106 -2.6671
  490MOL0     H66095   0.558   3.425   1.812 -1.8613 -0.7819  0.8116
  490MOL0     H66096   0.509   3.528   1.950  0.4117  2.8872  0.4409
  490MOL0     H66097   0.382   3.681   1.795  0.1473 -0.1404  2.2661
  490MOL0     H66098   0.389   3.537   1.672  1.6791  1.2294 -0.4365
  490MOL0     H66099   0.241   3.581   1.920 -2.0230 -0.1074 -0.8864
  490MOL0     H66100   0.296   3.417   1.893  2.5615  0.8268 -0.3438
  490MOL0     H66101  -0.007   3.418   1.923 -0.7173 -2.5649 -0.6627
  490MOL0     H66102  -0.267   3.450   1.769  1.9426  1.4166 -1.0587
  490MOL0     H66103  -0.242   3.363   1.617 -1.6591 -0.6728 -0.6478
  490MOL0     H66104  -0.160   3.251   1.880  3.2802  0.2509 -1.5829
  490MOL0     H66105  -0.124   3.184   1.729 -1.1945  0.5577 -0.8121
  490MOL0     H66106  -0.399   3.191   1.691  0.5423  3.1124 -0.2240
  490MOL0     H66107  -0.403   3.240   1.857  2.0288  1.6192  0.5991
  490MOL0     H66108  -0.307   3.031   1.938  1.8565 -0.0743 -0.0617
  490MOL0     H66109  -0.252   2.990   1.764 -1.7553 -2.7199 -0.2613
  490MOL0     H66110  -0.665   2.869   1.755  2.2590  1.5841  1.2532
  490MOL0     H66111  -0.884   2.639   1.841  0.2667  1.7872 -0.1917
  490MOL0     H66112  -0.814   2.679   1.687 -0.6851 -1.2207 -1.8288
  490MOL0     H66113  -0.800   2.516   1.744  0.1273 -0.1698 -0.4560
  490MOL0     H66114  -0.406   2.183   2.020 -1.2419 -0.2318  0.0538
  490MOL0     H66115  -0.421   1.954   2.135 -0.3702  0.8055  0.7617
  490MOL0     H66116  -0.585   1.905   2.522  1.0043  0.2260 -1.0940
  490MOL0     H66117  -0.743   1.906   2.436  0.2454 -0.2872  2.9602
  490MOL0     H66118  -0.706   1.689   2.358  0.1051  0.0090 -0.2350
  490MOL0     H66119  -0.565   1.662   2.451  0.7623 -0.0005 -2.4189
  490MOL0     H66120  -0.854   1.714   2.550  1.9357  1.3177 -1.3757
  490MOL0     H66121  -0.717   1.723   2.655 -0.3471  1.4729  0.6608
  490MOL0     H66122  -0.803   1.467   2.518  2.4598  1.1701 -1.3276
  490MOL0     H66123  -0.682   1.483   2.645 -1.2173 -1.5575  2.1898
  490MOL0     H66124  -0.991   1.522   2.669 -0.4764 -2.4425  1.1856
  490MOL0     H66125  -0.889   1.596   2.788 -0.6666 -0.3524  0.1198
  490MOL0     H66126  -0.857   1.308   2.762 -2.2760 -0.0388 -0.9731
  490MOL0     H66127  -0.784   1.420   2.878 -1.9566 -0.3634  3.5081
  490MOL0     H66128  -1.039   1.301   2.873  0.5430 -1.1269  3.6786
  490MOL0     H66129  -1.064   1.480   2.895  0.1670 -0.1545 -1.6084
  490MOL0     H66130  -1.048   1.403   3.116  1.1285 -1.1207  2.3018
  490MOL0     H66131  -0.897   1.463   3.097 -0.1499 -0.2288  0.9727
  490MOL0     H66132  -0.723   2.106   2.392 -0.0296 -0.2460  0.6622
  490MOL0     H66133  -0.706   2.331   2.292 -2.2709 -0.3123 -1.2285
  490MOL0     H66134  -0.399   2.579   2.040 -0.1531  0.4058 -0.0484
  490MOL0     H66135  -0.327   2.799   1.983 -0.9298  1.6631  0.4606
  490MOL0     H66136   1.258   3.897   1.407  0.5032  1.1372 -1.5241
  490MOL0     H66137   1.459   4.052   1.476  0.9257  1.2628  0.1479
  490MOL0     H66138   1.493   4.627   1.771 -0.7129 -1.2911 -0.5301
  490MOL0     H66139   1.732   4.749   1.753 -0.5120  0.4670  0.2077
  490MOL0     H66140   2.025   4.519   1.819 -0.3654  0.2245 -0.0408
  490MOL0     H66141   2.077   4.504   1.645  2.7952  0.4376 -0.0418
  490MOL0     H66142   2.206   4.722   1.687 -0.9080 -0.7774 -1.5699
  490MOL0     H66143   2.260   4.558   1.739 -0.2533  0.8159 -1.9479
  490MOL0     H66144   2.297   4.709   1.919  0.1009 -1.7781 -3.5342
  490MOL0     H66145   2.151   4.632   1.971 -2.5362  1.0782  0.2995
  490MOL0     H66146   2.031   4.839   1.883  0.3616 -1.9475  0.3285
  490MOL0     H66147   2.189   4.891   1.816 -2.2663  0.4333 -1.7046
  490MOL0     H66148   2.213   5.062   2.191  4.1250 -1.3170  0.4555
  490MOL0     H66149   1.902   4.373   1.649 -0.7368  0.1372 -1.2839
  490MOL0     H66150   1.708   4.256   1.671  2.4006  0.8786 -4.0498
  491MOL0     O66151   0.311  10.572   8.893 -0.0839 -0.0161  0.1537
  491MOL0     C66152   0.342  10.458   8.847 -0.0080 -0.2520  0.0243
  491MOL0     O66153   0.250  10.375   8.788 -0.1984 -0.2081 -0.0798
  491MOL0     C66154   0.117  10.367   8.808  0.3306 -0.4053 -0.1443
  491MOL0     C66155   0.042  10.438   8.904  0.0130  0.5689 -0.1555
  491MOL0     C66156  -0.094  10.406   8.924 -0.0854  0.9079 -0.0950
  491MOL0     C66157  -0.157  10.293   8.870 -0.3768  0.0028  0.6139
  491MOL0     O66158  -0.282  10.256   8.914  0.2470 -0.2537  0.4883
  491MOL0     C66159  -0.375  10.196   8.823 -0.0418 -0.2943 -0.1687
  491MOL0     C66160  -0.503  10.196   8.904  0.0440 -0.0958 -0.3860
  491MOL0     C66161  -0.625  10.147   8.813  0.1169 -0.4258  0.0014
  491MOL0     C66162  -0.760  10.130   8.887  1.2836 -0.1591  0.4379
  491MOL0     C66163  -0.825  10.262   8.921 -0.1521 -0.5312 -0.6319
  491MOL0     C66164  -0.963  10.247   9.000  0.2703  0.4438 -0.2915
  491MOL0     C66165  -1.042  10.380   8.989  0.2627  0.3208  0.1882
  491MOL0     C66166  -1.148  10.384   8.880  0.1374 -0.0663  0.2053
  491MOL0     N66167  -1.276  10.314   8.901 -0.9299 -0.6142 -0.5001
  491MOL0     C66168  -1.387  10.369   8.955  0.3519  0.0363  0.1572
  491MOL0     C66169  -1.464  10.265   8.987  0.2780  0.2065  0.3086
  491MOL0     C66170  -1.610  10.302   9.024 -0.1107 -0.6056 -0.0184
  491MOL0     C66171  -1.710  10.275   8.912  0.4374  0.7513 -0.1302
  491MOL0     C66172  -1.701  10.136   8.852 -0.6816 -0.5019 -0.3188
  491MOL0     C66173  -1.835  10.086   8.783  0.2547 -0.3834  0.5910
  491MOL0     O66174  -1.849  10.171   8.661  0.0049 -0.2350  0.1993
  491MOL0     C66175  -1.948  10.144   8.578 -0.0676  0.6468 -0.2997
  491MOL0     C66176  -1.976  10.248   8.498  0.1604 -0.8462 -0.0199
  491MOL0     C66177  -2.094  10.260   8.423  0.0069 -0.5839  0.1160
  491MOL0     C66178  -2.106  10.383   8.333 -0.5023 -1.0331 -0.3070
  491MOL0     C66179  -2.188  10.162   8.427  0.2072  0.3507  0.6384
  491MOL0     C66180  -2.319  10.157   8.353 -0.2486  0.4328  0.2669
  491MOL0     O66181  -2.358  10.266   8.283 -0.0364 -0.4338 -0.6746
  491MOL0     C66182  -2.468  10.270   8.197 -0.2935 -0.9168  0.4280
  491MOL0     C66183  -2.454  10.341   8.077  0.5270  0.0885  0.6777
  491MOL0     C66184  -2.576  10.340   7.992  0.0244 -0.1304 -0.2538
  491MOL0     C66185  -2.687  10.258   8.011 -0.0854 -0.4413  0.7863
  491MOL0     O66186  -2.790  10.244   7.914 -0.1747 -0.4497  0.2210
  491MOL0     C66187  -2.916  10.178   7.930 -0.4493 -0.0796  0.0253
  491MOL0     C66188  -2.986  10.171   7.797 -0.1251  0.1549  0.6234
  491MOL0     C66189  -2.925  10.074   7.702 -0.2957  0.4951 -0.1965
  491MOL0     C66190  -2.983  10.057   7.564  0.2197 -0.3022 -0.0124
  491MOL0     C66191  -3.002  10.188   7.477  0.2978 -0.5199 -0.2583
  491MOL0     C66192  -3.055  10.158   7.334 -1.4181 -0.3424  0.6931
  491MOL0     C66193  -2.971  10.068   7.249 -0.0909  0.7919  0.4328
  491MOL0     C66194  -2.826  10.111   7.205  0.6645 -1.4524  0.0629
  491MOL0    Cl66195  -2.738   9.968   7.181  0.3662  0.3086 -0.0017
  491MOL0     C66196  -2.698  10.192   8.128  0.4619  0.1952  0.3946
  491MOL0     C66197  -2.595  10.208   8.226 -0.3607  1.5089 -0.2417
  491MOL0     O66198  -2.389  10.052   8.356 -0.9873  0.1498  0.3760
  491MOL0     C66199  -2.156  10.051   8.508 -0.5763  0.2687  0.1716
  491MOL0     C66200  -2.042  10.046   8.585  0.2528  0.8326  0.0695
  491MOL0     N66201  -1.396  10.145   8.960 -0.2297 -0.1742  0.3157
  491MOL0     N66202  -1.284  10.181   8.914  0.5226 -0.1961 -0.5637
  491MOL0     C66203  -0.072  10.215   8.788 -0.7493 -0.0225  0.0358
  491MOL0     C66204   0.057  10.254   8.752  0.5090  1.0298 -1.1028
  491MOL0     C66205   0.472  10.413   8.857 -0.9396  0.2870 -0.3685
  491MOL0     C66206   0.563  10.458   8.953  0.1021  0.2149  0.0380
  491MOL0     C66207   0.698  10.415   8.961  0.4222 -1.2438 -0.2979
  491MOL0     C66208   0.743  10.331   8.869 -0.0138  0.6933  0.5109
  491MOL0     O66209   0.871  10.278   8.870 -0.2188  0.5681  0.0762
  491MOL0     C66210   0.969  10.279   8.978  0.3052 -0.5892 -0.3315
  491MOL0     C66211   1.059  10.164   8.954 -0.1032 -0.2071  0.3916
  491MOL0     C66212   1.006  10.041   9.024 -0.6262  0.2290 -1.6150
  491MOL0     C66213   1.100   9.934   9.057  0.0038 -0.3254  0.3376
  491MOL0     C66214   1.042   9.822   9.141  0.0215  0.6209 -0.2737
  491MOL0     C66215   0.996   9.728   9.205 -0.0440  0.1242  0.4759
  491MOL0     C66216   0.662  10.283   8.767 -0.2341 -0.2341 -0.4234
  491MOL0     C66217   0.531  10.328   8.758  0.2133  0.0893 -0.1793
  491MOL0     H66218   0.084  10.522   8.959 -3.5469  3.4065 -1.3498
  491MOL0     H66219  -0.157  10.470   8.985  0.9568  1.2694  0.6460
  491MOL0     H66220  -0.383  10.257   8.732  0.2580 -1.3272 -0.9099
  491MOL0     H66221  -0.342  10.093   8.807 -0.3306 -0.5028  0.5722
  491MOL0     H66222  -0.498  10.133   8.994 -0.7847  1.5566  0.8866
  491MOL0     H66223  -0.521  10.298   8.941  0.0840 -0.8624  1.9025
  491MOL0     H66224  -0.638  10.218   8.732 -0.8433 -1.0731 -0.4314
  491MOL0     H66225  -0.587  10.058   8.762  0.2732  0.1334 -0.8743
  491MOL0     H66226  -0.831  10.061   8.841  1.0289 -0.5613  1.3965
  491MOL0     H66227  -0.736  10.070   8.976  0.1927 -0.4905  0.5161
  491MOL0     H66228  -0.749  10.323   8.970 -1.5952 -0.0756  1.1759
  491MOL0     H66229  -0.854  10.311   8.828 -0.5367  1.0760  0.2857
  491MOL0     H66230  -1.022  10.168   8.952 -0.3419  0.2256  0.7807
  491MOL0     H66231  -0.945  10.231   9.107  1.1715  4.4005  0.3021
  491MOL0     H66232  -1.103  10.393   9.079  0.6932  3.2891  0.1433
  491MOL0     H66233  -0.973  10.465   8.985  0.5059  0.2182  1.7159
  491MOL0     H66234  -1.116  10.359   8.779 -2.3411 -0.9869 -0.4244
  491MOL0     H66235  -1.173  10.490   8.881 -1.7244 -0.4625 -0.7397
  491MOL0     H66236  -1.409  10.475   8.965  1.6695  0.5376 -1.8179
  491MOL0     H66237  -1.639  10.243   9.111 -3.0490 -1.7193 -1.5938
  491MOL0     H66238  -1.613  10.410   9.045  1.0188 -0.1454 -1.9670
  491MOL0     H66239  -1.696  10.343   8.828  0.8639 -0.3722 -1.0002
  491MOL0     H66240  -1.805  10.297   8.960 -0.8746 -1.0486 -1.7686
  491MOL0     H66241  -1.672  10.073   8.937  0.3202  1.4686  0.8852
  491MOL0     H66242  -1.622  10.136   8.777 -1.6275  2.3040 -1.4210
  491MOL0     H66243  -1.918  10.095   8.853  0.0045 -0.5154  0.3125
  491MOL0     H66244  -1.820   9.984   8.747  3.5266  0.7676 -1.7957
  491MOL0     H66245  -1.909  10.334   8.495 -2.4512  1.3839  1.4563
  491MOL0     H66246  -2.117  10.357   8.228 -1.7304 -3.3650  0.3238
  491MOL0     H66247  -2.197  10.437   8.362 -1.8290 -3.3997  0.2064
  491MOL0     H66248  -2.014  10.442   8.336 -0.2124 -1.4890 -0.2539
  491MOL0     H66249  -2.359  10.391   8.061  0.2756  1.0831  2.1000
  491MOL0     H66250  -2.573  10.393   7.897  1.9055 -0.5039 -0.4536
  491MOL0     H66251  -2.900  10.074   7.960 -1.3787 -0.5508 -1.0603
  491MOL0     H66252  -2.975  10.235   8.003  0.8616  1.9254 -0.4127
  491MOL0     H66253  -3.088  10.138   7.820  0.4979 -0.6572  2.4511
  491MOL0     H66254  -2.992  10.274   7.761 -0.3971 -0.4058 -0.9835
  491MOL0     H66255  -2.918   9.980   7.757 -1.3241  0.4233 -0.1816
  491MOL0     H66256  -2.824  10.117   7.706  0.7864 -1.9359  2.7251
  491MOL0     H66257  -2.928   9.978   7.512 -1.2394 -1.9193  0.8316
  491MOL0     H66258  -3.085  10.023   7.583  0.0501  0.4642  0.4977
  491MOL0     H66259  -2.911  10.247   7.466 -0.1606  0.0465 -1.0814
  491MOL0     H66260  -3.069  10.253   7.534 -0.5222 -2.6503  1.3620
  491MOL0     H66261  -3.145  10.097   7.347 -0.9630 -2.4214 -4.0022
  491MOL0     H66262  -3.087  10.247   7.279 -0.3103 -1.4563 -1.9019
  491MOL0     H66263  -3.020  10.058   7.152  1.8755  3.6234 -0.9760
  491MOL0     H66264  -2.973   9.970   7.297  0.5689  0.6747  0.2274
  491MOL0     H66265  -2.768  10.175   7.272  0.3203  2.0821 -2.7186
  491MOL0     H66266  -2.845  10.169   7.115 -1.6286 -0.0669  1.3306
  491MOL0     H66267  -2.784  10.134   8.162  0.1799 -0.0046 -0.6091
  491MOL0     H66268  -2.608  10.145   8.314 -1.4825 -4.9874 -4.3860
  491MOL0     H66269  -2.228   9.971   8.524 -3.0336  2.8224  3.2117
  491MOL0     H66270  -2.031   9.963   8.655  0.8806 -0.1873 -1.1806
  491MOL0     H66271  -0.101  10.121   8.741 -1.7897 -1.1130  2.6693
  491MOL0     H66272   0.113  10.187   8.688  0.2638 -0.2075 -0.0405
  491MOL0     H66273   0.528  10.514   9.039  0.2884 -1.5226  1.2961
  491MOL0     H66274   0.751  10.466   9.041 -0.7386 -0.7370  0.1810
  491MOL0     H66275   1.020  10.375   8.967 -0.6161 -0.1038 -0.4852
  491MOL0     H66276   0.932  10.288   9.081  1.3505 -2.2370  0.2277
  491MOL0     H66277   1.157  10.179   9.000  0.6279 -0.5893 -1.0048
  491MOL0     H66278   1.060  10.150   8.846 -0.4516  0.1834  0.3317
  491MOL0     H66279   0.933   9.999   8.954 -1.3397 -0.0061 -0.7492
  491MOL0     H66280   0.971  10.074   9.122  0.9862  1.0367 -1.2786
  491MOL0     H66281   1.185   9.980   9.108  0.7926 -0.7696 -0.5421
  491MOL0     H66282   1.134   9.887   8.964 -2.1576 -2.1623  0.3880
  491MOL0     H66283   0.964   9.637   9.253  1.1768 -0.1160  0.8769
  491MOL0     H66284   0.697  10.212   8.693 -1.1377 -0.7478 -0.3716
  491MOL0     H66285   0.479  10.278   8.677 -0.9976 -1.1311  1.2945
  492MOL0     O66286   9.031   1.300   2.872 -0.4417 -0.0647  0.4075
  492MOL0     C66287   8.993   1.262   2.764 -0.3213 -0.2971  0.1992
  492MOL0     O66288   8.960   1.338   2.656  0.7636 -0.0454 -0.0707
  492MOL0     C66289   8.902   1.463   2.675  0.7076 -0.9406  0.0812
  492MOL0     C66290   8.851   1.511   2.794  0.2638 -0.9265 -0.0715
  492MOL0     C66291   8.779   1.633   2.807  0.3725 -0.3577  1.0611
  492MOL0     C66292   8.759   1.705   2.690 -0.2725 -1.3213  0.9092
  492MOL0     O66293   8.682   1.824   2.673 -0.4247  0.1421  0.4238
  492MOL0     C66294   8.620   1.906   2.782  0.6287  0.7416 -0.1830
  492MOL0     C66295   8.486   1.834   2.815 -0.7366 -0.5903  0.4589
  492MOL0     C66296   8.380   1.826   2.700  0.0317 -0.1636 -0.6025
  492MOL0     C66297   8.259   1.736   2.742  0.6265  0.3735 -0.1867
  492MOL0     C66298   8.150   1.735   2.636  0.0208 -0.5549 -0.0784
  492MOL0     C66299   8.048   1.851   2.640  0.1331  0.1158 -0.4485
  492MOL0     C66300   7.954   1.834   2.531 -0.1210 -0.1289  0.2669
  492MOL0     C66301   7.832   1.930   2.533 -0.6377  0.6345 -1.1184
  492MOL0     N66302   7.757   1.939   2.662 -0.0467  0.2075  0.2037
  492MOL0     C66303   7.721   1.853   2.755 -0.4426  0.4395 -0.5208
  492MOL0     C66304   7.650   1.919   2.849  0.5041 -0.6445 -0.6290
  492MOL0     C66305   7.602   1.859   2.981  0.1624 -1.1544  0.1187
  492MOL0     C66306   7.457   1.805   2.972  0.3012 -0.3718  0.1564
  492MOL0     C66307   7.361   1.920   3.005 -0.1579  0.1878  0.1570
  492MOL0     C66308   7.222   1.888   2.945  0.0594  0.0265 -0.7476
  492MOL0     O66309   7.237   1.906   2.804 -0.8093  0.7429 -0.0659
  492MOL0     C66310   7.117   1.898   2.739 -0.1827  0.0793  0.4811
  492MOL0     C66311   7.120   1.892   2.592 -0.1595  0.4934 -0.1064
  492MOL0     C66312   6.999   1.893   2.512  0.0439  0.8057 -1.1814
  492MOL0     C66313   7.005   1.896   2.358 -1.0080 -0.5637  0.4395
  492MOL0     C66314   6.874   1.888   2.586 -0.8146  0.2505 -0.1578
  492MOL0     C66315   6.741   1.858   2.517  0.4463  0.0849  0.1380
  492MOL0     O66316   6.629   1.896   2.584  0.1465  0.9252 -0.5878
  492MOL0     C66317   6.509   1.841   2.564  0.2937  0.3313 -0.2720
  492MOL0     C66318   6.504   1.695   2.538  0.6184 -0.0962  0.6281
  492MOL0     C66319   6.384   1.624   2.512 -1.0441  0.5863  0.1539
  492MOL0     C66320   6.262   1.693   2.530  0.0398 -0.2769 -0.7325
  492MOL0     O66321   6.151   1.622   2.529  0.3161 -0.2081 -0.1623
  492MOL0     C66322   6.023   1.690   2.489  0.5190 -0.0929  0.4283
  492MOL0     C66323   5.931   1.571   2.438  0.0029 -0.2526 -0.3004
  492MOL0     C66324   5.910   1.479   2.554 -0.4875  0.4715  0.3978
  492MOL0     C66325   5.757   1.435   2.540 -0.0396 -0.3851  0.0074
  492MOL0     C66326   5.729   1.316   2.644  0.5737 -0.2571 -0.0233
  492MOL0     C66327   5.779   1.186   2.575  0.2527 -0.4322 -0.4560
  492MOL0     C66328   5.719   1.068   2.642  0.5001 -0.2789  1.2084
  492MOL0     C66329   5.748   0.940   2.579 -0.4893  0.9004  0.7897
  492MOL0    Cl66330   5.604   0.831   2.616  0.2585 -0.2311  0.1649
  492MOL0     C66331   6.269   1.834   2.564  0.4324  0.3781  0.1730
  492MOL0     C66332   6.390   1.898   2.576 -0.3856  0.2018 -0.8398
  492MOL0     O66333   6.735   1.786   2.417 -0.2291  0.4578 -0.4085
  492MOL0     C66334   6.865   1.889   2.722 -0.1693 -0.9358  0.3084
  492MOL0     C66335   6.981   1.902   2.795 -0.3556  0.4317 -0.0666
  492MOL0     N66336   7.626   2.049   2.815  0.0736  0.1623 -0.0022
  492MOL0     N66337   7.684   2.057   2.689 -0.5830 -0.1059  0.1264
  492MOL0     C66338   8.817   1.664   2.572 -1.0344 -0.4220  0.3258
  492MOL0     C66339   8.881   1.542   2.562 -0.0091  0.7207  0.0491
  492MOL0     C66340   9.010   1.118   2.727  0.1097  0.0289  0.9365
  492MOL0     C66341   8.990   1.069   2.598  0.2871 -0.2606 -0.1019
  492MOL0     C66342   9.015   0.933   2.570 -0.0821  0.0270  0.7754
  492MOL0     C66343   9.062   0.841   2.672 -0.9128 -0.8914  1.1439
  492MOL0     O66344   9.102   0.716   2.645 -0.0165  0.0537  0.1267
  492MOL0     C66345   9.160   0.672   2.523 -0.9231  0.2767 -0.2711
  492MOL0     C66346   9.075   0.570   2.449 -0.3622  0.2480 -0.6754
  492MOL0     C66347   9.173   0.493   2.354  1.0224  0.0929  0.0734
  492MOL0     C66348   9.092   0.369   2.283 -0.4042 -1.0858  0.4083
  492MOL0     C66349   9.181   0.274   2.214  0.8037  0.0518  0.6961
  492MOL0     C66350   9.267   0.202   2.169  0.4882  0.0534  0.7624
  492MOL0     C66351   9.084   0.891   2.800  0.7991 -0.0218 -0.3648
  492MOL0     C66352   9.044   1.025   2.829 -1.1273 -0.5232  0.6527
  492MOL0     H66353   8.863   1.446   2.880  0.5826  0.6099  1.0869
  492MOL0     H66354   8.750   1.670   2.905  2.1861  0.6204  1.2820
  492MOL0     H66355   8.674   1.903   2.878 -1.0976 -1.3334  0.8250
  492MOL0     H66356   8.592   2.007   2.752 -2.4174  0.2358  0.6873
  492MOL0     H66357   8.505   1.736   2.860  0.1343  0.4381  2.4264
  492MOL0     H66358   8.440   1.902   2.887 -0.1278 -1.4381  1.6950
  492MOL0     H66359   8.348   1.928   2.677 -0.1332  0.6440  2.6304
  492MOL0     H66360   8.428   1.778   2.614  2.1098 -0.9559  0.9032
  492MOL0     H66361   8.299   1.634   2.747  0.1230  0.2316  1.6251
  492MOL0     H66362   8.211   1.773   2.833 -3.7241 -0.8784 -1.7586
  492MOL0     H66363   8.214   1.752   2.549  0.5522 -1.7009  0.0734
  492MOL0     H66364   8.101   1.638   2.625  1.6675 -1.3632 -0.5719
  492MOL0     H66365   7.992   1.858   2.734 -1.7897 -3.1260 -1.2054
  492MOL0     H66366   8.106   1.942   2.625  0.1126  0.1570 -0.2822
  492MOL0     H66367   8.012   1.836   2.438 -0.5853 -2.1497 -0.1119
  492MOL0     H66368   7.931   1.728   2.541  1.1754 -0.4758 -0.1357
  492MOL0     H66369   7.758   1.897   2.461  1.5981 -2.1702 -2.3302
  492MOL0     H66370   7.877   2.026   2.503 -0.6256  0.8127 -0.5501
  492MOL0     H66371   7.755   1.750   2.754 -2.9050 -0.4848  1.3170
  492MOL0     H66372   7.662   1.772   3.011 -0.2974 -2.1160 -1.6314
  492MOL0     H66373   7.605   1.934   3.061 -0.1482  0.0311 -0.9567
  492MOL0     H66374   7.440   1.732   3.051 -1.2117 -1.8805 -1.4863
  492MOL0     H66375   7.434   1.766   2.873  0.3664  1.6724 -0.7083
  492MOL0     H66376   7.395   2.015   2.964 -0.9523  0.9010  1.1189
  492MOL0     H66377   7.346   1.925   3.113 -2.9128 -4.2883  0.2464
  492MOL0     H66378   7.157   1.961   2.994 -0.7699 -2.2495  1.8083
  492MOL0     H66379   7.180   1.788   2.960 -1.3189  0.7992  0.9287
  492MOL0     H66380   7.220   1.891   2.550 -0.8972  0.6129 -1.9813
  492MOL0     H66381   7.039   1.997   2.333 -3.8191  0.4563  0.3022
  492MOL0     H66382   7.070   1.820   2.315 -0.3005  1.1855 -1.7852
  492MOL0     H66383   6.911   1.895   2.300 -0.0915 -3.0304 -1.1656
  492MOL0     H66384   6.599   1.641   2.536  1.0632  0.6397 -1.8876
  492MOL0     H66385   6.366   1.519   2.488  1.0455  0.6401 -2.0293
  492MOL0     H66386   5.984   1.743   2.577 -1.0012  1.5179 -1.1447
  492MOL0     H66387   6.043   1.753   2.402 -0.7104 -1.7845 -1.1300
  492MOL0     H66388   5.837   1.609   2.396  0.1763  0.6050  0.0708
  492MOL0     H66389   5.984   1.524   2.355  0.9115  0.9147 -0.4093
  492MOL0     H66390   5.923   1.531   2.650  0.4599  0.5400  0.2405
  492MOL0     H66391   5.975   1.391   2.553  2.9478  2.7169 -2.8687
  492MOL0     H66392   5.689   1.519   2.556  2.8496  2.2224 -0.3030
  492MOL0     H66393   5.735   1.394   2.441 -1.9909 -0.6552  0.5118
  492MOL0     H66394   5.621   1.319   2.654  0.6689  1.2508  0.7594
  492MOL0     H66395   5.771   1.349   2.740 -2.2360  0.1310  1.1559
  492MOL0     H66396   5.742   1.189   2.473 -2.7910  2.2807  0.5761
  492MOL0     H66397   5.886   1.165   2.583  0.0762 -1.1005  0.3351
  492MOL0     H66398   5.613   1.092   2.632  1.1407  2.2218 -0.2950
  492MOL0     H66399   5.759   1.071   2.744  2.5851 -2.3527  0.5507
  492MOL0     H66400   5.846   0.897   2.602 -1.5678 -1.3914  1.4569
  492MOL0     H66401   5.754   0.950   2.470 -0.5464  1.0703  0.8018
  492MOL0     H66402   6.177   1.885   2.594 -0.2064 -0.3041 -0.5707
  492MOL0     H66403   6.374   2.001   2.607  0.2410  1.3134 -3.8449
  492MOL0     H66404   6.768   1.897   2.772 -0.9675 -1.2522 -1.1530
  492MOL0     H66405   6.974   1.896   2.903  2.9390  0.9751  0.2667
  492MOL0     H66406   8.806   1.732   2.487 -1.9788  0.4901  1.1410
  492MOL0     H66407   8.912   1.502   2.466  0.6068 -0.1902  0.6067
  492MOL0     H66408   8.933   1.123   2.523  0.3489  1.7219  1.1981
  492MOL0     H66409   8.988   0.886   2.476 -0.3592 -0.1559  0.9418
  492MOL0     H66410   9.180   0.752   2.451 -0.1698  0.8213  0.5248
  492MOL0     H66411   9.258   0.638   2.559 -2.0488 -0.6063  2.1270
  492MOL0     H66412   8.996   0.620   2.391 -1.2979 -0.1297  0.2346
  492MOL0     H66413   9.023   0.503   2.518  0.9233 -1.2069 -1.0629
  492MOL0     H66414   9.259   0.458   2.413  0.8774  0.6642  0.6350
  492MOL0     H66415   9.213   0.561   2.279  0.5434 -0.5218 -0.7519
  492MOL0     H66416   9.022   0.405   2.208 -1.8983 -1.9275  1.3614
  492MOL0     H66417   9.034   0.307   2.352  0.4677 -2.8885 -0.3948
  492MOL0     H66418   9.345   0.141   2.129  1.1091 -0.0102  2.0320
  492MOL0     H66419   9.131   0.832   2.878 -1.4305  0.2770  1.3063
  492MOL0     H66420   9.056   1.052   2.934 -0.6120 -1.3003  0.8052
  493MOL0     O66421   8.152   7.505   8.488 -0.5720  0.3607 -0.1179
  493MOL0     C66422   8.070   7.417   8.478  0.3587 -0.0495 -0.8838
  493MOL0     O66423   7.967   7.418   8.392  0.1494 -0.0998 -0.2311
  493MOL0     C66424   7.955   7.532   8.319 -0.1472  0.6169  0.5190
  493MOL0     C66425   7.934   7.651   8.375 -0.0082 -1.1131  0.3858
  493MOL0     C66426   7.936   7.771   8.305 -0.2104  0.5670 -0.1316
  493MOL0     C66427   7.937   7.773   8.164  0.4375  0.8257 -0.0358
  493MOL0     O66428   7.927   7.894   8.104  0.3726 -1.3920 -0.6550
  493MOL0     C66429   7.951   7.905   7.964  0.7674 -0.2540  0.1569
  493MOL0     C66430   7.931   8.050   7.936  0.2605  0.3463  0.3153
  493MOL0     C66431   7.888   8.077   7.793  0.2034 -0.4541  0.5730
  493MOL0     C66432   7.886   8.222   7.761  0.4545 -1.5206 -0.1434
  493MOL0     C66433   7.772   8.298   7.810  0.1797 -0.0863  0.0909
  493MOL0     C66434   7.802   8.450   7.811 -0.1949 -0.1310 -0.0365
  493MOL0     C66435   7.897   8.492   7.921 -0.8850 -0.1452 -0.8906
  493MOL0     C66436   7.920   8.634   7.907 -0.0154 -1.2034 -0.1052
  493MOL0     N66437   7.973   8.683   7.780  0.8012 -0.1807  0.4760
  493MOL0     C66438   8.076   8.628   7.710 -0.0201 -0.0802  0.2686
  493MOL0     C66439   8.105   8.722   7.608 -0.0762 -1.0000  0.5327
  493MOL0     C66440   8.212   8.704   7.501  0.6386 -0.2276  0.9861
  493MOL0     C66441   8.293   8.829   7.474 -0.4967  0.6962  0.5786
  493MOL0     C66442   8.391   8.855   7.594  0.1719 -1.1739 -0.1825
  493MOL0     C66443   8.474   8.972   7.563 -0.6904  0.5071 -0.2849
  493MOL0     O66444   8.585   8.956   7.655 -0.4694  0.9301  0.2076
  493MOL0     C66445   8.708   9.022   7.633  0.2674 -0.2303  0.3227
  493MOL0     C66446   8.808   8.992   7.727  0.5693 -0.4130 -0.6284
  493MOL0     C66447   8.933   9.059   7.714  0.0281 -0.2531 -0.7503
  493MOL0     C66448   9.051   9.020   7.813  0.7439  0.0544  0.0070
  493MOL0     C66449   8.949   9.160   7.614  0.4422  0.3936  0.1607
  493MOL0     C66450   9.071   9.244   7.605 -0.5723 -0.2697  0.0988
  493MOL0     O66451   9.188   9.183   7.620  0.1278 -0.0256  0.6908
  493MOL0     C66452   9.300   9.257   7.592  0.7419  0.6529  0.6209
  493MOL0     C66453   9.418   9.242   7.664  0.3141 -0.5135 -0.1809
  493MOL0     C66454   9.542   9.292   7.623  0.7969 -0.0095  0.7031
  493MOL0     C66455   9.549   9.370   7.504 -0.0801  0.0910 -0.1885
  493MOL0     O66456   9.666   9.439   7.489  0.1301  0.1884 -0.5575
  493MOL0     C66457   9.702   9.487   7.358 -0.5479  0.9327 -0.3462
  493MOL0     C66458   9.853   9.520   7.349  0.2576  0.1703 -0.1057
  493MOL0     C66459   9.934   9.592   7.467  0.4068 -0.0448  0.1267
  493MOL0     C66460  10.082   9.619   7.429 -0.2468 -0.7791  0.9139
  493MOL0     C66461  10.136   9.676   7.562 -0.2392 -0.2736 -0.4431
  493MOL0     C66462  10.291   9.685   7.557 -0.4736  0.1826  0.5445
  493MOL0     C66463  10.336   9.703   7.702  0.8365 -0.0685  0.1808
  493MOL0     C66464  10.473   9.770   7.722 -0.0958 -0.1985 -0.4456
  493MOL0    Cl66465  10.458   9.933   7.690 -0.3177 -0.1307 -0.4864
  493MOL0     C66466   9.435   9.384   7.426  0.4245  0.1890  0.6760
  493MOL0     C66467   9.315   9.325   7.466  0.2339  0.1355 -0.9369
  493MOL0     O66468   9.055   9.362   7.590  0.3742 -0.5965  0.4565
  493MOL0     C66469   8.846   9.192   7.524  0.0481  0.5381 -0.6657
  493MOL0     C66470   8.719   9.126   7.534 -0.7608 -0.1762 -0.3196
  493MOL0     N66471   8.018   8.833   7.626 -0.1043  1.1467  0.1200
  493MOL0     N66472   7.937   8.803   7.720  0.7150  0.9786  0.0333
  493MOL0     C66473   7.932   7.646   8.107  0.2048 -0.3658 -0.6130
  493MOL0     C66474   7.941   7.526   8.185  0.2125 -1.1595  0.7957
  493MOL0     C66475   8.088   7.308   8.574  0.4169  0.1538 -0.3935
  493MOL0     C66476   8.212   7.290   8.641 -0.5211  0.0643  0.3169
  493MOL0     C66477   8.228   7.191   8.732 -0.1879 -0.0314 -0.4181
  493MOL0     C66478   8.134   7.093   8.752 -0.3811 -0.4446 -0.0521
  493MOL0     O66479   8.151   6.991   8.847  0.1590  0.0147  0.0257
  493MOL0     C66480   8.047   6.896   8.865  0.2519 -0.0416 -0.5999
  493MOL0     C66481   8.090   6.820   8.994 -0.0011 -0.9484  0.9032
  493MOL0     C66482   7.987   6.721   9.033 -0.2659 -0.4493 -0.8575
  493MOL0     C66483   8.032   6.644   9.165  0.5710 -0.0781  0.4597
  493MOL0     C66484   7.993   6.715   9.285 -0.2910 -0.8859 -0.2016
  493MOL0     C66485   7.976   6.797   9.377 -0.4844  0.3774 -0.4202
  493MOL0     C66486   8.018   7.104   8.677  0.1906 -0.3107 -0.3894
  493MOL0     C66487   7.991   7.215   8.599 -0.9552 -0.8802  0.6255
  493MOL0     H66488   7.936   7.647   8.483  1.2277 -0.5887  0.4012
  493MOL0     H66489   7.929   7.857   8.371  0.1482  1.7173 -1.5306
  493MOL0     H66490   8.052   7.869   7.940  0.5218 -2.4336  2.0528
  493MOL0     H66491   7.883   7.847   7.902 -0.4826  2.8752 -1.6169
  493MOL0     H66492   7.852   8.083   8.003 -1.3653  0.5376 -1.6118
  493MOL0     H66493   8.024   8.106   7.951 -0.1535  1.6508 -1.6419
  493MOL0     H66494   7.955   8.023   7.727 -0.8030 -1.7864  0.5968
  493MOL0     H66495   7.788   8.039   7.770  0.7714 -0.6908 -1.6736
  493MOL0     H66496   7.984   8.255   7.797 -0.8614  2.8962  0.0092
  493MOL0     H66497   7.876   8.237   7.654 -0.0092  1.2475  0.2108
  493MOL0     H66498   7.676   8.277   7.761 -0.7709 -1.9697  2.4930
  493MOL0     H66499   7.765   8.275   7.917 -1.5658 -1.4157 -0.2521
  493MOL0     H66500   7.848   8.474   7.715 -0.3047 -0.7845 -0.2559
  493MOL0     H66501   7.713   8.513   7.825  1.9896  2.7816  2.2072
  493MOL0     H66502   7.857   8.474   8.021  0.6279  0.8327 -0.0678
  493MOL0     H66503   7.986   8.429   7.918 -1.3625 -0.8164 -2.2898
  493MOL0     H66504   8.002   8.660   7.975 -0.3117 -1.4307  0.3465
  493MOL0     H66505   7.826   8.687   7.927  0.3484 -1.4384  2.6457
  493MOL0     H66506   8.123   8.534   7.736 -1.4514 -0.5487  1.2482
  493MOL0     H66507   8.281   8.623   7.528  1.8177 -0.2845 -1.9243
  493MOL0     H66508   8.169   8.674   7.405  0.6189  1.8945  0.2869
  493MOL0     H66509   8.229   8.917   7.466 -1.7249 -0.0565  1.7447
  493MOL0     H66510   8.360   8.810   7.388 -0.4213  0.5513  0.6688
  493MOL0     H66511   8.446   8.764   7.619 -0.7357 -1.3603  1.2291
  493MOL0     H66512   8.333   8.865   7.686  1.6878 -2.2671  0.9358
  493MOL0     H66513   8.420   9.066   7.576  0.7138  1.7370 -2.6453
  493MOL0     H66514   8.513   8.974   7.461  4.5917  0.4455  1.4419
  493MOL0     H66515   8.816   8.913   7.802  0.8191  2.1715  2.2967
  493MOL0     H66516   9.083   9.103   7.877  0.4396  0.1922 -0.0200
  493MOL0     H66517   9.012   8.948   7.886  2.0077  0.1183  0.7740
  493MOL0     H66518   9.133   8.966   7.765 -1.7315 -3.5749 -0.4835
  493MOL0     H66519   9.429   9.196   7.762  0.8853  2.8114  1.4393
  493MOL0     H66520   9.627   9.263   7.684 -0.9126 -2.8783  1.9548
  493MOL0     H66521   9.674   9.417   7.279  1.5020  4.1775 -4.4021
  493MOL0     H66522   9.639   9.575   7.344 -0.8927  0.7111 -0.1939
  493MOL0     H66523   9.903   9.425   7.329 -0.9526 -0.7645  1.1011
  493MOL0     H66524   9.870   9.594   7.270 -2.3071  1.6192  0.5704
  493MOL0     H66525   9.938   9.523   7.551  6.0093 -0.6672 -0.3251
  493MOL0     H66526   9.889   9.683   7.508 -1.6340 -1.2792  0.7631
  493MOL0     H66527  10.132   9.525   7.404  0.2551 -0.0610 -0.9104
  493MOL0     H66528  10.093   9.680   7.339 -1.2450  1.4908  2.2464
  493MOL0     H66529  10.102   9.617   7.648 -2.7577 -1.4410 -2.0947
  493MOL0     H66530  10.085   9.770   7.584 -0.2518 -0.2174 -0.7105
  493MOL0     H66531  10.339   9.595   7.518 -0.1681 -0.1598  1.6657
  493MOL0     H66532  10.331   9.768   7.497  1.1411 -0.9903 -0.0634
  493MOL0     H66533  10.340   9.603   7.748 -1.1184 -0.6581 -0.8204
  493MOL0     H66534  10.261   9.768   7.748 -0.7970  0.5309 -3.0615
  493MOL0     H66535  10.542   9.728   7.648  0.5714 -1.0811  0.6411
  493MOL0     H66536  10.516   9.745   7.820 -1.9451  0.3155  0.5511
  493MOL0     H66537   9.442   9.432   7.329 -6.4756  0.1700 -0.2961
  493MOL0     H66538   9.226   9.324   7.404 -1.7710 -0.0792  1.7803
  493MOL0     H66539   8.864   9.268   7.448 -0.3013  1.1674 -0.1349
  493MOL0     H66540   8.635   9.165   7.477 -1.9765 -2.5582 -0.2830
  493MOL0     H66541   7.941   7.655   7.999  2.3030  2.8728 -0.2929
  493MOL0     H66542   7.945   7.424   8.149  2.1597 -1.5336  1.9223
  493MOL0     H66543   8.287   7.367   8.626 -0.6235 -0.0248 -0.7500
  493MOL0     H66544   8.322   7.184   8.786 -1.1232  2.8405  1.8596
  493MOL0     H66545   7.954   6.953   8.869  0.9551  1.2594 -1.7825
  493MOL0     H66546   8.042   6.815   8.791 -0.2671  0.5465 -1.2246
  493MOL0     H66547   8.094   6.903   9.066 -1.6008  1.5066 -1.6157
  493MOL0     H66548   8.191   6.779   8.985  0.1841 -0.8933  2.4035
  493MOL0     H66549   7.970   6.649   8.953 -0.0613 -0.5200 -0.8383
  493MOL0     H66550   7.887   6.764   9.048 -1.2442 -2.9257  0.2574
  493MOL0     H66551   8.140   6.632   9.162  0.6016 -1.8649 -5.9841
  493MOL0     H66552   7.987   6.544   9.166 -0.5883  0.4166  0.3126
  493MOL0     H66553   7.977   6.876   9.450  1.8880  3.7949 -3.7676
  493MOL0     H66554   7.935   7.034   8.682 -0.3410  0.3022 -0.4566
  493MOL0     H66555   7.894   7.221   8.552 -1.6960 -0.7115  2.1233
  494MOL0     O66556   9.724   0.812   5.500  0.5183  0.6927 -0.1306
  494MOL0     C66557   9.814   0.822   5.417 -0.6890  0.0894 -0.5065
  494MOL0     O66558   9.820   0.916   5.312 -0.7488  0.1847  0.0183
  494MOL0     C66559   9.734   1.020   5.308 -0.0819  0.3270 -0.3203
  494MOL0     C66560   9.667   1.063   5.191  0.7426  1.5136 -0.4193
  494MOL0     C66561   9.573   1.178   5.188 -1.0442  0.3561  0.9878
  494MOL0     C66562   9.555   1.256   5.301 -0.0973 -0.6930  0.8594
  494MOL0     O66563   9.474   1.369   5.301  0.3049 -0.4484  0.0971
  494MOL0     C66564   9.394   1.414   5.185  0.0369  0.3735 -0.0009
  494MOL0     C66565   9.327   1.548   5.214  0.1889  0.1106  0.8573
  494MOL0     C66566   9.420   1.670   5.226  0.7683  0.3387 -0.0065
  494MOL0     C66567   9.337   1.794   5.264  0.2998 -0.0604 -0.5853
  494MOL0     C66568   9.417   1.920   5.299 -0.3364 -0.1577  0.3635
  494MOL0     C66569   9.325   2.045   5.288  0.3048 -0.8355 -0.4546
  494MOL0     C66570   9.383   2.177   5.337  0.3710  0.2294 -0.0677
  494MOL0     C66571   9.264   2.284   5.329  0.0975 -0.1511 -0.0368
  494MOL0     N66572   9.158   2.248   5.415 -0.3270 -1.0212 -0.0536
  494MOL0     C66573   9.176   2.215   5.549 -0.7110 -2.1823  0.3572
  494MOL0     C66574   9.051   2.175   5.583 -1.1529  0.0365  0.6071
  494MOL0     C66575   8.998   2.101   5.705  0.6333  0.3680 -0.0576
  494MOL0     C66576   9.090   1.985   5.741 -0.1227 -0.3651  0.2052
  494MOL0     C66577   9.035   1.909   5.861  0.1750  0.4544  0.3802
  494MOL0     C66578   8.919   1.827   5.814 -0.4153  0.4176  0.4632
  494MOL0     O66579   8.883   1.731   5.911  0.0358  0.3122  0.1531
  494MOL0     C66580   8.756   1.687   5.908  0.5761 -0.3152 -0.0040
  494MOL0     C66581   8.646   1.715   5.822 -0.1305 -0.2097  0.1385
  494MOL0     C66582   8.527   1.631   5.833  0.2421 -0.1272 -0.5452
  494MOL0     C66583   8.410   1.663   5.736 -0.4762 -0.4606  0.7973
  494MOL0     C66584   8.519   1.534   5.939 -0.6806 -0.5302 -0.5596
  494MOL0     C66585   8.410   1.439   5.958  0.1341 -0.1505 -0.0675
  494MOL0     O66586   8.364   1.388   5.835 -0.4296  0.0821  0.7256
  494MOL0     C66587   8.246   1.319   5.836 -0.3404  1.2206  0.2951
  494MOL0     C66588   8.249   1.176   5.861 -0.6680  0.1687  0.8572
  494MOL0     C66589   8.130   1.106   5.879 -0.2537  0.8767  0.4448
  494MOL0     C66590   8.005   1.170   5.879  0.8541  0.1092  0.0934
  494MOL0     O66591   7.884   1.093   5.896  0.3166 -0.1689  1.0732
  494MOL0     C66592   7.881   0.953   5.928 -0.5847  0.2727 -0.0306
  494MOL0     C66593   7.812   0.877   5.818 -0.7665  0.0485 -0.8781
  494MOL0     C66594   7.682   0.935   5.768  0.2943 -0.6328 -0.3959
  494MOL0     C66595   7.581   0.964   5.875 -0.6621 -1.1073 -0.1766
  494MOL0     C66596   7.456   1.008   5.801  0.0270 -0.4361 -0.4887
  494MOL0     C66597   7.344   1.029   5.902  0.0286 -0.4201  0.4284
  494MOL0     C66598   7.217   1.055   5.818 -0.5982  0.4534  0.7796
  494MOL0     C66599   7.095   1.102   5.900 -0.2599 -0.4542  0.1169
  494MOL0    Cl66600   6.959   1.172   5.798  0.0034 -0.6413  0.1095
  494MOL0     C66601   8.009   1.305   5.858 -0.0770 -0.3138  0.0544
  494MOL0     C66602   8.125   1.382   5.838 -0.6143 -0.4266  0.6297
  494MOL0     O66603   8.356   1.413   6.074  0.2523  0.0551 -0.0270
  494MOL0     C66604   8.618   1.521   6.035 -0.1578 -0.3097  0.2115
  494MOL0     C66605   8.732   1.602   6.012  0.5634 -0.0105  1.2665
  494MOL0     N66606   8.965   2.174   5.472 -0.3175 -0.0575 -0.2390
  494MOL0     N66607   9.030   2.218   5.375 -0.1131 -0.2528 -0.7693
  494MOL0     C66608   9.625   1.222   5.412  0.4360 -0.2795 -0.5784
  494MOL0     C66609   9.709   1.107   5.416  0.3995 -0.7014  0.8643
  494MOL0     C66610   9.943   0.758   5.452 -0.2855 -0.0321  0.1328
  494MOL0     C66611   9.957   0.641   5.529 -0.4757 -0.7412  0.2498
  494MOL0     C66612  10.093   0.592   5.561  0.4241 -0.2069 -0.8552
  494MOL0     C66613  10.212   0.655   5.528  0.0107 -0.3290 -0.4091
  494MOL0     O66614  10.336   0.602   5.545  0.3185 -0.9610  0.6142
  494MOL0     C66615  10.355   0.480   5.619 -0.6067  0.0135 -0.1831
  494MOL0     C66616  10.509   0.472   5.620  0.0764 -0.2187 -0.5184
  494MOL0     C66617  10.572   0.576   5.714  0.6565  0.7631 -0.0023
  494MOL0     C66618  10.677   0.510   5.798 -0.0881 -0.6081  0.1823
  494MOL0     C66619  10.635   0.406   5.889 -0.3375 -0.4950 -0.0396
  494MOL0     C66620  10.581   0.334   5.974  0.0345  0.2439  0.0818
  494MOL0     C66621  10.199   0.770   5.449 -0.6043 -0.1894 -0.6484
  494MOL0     C66622  10.071   0.825   5.426 -0.3727  0.0267  0.2510
  494MOL0     H66623   9.685   1.016   5.095 -4.3701 -0.5296 -0.6697
  494MOL0     H66624   9.542   1.209   5.089 -0.9674  1.1018  1.1943
  494MOL0     H66625   9.448   1.412   5.090  0.3094 -0.0070  0.1612
  494MOL0     H66626   9.312   1.344   5.167  0.6777 -0.6109  0.7700
  494MOL0     H66627   9.242   1.569   5.148 -0.7323 -2.3398  1.1433
  494MOL0     H66628   9.279   1.532   5.311  0.1201 -0.3951  0.7424
  494MOL0     H66629   9.500   1.643   5.296  1.2567 -2.0672 -1.3778
  494MOL0     H66630   9.472   1.685   5.131 -1.1824  0.6676 -1.0690
  494MOL0     H66631   9.267   1.812   5.182 -1.1878  2.4621  1.1077
  494MOL0     H66632   9.278   1.762   5.350 -1.1271  0.1975 -1.4275
  494MOL0     H66633   9.474   1.920   5.393  0.5271  3.0787 -0.0257
  494MOL0     H66634   9.495   1.928   5.222 -1.1148 -0.4309 -0.4605
  494MOL0     H66635   9.289   2.050   5.185 -4.0494 -1.4566  0.8298
  494MOL0     H66636   9.227   2.027   5.333 -0.5101  0.1903 -1.7326
  494MOL0     H66637   9.423   2.163   5.438  3.1477  0.1145 -1.0968
  494MOL0     H66638   9.470   2.211   5.280 -0.7182  2.6193 -0.3978
  494MOL0     H66639   9.241   2.283   5.222  2.8945 -0.7752 -0.7228
  494MOL0     H66640   9.293   2.388   5.345  0.1676 -0.1090 -0.4206
  494MOL0     H66641   9.266   2.223   5.609 -0.7271 -0.6901  0.2326
  494MOL0     H66642   8.982   2.173   5.786 -0.8548  0.3999 -0.3521
  494MOL0     H66643   8.900   2.064   5.674  1.0912  0.1359 -1.3088
  494MOL0     H66644   9.187   2.028   5.770  0.0866 -0.5596 -0.2002
  494MOL0     H66645   9.099   1.917   5.656  0.7115 -1.4843  1.1526
  494MOL0     H66646   9.011   1.972   5.947 -7.0156 -0.5384 -0.2924
  494MOL0     H66647   9.107   1.835   5.898  0.9052  0.9120 -0.0927
  494MOL0     H66648   8.939   1.769   5.724 -0.5974  0.7439  0.2119
  494MOL0     H66649   8.830   1.888   5.794 -2.6004 -3.0910 -1.7362
  494MOL0     H66650   8.653   1.780   5.735  0.7356 -2.1712 -1.3437
  494MOL0     H66651   8.398   1.581   5.665 -2.2474  0.9885 -0.7055
  494MOL0     H66652   8.316   1.666   5.792 -0.4248  0.3200  0.8492
  494MOL0     H66653   8.433   1.759   5.688 -2.6902  0.8882  2.2409
  494MOL0     H66654   8.347   1.132   5.844  0.1727  2.4527 -0.7444
  494MOL0     H66655   8.140   0.998   5.889 -1.4891  0.7920  0.8739
  494MOL0     H66656   7.979   0.905   5.941 -0.5326 -0.2000 -1.8649
  494MOL0     H66657   7.822   0.945   6.020  1.2986  0.0800  1.2139
  494MOL0     H66658   7.879   0.881   5.731 -0.8725  0.3404 -0.9479
  494MOL0     H66659   7.793   0.773   5.843  1.3320 -0.3637 -0.8310
  494MOL0     H66660   7.635   0.867   5.697 -0.7833 -0.0166 -0.2958
  494MOL0     H66661   7.702   1.033   5.723 -2.1507  0.1686  0.0670
  494MOL0     H66662   7.562   0.866   5.920 -1.3393 -1.1024 -0.4440
  494MOL0     H66663   7.614   1.033   5.953  0.1267 -1.6872  0.0118
  494MOL0     H66664   7.411   0.936   5.733 -0.1955 -1.7077  0.9402
  494MOL0     H66665   7.479   1.096   5.740  4.4726  0.9140  2.6021
  494MOL0     H66666   7.321   0.945   5.967 -1.2241 -0.1480  0.3711
  494MOL0     H66667   7.383   1.108   5.967  1.1571  0.5777 -1.3503
  494MOL0     H66668   7.183   0.969   5.758 -0.9219 -0.4680  2.2475
  494MOL0     H66669   7.232   1.143   5.755 -3.0765  0.3451 -0.0389
  494MOL0     H66670   7.119   1.184   5.968 -2.2415 -0.6454  1.1080
  494MOL0     H66671   7.067   1.020   5.967 -2.1910  2.0489  2.6105
  494MOL0     H66672   7.913   1.353   5.846 -0.2251 -0.8519 -1.0727
  494MOL0     H66673   8.114   1.487   5.812  0.7392  0.1446  2.1807
  494MOL0     H66674   8.620   1.443   6.111 -0.8505 -1.1798 -0.6278
  494MOL0     H66675   8.805   1.581   6.091  2.4734  0.2147 -0.3514
  494MOL0     H66676   9.631   1.281   5.503 -1.6332 -2.7652  1.3186
  494MOL0     H66677   9.759   1.074   5.506  1.8944 -0.1491  0.2703
  494MOL0     H66678   9.881   0.571   5.559 -2.5501  0.3226 -2.1599
  494MOL0     H66679  10.095   0.508   5.629 -1.3216  2.1516  2.4055
  494MOL0     H66680  10.315   0.486   5.721 -1.4810 -1.2769 -0.4361
  494MOL0     H66681  10.304   0.396   5.573 -2.3127  0.9810 -0.1194
  494MOL0     H66682  10.550   0.488   5.520  0.4368 -1.9876 -0.6890
  494MOL0     H66683  10.534   0.372   5.658 -2.9882 -0.5132  1.0934
  494MOL0     H66684  10.491   0.619   5.773 -0.5963 -0.7211 -0.5870
  494MOL0     H66685  10.620   0.656   5.655  0.5120 -0.3693 -1.7408
  494MOL0     H66686  10.733   0.589   5.849 -1.5447  1.1713 -0.8486
  494MOL0     H66687  10.747   0.462   5.730  1.1799 -2.4134  2.5921
  494MOL0     H66688  10.546   0.281   6.060 -0.1911  0.7576  0.3070
  494MOL0     H66689  10.288   0.825   5.422  0.1658 -1.5815 -1.0639
  494MOL0     H66690  10.068   0.920   5.373  2.5907 -0.2059 -0.5344
  495MOL0     O66691   0.568   5.576   2.078 -0.4666  0.2640  0.7114
  495MOL0     C66692   0.565   5.697   2.049  0.7728 -0.1432 -0.0787
  495MOL0     O66693   0.442   5.763   2.015 -1.0253 -0.0408  0.9230
  495MOL0     C66694   0.331   5.690   2.012 -0.5999 -0.5465  0.3690
  495MOL0     C66695   0.277   5.623   2.124  0.3179 -0.8196  1.0848
  495MOL0     C66696   0.166   5.553   2.115 -0.9360  0.1639  0.4660
  495MOL0     C66697   0.080   5.570   2.005 -0.0499 -0.0614  0.3082
  495MOL0     O66698  -0.029   5.482   1.984 -0.2009 -0.0456  1.6148
  495MOL0     C66699  -0.101   5.407   2.084 -0.0090 -0.3311 -0.1362
  495MOL0     C66700  -0.213   5.333   2.021 -0.0012 -0.0810  1.0934
  495MOL0     C66701  -0.353   5.339   2.097  0.6611  0.0472 -0.5125
  495MOL0     C66702  -0.450   5.279   1.992 -0.4379  0.8634 -0.7670
  495MOL0     C66703  -0.600   5.280   2.034  0.3142 -0.2196  0.3603
  495MOL0     C66704  -0.682   5.259   1.900  0.1600  0.3361 -0.9133
  495MOL0     C66705  -0.827   5.254   1.943 -0.0735 -0.2051  0.5276
  495MOL0     C66706  -0.911   5.251   1.823  0.8161  0.5961 -0.3338
  495MOL0     N66707  -1.047   5.287   1.851  0.5671 -0.1212 -0.2681
  495MOL0     C66708  -1.162   5.207   1.832  0.8684  0.1376  0.0524
  495MOL0     C66709  -1.254   5.300   1.849  0.2414  0.3455 -0.1121
  495MOL0     C66710  -1.400   5.277   1.809  1.2334  0.2324 -0.2045
  495MOL0     C66711  -1.503   5.258   1.909  0.0191 -0.1065  0.3043
  495MOL0     C66712  -1.509   5.378   1.994 -0.5609  0.1579 -0.3499
  495MOL0     C66713  -1.619   5.360   2.091 -0.5945  0.2503 -0.1738
  495MOL0     O66714  -1.748   5.363   2.027 -0.0920 -0.1689  0.2867
  495MOL0     C66715  -1.844   5.310   2.106 -0.4524  0.3144  0.0914
  495MOL0     C66716  -1.852   5.304   2.251  0.4360 -0.6964  0.6212
  495MOL0     C66717  -1.957   5.237   2.321 -0.3297 -0.1873  0.0172
  495MOL0     C66718  -1.939   5.251   2.471  1.0851 -0.5550 -0.5754
  495MOL0     C66719  -2.057   5.174   2.252  0.4301  0.2457 -0.5292
  495MOL0     C66720  -2.170   5.112   2.320  0.7330  0.0501  0.2268
  495MOL0     O66721  -2.196   5.142   2.456 -0.9900  0.1385 -0.4499
  495MOL0     C66722  -2.309   5.097   2.516  0.0707  0.4579 -0.7044
  495MOL0     C66723  -2.309   5.067   2.653 -0.2137  0.8518  0.2114
  495MOL0     C66724  -2.426   5.029   2.722  0.2395 -0.1594  0.6901
  495MOL0     C66725  -2.544   5.035   2.654 -0.0301 -0.0083  0.7836
  495MOL0     O66726  -2.648   4.991   2.727 -0.1886  0.3867 -0.5146
  495MOL0     C66727  -2.737   5.099   2.763  0.2592  0.7550 -0.4543
  495MOL0     C66728  -2.838   5.052   2.856  0.0405 -0.4873 -0.5721
  495MOL0     C66729  -2.785   5.022   2.995 -1.0716 -0.7909 -0.0315
  495MOL0     C66730  -2.880   4.957   3.090  0.2570  0.6878 -1.1077
  495MOL0     C66731  -2.912   4.817   3.054  0.3049 -0.2280  0.3734
  495MOL0     C66732  -2.989   4.738   3.156  0.3180  0.0288  0.7639
  495MOL0     C66733  -3.136   4.799   3.171  0.1215  0.3314 -0.5509
  495MOL0     C66734  -3.212   4.730   3.286 -0.4853 -0.3391  0.9982
  495MOL0    Cl66735  -3.121   4.745   3.440  0.2528  0.4001  0.0396
  495MOL0     C66736  -2.552   5.079   2.524 -0.1207 -0.3553 -0.0189
  495MOL0     C66737  -2.435   5.109   2.453 -0.0655 -1.6060 -0.1576
  495MOL0     O66738  -2.243   5.036   2.253  0.3688 -0.0535 -0.3113
  495MOL0     C66739  -2.053   5.176   2.111 -0.3680  0.6788  0.5269
  495MOL0     C66740  -1.951   5.243   2.041  0.4139 -0.1609  0.6316
  495MOL0     N66741  -1.207   5.421   1.893 -0.0251  0.0529  0.5212
  495MOL0     N66742  -1.080   5.405   1.903 -0.0222 -0.6565 -0.3910
  495MOL0     C66743   0.126   5.652   1.895 -0.8584  0.3548  0.0470
  495MOL0     C66744   0.258   5.707   1.893 -0.1691  0.6249 -0.7742
  495MOL0     C66745   0.685   5.769   2.069  0.6865 -0.3499  0.1863
  495MOL0     C66746   0.807   5.706   2.092 -0.4672  0.7312  0.1002
  495MOL0     C66747   0.930   5.775   2.095 -0.7942  0.7375  0.3473
  495MOL0     C66748   0.926   5.915   2.087  0.2365  1.1328  0.5060
  495MOL0     O66749   1.046   5.982   2.108  0.6431  0.2360  0.0121
  495MOL0     C66750   1.049   6.116   2.071 -0.7555 -0.3902  0.4846
  495MOL0     C66751   1.018   6.191   2.200  0.4952 -0.0530 -0.4017
  495MOL0     C66752   1.112   6.176   2.315 -0.4500 -0.4381 -1.0238
  495MOL0     C66753   1.071   6.224   2.455  0.9662 -0.7011 -1.0177
  495MOL0     C66754   0.955   6.149   2.497 -0.1604  0.2748 -0.2013
  495MOL0     C66755   0.855   6.093   2.537  0.9083 -0.1730 -0.6319
  495MOL0     C66756   0.803   5.980   2.064  0.8477 -0.1540  0.4060
  495MOL0     C66757   0.676   5.910   2.060 -0.6632 -0.3034 -0.5461
  495MOL0     H66758   0.342   5.629   2.211  2.6874  3.6297 -0.6327
  495MOL0     H66759   0.144   5.488   2.199 -3.3936  1.0383  0.5881
  495MOL0     H66760  -0.034   5.338   2.137 -2.7024 -3.1450 -0.1636
  495MOL0     H66761  -0.136   5.474   2.162  1.8436 -1.6560  1.9701
  495MOL0     H66762  -0.229   5.374   1.921 -1.3693  2.6509  2.3395
  495MOL0     H66763  -0.181   5.229   2.015  0.2093 -0.1069  2.3537
  495MOL0     H66764  -0.341   5.280   2.188  3.4205 -0.6927 -1.2796
  495MOL0     H66765  -0.385   5.442   2.115 -0.8831 -0.6618  1.0903
  495MOL0     H66766  -0.445   5.334   1.898  1.6884  1.5386 -0.3178
  495MOL0     H66767  -0.415   5.177   1.973 -4.7005 -1.6474  2.7875
  495MOL0     H66768  -0.632   5.204   2.106 -3.0369 -0.5584 -1.2896
  495MOL0     H66769  -0.631   5.377   2.072 -4.0908 -1.0572 -0.5485
  495MOL0     H66770  -0.670   5.338   1.826 -1.8195  1.7359  0.1845
  495MOL0     H66771  -0.639   5.170   1.852  0.5141  0.0197 -0.0204
  495MOL0     H66772  -0.839   5.163   2.003  1.0137 -0.0494  0.9962
  495MOL0     H66773  -0.850   5.334   2.015  1.1006  3.2639 -2.6512
  495MOL0     H66774  -0.919   5.150   1.782 -3.1501 -0.4390  2.3909
  495MOL0     H66775  -0.869   5.320   1.749  3.2174 -0.4285 -0.0216
  495MOL0     H66776  -1.170   5.101   1.809  1.0159 -0.0253  0.7190
  495MOL0     H66777  -1.431   5.361   1.747 -0.9101 -1.4424 -1.5192
  495MOL0     H66778  -1.406   5.182   1.755 -1.2099 -0.2200  0.7272
  495MOL0     H66779  -1.487   5.171   1.973  1.9305  1.3337  1.9269
  495MOL0     H66780  -1.595   5.248   1.851  1.3651  2.9907 -2.7225
  495MOL0     H66781  -1.521   5.468   1.933 -1.4375  0.7364  0.6430
  495MOL0     H66782  -1.410   5.380   2.042  0.4464  3.7610 -2.1712
  495MOL0     H66783  -1.602   5.444   2.158  2.3499 -0.2425 -0.1875
  495MOL0     H66784  -1.605   5.267   2.147  1.3754  1.0539  0.7549
  495MOL0     H66785  -1.775   5.360   2.303 -0.7324  1.0062  0.5899
  495MOL0     H66786  -2.020   5.307   2.519 -0.4380 -2.0783 -1.2465
  495MOL0     H66787  -1.937   5.149   2.512  2.3684 -1.3958 -2.5911
  495MOL0     H66788  -1.845   5.300   2.499 -0.2433  1.7679  0.0834
  495MOL0     H66789  -2.213   5.072   2.703  0.5661 -1.0173 -0.9780
  495MOL0     H66790  -2.438   4.997   2.825 -2.5265  0.8958  0.7713
  495MOL0     H66791  -2.685   5.192   2.788 -1.1991  1.2457  0.8939
  495MOL0     H66792  -2.782   5.123   2.666 -0.9046 -3.4186 -1.1587
  495MOL0     H66793  -2.914   5.130   2.861  0.2238 -0.3281 -0.2253
  495MOL0     H66794  -2.881   4.961   2.813 -0.5034 -1.1803  1.3615
  495MOL0     H66795  -2.742   5.112   3.038  1.8987 -1.0605 -2.1290
  495MOL0     H66796  -2.700   4.953   2.991  0.5991  0.6821  4.5305
  495MOL0     H66797  -2.833   4.939   3.187 -1.4432 -2.1674 -0.7036
  495MOL0     H66798  -2.969   5.021   3.095  1.0315  1.7056  0.4146
  495MOL0     H66799  -2.816   4.766   3.044  1.3403  1.6682  0.1813
  495MOL0     H66800  -2.962   4.804   2.957 -0.1635  1.6665  0.3299
  495MOL0     H66801  -2.994   4.636   3.117  2.7736 -0.1583  0.8374
  495MOL0     H66802  -2.923   4.732   3.242  5.1439 -1.0260 -2.6248
  495MOL0     H66803  -3.190   4.793   3.077  2.0898  0.3036 -1.7422
  495MOL0     H66804  -3.130   4.907   3.191  1.2395  0.0094  1.0293
  495MOL0     H66805  -3.229   4.626   3.258  0.2927  0.5650 -3.7402
  495MOL0     H66806  -3.302   4.791   3.287  0.2374  1.0089 -2.4090
  495MOL0     H66807  -2.648   5.089   2.475  0.0345 -0.5941 -0.3771
  495MOL0     H66808  -2.432   5.145   2.351 -0.6328 -2.6601 -0.5559
  495MOL0     H66809  -2.137   5.127   2.063  1.0871 -2.0590  0.5397
  495MOL0     H66810  -1.960   5.246   1.933 -2.4673 -1.3234  0.7593
  495MOL0     H66811   0.085   5.642   1.795 -1.3229 -0.7369  0.3238
  495MOL0     H66812   0.304   5.772   1.819  0.6394  0.0297 -0.7947
  495MOL0     H66813   0.806   5.598   2.105  0.6052  0.5345 -1.2025
  495MOL0     H66814   1.019   5.727   2.134 -1.5160  1.3693  2.9199
  495MOL0     H66815   1.151   6.143   2.040 -1.5663  1.2564 -0.9085
  495MOL0     H66816   0.978   6.147   1.994  0.6490  0.8229 -0.3783
  495MOL0     H66817   0.924   6.154   2.242  1.6047 -0.3472  1.9793
  495MOL0     H66818   1.005   6.296   2.173 -1.9581 -0.1104  0.2544
  495MOL0     H66819   1.202   6.226   2.277  0.2353 -3.8170 -4.4781
  495MOL0     H66820   1.148   6.074   2.331 -0.1547 -0.4379 -1.6640
  495MOL0     H66821   1.044   6.330   2.458 -2.6884 -1.5057 -0.3944
  495MOL0     H66822   1.147   6.215   2.533 -0.6486 -1.7103  0.4915
  495MOL0     H66823   0.764   6.052   2.575  1.5701 -2.3683 -1.2707
  495MOL0     H66824   0.796   6.088   2.061  0.2028 -0.1637 -2.9066
  495MOL0     H66825   0.577   5.954   2.057 -0.4598  0.6375  2.4329
  496MOL0     O66826  10.050   4.219   0.544  0.1566 -0.3460  0.0635
  496MOL0     C66827  10.116   4.219   0.646 -0.1454  0.3191 -0.0980
  496MOL0     O66828  10.078   4.154   0.762  0.7619  0.4961  0.6608
  496MOL0     C66829   9.953   4.101   0.773 -0.5419 -0.9213 -0.1531
  496MOL0     C66830   9.868   4.166   0.857  0.3086  0.8345 -0.4623
  496MOL0     C66831   9.732   4.138   0.864 -0.6343  0.1186 -0.3797
  496MOL0     C66832   9.678   4.055   0.770  0.2327 -0.9372 -1.4238
  496MOL0     O66833   9.548   4.047   0.759 -0.3954 -0.5235  0.3723
  496MOL0     C66834   9.460   4.156   0.747  0.0917 -0.7482 -0.7427
  496MOL0     C66835   9.386   4.192   0.872  0.3494  0.8641  0.3454
  496MOL0     C66836   9.284   4.305   0.856  0.9006  0.1814 -0.1547
  496MOL0     C66837   9.219   4.347   0.995  0.0604 -1.2677  1.1739
  496MOL0     C66838   9.124   4.242   1.050  0.0440 -0.6583  0.2043
  496MOL0     C66839   9.070   4.279   1.188  0.2961  0.0449 -0.8383
  496MOL0     C66840   8.958   4.179   1.228  0.0578  0.0682  0.1923
  496MOL0     C66841   9.028   4.058   1.287  0.3627  0.4349  0.3421
  496MOL0     N66842   8.929   3.953   1.312 -0.0366 -0.2735  0.4978
  496MOL0     C66843   8.870   3.911   1.429 -0.6109  0.7232 -0.7153
  496MOL0     C66844   8.780   3.817   1.394  0.5186 -0.7447  1.1156
  496MOL0     C66845   8.676   3.746   1.476 -0.2256  0.4420 -0.3221
  496MOL0     C66846   8.741   3.652   1.574 -0.5012  0.7482  0.2345
  496MOL0     C66847   8.646   3.562   1.646  0.5577 -0.2466 -0.6350
  496MOL0     C66848   8.688   3.415   1.660 -0.3748  0.3697  0.2426
  496MOL0     O66849   8.635   3.357   1.782 -0.6002  0.5210  0.5592
  496MOL0     C66850   8.508   3.318   1.802 -0.5509  0.6177  0.5276
  496MOL0     C66851   8.478   3.274   1.930  0.0078 -0.9686  0.3501
  496MOL0     C66852   8.343   3.241   1.964 -0.7932  0.4846  0.1699
  496MOL0     C66853   8.332   3.173   2.106  0.6107 -0.6895  0.2037
  496MOL0     C66854   8.249   3.242   1.858 -0.0288 -0.3623  0.4363
  496MOL0     C66855   8.108   3.196   1.882 -0.2991  0.1521  0.1626
  496MOL0     O66856   8.024   3.212   1.776  0.1462 -0.2457 -1.2919
  496MOL0     C66857   7.901   3.150   1.772 -0.4195 -0.2623 -0.1522
  496MOL0     C66858   7.783   3.218   1.742 -0.3929 -0.2063 -0.0034
  496MOL0     C66859   7.669   3.141   1.721  0.5565  0.1220 -0.1750
  496MOL0     C66860   7.669   2.999   1.735  0.5039 -0.0493  0.4915
  496MOL0     O66861   7.551   2.933   1.699  0.1934  0.5041 -0.2599
  496MOL0     C66862   7.538   2.790   1.707  0.2378 -0.0957 -0.1416
  496MOL0     C66863   7.397   2.735   1.656  0.5343 -0.7718 -0.3194
  496MOL0     C66864   7.379   2.587   1.679 -0.1743 -0.4143 -0.9928
  496MOL0     C66865   7.337   2.551   1.820 -0.1177 -0.6046 -0.6402
  496MOL0     C66866   7.360   2.402   1.868  1.1370  0.3653  0.6372
  496MOL0     C66867   7.297   2.388   2.009 -0.1337  0.2821  0.3181
  496MOL0     C66868   7.319   2.244   2.054  0.1956  0.4996 -0.1264
  496MOL0     C66869   7.197   2.203   2.147 -0.1094 -0.0863  0.0989
  496MOL0    Cl66870   7.126   2.053   2.081  0.0937 -0.1084 -0.0165
  496MOL0     C66871   7.792   2.937   1.766 -0.8066  0.3903  0.7232
  496MOL0     C66872   7.911   3.011   1.783 -0.1082  0.6278 -0.8295
  496MOL0     O66873   8.076   3.153   1.994 -0.2912  0.3277 -0.8984
  496MOL0     C66874   8.281   3.290   1.730 -0.7202 -0.4248  0.2642
  496MOL0     C66875   8.412   3.324   1.702  0.0457  0.0836  0.1228
  496MOL0     N66876   8.783   3.802   1.255 -1.1493 -0.2245 -0.3091
  496MOL0     N66877   8.871   3.883   1.218  0.4465  0.4343  0.0814
  496MOL0     C66878   9.753   3.999   0.670  0.2702 -0.6422 -0.2472
  496MOL0     C66879   9.895   4.018   0.681 -0.3476  0.4337 -0.7058
  496MOL0     C66880  10.258   4.258   0.626  0.1799 -0.8634  0.2289
  496MOL0     C66881  10.331   4.292   0.739  0.3721  0.1240 -0.4613
  496MOL0     C66882  10.462   4.331   0.722  1.0290  0.2112 -0.2433
  496MOL0     C66883  10.526   4.348   0.597  0.1730 -0.5292  1.2109
  496MOL0     O66884  10.656   4.390   0.563  0.0018  0.3885  0.3777
  496MOL0     C66885  10.745   4.415   0.678  0.6546 -0.0879 -0.9938
  496MOL0     C66886  10.706   4.545   0.762  0.9780  0.0331 -0.2374
  496MOL0     C66887  10.753   4.539   0.905  0.4909 -0.8897  0.7400
  496MOL0     C66888  10.908   4.566   0.929  0.4055  0.2965  0.5011
  496MOL0     C66889  10.999   4.466   0.868 -0.0527 -0.1835 -0.5872
  496MOL0     C66890  11.075   4.375   0.828 -0.2142 -1.0176 -0.1139
  496MOL0     C66891  10.445   4.333   0.477  0.0081  0.1814 -0.7046
  496MOL0     C66892  10.316   4.296   0.498  0.9281 -0.0043 -1.1428
  496MOL0     H66893   9.898   4.227   0.942 -1.9220 -1.6983  2.3893
  496MOL0     H66894   9.667   4.193   0.931 -0.1236  0.0079  0.2195
  496MOL0     H66895   9.507   4.245   0.705 -2.7924  0.3991 -1.7757
  496MOL0     H66896   9.391   4.137   0.664 -1.4045  4.0995 -0.9029
  496MOL0     H66897   9.330   4.101   0.896  2.7260 -0.4632  1.2280
  496MOL0     H66898   9.457   4.215   0.952  1.9296  2.3126 -1.3778
  496MOL0     H66899   9.333   4.388   0.804  0.9768  0.1256 -0.1706
  496MOL0     H66900   9.213   4.268   0.782  2.2907  0.0925 -1.4912
  496MOL0     H66901   9.298   4.369   1.068 -0.5526  1.8022  1.0468
  496MOL0     H66902   9.169   4.444   0.984  0.3128 -1.1198  1.3103
  496MOL0     H66903   9.043   4.228   0.977 -1.2495  0.1822  1.4302
  496MOL0     H66904   9.175   4.145   1.051  1.2648 -0.0508  2.0551
  496MOL0     H66905   9.141   4.262   1.269 -1.1104 -0.4078  0.3561
  496MOL0     H66906   9.054   4.387   1.189 -0.9303 -0.0892  1.5882
  496MOL0     H66907   8.885   4.223   1.296 -2.0324 -1.2568 -1.0703
  496MOL0     H66908   8.900   4.148   1.139 -1.5220  0.3269  1.0879
  496MOL0     H66909   9.070   4.077   1.386 -2.9626 -0.2918  2.0221
  496MOL0     H66910   9.094   4.025   1.206 -0.6010 -0.0726 -0.2598
  496MOL0     H66911   8.899   3.938   1.530  0.2365 -1.1996 -0.3832
  496MOL0     H66912   8.615   3.826   1.521  2.3602  1.4042  1.7052
  496MOL0     H66913   8.611   3.691   1.407  0.6869 -2.6415  1.1393
  496MOL0     H66914   8.792   3.715   1.649  1.2385 -1.1732  0.7590
  496MOL0     H66915   8.814   3.590   1.522 -0.2797  0.2828  1.0781
  496MOL0     H66916   8.554   3.551   1.588  1.9133 -1.4724 -2.6782
  496MOL0     H66917   8.619   3.600   1.745 -1.2127 -2.4679 -0.1795
  496MOL0     H66918   8.796   3.409   1.674 -0.3906 -1.2130 -0.0847
  496MOL0     H66919   8.664   3.352   1.574  1.1350 -1.5702  1.1555
  496MOL0     H66920   8.552   3.272   2.010 -1.1111 -0.9247  1.4148
  496MOL0     H66921   8.413   3.202   2.174  0.4197  0.2291  0.0540
  496MOL0     H66922   8.249   3.219   2.161  1.0590 -1.1585  1.3214
  496MOL0     H66923   8.320   3.064   2.100 -1.4424 -0.4578 -0.4928
  496MOL0     H66924   7.772   3.325   1.737 -1.4305 -0.2791  0.3232
  496MOL0     H66925   7.574   3.188   1.696 -0.1534 -0.1802  1.7603
  496MOL0     H66926   7.611   2.747   1.637  0.8914  0.6317  0.0794
  496MOL0     H66927   7.561   2.756   1.809  0.0949  0.0738 -0.0531
  496MOL0     H66928   7.317   2.791   1.705  2.3749  0.9416  0.8744
  496MOL0     H66929   7.381   2.763   1.551 -1.1606  0.8003  0.2984
  496MOL0     H66930   7.480   2.546   1.673 -0.2419 -0.5860 -0.9431
  496MOL0     H66931   7.320   2.529   1.607  1.8271 -2.6442 -0.9418
  496MOL0     H66932   7.407   2.607   1.884 -0.6541  0.6486 -1.1130
  496MOL0     H66933   7.235   2.583   1.841  0.7307  1.8096  0.1576
  496MOL0     H66934   7.464   2.366   1.870  1.3931  0.4914 -3.0545
  496MOL0     H66935   7.301   2.348   1.793  2.7735 -2.3670  1.1574
  496MOL0     H66936   7.355   2.464   2.063 -0.8117  1.7957 -1.0204
  496MOL0     H66937   7.194   2.424   2.005 -0.4690 -0.6497  0.2858
  496MOL0     H66938   7.404   2.229   2.122 -0.3680  1.6787  0.8743
  496MOL0     H66939   7.325   2.160   1.985  1.5292 -3.0068  3.8064
  496MOL0     H66940   7.123   2.281   2.126 -0.4295 -0.6774 -1.0817
  496MOL0     H66941   7.209   2.203   2.255  2.1381  1.7062 -0.0734
  496MOL0     H66942   7.800   2.829   1.774  1.5822  0.3900 -0.6766
  496MOL0     H66943   8.007   2.964   1.803  0.2356  1.5121 -0.3542
  496MOL0     H66944   8.206   3.283   1.652 -1.3792  0.4018  0.8014
  496MOL0     H66945   8.449   3.343   1.602  0.7663 -0.6492  0.2398
  496MOL0     H66946   9.699   3.926   0.611 -1.8783 -1.2994  2.3095
  496MOL0     H66947   9.955   3.986   0.596 -1.6094 -0.6847 -1.2120
  496MOL0     H66948  10.268   4.289   0.828 -1.7359  1.7385 -1.8219
  496MOL0     H66949  10.516   4.344   0.816 -0.1931  0.9473  0.3831
  496MOL0     H66950  10.755   4.321   0.733  0.0981  1.8956  2.8741
  496MOL0     H66951  10.839   4.431   0.624 -0.5715  0.1712 -3.1488
  496MOL0     H66952  10.598   4.565   0.766  0.8395 -0.8206  0.5403
  496MOL0     H66953  10.754   4.632   0.716  1.2359 -0.3763 -0.7605
  496MOL0     H66954  10.728   4.442   0.950  0.5967 -1.0859  0.3725
  496MOL0     H66955  10.704   4.620   0.961 -0.3637 -0.1278 -1.0445
  496MOL0     H66956  10.915   4.575   1.038  0.7410  1.5993  0.3919
  496MOL0     H66957  10.940   4.663   0.889 -1.3029  0.7986  0.2952
  496MOL0     H66958  11.158   4.310   0.809  0.0760 -0.7279  0.1587
  496MOL0     H66959  10.483   4.349   0.377  2.8549  1.5965  0.4788
  496MOL0     H66960  10.254   4.301   0.410  0.0753 -3.0212 -0.8361
  497MOL0     O66961   9.963   8.483   7.423 -0.5813  0.1771  0.1272
  497MOL0     C66962   9.937   8.549   7.328  0.1970  0.5350  0.0886
  497MOL0     O66963  10.027   8.622   7.266 -1.0989 -0.5199  0.2898
  497MOL0     C66964  10.154   8.604   7.309 -0.0043  0.1145  0.6171
  497MOL0     C66965  10.225   8.487   7.274  0.2483 -0.3848 -0.6359
  497MOL0     C66966  10.362   8.480   7.279 -0.1500 -0.2791  1.0878
  497MOL0     C66967  10.430   8.587   7.351  0.7993  0.0721 -0.5754
  497MOL0     O66968  10.566   8.585   7.373 -0.1202  0.2507 -0.1957
  497MOL0     C66969  10.639   8.460   7.347  0.1813 -0.2629 -0.1463
  497MOL0     C66970  10.770   8.481   7.420  0.3698 -1.1692  0.6192
  497MOL0     C66971  10.845   8.349   7.420 -0.2284 -0.0482 -0.2921
  497MOL0     C66972  10.958   8.353   7.529  0.9583  0.3393 -0.1820
  497MOL0     C66973  11.037   8.218   7.523 -1.4208 -0.7390 -0.5517
  497MOL0     C66974  11.139   8.213   7.632 -0.3279 -0.0155 -0.0027
  497MOL0     C66975  11.080   8.140   7.749 -0.3817  0.8600  0.6580
  497MOL0     C66976  11.190   8.116   7.860 -1.3857  0.0712  0.7830
  497MOL0     N66977  11.250   7.981   7.847  0.0903  0.7312 -0.3500
  497MOL0     C66978  11.195   7.870   7.905 -0.3713  0.0096  0.3695
  497MOL0     C66979  11.267   7.768   7.862  0.1230  0.1321 -0.1664
  497MOL0     C66980  11.270   7.617   7.908  0.1918  0.3353 -0.9539
  497MOL0     C66981  11.381   7.598   8.012  0.3891 -0.0690  0.2734
  497MOL0     C66982  11.444   7.464   8.018  0.2301 -0.2752  0.0359
  497MOL0     C66983  11.576   7.474   8.101 -0.5563 -0.0441  0.4329
  497MOL0     O66984  11.651   7.353   8.117 -0.4902  0.3700  0.4254
  497MOL0     C66985  11.781   7.363   8.166  1.1059 -0.1956 -0.2457
  497MOL0     C66986  11.858   7.246   8.164 -0.4501 -0.6463 -0.0940
  497MOL0     C66987  11.991   7.251   8.198  0.3228  0.1755  0.2299
  497MOL0     C66988  12.075   7.128   8.147  0.4458  0.3071  0.1335
  497MOL0     C66989  12.050   7.367   8.261 -0.1804 -0.1130 -1.0574
  497MOL0     C66990  12.195   7.366   8.316  0.6832 -0.6276  0.5097
  497MOL0     O66991  12.231   7.474   8.400 -0.3627  1.0237  0.1603
  497MOL0     C66992  12.352   7.471   8.463  0.8591 -0.5418 -0.3656
  497MOL0     C66993  12.415   7.594   8.481  0.1115 -0.5215  0.4682
  497MOL0     C66994  12.509   7.610   8.579  0.2862  0.3111 -0.8239
  497MOL0     C66995  12.553   7.506   8.663 -0.7302  0.6000  0.3478
  497MOL0     O66996  12.646   7.517   8.768  0.3012  0.2900 -0.5689
  497MOL0     C66997  12.751   7.605   8.736  0.3826  0.5880 -0.0327
  497MOL0     C66998  12.870   7.595   8.832  0.2645  0.1908  0.6061
  497MOL0     C66999  12.980   7.692   8.802  0.2042 -1.2128 -0.5015
  497MOL0     C67000  13.099   7.673   8.893  0.9322 -0.4511 -0.2394
  497MOL0     C67001  13.201   7.779   8.872 -0.2676 -0.2656  0.5506
  497MOL0     C67002  13.172   7.909   8.951 -0.4117  0.2665 -1.0257
  497MOL0     C67003  13.289   8.013   8.919  0.3687  0.5250  0.2517
  497MOL0     C67004  13.266   8.148   8.987  0.3854  0.1171 -0.1398
  497MOL0    Cl67005  13.113   8.212   8.917 -0.1214  0.0688 -0.2336
  497MOL0     C67006  12.481   7.386   8.643 -0.5519 -1.3790  0.1146
  497MOL0     C67007  12.387   7.366   8.544 -0.6483  0.3276 -0.0934
  497MOL0     O67008  12.272   7.284   8.276 -0.4462 -0.0900  0.4383
  497MOL0     C67009  11.961   7.480   8.267  0.0123 -0.6273 -0.0391
  497MOL0     C67010  11.838   7.481   8.208 -0.3951 -0.6376  0.2024
  497MOL0     N67011  11.367   7.810   7.777 -0.1088 -0.3819 -0.3257
  497MOL0     N67012  11.354   7.943   7.764 -0.0022 -0.8009 -0.1487
  497MOL0     C67013  10.357   8.690   7.408  0.4702 -0.0540 -0.0774
  497MOL0     C67014  10.215   8.703   7.386 -0.1936 -0.5509 -0.2717
  497MOL0     C67015   9.799   8.550   7.264 -0.8187  1.1158 -0.8088
  497MOL0     C67016   9.697   8.490   7.339 -0.5723 -1.0271  0.5528
  497MOL0     C67017   9.570   8.462   7.279  0.3561 -0.1334 -0.4219
  497MOL0     C67018   9.540   8.506   7.152  0.3165 -0.0293  1.2566
  497MOL0     O67019   9.415   8.482   7.098 -0.3112  0.4224 -0.1272
  497MOL0     C67020   9.375   8.515   6.967 -0.0740 -0.3604 -0.6809
  497MOL0     C67021   9.219   8.499   6.967  0.6283 -0.4968 -0.6241
  497MOL0     C67022   9.174   8.356   6.971 -0.5365  0.1307 -0.3057
  497MOL0     C67023   9.021   8.336   6.953  0.7447 -0.6775  0.2319
  497MOL0     C67024   8.931   8.378   7.066 -0.2143 -0.3154 -0.4203
  497MOL0     C67025   8.868   8.397   7.171 -0.7791  0.6900 -0.0007
  497MOL0     C67026   9.646   8.580   7.084 -0.1801  0.6464  0.2764
  497MOL0     C67027   9.774   8.588   7.137  0.7999  0.1469  0.4464
  497MOL0     H67028  10.164   8.405   7.238  1.5827 -2.4307  1.4008
  497MOL0     H67029  10.424   8.404   7.232  0.0135  1.1107 -1.1087
  497MOL0     H67030  10.583   8.370   7.375 -0.7298  1.0323  2.5197
  497MOL0     H67031  10.670   8.451   7.242 -1.7796  0.3273 -0.8266
  497MOL0     H67032  10.830   8.551   7.362  1.0845 -1.6844  0.7251
  497MOL0     H67033  10.750   8.516   7.522 -0.4329  1.5999 -0.4160
  497MOL0     H67034  10.769   8.273   7.444  0.2454 -1.0600 -1.8693
  497MOL0     H67035  10.886   8.319   7.323 -0.8749  2.3409 -1.3669
  497MOL0     H67036  11.031   8.427   7.494 -0.9603  0.9689 -3.2200
  497MOL0     H67037  10.928   8.373   7.632 -2.3619 -2.7845 -0.3432
  497MOL0     H67038  10.970   8.134   7.546  0.2732 -2.2580 -0.9257
  497MOL0     H67039  11.086   8.208   7.426  0.6174 -3.3427  0.6509
  497MOL0     H67040  11.225   8.151   7.606  0.6188  1.9702 -1.8959
  497MOL0     H67041  11.174   8.315   7.653 -0.6302 -0.3677  2.5285
  497MOL0     H67042  10.990   8.187   7.789 -2.0828 -2.4768  1.1131
  497MOL0     H67043  11.047   8.039   7.721 -1.1844  0.2459  3.5063
  497MOL0     H67044  11.146   8.132   7.959 -0.1348 -2.3343  1.8282
  497MOL0     H67045  11.275   8.182   7.841  0.6531 -3.0589 -2.0983
  497MOL0     H67046  11.119   7.866   7.982  1.9583  4.0005  3.2725
  497MOL0     H67047  11.170   7.601   7.949  0.8358 -1.8754 -0.0917
  497MOL0     H67048  11.289   7.543   7.830 -0.8275 -1.2025  0.1989
  497MOL0     H67049  11.346   7.628   8.111  2.4011  3.3895  0.1179
  497MOL0     H67050  11.462   7.671   7.998  1.0971 -0.9044 -0.0984
  497MOL0     H67051  11.471   7.424   7.920 -1.7265 -1.8960  0.0851
  497MOL0     H67052  11.375   7.395   8.068 -0.1371  0.5935  0.7544
  497MOL0     H67053  11.560   7.516   8.200  1.6634 -1.1070  1.3281
  497MOL0     H67054  11.627   7.551   8.043 -2.4824  1.3907  0.5660
  497MOL0     H67055  11.816   7.160   8.113 -2.2789  1.5873 -2.6369
  497MOL0     H67056  12.142   7.158   8.065 -1.0340  2.0682 -0.5023
  497MOL0     H67057  12.134   7.103   8.236 -1.0645  1.9618  1.6786
  497MOL0     H67058  12.009   7.045   8.123 -1.4681  1.9417 -0.5111
  497MOL0     H67059  12.392   7.686   8.429 -1.0844 -1.6938 -1.1889
  497MOL0     H67060  12.555   7.708   8.592  4.3363 -0.8348 -4.2330
  497MOL0     H67061  12.785   7.585   8.634  1.6679 -0.9345  0.6586
  497MOL0     H67062  12.713   7.706   8.716 -0.9666 -0.2403 -1.8816
  497MOL0     H67063  12.833   7.629   8.930  1.9883  3.5017  0.2561
  497MOL0     H67064  12.917   7.498   8.850  2.1148  1.4917  3.5754
  497MOL0     H67065  12.951   7.797   8.812  2.6946 -0.5662  0.7594
  497MOL0     H67066  13.012   7.663   8.701  1.9125 -1.4000  0.0616
  497MOL0     H67067  13.079   7.652   8.999 -0.8397 -1.9528 -0.8131
  497MOL0     H67068  13.138   7.575   8.864  0.2944  0.1396 -3.4120
  497MOL0     H67069  13.216   7.807   8.767 -4.6403 -2.8420 -1.0152
  497MOL0     H67070  13.298   7.738   8.903 -0.2950 -0.2672  0.6332
  497MOL0     H67071  13.075   7.951   8.926 -0.4288  2.9447  2.7569
  497MOL0     H67072  13.172   7.883   9.057 -2.1953 -1.5951 -1.4066
  497MOL0     H67073  13.292   8.032   8.811 -0.4500  1.7692  0.4177
  497MOL0     H67074  13.384   7.966   8.946 -0.5953 -1.4596  0.3791
  497MOL0     H67075  13.340   8.222   8.954  1.0218 -0.2136  0.5146
  497MOL0     H67076  13.278   8.149   9.096 -1.4630  1.7766  0.1151
  497MOL0     H67077  12.511   7.320   8.724 -1.6684 -1.1004  0.7779
  497MOL0     H67078  12.335   7.272   8.533 -2.1039  1.1556 -0.6151
  497MOL0     H67079  11.992   7.575   8.309 -4.0457  0.5572  0.6696
  497MOL0     H67080  11.786   7.575   8.222 -0.3600 -0.6376  0.3303
  497MOL0     H67081  10.410   8.758   7.474  2.2278 -1.5189  0.1107
  497MOL0     H67082  10.156   8.784   7.425  0.6154 -1.4203  3.0697
  497MOL0     H67083   9.723   8.460   7.440  1.1251  0.5304  0.6199
  497MOL0     H67084   9.495   8.404   7.330 -1.5761  0.8132 -2.0394
  497MOL0     H67085   9.399   8.621   6.962 -3.8804  1.1706  4.6548
  497MOL0     H67086   9.420   8.454   6.888  0.2437  0.0465 -0.8175
  497MOL0     H67087   9.190   8.551   6.876  1.7459 -0.9861 -1.2926
  497MOL0     H67088   9.167   8.552   7.047 -0.2958  2.1449 -2.8433
  497MOL0     H67089   9.203   8.307   7.064  1.3401 -1.4221 -1.6294
  497MOL0     H67090   9.224   8.301   6.891 -1.1438 -1.8165  0.5926
  497MOL0     H67091   9.004   8.233   6.921  0.1515 -0.1730 -1.1496
  497MOL0     H67092   8.990   8.400   6.870 -1.0221 -1.1297  0.5048
  497MOL0     H67093   8.825   8.409   7.269 -0.4508 -0.9581  0.3741
  497MOL0     H67094   9.634   8.624   6.985  2.2968 -1.7908 -1.2590
  497MOL0     H67095   9.841   8.636   7.066  0.6787  2.3089  1.7074
  498MOL0     O67096   4.107   2.068   0.021  0.2895 -0.3410  0.0693
  498MOL0     C67097   4.162   1.965  -0.025  0.8258 -0.6029  0.5496
  498MOL0     O67098   4.146   1.915  -0.149  0.5580  0.1432  0.5555
  498MOL0     C67099   4.072   1.990  -0.237  0.2448 -1.0452  0.6997
  498MOL0     C67100   4.139   2.090  -0.309 -0.5943 -0.0002 -0.7150
  498MOL0     C67101   4.061   2.169  -0.387 -0.0208  0.0472  0.4547
  498MOL0     C67102   3.926   2.146  -0.418 -0.6037 -0.0888  0.1239
  498MOL0     O67103   3.863   2.206  -0.519  1.1083 -0.7988  0.2553
  498MOL0     C67104   3.940   2.281  -0.611 -0.3216  0.3486 -1.2695
  498MOL0     C67105   3.856   2.323  -0.720 -1.4014 -0.5577 -0.2395
  498MOL0     C67106   3.798   2.214  -0.815  0.0034 -0.0504 -0.6534
  498MOL0     C67107   3.680   2.279  -0.885 -0.4654 -0.3790  0.3692
  498MOL0     C67108   3.575   2.179  -0.932  0.1373 -0.0975 -0.1303
  498MOL0     C67109   3.494   2.239  -1.049 -0.5251 -0.2042  0.3298
  498MOL0     C67110   3.409   2.144  -1.135 -0.5316  1.5102  1.0488
  498MOL0     C67111   3.275   2.092  -1.066 -0.1496  0.9570 -0.5974
  498MOL0     N67112   3.170   2.049  -1.159 -0.5510 -0.9427  0.0502
  498MOL0     C67113   3.074   2.119  -1.219 -0.0191 -0.0834 -0.3294
  498MOL0     C67114   3.018   2.033  -1.308  0.6147 -0.4545  0.5676
  498MOL0     C67115   2.901   2.066  -1.393 -0.6225 -1.1411 -0.5302
  498MOL0     C67116   2.884   1.966  -1.513  0.3028  0.6896 -0.1660
  498MOL0     C67117   2.812   2.013  -1.635  0.5376  0.0842 -0.0962
  498MOL0     C67118   2.693   2.094  -1.587  0.1597  0.5360  1.1453
  498MOL0     O67119   2.617   2.137  -1.700 -0.9568 -0.1417 -0.4880
  498MOL0     C67120   2.513   2.067  -1.751  0.1410  0.5281  0.1219
  498MOL0     C67121   2.460   2.109  -1.874 -0.2369  0.1999  0.6987
  498MOL0     C67122   2.339   2.051  -1.924 -0.7933 -0.3384  0.3445
  498MOL0     C67123   2.291   2.097  -2.068  0.0421 -0.9876 -0.4955
  498MOL0     C67124   2.262   1.964  -1.842 -0.1371  0.6529  0.0238
  498MOL0     C67125   2.131   1.911  -1.879  0.0665  0.2260  0.7282
  498MOL0     O67126   2.057   1.842  -1.779 -0.0978 -0.5988 -0.2632
  498MOL0     C67127   1.945   1.778  -1.818  0.5106  0.5646  0.6252
  498MOL0     C67128   1.826   1.846  -1.861 -0.2050 -0.2801  0.1716
  498MOL0     C67129   1.717   1.776  -1.899  0.0937  0.1284  0.2494
  498MOL0     C67130   1.707   1.637  -1.894 -1.1709 -0.6423  0.5792
  498MOL0     O67131   1.593   1.582  -1.941  0.0945 -0.3300 -0.0614
  498MOL0     C67132   1.603   1.467  -2.019 -0.2908 -0.1663 -0.7655
  498MOL0     C67133   1.469   1.431  -2.098 -0.2852 -0.5971  0.5214
  498MOL0     C67134   1.351   1.398  -2.010 -0.3843 -0.0448  0.2136
  498MOL0     C67135   1.225   1.344  -2.079  0.7800 -0.2368  0.3900
  498MOL0     C67136   1.135   1.275  -1.979  0.0868 -0.5121  0.1898
  498MOL0     C67137   1.000   1.240  -2.032  0.9192  0.3992  1.2309
  498MOL0     C67138   0.885   1.339  -1.998  0.2372  1.0938 -0.0362
  498MOL0     C67139   0.750   1.269  -2.021 -0.3517 -0.3279 -0.8765
  498MOL0    Cl67140   0.726   1.211  -2.191  0.1693 -0.1720 -0.0931
  498MOL0     C67141   1.818   1.567  -1.853 -0.2595  0.4595  0.0531
  498MOL0     C67142   1.929   1.639  -1.800 -0.0200 -0.3336  0.8936
  498MOL0     O67143   2.097   1.919  -1.994 -0.5793 -0.1789  0.2988
  498MOL0     C67144   2.320   1.913  -1.721 -0.4211 -0.8901 -0.2952
  498MOL0     C67145   2.441   1.972  -1.672  0.0359  1.0322 -0.1496
  498MOL0     N67146   3.082   1.917  -1.304  0.1312  0.0092  0.0313
  498MOL0     N67147   3.167   1.931  -1.203  0.2289  0.0885  0.6624
  498MOL0     C67148   3.863   2.039  -0.356 -0.5635 -0.5301  0.4291
  498MOL0     C67149   3.934   1.965  -0.265 -0.4284 -0.3925 -0.1640
  498MOL0     C67150   4.259   1.895   0.069  0.9776  0.1041 -0.1405
  498MOL0     C67151   4.264   1.930   0.207  0.0350  0.3676  0.1371
  498MOL0     C67152   4.369   1.893   0.285  0.2173 -0.3024  1.2078
  498MOL0     C67153   4.468   1.810   0.241  0.2599 -0.6329 -1.0276
  498MOL0     O67154   4.569   1.774   0.329  0.4675 -0.3218 -0.1861
  498MOL0     C67155   4.628   1.638   0.317  0.5879  0.8125  0.2208
  498MOL0     C67156   4.778   1.646   0.279  0.2930  0.0038  0.0700
  498MOL0     C67157   4.813   1.675   0.132 -0.0452 -0.0761  0.4433
  498MOL0     C67158   4.854   1.820   0.111 -0.0510 -0.6302  0.0168
  498MOL0     C67159   4.916   1.859  -0.024 -0.1928 -0.0639 -0.2644
  498MOL0     C67160   4.948   1.895  -0.138  0.6574 -0.5971 -0.1627
  498MOL0     C67161   4.453   1.759   0.115  0.3201  0.2195 -0.2509
  498MOL0     C67162   4.345   1.795   0.034 -0.1790  0.0635  0.0736
  498MOL0     H67163   4.243   2.115  -0.290 -1.6068  3.8223  0.9718
  498MOL0     H67164   4.118   2.257  -0.414 -3.6157  2.7593  0.8273
  498MOL0     H67165   3.992   2.361  -0.558  2.0869 -1.9310  0.0548
  498MOL0     H67166   4.024   2.221  -0.644 -0.0112  2.2791 -4.3873
  498MOL0     H67167   3.777   2.386  -0.679 -0.8870  1.1109 -1.6977
  498MOL0     H67168   3.908   2.396  -0.783 -1.1367 -0.4796  0.0659
  498MOL0     H67169   3.877   2.175  -0.880  0.3181  3.9403 -3.0497
  498MOL0     H67170   3.747   2.140  -0.753  1.7522 -0.7967 -0.0537
  498MOL0     H67171   3.616   2.344  -0.825  0.3370  0.8660 -0.0793
  498MOL0     H67172   3.719   2.340  -0.968  0.2664 -2.0964 -0.5908
  498MOL0     H67173   3.629   2.090  -0.963  0.3106 -0.3671  0.9097
  498MOL0     H67174   3.521   2.163  -0.838  1.9038 -0.9316  0.7803
  498MOL0     H67175   3.427   2.324  -1.032  1.1149  1.0316  0.8262
  498MOL0     H67176   3.566   2.278  -1.121 -0.2041 -0.6206  0.4200
  498MOL0     H67177   3.378   2.194  -1.228 -3.4980 -1.4450  0.2853
  498MOL0     H67178   3.475   2.059  -1.149 -0.2475  1.7903  0.6619
  498MOL0     H67179   3.218   2.163  -1.006 -1.0798  1.9046 -2.5184
  498MOL0     H67180   3.307   2.004  -1.009 -0.8192  1.6768  0.9401
  498MOL0     H67181   3.043   2.222  -1.207 -0.1804 -0.2359  0.7091
  498MOL0     H67182   2.808   2.062  -1.336  0.6445  0.9774  1.8810
  498MOL0     H67183   2.912   2.166  -1.436  3.2793 -1.2324 -0.1116
  498MOL0     H67184   2.839   1.872  -1.482  1.5044 -0.1965 -0.9789
  498MOL0     H67185   2.989   1.960  -1.545  0.4032 -1.6366  0.4441
  498MOL0     H67186   2.769   1.925  -1.684  0.5249  1.9863 -3.8976
  498MOL0     H67187   2.879   2.057  -1.710  2.3112 -0.9356  0.8208
  498MOL0     H67188   2.723   2.184  -1.532  2.6075 -0.1170  1.0157
  498MOL0     H67189   2.643   2.037  -1.508 -0.2123 -0.2295  0.3731
  498MOL0     H67190   2.501   2.192  -1.929 -1.2816  0.3226  0.0686
  498MOL0     H67191   2.355   2.173  -2.113  0.9907 -2.3064 -1.4321
  498MOL0     H67192   2.282   2.021  -2.146  0.2582  0.8710 -2.4243
  498MOL0     H67193   2.189   2.136  -2.062  0.5481  0.4303 -0.5729
  498MOL0     H67194   1.841   1.952  -1.874  2.9408 -0.7468 -0.8440
  498MOL0     H67195   1.626   1.817  -1.943 -1.8573  0.3328  4.0925
  498MOL0     H67196   1.676   1.480  -2.100 -0.5325  1.0161 -0.8031
  498MOL0     H67197   1.633   1.385  -1.953  1.7320  1.2166  0.1667
  498MOL0     H67198   1.448   1.522  -2.156  0.6405  1.5524  3.3104
  498MOL0     H67199   1.474   1.345  -2.165  0.1045 -1.9328  2.2129
  498MOL0     H67200   1.329   1.484  -1.947  3.1651  0.9982  0.2839
  498MOL0     H67201   1.379   1.315  -1.945 -0.0536 -0.1533 -0.0607
  498MOL0     H67202   1.176   1.433  -2.120  0.5591  1.1002  3.2904
  498MOL0     H67203   1.245   1.272  -2.158  1.4682  0.1774  0.1809
  498MOL0     H67204   1.129   1.322  -1.880 -0.8907 -1.5637  0.6407
  498MOL0     H67205   1.195   1.187  -1.952 -1.0687 -1.0548  1.0576
  498MOL0     H67206   0.993   1.235  -2.141 -3.4619  1.4462  1.2474
  498MOL0     H67207   0.973   1.141  -1.995 -2.9725  0.7482 -0.1318
  498MOL0     H67208   0.912   1.428  -2.056  1.7668  0.5397 -0.2341
  498MOL0     H67209   0.882   1.367  -1.893  3.0511 -1.0712  0.7557
  498MOL0     H67210   0.672   1.342  -1.997  0.4805 -0.1811  1.7762
  498MOL0     H67211   0.745   1.179  -1.958 -2.2058  0.8154  0.7606
  498MOL0     H67212   1.843   1.462  -1.843  1.6803  1.0811  2.6055
  498MOL0     H67213   2.019   1.586  -1.768  1.1735  1.7188  1.1165
  498MOL0     H67214   2.266   1.848  -1.654  2.1399 -1.1860  1.6406
  498MOL0     H67215   2.491   1.931  -1.586  3.7560 -0.9807 -2.9877
  498MOL0     H67216   3.759   2.019  -0.377 -0.5051 -1.2640  0.8074
  498MOL0     H67217   3.900   1.883  -0.202 -1.5559  0.8587  0.9422
  498MOL0     H67218   4.195   1.998   0.256  2.1136  2.2815  0.5678
  498MOL0     H67219   4.376   1.931   0.386 -2.2783  0.5104  1.1553
  498MOL0     H67220   4.639   1.593   0.416  1.4236  2.2915  0.8281
  498MOL0     H67221   4.584   1.559   0.255  2.7869 -3.3436  3.4304
  498MOL0     H67222   4.827   1.549   0.296 -0.6632 -0.3252  1.0305
  498MOL0     H67223   4.817   1.725   0.343  1.0537  1.5088 -2.1304
  498MOL0     H67224   4.720   1.650   0.081  0.1214  0.6838 -0.2614
  498MOL0     H67225   4.887   1.607   0.088 -0.1508  0.7903 -1.1854
  498MOL0     H67226   4.920   1.847   0.193  0.0578 -0.3486 -0.1637
  498MOL0     H67227   4.765   1.882   0.121  1.3593  1.4723  0.0067
  498MOL0     H67228   4.983   1.932  -0.232  0.1449 -0.0266 -0.1322
  498MOL0     H67229   4.523   1.694   0.065 -1.0652  0.1829 -2.2471
  498MOL0     H67230   4.334   1.752  -0.065  2.9360  1.9613 -1.2291
  499MOL0     O67231   6.154   0.894   1.881  0.5422  1.0758 -0.1208
  499MOL0     C67232   6.215   0.891   1.778 -0.9864  0.8967 -0.6528
  499MOL0     O67233   6.160   0.900   1.648 -0.8891 -0.0039 -0.3030
  499MOL0     C67234   6.034   0.944   1.627  0.5143  0.4305 -0.0588
  499MOL0     C67235   5.953   0.894   1.513 -0.2341 -1.0314 -0.1850
  499MOL0     C67236   5.817   0.938   1.505 -0.5518  0.3297 -0.5049
  499MOL0     C67237   5.752   1.012   1.610  0.0732 -0.1315  0.2893
  499MOL0     O67238   5.619   1.036   1.592  0.5507  0.1378 -0.8799
  499MOL0     C67239   5.545   1.082   1.706 -0.0031  0.7308  0.2111
  499MOL0     C67240   5.406   1.093   1.656  0.0242 -0.2769  0.4405
  499MOL0     C67241   5.313   0.971   1.702  0.0729  0.0208 -0.4058
  499MOL0     C67242   5.257   1.002   1.842 -0.0913  0.4817 -0.2853
  499MOL0     C67243   5.173   0.880   1.893  0.2973 -0.4177  0.3732
  499MOL0     C67244   5.118   0.902   2.033 -0.7813  0.1788 -0.2301
  499MOL0     C67245   5.023   1.022   2.042 -0.3918 -0.2867  0.0287
  499MOL0     C67246   4.889   0.999   1.950 -0.7943  0.1503 -0.5964
  499MOL0     N67247   4.817   0.884   1.998 -0.2476 -0.0154 -0.3965
  499MOL0     C67248   4.739   0.874   2.114 -0.2410  0.0409  0.2854
  499MOL0     C67249   4.679   0.755   2.113  0.2215 -0.1157  0.1250
  499MOL0     C67250   4.585   0.712   2.224 -0.4653  0.8238 -0.5309
  499MOL0     C67251   4.515   0.576   2.198 -0.4861 -0.2700  0.3895
  499MOL0     C67252   4.427   0.578   2.068  0.4111  0.3816 -0.1953
  499MOL0     C67253   4.325   0.476   2.070 -1.1204  0.0407  0.5975
  499MOL0     O67254   4.245   0.502   1.952  0.0419 -0.1400 -0.1973
  499MOL0     C67255   4.113   0.458   1.963 -0.0044  0.1400  0.4533
  499MOL0     C67256   4.009   0.526   2.031 -0.4488 -0.3295 -0.0088
  499MOL0     C67257   3.871   0.480   2.024 -0.1763  0.3775  0.7759
  499MOL0     C67258   3.762   0.563   2.095  1.3011 -0.0300 -0.4835
  499MOL0     C67259   3.841   0.370   1.943  1.0936 -0.9425  0.6328
  499MOL0     C67260   3.707   0.315   1.944  0.5474  0.8409  0.3909
  499MOL0     O67261   3.700   0.213   1.845  0.6977 -0.0461 -0.1164
  499MOL0     C67262   3.596   0.127   1.825  0.7211  0.0424  0.2088
  499MOL0     C67263   3.610   0.010   1.746 -0.1847  0.1882 -0.4917
  499MOL0     C67264   3.500  -0.065   1.737  0.7023  0.2919  0.4553
  499MOL0     C67265   3.370  -0.023   1.766  0.4944 -0.4743  0.3622
  499MOL0     O67266   3.263  -0.101   1.735 -0.1163 -0.2968 -0.1843
  499MOL0     C67267   3.135  -0.068   1.796 -0.0230  0.0216 -0.0385
  499MOL0     C67268   3.038  -0.188   1.778  0.1724 -0.3268 -0.5584
  499MOL0     C67269   2.913  -0.150   1.853 -0.3962 -1.0999  0.0011
  499MOL0     C67270   2.808  -0.251   1.809  0.0450 -0.1415  0.1467
  499MOL0     C67271   2.740  -0.222   1.670  0.4635  0.3884  0.5953
  499MOL0     C67272   2.655  -0.094   1.647 -0.1492 -0.0361  0.1873
  499MOL0     C67273   2.553  -0.106   1.530  1.1613  0.6685  0.5842
  499MOL0     C67274   2.456  -0.228   1.526 -0.2419 -0.4108 -1.0680
  499MOL0    Cl67275   2.361  -0.207   1.678  0.4946  0.4039  0.2795
  499MOL0     C67276   3.356   0.117   1.791 -0.2244  0.5745  0.2749
  499MOL0     C67277   3.470   0.185   1.830  0.1729 -0.6656 -0.5500
  499MOL0     O67278   3.623   0.336   2.033 -0.1422 -0.6719  0.2147
  499MOL0     C67279   3.942   0.307   1.872  0.6530  0.0350  0.5264
  499MOL0     C67280   4.079   0.348   1.880  1.0589  0.1667  0.1923
  499MOL0     N67281   4.723   0.699   1.994  0.3847  0.0633  0.4857
  499MOL0     N67282   4.786   0.774   1.925 -0.1638  0.1994  0.0738
  499MOL0     C67283   5.839   1.062   1.708 -1.0560  0.0451  0.3014
  499MOL0     C67284   5.977   1.034   1.710 -0.4982 -0.5543  0.2915
  499MOL0     C67285   6.354   0.850   1.791 -0.1091  0.5438  0.5896
  499MOL0     C67286   6.406   0.790   1.907  0.1060 -0.0858 -0.3965
  499MOL0     C67287   6.539   0.765   1.922 -0.3009 -0.6507 -0.1308
  499MOL0     C67288   6.626   0.802   1.808 -0.0123  0.0995 -0.7701
  499MOL0     O67289   6.769   0.793   1.821  0.7092 -0.5205  0.5857
  499MOL0     C67290   6.823   0.697   1.903  0.8214 -0.0016 -0.8084
  499MOL0     C67291   6.960   0.671   1.866 -0.7455 -0.2970 -0.2865
  499MOL0     C67292   7.042   0.594   1.971 -0.4280 -0.1014 -0.7466
  499MOL0     C67293   7.186   0.576   1.930 -0.1637 -0.0323  0.8662
  499MOL0     C67294   7.253   0.487   2.024 -0.1067 -0.1602  1.4886
  499MOL0     C67295   7.291   0.403   2.097 -0.2744 -0.4553  0.5824
  499MOL0     C67296   6.568   0.870   1.702 -0.7052  0.1768 -0.3150
  499MOL0     C67297   6.437   0.880   1.682 -0.2567  0.0327  0.0013
  499MOL0     H67298   5.996   0.841   1.428  0.2404  0.9206 -1.2129
  499MOL0     H67299   5.743   0.904   1.433 -1.5580 -1.5367  1.3284
  499MOL0     H67300   5.551   1.019   1.796  0.4548  1.0369  0.4004
  499MOL0     H67301   5.579   1.182   1.735  0.1376  1.3122 -1.8173
  499MOL0     H67302   5.368   1.190   1.688  3.1768  0.5047  2.2158
  499MOL0     H67303   5.396   1.113   1.548  2.2118  3.5579  0.7949
  499MOL0     H67304   5.234   0.953   1.629 -1.0281  2.1988  0.1684
  499MOL0     H67305   5.377   0.883   1.720 -2.0995 -1.1923  2.2399
  499MOL0     H67306   5.333   1.034   1.914  0.4683  0.9025 -1.0535
  499MOL0     H67307   5.189   1.087   1.830 -0.9343  0.1346  1.5857
  499MOL0     H67308   5.090   0.865   1.823 -0.6189 -0.7839  1.4943
  499MOL0     H67309   5.241   0.795   1.880 -0.0707 -0.7611  0.6641
  499MOL0     H67310   5.068   0.810   2.065 -1.0779  0.1162 -0.8528
  499MOL0     H67311   5.206   0.902   2.098  0.9495 -1.7466 -2.3938
  499MOL0     H67312   4.981   1.031   2.142 -1.2061 -4.2325  0.1957
  499MOL0     H67313   5.071   1.112   2.003  3.6309 -2.7946 -1.3832
  499MOL0     H67314   4.908   0.988   1.843  2.2202 -1.7752  0.0126
  499MOL0     H67315   4.827   1.087   1.968 -3.5506 -1.8927  0.7218
  499MOL0     H67316   4.741   0.956   2.185 -0.0697  1.4356 -1.2584
  499MOL0     H67317   4.646   0.691   2.313  1.3209 -1.8361 -2.2279
  499MOL0     H67318   4.502   0.778   2.251 -1.5920 -1.7955  3.3396
  499MOL0     H67319   4.446   0.545   2.277 -2.3704 -1.6082 -1.6900
  499MOL0     H67320   4.589   0.495   2.200 -0.3386 -0.2022 -1.0027
  499MOL0     H67321   4.490   0.557   1.981  0.2114 -2.0946  0.2072
  499MOL0     H67322   4.364   0.667   2.060 -1.2157 -0.8890 -2.6751
  499MOL0     H67323   4.266   0.476   2.162 -0.0203  2.1548  1.3731
  499MOL0     H67324   4.374   0.378   2.070 -1.7344 -0.4066  4.0479
  499MOL0     H67325   4.030   0.616   2.087  0.0491 -2.2458  3.0860
  499MOL0     H67326   3.709   0.505   2.171 -0.2114  0.8073 -0.8598
  499MOL0     H67327   3.801   0.653   2.144  0.0860  0.6337 -0.7018
  499MOL0     H67328   3.692   0.596   2.018  2.6302 -1.3849 -2.3536
  499MOL0     H67329   3.710  -0.011   1.708 -0.9912  0.3149 -2.8372
  499MOL0     H67330   3.513  -0.164   1.693  0.5244  0.8752 -0.9676
  499MOL0     H67331   3.143  -0.047   1.903  1.4790  0.2910 -0.1761
  499MOL0     H67332   3.101   0.017   1.736  0.3764 -0.9208 -1.6381
  499MOL0     H67333   3.029  -0.207   1.670  0.0423 -1.7703 -0.3209
  499MOL0     H67334   3.090  -0.268   1.832  1.2948  2.3475  2.6588
  499MOL0     H67335   2.883  -0.047   1.834  0.2541 -0.9592 -0.2739
  499MOL0     H67336   2.944  -0.164   1.957 -0.1729  0.1213  0.1097
  499MOL0     H67337   2.843  -0.355   1.812  0.4032 -0.1233 -2.1045
  499MOL0     H67338   2.724  -0.252   1.879  0.4018 -0.9853  0.5889
  499MOL0     H67339   2.676  -0.310   1.657 -1.0908  0.3806  5.9254
  499MOL0     H67340   2.816  -0.232   1.591 -1.6827  0.7600 -1.6296
  499MOL0     H67341   2.603  -0.080   1.743 -1.5350 -1.5637 -0.3032
  499MOL0     H67342   2.719  -0.008   1.629  0.5343 -0.3259  1.1258
  499MOL0     H67343   2.614  -0.115   1.439 -0.1700 -2.5013 -0.1457
  499MOL0     H67344   2.500  -0.011   1.532  1.1385  0.7729 -1.8445
  499MOL0     H67345   2.509  -0.324   1.526 -1.1079 -0.9250  0.3090
  499MOL0     H67346   2.401  -0.229   1.432  2.0754 -5.8712 -2.7791
  499MOL0     H67347   3.266   0.176   1.781 -0.1579  0.6717  0.2444
  499MOL0     H67348   3.464   0.291   1.849  2.1601 -0.5176 -0.5978
  499MOL0     H67349   3.914   0.224   1.807 -0.4281 -0.2749  1.3537
  499MOL0     H67350   4.159   0.294   1.831  2.3826  1.8215  0.4159
  499MOL0     H67351   5.798   1.119   1.790 -1.4625 -1.4534  1.1735
  499MOL0     H67352   6.040   1.084   1.783 -1.8434 -1.0007  1.8243
  499MOL0     H67353   6.346   0.765   1.994  0.0860  1.5543  0.0860
  499MOL0     H67354   6.578   0.729   2.017 -0.5258 -0.6643 -0.0433
  499MOL0     H67355   6.814   0.737   2.004 -3.1877 -0.2806 -0.8923
  499MOL0     H67356   6.756   0.611   1.892  1.0159 -0.1367 -0.9272
  499MOL0     H67357   7.012   0.758   1.826  0.6833 -1.0310 -0.0744
  499MOL0     H67358   6.951   0.599   1.783  0.0112  0.9070 -1.4462
  499MOL0     H67359   7.005   0.492   1.980 -1.6322  0.2142 -1.8449
  499MOL0     H67360   7.050   0.641   2.070  0.6968  0.7578 -1.2177
  499MOL0     H67361   7.244   0.669   1.931  1.9372 -1.2896  1.0153
  499MOL0     H67362   7.192   0.530   1.831  0.3398 -1.6550  1.6312
  499MOL0     H67363   7.304   0.331   2.175  0.6010 -2.3502 -1.2292
  499MOL0     H67364   6.633   0.906   1.623 -0.7339  1.7727  0.3433
  499MOL0     H67365   6.398   0.907   1.584 -1.2567 -1.3393  0.0022
  500MOL0     O67366  11.152   9.229  10.449  0.6596 -0.5138  0.0815
  500MOL0     C67367  11.084   9.237  10.345  0.2609 -0.6065 -0.3412
  500MOL0     O67368  11.068   9.139  10.233  0.0806 -0.0361 -0.5967
  500MOL0     C67369  11.154   9.031  10.230 -0.0896 -0.6362  0.3974
  500MOL0     C67370  11.105   8.939  10.143 -0.0231  0.0231 -0.0954
  500MOL0     C67371  11.173   8.817  10.112  0.0634  0.0360  0.7616
  500MOL0     C67372  11.301   8.797  10.167  0.4419  0.3132 -0.3618
  500MOL0     O67373  11.349   8.674  10.152  0.1325  0.6705 -0.2942
  500MOL0     C67374  11.494   8.660  10.134  0.5554  0.1195  0.7333
  500MOL0     C67375  11.531   8.516  10.083  0.3334 -1.3979 -0.5687
  500MOL0     C67376  11.518   8.500   9.932  0.3568 -0.0983 -0.9939
  500MOL0     C67377  11.385   8.519   9.866  0.3802 -0.9743 -0.5446
  500MOL0     C67378  11.378   8.453   9.728 -0.9453 -0.1186 -0.4870
  500MOL0     C67379  11.313   8.537   9.635 -0.2129 -0.7246  0.9601
  500MOL0     C67380  11.323   8.482   9.489 -0.6253  0.2669 -0.0200
  500MOL0     C67381  11.295   8.590   9.379  1.2692  0.1091 -0.1757
  500MOL0     N67382  11.298   8.532   9.238  0.1147 -0.1109  0.2153
  500MOL0     C67383  11.312   8.610   9.132  0.2675  0.2667  0.9748
  500MOL0     C67384  11.344   8.528   9.027 -0.3010 -0.3310 -0.2970
  500MOL0     C67385  11.399   8.563   8.900 -0.3561  1.0823  0.7748
  500MOL0     C67386  11.321   8.513   8.773  0.9427  1.0357  0.1147
  500MOL0     C67387  11.410   8.518   8.647  0.5741 -0.1935  0.2808
  500MOL0     C67388  11.355   8.483   8.508  0.2618  0.4315 -0.2575
  500MOL0     O67389  11.262   8.585   8.476 -0.1538 -0.5421 -0.3361
  500MOL0     C67390  11.166   8.567   8.395  1.2350 -0.4663  0.4231
  500MOL0     C67391  11.035   8.573   8.445  0.6617 -0.0808 -0.2982
  500MOL0     C67392  10.919   8.547   8.363 -0.4777  0.0039  0.0517
  500MOL0     C67393  10.783   8.535   8.435  0.4788 -0.0204 -0.1197
  500MOL0     C67394  10.947   8.511   8.226  0.0411  0.2860 -0.4622
  500MOL0     C67395  10.838   8.468   8.126  0.3611  0.4923  1.7589
  500MOL0     O67396  10.875   8.393   8.013 -0.6012  0.2077 -0.2619
  500MOL0     C67397  10.779   8.362   7.929  0.1517 -0.9658  0.3817
  500MOL0     C67398  10.726   8.457   7.845 -0.3023  0.3223 -0.5364
  500MOL0     C67399  10.615   8.424   7.764 -0.1276 -0.0434 -1.1106
  500MOL0     C67400  10.569   8.294   7.764  0.7352 -0.4468  1.7015
  500MOL0     O67401  10.460   8.258   7.691 -0.2472 -0.1558 -0.0988
  500MOL0     C67402  10.347   8.350   7.673 -0.8709  1.1738  0.0735
  500MOL0     C67403  10.225   8.280   7.605 -0.0580  0.1752 -0.2577
  500MOL0     C67404  10.171   8.155   7.671  0.4726 -0.0745 -0.3310
  500MOL0     C67405  10.066   8.069   7.597 -0.4777  0.0675  0.4838
  500MOL0     C67406   9.936   8.133   7.570  0.0285 -0.6777  1.1144
  500MOL0     C67407   9.859   8.073   7.451 -0.0222 -0.9379 -0.0005
  500MOL0     C67408   9.723   8.139   7.436 -0.1550 -0.6552 -0.6301
  500MOL0     C67409   9.663   8.112   7.301  0.0019  0.4609  1.2656
  500MOL0    Cl67410   9.735   8.194   7.161  0.1849 -0.3241  0.0540
  500MOL0     C67411  10.622   8.201   7.846  0.7655 -0.1793 -0.7643
  500MOL0     C67412  10.729   8.230   7.933  0.8927 -0.8745 -0.2345
  500MOL0     O67413  10.729   8.514   8.146  0.5077 -0.7978 -0.6797
  500MOL0     C67414  11.079   8.519   8.179 -0.8909 -0.2301  0.5573
  500MOL0     C67415  11.188   8.549   8.257  0.3986 -0.3032  0.2317
  500MOL0     N67416  11.353   8.396   9.073 -0.4694 -0.2361  0.7648
  500MOL0     N67417  11.326   8.402   9.198  0.0202 -0.1144  0.2773
  500MOL0     C67418  11.353   8.896  10.252  0.3949  1.0077  0.9868
  500MOL0     C67419  11.276   9.006  10.287 -1.0518  0.0528 -0.4106
  500MOL0     C67420  10.991   9.355  10.342 -0.1920 -0.0572 -1.7460
  500MOL0     C67421  11.023   9.477  10.408  0.2122  1.0955  0.2755
  500MOL0     C67422  10.931   9.577  10.424  0.4426  0.0540  0.2887
  500MOL0     C67423  10.802   9.549  10.382  0.9089 -0.7671 -0.1426
  500MOL0     O67424  10.710   9.650  10.398  0.5612  0.2688 -0.2618
  500MOL0     C67425  10.667   9.708  10.275  0.4729  0.5367 -0.4465
  500MOL0     C67426  10.650   9.865  10.281  0.2879 -0.3736 -0.2239
  500MOL0     C67427  10.631   9.922  10.143 -0.1530 -0.3483  0.4582
  500MOL0     C67428  10.492   9.910  10.074  0.4640 -0.2579 -0.7159
  500MOL0     C67429  10.504   9.943   9.931  0.8903  0.6638  0.2065
  500MOL0     C67430  10.519   9.984   9.819 -0.3060 -0.2075  0.6148
  500MOL0     C67431  10.761   9.437  10.316 -0.6527  0.0369 -0.1019
  500MOL0     C67432  10.862   9.338  10.297 -0.0131  0.1507  0.8222
  500MOL0     H67433  11.007   8.958  10.099  1.3637 -0.3083 -3.5863
  500MOL0     H67434  11.128   8.737  10.056  0.1970  0.6515 -0.2458
  500MOL0     H67435  11.538   8.728  10.061  0.8264  0.0954  0.8736
  500MOL0     H67436  11.540   8.682  10.231  1.8594 -1.5948  0.5614
  500MOL0     H67437  11.639   8.508  10.099  0.9633  2.5022 -1.7769
  500MOL0     H67438  11.465   8.448  10.138 -0.5134 -0.2197 -0.0926
  500MOL0     H67439  11.604   8.547   9.882  0.9593 -0.0526  0.0708
  500MOL0     H67440  11.526   8.392   9.918 -0.1832 -0.6316  2.1124
  500MOL0     H67441  11.304   8.478   9.927 -0.5168  1.0642 -0.2746
  500MOL0     H67442  11.362   8.626   9.862  2.3507 -0.2099  3.5777
  500MOL0     H67443  11.474   8.421   9.685  0.7687  1.4102  1.8930
  500MOL0     H67444  11.318   8.362   9.736 -0.1223 -0.7879 -1.4978
  500MOL0     H67445  11.206   8.538   9.658 -0.5757  0.8944 -0.5777
  500MOL0     H67446  11.350   8.639   9.625 -0.1199 -0.8400  0.1061
  500MOL0     H67447  11.423   8.442   9.474 -0.7657  0.3729 -1.3434
  500MOL0     H67448  11.246   8.405   9.476  0.5181 -0.5601 -2.3603
  500MOL0     H67449  11.371   8.667   9.388 -1.1974  2.6436  0.4479
  500MOL0     H67450  11.204   8.644   9.409  1.6886 -0.3217  2.0002
  500MOL0     H67451  11.312   8.719   9.132 -0.3360  0.3186 -1.0970
  500MOL0     H67452  11.417   8.671   8.897 -3.4782  1.7041  0.1757
  500MOL0     H67453  11.502   8.526   8.906 -0.1864  1.0260 -1.5633
  500MOL0     H67454  11.224   8.565   8.776 -0.1237 -0.8996  1.9380
  500MOL0     H67455  11.295   8.408   8.788  0.7019  0.6999 -2.2703
  500MOL0     H67456  11.502   8.460   8.662  1.9289  2.2362  2.2994
  500MOL0     H67457  11.443   8.621   8.632  1.4012 -0.7854 -2.5231
  500MOL0     H67458  11.290   8.396   8.515 -0.3565  0.8771 -0.3850
  500MOL0     H67459  11.443   8.462   8.446 -1.1192 -1.8786 -1.5539
  500MOL0     H67460  11.024   8.575   8.553  4.2223 -1.5517  0.2122
  500MOL0     H67461  10.737   8.436   8.436  1.5842 -0.5788  2.2440
  500MOL0     H67462  10.770   8.570   8.537 -0.3187  0.6863 -0.4469
  500MOL0     H67463  10.722   8.600   8.371  0.2710 -0.1383 -0.0431
  500MOL0     H67464  10.771   8.555   7.854 -4.2577  2.2270  1.0227
  500MOL0     H67465  10.597   8.493   7.682  1.5181 -0.2255 -1.6732
  500MOL0     H67466  10.313   8.383   7.771  0.2294  1.4262  0.3903
  500MOL0     H67467  10.387   8.440   7.623 -0.6694  0.9950 -0.0899
  500MOL0     H67468  10.151   8.359   7.620  1.9437  1.7376  2.1538
  500MOL0     H67469  10.224   8.264   7.497 -1.5113 -0.7576 -0.1439
  500MOL0     H67470  10.126   8.177   7.768 -0.2058 -0.8490 -0.4572
  500MOL0     H67471  10.255   8.089   7.696  1.2551  0.0821 -2.3861
  500MOL0     H67472  10.111   8.046   7.500  0.4880 -2.7682  1.4920
  500MOL0     H67473  10.054   7.976   7.654 -1.1167 -1.4235 -1.9312
  500MOL0     H67474   9.956   8.235   7.536 -2.9694 -0.8271 -1.6657
  500MOL0     H67475   9.871   8.132   7.658 -1.7258 -1.8047 -0.0995
  500MOL0     H67476   9.911   8.097   7.357  2.8071 -1.6279  1.2824
  500MOL0     H67477   9.856   7.963   7.454 -0.4948 -0.9467 -0.4737
  500MOL0     H67478   9.738   8.246   7.453 -0.7826 -0.6894  0.2045
  500MOL0     H67479   9.657   8.114   7.519  1.2084  3.0772  1.8931
  500MOL0     H67480   9.557   8.138   7.296 -0.2521 -0.7734 -2.1544
  500MOL0     H67481   9.680   8.006   7.285  3.4111  0.6638  2.5782
  500MOL0     H67482  10.576   8.105   7.865  0.4040  0.5115  2.5746
  500MOL0     H67483  10.764   8.159   8.007 -0.9257 -4.5042 -2.5308
  500MOL0     H67484  11.082   8.501   8.072 -2.4608  0.1885  0.4213
  500MOL0     H67485  11.291   8.546   8.220  1.5324 -2.9737  3.1443
  500MOL0     H67486  11.446   8.875  10.305  1.5476  1.3979 -0.7814
  500MOL0     H67487  11.315   9.079  10.357 -1.4895  1.8672 -1.9766
  500MOL0     H67488  11.124   9.505  10.440  1.2503 -0.1342 -1.7490
  500MOL0     H67489  10.951   9.670  10.475 -1.8807  0.5442  0.4373
  500MOL0     H67490  10.741   9.691  10.196 -1.0945  1.4747 -2.2165
  500MOL0     H67491  10.571   9.662  10.252  0.8977  0.4417 -2.2177
  500MOL0     H67492  10.728   9.920  10.334 -2.8544  1.2193  3.2374
  500MOL0     H67493  10.558   9.883  10.338  1.0848  2.3019  0.3240
  500MOL0     H67494  10.713   9.890  10.078  2.1211  1.8895  2.0253
  500MOL0     H67495  10.648  10.030  10.148 -0.3841 -0.3203  0.6341
  500MOL0     H67496  10.411   9.962  10.126  0.4285  0.6829 -1.6582
  500MOL0     H67497  10.462   9.805  10.080  1.1647 -0.4086  0.4258
  500MOL0     H67498  10.519   9.996   9.713 -1.0312 -2.1479  0.3501
  500MOL0     H67499  10.657   9.419  10.289 -1.0476  0.4686  1.0537
  500MOL0     H67500  10.829   9.245  10.252 -1.6604 -0.0342  2.2755
  501MOL0     O67501   6.350   8.892   1.900 -0.1869  0.0991  0.8106
  501MOL0     C67502   6.299   8.820   1.981 -0.0625  1.0656  0.1878
  501MOL0     O67503   6.322   8.683   1.993 -0.2544  0.4266 -0.7050
  501MOL0     C67504   6.423   8.610   1.932  0.0814 -0.2762 -0.0014
  501MOL0     C67505   6.532   8.664   1.858 -0.3121 -0.5332 -0.6008
  501MOL0     C67506   6.617   8.565   1.796  0.4243 -0.5350  0.2017
  501MOL0     C67507   6.609   8.427   1.809  0.1908  0.0094  0.0003
  501MOL0     O67508   6.698   8.333   1.753  0.8960 -0.1095 -0.0434
  501MOL0     C67509   6.805   8.377   1.675  0.6337 -0.3145  0.0522
  501MOL0     C67510   6.879   8.264   1.611 -0.6077  0.0097  0.6917
  501MOL0     C67511   6.953   8.184   1.711 -0.8247 -0.2499 -0.5465
  501MOL0     C67512   7.016   8.048   1.665 -0.5175  0.2579  0.2908
  501MOL0     C67513   7.116   7.991   1.759 -0.5287  1.1797 -0.2000
  501MOL0     C67514   7.134   7.839   1.715  0.0942 -0.1127  0.2801
  501MOL0     C67515   7.186   7.810   1.570  0.4319  0.4170 -0.1518
  501MOL0     C67516   7.196   7.651   1.550  0.0039 -0.0542  0.5230
  501MOL0     N67517   7.232   7.622   1.407 -1.3809 -1.0585 -0.4247
  501MOL0     C67518   7.364   7.614   1.355  0.0712  0.2650  0.3435
  501MOL0     C67519   7.343   7.597   1.216 -0.7648  0.6801  0.3506
  501MOL0     C67520   7.446   7.581   1.106 -1.4356 -0.4515 -0.4588
  501MOL0     C67521   7.543   7.468   1.136  0.6106 -0.2153 -0.2129
  501MOL0     C67522   7.630   7.430   1.025 -0.9763  0.4959 -0.9097
  501MOL0     C67523   7.770   7.383   1.078  0.8084  0.3708 -0.5822
  501MOL0     O67524   7.846   7.489   1.138  0.2717 -0.0701 -0.1367
  501MOL0     C67525   7.980   7.467   1.176 -0.2438 -1.3904  0.3498
  501MOL0     C67526   8.049   7.572   1.234  0.2611  0.5248  0.6087
  501MOL0     C67527   8.189   7.561   1.266  0.0786  0.0326  0.1352
  501MOL0     C67528   8.252   7.690   1.310  0.6922  0.4726 -0.7535
  501MOL0     C67529   8.251   7.434   1.252  0.3548  0.1494 -0.1090
  501MOL0     C67530   8.388   7.389   1.281  0.6292  0.6034 -0.6495
  501MOL0     O67531   8.486   7.477   1.261  0.9684  0.4555 -0.1650
  501MOL0     C67532   8.611   7.451   1.317 -0.0228  0.7943  0.7808
  501MOL0     C67533   8.653   7.498   1.450 -0.3933 -0.5714  0.0755
  501MOL0     C67534   8.784   7.454   1.495  0.9004 -1.2219 -0.5475
  501MOL0     C67535   8.864   7.372   1.410 -0.4981  0.2594 -0.2728
  501MOL0     O67536   8.979   7.318   1.469  0.9808  0.1530  0.8948
  501MOL0     C67537   9.093   7.315   1.385 -0.1273 -0.3377  0.0979
  501MOL0     C67538   9.220   7.315   1.479  0.4391 -0.0380  0.0572
  501MOL0     C67539   9.219   7.181   1.559 -0.2624 -0.2674 -0.5744
  501MOL0     C67540   9.346   7.175   1.644  0.2210  0.7955  0.8077
  501MOL0     C67541   9.374   7.025   1.671  0.7030 -0.1738  0.5019
  501MOL0     C67542   9.504   7.010   1.752 -0.8997 -0.4561 -0.1214
  501MOL0     C67543   9.552   6.865   1.752 -0.1064  0.3192 -0.3249
  501MOL0     C67544   9.670   6.837   1.856 -0.2746  0.7305  0.4397
  501MOL0    Cl67545   9.826   6.879   1.782  0.3265 -0.6608  0.0047
  501MOL0     C67546   8.817   7.326   1.286 -0.1403  0.5964 -0.7180
  501MOL0     C67547   8.695   7.372   1.238 -0.0807  0.4977 -0.0460
  501MOL0     O67548   8.402   7.284   1.351  0.1458  0.4303  0.2099
  501MOL0     C67549   8.165   7.321   1.217  0.5391 -0.2187 -0.5541
  501MOL0     C67550   8.035   7.340   1.175  0.3056 -0.0574  0.4512
  501MOL0     N67551   7.209   7.603   1.191  0.0275  1.0578  0.3474
  501MOL0     N67552   7.148   7.622   1.300  0.2889 -0.9514 -1.0538
  501MOL0     C67553   6.490   8.376   1.876 -1.1218  0.1552  0.0147
  501MOL0     C67554   6.411   8.467   1.949  0.3000  0.0170  0.4961
  501MOL0     C67555   6.207   8.879   2.078  1.2424  0.4029  0.8898
  501MOL0     C67556   6.193   9.019   2.089  0.1756 -0.1275  0.0941
  501MOL0     C67557   6.110   9.079   2.183 -0.8819  1.0763 -1.0285
  501MOL0     C67558   6.039   9.002   2.273 -0.3473 -0.0204 -0.0830
  501MOL0     O67559   5.983   9.066   2.384  0.4533 -0.0577  0.0623
  501MOL0     C67560   5.901   8.974   2.469 -0.0513 -0.9978 -0.1987
  501MOL0     C67561   5.819   9.069   2.557  0.1978 -0.1172 -0.5467
  501MOL0     C67562   5.703   9.137   2.484  0.3915 -0.2184  0.9036
  501MOL0     C67563   5.619   9.232   2.578 -0.0656 -0.3459  0.1142
  501MOL0     C67564   5.509   9.160   2.644  0.0768 -0.1097  0.1814
  501MOL0     C67565   5.427   9.114   2.721 -0.7548 -1.2213 -0.1672
  501MOL0     C67566   6.043   8.864   2.262 -0.7514  0.5154  1.1075
  501MOL0     C67567   6.128   8.803   2.163  0.0727 -0.6105 -0.2727
  501MOL0     H67568   6.553   8.770   1.847 -0.1733 -0.5300 -0.3199
  501MOL0     H67569   6.692   8.614   1.735 -1.5859  3.3090  0.5731
  501MOL0     H67570   6.765   8.444   1.597  0.0191  0.9055  1.3774
  501MOL0     H67571   6.865   8.434   1.746 -2.2140  2.1880  0.6697
  501MOL0     H67572   6.802   8.203   1.563 -0.6804  0.7542 -0.1650
  501MOL0     H67573   6.949   8.308   1.539  1.6136 -1.9681  1.5282
  501MOL0     H67574   7.033   8.253   1.737 -0.5859 -0.9057  0.5485
  501MOL0     H67575   6.903   8.172   1.808  0.4245  0.0067  0.1445
  501MOL0     H67576   6.943   7.969   1.648  1.0138 -1.4223  1.1905
  501MOL0     H67577   7.065   8.072   1.570 -1.0097  0.3491  0.0568
  501MOL0     H67578   7.211   8.046   1.761 -0.6376  1.5036 -2.0789
  501MOL0     H67579   7.065   7.987   1.855 -4.6100  0.0626 -2.2141
  501MOL0     H67580   7.195   7.790   1.792 -1.2963 -0.5548  1.1519
  501MOL0     H67581   7.036   7.792   1.728  0.3950 -0.4838  1.4157
  501MOL0     H67582   7.122   7.850   1.491 -0.3622 -0.6934 -0.0945
  501MOL0     H67583   7.287   7.852   1.560  0.3134  2.5745  4.9356
  501MOL0     H67584   7.093   7.616   1.559 -0.5702  1.6472  0.7546
  501MOL0     H67585   7.263   7.602   1.621  3.0423  1.9542 -0.6950
  501MOL0     H67586   7.465   7.626   1.393  0.3288 -2.2967  0.6997
  501MOL0     H67587   7.405   7.565   1.006 -1.4957  3.8088 -1.3155
  501MOL0     H67588   7.493   7.679   1.105 -1.9780 -0.1920 -1.3077
  501MOL0     H67589   7.486   7.379   1.162 -0.1886  0.1511 -0.6425
  501MOL0     H67590   7.600   7.516   1.216 -0.1107  0.9928 -0.3935
  501MOL0     H67591   7.645   7.519   0.963  0.7634  0.4757 -0.5901
  501MOL0     H67592   7.582   7.348   0.973 -2.7172  1.1439 -0.3934
  501MOL0     H67593   7.824   7.329   0.999  2.9852 -1.8850  2.2425
  501MOL0     H67594   7.750   7.307   1.154  0.5339  0.6346 -0.3872
  501MOL0     H67595   7.995   7.664   1.252  2.8844  1.7529  3.0278
  501MOL0     H67596   8.182   7.761   1.356  1.0335 -0.4201  1.2743
  501MOL0     H67597   8.330   7.666   1.382  1.2521  1.7707 -0.8974
  501MOL0     H67598   8.298   7.751   1.232 -2.0368  0.5617 -2.4471
  501MOL0     H67599   8.597   7.566   1.513  1.4584 -0.5949  1.8342
  501MOL0     H67600   8.827   7.483   1.590  1.1585 -0.0882 -0.9955
  501MOL0     H67601   9.100   7.219   1.332 -2.0556 -0.1676 -0.5599
  501MOL0     H67602   9.108   7.407   1.328  1.5857  1.3960  3.1006
  501MOL0     H67603   9.307   7.317   1.413 -0.8279  0.5901 -1.6725
  501MOL0     H67604   9.212   7.404   1.543  0.4262  0.3137 -0.4272
  501MOL0     H67605   9.202   7.095   1.494 -1.8321 -0.1459 -0.3531
  501MOL0     H67606   9.137   7.184   1.630  0.4202 -0.9561  0.2588
  501MOL0     H67607   9.423   7.239   1.601 -0.0903  0.1775 -0.7451
  501MOL0     H67608   9.318   7.216   1.741  2.4762 -1.6266  2.6209
  501MOL0     H67609   9.367   6.970   1.577  1.1365  2.2646 -1.0524
  501MOL0     H67610   9.289   6.980   1.725 -0.7789 -0.7214 -2.0967
  501MOL0     H67611   9.576   7.075   1.701 -2.7990  0.7454 -1.3961
  501MOL0     H67612   9.484   7.052   1.851 -0.7211 -3.1873  1.1602
  501MOL0     H67613   9.573   6.821   1.654 -0.9763  1.4768 -1.0631
  501MOL0     H67614   9.468   6.809   1.794 -1.4548  2.2677 -0.2978
  501MOL0     H67615   9.686   6.733   1.887  0.4728 -0.3643 -3.1473
  501MOL0     H67616   9.656   6.917   1.930  3.5357  2.2244 -0.2111
  501MOL0     H67617   8.880   7.256   1.232 -0.3995  0.9457 -1.4839
  501MOL0     H67618   8.654   7.336   1.144  1.0028  2.5184 -1.3619
  501MOL0     H67619   8.197   7.218   1.215 -1.3025 -0.8334 -2.5466
  501MOL0     H67620   7.967   7.261   1.146 -0.7606  1.5084 -1.6119
  501MOL0     H67621   6.473   8.269   1.885 -0.6292 -0.2401 -2.8380
  501MOL0     H67622   6.329   8.441   2.016  0.6308  1.5253  1.5351
  501MOL0     H67623   6.253   9.072   2.015 -0.1111 -1.6739 -1.3016
  501MOL0     H67624   6.109   9.185   2.205  1.4341  1.1242 -0.8880
  501MOL0     H67625   5.829   8.916   2.411  1.1069 -0.6336 -2.0776
  501MOL0     H67626   5.963   8.909   2.533  0.4993  0.2200  0.5375
  501MOL0     H67627   5.894   9.133   2.603  2.1069 -1.6864 -1.3580
  501MOL0     H67628   5.781   9.006   2.638  0.8522 -0.8389 -0.7944
  501MOL0     H67629   5.635   9.058   2.450 -0.6318  0.2260  1.8502
  501MOL0     H67630   5.727   9.193   2.394  1.9126  0.2200  1.5603
  501MOL0     H67631   5.573   9.314   2.521  0.3637 -2.1540 -3.0446
  501MOL0     H67632   5.690   9.264   2.654  2.6397  2.6247 -3.2526
  501MOL0     H67633   5.350   9.091   2.793 -0.6529  1.7440  1.0069
  501MOL0     H67634   5.992   8.793   2.327 -3.7137  0.2997 -1.2668
  501MOL0     H67635   6.134   8.695   2.157 -0.0180 -0.5497 -2.1422
  502MOL0     O67636   6.045   1.594   8.434 -0.1347 -0.2564  0.2758
  502MOL0     C67637   6.160   1.640   8.433  0.9727 -0.0599  0.0952
  502MOL0     O67638   6.269   1.579   8.382 -0.7773 -0.3197  1.0162
  502MOL0     C67639   6.259   1.464   8.313 -0.1134 -0.1603 -0.3298
  502MOL0     C67640   6.348   1.363   8.347  0.7465  0.7006 -0.8685
  502MOL0     C67641   6.324   1.238   8.294  0.3221  0.4284  0.0469
  502MOL0     C67642   6.241   1.216   8.180  0.6343  0.6495  0.3894
  502MOL0     O67643   6.250   1.104   8.108 -0.6470  0.5154 -0.1393
  502MOL0     C67644   6.158   1.074   8.006  0.0495 -0.1630 -0.5947
  502MOL0     C67645   6.163   0.927   7.966 -0.1602  0.0355  0.0706
  502MOL0     C67646   6.084   0.907   7.841  0.5717  0.6507 -0.4482
  502MOL0     C67647   6.084   0.759   7.803 -0.6775 -0.3525  1.3925
  502MOL0     C67648   5.996   0.731   7.678 -0.3304  0.9348 -0.1453
  502MOL0     C67649   5.873   0.648   7.721  0.4665  0.1887 -0.5426
  502MOL0     C67650   5.784   0.731   7.813 -0.1948  0.0310 -0.0174
  502MOL0     C67651   5.649   0.659   7.839 -0.0186 -0.6343  0.1610
  502MOL0     N67652   5.552   0.735   7.934 -0.8657  0.0886  0.4059
  502MOL0     C67653   5.591   0.830   8.023 -0.3472  0.4048 -0.0188
  502MOL0     C67654   5.483   0.852   8.103 -0.4127  0.1549  0.4546
  502MOL0     C67655   5.473   0.951   8.218 -0.3002 -0.1530  0.2479
  502MOL0     C67656   5.331   1.002   8.241 -0.1005  0.4000 -0.5578
  502MOL0     C67657   5.242   1.065   8.136  0.4081 -0.2163  0.5733
  502MOL0     C67658   5.119   1.130   8.200 -0.0129 -0.0525  0.0653
  502MOL0     O67659   5.064   1.229   8.109 -0.7421 -0.5474 -0.2008
  502MOL0     C67660   4.947   1.189   8.044 -0.2680  0.7106 -0.0226
  502MOL0     C67661   4.869   1.292   7.989  0.4056  0.8101 -0.0099
  502MOL0     C67662   4.764   1.264   7.896 -0.0785 -0.0090 -0.9377
  502MOL0     C67663   4.695   1.374   7.816  0.1971 -0.3549  1.4602
  502MOL0     C67664   4.741   1.126   7.860 -0.1009 -0.7375  0.7073
  502MOL0     C67665   4.627   1.092   7.774 -0.3919  1.0633  0.6316
  502MOL0     O67666   4.509   1.134   7.817  0.8932  0.0709 -0.0784
  502MOL0     C67667   4.394   1.099   7.757  0.7005 -0.4137  0.3423
  502MOL0     C67668   4.341   1.185   7.654 -0.4454  0.2537 -0.1150
  502MOL0     C67669   4.215   1.170   7.609 -0.5692  0.0599 -0.0135
  502MOL0     C67670   4.142   1.052   7.643 -0.3008  0.2430  1.1007
  502MOL0     O67671   4.022   1.034   7.578  0.2298  0.3015  0.1462
  502MOL0     C67672   3.977   0.897   7.550  0.2604 -0.6095  0.1333
  502MOL0     C67673   3.858   0.905   7.461 -0.1085 -0.5716  0.7275
  502MOL0     C67674   3.743   0.810   7.494 -0.5992  0.0336  0.9469
  502MOL0     C67675   3.793   0.680   7.539 -0.0793  0.5377 -0.7591
  502MOL0     C67676   3.672   0.589   7.557 -0.1286 -0.4110  0.4650
  502MOL0     C67677   3.711   0.473   7.651  0.9625  0.2512 -0.2718
  502MOL0     C67678   3.596   0.381   7.690  0.0577 -0.2992 -0.0314
  502MOL0     C67679   3.538   0.305   7.581 -0.5848  0.2533 -0.3162
  502MOL0    Cl67680   3.470   0.157   7.651 -0.2976  0.0999  0.1290
  502MOL0     C67681   4.196   0.972   7.742 -0.1390 -0.4332  0.1546
  502MOL0     C67682   4.317   0.994   7.800 -0.3469  0.4576 -0.6958
  502MOL0     O67683   4.644   1.020   7.675 -0.5676 -0.1661 -0.5800
  502MOL0     C67684   4.826   1.022   7.914  0.8821 -0.3793  0.1259
  502MOL0     C67685   4.921   1.051   8.005  0.0100  0.1782  1.0120
  502MOL0     N67686   5.385   0.773   8.055 -0.6001 -0.7152  0.3318
  502MOL0     N67687   5.426   0.691   7.966  0.7596 -0.0226 -0.9993
  502MOL0     C67688   6.171   1.332   8.127 -0.5732  0.2634  0.1429
  502MOL0     C67689   6.183   1.456   8.197 -0.3347  0.3186 -0.3454
  502MOL0     C67690   6.179   1.753   8.535  0.3903 -0.3061  0.2329
  502MOL0     C67691   6.299   1.775   8.604 -0.0072  0.7021  0.0665
  502MOL0     C67692   6.304   1.881   8.688 -0.1752  0.6149  0.7635
  502MOL0     C67693   6.198   1.960   8.715  0.3227 -0.3718 -0.1473
  502MOL0     O67694   6.217   2.058   8.808  0.2821 -0.1008 -0.5724
  502MOL0     C67695   6.234   2.019   8.944 -1.2107  0.2247  0.1419
  502MOL0     C67696   6.173   2.115   9.048  0.0010  0.0990 -0.5361
  502MOL0     C67697   6.029   2.157   9.034  0.6824 -0.5370 -0.4716
  502MOL0     C67698   5.929   2.034   9.027 -0.6585  0.6707 -0.0023
  502MOL0     C67699   5.928   1.956   9.146  0.7248  1.2243  0.3042
  502MOL0     C67700   5.916   1.883   9.245 -0.2365  0.5675  1.5157
  502MOL0     C67701   6.072   1.933   8.660 -0.8959 -0.3884 -0.3754
  502MOL0     C67702   6.066   1.835   8.560 -0.5661  0.7517  0.1734
  502MOL0     H67703   6.411   1.375   8.434  0.0341 -1.0129 -0.0671
  502MOL0     H67704   6.382   1.159   8.341 -1.4596 -0.0635  1.5216
  502MOL0     H67705   6.051   1.082   8.030 -0.5308  1.0329 -3.2654
  502MOL0     H67706   6.180   1.140   7.922  1.7174  0.7413  0.4998
  502MOL0     H67707   6.265   0.888   7.964  0.7657  2.2274  1.1503
  502MOL0     H67708   6.115   0.867   8.044 -0.9734  2.0333  1.1826
  502MOL0     H67709   5.979   0.936   7.854 -0.1324 -0.9477 -2.1818
  502MOL0     H67710   6.142   0.966   7.769  3.2942  0.4719  1.4433
  502MOL0     H67711   6.185   0.721   7.785  0.0666  2.8773 -2.8640
  502MOL0     H67712   6.049   0.700   7.889  0.1052 -2.7858  0.1443
  502MOL0     H67713   5.958   0.817   7.622 -5.3823 -2.4433 -2.7195
  502MOL0     H67714   6.056   0.665   7.616 -2.9129 -0.9068 -0.8309
  502MOL0     H67715   5.823   0.615   7.630 -1.0995 -0.0801  0.3866
  502MOL0     H67716   5.922   0.564   7.771  1.4640  0.3260 -1.2625
  502MOL0     H67717   5.828   0.748   7.912 -0.3131  1.6811 -0.2289
  502MOL0     H67718   5.757   0.824   7.764  1.1575  0.3649 -0.1853
  502MOL0     H67719   5.660   0.560   7.884 -3.4960 -0.5890  1.4429
  502MOL0     H67720   5.596   0.640   7.745  1.6687  1.5126 -1.3485
  502MOL0     H67721   5.689   0.875   8.012 -0.5973  0.5660 -1.9182
  502MOL0     H67722   5.500   0.899   8.310  0.2627 -3.2279 -1.5272
  502MOL0     H67723   5.545   1.032   8.202 -0.2782 -0.5297 -1.9056
  502MOL0     H67724   5.347   1.088   8.306 -0.0160 -0.5124  0.6590
  502MOL0     H67725   5.281   0.922   8.297  1.2765  0.9824  1.6172
  502MOL0     H67726   5.215   0.994   8.057  1.9430  0.7412 -0.9024
  502MOL0     H67727   5.292   1.150   8.087 -1.0804  0.7154  0.6001
  502MOL0     H67728   5.168   1.183   8.283 -0.7553  3.3111 -1.4693
  502MOL0     H67729   5.042   1.068   8.249 -0.3526 -0.2945 -0.7625
  502MOL0     H67730   4.886   1.394   8.023 -2.6994  1.1909  0.7761
  502MOL0     H67731   4.597   1.396   7.858 -0.9378 -1.0363 -0.6951
  502MOL0     H67732   4.752   1.467   7.828  1.4579 -0.3420 -2.8610
  502MOL0     H67733   4.687   1.345   7.711  2.4425  2.2488  0.4274
  502MOL0     H67734   4.399   1.268   7.615 -1.4109  0.5520 -0.9929
  502MOL0     H67735   4.181   1.239   7.533  3.7746  0.7956 -1.5900
  502MOL0     H67736   4.046   0.839   7.488 -2.8491 -2.4650 -1.9221
  502MOL0     H67737   3.964   0.835   7.639 -1.5880 -0.4343  0.0374
  502MOL0     H67738   3.813   1.004   7.474  3.7615  1.1478  2.4435
  502MOL0     H67739   3.888   0.894   7.356  1.1450  1.3590  0.8328
  502MOL0     H67740   3.672   0.797   7.413  0.9500 -2.9783 -0.0929
  502MOL0     H67741   3.692   0.854   7.581 -3.4559 -0.0386 -0.5813
  502MOL0     H67742   3.850   0.635   7.457 -2.1060  0.4615 -2.2305
  502MOL0     H67743   3.856   0.674   7.628  3.0322 -1.9154 -2.8890
  502MOL0     H67744   3.641   0.546   7.461 -2.0061 -0.3458  1.0014
  502MOL0     H67745   3.593   0.651   7.599 -0.7430 -1.3111  0.6619
  502MOL0     H67746   3.796   0.416   7.611 -0.1004 -1.9458  0.4319
  502MOL0     H67747   3.754   0.521   7.739  0.3093  2.4061 -1.0560
  502MOL0     H67748   3.506   0.430   7.728 -1.6598 -2.5814 -0.8715
  502MOL0     H67749   3.637   0.312   7.764 -0.7137  0.4454  1.1183
  502MOL0     H67750   3.621   0.273   7.517 -0.5927 -0.3989 -0.0143
  502MOL0     H67751   3.464   0.367   7.529  0.7506  0.7572 -1.6696
  502MOL0     H67752   4.148   0.882   7.777 -0.8124 -0.9890 -2.0594
  502MOL0     H67753   4.353   0.925   7.876  0.9778  1.4185 -0.4186
  502MOL0     H67754   4.803   0.926   7.870  0.4027  1.2569 -3.5039
  502MOL0     H67755   4.979   0.968   8.044  1.2452  0.1351 -0.8182
  502MOL0     H67756   6.107   1.320   8.040 -2.4078 -0.3135  1.5359
  502MOL0     H67757   6.108   1.532   8.179  1.0799  2.0992  0.8742
  502MOL0     H67758   6.385   1.709   8.596 -1.4754 -1.1315 -1.8858
  502MOL0     H67759   6.393   1.875   8.749  0.9390  0.0200 -0.8291
  502MOL0     H67760   6.200   1.918   8.967 -2.2735  0.6211  0.3672
  502MOL0     H67761   6.343   2.012   8.957 -1.5340  0.5962  5.0716
  502MOL0     H67762   6.224   2.211   9.035 -0.5774  0.1983 -2.3647
  502MOL0     H67763   6.200   2.068   9.143  0.6601  1.4694 -0.0167
  502MOL0     H67764   6.017   2.218   8.944 -2.4973 -0.8670 -0.3899
  502MOL0     H67765   5.997   2.215   9.121  1.1199  0.3518 -0.8937
  502MOL0     H67766   5.968   1.972   8.946  1.7368 -0.2142  1.7299
  502MOL0     H67767   5.829   2.062   8.993 -1.3884  0.0291  1.5281
  502MOL0     H67768   5.916   1.816   9.328 -0.0131 -0.8828  0.3818
  502MOL0     H67769   5.985   1.996   8.673 -0.5366 -0.1786  1.1985
  502MOL0     H67770   5.966   1.818   8.521 -2.3262  1.6112  3.8772
  503MOL0     O67771   2.013   3.415   3.728 -0.1648 -0.2433  1.1682
  503MOL0     C67772   1.948   3.521   3.730 -0.8388 -0.3370 -0.5920
  503MOL0     O67773   1.818   3.536   3.755 -0.0152  0.4817  0.2229
  503MOL0     C67774   1.737   3.435   3.789 -0.0999 -0.1207  0.5688
  503MOL0     C67775   1.604   3.452   3.749  0.3483 -1.7831 -0.1698
  503MOL0     C67776   1.501   3.368   3.794  0.7025  0.8144  0.2625
  503MOL0     C67777   1.533   3.238   3.853 -0.0695 -0.8509 -0.1835
  503MOL0     O67778   1.445   3.137   3.888 -0.7563  0.2543 -0.2625
  503MOL0     C67779   1.304   3.147   3.895 -0.3473 -0.6865  0.2084
  503MOL0     C67780   1.253   3.218   4.019 -0.0184 -0.0689 -0.1877
  503MOL0     C67781   1.344   3.184   4.148  0.1832 -0.3470 -0.3926
  503MOL0     C67782   1.256   3.196   4.278 -0.3083  0.8462  0.5379
  503MOL0     C67783   1.361   3.201   4.396 -1.1341  0.4913  0.3894
  503MOL0     C67784   1.476   3.101   4.390  0.4430  0.0621 -0.0363
  503MOL0     C67785   1.414   2.956   4.397 -0.4943 -0.0438 -0.8367
  503MOL0     C67786   1.511   2.843   4.357 -0.4466 -0.6375  0.0703
  503MOL0     N67787   1.452   2.709   4.354 -0.0438  0.2806 -0.0208
  503MOL0     C67788   1.520   2.600   4.313 -0.0608  0.0444  0.6961
  503MOL0     C67789   1.443   2.497   4.355  0.6634 -1.0050  0.3071
  503MOL0     C67790   1.490   2.354   4.353 -0.4118  0.4407  0.2928
  503MOL0     C67791   1.442   2.296   4.215 -0.1767 -0.0498 -0.0904
  503MOL0     C67792   1.296   2.253   4.208 -0.2049 -0.0533 -0.3954
  503MOL0     C67793   1.252   2.143   4.307 -0.7205 -1.0410  0.4090
  503MOL0     O67794   1.137   2.080   4.245 -0.4488 -0.6085 -0.7078
  503MOL0     C67795   1.018   2.146   4.251  0.3802 -0.2531  0.7686
  503MOL0     C67796   0.981   2.269   4.311  0.2602  0.1656 -0.0185
  503MOL0     C67797   0.852   2.330   4.298 -0.5252  0.1405 -0.9905
  503MOL0     C67798   0.824   2.441   4.395  0.2673 -0.2304  0.3618
  503MOL0     C67799   0.762   2.276   4.214  0.0926 -0.2473  0.6128
  503MOL0     C67800   0.626   2.333   4.199 -0.4774 -0.2557  0.3819
  503MOL0     O67801   0.522   2.260   4.251 -0.2158 -0.2488  1.2047
  503MOL0     C67802   0.392   2.282   4.213 -0.8214  0.0731  1.0361
  503MOL0     C67803   0.348   2.311   4.078 -0.9913  0.0352 -0.6125
  503MOL0     C67804   0.208   2.313   4.043 -0.3413  0.1164  0.6909
  503MOL0     C67805   0.116   2.299   4.144 -0.5917 -0.6091 -0.8529
  503MOL0     O67806  -0.019   2.308   4.111 -0.1561  0.8499  0.8043
  503MOL0     C67807  -0.109   2.238   4.210  0.3865 -0.2107 -0.6057
  503MOL0     C67808  -0.252   2.211   4.157  0.7533 -0.3315 -0.4559
  503MOL0     C67809  -0.347   2.161   4.266 -1.2135  0.2832 -0.5547
  503MOL0     C67810  -0.477   2.130   4.200 -0.1868  0.1510 -0.5773
  503MOL0     C67811  -0.578   2.093   4.316  0.0903  0.0822  0.6491
  503MOL0     C67812  -0.723   2.109   4.263 -0.9266  0.6207  0.7609
  503MOL0     C67813  -0.816   2.044   4.367  0.7085  0.4345  0.0028
  503MOL0     C67814  -0.960   2.048   4.307  0.9406 -0.0726 -0.6033
  503MOL0    Cl67815  -0.995   1.894   4.214 -0.3328 -0.2046  0.2294
  503MOL0     C67816   0.159   2.273   4.277 -0.2052  0.9221 -0.7597
  503MOL0     C67817   0.296   2.259   4.313 -0.1796 -0.0313 -0.1127
  503MOL0     O67818   0.628   2.451   4.162  0.1876  0.2934  0.1424
  503MOL0     C67819   0.788   2.156   4.154 -0.5746 -0.6243 -0.5694
  503MOL0     C67820   0.914   2.091   4.172  0.1558  0.6846 -0.8266
  503MOL0     N67821   1.321   2.543   4.391  0.2209  0.2766  0.8323
  503MOL0     N67822   1.327   2.674   4.400 -0.2302  0.1278  0.4769
  503MOL0     C67823   1.670   3.220   3.889  0.2446  0.4649  1.1713
  503MOL0     C67824   1.768   3.310   3.842 -0.5280  0.0572 -1.0469
  503MOL0     C67825   2.017   3.646   3.694  0.1168  0.5016 -0.3073
  503MOL0     C67826   2.164   3.637   3.686  0.3822 -0.5242  0.7536
  503MOL0     C67827   2.245   3.757   3.659  1.0437 -0.6173  0.0273
  503MOL0     C67828   2.170   3.875   3.626  0.7190  0.5559 -0.2642
  503MOL0     O67829   2.234   3.989   3.593  0.0250 -0.6957 -0.3431
  503MOL0     C67830   2.375   4.002   3.561  0.0514 -0.1980 -0.5037
  503MOL0     C67831   2.398   4.143   3.517  0.3218 -0.7794 -0.5104
  503MOL0     C67832   2.363   4.178   3.367 -0.2548  0.5730 -0.2222
  503MOL0     C67833   2.451   4.108   3.263  0.4117  0.0673  0.1658
  503MOL0     C67834   2.585   4.169   3.245  0.7347 -0.4716  0.0571
  503MOL0     C67835   2.690   4.215   3.215  0.4373  0.3472  0.9010
  503MOL0     C67836   2.030   3.880   3.628  0.3556 -0.3926  0.7834
  503MOL0     C67837   1.953   3.769   3.659  0.0949  0.0778 -0.2086
  503MOL0     H67838   1.580   3.548   3.704 -1.2964 -1.4878  1.2316
  503MOL0     H67839   1.402   3.407   3.771  0.6351  0.4618 -0.0556
  503MOL0     H67840   1.276   3.202   3.805  1.1286 -1.0991 -0.5441
  503MOL0     H67841   1.259   3.047   3.891 -0.6137 -0.5264 -2.7022
  503MOL0     H67842   1.245   3.324   3.994  2.0556 -0.5182 -3.1800
  503MOL0     H67843   1.154   3.172   4.031  1.2028 -2.9537 -0.3343
  503MOL0     H67844   1.379   3.080   4.139 -1.9904 -0.9962 -2.1727
  503MOL0     H67845   1.421   3.260   4.162 -1.2969  1.4646 -1.5974
  503MOL0     H67846   1.207   3.294   4.275 -0.5893  0.7408  1.3893
  503MOL0     H67847   1.197   3.104   4.290 -0.5612  1.0174  0.6169
  503MOL0     H67848   1.407   3.301   4.399  0.4900 -0.2226 -0.0191
  503MOL0     H67849   1.306   3.179   4.488 -3.2454 -1.8856 -1.3270
  503MOL0     H67850   1.534   3.109   4.298 -0.3097  2.0479 -0.3775
  503MOL0     H67851   1.542   3.107   4.477 -2.8191 -4.4476  3.2302
  503MOL0     H67852   1.385   2.934   4.500 -2.7555 -0.8003 -1.5854
  503MOL0     H67853   1.336   2.940   4.323  1.6640  0.0176 -3.2466
  503MOL0     H67854   1.588   2.842   4.435  1.4659 -1.2708 -1.7443
  503MOL0     H67855   1.539   2.875   4.257 -0.5371 -1.5827 -0.2699
  503MOL0     H67856   1.627   2.593   4.295  0.0395  0.3789  1.1572
  503MOL0     H67857   1.599   2.351   4.355 -0.4146 -0.2702 -0.3484
  503MOL0     H67858   1.440   2.303   4.436 -1.0563 -1.8764 -1.4049
  503MOL0     H67859   1.499   2.204   4.198  3.0430  0.9757  3.6495
  503MOL0     H67860   1.459   2.365   4.132 -0.8077 -2.2142 -2.1433
  503MOL0     H67861   1.279   2.220   4.105  1.9844 -1.5734 -0.3376
  503MOL0     H67862   1.226   2.333   4.236 -2.3546 -1.8780 -0.2117
  503MOL0     H67863   1.243   2.176   4.411  2.0426 -2.1035  1.0641
  503MOL0     H67864   1.326   2.063   4.305 -0.1722 -0.6108  2.0399
  503MOL0     H67865   1.055   2.305   4.382 -0.6365 -1.3999  1.7857
  503MOL0     H67866   0.853   2.539   4.355 -3.9077  0.7714 -0.6670
  503MOL0     H67867   0.717   2.454   4.414  0.1309 -1.8681  0.8172
  503MOL0     H67868   0.874   2.412   4.488  1.5714 -5.4618 -1.6537
  503MOL0     H67869   0.426   2.327   4.004  1.1654 -5.7922 -0.0903
  503MOL0     H67870   0.185   2.322   3.938  3.2955 -1.2790 -0.3787
  503MOL0     H67871  -0.080   2.137   4.239  0.0431  0.4356  2.3012
  503MOL0     H67872  -0.121   2.304   4.296  0.1479  0.1764 -0.9300
  503MOL0     H67873  -0.289   2.309   4.124  0.5748  0.8224  2.7801
  503MOL0     H67874  -0.249   2.132   4.082  0.1112  0.0817 -0.9231
  503MOL0     H67875  -0.361   2.234   4.346 -0.5948 -0.1042 -0.0791
  503MOL0     H67876  -0.302   2.069   4.305 -2.2310  0.7835  2.0460
  503MOL0     H67877  -0.520   2.210   4.139  0.9517 -1.0359 -3.0717
  503MOL0     H67878  -0.471   2.041   4.137  0.3062 -0.9228  0.9135
  503MOL0     H67879  -0.547   2.154   4.401  3.2643  1.4962 -1.3174
  503MOL0     H67880  -0.565   1.987   4.338  2.0792  0.6985  2.8531
  503MOL0     H67881  -0.756   2.212   4.244 -3.8266 -0.2850  0.3574
  503MOL0     H67882  -0.719   2.065   4.164  0.2941  1.3627  0.4567
  503MOL0     H67883  -0.791   2.096   4.459 -0.9562  0.1981  0.6199
  503MOL0     H67884  -0.783   1.940   4.372  0.4392  0.4164  2.7544
  503MOL0     H67885  -0.987   2.138   4.251 -1.5681  0.9434  1.9946
  503MOL0     H67886  -1.033   2.051   4.388 -1.9665 -0.4419 -3.0161
  503MOL0     H67887   0.096   2.248   4.362 -0.5549 -1.7068 -1.7053
  503MOL0     H67888   0.336   2.253   4.414 -4.3380 -1.0966  1.7040
  503MOL0     H67889   0.711   2.107   4.095  0.2869 -0.6539 -1.7212
  503MOL0     H67890   0.951   2.004   4.118 -0.1266 -0.6228  0.9723
  503MOL0     H67891   1.690   3.123   3.933  2.0329  0.8831  1.3936
  503MOL0     H67892   1.872   3.281   3.849 -1.2670 -2.7448 -0.3933
  503MOL0     H67893   2.216   3.544   3.707 -0.9098 -1.0377  1.8465
  503MOL0     H67894   2.352   3.746   3.650  1.0224 -0.6863 -0.1424
  503MOL0     H67895   2.428   3.980   3.654  1.7292 -2.0871 -1.8208
  503MOL0     H67896   2.412   3.931   3.487  0.7965 -0.1052 -0.2328
  503MOL0     H67897   2.505   4.162   3.529  1.0456 -2.3633 -3.5724
  503MOL0     H67898   2.336   4.208   3.579  1.6017  0.0718 -0.0767
  503MOL0     H67899   2.371   4.284   3.343  2.5795  0.5013  0.1018
  503MOL0     H67900   2.260   4.147   3.348 -0.3878  0.7234  0.2509
  503MOL0     H67901   2.390   4.112   3.172 -2.7465  0.1250  2.1348
  503MOL0     H67902   2.463   4.003   3.290  0.6004  0.1390  0.3662
  503MOL0     H67903   2.795   4.225   3.193  0.5494 -2.6422 -0.4239
  503MOL0     H67904   1.980   3.973   3.603  0.0185 -0.4058  1.4118
  503MOL0     H67905   1.845   3.758   3.654 -0.0630 -0.0089  2.0503
  504MOL0     O67906  10.631   8.807   9.420  0.1194 -0.5433 -0.0402
  504MOL0     C67907  10.687   8.754   9.514  0.6689  0.4833  0.0959
  504MOL0     O67908  10.639   8.654   9.591 -0.7109  0.6069 -1.4657
  504MOL0     C67909  10.530   8.590   9.555 -1.0869 -0.1186  1.3113
  504MOL0     C67910  10.428   8.566   9.641 -0.2869 -0.4108 -0.3210
  504MOL0     C67911  10.310   8.498   9.603  0.2607  0.1374 -0.0030
  504MOL0     C67912  10.298   8.452   9.472 -0.0665  0.2506  0.0435
  504MOL0     O67913  10.178   8.396   9.440  0.3473  0.2441  0.1006
  504MOL0     C67914  10.177   8.345   9.302 -0.1880 -1.2480 -0.0754
  504MOL0     C67915  10.053   8.275   9.270 -0.0919  0.5813 -0.1520
  504MOL0     C67916   9.929   8.371   9.245  0.2410 -0.5441 -0.1259
  504MOL0     C67917   9.953   8.495   9.151 -0.4510 -0.2754 -0.1243
  504MOL0     C67918   9.826   8.573   9.123  0.2334 -0.2010 -0.6426
  504MOL0     C67919   9.839   8.698   9.034 -0.2401 -0.6815  0.0157
  504MOL0     C67920   9.714   8.782   9.014  0.5283 -0.1729 -0.6429
  504MOL0     C67921   9.722   8.912   8.943  0.2870  0.5410  0.2396
  504MOL0     N67922   9.596   8.989   8.962  0.6814  0.1617  0.3835
  504MOL0     C67923   9.538   9.071   8.872  0.3432  0.2702  0.3009
  504MOL0     C67924   9.466   9.162   8.935 -0.6267  0.6196 -0.1920
  504MOL0     C67925   9.396   9.275   8.877  0.3634 -0.0430  0.9090
  504MOL0     C67926   9.270   9.231   8.794  1.3001  0.5640 -0.1323
  504MOL0     C67927   9.181   9.332   8.715 -0.0340 -0.6494  1.1533
  504MOL0     C67928   9.069   9.276   8.634 -0.7270 -0.2234  0.7815
  504MOL0     O67929   9.012   9.380   8.546 -0.3432 -0.2772 -0.1696
  504MOL0     C67930   8.922   9.350   8.449 -0.6401  0.1730 -0.8927
  504MOL0     C67931   8.918   9.426   8.326  0.2064 -0.1599  0.6318
  504MOL0     C67932   8.820   9.399   8.229  0.3782  0.8237  0.0673
  504MOL0     C67933   8.824   9.495   8.105  0.8406  0.2777  0.0630
  504MOL0     C67934   8.720   9.299   8.252 -0.2089 -0.5786 -0.0398
  504MOL0     C67935   8.605   9.264   8.158  0.5974 -0.3014 -0.5258
  504MOL0     O67936   8.602   9.322   8.034 -0.1036  0.0173  0.1692
  504MOL0     C67937   8.490   9.312   7.954  0.1980  0.0886  0.2242
  504MOL0     C67938   8.469   9.191   7.884  0.2468 -0.1340  0.0212
  504MOL0     C67939   8.355   9.168   7.814  0.0336 -1.0665 -0.0530
  504MOL0     C67940   8.268   9.277   7.795 -0.2984  0.1117  0.2897
  504MOL0     O67941   8.152   9.272   7.721  0.3474 -0.0826  0.0699
  504MOL0     C67942   8.083   9.150   7.694 -0.1758 -0.1713  0.0973
  504MOL0     C67943   7.963   9.156   7.791 -0.1343 -0.2641 -0.2443
  504MOL0     C67944   8.007   9.133   7.936 -0.0060  0.6933 -0.1946
  504MOL0     C67945   7.881   9.125   8.032 -0.8748  1.0614 -0.2247
  504MOL0     C67946   7.836   9.259   8.079 -0.2454 -0.5978 -0.4365
  504MOL0     C67947   7.685   9.260   8.118  0.0580 -0.4137  0.1077
  504MOL0     C67948   7.665   9.206   8.262  0.4100 -0.9640 -0.2412
  504MOL0     C67949   7.517   9.213   8.300  0.2332 -1.2174 -0.0207
  504MOL0    Cl67950   7.472   9.152   8.467  0.2335  0.1014  0.6196
  504MOL0     C67951   8.294   9.406   7.842 -0.1988  0.8815  0.2457
  504MOL0     C67952   8.400   9.417   7.935  0.1535  1.0877 -0.6401
  504MOL0     O67953   8.521   9.187   8.203 -0.0127  0.3689  0.1208
  504MOL0     C67954   8.736   9.212   8.365 -0.0340 -0.9718  0.2667
  504MOL0     C67955   8.825   9.245   8.468 -0.7147 -0.3385  0.1594
  504MOL0     N67956   9.471   9.139   9.066 -0.2798  0.2102  0.4079
  504MOL0     N67957   9.555   9.039   9.081  0.1438 -0.5402 -0.0524
  504MOL0     C67958  10.406   8.468   9.386 -0.8674 -0.8458 -0.7042
  504MOL0     C67959  10.524   8.533   9.432 -0.3039 -0.2176  0.7154
  504MOL0     C67960  10.825   8.789   9.549 -0.2709  0.0448 -0.3042
  504MOL0     C67961  10.896   8.724   9.653  0.2631 -0.2787  0.4040
  504MOL0     C67962  11.030   8.750   9.691 -0.9431  0.3089  0.7073
  504MOL0     C67963  11.101   8.852   9.617 -0.1423  0.1525 -0.1155
  504MOL0     O67964  11.230   8.889   9.655  0.9121  0.6441  0.0346
  504MOL0     C67965  11.240   8.905   9.795  0.7870 -0.3928 -0.7243
  504MOL0     C67966  11.361   8.989   9.845  0.2300  0.5905 -0.5845
  504MOL0     C67967  11.488   8.913   9.803 -0.1753  0.2784  1.0209
  504MOL0     C67968  11.614   8.983   9.849 -0.5242 -0.3849  0.5547
  504MOL0     C67969  11.640   9.113   9.781  0.3488 -0.5540  0.2815
  504MOL0     C67970  11.645   9.229   9.750  0.5115 -0.0631  0.0046
  504MOL0     C67971  11.024   8.926   9.516 -0.7574 -0.3724 -0.0147
  504MOL0     C67972  10.892   8.897   9.488 -0.3215 -1.0399 -0.4011
  504MOL0     H67973  10.433   8.613   9.739  0.0446  2.7203 -1.7344
  504MOL0     H67974  10.230   8.481   9.675 -2.2885  0.5107 -2.5861
  504MOL0     H67975  10.206   8.419   9.227  0.1381 -1.7385 -0.4394
  504MOL0     H67976  10.260   8.273   9.296  0.0147 -1.0222 -0.0102
  504MOL0     H67977  10.082   8.231   9.174 -1.3500  3.7577 -2.1542
  504MOL0     H67978  10.032   8.195   9.341  3.0001 -2.5280 -2.3681
  504MOL0     H67979   9.844   8.314   9.208 -2.6476  2.5581  1.1055
  504MOL0     H67980   9.895   8.407   9.343  2.3834 -0.4997  0.6596
  504MOL0     H67981  10.022   8.571   9.190 -1.2321  1.4394 -1.9250
  504MOL0     H67982   9.994   8.459   9.056 -0.8302  0.4261 -0.5613
  504MOL0     H67983   9.755   8.510   9.069 -0.6836  1.7087 -1.7925
  504MOL0     H67984   9.778   8.601   9.217 -1.3426 -1.7112 -0.9350
  504MOL0     H67985   9.906   8.770   9.082 -2.4358  0.2958  1.8384
  504MOL0     H67986   9.883   8.665   8.939 -0.7886 -0.4523 -0.3285
  504MOL0     H67987   9.636   8.718   8.972  0.5723 -1.1289  0.6703
  504MOL0     H67988   9.677   8.812   9.113 -2.2859  1.4228 -2.0444
  504MOL0     H67989   9.758   8.900   8.840  2.0709  1.1962  0.7453
  504MOL0     H67990   9.798   8.957   9.008 -2.1163  0.0813  3.6199
  504MOL0     H67991   9.559   9.060   8.766  1.6047 -1.6574  0.6914
  504MOL0     H67992   9.356   9.343   8.953  0.7743  1.3694 -0.0745
  504MOL0     H67993   9.448   9.329   8.797  0.2666 -0.8344  0.3082
  504MOL0     H67994   9.203   9.184   8.867  0.0550 -2.1304 -2.7914
  504MOL0     H67995   9.301   9.152   8.726  0.5292 -0.6256  0.8424
  504MOL0     H67996   9.251   9.387   8.652 -0.4793 -1.4814 -0.1132
  504MOL0     H67997   9.130   9.402   8.783  0.3131  1.7626 -0.9082
  504MOL0     H67998   8.989   9.238   8.698 -1.4841  0.3581  0.1935
  504MOL0     H67999   9.096   9.194   8.566 -1.7971  1.6461 -2.0683
  504MOL0     H68000   8.993   9.504   8.318 -0.2496  0.4129  1.7795
  504MOL0     H68001   8.722   9.524   8.082  0.8571 -1.2481 -2.2641
  504MOL0     H68002   8.895   9.577   8.123 -1.9468  2.5780  1.4411
  504MOL0     H68003   8.865   9.438   8.021  0.5096 -1.1323  0.8278
  504MOL0     H68004   8.546   9.116   7.875 -0.0423 -0.6823  1.7073
  504MOL0     H68005   8.333   9.063   7.793 -1.1853 -0.3244 -2.9509
  504MOL0     H68006   8.036   9.147   7.596  0.0497 -1.5029  0.0220
  504MOL0     H68007   8.143   9.059   7.697  0.7727  0.3865 -1.1020
  504MOL0     H68008   7.912   9.252   7.785 -0.1375 -0.0385  2.2807
  504MOL0     H68009   7.891   9.080   7.761 -0.7845  1.3854 -3.2156
  504MOL0     H68010   8.077   9.201   7.984  0.1997 -0.5339  1.3504
  504MOL0     H68011   8.066   9.041   7.930  0.1261  0.8430 -1.4068
  504MOL0     H68012   7.803   9.081   7.969 -0.3638  0.6820 -0.6008
  504MOL0     H68013   7.903   9.051   8.110  1.2019  1.7005 -0.1457
  504MOL0     H68014   7.852   9.329   7.996  2.1422  0.2142  0.5955
  504MOL0     H68015   7.897   9.289   8.165 -1.8021 -0.4176  0.6382
  504MOL0     H68016   7.640   9.360   8.123 -1.6121 -1.1753  2.7360
  504MOL0     H68017   7.628   9.212   8.039 -1.4322 -0.8164  1.3876
  504MOL0     H68018   7.723   9.273   8.327 -1.9154  2.3434 -1.3288
  504MOL0     H68019   7.706   9.104   8.264 -2.7226 -2.3276  1.7455
  504MOL0     H68020   7.457   9.164   8.223  0.8032  0.4328 -1.5644
  504MOL0     H68021   7.508   9.321   8.291  1.6297 -1.0494  0.2959
  504MOL0     H68022   8.236   9.494   7.819 -0.0830  0.9634  0.2700
  504MOL0     H68023   8.413   9.502   8.000 -0.6309  0.2395  0.6849
  504MOL0     H68024   8.666   9.131   8.381  0.0861 -1.0128  0.5927
  504MOL0     H68025   8.824   9.189   8.560  2.4061 -0.4565  0.2178
  504MOL0     H68026  10.395   8.421   9.289  1.5215  2.1908 -2.6492
  504MOL0     H68027  10.608   8.536   9.364 -1.7027 -0.8455 -1.1244
  504MOL0     H68028  10.858   8.646   9.719  1.2560 -0.0277  1.3039
  504MOL0     H68029  11.076   8.693   9.771 -0.7395 -0.9618 -0.2679
  504MOL0     H68030  11.145   8.943   9.836  0.1808 -2.0865 -0.4777
  504MOL0     H68031  11.251   8.812   9.852 -1.2342  1.7335  3.6680
  504MOL0     H68032  11.356   9.028   9.948  0.6178  3.0941 -1.4469
  504MOL0     H68033  11.358   9.085   9.794  2.0372  0.7881 -0.3697
  504MOL0     H68034  11.494   8.888   9.697  1.5991 -1.8581  1.5509
  504MOL0     H68035  11.494   8.816   9.852 -1.8927  0.1445  1.0286
  504MOL0     H68036  11.690   8.908   9.824 -0.5858 -0.8600  1.7193
  504MOL0     H68037  11.617   8.992   9.958 -0.6983  0.2278  0.5110
  504MOL0     H68038  11.663   9.328   9.715 -2.5362  0.0060 -1.6425
  504MOL0     H68039  11.073   9.014   9.476  2.8098 -1.9158  0.5342
  504MOL0     H68040  10.837   8.953   9.412 -0.4966 -0.1142  0.3861
  505MOL0     O68041   6.142   4.394   5.926  0.1271  0.2794 -0.2719
  505MOL0     C68042   6.116   4.335   5.819 -0.7440 -0.6320 -0.2800
  505MOL0     O68043   6.190   4.225   5.774  0.4056 -0.3229 -0.2022
  505MOL0     C68044   6.272   4.162   5.868  1.2624 -0.5881 -0.2461
  505MOL0     C68045   6.206   4.091   5.970 -0.4028  0.3294  0.6721
  505MOL0     C68046   6.273   4.026   6.068 -0.7335 -0.8620  0.3676
  505MOL0     C68047   6.412   4.050   6.074  0.0137 -0.0327  0.1380
  505MOL0     O68048   6.498   3.996   6.162 -0.3316 -0.3696 -0.0199
  505MOL0     C68049   6.465   3.916   6.274 -0.0140 -0.1935 -0.0359
  505MOL0     C68050   6.573   3.808   6.300 -0.4246 -0.2322  0.6701
  505MOL0     C68051   6.634   3.748   6.175  0.1467  0.1945 -0.0247
  505MOL0     C68052   6.522   3.677   6.100 -0.7262  0.4295  0.0125
  505MOL0     C68053   6.576   3.632   5.962  0.3047 -0.2356  0.1426
  505MOL0     C68054   6.457   3.594   5.872 -1.1673  0.0653  0.1685
  505MOL0     C68055   6.515   3.535   5.747 -1.0389 -0.0740  0.2520
  505MOL0     C68056   6.608   3.635   5.664  0.5452 -0.2227  1.3024
  505MOL0     N68057   6.661   3.568   5.539 -0.1175  1.2662 -0.0548
  505MOL0     C68058   6.756   3.466   5.532  0.4252 -0.6381  0.4362
  505MOL0     C68059   6.751   3.432   5.400 -1.0428 -0.2286 -0.4562
  505MOL0     C68060   6.818   3.312   5.353 -0.3626 -0.3070 -0.3256
  505MOL0     C68061   6.967   3.335   5.328  0.0581 -0.3692 -0.7528
  505MOL0     C68062   7.004   3.424   5.211  0.4715  0.9271 -0.2965
  505MOL0     C68063   7.147   3.442   5.185 -1.0065  0.4685  0.2311
  505MOL0     O68064   7.167   3.549   5.089 -0.3848  0.0820  0.5877
  505MOL0     C68065   7.289   3.577   5.048 -0.6606 -0.0592  1.4080
  505MOL0     C68066   7.401   3.569   5.136  0.9470  0.1412 -0.4027
  505MOL0     C68067   7.531   3.594   5.092 -0.1574  0.8401 -0.7416
  505MOL0     C68068   7.641   3.579   5.203 -0.0699 -0.1678  0.4694
  505MOL0     C68069   7.550   3.628   4.960 -0.1070 -0.4736 -0.1623
  505MOL0     C68070   7.689   3.652   4.901 -0.4488 -0.8395  0.0977
  505MOL0     O68071   7.700   3.729   4.786 -0.0121  0.3380  0.1158
  505MOL0     C68072   7.817   3.787   4.748  0.5961  0.1133  0.1901
  505MOL0     C68073   7.848   3.783   4.605 -0.4279  0.0091 -0.3026
  505MOL0     C68074   7.957   3.848   4.554 -0.4199  0.2996 -0.7466
  505MOL0     C68075   8.056   3.896   4.638 -0.2748 -0.5682  0.0316
  505MOL0     O68076   8.166   3.958   4.592 -0.1295 -0.3863 -0.0434
  505MOL0     C68077   8.252   3.900   4.488 -0.2210 -0.1478  0.1144
  505MOL0     C68078   8.329   3.773   4.529 -0.3671 -1.1439 -0.7709
  505MOL0     C68079   8.426   3.799   4.648 -0.2129 -0.5933 -0.2366
  505MOL0     C68080   8.483   3.660   4.697  0.6207  0.1815 -0.9806
  505MOL0     C68081   8.572   3.665   4.825  0.0421 -0.6484  0.0006
  505MOL0     C68082   8.526   3.737   4.946 -0.0037 -0.4046 -0.6875
  505MOL0     C68083   8.634   3.803   5.033  0.5760 -0.8155 -0.1604
  505MOL0     C68084   8.739   3.713   5.096  0.3066 -0.3771  0.1330
  505MOL0    Cl68085   8.664   3.646   5.244  0.1012  0.5281 -0.5370
  505MOL0     C68086   8.039   3.889   4.773  0.3549 -0.6772  0.9923
  505MOL0     C68087   7.918   3.834   4.831  0.3369  0.1232  0.1953
  505MOL0     O68088   7.787   3.588   4.947 -0.3504 -0.1809 -0.2509
  505MOL0     C68089   7.440   3.637   4.871  0.2966 -0.4591  0.0401
  505MOL0     C68090   7.307   3.616   4.914 -0.0507  0.5070  0.6572
  505MOL0     N68091   6.669   3.518   5.329 -0.4245  0.2571 -0.1987
  505MOL0     N68092   6.620   3.595   5.411  0.0972 -0.6718 -0.1816
  505MOL0     C68093   6.481   4.121   5.976 -0.3014  1.1179  0.7268
  505MOL0     C68094   6.410   4.176   5.870  0.0056 -0.3859 -0.7159
  505MOL0     C68095   5.996   4.364   5.745  0.3373 -0.4939 -0.2349
  505MOL0     C68096   5.940   4.270   5.663  1.6956 -0.3736  0.1163
  505MOL0     C68097   5.835   4.320   5.578  0.1572 -0.4710 -0.0147
  505MOL0     C68098   5.785   4.450   5.581  0.1809  0.1976  0.1075
  505MOL0     O68099   5.682   4.495   5.499  0.2709 -0.3180  0.2151
  505MOL0     C68100   5.556   4.442   5.536 -0.1114  0.3073  0.3066
  505MOL0     C68101   5.450   4.533   5.508 -0.3941 -0.0438  0.7628
  505MOL0     C68102   5.422   4.638   5.621 -0.1740 -0.0255 -0.4285
  505MOL0     C68103   5.508   4.763   5.607 -0.3892  0.6241 -0.0077
  505MOL0     C68104   5.496   4.856   5.712  0.6153 -0.4721 -1.2142
  505MOL0     C68105   5.484   4.922   5.812  0.0652  0.3487  0.0784
  505MOL0     C68106   5.834   4.541   5.676  0.3533  0.0720 -0.2930
  505MOL0     C68107   5.943   4.498   5.753 -0.6756 -0.6196 -0.5259
  505MOL0     H68108   6.099   4.102   5.976 -0.4904 -0.0091 -0.0769
  505MOL0     H68109   6.217   3.971   6.143 -0.8577 -1.0515  0.1369
  505MOL0     H68110   6.456   3.987   6.357  2.0538  2.5815 -2.0024
  505MOL0     H68111   6.364   3.880   6.249  0.1648  0.3340 -1.6709
  505MOL0     H68112   6.653   3.859   6.355 -0.2459  0.6564 -0.3651
  505MOL0     H68113   6.537   3.737   6.375 -3.2384 -0.6116 -0.9233
  505MOL0     H68114   6.695   3.824   6.126  0.1705 -0.2992 -0.7707
  505MOL0     H68115   6.708   3.677   6.212 -0.0794 -1.9240 -3.2390
  505MOL0     H68116   6.483   3.598   6.165 -0.9549  0.5313 -0.0017
  505MOL0     H68117   6.443   3.746   6.072 -0.8798 -0.5529 -2.1885
  505MOL0     H68118   6.633   3.713   5.915 -0.6486 -0.1623 -0.9440
  505MOL0     H68119   6.646   3.549   5.973 -1.3477 -1.4976  1.9471
  505MOL0     H68120   6.391   3.519   5.918 -0.8301 -0.2594  0.1249
  505MOL0     H68121   6.394   3.680   5.847  0.5895  1.1789 -0.5970
  505MOL0     H68122   6.583   3.455   5.777  1.9959  2.3708  0.3374
  505MOL0     H68123   6.434   3.499   5.682 -0.8071  0.6262 -0.4393
  505MOL0     H68124   6.690   3.679   5.721  1.4714  0.1413 -0.2605
  505MOL0     H68125   6.550   3.721   5.631  0.4295 -1.5508 -2.4001
  505MOL0     H68126   6.816   3.426   5.613 -0.1137  1.9293  2.2217
  505MOL0     H68127   6.816   3.226   5.421  0.1944 -0.2818 -0.2707
  505MOL0     H68128   6.773   3.298   5.255 -0.9283  0.1731 -0.1363
  505MOL0     H68129   7.016   3.237   5.322  0.4889 -0.1969 -0.0950
  505MOL0     H68130   7.011   3.388   5.412  0.3378 -1.3169 -0.2865
  505MOL0     H68131   6.950   3.516   5.235 -1.0526  0.2608 -1.0510
  505MOL0     H68132   6.957   3.395   5.116 -2.3756  2.0792  0.6595
  505MOL0     H68133   7.180   3.348   5.139  1.1521  1.9190 -1.4199
  505MOL0     H68134   7.194   3.470   5.279 -1.1090  1.5087 -0.0156
  505MOL0     H68135   7.378   3.524   5.232 -0.3905 -0.6799 -1.0751
  505MOL0     H68136   7.597   3.548   5.298 -0.1411  1.1363  0.8905
  505MOL0     H68137   7.703   3.491   5.182  0.5930 -0.1055  2.0132
  505MOL0     H68138   7.697   3.673   5.214 -1.4045  0.7954 -0.6704
  505MOL0     H68139   7.771   3.734   4.546 -2.8850  1.0659  1.8363
  505MOL0     H68140   7.981   3.853   4.448  1.0016  2.4286 -0.3998
  505MOL0     H68141   8.180   3.872   4.410 -1.4436  1.3889  0.6418
  505MOL0     H68142   8.319   3.972   4.440  0.5173 -0.9648 -0.1055
  505MOL0     H68143   8.246   3.703   4.544 -0.6739 -0.1717  3.1147
  505MOL0     H68144   8.387   3.738   4.443 -0.1336 -0.6856 -0.7999
  505MOL0     H68145   8.371   3.854   4.725  0.3389 -0.1443 -0.1537
  505MOL0     H68146   8.510   3.863   4.618 -0.1788  0.5855  2.1107
  505MOL0     H68147   8.398   3.594   4.718  1.3472  0.2528  2.8492
  505MOL0     H68148   8.532   3.614   4.610 -1.0596 -0.3437 -1.6968
  505MOL0     H68149   8.649   3.732   4.787 -0.9637  0.1737 -0.6489
  505MOL0     H68150   8.606   3.562   4.840 -1.5586 -1.4438 -1.4706
  505MOL0     H68151   8.455   3.814   4.918 -0.3317 -0.2059  0.6603
  505MOL0     H68152   8.474   3.663   5.008  0.0960  0.3320  0.2959
  505MOL0     H68153   8.590   3.860   5.115 -0.2811 -0.0283 -1.1291
  505MOL0     H68154   8.678   3.869   4.957 -1.8110 -0.0827 -0.9964
  505MOL0     H68155   8.827   3.774   5.120  0.7373  0.2365 -2.6584
  505MOL0     H68156   8.768   3.641   5.020 -2.2396 -1.0642 -0.2914
  505MOL0     H68157   8.114   3.934   4.838  0.1922  0.5262  0.3703
  505MOL0     H68158   7.911   3.822   4.939  0.3520 -3.5263 -0.0650
  505MOL0     H68159   7.464   3.654   4.766  1.3909 -2.0255 -0.0084
  505MOL0     H68160   7.219   3.626   4.851  0.3510  1.2961  0.2002
  505MOL0     H68161   6.588   4.128   5.964 -0.6802  2.1589 -4.1727
  505MOL0     H68162   6.455   4.240   5.794 -1.2595 -0.3971 -1.4902
  505MOL0     H68163   5.977   4.169   5.650 -0.0609 -1.1253  0.5664
  505MOL0     H68164   5.804   4.255   5.497  0.1126 -0.3133 -0.1261
  505MOL0     H68165   5.555   4.351   5.475  3.1736 -0.4496  1.2102
  505MOL0     H68166   5.562   4.427   5.644  3.7664  4.5308  0.9626
  505MOL0     H68167   5.357   4.475   5.503  1.5181 -3.2290 -1.7690
  505MOL0     H68168   5.457   4.581   5.410 -1.4974 -1.7309 -0.1997
  505MOL0     H68169   5.438   4.592   5.718  0.4840 -4.4115 -2.3980
  505MOL0     H68170   5.317   4.668   5.610 -0.7404 -2.2056 -1.4305
  505MOL0     H68171   5.486   4.812   5.512  0.7903 -0.7833 -1.0513
  505MOL0     H68172   5.616   4.748   5.601 -0.5376 -0.3722 -0.2751
  505MOL0     H68173   5.474   4.982   5.900  1.7986 -1.3869  1.5598
  505MOL0     H68174   5.797   4.642   5.689 -0.9654 -0.6130  1.9175
  505MOL0     H68175   5.991   4.555   5.832 -1.5621 -3.1398  1.9970
  506MOL0     O68176   0.602   7.171  11.225  0.0787 -0.5079  0.3127
  506MOL0     C68177   0.683   7.141  11.134  0.1046 -0.2729 -0.6074
  506MOL0     O68178   0.706   7.213  11.016 -0.2961 -0.0700 -0.4907
  506MOL0     C68179   0.629   7.333  11.002 -0.3153 -0.5361  0.3161
  506MOL0     C68180   0.671   7.451  11.065 -0.2372 -0.5875 -0.2797
  506MOL0     C68181   0.599   7.570  11.062 -0.4752  0.3259  0.2183
  506MOL0     C68182   0.482   7.568  10.982 -0.4072 -0.2958  0.6220
  506MOL0     O68183   0.415   7.691  10.974  0.0139  0.4178  0.6333
  506MOL0     C68184   0.331   7.723  10.858 -1.2411 -0.2594  0.5461
  506MOL0     C68185   0.289   7.861  10.863  0.0451 -0.6956 -0.0844
  506MOL0     C68186   0.203   7.888  10.728  0.3149  0.4108 -0.6682
  506MOL0     C68187   0.112   8.011  10.749  0.9731  0.2063  0.2912
  506MOL0     C68188   0.027   8.042  10.623 -0.3380 -1.1376 -0.7647
  506MOL0     C68189  -0.040   8.182  10.639 -0.0908  0.3150 -0.0273
  506MOL0     C68190  -0.146   8.206  10.529 -0.1532  0.3890  0.2151
  506MOL0     C68191  -0.081   8.251  10.399  0.6848  0.0908 -1.3189
  506MOL0     N68192  -0.180   8.288  10.294  0.8625 -0.4299  0.1039
  506MOL0     C68193  -0.319   8.290  10.307  0.0509 -0.0106 -0.2253
  506MOL0     C68194  -0.354   8.305  10.176  1.0946  0.2133 -0.0906
  506MOL0     C68195  -0.490   8.301  10.109 -0.6862 -0.7106 -0.0575
  506MOL0     C68196  -0.581   8.418  10.142  0.1795  0.2995 -0.0764
  506MOL0     C68197  -0.713   8.400  10.072  0.1962 -0.1946  0.5880
  506MOL0     C68198  -0.801   8.529  10.072  1.2599  0.1309  0.1149
  506MOL0     O68199  -0.727   8.622   9.995 -0.7567  0.6406  0.1820
  506MOL0     C68200  -0.755   8.758  10.006  0.0803  1.0580 -0.1669
  506MOL0     C68201  -0.682   8.871   9.958  0.4602  0.0112 -0.8369
  506MOL0     C68202  -0.709   9.005   9.992  0.9327  1.0026  0.2992
  506MOL0     C68203  -0.620   9.108   9.931  0.2665 -0.7985  0.7249
  506MOL0     C68204  -0.827   9.038  10.066  0.0847  0.2553  0.5023
  506MOL0     C68205  -0.879   9.176  10.087 -0.4020 -0.1197 -0.3788
  506MOL0     O68206  -0.999   9.180  10.148 -1.0235  0.2666 -0.5374
  506MOL0     C68207  -1.045   9.310  10.166  0.5638  0.0441 -0.0671
  506MOL0     C68208  -1.097   9.394  10.071 -0.7461 -0.2517  0.6437
  506MOL0     C68209  -1.143   9.521  10.109 -1.3632 -0.3251 -0.4116
  506MOL0     C68210  -1.134   9.571  10.241  0.3506  0.6083 -0.2327
  506MOL0     O68211  -1.173   9.696  10.257  0.2815  0.6413  0.8323
  506MOL0     C68212  -1.165   9.759  10.387 -0.0202  1.0182 -1.3451
  506MOL0     C68213  -1.259   9.880  10.404 -0.6351 -0.3120 -0.4563
  506MOL0     C68214  -1.186  10.016  10.365  0.3124 -0.9103 -0.4107
  506MOL0     C68215  -1.083  10.068  10.477  0.1490  1.0110  0.2608
  506MOL0     C68216  -0.986  10.184  10.426 -0.0045 -0.0494 -0.0040
  506MOL0     C68217  -0.845  10.173  10.494 -0.0252 -0.2346 -0.8016
  506MOL0     C68218  -0.866  10.168  10.653  0.3718 -0.4682  0.1135
  506MOL0     C68219  -0.751  10.206  10.738 -0.5145  0.7257 -0.6561
  506MOL0    Cl68220  -0.713  10.390  10.709  0.1406 -0.4286 -0.0538
  506MOL0     C68221  -1.079   9.480  10.335  1.0018  0.2527  0.6512
  506MOL0     C68222  -1.044   9.353  10.297  0.2029  0.2122 -0.0547
  506MOL0     O68223  -0.798   9.272  10.071  0.4338 -0.5221 -0.0204
  506MOL0     C68224  -0.898   8.929  10.115  0.4290 -0.3392  1.0598
  506MOL0     C68225  -0.860   8.793  10.104  0.5405  0.0603  0.9344
  506MOL0     N68226  -0.247   8.312  10.094  0.2181 -0.4478  0.3936
  506MOL0     N68227  -0.146   8.308  10.164 -0.1849 -0.0294 -0.7929
  506MOL0     C68228   0.446   7.451  10.909 -0.4557 -0.0088  0.2028
  506MOL0     C68229   0.512   7.330  10.929 -0.2741  0.6740 -0.0254
  506MOL0     C68230   0.771   7.029  11.173 -0.3471 -0.2982  0.5565
  506MOL0     C68231   0.889   7.011  11.096  0.4532  0.8196 -0.3825
  506MOL0     C68232   0.967   6.893  11.123  0.1159 -0.2402  0.4736
  506MOL0     C68233   0.912   6.796  11.207 -0.5644 -0.2311 -0.5231
  506MOL0     O68234   0.972   6.674  11.207  1.1906  0.3045 -0.0463
  506MOL0     C68235   0.963   6.585  11.320 -0.4007  0.3611 -1.4147
  506MOL0     C68236   1.033   6.643  11.442  0.5314 -0.2665 -0.5410
  506MOL0     C68237   1.179   6.681  11.413  0.6360  0.2921  0.2882
  506MOL0     C68238   1.244   6.720  11.543  0.5891  0.6541  0.1881
  506MOL0     C68239   1.383   6.746  11.526 -1.1303  0.5338 -0.2177
  506MOL0     C68240   1.494   6.795  11.495  0.6508  1.3383 -0.6926
  506MOL0     C68241   0.797   6.822  11.283 -0.8778 -0.0803 -0.3379
  506MOL0     C68242   0.729   6.940  11.272 -0.0342 -0.0423  0.1823
  506MOL0     H68243   0.743   7.459  11.146 -1.1596  0.1720  0.5006
  506MOL0     H68244   0.631   7.660  11.113 -1.5861  0.4926  0.6408
  506MOL0     H68245   0.393   7.710  10.769  0.5495  0.5045  1.6192
  506MOL0     H68246   0.249   7.651  10.857  0.7170 -2.6578  2.0662
  506MOL0     H68247   0.235   7.887  10.955  1.1780 -1.9778  0.9856
  506MOL0     H68248   0.378   7.924  10.861 -1.1974  1.2877  1.9179
  506MOL0     H68249   0.277   7.919  10.654  0.9872  2.0414  0.6174
  506MOL0     H68250   0.137   7.807  10.697  0.9471 -1.3477  2.2514
  506MOL0     H68251   0.038   7.999  10.829  0.1131  3.1728  0.0563
  506MOL0     H68252   0.168   8.100  10.779 -1.8219  3.0808 -2.2178
  506MOL0     H68253   0.090   8.054  10.534  0.0080  3.2662 -0.1513
  506MOL0     H68254  -0.046   7.965  10.597  0.4695 -2.3290  0.3906
  506MOL0     H68255  -0.098   8.180  10.732 -0.9592  0.5168 -0.5513
  506MOL0     H68256   0.031   8.264  10.650  0.8284 -0.3464 -0.9477
  506MOL0     H68257  -0.215   8.125  10.505 -3.9701  4.0564 -2.7285
  506MOL0     H68258  -0.206   8.295  10.554 -0.4024  0.5516 -0.8937
  506MOL0     H68259  -0.023   8.164  10.366  1.3095  0.0692 -0.2031
  506MOL0     H68260  -0.009   8.330  10.423  1.3259 -0.7852 -0.2419
  506MOL0     H68261  -0.374   8.277  10.400 -0.5482  3.0962 -0.0336
  506MOL0     H68262  -0.476   8.292  10.000  0.2368  5.1989 -0.7642
  506MOL0     H68263  -0.537   8.207  10.139 -0.2398 -0.4007  1.7373
  506MOL0     H68264  -0.534   8.515  10.122  2.6699 -0.5663  1.1149
  506MOL0     H68265  -0.595   8.423  10.250  1.9180 -1.3721  0.2656
  506MOL0     H68266  -0.770   8.314  10.110  1.2241 -1.3152 -0.3206
  506MOL0     H68267  -0.682   8.372   9.971  0.3063  0.0200  0.5616
  506MOL0     H68268  -0.818   8.568  10.173  1.3958  2.9365 -0.8779
  506MOL0     H68269  -0.894   8.494  10.026 -0.3431  2.9994  0.9660
  506MOL0     H68270  -0.600   8.851   9.890  0.5730  0.1609 -0.7473
  506MOL0     H68271  -0.588   9.186  10.001 -2.0583  0.8728  0.0647
  506MOL0     H68272  -0.539   9.071   9.868  1.3815  3.4304 -0.6562
  506MOL0     H68273  -0.682   9.171   9.867  1.6934 -0.1329 -0.0493
  506MOL0     H68274  -1.084   9.374   9.965 -2.4245  2.8146 -0.2616
  506MOL0     H68275  -1.174   9.590  10.031  3.1134  1.8039 -0.6026
  506MOL0     H68276  -1.185   9.684  10.465  4.5341 -0.1590 -0.9996
  506MOL0     H68277  -1.061   9.791  10.398 -0.4085  2.1091 -0.6489
  506MOL0     H68278  -1.344   9.850  10.342  0.8059 -5.0735 -0.5151
  506MOL0     H68279  -1.302   9.891  10.504 -0.4867  0.6487 -0.4935
  506MOL0     H68280  -1.266  10.091  10.356  1.8912  1.0277  0.8707
  506MOL0     H68281  -1.140  10.001  10.268  2.7610 -0.1074  0.5507
  506MOL0     H68282  -1.139  10.109  10.561  1.4688  1.7025  0.8347
  506MOL0     H68283  -1.027   9.978  10.505  1.0016  1.8854  1.4023
  506MOL0     H68284  -1.038  10.279  10.438 -0.8559 -0.2352 -1.7825
  506MOL0     H68285  -0.965  10.178  10.319 -0.8720 -1.0755 -0.1482
  506MOL0     H68286  -0.791  10.082  10.466  0.0012 -1.2173  2.0220
  506MOL0     H68287  -0.794  10.263  10.461 -1.3666  1.3793  1.2618
  506MOL0     H68288  -0.900  10.070  10.688 -2.7419  0.5352  0.1822
  506MOL0     H68289  -0.950  10.233  10.679  1.0435  1.7818 -2.8502
  506MOL0     H68290  -0.661  10.152  10.707 -0.0757  1.6208 -0.9831
  506MOL0     H68291  -0.764  10.194  10.845  0.1322 -0.5820 -0.7140
  506MOL0     H68292  -1.061   9.504  10.439 -1.6624 -2.0633  1.7676
  506MOL0     H68293  -1.002   9.285  10.371  3.2015  0.4853 -1.3592
  506MOL0     H68294  -0.976   8.957  10.184  2.1161  0.5955  2.6575
  506MOL0     H68295  -0.929   8.730  10.159 -2.2597  2.1941  0.1193
  506MOL0     H68296   0.353   7.443  10.853  0.5314 -0.9900 -1.3944
  506MOL0     H68297   0.476   7.237  10.886  4.9931 -2.2277  0.9069
  506MOL0     H68298   0.904   7.075  11.009 -2.9666  1.4857 -0.5905
  506MOL0     H68299   1.052   6.872  11.059 -0.5851  0.4226 -0.7264
  506MOL0     H68300   0.858   6.579  11.349 -0.0675  4.9155  1.8768
  506MOL0     H68301   1.008   6.489  11.294 -1.9998 -1.8063  2.7996
  506MOL0     H68302   1.030   6.571  11.525  0.1303  1.2795  0.8223
  506MOL0     H68303   0.985   6.733  11.480  2.2541  0.9278 -1.0936
  506MOL0     H68304   1.180   6.759  11.337  1.8022  0.1465  0.1420
  506MOL0     H68305   1.232   6.593  11.375 -1.0538  0.0715 -1.7443
  506MOL0     H68306   1.241   6.640  11.618  0.2328 -1.9458 -2.4096
  506MOL0     H68307   1.203   6.811  11.588 -1.1999 -0.4813  0.9606
  506MOL0     H68308   1.582   6.846  11.461  3.6024 -3.2186 -0.7212
  506MOL0     H68309   0.765   6.756  11.363 -1.7192  0.0760 -0.5382
  506MOL0     H68310   0.649   6.965  11.341  0.1704  0.5070  0.2335
  507MOL0     O68311   8.840   1.139   7.897 -0.1585  0.6716  0.2644
  507MOL0     C68312   8.838   1.188   7.788 -0.0341 -1.5252  0.3062
  507MOL0     O68313   8.723   1.236   7.725 -0.4435  0.0573 -0.2261
  507MOL0     C68314   8.611   1.230   7.801  0.8590 -0.2807  0.3468
  507MOL0     C68315   8.502   1.136   7.779  0.1288 -0.4454  0.4088
  507MOL0     C68316   8.391   1.135   7.859  0.7818 -0.1891 -0.4922
  507MOL0     C68317   8.363   1.237   7.950  0.3205 -0.1300 -0.1688
  507MOL0     O68318   8.248   1.248   8.029  0.4413  0.0644  0.1568
  507MOL0     C68319   8.140   1.173   7.986  0.1779  0.6910  0.2535
  507MOL0     C68320   8.048   1.193   8.114  0.4497  1.1058 -0.8428
  507MOL0     C68321   7.923   1.092   8.098 -0.2233 -0.4401  0.0763
  507MOL0     C68322   7.820   1.120   8.206  0.0988 -0.1337 -0.3416
  507MOL0     C68323   7.729   1.242   8.166  0.2858  0.4436  0.0150
  507MOL0     C68324   7.609   1.252   8.268  0.1998  0.3128  1.1777
  507MOL0     C68325   7.532   1.378   8.255 -0.6240 -0.0150  0.6057
  507MOL0     C68326   7.461   1.414   8.115 -0.5634 -0.6143 -0.9867
  507MOL0     N68327   7.377   1.304   8.076 -0.1195 -0.0024 -0.3080
  507MOL0     C68328   7.404   1.212   7.979  0.0751  0.5746  0.8398
  507MOL0     C68329   7.293   1.138   7.954 -0.0780 -0.2798 -0.2421
  507MOL0     C68330   7.282   1.019   7.859 -0.8594 -0.0963  0.5135
  507MOL0     C68331   7.362   1.035   7.725 -0.6840  1.0244  0.2850
  507MOL0     C68332   7.323   1.156   7.639 -0.7808  0.4325 -0.0113
  507MOL0     C68333   7.181   1.144   7.581  0.3523 -0.1990  0.1873
  507MOL0     O68334   7.177   1.049   7.466  0.2330 -0.6904 -0.4660
  507MOL0     C68335   7.066   1.043   7.392  0.1715  0.1191 -0.3864
  507MOL0     C68336   6.943   1.100   7.425  0.1523 -0.4716 -0.1756
  507MOL0     C68337   6.838   1.090   7.331 -0.6734 -0.2993  0.9241
  507MOL0     C68338   6.708   1.143   7.377  0.1818  0.2635  0.5403
  507MOL0     C68339   6.856   1.012   7.206  1.0234 -0.0645 -0.5161
  507MOL0     C68340   6.749   1.020   7.094  0.5871  0.0542 -0.2567
  507MOL0     O68341   6.806   0.991   6.973 -0.2946 -1.0241 -0.7817
  507MOL0     C68342   6.722   0.962   6.872  0.0353 -0.4064 -0.0815
  507MOL0     C68343   6.607   0.875   6.883 -0.2678  0.1986 -0.4823
  507MOL0     C68344   6.533   0.844   6.766 -0.3794  0.2968 -0.3072
  507MOL0     C68345   6.579   0.885   6.639  0.8166 -0.2133 -0.3904
  507MOL0     O68346   6.502   0.855   6.528  0.0264  0.6231  0.3114
  507MOL0     C68347   6.556   0.855   6.403 -0.7845  0.2461 -0.0754
  507MOL0     C68348   6.446   0.833   6.292 -0.4661  0.3887 -0.5930
  507MOL0     C68349   6.516   0.800   6.151 -0.8587 -0.0391  0.5409
  507MOL0     C68350   6.405   0.803   6.051  0.0277  0.2113  0.4247
  507MOL0     C68351   6.447   0.792   5.909  0.1791  0.1385 -0.2665
  507MOL0     C68352   6.525   0.913   5.865  0.4925  0.9851  0.7336
  507MOL0     C68353   6.609   0.883   5.744 -0.4780  0.8287  0.3042
  507MOL0     C68354   6.529   0.818   5.628  0.9982 -0.3782  0.4685
  507MOL0    Cl68355   6.650   0.762   5.503 -0.5123  0.2523 -0.4190
  507MOL0     C68356   6.688   0.965   6.631 -0.9616 -0.2724  0.2633
  507MOL0     C68357   6.759   1.005   6.743  0.3755 -0.4675 -0.9795
  507MOL0     O68358   6.625   1.031   7.111 -0.3493 -0.0060 -0.3459
  507MOL0     C68359   6.971   0.943   7.191  0.7769  0.4803 -0.0790
  507MOL0     C68360   7.074   0.963   7.275 -0.3638  0.6881  0.4546
  507MOL0     N68361   7.203   1.174   8.051 -0.0733 -0.6017 -0.3929
  507MOL0     N68362   7.248   1.276   8.120 -0.2088 -0.2184 -0.3990
  507MOL0     C68363   8.458   1.335   7.981  0.7068 -0.1503  0.5094
  507MOL0     C68364   8.586   1.320   7.908 -0.3520 -0.0229 -0.3093
  507MOL0     C68365   8.964   1.165   7.707  0.0781 -1.7367 -0.6464
  507MOL0     C68366   9.083   1.115   7.769 -0.7212 -0.2669  0.2356
  507MOL0     C68367   9.208   1.100   7.697 -0.1621 -0.2363  0.5666
  507MOL0     C68368   9.216   1.150   7.567 -0.6911 -0.0990  0.3494
  507MOL0     O68369   9.341   1.165   7.501  0.5619 -0.3382  0.2595
  507MOL0     C68370   9.462   1.116   7.557 -0.0083 -0.6941  0.6138
  507MOL0     C68371   9.572   1.179   7.476 -0.2211 -0.0757 -0.0015
  507MOL0     C68372   9.576   1.333   7.468 -0.3424 -0.8487 -0.5208
  507MOL0     C68373   9.673   1.398   7.361  0.4940 -0.2080  0.0321
  507MOL0     C68374   9.807   1.408   7.422  0.5788 -0.1008  0.4517
  507MOL0     C68375   9.916   1.416   7.460  0.4611 -0.2363  0.0418
  507MOL0     C68376   9.100   1.185   7.503  1.0911 -0.3978  0.5318
  507MOL0     C68377   8.974   1.201   7.571  0.9538 -0.4904  0.2249
  507MOL0     H68378   8.494   1.062   7.699  0.8526  0.3373 -0.4098
  507MOL0     H68379   8.322   1.054   7.842  0.2958 -0.4244  2.2418
  507MOL0     H68380   8.097   1.219   7.896 -0.2857 -2.0813 -1.0583
  507MOL0     H68381   8.163   1.068   7.965 -0.0492  1.1596 -2.9290
  507MOL0     H68382   8.089   1.176   8.214  1.4671  0.6996 -1.3160
  507MOL0     H68383   8.014   1.297   8.103  1.5717  1.3698 -2.0255
  507MOL0     H68384   7.884   1.089   7.996 -0.1513  3.2499 -0.1742
  507MOL0     H68385   7.960   0.992   8.124  1.8875 -0.1323 -1.4738
  507MOL0     H68386   7.753   1.034   8.218 -0.1685  0.0373 -0.6064
  507MOL0     H68387   7.863   1.134   8.306 -0.4350  1.5572 -0.3246
  507MOL0     H68388   7.800   1.325   8.162  1.9135 -0.9241 -0.8851
  507MOL0     H68389   7.677   1.234   8.070 -2.2954  0.3200  1.3242
  507MOL0     H68390   7.551   1.159   8.263 -1.0177  1.1110 -0.3425
  507MOL0     H68391   7.652   1.253   8.369 -0.8511 -1.7846  1.7002
  507MOL0     H68392   7.451   1.367   8.328 -2.3973  1.7475 -0.9862
  507MOL0     H68393   7.597   1.461   8.286  0.1148 -0.9616  1.7024
  507MOL0     H68394   7.522   1.420   8.025 -2.7426  0.4510 -2.4884
  507MOL0     H68395   7.404   1.507   8.125 -1.0399 -0.9441 -0.5857
  507MOL0     H68396   7.495   1.203   7.920 -1.4943 -2.4315 -1.4206
  507MOL0     H68397   7.327   0.930   7.904  0.6235 -0.5014 -1.6147
  507MOL0     H68398   7.178   1.003   7.830 -0.4432  2.9451 -3.5166
  507MOL0     H68399   7.356   0.944   7.664 -0.2500  0.9324  0.3776
  507MOL0     H68400   7.468   1.040   7.753 -0.0305 -0.9035 -1.5434
  507MOL0     H68401   7.401   1.158   7.562 -0.0358 -1.2872  0.6483
  507MOL0     H68402   7.318   1.251   7.693  0.9082 -0.4360  1.8071
  507MOL0     H68403   7.156   1.247   7.554 -0.9519  0.0043  1.9674
  507MOL0     H68404   7.108   1.118   7.658 -0.7381  0.8415 -0.4547
  507MOL0     H68405   6.922   1.156   7.515 -1.5157 -1.2811 -0.0020
  507MOL0     H68406   6.645   1.054   7.381 -0.9293  1.0349  0.6701
  507MOL0     H68407   6.699   1.178   7.480 -1.0323  0.4911  0.3706
  507MOL0     H68408   6.665   1.221   7.314  1.4283  0.9689  0.5392
  507MOL0     H68409   6.578   0.833   6.979 -0.5993  2.8900  0.6870
  507MOL0     H68410   6.444   0.781   6.770 -0.0590 -0.1670 -0.3770
  507MOL0     H68411   6.612   0.946   6.376 -2.7973  0.7268 -3.2675
  507MOL0     H68412   6.623   0.769   6.402 -1.8525 -0.7048 -3.2738
  507MOL0     H68413   6.382   0.749   6.319 -0.0338 -0.0071 -0.7965
  507MOL0     H68414   6.387   0.925   6.284 -1.1801 -0.1133 -1.1897
  507MOL0     H68415   6.572   0.708   6.171  0.0881  0.0593 -1.4157
  507MOL0     H68416   6.590   0.879   6.132  2.4229 -3.2714 -1.4155
  507MOL0     H68417   6.353   0.708   6.065  1.5071 -0.7026 -0.0695
  507MOL0     H68418   6.333   0.884   6.066  2.2315  2.9082 -2.2849
  507MOL0     H68419   6.352   0.779   5.856 -0.9947 -2.8002  2.2308
  507MOL0     H68420   6.502   0.699   5.897 -0.6448 -0.5732  1.1843
  507MOL0     H68421   6.455   0.995   5.848 -0.2644  0.1163 -0.5978
  507MOL0     H68422   6.606   0.941   5.933  0.9063  1.5993  0.0002
  507MOL0     H68423   6.687   0.813   5.772 -0.8875 -0.1728 -0.9901
  507MOL0     H68424   6.662   0.974   5.712  0.6055 -0.0991 -0.6296
  507MOL0     H68425   6.469   0.881   5.563  2.4130 -1.0165 -1.5431
  507MOL0     H68426   6.464   0.741   5.671  0.2059  0.0810  0.0937
  507MOL0     H68427   6.731   0.998   6.537  0.9857 -0.4494  1.0263
  507MOL0     H68428   6.846   1.069   6.748 -0.4918  0.6498  1.2872
  507MOL0     H68429   6.987   0.881   7.104 -0.1915 -0.0948  0.1367
  507MOL0     H68430   7.167   0.913   7.250 -0.1989  0.7897  0.8630
  507MOL0     H68431   8.447   1.401   8.066  1.5384 -1.9657  2.1090
  507MOL0     H68432   8.665   1.391   7.931  2.0784 -1.9469 -2.0850
  507MOL0     H68433   9.090   1.100   7.876 -0.2785 -0.7315  0.1477
  507MOL0     H68434   9.300   1.077   7.749  1.6591  2.2230 -1.2966
  507MOL0     H68435   9.476   1.136   7.664 -0.1229 -0.5547  0.6047
  507MOL0     H68436   9.473   1.008   7.546  3.3668 -0.2836 -1.4353
  507MOL0     H68437   9.566   1.137   7.375  1.2234  0.2551 -0.2472
  507MOL0     H68438   9.661   1.151   7.534  0.8460 -1.3676 -2.1326
  507MOL0     H68439   9.593   1.376   7.566 -2.2942  1.3295 -1.0452
  507MOL0     H68440   9.470   1.361   7.468 -0.7570 -2.2389  1.1472
  507MOL0     H68441   9.646   1.503   7.348  3.0291  0.8295  2.2917
  507MOL0     H68442   9.676   1.342   7.266  0.2291 -3.3929  1.7582
  507MOL0     H68443  10.009   1.419   7.512  1.0618 -0.1241 -1.0111
  507MOL0     H68444   9.106   1.212   7.398 -0.6606  1.9657  0.9421
  507MOL0     H68445   8.894   1.239   7.507  0.5973 -1.6834 -0.0783
  508MOL0     O68446  10.731  10.958   5.504  0.0839  0.6510  0.2043
  508MOL0     C68447  10.735  11.052   5.428  0.7140 -0.0844  0.8006
  508MOL0     O68448  10.630  11.118   5.379  0.5192 -0.2620 -0.8551
  508MOL0     C68449  10.503  11.090   5.429  0.4521  0.8262  1.1744
  508MOL0     C68450  10.446  10.956   5.440  0.6851  0.1286  0.1088
  508MOL0     C68451  10.316  10.936   5.469 -0.3785 -0.7552 -0.3996
  508MOL0     C68452  10.233  11.044   5.496  0.3436  0.1911 -0.0938
  508MOL0     O68453  10.100  11.010   5.524  0.1828 -0.1242  0.6017
  508MOL0     C68454   9.996  11.114   5.493  0.6880  0.2183  0.7259
  508MOL0     C68455   9.987  11.214   5.610 -0.3654 -0.3135  0.7532
  508MOL0     C68456   9.848  11.278   5.635 -0.1206  0.4845 -0.2720
  508MOL0     C68457   9.764  11.316   5.524 -0.1076  0.3709  0.5868
  508MOL0     C68458   9.638  11.381   5.582 -0.1217  0.2702  0.2048
  508MOL0     C68459   9.533  11.414   5.471 -0.1994 -0.5581  0.6003
  508MOL0     C68460   9.402  11.480   5.521 -0.5679  0.2571  0.5349
  508MOL0     C68461   9.279  11.394   5.532  0.4287 -0.0133  0.5726
  508MOL0     N68462   9.284  11.344   5.674 -0.5185  0.0593  0.5796
  508MOL0     C68463   9.250  11.421   5.781 -0.1853 -0.1414 -0.6221
  508MOL0     C68464   9.263  11.351   5.890 -1.1046  0.5116  0.0808
  508MOL0     C68465   9.211  11.394   6.022  0.2537 -0.1206 -0.6238
  508MOL0     C68466   9.163  11.274   6.117  0.2138  0.1784 -0.7439
  508MOL0     C68467   9.044  11.201   6.053 -0.0859 -0.2493  0.3935
  508MOL0     C68468   9.035  11.050   6.101 -0.2178 -0.7097  0.7710
  508MOL0     O68469   8.939  11.040   6.213 -0.2645  0.2080 -0.2258
  508MOL0     C68470   8.807  11.049   6.196  0.3111 -1.0171  0.2671
  508MOL0     C68471   8.746  11.068   6.320  0.3129  0.1602 -0.2514
  508MOL0     C68472   8.605  11.076   6.336  1.1753 -0.3700  0.1596
  508MOL0     C68473   8.568  11.125   6.478 -0.1442  0.6368 -0.2125
  508MOL0     C68474   8.523  11.073   6.214 -0.0491  1.2304 -0.8244
  508MOL0     C68475   8.378  11.107   6.222 -0.3582 -0.4102 -0.5109
  508MOL0     O68476   8.310  11.095   6.338  0.0333  0.1136  0.2424
  508MOL0     C68477   8.195  11.164   6.360 -0.1457  0.0405 -0.2706
  508MOL0     C68478   8.168  11.290   6.298  0.4168 -0.2244  0.0153
  508MOL0     C68479   8.047  11.353   6.319 -0.6973  0.9851  0.2188
  508MOL0     C68480   7.939  11.291   6.388  0.6959  0.9920  0.3104
  508MOL0     O68481   7.825  11.365   6.401  0.3527  0.2067 -0.2045
  508MOL0     C68482   7.737  11.322   6.504 -0.7495 -0.3558 -0.0117
  508MOL0     C68483   7.643  11.427   6.549 -0.1769 -0.8995  0.5834
  508MOL0     C68484   7.719  11.563   6.570 -0.0550  0.1688 -0.4033
  508MOL0     C68485   7.622  11.659   6.646 -0.4367 -0.1071 -0.3251
  508MOL0     C68486   7.602  11.795   6.559 -0.0283 -1.1350 -0.3244
  508MOL0     C68487   7.488  11.794   6.459 -0.1942 -0.4838 -0.5611
  508MOL0     C68488   7.476  11.920   6.366 -0.1626  0.2206 -0.1519
  508MOL0     C68489   7.334  11.943   6.320  0.1954 -0.3788 -0.8640
  508MOL0    Cl68490   7.275  11.787   6.255  0.1692  0.4009 -0.0263
  508MOL0     C68491   7.959  11.152   6.439 -0.5310 -0.2109 -0.3195
  508MOL0     C68492   8.084  11.094   6.416  0.3894 -1.1280  0.6927
  508MOL0     O68493   8.334  11.144   6.118  0.6721 -0.2467 -0.1612
  508MOL0     C68494   8.585  11.057   6.095 -0.0850 -0.2655  0.8902
  508MOL0     C68495   8.726  11.037   6.086 -0.2041  0.2608  0.8214
  508MOL0     N68496   9.298  11.222   5.850  0.1432  0.3074  0.4745
  508MOL0     N68497   9.321  11.226   5.723 -0.0267  0.2046  0.3606
  508MOL0     C68498  10.283  11.172   5.479  0.3067 -0.1722 -1.0379
  508MOL0     C68499  10.417  11.196   5.443  0.0013  0.2917  0.2257
  508MOL0     C68500  10.857  11.117   5.401  0.7813  0.4259 -0.7919
  508MOL0     C68501  10.954  11.125   5.499 -0.1191 -0.8134  0.1683
  508MOL0     C68502  11.073  11.185   5.470 -0.5536  0.3754  0.3375
  508MOL0     C68503  11.096  11.233   5.346 -0.1496 -0.2727  0.1985
  508MOL0     O68504  11.209  11.307   5.301 -0.5300  0.5286  0.3612
  508MOL0     C68505  11.328  11.311   5.382  0.2923  0.6094 -0.8131
  508MOL0     C68506  11.449  11.326   5.292 -1.4600 -0.0720 -0.5186
  508MOL0     C68507  11.570  11.372   5.374  1.3142 -0.0223 -0.7048
  508MOL0     C68508  11.698  11.385   5.292  0.1390 -0.0202 -0.0544
  508MOL0     C68509  11.796  11.436   5.389  0.9072 -0.9690  0.1888
  508MOL0     C68510  11.880  11.465   5.470  0.2076 -0.5417  0.4079
  508MOL0     C68511  10.994  11.225   5.242 -0.2154  0.1588  0.4172
  508MOL0     C68512  10.873  11.165   5.271 -0.1240 -0.4052 -0.3922
  508MOL0     H68513  10.509  10.869   5.425 -1.3439 -1.2010 -1.3039
  508MOL0     H68514  10.270  10.839   5.486 -1.7860  0.1862  1.5230
  508MOL0     H68515  10.015  11.178   5.407 -1.2570  0.9041  0.7522
  508MOL0     H68516   9.903  11.059   5.482  1.7289 -1.2311 -1.4098
  508MOL0     H68517  10.026  11.158   5.696 -0.7490  1.9779  2.5468
  508MOL0     H68518  10.044  11.305   5.589 -1.8311  0.3798 -0.4445
  508MOL0     H68519   9.800  11.204   5.699  4.2773 -0.8289  1.9020
  508MOL0     H68520   9.873  11.364   5.699  2.7233 -0.3242 -0.1216
  508MOL0     H68521   9.818  11.391   5.465 -2.4007  2.4507  1.0061
  508MOL0     H68522   9.733  11.225   5.471  0.1343 -0.5927  2.0118
  508MOL0     H68523   9.589  11.312   5.651 -1.2448  1.1846  0.3487
  508MOL0     H68524   9.666  11.471   5.637  0.0701  0.5906 -0.4023
  508MOL0     H68525   9.585  11.483   5.404  0.0348 -0.2218  1.1217
  508MOL0     H68526   9.510  11.325   5.413  0.5750 -2.0641  2.4800
  508MOL0     H68527   9.426  11.546   5.606  0.2729  1.9662 -0.9582
  508MOL0     H68528   9.371  11.539   5.434 -0.7760  2.6763  2.1392
  508MOL0     H68529   9.273  11.317   5.454  2.7811 -2.9663  3.0506
  508MOL0     H68530   9.199  11.468   5.525  1.9517  1.5489 -1.6963
  508MOL0     H68531   9.209  11.521   5.765 -0.9686 -0.2157  0.7215
  508MOL0     H68532   9.300  11.437   6.069  0.0008 -1.6951  1.4378
  508MOL0     H68533   9.135  11.472   6.018 -2.7178 -2.7735 -0.0797
  508MOL0     H68534   9.142  11.314   6.217  2.5832 -0.7364  0.1902
  508MOL0     H68535   9.255  11.215   6.128  1.4286  1.6141 -2.5207
  508MOL0     H68536   9.054  11.209   5.944  1.3377  1.7094  0.6122
  508MOL0     H68537   8.956  11.260   6.078  0.5999  1.1030 -0.2720
  508MOL0     H68538   9.128  11.021   6.151  0.1925  0.0577  0.4665
  508MOL0     H68539   9.006  10.985   6.018  0.6708  3.2164 -2.9703
  508MOL0     H68540   8.821  11.073   6.398  0.2955 -0.7516 -0.1674
  508MOL0     H68541   8.653  11.151   6.542  0.1937 -0.0351 -0.3729
  508MOL0     H68542   8.488  11.199   6.478 -1.3202 -0.5792 -0.7225
  508MOL0     H68543   8.523  11.037   6.525 -0.1441  0.2689 -0.8978
  508MOL0     H68544   8.247  11.341   6.244 -1.3253  3.2117  0.4937
  508MOL0     H68545   8.025  11.448   6.271  0.1496  1.7812  1.3356
  508MOL0     H68546   7.689  11.231   6.466 -2.0027  0.7649 -1.2077
  508MOL0     H68547   7.789  11.286   6.594  0.0136  1.7492  0.4417
  508MOL0     H68548   7.560  11.440   6.480  1.1572  0.4224 -0.8654
  508MOL0     H68549   7.608  11.391   6.646 -1.5307 -1.1381  0.0314
  508MOL0     H68550   7.747  11.611   6.475  0.9517 -1.2432 -0.8461
  508MOL0     H68551   7.804  11.540   6.634  2.9316  2.7124 -3.1223
  508MOL0     H68552   7.529  11.618   6.685  0.7814 -0.4184  2.5087
  508MOL0     H68553   7.686  11.701   6.724  0.2210  1.5984 -1.7147
  508MOL0     H68554   7.695  11.832   6.515 -0.6503 -0.2237 -0.8957
  508MOL0     H68555   7.577  11.883   6.619 -0.5562 -1.6935  0.2970
  508MOL0     H68556   7.506  11.700   6.406  1.8918 -1.1904  1.2799
  508MOL0     H68557   7.394  11.803   6.514 -0.7483  1.3675 -1.7015
  508MOL0     H68558   7.536  11.896   6.277 -0.3247  0.0867 -0.2258
  508MOL0     H68559   7.510  12.015   6.409 -0.8091  0.2361  0.3355
  508MOL0     H68560   7.321  12.023   6.246 -1.7966  1.5848  1.4262
  508MOL0     H68561   7.273  11.984   6.401 -0.2562 -2.3636 -0.1665
  508MOL0     H68562   7.890  11.078   6.479  1.6205 -1.5643  1.0989
  508MOL0     H68563   8.091  10.988   6.437  1.6732 -0.8765  1.7087
  508MOL0     H68564   8.515  11.042   6.014  0.3926  1.4983  0.1074
  508MOL0     H68565   8.764  11.011   5.987  1.1860  2.0255  0.8424
  508MOL0     H68566  10.224  11.256   5.514 -0.6810 -1.5640  0.8458
  508MOL0     H68567  10.452  11.295   5.418 -3.1095  1.4979  0.2808
  508MOL0     H68568  10.925  11.099   5.601  0.3873 -0.3472  0.4429
  508MOL0     H68569  11.142  11.207   5.551  2.1493  2.8105 -2.3926
  508MOL0     H68570  11.326  11.400   5.445 -0.8397  0.3945 -0.5285
  508MOL0     H68571  11.340  11.219   5.439 -0.1037  2.5233  2.6258
  508MOL0     H68572  11.423  11.404   5.220 -0.5595  1.9962  1.2677
  508MOL0     H68573  11.474  11.228   5.250  0.4922 -0.8191  2.1111
  508MOL0     H68574  11.581  11.287   5.442  0.6775  0.2441 -0.2636
  508MOL0     H68575  11.551  11.466   5.426 -2.4333  0.8225 -3.1730
  508MOL0     H68576  11.698  11.453   5.207  3.6489  3.5948  2.4500
  508MOL0     H68577  11.728  11.283   5.264  0.3980 -0.7793  2.6698
  508MOL0     H68578  11.954  11.487   5.545 -0.4701  1.6305  0.5168
  508MOL0     H68579  11.009  11.254   5.139  2.4030  0.8729  0.9177
  508MOL0     H68580  10.787  11.178   5.207  0.1208  3.1529 -0.2187
  509MOL0     O68581  10.505   2.564   2.628  0.6499 -0.2599 -0.6313
  509MOL0     C68582  10.485   2.569   2.750  1.4593 -0.4063 -0.4119
  509MOL0     O68583  10.557   2.646   2.843  0.0839  0.3556  0.2018
  509MOL0     C68584  10.662   2.727   2.797  1.1097 -0.0982  0.2744
  509MOL0     C68585  10.671   2.791   2.675 -0.4286 -0.0472 -0.1061
  509MOL0     C68586  10.780   2.877   2.658  0.6094  0.2473  0.2398
  509MOL0     C68587  10.893   2.879   2.738 -0.6498  0.1247  0.2489
  509MOL0     O68588  11.005   2.950   2.710 -0.1309 -0.2942 -0.3921
  509MOL0     C68589  11.024   3.017   2.586 -0.3043  0.3707 -0.1743
  509MOL0     C68590  11.160   3.085   2.591  0.6728 -0.5570 -0.0092
  509MOL0     C68591  11.281   3.014   2.636 -0.4073  1.1782 -0.3560
  509MOL0     C68592  11.415   3.073   2.589 -1.0069  0.3666  0.0332
  509MOL0     C68593  11.529   2.988   2.615 -0.1649  0.8506  0.2831
  509MOL0     C68594  11.539   2.857   2.529  0.1657  0.1052  0.2364
  509MOL0     C68595  11.492   2.874   2.380 -0.4624 -0.4444 -1.2456
  509MOL0     C68596  11.444   2.742   2.320 -0.7905  0.6761 -0.1826
  509MOL0     N68597  11.300   2.707   2.345 -0.0697 -0.0259  0.6297
  509MOL0     C68598  11.230   2.651   2.448 -0.1812 -0.0324  0.4916
  509MOL0     C68599  11.109   2.649   2.404  0.6167  0.4059 -0.4162
  509MOL0     C68600  10.993   2.633   2.494  0.2649 -0.0512  0.4849
  509MOL0     C68601  10.931   2.487   2.498  0.6802 -1.3724  0.0513
  509MOL0     C68602  10.837   2.471   2.620 -0.0292  0.6621  0.6759
  509MOL0     C68603  10.733   2.363   2.606 -1.0092  0.8466 -0.0388
  509MOL0     O68604  10.800   2.235   2.615 -0.1390  0.9470  0.2692
  509MOL0     C68605  10.717   2.140   2.673 -0.2779  1.3436  0.9568
  509MOL0     C68606  10.759   2.053   2.769 -0.4452  0.7040 -0.0310
  509MOL0     C68607  10.663   1.962   2.827 -0.5668  1.2366 -0.1130
  509MOL0     C68608  10.709   1.875   2.940  0.4047  0.0117  0.1187
  509MOL0     C68609  10.522   1.965   2.794 -0.6768  0.3347 -0.9342
  509MOL0     C68610  10.415   1.883   2.865  0.4106  0.1875 -0.4304
  509MOL0     O68611  10.295   1.870   2.799  0.3156  0.4866  0.2660
  509MOL0     C68612  10.184   1.822   2.868 -0.2804 -0.3271 -0.0559
  509MOL0     C68613  10.118   1.700   2.819  0.4312 -0.5754 -0.7528
  509MOL0     C68614   9.994   1.660   2.871  0.2863  0.9944  0.4442
  509MOL0     C68615   9.921   1.736   2.967  0.3455 -0.3295 -0.3281
  509MOL0     O68616   9.798   1.700   3.028  0.2463  0.2296  0.5039
  509MOL0     C68617   9.714   1.615   2.943 -0.3957  0.2115  0.5660
  509MOL0     C68618   9.577   1.618   2.998  0.9315 -0.0560 -0.1806
  509MOL0     C68619   9.565   1.536   3.127  0.0033 -0.5582 -0.7842
  509MOL0     C68620   9.428   1.455   3.114  0.3716 -0.0110  0.6321
  509MOL0     C68621   9.419   1.339   3.221 -0.4718  0.6387 -0.3035
  509MOL0     C68622   9.505   1.220   3.181  0.9387 -0.6927 -0.0436
  509MOL0     C68623   9.481   1.108   3.283  1.1053  0.0975  0.4833
  509MOL0     C68624   9.559   1.123   3.414 -0.0220 -0.7979  1.2340
  509MOL0    Cl68625   9.729   1.121   3.371  0.3361  0.2898 -0.1524
  509MOL0     C68626   9.989   1.857   3.004  1.4868 -0.3934 -0.0852
  509MOL0     C68627  10.113   1.897   2.961 -0.7204  0.2849 -0.4165
  509MOL0     O68628  10.439   1.823   2.974 -0.3226  0.2945 -0.1958
  509MOL0     C68629  10.485   2.040   2.681 -0.3841  0.4857 -0.6149
  509MOL0     C68630  10.585   2.118   2.617  0.1302  0.4985  0.0028
  509MOL0     N68631  11.096   2.696   2.271  0.2162  0.5099 -0.4157
  509MOL0     N68632  11.219   2.727   2.237  0.6878 -0.4699  0.4139
  509MOL0     C68633  10.884   2.805   2.851 -0.0683 -0.3378 -0.2878
  509MOL0     C68634  10.767   2.738   2.886 -0.2448  0.0929 -0.4888
  509MOL0     C68635  10.378   2.488   2.814 -0.3772 -1.1214  0.4574
  509MOL0     C68636  10.366   2.462   2.961 -0.6236  0.0176 -0.3561
  509MOL0     C68637  10.250   2.386   3.006 -1.1245 -0.4961 -0.5740
  509MOL0     C68638  10.152   2.330   2.926  0.2101 -1.0594  0.5583
  509MOL0     O68639  10.050   2.262   2.982 -0.0360  0.5899  0.4778
  509MOL0     C68640   9.946   2.212   2.894  0.6162  0.6731 -0.6598
  509MOL0     C68641   9.819   2.187   2.975 -0.6195 -0.3540 -0.4448
  509MOL0     C68642   9.721   2.118   2.896 -0.4373 -0.1474  0.3712
  509MOL0     C68643   9.589   2.107   2.968  0.6380  0.5210 -1.0637
  509MOL0     C68644   9.601   2.032   3.091  1.2421 -0.6459  0.4374
  509MOL0     C68645   9.600   1.960   3.183 -0.5844 -0.0318 -0.2316
  509MOL0     C68646  10.179   2.347   2.790 -0.8304  0.0046 -0.0700
  509MOL0     C68647  10.283   2.425   2.736  0.8610 -0.4725 -0.5013
  509MOL0     H68648  10.584   2.815   2.614 -0.4969  0.2434  0.1042
  509MOL0     H68649  10.772   2.938   2.568  3.9340 -0.1025 -0.4107
  509MOL0     H68650  11.036   2.941   2.508  0.9787  0.4293 -0.0608
  509MOL0     H68651  10.945   3.090   2.568 -0.5537  0.1032 -0.1716
  509MOL0     H68652  11.169   3.151   2.504  3.3953  1.8039  1.8740
  509MOL0     H68653  11.160   3.168   2.662  2.2169  0.3363 -1.0034
  509MOL0     H68654  11.278   3.019   2.745 -0.1557  1.9501 -0.3768
  509MOL0     H68655  11.276   2.906   2.620  1.2632  0.6688  2.0971
  509MOL0     H68656  11.411   3.115   2.488  1.6279  0.0726 -0.2527
  509MOL0     H68657  11.423   3.171   2.637 -1.0697 -0.0078  0.8312
  509MOL0     H68658  11.619   3.044   2.587  1.0897 -2.3463 -2.7966
  509MOL0     H68659  11.543   2.952   2.718  2.1659 -0.4996 -0.4321
  509MOL0     H68660  11.642   2.821   2.521 -0.0264 -0.3415 -0.3175
  509MOL0     H68661  11.473   2.786   2.579 -1.7524  1.2310 -0.5902
  509MOL0     H68662  11.405   2.941   2.380  0.3388  0.6467  0.4214
  509MOL0     H68663  11.574   2.920   2.324  1.2483  2.3519  3.0508
  509MOL0     H68664  11.506   2.666   2.369 -2.5010  1.0261  2.7634
  509MOL0     H68665  11.460   2.741   2.212 -2.7527 -0.5705 -0.5257
  509MOL0     H68666  11.272   2.617   2.543 -1.1842  0.5324  1.1533
  509MOL0     H68667  11.025   2.670   2.592 -1.4734  2.3220  0.2329
  509MOL0     H68668  10.916   2.702   2.461 -0.0293 -1.1064 -1.1361
  509MOL0     H68669  11.006   2.407   2.495  2.2974  0.0675  0.9342
  509MOL0     H68670  10.866   2.469   2.411 -0.2331 -3.8227  1.1394
  509MOL0     H68671  10.786   2.567   2.629  0.3981  0.8807  0.8217
  509MOL0     H68672  10.891   2.444   2.711 -0.2674 -0.6631  0.4512
  509MOL0     H68673  10.685   2.365   2.507  0.5318 -0.2526 -0.8574
  509MOL0     H68674  10.665   2.377   2.690 -1.1457  0.6151 -0.1098
  509MOL0     H68675  10.862   2.067   2.799 -0.4267 -1.6017  1.2663
  509MOL0     H68676  10.818   1.870   2.954  0.3591  1.0773  0.9707
  509MOL0     H68677  10.657   1.913   3.028 -1.8434 -3.0812  0.2809
  509MOL0     H68678  10.672   1.772   2.936 -0.4233  0.3355 -1.2323
  509MOL0     H68679  10.161   1.635   2.744  1.7195  0.4580 -0.9450
  509MOL0     H68680   9.943   1.573   2.833 -0.8334  1.8948 -0.1958
  509MOL0     H68681   9.710   1.664   2.846 -2.6640  2.5966  1.7380
  509MOL0     H68682   9.757   1.515   2.936  2.6254  1.4508 -0.0630
  509MOL0     H68683   9.552   1.723   3.015  2.3741  0.6823 -2.2224
  509MOL0     H68684   9.510   1.583   2.919  2.3074  0.0125 -1.4201
  509MOL0     H68685   9.557   1.598   3.217  0.3467 -0.4869 -0.7987
  509MOL0     H68686   9.645   1.461   3.130  0.3826 -0.2263 -1.8564
  509MOL0     H68687   9.339   1.519   3.117  1.1660  1.4949 -2.5606
  509MOL0     H68688   9.426   1.409   3.014 -0.9866 -0.9487  1.0476
  509MOL0     H68689   9.319   1.298   3.234  0.8998 -2.0716  3.6276
  509MOL0     H68690   9.448   1.368   3.323 -0.7254  0.5218 -0.1983
  509MOL0     H68691   9.463   1.180   3.089 -1.2186 -1.2618  1.1306
  509MOL0     H68692   9.613   1.241   3.185  0.9034 -0.7189  2.4621
  509MOL0     H68693   9.505   1.011   3.240  1.1486  0.6346 -0.7500
  509MOL0     H68694   9.373   1.105   3.300  1.0960  1.6535  0.9201
  509MOL0     H68695   9.538   1.033   3.473  0.3856 -1.9108 -0.2510
  509MOL0     H68696   9.522   1.210   3.469 -2.7883 -1.6415  0.9137
  509MOL0     H68697   9.946   1.918   3.083  1.3811 -0.4798 -0.0750
  509MOL0     H68698  10.150   1.992   2.998  1.6276 -0.1824 -1.3403
  509MOL0     H68699  10.387   2.040   2.636 -0.1327  3.0895 -1.2944
  509MOL0     H68700  10.548   2.179   2.535  0.3168  1.6906  0.7872
  509MOL0     H68701  10.969   2.796   2.917  1.0613 -1.1483 -1.7704
  509MOL0     H68702  10.761   2.663   2.964 -3.2216 -0.5377 -1.2021
  509MOL0     H68703  10.450   2.492   3.024  0.6419 -0.6205 -1.6749
  509MOL0     H68704  10.245   2.355   3.110 -1.3085 -4.7075 -1.6297
  509MOL0     H68705   9.901   2.286   2.827 -1.1768 -2.3397 -3.0617
  509MOL0     H68706   9.974   2.121   2.839  0.0403 -1.3256  2.1337
  509MOL0     H68707   9.793   2.288   3.007  2.1405 -0.0967  1.2498
  509MOL0     H68708   9.848   2.128   3.063  0.8411  2.2729  0.9436
  509MOL0     H68709   9.756   2.019   2.866  2.4763  0.6707  0.7281
  509MOL0     H68710   9.700   2.179   2.807 -1.8024 -0.5446  0.4148
  509MOL0     H68711   9.510   2.067   2.904 -1.1299  1.0510  0.6669
  509MOL0     H68712   9.544   2.202   2.998 -1.8492 -0.3723 -1.6759
  509MOL0     H68713   9.603   1.925   3.284 -3.2025  1.7551  0.5608
  509MOL0     H68714  10.112   2.309   2.714 -1.4819 -3.0843  1.9073
  509MOL0     H68715  10.274   2.441   2.629  0.7765 -1.8523 -0.7151
  510MOL0     O68716   2.393   3.794   6.286  0.2873  0.1242  0.7154
  510MOL0     C68717   2.355   3.728   6.389 -0.2987 -0.8381 -0.3551
  510MOL0     O68718   2.276   3.773   6.489  0.0453  0.2621  0.2268
  510MOL0     C68719   2.178   3.863   6.439 -0.1976  0.1216  0.6911
  510MOL0     C68720   2.056   3.810   6.416 -0.0410  0.0426 -0.1554
  510MOL0     C68721   1.950   3.888   6.370 -0.1482 -0.3710  0.5358
  510MOL0     C68722   1.968   4.028   6.358  0.2481  0.1247  0.5351
  510MOL0     O68723   1.871   4.106   6.310  0.2837 -0.3849  0.0083
  510MOL0     C68724   1.734   4.066   6.319 -0.2133 -0.2538  0.5443
  510MOL0     C68725   1.649   4.189   6.313  0.7546  0.1106 -0.3333
  510MOL0     C68726   1.505   4.156   6.348  0.2049 -0.2847  0.0197
  510MOL0     C68727   1.429   4.289   6.353 -0.7648  0.2114 -0.2739
  510MOL0     C68728   1.279   4.276   6.393  0.0892  0.3968 -0.6284
  510MOL0     C68729   1.204   4.187   6.305 -0.1600  0.0453 -0.2877
  510MOL0     C68730   1.065   4.150   6.367  0.5841 -0.4422  0.6276
  510MOL0     C68731   0.972   4.078   6.262 -0.5201  0.3053 -0.2734
  510MOL0     N68732   0.860   4.020   6.337  0.3440 -0.0398  0.2447
  510MOL0     C68733   0.745   4.075   6.390  0.4589  0.2463 -0.1453
  510MOL0     C68734   0.672   3.963   6.430 -0.2984  0.0606 -0.1130
  510MOL0     C68735   0.529   3.959   6.481  0.0068 -0.1573 -1.4141
  510MOL0     C68736   0.419   3.924   6.370 -0.8972  0.4694 -0.2543
  510MOL0     C68737   0.263   3.935   6.403 -0.5410 -0.7053  0.8509
  510MOL0     C68738   0.181   3.860   6.297  0.2402 -0.9854 -0.2828
  510MOL0     O68739   0.057   3.932   6.267 -0.3998  0.0532 -0.6158
  510MOL0     C68740  -0.040   3.875   6.183 -0.1386 -0.3378 -0.7108
  510MOL0     C68741  -0.166   3.920   6.214  0.3232 -0.3205 -0.1464
  510MOL0     C68742  -0.278   3.861   6.149 -0.9274 -0.1930  0.1933
  510MOL0     C68743  -0.415   3.908   6.204  0.4676  0.0976 -0.1372
  510MOL0     C68744  -0.255   3.763   6.052 -0.0670  0.3183  0.3809
  510MOL0     C68745  -0.363   3.700   5.976  0.1820  0.4105 -0.5847
  510MOL0     O68746  -0.329   3.653   5.853  0.0473 -0.6811 -0.0729
  510MOL0     C68747  -0.415   3.633   5.744  0.3779  0.3071 -1.0692
  510MOL0     C68748  -0.349   3.578   5.633  0.0998  0.1029  0.4964
  510MOL0     C68749  -0.401   3.575   5.504 -0.2527 -0.0391  0.4126
  510MOL0     C68750  -0.527   3.627   5.475 -0.4382 -0.3927  0.3173
  510MOL0     O68751  -0.590   3.625   5.357  0.0418 -0.2423 -0.1248
  510MOL0     C68752  -0.517   3.608   5.237 -0.0622  0.0319 -0.2235
  510MOL0     C68753  -0.609   3.581   5.111 -0.4123 -0.1878  0.3011
  510MOL0     C68754  -0.743   3.522   5.137  0.2280  0.7076 -0.0504
  510MOL0     C68755  -0.731   3.375   5.170  0.2221  0.1805 -0.2396
  510MOL0     C68756  -0.860   3.319   5.204 -1.0431 -0.3784  0.5699
  510MOL0     C68757  -0.943   3.304   5.077  0.5723 -0.3592  0.0466
  510MOL0     C68758  -1.075   3.230   5.113 -0.3167 -0.8142  1.0240
  510MOL0     C68759  -1.177   3.205   4.997  0.8040  0.2167  0.5422
  510MOL0    Cl68760  -1.326   3.160   5.074 -0.4027  0.3112 -0.8349
  510MOL0     C68761  -0.602   3.668   5.590  0.0199  0.4324  0.6046
  510MOL0     C68762  -0.545   3.678   5.722 -0.5208 -0.2184 -0.8262
  510MOL0     O68763  -0.463   3.673   6.037 -0.5948 -0.8480  0.8353
  510MOL0     C68764  -0.122   3.726   6.014  0.1005  0.3681  0.3667
  510MOL0     C68765  -0.017   3.772   6.089  0.0946  0.3591 -0.7850
  510MOL0     N68766   0.737   3.847   6.392  0.3782 -0.6969 -0.8580
  510MOL0     N68767   0.844   3.882   6.337  0.4869  0.0449 -0.6358
  510MOL0     C68768   2.095   4.078   6.375 -0.2311  0.6761 -0.9417
  510MOL0     C68769   2.200   3.999   6.424  0.3772 -0.7633 -0.4494
  510MOL0     C68770   2.424   3.610   6.424 -1.0430 -0.0634 -0.2035
  510MOL0     C68771   2.555   3.595   6.388 -0.9299 -0.9451 -0.9665
  510MOL0     C68772   2.631   3.491   6.440  0.0948  0.0740 -0.0127
  510MOL0     C68773   2.569   3.378   6.500  0.0848  0.4857  0.5336
  510MOL0     O68774   2.630   3.266   6.528  0.1983 -0.3937 -0.0254
  510MOL0     C68775   2.701   3.194   6.425  0.0332 -0.3567 -0.6513
  510MOL0     C68776   2.616   3.142   6.320 -0.3076 -0.4402  0.7070
  510MOL0     C68777   2.696   3.051   6.217  0.1997 -0.0047 -0.4558
  510MOL0     C68778   2.618   3.023   6.094 -0.3832  0.2034  0.2297
  510MOL0     C68779   2.524   2.922   6.130  0.4701  0.0746  0.3884
  510MOL0     C68780   2.436   2.828   6.148 -0.1118 -0.7061 -0.0974
  510MOL0     C68781   2.440   3.391   6.533 -0.2103 -0.2677  0.3725
  510MOL0     C68782   2.369   3.505   6.493  0.5518  0.0749  0.8063
  510MOL0     H68783   2.036   3.705   6.434  0.8503 -0.5711 -2.4276
  510MOL0     H68784   1.854   3.850   6.335 -1.0780  1.2795  1.1904
  510MOL0     H68785   1.718   4.005   6.230 -0.3969  0.4846  0.0603
  510MOL0     H68786   1.733   4.012   6.414  4.1665  0.6368  1.3278
  510MOL0     H68787   1.680   4.271   6.379  3.3444  0.6541 -2.0510
  510MOL0     H68788   1.647   4.222   6.209 -1.5519 -1.9407 -1.0153
  510MOL0     H68789   1.464   4.089   6.272  0.9538  0.3066 -0.9281
  510MOL0     H68790   1.507   4.098   6.441  2.8046 -2.4924 -1.3114
  510MOL0     H68791   1.483   4.359   6.417 -0.0689  1.2099 -1.8868
  510MOL0     H68792   1.431   4.322   6.248  3.0209 -0.4342 -0.5283
  510MOL0     H68793   1.277   4.245   6.497  2.0274  1.9477 -0.0713
  510MOL0     H68794   1.234   4.375   6.404  1.4060  0.7737  1.9220
  510MOL0     H68795   1.191   4.229   6.204  0.9372  0.1762 -0.3819
  510MOL0     H68796   1.250   4.089   6.291  0.6615  0.6452 -2.2643
  510MOL0     H68797   1.071   4.103   6.465 -1.5817 -1.1982  0.4447
  510MOL0     H68798   1.031   4.251   6.393  1.0987  0.2025 -1.0565
  510MOL0     H68799   1.012   3.993   6.205 -1.2794 -0.9083  0.9514
  510MOL0     H68800   0.928   4.147   6.189 -1.2903  0.2269  0.1057
  510MOL0     H68801   0.728   4.182   6.388  1.9778  0.5057 -1.2373
  510MOL0     H68802   0.527   3.890   6.566  0.8526  1.7997  0.2741
  510MOL0     H68803   0.510   4.062   6.514 -0.1568 -1.4048  3.0270
  510MOL0     H68804   0.450   3.827   6.330 -1.8437 -0.8868  2.1000
  510MOL0     H68805   0.433   3.995   6.288  0.7306  1.2176  0.6210
  510MOL0     H68806   0.229   4.038   6.410 -1.8215 -0.8856 -1.6056
  510MOL0     H68807   0.249   3.888   6.501 -0.6771 -2.3967  0.0664
  510MOL0     H68808   0.159   3.758   6.328 -0.3334  0.0741  3.1740
  510MOL0     H68809   0.237   3.861   6.203  0.9676  2.0783  0.0673
  510MOL0     H68810  -0.180   3.986   6.299 -0.7364  1.3716 -1.5455
  510MOL0     H68811  -0.392   3.991   6.271  0.0288 -0.7600  1.1100
  510MOL0     H68812  -0.477   3.930   6.117  1.5129 -0.8707 -1.1727
  510MOL0     H68813  -0.468   3.834   6.264 -0.6710 -0.5496 -1.8779
  510MOL0     H68814  -0.247   3.544   5.646 -0.0460 -0.7491 -0.5181
  510MOL0     H68815  -0.323   3.540   5.436  2.4158  0.7866  2.8643
  510MOL0     H68816  -0.446   3.690   5.224  0.1620  0.5266  3.2053
  510MOL0     H68817  -0.454   3.519   5.244  0.9711  0.7492 -0.1724
  510MOL0     H68818  -0.629   3.675   5.059  0.4078 -0.4717 -0.5510
  510MOL0     H68819  -0.553   3.530   5.032  0.5416 -0.7711  1.3259
  510MOL0     H68820  -0.802   3.525   5.045 -0.2348  1.3427  0.2617
  510MOL0     H68821  -0.801   3.581   5.209  1.7024  1.9280  0.1879
  510MOL0     H68822  -0.675   3.326   5.090  1.6914  0.4358  0.5851
  510MOL0     H68823  -0.668   3.368   5.259  1.2457  0.7491 -0.8892
  510MOL0     H68824  -0.921   3.380   5.271  0.0668 -0.5634  1.7856
  510MOL0     H68825  -0.851   3.221   5.252 -0.3725  0.1016  1.4586
  510MOL0     H68826  -0.967   3.399   5.028  1.5749  0.1112  0.4335
  510MOL0     H68827  -0.896   3.235   5.005 -1.6522 -2.5501  0.5924
  510MOL0     H68828  -1.124   3.281   5.195  0.8510 -0.7692  1.7214
  510MOL0     H68829  -1.051   3.133   5.157  1.1005  0.3021  2.8294
  510MOL0     H68830  -1.150   3.122   4.931 -0.8581 -0.2096  0.3571
  510MOL0     H68831  -1.195   3.291   4.932  0.5513 -0.4753 -0.3284
  510MOL0     H68832  -0.701   3.713   5.580 -0.5098 -0.9344 -0.8043
  510MOL0     H68833  -0.596   3.731   5.802 -0.9673  1.0643 -1.9290
  510MOL0     H68834  -0.090   3.648   5.946  3.3801  0.5968  1.4529
  510MOL0     H68835   0.086   3.739   6.078  0.2025 -1.0764  3.1308
  510MOL0     H68836   2.109   4.185   6.383  1.2312  0.3776  1.7172
  510MOL0     H68837   2.294   4.046   6.449 -0.7457  2.2201 -1.3383
  510MOL0     H68838   2.603   3.680   6.341 -0.8234  0.1630  1.0130
  510MOL0     H68839   2.738   3.475   6.429  0.0484 -0.0820 -0.2384
  510MOL0     H68840   2.785   3.256   6.393  0.1330  0.7764  1.5615
  510MOL0     H68841   2.748   3.104   6.466  0.8012  0.3992  0.2092
  510MOL0     H68842   2.567   3.224   6.266  0.8383 -1.1271 -1.5057
  510MOL0     H68843   2.535   3.079   6.358 -2.3065  0.7411 -1.3286
  510MOL0     H68844   2.723   2.959   6.269  0.6025  0.2549 -0.1989
  510MOL0     H68845   2.786   3.108   6.190 -0.1577  0.2011 -1.2559
  510MOL0     H68846   2.682   2.985   6.014 -0.8121 -0.1520  0.0513
  510MOL0     H68847   2.566   3.113   6.060  0.5062  1.1336  1.2522
  510MOL0     H68848   2.379   2.738   6.160  2.7377 -2.7663 -0.9273
  510MOL0     H68849   2.377   3.315   6.578  1.4080 -1.9853 -0.1296
  510MOL0     H68850   2.263   3.512   6.515  0.7213 -1.1704  2.1495
  511MOL0     O68851   8.727   9.524   0.836 -0.0103 -0.1240 -0.0822
  511MOL0     C68852   8.843   9.542   0.868  0.2706  0.5777 -0.7540
  511MOL0     O68853   8.925   9.647   0.845  0.1893  0.7215  0.2493
  511MOL0     C68854   8.869   9.753   0.782  0.4204 -0.6492  0.2164
  511MOL0     C68855   8.849   9.876   0.855 -0.7760  0.0221 -0.3334
  511MOL0     C68856   8.777   9.976   0.800  1.0942  0.6739  0.5940
  511MOL0     C68857   8.722   9.965   0.672 -0.3062 -0.3536 -0.0543
  511MOL0     O68858   8.656  10.076   0.617 -0.1843 -0.8183  0.1323
  511MOL0     C68859   8.651  10.101   0.480  0.8802  1.1930  0.6102
  511MOL0     C68860   8.602  10.236   0.446  0.0689 -0.2828  0.3645
  511MOL0     C68861   8.452  10.247   0.484 -0.8785  0.4550 -0.0486
  511MOL0     C68862   8.351  10.171   0.383 -0.0696  0.4395 -0.0131
  511MOL0     C68863   8.215  10.163   0.443 -0.1580  0.5358 -0.3312
  511MOL0     C68864   8.135  10.287   0.446  0.2710 -1.4290  0.1148
  511MOL0     C68865   7.980  10.272   0.467  0.1126 -0.0789  0.0304
  511MOL0     C68866   7.907  10.407   0.450 -0.7202  0.1850 -0.5820
  511MOL0     N68867   7.766  10.410   0.482  0.0228 -0.4229 -0.4591
  511MOL0     C68868   7.706  10.507   0.565 -0.3304 -0.4556  0.5904
  511MOL0     C68869   7.574  10.460   0.570 -0.1916 -0.3555 -1.2486
  511MOL0     C68870   7.468  10.518   0.660  0.4920  0.2188 -0.5188
  511MOL0     C68871   7.370  10.569   0.562  0.5396 -0.2551  0.9775
  511MOL0     C68872   7.259  10.638   0.636  1.1524 -1.4412  1.1194
  511MOL0     C68873   7.153  10.663   0.530 -0.8243 -0.1367  0.3649
  511MOL0     O68874   7.039  10.713   0.603  0.1111 -0.2512 -0.4332
  511MOL0     C68875   6.933  10.756   0.520 -0.0032  0.5322 -0.0756
  511MOL0     C68876   6.902  10.892   0.510 -0.1351 -0.8224 -0.3724
  511MOL0     C68877   6.788  10.938   0.449 -0.1502 -0.0357 -0.1209
  511MOL0     C68878   6.764  11.087   0.453 -0.1124  0.8636 -0.3446
  511MOL0     C68879   6.709  10.857   0.371 -0.3474  0.1735 -1.1473
  511MOL0     C68880   6.588  10.896   0.290  0.4091  0.1784 -0.4484
  511MOL0     O68881   6.560  10.816   0.187 -0.6644 -0.2687 -0.1850
  511MOL0     C68882   6.454  10.830   0.106  0.3440  0.0122 -0.3175
  511MOL0     C68883   6.402  10.711   0.052  0.1924 -0.5380 -0.3069
  511MOL0     C68884   6.289  10.714  -0.025  1.6411 -0.2621  0.7572
  511MOL0     C68885   6.219  10.835  -0.060  0.3760  0.0085 -0.5376
  511MOL0     O68886   6.104  10.844  -0.123  0.5991  0.7995 -0.1464
  511MOL0     C68887   6.065  10.728  -0.197 -0.1592 -0.1833 -0.3025
  511MOL0     C68888   5.939  10.767  -0.264  0.2962  0.7197  0.2438
  511MOL0     C68889   5.823  10.810  -0.182  0.2801  0.1739  0.2116
  511MOL0     C68890   5.688  10.755  -0.241 -0.1460 -1.0313  0.4454
  511MOL0     C68891   5.646  10.812  -0.385 -1.3135 -0.2958 -0.0447
  511MOL0     C68892   5.491  10.789  -0.424  0.5782  0.6764 -1.1298
  511MOL0     C68893   5.467  10.825  -0.565 -0.4531 -1.0804  0.7706
  511MOL0     C68894   5.332  10.796  -0.620  0.1162 -0.8225 -0.0119
  511MOL0    Cl68895   5.311  10.619  -0.643  0.5744  0.3291  0.1433
  511MOL0     C68896   6.273  10.955  -0.011  0.0740  0.1591 -1.3433
  511MOL0     C68897   6.384  10.950   0.073 -0.6286 -0.0119  0.1839
  511MOL0     O68898   6.525  10.998   0.319 -0.2701  0.7580  0.2241
  511MOL0     C68899   6.746  10.718   0.373 -0.3290 -0.1613  0.5283
  511MOL0     C68900   6.852  10.666   0.446 -0.6028 -0.2632  0.8699
  511MOL0     N68901   7.555  10.365   0.478  0.1885  0.2607 -1.1667
  511MOL0     N68902   7.667  10.325   0.440 -0.1595 -0.9328 -0.1435
  511MOL0     C68903   8.755   9.850   0.600 -0.3731  0.6010  0.2741
  511MOL0     C68904   8.826   9.744   0.654 -0.2928 -0.7696  0.7259
  511MOL0     C68905   8.909   9.437   0.958 -0.3462  0.1418 -0.1598
  511MOL0     C68906   8.853   9.302   0.965  0.4055  0.2527  0.7942
  511MOL0     C68907   8.927   9.193   1.012 -0.2944  0.7021 -0.5541
  511MOL0     C68908   9.046   9.212   1.088 -0.3468  0.7214 -0.3994
  511MOL0     O68909   9.109   9.109   1.146  0.3643  0.0684  0.1304
  511MOL0     C68910   9.119   9.131   1.286  0.6227  0.9973  0.0531
  511MOL0     C68911   9.196   9.019   1.360 -1.1776 -0.5789 -0.3328
  511MOL0     C68912   9.340   9.063   1.376  0.3334 -0.3442 -0.0650
  511MOL0     C68913   9.428   9.040   1.256  0.4679  0.6726  0.6937
  511MOL0     C68914   9.561   9.087   1.302 -0.0407  0.6157 -0.3794
  511MOL0     C68915   9.669   9.129   1.330 -0.7180 -0.0021  0.7895
  511MOL0     C68916   9.092   9.346   1.091  0.7042 -0.5162  0.3952
  511MOL0     C68917   9.031   9.449   1.023 -0.8145  0.4377 -0.2922
  511MOL0     H68918   8.894   9.881   0.954  0.0731  0.7429 -0.7343
  511MOL0     H68919   8.764  10.055   0.873  0.2749 -0.1323  1.3494
  511MOL0     H68920   8.751  10.086   0.439  1.2610  3.4182  0.6155
  511MOL0     H68921   8.599  10.015   0.437  2.0839 -1.0466  3.2559
  511MOL0     H68922   8.653  10.326   0.482 -1.5381  1.1268 -0.7518
  511MOL0     H68923   8.606  10.241   0.337  1.6150 -2.6878  0.2550
  511MOL0     H68924   8.425  10.228   0.588 -0.5255  2.2027  0.4118
  511MOL0     H68925   8.450  10.357   0.476  4.0983  0.8017  0.1719
  511MOL0     H68926   8.359  10.227   0.290 -0.7575 -0.8105 -0.8556
  511MOL0     H68927   8.384  10.069   0.363  2.2873  0.9952  0.7093
  511MOL0     H68928   8.156  10.090   0.388  0.8674  0.6371 -1.5901
  511MOL0     H68929   8.219  10.122   0.545  0.9411 -2.2173 -1.3888
  511MOL0     H68930   8.178  10.354   0.521  0.1504 -0.7037 -0.4561
  511MOL0     H68931   8.148  10.341   0.353  0.2040 -2.0161 -0.2421
  511MOL0     H68932   7.937  10.196   0.402 -0.0316 -0.5575  0.6763
  511MOL0     H68933   7.963  10.239   0.570  1.5550  0.1719  0.3746
  511MOL0     H68934   7.911  10.440   0.346  1.3215  1.5894 -0.1339
  511MOL0     H68935   7.964  10.482   0.506  0.5934 -0.8884 -0.4329
  511MOL0     H68936   7.749  10.588   0.623  1.0844 -2.2742  2.2244
  511MOL0     H68937   7.430  10.444   0.731  1.2263 -0.4650 -0.8296
  511MOL0     H68938   7.503  10.604   0.718 -2.1100  2.0714 -1.4806
  511MOL0     H68939   7.328  10.493   0.495  0.0255  2.1430 -1.6138
  511MOL0     H68940   7.431  10.638   0.503 -0.5019 -0.5299 -0.4740
  511MOL0     H68941   7.287  10.733   0.683  2.3389 -0.1911 -1.8509
  511MOL0     H68942   7.221  10.563   0.707 -1.5434 -1.5235 -0.2903
  511MOL0     H68943   7.136  10.570   0.474 -0.0260  1.1481 -2.1585
  511MOL0     H68944   7.198  10.733   0.459  1.5783  0.2807  2.1761
  511MOL0     H68945   6.975  10.963   0.549  1.1096 -1.1362 -2.0102
  511MOL0     H68946   6.830  11.127   0.530 -1.9350 -0.8425  2.2811
  511MOL0     H68947   6.797  11.131   0.359  3.2085 -2.4245 -0.9559
  511MOL0     H68948   6.659  11.114   0.470 -0.4408  1.0530 -2.4026
  511MOL0     H68949   6.437  10.616   0.093 -0.4819 -0.1136  1.3360
  511MOL0     H68950   6.245  10.620  -0.055  0.9083 -0.0605  1.1944
  511MOL0     H68951   6.149  10.706  -0.264  0.5331 -2.6621  1.2374
  511MOL0     H68952   6.048  10.648  -0.124 -0.7444  0.6120  0.4573
  511MOL0     H68953   5.961  10.847  -0.335 -2.7597  0.0012 -1.6910
  511MOL0     H68954   5.899  10.683  -0.321  0.4177  2.5272 -2.7592
  511MOL0     H68955   5.820  10.919  -0.191 -0.2218  0.0737 -0.9784
  511MOL0     H68956   5.842  10.786  -0.077  1.6605 -0.2647 -0.1247
  511MOL0     H68957   5.702  10.646  -0.243 -1.9600 -1.3197  1.2834
  511MOL0     H68958   5.605  10.779  -0.174 -0.8662 -3.1678  0.4202
  511MOL0     H68959   5.709  10.749  -0.449 -0.9271 -1.0655  1.0666
  511MOL0     H68960   5.678  10.916  -0.395 -2.0971  0.0106  0.5805
  511MOL0     H68961   5.465  10.683  -0.418 -0.3611  0.9032 -0.8834
  511MOL0     H68962   5.414  10.842  -0.366  0.1624  0.0683 -1.1207
  511MOL0     H68963   5.533  10.782  -0.640 -1.7346  0.5039 -1.3976
  511MOL0     H68964   5.484  10.933  -0.570 -1.0375 -1.0492 -1.8577
  511MOL0     H68965   5.296  10.855  -0.704  2.3654  0.8304  0.0953
  511MOL0     H68966   5.254  10.811  -0.545 -0.7024 -1.4280 -0.7236
  511MOL0     H68967   6.236  11.056  -0.029  1.4728  1.1881  1.0629
  511MOL0     H68968   6.427  11.047   0.098  3.3051 -0.4532 -3.5439
  511MOL0     H68969   6.701  10.665   0.290  2.3650 -0.1888 -1.0445
  511MOL0     H68970   6.887  10.563   0.439  2.2795  0.6231  0.6877
  511MOL0     H68971   8.728   9.845   0.495  0.6310  0.8293 -0.0073
  511MOL0     H68972   8.856   9.656   0.597 -1.4320 -0.8649  0.2281
  511MOL0     H68973   8.763   9.285   0.906 -0.5522 -1.3527  2.5843
  511MOL0     H68974   8.880   9.095   1.001  1.1283  0.0353 -0.9328
  511MOL0     H68975   9.167   9.229   1.290 -0.1653  1.3690  2.7411
  511MOL0     H68976   9.014   9.138   1.315  0.3012 -0.8297 -0.5556
  511MOL0     H68977   9.200   8.918   1.318 -2.1232 -0.4034 -0.8842
  511MOL0     H68978   9.151   9.013   1.460  1.8249 -0.7806  1.1171
  511MOL0     H68979   9.385   8.997   1.452  2.0595  0.6420 -0.1685
  511MOL0     H68980   9.345   9.165   1.413 -3.1565 -0.5708  1.4156
  511MOL0     H68981   9.395   9.098   1.169 -0.4809  1.6208  1.6567
  511MOL0     H68982   9.432   8.933   1.230 -2.6542  0.7956 -0.7303
  511MOL0     H68983   9.764   9.176   1.345  1.1959 -2.3457 -2.7386
  511MOL0     H68984   9.190   9.369   1.132  0.9704  0.9191 -0.9291
  511MOL0     H68985   9.083   9.544   1.028 -3.3664  1.8876  0.6549
  512MOL0     O68986   6.271   6.276   2.668 -0.1788 -1.1055  0.2133
  512MOL0     C68987   6.353   6.290   2.759 -0.5296 -0.1988  0.3200
  512MOL0     O68988   6.313   6.308   2.891  0.0573  0.1570 -0.2398
  512MOL0     C68989   6.180   6.333   2.922 -0.0408 -0.4197 -0.3826
  512MOL0     C68990   6.120   6.253   3.014 -0.3522 -0.1161  0.8344
  512MOL0     C68991   5.994   6.291   3.061 -0.3160 -0.6195  0.2631
  512MOL0     C68992   5.930   6.406   3.020 -0.3688  0.5079  0.1790
  512MOL0     O68993   5.803   6.427   3.066  0.0421 -0.3248 -0.9073
  512MOL0     C68994   5.692   6.482   2.994  0.3201 -1.3456  0.6156
  512MOL0     C68995   5.666   6.462   2.839  0.5888  0.4588  0.7270
  512MOL0     C68996   5.600   6.323   2.817  1.5177  0.1849 -0.3247
  512MOL0     C68997   5.460   6.299   2.876  0.2331 -0.1425 -0.3435
  512MOL0     C68998   5.412   6.165   2.837  0.0258  0.4430 -0.2471
  512MOL0     C68999   5.285   6.117   2.910 -0.7751 -0.1300  0.2948
  512MOL0     C69000   5.232   5.992   2.838  0.3293 -0.8253 -0.6438
  512MOL0     C69001   5.083   5.953   2.896 -0.5004 -0.1748  0.9463
  512MOL0     N69002   5.102   5.872   3.007 -0.8785  0.3202 -0.3021
  512MOL0     C69003   5.106   5.732   3.015 -1.1655 -0.7778 -0.1382
  512MOL0     C69004   5.091   5.706   3.150 -0.0086  0.7007 -0.3382
  512MOL0     C69005   5.105   5.570   3.211 -0.2921  0.3673  0.7946
  512MOL0     C69006   5.249   5.505   3.194  0.2243 -0.4593 -0.2645
  512MOL0     C69007   5.361   5.584   3.268 -1.0755 -0.1622 -0.1109
  512MOL0     C69008   5.482   5.489   3.299  0.1951  0.1380  0.0844
  512MOL0     O69009   5.588   5.565   3.370  0.4566  0.2267  0.3255
  512MOL0     C69010   5.559   5.601   3.496  0.1288 -0.1703 -0.2833
  512MOL0     C69011   5.653   5.684   3.555  0.4473 -0.6390 -0.0670
  512MOL0     C69012   5.630   5.738   3.681  0.1347 -0.5415 -0.3093
  512MOL0     C69013   5.737   5.842   3.737 -0.2021  0.9790  0.0770
  512MOL0     C69014   5.519   5.701   3.766 -0.5897 -0.0446 -0.4348
  512MOL0     C69015   5.489   5.758   3.907  0.0334 -0.6638 -0.0341
  512MOL0     O69016   5.361   5.742   3.952  0.0447 -0.0052 -0.0545
  512MOL0     C69017   5.323   5.810   4.060 -0.0679  0.3651 -0.0120
  512MOL0     C69018   5.214   5.760   4.144 -0.2193 -0.5732  0.2598
  512MOL0     C69019   5.171   5.818   4.263  0.8459 -1.4931 -0.2446
  512MOL0     C69020   5.220   5.947   4.297  0.0749 -0.5033 -0.0850
  512MOL0     O69021   5.169   6.004   4.411  0.5793  1.0375 -0.0693
  512MOL0     C69022   5.203   6.138   4.455  0.4907 -0.0808  0.6893
  512MOL0     C69023   5.342   6.140   4.523 -0.9765 -0.1140 -0.2161
  512MOL0     C69024   5.412   6.286   4.499  0.4724  0.1118  0.6695
  512MOL0     C69025   5.550   6.282   4.569  0.0018 -0.8075 -0.4744
  512MOL0     C69026   5.585   6.415   4.652  0.1032 -0.3268  0.7282
  512MOL0     C69027   5.655   6.523   4.565 -0.1114  0.5848 -0.1553
  512MOL0     C69028   5.797   6.489   4.524  0.3119  1.2936  0.5877
  512MOL0     C69029   5.839   6.585   4.414  0.2874  0.6400  0.4954
  512MOL0    Cl69030   5.854   6.742   4.475 -0.0228  0.0611  0.3186
  512MOL0     C69031   5.319   6.001   4.212  0.0840 -0.4239  0.0393
  512MOL0     C69032   5.364   5.935   4.106 -0.6028  0.0586  0.7401
  512MOL0     O69033   5.577   5.808   3.968  0.0841 -0.6265 -0.1219
  512MOL0     C69034   5.436   5.602   3.715  1.7919  0.5300 -0.0292
  512MOL0     C69035   5.458   5.552   3.586 -0.3317  0.2670  0.4846
  512MOL0     N69036   5.104   5.825   3.223 -0.5727 -0.7395 -0.0319
  512MOL0     N69037   5.098   5.920   3.134  0.1126  0.5861 -0.1793
  512MOL0     C69038   5.990   6.487   2.927 -0.9478 -0.1727  0.2160
  512MOL0     C69039   6.117   6.452   2.872  1.0004 -0.0767 -0.8249
  512MOL0     C69040   6.491   6.269   2.729  0.4492 -0.1903 -0.2318
  512MOL0     C69041   6.596   6.282   2.826  0.3821 -0.5199  0.8117
  512MOL0     C69042   6.732   6.261   2.794  0.4087  0.9772  0.3595
  512MOL0     C69043   6.768   6.215   2.664 -0.2886  0.0490  0.2344
  512MOL0     O69044   6.899   6.208   2.623 -0.2228 -0.0975  0.2926
  512MOL0     C69045   7.011   6.214   2.715  0.7703 -0.4800  0.3265
  512MOL0     C69046   7.135   6.250   2.639 -0.6032 -0.5702  0.1564
  512MOL0     C69047   7.170   6.131   2.550 -0.3028 -0.3124  0.3533
  512MOL0     C69048   7.280   6.169   2.449  0.2188  0.0428 -0.3365
  512MOL0     C69049   7.409   6.183   2.518  0.0039 -0.2163 -0.1475
  512MOL0     C69050   7.525   6.194   2.554 -0.2724  0.0186 -0.5754
  512MOL0     C69051   6.664   6.205   2.576 -0.8893  0.3823 -0.2304
  512MOL0     C69052   6.527   6.227   2.599  0.4544 -0.3246 -0.6164
  512MOL0     H69053   6.170   6.170   3.061 -0.8950  0.5342  2.6264
  512MOL0     H69054   5.937   6.229   3.129  0.2137 -2.1454 -0.6557
  512MOL0     H69055   5.602   6.468   3.055 -0.9869 -0.2067 -0.9574
  512MOL0     H69056   5.713   6.589   3.003 -0.3720 -1.0105 -1.3082
  512MOL0     H69057   5.587   6.535   2.821 -1.7522 -2.2349 -0.7908
  512MOL0     H69058   5.750   6.487   2.773  0.3864 -0.1284  0.2337
  512MOL0     H69059   5.607   6.308   2.709  0.1199  0.8866 -0.5409
  512MOL0     H69060   5.664   6.249   2.865  0.9130  2.2342  4.1229
  512MOL0     H69061   5.463   6.305   2.985  0.9299  1.3508 -0.4265
  512MOL0     H69062   5.399   6.384   2.844 -0.0453  2.0912  4.9549
  512MOL0     H69063   5.387   6.169   2.731 -2.7820 -1.1154  0.2433
  512MOL0     H69064   5.491   6.089   2.843 -2.1614 -1.9013  1.0308
  512MOL0     H69065   5.302   6.105   3.018  0.2006  1.3742  0.3444
  512MOL0     H69066   5.210   6.196   2.903  0.9670  1.4271 -2.6069
  512MOL0     H69067   5.238   6.005   2.730  2.0440  0.1627 -0.4620
  512MOL0     H69068   5.298   5.907   2.858 -0.7026 -0.9155  3.4200
  512MOL0     H69069   5.017   5.901   2.826 -3.7100  3.0644  1.2596
  512MOL0     H69070   5.032   6.042   2.934  2.3783  1.8557  0.3883
  512MOL0     H69071   5.090   5.661   2.934  0.7314  0.0716 -1.3392
  512MOL0     H69072   5.079   5.579   3.317  3.3112 -0.9933  1.9447
  512MOL0     H69073   5.040   5.501   3.156 -1.9925  0.8481  2.1188
  512MOL0     H69074   5.278   5.497   3.089 -0.1272  3.6759 -0.8362
  512MOL0     H69075   5.239   5.405   3.237  2.1761 -0.7218 -0.3458
  512MOL0     H69076   5.330   5.642   3.355 -1.4194  1.0944 -1.0513
  512MOL0     H69077   5.393   5.666   3.203 -2.3105 -1.2010 -2.1298
  512MOL0     H69078   5.519   5.440   3.209  0.4307 -0.4435  0.4947
  512MOL0     H69079   5.449   5.414   3.372 -1.3504  0.3827 -0.3348
  512MOL0     H69080   5.743   5.714   3.501 -0.7314  1.6262 -0.9064
  512MOL0     H69081   5.804   5.798   3.812  0.3503  0.7076 -0.5574
  512MOL0     H69082   5.793   5.893   3.658 -0.8630  2.0708  0.2987
  512MOL0     H69083   5.691   5.929   3.783  0.9725  1.6112  0.0974
  512MOL0     H69084   5.161   5.674   4.106 -1.8838  0.4441  0.1677
  512MOL0     H69085   5.092   5.774   4.323  1.5344  1.6727  3.3386
  512MOL0     H69086   5.189   6.206   4.371 -0.5993 -3.1009 -1.7636
  512MOL0     H69087   5.132   6.170   4.532  1.0671 -0.5091  1.4165
  512MOL0     H69088   5.332   6.113   4.628  0.2282  0.4601  0.0696
  512MOL0     H69089   5.411   6.075   4.467  2.8896  2.0564  1.5705
  512MOL0     H69090   5.344   6.363   4.536 -1.6758 -1.0562 -0.6161
  512MOL0     H69091   5.415   6.286   4.389  0.9014  0.9953  0.6679
  512MOL0     H69092   5.569   6.196   4.634  1.2531 -0.4085 -0.2922
  512MOL0     H69093   5.623   6.271   4.488 -1.8891 -1.0785 -2.2314
  512MOL0     H69094   5.663   6.389   4.725 -0.3152  2.0211  2.1018
  512MOL0     H69095   5.492   6.457   4.692 -0.1921  1.9075 -2.0458
  512MOL0     H69096   5.592   6.550   4.480  1.1486  0.8702 -1.0232
  512MOL0     H69097   5.671   6.611   4.629  0.4011  1.6323 -1.6731
  512MOL0     H69098   5.811   6.388   4.483  1.7750  2.1018 -1.0479
  512MOL0     H69099   5.864   6.498   4.610  3.3278  0.8746 -1.5430
  512MOL0     H69100   5.766   6.591   4.333 -0.6892  1.5529  1.4163
  512MOL0     H69101   5.933   6.547   4.372  0.5444 -1.1615  2.4974
  512MOL0     H69102   5.354   6.101   4.234 -0.1849 -0.3887  0.3017
  512MOL0     H69103   5.412   5.990   4.026 -1.2709  0.7443  0.7970
  512MOL0     H69104   5.351   5.574   3.777  1.1398  0.1396 -1.0719
  512MOL0     H69105   5.380   5.480   3.561 -1.4323  1.5314  0.1476
  512MOL0     H69106   5.936   6.577   2.903 -1.7536 -0.7980 -0.3349
  512MOL0     H69107   6.169   6.522   2.807 -1.5442  0.9513 -1.8796
  512MOL0     H69108   6.580   6.295   2.933 -0.8624 -0.7195  0.6698
  512MOL0     H69109   6.796   6.248   2.881  1.8430 -0.8818 -0.8933
  512MOL0     H69110   6.996   6.279   2.802  1.6371 -1.0749  0.9411
  512MOL0     H69111   7.030   6.114   2.757  2.2567 -0.1181  0.5849
  512MOL0     H69112   7.214   6.265   2.713 -1.5132 -1.4899  1.3583
  512MOL0     H69113   7.117   6.345   2.588 -0.3608 -0.6278 -0.0374
  512MOL0     H69114   7.083   6.100   2.493 -1.3729 -1.7891  2.6365
  512MOL0     H69115   7.208   6.040   2.598  2.3015 -1.3792 -3.2814
  512MOL0     H69116   7.245   6.266   2.414 -3.2352  0.0673  2.6130
  512MOL0     H69117   7.297   6.101   2.364  0.6698  1.2323 -1.2366
  512MOL0     H69118   7.627   6.203   2.587 -0.5041  0.3041  0.0693
  512MOL0     H69119   6.690   6.164   2.478 -1.9531 -1.4159  0.1873
  512MOL0     H69120   6.453   6.225   2.520  1.9218 -2.2736 -2.0666
  513MOL0     O69121   3.970   6.119   2.963 -0.4086 -0.8810 -0.7546
  513MOL0     C69122   4.021   6.007   3.000 -0.5758  0.4881  0.1355
  513MOL0     O69123   3.946   5.892   3.010  0.3526 -0.1584  0.5917
  513MOL0     C69124   3.814   5.916   3.028  0.3714 -0.6193 -0.2748
  513MOL0     C69125   3.720   5.857   2.934  0.5817  0.1211 -0.6889
  513MOL0     C69126   3.583   5.861   2.947  0.4467 -0.5493 -0.5891
  513MOL0     C69127   3.526   5.934   3.049 -0.5605  0.0400 -0.3666
  513MOL0     O69128   3.389   5.949   3.073  0.7929  0.5612  0.0744
  513MOL0     C69129   3.311   5.863   2.993  0.1106  0.1377  0.2091
  513MOL0     C69130   3.168   5.886   3.037  0.8481 -0.2150 -0.2026
  513MOL0     C69131   3.073   5.803   2.950 -0.3846  0.1675  0.3320
  513MOL0     C69132   3.067   5.657   2.986 -0.2499  0.4350 -0.1418
  513MOL0     C69133   3.000   5.566   2.883 -0.9360 -0.6551  0.2475
  513MOL0     C69134   3.006   5.416   2.917  0.7920 -0.2969 -0.4814
  513MOL0     C69135   2.898   5.337   2.841  0.5724  0.8225  0.9254
  513MOL0     C69136   2.901   5.181   2.879 -0.2981 -0.0199  0.9227
  513MOL0     N69137   2.798   5.099   2.808 -0.4038 -1.1051 -0.1503
  513MOL0     C69138   2.662   5.087   2.837 -0.0290  1.0266  0.2857
  513MOL0     C69139   2.609   5.031   2.722  0.2283  0.4508 -0.2479
  513MOL0     C69140   2.467   5.017   2.696  0.6600 -0.0344 -0.3560
  513MOL0     C69141   2.424   4.873   2.684 -1.3119  0.4840  0.8672
  513MOL0     C69142   2.282   4.849   2.689  0.6016 -0.3831 -0.4237
  513MOL0     C69143   2.203   4.889   2.560  0.1763 -1.3120  0.0554
  513MOL0     O69144   2.259   4.820   2.446 -0.5804  0.5823 -0.4236
  513MOL0     C69145   2.175   4.725   2.404 -0.1665  0.8294  0.2816
  513MOL0     C69146   2.206   4.592   2.442 -0.0662  0.1761  0.0167
  513MOL0     C69147   2.163   4.473   2.380  0.5181  0.0103  0.3979
  513MOL0     C69148   2.208   4.342   2.437 -0.0292 -0.0648 -0.0638
  513MOL0     C69149   2.059   4.490   2.282 -0.0248 -0.0138  0.0063
  513MOL0     C69150   2.010   4.378   2.200  0.6188  0.4938  0.2199
  513MOL0     O69151   1.974   4.403   2.062 -0.0846 -0.3039  0.1467
  513MOL0     C69152   1.908   4.303   1.992  0.1344  0.2162 -0.3026
  513MOL0     C69153   1.768   4.283   1.998  0.4265  0.2043  0.0949
  513MOL0     C69154   1.699   4.163   1.969 -0.0224  0.6474 -0.3970
  513MOL0     C69155   1.781   4.054   1.910  0.0926  0.2172  0.3982
  513MOL0     O69156   1.730   3.932   1.877  0.0525 -0.3684 -0.8999
  513MOL0     C69157   1.590   3.923   1.831 -1.0669  0.2150 -0.5267
  513MOL0     C69158   1.558   3.792   1.772 -0.3452  0.1765  0.2572
  513MOL0     C69159   1.406   3.774   1.789 -0.5387  0.0684 -0.2396
  513MOL0     C69160   1.360   3.659   1.709  0.5338  0.4947  0.1149
  513MOL0     C69161   1.218   3.589   1.735  0.9924  0.1804  0.3445
  513MOL0     C69162   1.205   3.471   1.646  0.6952 -1.1835 -0.1454
  513MOL0     C69163   1.056   3.429   1.647  0.1154 -0.4561  0.0684
  513MOL0     C69164   1.032   3.284   1.610 -0.5804 -0.7035 -0.1334
  513MOL0    Cl69165   0.867   3.237   1.616  0.7140 -0.1940  0.0714
  513MOL0     C69166   1.914   4.081   1.893  0.2918  0.2932 -0.2349
  513MOL0     C69167   1.984   4.200   1.934 -0.0264  0.4467  0.5422
  513MOL0     O69168   1.982   4.275   2.254  0.9541 -0.2409  0.8040
  513MOL0     C69169   2.017   4.621   2.255  0.2794  0.8012 -0.3447
  513MOL0     C69170   2.075   4.742   2.315  0.0195 -0.3756 -0.0287
  513MOL0     N69171   2.711   5.002   2.634 -0.1989 -0.0426 -0.4453
  513MOL0     N69172   2.817   5.040   2.687  0.2476 -0.2718 -0.2020
  513MOL0     C69173   3.614   6.002   3.139  0.0496  0.3491  0.6743
  513MOL0     C69174   3.755   5.991   3.125 -0.2806  0.0311  0.4520
  513MOL0     C69175   4.166   5.992   3.019 -0.5167  0.9592  0.0740
  513MOL0     C69176   4.229   5.873   3.074 -0.1761 -1.4287  0.6185
  513MOL0     C69177   4.370   5.866   3.075  0.7699 -0.0030  0.7821
  513MOL0     C69178   4.453   5.969   3.037  0.1805  0.3299  0.1313
  513MOL0     O69179   4.590   5.958   3.034  0.1406  0.4579  0.0094
  513MOL0     C69180   4.680   6.043   2.945  0.5763  0.2948 -1.0556
  513MOL0     C69181   4.758   6.123   3.043 -0.3151 -0.1261 -0.2778
  513MOL0     C69182   4.831   6.236   2.963  0.4164 -0.4320  0.1958
  513MOL0     C69183   4.933   6.312   3.047  0.5211  0.1984  0.9314
  513MOL0     C69184   4.981   6.434   2.976 -0.4207 -0.5432 -0.5628
  513MOL0     C69185   5.037   6.532   2.925 -0.8346 -0.2640  0.1592
  513MOL0     C69186   4.394   6.086   3.000 -0.9296 -0.1457  1.2522
  513MOL0     C69187   4.258   6.098   2.982  0.5578 -0.6370  0.6095
  513MOL0     H69188   3.744   5.778   2.863 -1.9945  0.3905 -2.0063
  513MOL0     H69189   3.527   5.822   2.863 -0.6350  0.1645 -0.2171
  513MOL0     H69190   3.321   5.873   2.884 -2.8217 -1.3678 -0.3040
  513MOL0     H69191   3.343   5.761   3.014 -1.9662  0.0710  3.8602
  513MOL0     H69192   3.148   5.870   3.143  0.2164  3.9974  0.4540
  513MOL0     H69193   3.141   5.992   3.030 -0.8756 -0.4398  1.8708
  513MOL0     H69194   2.970   5.838   2.960  0.8076  4.2183  0.4558
  513MOL0     H69195   3.101   5.804   2.844  1.7510 -4.3461  0.6510
  513MOL0     H69196   3.168   5.618   3.001  0.6358  1.9996 -1.6511
  513MOL0     H69197   3.021   5.645   3.085  1.4810  2.7301  1.0493
  513MOL0     H69198   2.893   5.582   2.865 -0.4695  1.0050 -1.2972
  513MOL0     H69199   3.047   5.596   2.789 -0.3097  0.4295  0.8931
  513MOL0     H69200   3.107   5.378   2.894  0.0573 -0.9476 -2.9451
  513MOL0     H69201   2.987   5.400   3.024  0.3690  1.3907 -0.2721
  513MOL0     H69202   2.800   5.379   2.863  0.1422 -0.0911  0.7900
  513MOL0     H69203   2.917   5.342   2.733  0.5171  2.1482  0.9598
  513MOL0     H69204   2.903   5.166   2.987  1.2448  0.7102  1.0202
  513MOL0     H69205   2.998   5.140   2.849  0.3471  2.0014  0.0887
  513MOL0     H69206   2.602   5.131   2.917 -0.0684  2.2019 -0.3701
  513MOL0     H69207   2.416   5.067   2.778 -0.6806  2.0663 -2.3608
  513MOL0     H69208   2.439   5.069   2.604  0.9018  0.5523 -0.1035
  513MOL0     H69209   2.481   4.814   2.757 -1.0048 -1.4141 -0.8271
  513MOL0     H69210   2.452   4.838   2.584 -0.6371 -0.6364  1.4306
  513MOL0     H69211   2.231   4.875   2.782 -1.5334 -3.6295 -0.5194
  513MOL0     H69212   2.263   4.742   2.682 -1.2514 -0.0283 -1.7973
  513MOL0     H69213   2.222   4.994   2.538  0.2973 -1.6550 -1.5900
  513MOL0     H69214   2.094   4.882   2.570  0.1483 -1.2134 -0.1798
  513MOL0     H69215   2.284   4.572   2.515 -2.3544 -2.5221  1.9785
  513MOL0     H69216   2.115   4.288   2.460  0.6014 -1.6092 -1.0515
  513MOL0     H69217   2.267   4.278   2.372  1.0538  0.7098  0.1230
  513MOL0     H69218   2.262   4.335   2.532  1.2760 -0.3262 -0.7989
  513MOL0     H69219   1.710   4.368   2.032  0.6421  0.7360 -0.8496
  513MOL0     H69220   1.591   4.154   1.974  0.0442  0.5013  1.5213
  513MOL0     H69221   1.526   3.934   1.920 -0.2258  0.8557  0.0089
  513MOL0     H69222   1.576   4.010   1.765  1.3087  1.4408  0.4656
  513MOL0     H69223   1.587   3.776   1.668  0.6450 -2.3847  0.8642
  513MOL0     H69224   1.596   3.715   1.840 -1.7278  0.2546  1.1609
  513MOL0     H69225   1.355   3.862   1.750 -1.4262 -0.4573 -0.2837
  513MOL0     H69226   1.386   3.749   1.894 -3.1155 -2.7081 -1.2246
  513MOL0     H69227   1.372   3.673   1.601 -1.5630  0.3034 -0.1806
  513MOL0     H69228   1.431   3.578   1.726 -0.5157 -0.5301 -0.2242
  513MOL0     H69229   1.150   3.673   1.716  1.8290  0.8940  0.4059
  513MOL0     H69230   1.208   3.554   1.837  0.8338 -5.1767 -1.2365
  513MOL0     H69231   1.212   3.511   1.544 -1.3431  2.5327  1.0045
  513MOL0     H69232   1.280   3.393   1.663  1.3297 -0.4666  0.3973
  513MOL0     H69233   0.993   3.494   1.586 -0.4807 -0.3529  0.7764
  513MOL0     H69234   1.017   3.433   1.749  2.1080  0.2536  0.8443
  513MOL0     H69235   1.100   3.215   1.660 -0.3997 -2.7805 -3.0196
  513MOL0     H69236   1.056   3.273   1.504  3.1879  0.5272  0.4449
  513MOL0     H69237   1.980   4.003   1.856 -1.1474 -2.1280  1.9427
  513MOL0     H69238   2.092   4.201   1.924 -0.1509  1.8996 -1.2735
  513MOL0     H69239   1.939   4.629   2.180 -0.9243 -1.2805  0.5924
  513MOL0     H69240   2.066   4.847   2.289  1.4773 -0.3714 -0.6271
  513MOL0     H69241   3.581   6.063   3.223 -0.3074  2.3841 -0.8858
  513MOL0     H69242   3.807   6.039   3.207  0.2606  0.5890 -0.2082
  513MOL0     H69243   4.168   5.785   3.095 -0.8282 -0.8862  1.0147
  513MOL0     H69244   4.410   5.767   3.095 -2.5060 -1.3753  1.2400
  513MOL0     H69245   4.756   5.981   2.896  1.0835  2.0545 -2.5587
  513MOL0     H69246   4.631   6.104   2.869 -2.2526 -2.3336 -1.5274
  513MOL0     H69247   4.822   6.054   3.099  0.7237  2.2123  1.6153
  513MOL0     H69248   4.683   6.161   3.114 -0.8705  1.2952 -1.5594
  513MOL0     H69249   4.748   6.300   2.930 -0.3545  0.7662  3.9027
  513MOL0     H69250   4.884   6.193   2.878  3.9752  0.0572  2.0114
  513MOL0     H69251   5.022   6.251   3.067  0.8822  1.1683  2.3769
  513MOL0     H69252   4.893   6.338   3.145 -1.6484 -1.0338  0.4274
  513MOL0     H69253   5.092   6.610   2.876 -0.4629 -1.0789 -0.7517
  513MOL0     H69254   4.453   6.173   2.975 -3.2491  1.1188 -0.1606
  513MOL0     H69255   4.215   6.188   2.937  0.8396 -1.5112 -1.5374
  514MOL0     O69256   7.319   2.367   9.452 -0.6429 -1.0590  0.1768
  514MOL0     C69257   7.379   2.319   9.546 -0.3800 -0.4801  0.1379
  514MOL0     O69258   7.318   2.276   9.667 -0.1760 -0.4646 -0.5345
  514MOL0     C69259   7.181   2.288   9.688 -0.0749  0.0844 -0.0200
  514MOL0     C69260   7.140   2.324   9.814  0.1023 -0.0522  0.0058
  514MOL0     C69261   7.007   2.327   9.845 -0.9329  0.6692 -0.3926
  514MOL0     C69262   6.918   2.282   9.752  0.3044  0.2467 -0.2105
  514MOL0     O69263   6.779   2.269   9.782  0.3245 -0.4386  0.0199
  514MOL0     C69264   6.720   2.378   9.858  0.1745 -0.0924  0.3080
  514MOL0     C69265   6.569   2.349   9.892 -0.2240 -0.0503 -0.1101
  514MOL0     C69266   6.501   2.455   9.970 -0.1462 -0.6980  0.6122
  514MOL0     C69267   6.359   2.407  10.016  0.0100  0.9344 -0.0848
  514MOL0     C69268   6.245   2.415   9.907 -0.4192  0.2948  0.0389
  514MOL0     C69269   6.096   2.430   9.949 -0.5662 -0.2107 -0.8161
  514MOL0     C69270   6.063   2.306  10.045  0.4635 -0.8878  0.4086
  514MOL0     C69271   5.918   2.316  10.096 -0.1770 -0.0756 -0.6093
  514MOL0     N69272   5.814   2.327   9.994 -0.5926 -0.7413  0.7293
  514MOL0     C69273   5.713   2.235   9.967  0.8866  0.3412 -0.0991
  514MOL0     C69274   5.655   2.289   9.860 -0.1043  0.9069 -0.1128
  514MOL0     C69275   5.530   2.244   9.799  0.2426 -0.4216  0.8814
  514MOL0     C69276   5.416   2.343   9.813 -0.1073 -0.2679 -0.1344
  514MOL0     C69277   5.441   2.467   9.730  0.2260 -0.4425  0.4836
  514MOL0     C69278   5.310   2.532   9.682  0.8422  0.2220 -0.5701
  514MOL0     O69279   5.230   2.563   9.801 -0.2029 -0.3108  0.0108
  514MOL0     C69280   5.103   2.614   9.780 -0.3860  1.2213 -0.6988
  514MOL0     C69281   5.021   2.605   9.888  0.3018  0.4080  0.0974
  514MOL0     C69282   4.883   2.623   9.867  0.2208  0.1385 -0.2888
  514MOL0     C69283   4.787   2.605   9.988 -0.1273  0.2678  0.3915
  514MOL0     C69284   4.838   2.677   9.745 -1.2122  0.4970 -1.0205
  514MOL0     C69285   4.694   2.692   9.718  1.0130 -0.8244 -0.7131
  514MOL0     O69286   4.607   2.581   9.697  0.4232 -0.0842 -0.8434
  514MOL0     C69287   4.473   2.598   9.660  0.7075  0.5804 -0.4187
  514MOL0     C69288   4.389   2.486   9.687 -0.1672  0.6005 -0.4471
  514MOL0     C69289   4.251   2.484   9.651 -0.0623 -0.4946  0.4195
  514MOL0     C69290   4.199   2.590   9.580  0.2145  0.3100  0.5634
  514MOL0     O69291   4.067   2.583   9.535 -0.2493 -0.3608  0.6883
  514MOL0     C69292   3.963   2.597   9.635  0.7895 -1.4251  0.1291
  514MOL0     C69293   3.821   2.609   9.574 -0.0643 -0.5872 -0.1304
  514MOL0     C69294   3.813   2.739   9.491  0.4734  0.7597 -0.6262
  514MOL0     C69295   3.686   2.767   9.404 -0.4273  0.0173  0.3606
  514MOL0     C69296   3.696   2.888   9.320  0.2615  0.0340  0.7147
  514MOL0     C69297   3.591   2.901   9.220  0.1550  0.1467 -0.4473
  514MOL0     C69298   3.589   3.048   9.161 -1.0517  0.0786  0.7632
  514MOL0     C69299   3.502   3.063   9.038 -0.1628 -0.8615  0.3683
  514MOL0    Cl69300   3.336   3.043   9.062  0.0710  0.2106  0.0808
  514MOL0     C69301   4.280   2.695   9.544 -0.3171  0.1764  0.2800
  514MOL0     C69302   4.420   2.695   9.579 -0.5058 -0.1664 -0.3756
  514MOL0     O69303   4.667   2.812   9.689 -0.2280  0.1862 -0.7444
  514MOL0     C69304   4.930   2.698   9.639  0.6191  0.0549  0.2006
  514MOL0     C69305   5.059   2.666   9.649 -0.4522  0.1412 -0.8521
  514MOL0     N69306   5.723   2.401   9.821  0.3272 -1.0363 -0.4817
  514MOL0     N69307   5.811   2.425   9.903 -0.6064 -0.0116  0.0708
  514MOL0     C69308   6.960   2.243   9.621 -0.3959 -0.0458  0.3299
  514MOL0     C69309   7.096   2.244   9.591 -0.8798  0.7056  0.0140
  514MOL0     C69310   7.528   2.321   9.538 -0.3082  0.7500 -0.1280
  514MOL0     C69311   7.596   2.413   9.454 -1.0698  0.6184  0.4454
  514MOL0     C69312   7.737   2.428   9.436 -0.7965  0.2703  0.0594
  514MOL0     C69313   7.820   2.343   9.520 -0.0257 -0.1306  0.1235
  514MOL0     O69314   7.956   2.329   9.522 -0.4651  0.4860  0.1509
  514MOL0     C69315   8.033   2.428   9.444  0.5951  0.1806  0.2447
  514MOL0     C69316   8.152   2.480   9.527  0.1455 -0.2689 -0.0263
  514MOL0     C69317   8.262   2.378   9.566  0.7102 -0.4773  0.3144
  514MOL0     C69318   8.245   2.327   9.706  0.6441  0.6476 -0.4108
  514MOL0     C69319   8.357   2.239   9.742  0.0986  0.1048 -0.5236
  514MOL0     C69320   8.441   2.157   9.775  1.8258 -0.1776 -0.7974
  514MOL0     C69321   7.752   2.270   9.615  0.6983 -0.2799  0.2977
  514MOL0     C69322   7.613   2.264   9.634 -0.2342 -0.0623  0.1167
  514MOL0     H69323   7.221   2.345   9.882 -0.1928  1.0132  0.0379
  514MOL0     H69324   6.986   2.371   9.942  3.5193  0.7408  0.7551
  514MOL0     H69325   6.764   2.388   9.958  2.4626  0.1987 -0.6552
  514MOL0     H69326   6.735   2.471   9.803 -1.7981 -0.7075 -1.3900
  514MOL0     H69327   6.505   2.320   9.808  1.0776 -1.8576 -0.5436
  514MOL0     H69328   6.571   2.262   9.957  0.6488 -1.1377 -1.5289
  514MOL0     H69329   6.552   2.471  10.066  0.0818  1.7034  0.1554
  514MOL0     H69330   6.492   2.553   9.922 -1.0307  0.2663  2.6281
  514MOL0     H69331   6.374   2.311  10.066  1.7082  2.8054  3.3217
  514MOL0     H69332   6.327   2.465  10.102  2.2258 -0.7671  2.0305
  514MOL0     H69333   6.270   2.506   9.853 -0.5931 -1.3813 -3.0873
  514MOL0     H69334   6.246   2.337   9.830  1.5929 -0.0208  0.3238
  514MOL0     H69335   6.082   2.527   9.997 -1.4838  0.4969 -2.4348
  514MOL0     H69336   6.042   2.416   9.855  0.2683 -1.4223 -1.1418
  514MOL0     H69337   6.090   2.212   9.995 -2.1125 -1.1042 -0.7395
  514MOL0     H69338   6.124   2.310  10.136 -1.6032  2.0361  1.7996
  514MOL0     H69339   5.911   2.389  10.177 -0.9559  0.8400 -1.4837
  514MOL0     H69340   5.905   2.223  10.153 -1.6966  1.6314  2.0792
  514MOL0     H69341   5.668   2.151  10.019  0.4082  2.0778  2.4931
  514MOL0     H69342   5.545   2.232   9.691  2.1577 -1.3473  1.2054
  514MOL0     H69343   5.489   2.156   9.849 -2.1550  0.0091 -0.1512
  514MOL0     H69344   5.393   2.375   9.915 -1.9505  2.0258 -1.1852
  514MOL0     H69345   5.319   2.297   9.789 -0.5471 -0.3202  1.6412
  514MOL0     H69346   5.502   2.432   9.647  0.5722 -2.4358  1.5287
  514MOL0     H69347   5.503   2.540   9.784 -0.0740 -0.8626  1.4127
  514MOL0     H69348   5.262   2.455   9.622  2.4740 -1.1433 -0.2117
  514MOL0     H69349   5.325   2.614   9.612 -3.1459 -1.3973 -3.7410
  514MOL0     H69350   5.071   2.577   9.981 -1.1592  2.5352  1.6157
  514MOL0     H69351   4.846   2.578  10.076 -2.3657  0.1921  1.9487
  514MOL0     H69352   4.737   2.701  10.005  0.7892  0.6969  0.7376
  514MOL0     H69353   4.731   2.512   9.971  1.8611 -1.0197  0.5842
  514MOL0     H69354   4.419   2.400   9.745  0.9272  2.7057  2.3213
  514MOL0     H69355   4.177   2.407   9.673 -1.9835  1.4736  1.2646
  514MOL0     H69356   3.957   2.504   9.692  0.7095 -1.9639 -0.7390
  514MOL0     H69357   3.979   2.682   9.703 -0.7392 -1.8540  1.0826
  514MOL0     H69358   3.786   2.538   9.498 -1.3497  1.3092 -1.4117
  514MOL0     H69359   3.746   2.612   9.653 -0.3573 -0.9985 -0.3884
  514MOL0     H69360   3.899   2.744   9.423 -0.8059 -0.9858 -2.4776
  514MOL0     H69361   3.824   2.815   9.570 -2.5320 -3.0289  4.0412
  514MOL0     H69362   3.672   2.682   9.336 -0.4618  0.2668  0.0567
  514MOL0     H69363   3.602   2.787   9.471 -0.2952  2.5572 -0.1369
  514MOL0     H69364   3.800   2.897   9.287  0.3894  1.7850  1.4715
  514MOL0     H69365   3.679   2.970   9.391 -1.4714 -0.9538  1.5287
  514MOL0     H69366   3.607   2.828   9.141  1.8158  0.1196 -0.1317
  514MOL0     H69367   3.494   2.883   9.268  1.4236 -2.4183  1.3751
  514MOL0     H69368   3.690   3.063   9.123 -2.2980  3.1818 -1.7091
  514MOL0     H69369   3.576   3.132   9.229  0.0956  1.3299 -0.5110
  514MOL0     H69370   3.540   3.000   8.957  0.1396  1.7915 -1.7164
  514MOL0     H69371   3.511   3.168   9.008 -0.0131 -0.8563  0.4282
  514MOL0     H69372   4.235   2.773   9.484  2.9032  2.2497  0.3171
  514MOL0     H69373   4.476   2.779   9.540 -0.0916 -0.8228 -1.2526
  514MOL0     H69374   4.890   2.737   9.546  0.4966  0.5980  0.4724
  514MOL0     H69375   5.128   2.679   9.566  1.1121  0.5390  0.4597
  514MOL0     H69376   6.897   2.206   9.540  0.6495  0.8683 -0.9409
  514MOL0     H69377   7.143   2.216   9.497  2.4630 -1.1184  2.0460
  514MOL0     H69378   7.531   2.485   9.405 -2.4504  0.6753  2.2363
  514MOL0     H69379   7.762   2.503   9.362  3.8416  0.4924  1.5321
  514MOL0     H69380   8.059   2.383   9.348 -0.2395  1.4802 -0.6251
  514MOL0     H69381   7.972   2.512   9.412  1.0423 -0.4386 -2.4600
  514MOL0     H69382   8.118   2.544   9.609 -0.7394 -0.8960  0.1088
  514MOL0     H69383   8.197   2.540   9.447 -2.2521 -1.9500 -2.8357
  514MOL0     H69384   8.363   2.421   9.560  0.6352 -0.4313 -0.7935
  514MOL0     H69385   8.274   2.302   9.488 -2.6920  2.1853 -3.2328
  514MOL0     H69386   8.153   2.271   9.691  0.8458  1.1100 -4.8091
  514MOL0     H69387   8.245   2.412   9.774 -1.5315 -0.0578  0.5502
  514MOL0     H69388   8.525   2.093   9.795  3.1724  1.1085 -2.0821
  514MOL0     H69389   7.815   2.200   9.670 -0.0297 -1.9888 -0.9722
  514MOL0     H69390   7.570   2.196   9.707  0.1267 -0.7542 -0.2959
  515MOL0     O69391  10.393   3.362   6.542  0.2995  0.0862 -0.3246
  515MOL0     C69392  10.422   3.315   6.427  0.8608  0.2069 -0.1616
  515MOL0     O69393  10.329   3.260   6.340  0.2584 -0.2529  1.0206
  515MOL0     C69394  10.198   3.250   6.384 -0.5392 -0.8866 -1.3116
  515MOL0     C69395  10.174   3.159   6.489  0.0890 -0.9017  0.5680
  515MOL0     C69396  10.046   3.141   6.535  0.1673 -0.1831 -0.3542
  515MOL0     C69397   9.941   3.216   6.484 -0.1472 -0.5691 -0.4186
  515MOL0     O69398   9.818   3.195   6.545  0.0744  0.1068  0.0271
  515MOL0     C69399   9.712   3.289   6.524  0.5783  0.7423 -0.0822
  515MOL0     C69400   9.731   3.405   6.621 -0.0056 -0.0904 -0.4723
  515MOL0     C69401   9.780   3.534   6.561 -0.2130  0.5613  0.8144
  515MOL0     C69402   9.682   3.586   6.447  0.7472  0.3853 -0.7992
  515MOL0     C69403   9.713   3.728   6.416  1.0757  0.1796 -0.9966
  515MOL0     C69404   9.599   3.783   6.321  0.3125  0.1875  0.1580
  515MOL0     C69405   9.623   3.927   6.284  0.0208  0.2365 -0.7457
  515MOL0     C69406   9.534   3.964   6.153  0.5422 -0.8905 -0.5814
  515MOL0     N69407   9.388   3.955   6.182  0.3100  0.2555  0.0923
  515MOL0     C69408   9.307   4.060   6.225 -0.3376 -0.4337 -0.2966
  515MOL0     C69409   9.181   4.012   6.233  0.1488  0.0676  0.4418
  515MOL0     C69410   9.060   4.096   6.264  0.0380  0.6342 -0.4728
  515MOL0     C69411   8.967   4.035   6.355  0.2006 -0.1450  0.2747
  515MOL0     C69412   8.886   4.135   6.446  0.2722 -0.7686 -0.1416
  515MOL0     C69413   8.940   4.152   6.594  0.4040  0.1844 -0.1518
  515MOL0     O69414   8.895   4.261   6.668 -0.7254  0.3296  0.1332
  515MOL0     C69415   8.777   4.255   6.730 -0.3733 -0.0823  0.4009
  515MOL0     C69416   8.711   4.376   6.740  1.0352 -0.7419 -0.3369
  515MOL0     C69417   8.578   4.389   6.803  1.0976 -0.5454  0.2992
  515MOL0     C69418   8.529   4.522   6.839 -0.2457 -0.3788 -1.3094
  515MOL0     C69419   8.511   4.263   6.849 -0.2820 -0.4382  0.5059
  515MOL0     C69420   8.368   4.256   6.908 -0.9466 -0.2141  0.4263
  515MOL0     O69421   8.312   4.136   6.956  0.0545  0.6952  0.7389
  515MOL0     C69422   8.208   4.149   7.037  0.0631  0.7801  0.2442
  515MOL0     C69423   8.226   4.151   7.170 -1.0396 -0.5648 -0.1637
  515MOL0     C69424   8.119   4.161   7.267 -0.1865 -0.5883 -0.0221
  515MOL0     C69425   7.984   4.167   7.216 -0.6905 -0.7552 -0.0902
  515MOL0     O69426   7.883   4.187   7.307 -0.1752 -0.0033 -0.5155
  515MOL0     C69427   7.781   4.090   7.302 -0.0780 -0.1526 -0.1349
  515MOL0     C69428   7.727   4.061   7.443  0.1418 -0.3306 -0.0290
  515MOL0     C69429   7.695   4.191   7.524 -0.1640  0.2660 -0.3108
  515MOL0     C69430   7.636   4.166   7.668 -0.1041  0.3147  0.6012
  515MOL0     C69431   7.605   4.290   7.749  0.2162 -0.4667  0.4400
  515MOL0     C69432   7.540   4.257   7.880  0.3807 -0.8721  0.2771
  515MOL0     C69433   7.503   4.384   7.944  0.2320 -0.6276  1.0051
  515MOL0     C69434   7.443   4.365   8.083  1.1563  0.3189  0.2521
  515MOL0    Cl69435   7.282   4.315   8.054 -0.6473  0.1055  0.0190
  515MOL0     C69436   7.964   4.173   7.081 -0.0910  0.6877 -0.2493
  515MOL0     C69437   8.077   4.169   6.998  0.0401 -0.7037  0.9501
  515MOL0     O69438   8.307   4.356   6.893 -0.6293 -0.3815  0.1152
  515MOL0     C69439   8.583   4.146   6.828 -0.1450  0.4858 -0.0435
  515MOL0     C69440   8.715   4.142   6.777  0.1765 -0.1340  0.1369
  515MOL0     N69441   9.190   3.880   6.191 -0.8646 -0.2460 -0.8444
  515MOL0     N69442   9.312   3.845   6.164  0.1279  0.2760 -0.1849
  515MOL0     C69443   9.969   3.304   6.371  1.5893 -0.8613 -0.7859
  515MOL0     C69444  10.097   3.317   6.318  0.3873  0.9791 -0.7080
  515MOL0     C69445  10.563   3.286   6.396  0.8782  0.0654 -0.3505
  515MOL0     C69446  10.609   3.255   6.265  0.6535 -0.1364  0.7650
  515MOL0     C69447  10.748   3.246   6.246  0.5519 -0.8100 -1.3449
  515MOL0     C69448  10.843   3.245   6.346 -0.2495 -0.0191  0.2185
  515MOL0     O69449  10.970   3.220   6.305  0.0615 -0.2203  0.1964
  515MOL0     C69450  11.032   3.342   6.282  0.5473 -0.0198  0.0541
  515MOL0     C69451  11.182   3.316   6.254  0.8824 -0.3451  0.2071
  515MOL0     C69452  11.252   3.444   6.302 -0.3174  0.0138  0.5870
  515MOL0     C69453  11.405   3.423   6.289  0.0378  0.2216 -0.1871
  515MOL0     C69454  11.444   3.361   6.167 -0.1711  0.8874 -0.4130
  515MOL0     C69455  11.499   3.301   6.082 -1.0949 -0.2593 -0.9064
  515MOL0     C69456  10.801   3.271   6.474  0.5063  0.4164  0.3015
  515MOL0     C69457  10.665   3.282   6.496  0.1608 -0.5444  0.6021
  515MOL0     H69458  10.254   3.099   6.530  2.8078  1.1202 -1.4662
  515MOL0     H69459  10.037   3.063   6.609  1.9153  0.9364  1.1442
  515MOL0     H69460   9.715   3.324   6.420 -0.8607  0.0253 -0.3813
  515MOL0     H69461   9.616   3.243   6.546 -1.0936  2.8935 -2.3250
  515MOL0     H69462   9.644   3.434   6.681  1.4644  4.0022  0.0141
  515MOL0     H69463   9.803   3.366   6.694 -1.6176 -0.2018  1.1485
  515MOL0     H69464   9.786   3.612   6.637  2.7200  0.6438  0.6352
  515MOL0     H69465   9.887   3.520   6.541 -0.6428  0.0437 -1.3440
  515MOL0     H69466   9.685   3.526   6.355  2.8094  0.8434 -1.0861
  515MOL0     H69467   9.580   3.583   6.488  0.6050 -3.1618 -1.1130
  515MOL0     H69468   9.711   3.781   6.511 -0.5829 -0.5979 -0.5599
  515MOL0     H69469   9.814   3.728   6.373  1.2879 -1.6424 -0.6005
  515MOL0     H69470   9.595   3.727   6.227 -2.1439  5.1693 -3.1991
  515MOL0     H69471   9.502   3.782   6.373  1.2263 -0.8120  1.9140
  515MOL0     H69472   9.599   3.985   6.374  1.7968 -0.6141  0.3329
  515MOL0     H69473   9.724   3.953   6.249  1.1874 -2.2140  0.5647
  515MOL0     H69474   9.553   3.897   6.069  2.0916  0.5285 -1.4446
  515MOL0     H69475   9.562   4.063   6.115  1.0104 -0.4939  0.7318
  515MOL0     H69476   9.339   4.160   6.250 -0.0168 -1.0328  1.9482
  515MOL0     H69477   9.102   4.187   6.307 -2.4382  2.1049 -0.9425
  515MOL0     H69478   9.014   4.136   6.173 -0.4789  0.7084 -0.1845
  515MOL0     H69479   9.021   3.963   6.417 -1.2901 -1.0164  0.6313
  515MOL0     H69480   8.912   3.968   6.288  1.5370 -0.0312 -0.9604
  515MOL0     H69481   8.786   4.093   6.456 -0.9524  2.2370  2.0636
  515MOL0     H69482   8.877   4.229   6.390 -1.9491  0.2848  1.8044
  515MOL0     H69483   9.043   4.175   6.565  0.2975  0.2429 -0.4876
  515MOL0     H69484   8.934   4.060   6.654 -0.8998  1.0690  1.1615
  515MOL0     H69485   8.753   4.471   6.709 -1.0340  1.7679  3.7599
  515MOL0     H69486   8.496   4.524   6.943  3.7607 -1.9713  0.1708
  515MOL0     H69487   8.615   4.590   6.840 -1.2576  0.9479  0.2770
  515MOL0     H69488   8.443   4.563   6.785 -0.7554  0.2904 -0.0299
  515MOL0     H69489   8.319   4.132   7.221 -1.5671  0.1373  1.0866
  515MOL0     H69490   8.138   4.161   7.374  1.3280 -0.5160 -0.2713
  515MOL0     H69491   7.687   4.130   7.262 -0.7681 -0.6395  0.9528
  515MOL0     H69492   7.802   3.998   7.246  1.4535  0.0168  0.1270
  515MOL0     H69493   7.633   4.007   7.427  0.5206 -0.3348 -2.7342
  515MOL0     H69494   7.789   3.989   7.497  0.0546 -2.4849 -2.6156
  515MOL0     H69495   7.623   4.256   7.473 -0.8858 -0.0576  0.2557
  515MOL0     H69496   7.788   4.247   7.540  0.6565 -1.1088 -0.1660
  515MOL0     H69497   7.538   4.118   7.659  0.8424 -1.6926  0.6071
  515MOL0     H69498   7.709   4.116   7.731 -1.4334  0.4713  2.3439
  515MOL0     H69499   7.543   4.358   7.689  0.0182  0.9319  2.1526
  515MOL0     H69500   7.699   4.343   7.765 -0.0476 -0.5851  2.6766
  515MOL0     H69501   7.448   4.205   7.852  0.4850  0.0187 -1.9181
  515MOL0     H69502   7.606   4.192   7.939  2.4265  0.7824 -0.0494
  515MOL0     H69503   7.436   4.433   7.872 -1.8745 -2.4108  1.6377
  515MOL0     H69504   7.589   4.450   7.954  0.0445 -0.6380  3.1527
  515MOL0     H69505   7.456   4.457   8.140  2.2253  0.0070  0.5318
  515MOL0     H69506   7.489   4.286   8.142  1.1039  1.0891  1.3591
  515MOL0     H69507   7.865   4.180   7.037 -0.6121 -0.7041  0.6418
  515MOL0     H69508   8.059   4.166   6.890  2.9457 -2.3351  0.4177
  515MOL0     H69509   8.546   4.051   6.865 -2.2095  1.0217 -0.5844
  515MOL0     H69510   8.756   4.045   6.754 -0.7984 -0.0395 -2.3209
  515MOL0     H69511   9.881   3.353   6.330  0.1089 -1.4944  1.4711
  515MOL0     H69512  10.127   3.377   6.233  3.6423  0.9162  0.2667
  515MOL0     H69513  10.545   3.263   6.178  0.1296  0.9786  1.2392
  515MOL0     H69514  10.788   3.240   6.145 -0.5480  3.1863 -2.1872
  515MOL0     H69515  10.991   3.402   6.200  0.9114  1.9499  1.2594
  515MOL0     H69516  11.031   3.405   6.371 -2.2900  0.1613 -0.0140
  515MOL0     H69517  11.195   3.296   6.148  3.7504 -2.7001  0.8567
  515MOL0     H69518  11.210   3.224   6.307 -1.1890 -0.1176  1.8392
  515MOL0     H69519  11.226   3.474   6.404  1.8609  0.7796  0.9742
  515MOL0     H69520  11.216   3.526   6.240  0.6782  1.6451  2.0522
  515MOL0     H69521  11.434   3.361   6.374 -2.8372 -0.2021  0.6053
  515MOL0     H69522  11.463   3.516   6.291  2.5014 -1.2001 -1.2267
  515MOL0     H69523  11.547   3.254   5.998  3.4550  0.0127  1.2380
  515MOL0     H69524  10.879   3.278   6.549  1.7419  1.4300 -1.0067
  515MOL0     H69525  10.635   3.315   6.595 -1.3695  1.3819 -0.4238
  516MOL0     O69526   6.405   7.713   3.025  0.3002 -0.6251 -0.1644
  516MOL0     C69527   6.489   7.791   2.983 -0.3572  0.3242  0.3335
  516MOL0     O69528   6.607   7.760   2.911  0.0260 -0.4922  0.3215
  516MOL0     C69529   6.595   7.650   2.838 -0.2158  0.4068 -0.2822
  516MOL0     C69530   6.627   7.528   2.896 -0.0008 -0.3316 -0.8842
  516MOL0     C69531   6.617   7.405   2.824  0.2972  0.7131  0.4650
  516MOL0     C69532   6.568   7.406   2.687  0.6890  0.6482  0.2272
  516MOL0     O69533   6.565   7.287   2.612 -0.2346  0.3881 -0.4022
  516MOL0     C69534   6.482   7.177   2.661  0.7919  0.4715 -0.6969
  516MOL0     C69535   6.334   7.202   2.636  0.8418  0.8520 -0.4527
  516MOL0     C69536   6.259   7.331   2.700 -0.0247 -1.0420  0.6199
  516MOL0     C69537   6.234   7.330   2.849  0.5138 -1.1973 -0.8565
  516MOL0     C69538   6.138   7.452   2.890 -0.3200 -1.5804  0.2944
  516MOL0     C69539   6.101   7.455   3.037  0.6718 -1.1533 -0.6507
  516MOL0     C69540   6.010   7.577   3.073  0.6287 -1.6477 -0.7420
  516MOL0     C69541   6.087   7.698   3.135 -0.6911  0.0323 -0.6287
  516MOL0     N69542   6.002   7.807   3.183 -0.5049 -0.9576  0.1239
  516MOL0     C69543   5.901   7.853   3.110  0.0998 -0.5762  0.2700
  516MOL0     C69544   5.848   7.963   3.169 -0.3660 -0.2809 -0.8145
  516MOL0     C69545   5.728   8.041   3.116 -0.3111  0.3856 -0.1634
  516MOL0     C69546   5.597   7.963   3.145 -0.0008 -0.6319 -0.7217
  516MOL0     C69547   5.488   8.030   3.076  0.2816 -0.2997 -0.1872
  516MOL0     C69548   5.370   7.940   3.091  0.0188 -0.2845  1.1663
  516MOL0     O69549   5.263   8.012   3.048  0.2863 -1.1270  0.2286
  516MOL0     C69550   5.153   7.934   3.030  1.0121  0.3454  0.3217
  516MOL0     C69551   5.129   7.811   3.092 -0.3272  0.2801 -0.6354
  516MOL0     C69552   5.009   7.738   3.076 -1.2250  0.4554 -1.0314
  516MOL0     C69553   4.980   7.610   3.157  0.0474 -0.0675  0.3646
  516MOL0     C69554   4.908   7.779   2.985  0.0219  0.1077  0.0773
  516MOL0     C69555   4.778   7.703   2.956 -0.2019  0.2580  0.8583
  516MOL0     O69556   4.678   7.776   2.905  0.1292  0.0706  0.5602
  516MOL0     C69557   4.543   7.735   2.904 -0.5092 -0.0057  0.5116
  516MOL0     C69558   4.482   7.611   2.896 -0.8609 -0.0940  0.3427
  516MOL0     C69559   4.347   7.577   2.884 -1.2083  0.0824 -0.6125
  516MOL0     C69560   4.256   7.685   2.866  0.0861 -0.1763  0.0008
  516MOL0     O69561   4.124   7.662   2.832 -0.1911 -0.1766  0.7084
  516MOL0     C69562   4.034   7.763   2.769  0.6152  0.9823  0.0485
  516MOL0     C69563   3.936   7.832   2.858 -0.0897 -0.0875  0.5435
  516MOL0     C69564   3.821   7.738   2.905  0.5050  0.0416  0.0284
  516MOL0     C69565   3.708   7.809   2.978 -0.0155  1.7767  0.5535
  516MOL0     C69566   3.578   7.724   3.002  0.2131  0.3009  0.3097
  516MOL0     C69567   3.478   7.819   3.075 -0.3290 -0.4817 -0.4818
  516MOL0     C69568   3.350   7.739   3.071 -0.1422  1.3897  0.2498
  516MOL0     C69569   3.227   7.828   3.108  0.6677 -0.6601  0.6723
  516MOL0    Cl69570   3.058   7.740   3.064 -0.9693 -0.3220  0.2174
  516MOL0     C69571   4.310   7.811   2.860 -0.2930 -0.3165 -0.6433
  516MOL0     C69572   4.449   7.841   2.879  0.3774  0.0130  0.6681
  516MOL0     O69573   4.775   7.578   2.975  0.5445  0.0618  0.8026
  516MOL0     C69574   4.937   7.900   2.911 -0.4811  0.5663 -0.9142
  516MOL0     C69575   5.055   7.970   2.938  0.2508 -0.3310  0.6746
  516MOL0     N69576   5.924   7.977   3.281 -0.2188 -0.4881  0.2330
  516MOL0     N69577   6.021   7.887   3.286 -0.6605  0.0174 -0.5111
  516MOL0     C69578   6.534   7.531   2.632 -0.2360 -0.0940 -0.1920
  516MOL0     C69579   6.552   7.648   2.706  1.0034 -0.3561 -0.2976
  516MOL0     C69580   6.489   7.919   3.052  0.4249 -0.1024  0.3527
  516MOL0     C69581   6.607   8.000   3.044  0.0700  0.1452  0.4385
  516MOL0     C69582   6.594   8.122   3.117  0.6662 -0.5112  1.4752
  516MOL0     C69583   6.487   8.165   3.191 -0.4392  0.6763  0.0449
  516MOL0     O69584   6.467   8.285   3.258  0.6534  0.4895 -0.2686
  516MOL0     C69585   6.550   8.395   3.223  0.6236 -0.3012  0.2395
  516MOL0     C69586   6.504   8.442   3.084 -0.0532 -0.2047  0.2117
  516MOL0     C69587   6.479   8.588   3.078  0.2321 -1.1576  0.3379
  516MOL0     C69588   6.438   8.638   2.939 -0.2373  0.3528  0.3801
  516MOL0     C69589   6.512   8.581   2.830  0.5392  0.1430 -0.7211
  516MOL0     C69590   6.582   8.520   2.759 -0.9327  0.2761  0.1592
  516MOL0     C69591   6.379   8.070   3.193 -0.1559  0.4014 -0.1031
  516MOL0     C69592   6.388   7.953   3.133  1.0061 -1.1651  0.2486
  516MOL0     H69593   6.661   7.520   2.999  0.8869 -0.5038 -1.1882
  516MOL0     H69594   6.636   7.309   2.870 -0.8426 -0.0836 -0.6395
  516MOL0     H69595   6.514   7.084   2.612  1.6152  1.3957 -1.9850
  516MOL0     H69596   6.498   7.162   2.768 -0.7542  3.3798  0.0387
  516MOL0     H69597   6.322   7.202   2.528  0.8532 -1.5386 -0.5060
  516MOL0     H69598   6.279   7.116   2.675  1.8634  1.5081  2.7804
  516MOL0     H69599   6.301   7.423   2.657  0.1637 -0.7279  1.4651
  516MOL0     H69600   6.162   7.327   2.650  1.1814  0.5500 -2.0772
  516MOL0     H69601   6.182   7.243   2.891  3.5342 -3.4261 -1.4211
  516MOL0     H69602   6.328   7.338   2.904 -0.3880  3.1261  0.4646
  516MOL0     H69603   6.181   7.550   2.867 -2.8392 -0.1693  1.2106
  516MOL0     H69604   6.040   7.448   2.842 -1.1341 -2.7479  1.9677
  516MOL0     H69605   6.037   7.368   3.057 -1.0956  0.0800 -0.6630
  516MOL0     H69606   6.189   7.458   3.101  0.6930 -1.7253 -0.6492
  516MOL0     H69607   5.960   7.616   2.984 -3.0531 -1.4605  1.2256
  516MOL0     H69608   5.936   7.547   3.148 -1.2575 -0.2963 -1.9746
  516MOL0     H69609   6.153   7.743   3.060  0.6361 -1.3194 -0.3107
  516MOL0     H69610   6.156   7.663   3.212 -3.1450 -0.5943  1.4434
  516MOL0     H69611   5.875   7.813   3.013 -0.3618  0.3540 -0.0003
  516MOL0     H69612   5.725   8.148   3.139 -0.4568  0.1280  1.1143
  516MOL0     H69613   5.750   8.037   3.009  2.4603 -0.8887  0.3779
  516MOL0     H69614   5.596   7.968   3.254 -1.4017 -0.2938 -0.7300
  516MOL0     H69615   5.620   7.862   3.109 -0.8311 -0.6358 -1.2698
  516MOL0     H69616   5.496   8.039   2.967 -0.8367 -2.0189 -0.4491
  516MOL0     H69617   5.460   8.126   3.121 -4.3759 -2.1566  1.5006
  516MOL0     H69618   5.358   7.913   3.196 -0.8384 -0.6651  0.9837
  516MOL0     H69619   5.375   7.847   3.034 -2.2792 -0.5536  1.3248
  516MOL0     H69620   5.188   7.773   3.175 -0.4808 -1.3432 -1.2386
  516MOL0     H69621   4.891   7.608   3.220 -1.7509 -1.4145 -2.0391
  516MOL0     H69622   4.966   7.525   3.089  2.2824 -1.8524  1.9640
  516MOL0     H69623   5.070   7.591   3.216  0.3579 -1.6589 -0.5550
  516MOL0     H69624   4.550   7.529   2.877 -0.0303  1.3011 -3.5980
  516MOL0     H69625   4.319   7.473   2.878  0.1603 -0.4592  1.5337
  516MOL0     H69626   4.086   7.837   2.708 -2.7132  1.3502 -2.7128
  516MOL0     H69627   3.984   7.707   2.689  0.1242 -0.5926  1.4027
  516MOL0     H69628   3.988   7.866   2.948 -0.4168 -0.1160  0.7467
  516MOL0     H69629   3.897   7.921   2.809 -0.6930 -0.6762 -0.0735
  516MOL0     H69630   3.868   7.662   2.969  2.7511 -1.3517 -3.0406
  516MOL0     H69631   3.781   7.678   2.823 -1.1627 -2.5046  2.4822
  516MOL0     H69632   3.744   7.834   3.078  2.3151 -0.0045  0.2430
  516MOL0     H69633   3.682   7.893   2.912 -1.1731  1.1991  0.2429
  516MOL0     H69634   3.598   7.629   3.054  1.4596  0.4981  0.2283
  516MOL0     H69635   3.543   7.688   2.905  5.9191 -3.3546 -0.9198
  516MOL0     H69636   3.502   7.846   3.179 -0.2162 -0.5783 -0.4814
  516MOL0     H69637   3.470   7.904   3.007 -1.2840 -4.1104 -5.4660
  516MOL0     H69638   3.353   7.667   3.153  3.8960  0.0146 -0.9052
  516MOL0     H69639   3.346   7.673   2.984 -2.1152 -0.7416  1.8434
  516MOL0     H69640   3.232   7.915   3.042 -1.4642  0.5324  1.9871
  516MOL0     H69641   3.240   7.856   3.213  3.8979 -1.9486  0.7490
  516MOL0     H69642   4.237   7.888   2.838  0.5405  0.7271  0.1301
  516MOL0     H69643   4.487   7.943   2.871  0.8752 -0.1888  0.4039
  516MOL0     H69644   4.873   7.944   2.835 -0.0121  0.6560 -1.2591
  516MOL0     H69645   5.070   8.067   2.892  2.9455 -1.1308 -0.3628
  516MOL0     H69646   6.499   7.535   2.530 -1.1971 -1.6227  0.0399
  516MOL0     H69647   6.507   7.738   2.666 -3.0707 -1.3870  1.5044
  516MOL0     H69648   6.703   7.981   2.997  0.3908  3.0677 -0.2245
  516MOL0     H69649   6.681   8.185   3.102 -1.5788  3.2137  2.6518
  516MOL0     H69650   6.539   8.484   3.286  3.0181  1.3176 -1.4424
  516MOL0     H69651   6.658   8.383   3.228  0.8412  1.1590 -0.3091
  516MOL0     H69652   6.414   8.395   3.042  0.5649 -0.1302 -1.2457
  516MOL0     H69653   6.585   8.424   3.013  1.4625  0.2073  1.7969
  516MOL0     H69654   6.576   8.637   3.095  1.7058 -3.4353 -0.9584
  516MOL0     H69655   6.397   8.617   3.144 -0.2395 -2.2665  0.2650
  516MOL0     H69656   6.463   8.744   2.930  1.7446  0.0899  2.1567
  516MOL0     H69657   6.335   8.610   2.916  0.0009 -0.1002 -0.1806
  516MOL0     H69658   6.642   8.479   2.681 -1.6286  1.5017 -1.0657
  516MOL0     H69659   6.289   8.089   3.250  0.6171  0.2306  1.2206
  516MOL0     H69660   6.313   7.876   3.143 -0.1141 -0.5741 -2.5840
  517MOL0     O69661   9.922   8.227  10.102  0.0358 -0.0030 -0.5605
  517MOL0     C69662  10.019   8.292  10.069 -1.1244 -1.3905  0.4994
  517MOL0     O69663  10.024   8.393   9.981 -0.0832  0.0868  0.2314
  517MOL0     C69664   9.909   8.450   9.946  1.0336 -1.2176 -0.4365
  517MOL0     C69665   9.819   8.505  10.042  0.7547 -1.0936 -0.3407
  517MOL0     C69666   9.714   8.591   9.999 -0.0607 -0.7709  0.0111
  517MOL0     C69667   9.689   8.616   9.867 -0.6904  0.3443  0.1145
  517MOL0     O69668   9.583   8.704   9.841 -0.0307  0.1858  0.1482
  517MOL0     C69669   9.498   8.686   9.731 -0.7486  0.6230 -0.0101
  517MOL0     C69670   9.362   8.628   9.773  0.6019  0.1859  0.3256
  517MOL0     C69671   9.253   8.602   9.662 -0.3908 -0.7844  0.7169
  517MOL0     C69672   9.123   8.550   9.706  0.6086 -0.1445 -0.4164
  517MOL0     C69673   9.028   8.577   9.595 -0.9356 -0.2824  0.3494
  517MOL0     C69674   8.887   8.528   9.621  0.6115 -0.0268 -0.2763
  517MOL0     C69675   8.774   8.576   9.526  0.7351  0.6869  0.8162
  517MOL0     C69676   8.789   8.731   9.495 -0.3671  0.5185  0.4255
  517MOL0     N69677   8.668   8.778   9.431 -0.2265  0.2813  0.0308
  517MOL0     C69678   8.592   8.882   9.480  0.1646  0.8932 -0.1803
  517MOL0     C69679   8.502   8.897   9.382  0.1614 -0.6785 -0.5547
  517MOL0     C69680   8.402   9.000   9.365 -0.4698 -0.6395  0.0274
  517MOL0     C69681   8.266   8.938   9.354 -0.4718 -0.1694 -0.4697
  517MOL0     C69682   8.150   9.039   9.333 -0.1879  0.6352  0.1208
  517MOL0     C69683   8.131   9.088   9.193 -0.3523  0.4318  0.1486
  517MOL0     O69684   7.994   9.117   9.158 -0.2025  0.5142  0.5053
  517MOL0     C69685   7.897   9.018   9.141 -0.0640  0.4451  0.1400
  517MOL0     C69686   7.938   8.885   9.136 -0.6575  0.3648 -0.4341
  517MOL0     C69687   7.841   8.785   9.123  0.2454 -0.6146  0.5215
  517MOL0     C69688   7.880   8.641   9.118 -0.4512  1.0385 -0.4565
  517MOL0     C69689   7.709   8.819   9.101  0.3028 -0.8676 -0.3165
  517MOL0     C69690   7.603   8.711   9.095  0.2701  0.4588 -1.2178
  517MOL0     O69691   7.594   8.621   9.203 -0.1989  0.8663  0.6408
  517MOL0     C69692   7.474   8.554   9.223  0.0782  0.3350  0.9173
  517MOL0     C69693   7.484   8.417   9.265  0.0169 -0.2135  0.2277
  517MOL0     C69694   7.364   8.346   9.297 -0.1738  0.3529 -0.5502
  517MOL0     C69695   7.238   8.405   9.276 -0.0410  0.3448 -0.3857
  517MOL0     O69696   7.119   8.338   9.313  0.8652  0.3063 -0.3076
  517MOL0     C69697   7.115   8.282   9.435 -0.5037  0.2276 -1.6085
  517MOL0     C69698   6.969   8.236   9.479 -0.7419  0.1816 -0.2859
  517MOL0     C69699   6.962   8.080   9.478 -0.0447 -0.1635 -0.3408
  517MOL0     C69700   6.832   8.029   9.531  0.4186 -1.3500  0.8161
  517MOL0     C69701   6.797   8.068   9.676  0.3435 -0.3216  0.0487
  517MOL0     C69702   6.871   7.977   9.776 -0.1323 -1.0847 -0.2653
  517MOL0     C69703   6.805   7.840   9.793 -0.4328  0.1089 -0.1167
  517MOL0     C69704   6.890   7.772   9.905  0.5414 -0.9794 -0.2089
  517MOL0    Cl69705   6.846   7.854  10.063 -0.2712 -0.6747 -0.4186
  517MOL0     C69706   7.228   8.541   9.242  0.0680 -0.5450  0.3258
  517MOL0     C69707   7.348   8.615   9.206 -0.2673  0.2663 -0.4419
  517MOL0     O69708   7.519   8.737   9.012 -0.3213  0.4918 -0.4079
  517MOL0     C69709   7.666   8.953   9.095  0.2551  0.2120 -0.2975
  517MOL0     C69710   7.755   9.049   9.121  0.2863 -0.4829 -0.1872
  517MOL0     N69711   8.533   8.823   9.269 -0.3397 -1.0482  0.4302
  517MOL0     N69712   8.638   8.754   9.298 -0.4206  0.0305  0.3625
  517MOL0     C69713   9.776   8.554   9.769  0.1964  0.5838 -0.5699
  517MOL0     C69714   9.880   8.470   9.806 -0.3147 -0.2139  0.3052
  517MOL0     C69715  10.154   8.253  10.111  0.4414  0.6255 -0.3850
  517MOL0     C69716  10.163   8.155  10.210 -0.5786  0.2622  0.4351
  517MOL0     C69717  10.281   8.089  10.227 -1.1821  0.1755  0.4068
  517MOL0     C69718  10.401   8.111  10.144  0.7111  0.5567  0.8245
  517MOL0     O69719  10.527   8.052  10.148 -1.3195 -0.0739  0.1210
  517MOL0     C69720  10.549   7.913  10.184  0.5397  1.0131 -0.7144
  517MOL0     C69721  10.666   7.882  10.276 -0.0243 -0.6229  0.1454
  517MOL0     C69722  10.791   7.962  10.241  1.2148  0.1557 -0.0745
  517MOL0     C69723  10.912   7.910  10.314  0.6099 -0.0591 -1.1303
  517MOL0     C69724  10.924   7.969  10.456  0.2721 -0.0284  0.3839
  517MOL0     C69725  10.954   8.025  10.559 -0.0321 -0.1526 -0.4219
  517MOL0     C69726  10.379   8.207  10.043  0.0335  0.0275 -0.2489
  517MOL0     C69727  10.263   8.282  10.025  0.4118  0.1965 -0.2372
  517MOL0     H69728   9.831   8.489  10.149  0.4321 -0.4548 -0.2085
  517MOL0     H69729   9.659   8.647  10.073  1.0470 -0.7251  0.8309
  517MOL0     H69730   9.473   8.786   9.695 -0.5084  0.4742 -0.5994
  517MOL0     H69731   9.547   8.639   9.645  0.0530  0.0073  0.7599
  517MOL0     H69732   9.378   8.532   9.822 -0.4624  0.1196  0.5653
  517MOL0     H69733   9.320   8.693   9.850  0.3745 -1.7120  1.8819
  517MOL0     H69734   9.233   8.699   9.616 -0.4900 -1.0927  0.1099
  517MOL0     H69735   9.292   8.534   9.586 -0.3859 -2.3047  2.0085
  517MOL0     H69736   9.140   8.444   9.724  1.3133 -0.0515 -0.5202
  517MOL0     H69737   9.070   8.599   9.788  0.3197 -0.6405 -0.3039
  517MOL0     H69738   9.037   8.685   9.582  0.5836 -0.4215  0.0150
  517MOL0     H69739   9.052   8.526   9.501  1.4525  2.9582 -1.0054
  517MOL0     H69740   8.897   8.421   9.603 -0.2863 -0.0001 -1.0439
  517MOL0     H69741   8.861   8.556   9.723 -2.4703  0.4869 -1.0875
  517MOL0     H69742   8.772   8.516   9.434 -0.6126  0.5261  0.9239
  517MOL0     H69743   8.688   8.541   9.585  1.2103 -1.8166  0.1659
  517MOL0     H69744   8.871   8.735   9.422 -0.4160 -0.3796  0.3129
  517MOL0     H69745   8.815   8.800   9.576  2.6053  0.0983 -0.0266
  517MOL0     H69746   8.602   8.941   9.570 -1.2240  2.8477 -1.2546
  517MOL0     H69747   8.398   9.062   9.455 -4.8339 -1.2102  0.4493
  517MOL0     H69748   8.425   9.071   9.285  0.2589  0.0152  0.7999
  517MOL0     H69749   8.245   8.876   9.442 -0.4470  1.9097  1.0540
  517MOL0     H69750   8.263   8.871   9.267 -0.0444 -0.4429 -0.2728
  517MOL0     H69751   8.182   9.124   9.395 -1.6679  2.7464 -1.8449
  517MOL0     H69752   8.071   8.980   9.380  0.2868  1.2155  1.7265
  517MOL0     H69753   8.181   9.025   9.119 -1.0127  0.7625 -0.5951
  517MOL0     H69754   8.186   9.181   9.180  1.7186 -1.0165 -2.5390
  517MOL0     H69755   8.036   8.841   9.142 -1.9691 -2.6592  0.3004
  517MOL0     H69756   7.842   8.588   9.205 -1.4282  1.0032 -0.8967
  517MOL0     H69757   7.848   8.595   9.024 -1.6429  0.7898  0.0578
  517MOL0     H69758   7.988   8.622   9.121 -0.7683 -0.9742 -0.0341
  517MOL0     H69759   7.579   8.364   9.261 -0.9998 -2.0790 -1.7020
  517MOL0     H69760   7.370   8.247   9.341  2.4987  0.0724 -1.3914
  517MOL0     H69761   7.180   8.194   9.437  0.8417  1.1863 -1.6616
  517MOL0     H69762   7.153   8.349   9.513 -0.7200  1.0943 -2.2404
  517MOL0     H69763   6.945   8.275   9.579  0.0679 -1.8469  0.7545
  517MOL0     H69764   6.901   8.267   9.399  0.2935 -3.0223 -2.6212
  517MOL0     H69765   7.043   8.037   9.539  0.8959  0.1053 -1.3573
  517MOL0     H69766   6.970   8.046   9.374  4.4833 -0.4654 -0.1278
  517MOL0     H69767   6.756   8.077   9.468  2.7086  0.3937 -0.7805
  517MOL0     H69768   6.830   7.922   9.511 -1.1798 -1.4308  1.2568
  517MOL0     H69769   6.690   8.051   9.692  0.2631 -1.9412 -1.7609
  517MOL0     H69770   6.826   8.169   9.706  1.5379 -0.5836 -0.1827
  517MOL0     H69771   6.976   7.966   9.746  0.0259  1.2090 -0.6982
  517MOL0     H69772   6.879   8.037   9.868  0.8163 -0.9673 -0.4111
  517MOL0     H69773   6.806   7.774   9.707  0.8887  1.0622 -0.8619
  517MOL0     H69774   6.699   7.839   9.823 -0.2517 -0.7758  0.5301
  517MOL0     H69775   6.992   7.778   9.865  1.4006 -0.5890  1.8768
  517MOL0     H69776   6.857   7.668   9.908 -0.8931 -0.6057 -1.7157
  517MOL0     H69777   7.131   8.590   9.243  1.6325  2.7689  1.0349
  517MOL0     H69778   7.338   8.718   9.173 -0.6117  0.7248  1.0376
  517MOL0     H69779   7.565   8.991   9.085 -0.5471 -1.5929  0.6193
  517MOL0     H69780   7.734   9.155   9.114  3.5113  0.1799 -2.0380
  517MOL0     H69781   9.747   8.584   9.669 -2.6250 -0.2976 -0.1281
  517MOL0     H69782   9.955   8.446   9.731  0.0701  1.8018 -0.0163
  517MOL0     H69783  10.071   8.139  10.266  0.0596 -3.4938  0.6961
  517MOL0     H69784  10.274   8.015  10.306  0.4981 -0.6481 -0.1854
  517MOL0     H69785  10.464   7.862  10.230  0.8470  1.4124  0.3287
  517MOL0     H69786  10.563   7.859  10.090 -2.4603  1.1814 -1.3531
  517MOL0     H69787  10.687   7.775  10.275 -1.2776 -0.8805  0.0736
  517MOL0     H69788  10.637   7.911  10.378  0.6417  2.0160 -0.3218
  517MOL0     H69789  10.778   8.069  10.262 -0.2919  0.0210 -0.2139
  517MOL0     H69790  10.801   7.953  10.132 -1.8176  0.5195 -0.4844
  517MOL0     H69791  11.000   7.948  10.262  2.8540 -1.3030  1.4557
  517MOL0     H69792  10.912   7.800  10.315 -1.9734 -0.1081 -0.8163
  517MOL0     H69793  10.989   8.074  10.648 -1.6689  0.6080 -0.1640
  517MOL0     H69794  10.469   8.228   9.986  0.2164 -1.2747 -0.4549
  517MOL0     H69795  10.257   8.359   9.949 -0.7644  1.3041  0.9463
  518MOL0     O69796   2.457   8.223   6.825 -0.9640  0.2722 -0.0220
  518MOL0     C69797   2.571   8.198   6.796  0.0855 -0.5924  0.9591
  518MOL0     O69798   2.630   8.171   6.670  0.7657  0.8660  0.3057
  518MOL0     C69799   2.555   8.187   6.557  0.5023  0.8732  0.7180
  518MOL0     C69800   2.588   8.096   6.451 -0.0310 -0.0893  0.4173
  518MOL0     C69801   2.518   8.106   6.332  0.6422 -0.0116  0.0822
  518MOL0     C69802   2.423   8.207   6.304 -0.0145  0.5972 -1.1983
  518MOL0     O69803   2.343   8.214   6.189 -0.1145 -0.3496  0.5373
  518MOL0     C69804   2.368   8.122   6.084 -0.6152  0.5586 -0.1395
  518MOL0     C69805   2.505   8.138   6.024  0.4349 -0.3330 -1.0161
  518MOL0     C69806   2.516   8.060   5.894  0.0184 -0.3683 -0.4783
  518MOL0     C69807   2.554   8.154   5.772  0.4982 -0.6114 -1.0967
  518MOL0     C69808   2.629   8.094   5.663  0.0328  0.5998  0.3222
  518MOL0     C69809   2.783   8.087   5.681 -0.0273 -0.4293  0.2376
  518MOL0     C69810   2.861   8.222   5.673 -0.2119 -0.5844  0.0578
  518MOL0     C69811   2.970   8.236   5.776 -0.6292  0.3109 -0.7280
  518MOL0     N69812   2.917   8.266   5.908 -0.2819 -1.4245 -0.2842
  518MOL0     C69813   2.847   8.383   5.944  0.2575  0.6935 -0.2634
  518MOL0     C69814   2.789   8.359   6.063  0.2335 -0.3367 -0.1264
  518MOL0     C69815   2.714   8.467   6.145  0.3971 -0.1428 -0.0678
  518MOL0     C69816   2.796   8.517   6.263 -0.6829  0.0586 -0.1388
  518MOL0     C69817   2.784   8.407   6.370 -0.7680 -0.3152  0.3151
  518MOL0     C69818   2.835   8.468   6.500  0.3648  1.0226 -0.4786
  518MOL0     O69819   2.755   8.578   6.550  0.2549  0.2846 -0.0525
  518MOL0     C69820   2.802   8.638   6.663  0.4907 -0.5808 -0.4285
  518MOL0     C69821   2.890   8.587   6.756  0.3508  0.1022 -0.2627
  518MOL0     C69822   2.928   8.654   6.875  1.0295 -0.2870 -0.2160
  518MOL0     C69823   3.019   8.583   6.962 -0.0850 -0.6095  0.3748
  518MOL0     C69824   2.871   8.787   6.900  0.7836  1.0901 -0.7549
  518MOL0     C69825   2.903   8.862   7.021 -0.1394 -0.3031 -0.3394
  518MOL0     O69826   2.829   8.977   7.046  0.2197 -0.5737  0.0765
  518MOL0     C69827   2.777   9.007   7.169  0.7490 -0.1397 -0.6747
  518MOL0     C69828   2.638   9.046   7.169  0.4164 -0.9485 -0.0892
  518MOL0     C69829   2.582   9.087   7.288  0.6980  0.7515 -0.0754
  518MOL0     C69830   2.662   9.094   7.410  0.8819 -0.6252 -0.4158
  518MOL0     O69831   2.615   9.151   7.524  0.7072 -0.4107  1.2251
  518MOL0     C69832   2.499   9.243   7.522 -0.3977 -0.0230  0.8002
  518MOL0     C69833   2.492   9.307   7.655  0.5909 -0.9307  0.3020
  518MOL0     C69834   2.384   9.413   7.669 -0.5069  0.4114 -0.0971
  518MOL0     C69835   2.396   9.533   7.571 -0.1812  0.2576 -0.1552
  518MOL0     C69836   2.262   9.552   7.498  0.7731 -0.5836 -0.0592
  518MOL0     C69837   2.274   9.613   7.358 -0.1055 -0.4431 -0.6767
  518MOL0     C69838   2.144   9.597   7.274  0.2615 -0.2274 -0.4322
  518MOL0     C69839   2.148   9.665   7.136  0.5576  1.2087  0.0931
  518MOL0    Cl69840   2.296   9.635   7.031 -0.0167 -0.0639  0.3185
  518MOL0     C69841   2.790   9.046   7.407 -0.3345  0.3521  0.1915
  518MOL0     C69842   2.847   9.005   7.290 -0.2666 -0.6702 -0.0498
  518MOL0     O69843   2.981   8.809   7.103  0.3449  0.4149 -0.3949
  518MOL0     C69844   2.786   8.838   6.803 -1.1978  0.2114 -0.1502
  518MOL0     C69845   2.752   8.761   6.689 -0.0333 -0.2553  0.7388
  518MOL0     N69846   2.826   8.229   6.096  0.3618  0.4318 -0.0139
  518MOL0     N69847   2.898   8.174   6.009 -0.0698  0.7272 -0.9711
  518MOL0     C69848   2.402   8.302   6.400  0.1063  0.3064 -0.0904
  518MOL0     C69849   2.463   8.290   6.526  0.1923 -0.3078  0.1645
  518MOL0     C69850   2.670   8.200   6.907 -0.1992 -0.2193  0.2690
  518MOL0     C69851   2.617   8.195   7.038 -0.8622 -0.1675 -0.9905
  518MOL0     C69852   2.703   8.201   7.149  0.5309  0.8742 -1.2261
  518MOL0     C69853   2.846   8.199   7.128 -0.9587 -0.7347  0.5016
  518MOL0     O69854   2.928   8.189   7.235 -0.2329 -0.1310 -0.1891
  518MOL0     C69855   3.051   8.262   7.224  0.7637 -0.8090 -0.1457
  518MOL0     C69856   3.124   8.248   7.364 -0.2617  0.1581  0.1870
  518MOL0     C69857   3.230   8.358   7.370  0.3286 -1.0747  0.4424
  518MOL0     C69858   3.357   8.340   7.449 -0.8590 -0.5498 -0.3552
  518MOL0     C69859   3.423   8.218   7.395 -0.3262  0.3885  0.3283
  518MOL0     C69860   3.467   8.121   7.341  0.0636  0.4464 -0.5144
  518MOL0     C69861   2.888   8.195   6.998  0.5941 -0.2271 -0.3678
  518MOL0     C69862   2.805   8.200   6.890 -0.2062 -0.1960  0.1012
  518MOL0     H69863   2.664   8.022   6.470  1.8492  0.3481 -4.1581
  518MOL0     H69864   2.531   8.027   6.258  0.3809 -1.4587  1.5246
  518MOL0     H69865   2.354   8.023   6.129 -2.0037  1.4504  1.5050
  518MOL0     H69866   2.285   8.135   6.014  0.0262  1.1813 -0.8042
  518MOL0     H69867   2.517   8.246   6.014 -0.9092 -0.1722 -1.0261
  518MOL0     H69868   2.590   8.116   6.089 -0.6120  2.2755  1.4331
  518MOL0     H69869   2.593   7.983   5.906 -0.1118 -0.2068  1.6555
  518MOL0     H69870   2.427   8.003   5.868  0.0456 -2.1321  2.7654
  518MOL0     H69871   2.459   8.193   5.735 -0.9107  0.9531  3.4829
  518MOL0     H69872   2.610   8.245   5.797  0.5994 -0.7675 -0.7464
  518MOL0     H69873   2.590   7.993   5.657 -4.6186  2.2525 -2.1114
  518MOL0     H69874   2.612   8.150   5.570  1.4867 -1.1549 -1.0747
  518MOL0     H69875   2.793   8.034   5.776 -0.1603 -0.0666  0.4572
  518MOL0     H69876   2.821   8.026   5.598 -2.9111 -0.9496 -0.8210
  518MOL0     H69877   2.895   8.243   5.571  1.0571 -0.9930  0.3865
  518MOL0     H69878   2.795   8.307   5.694  1.6863  1.0918 -0.4408
  518MOL0     H69879   3.034   8.322   5.752  0.4739 -0.3153 -0.1188
  518MOL0     H69880   3.042   8.153   5.776 -1.0660 -0.0862  0.4251
  518MOL0     H69881   2.863   8.475   5.888  1.5480  0.5292 -0.2058
  518MOL0     H69882   2.682   8.552   6.084 -2.8245 -0.4475  1.0267
  518MOL0     H69883   2.621   8.421   6.179 -0.6268  0.6678 -1.6268
  518MOL0     H69884   2.758   8.616   6.291 -0.7799 -0.1614  0.5192
  518MOL0     H69885   2.898   8.535   6.228  0.7871  0.3424  3.7606
  518MOL0     H69886   2.859   8.331   6.349  1.7825  1.5086  2.0831
  518MOL0     H69887   2.684   8.361   6.368 -0.7158 -0.5783 -4.0837
  518MOL0     H69888   2.937   8.506   6.498 -0.2071  2.5868 -1.2507
  518MOL0     H69889   2.836   8.385   6.571  0.6329  0.0162 -1.6239
  518MOL0     H69890   2.942   8.493   6.741 -0.5598 -0.3388 -0.7903
  518MOL0     H69891   3.112   8.642   6.961 -0.5450  0.1529  1.3395
  518MOL0     H69892   2.989   8.569   7.065  4.0617 -1.9285  1.6187
  518MOL0     H69893   3.037   8.479   6.932 -0.9526 -0.0307 -2.4995
  518MOL0     H69894   2.583   9.038   7.076  1.9529 -1.2109 -1.0064
  518MOL0     H69895   2.477   9.115   7.292  0.4228 -0.1995 -0.4144
  518MOL0     H69896   2.515   9.317   7.443  0.3868 -1.9211 -0.9062
  518MOL0     H69897   2.407   9.193   7.492  0.3311 -1.4385  0.8511
  518MOL0     H69898   2.484   9.229   7.731  0.6578 -1.0095  0.2273
  518MOL0     H69899   2.583   9.368   7.661  0.0207 -0.0614  0.2942
  518MOL0     H69900   2.399   9.464   7.765 -0.0138  1.0516 -0.5072
  518MOL0     H69901   2.286   9.366   7.664 -1.0877  1.6872 -1.3965
  518MOL0     H69902   2.431   9.621   7.626  2.1229 -0.8903  0.3403
  518MOL0     H69903   2.481   9.521   7.503  0.7355  2.6357  0.4903
  518MOL0     H69904   2.199   9.615   7.561 -1.6449 -3.3899  0.5728
  518MOL0     H69905   2.218   9.453   7.483  2.6357 -1.3509 -0.7798
  518MOL0     H69906   2.304   9.717   7.371  2.7029 -0.8687 -2.6798
  518MOL0     H69907   2.364   9.589   7.301  0.6727  0.6119  0.0765
  518MOL0     H69908   2.056   9.647   7.314 -0.2335 -2.7061  1.8989
  518MOL0     H69909   2.126   9.489   7.278 -0.6600 -0.0846  3.5482
  518MOL0     H69910   2.133   9.770   7.162  1.4522  0.6744  3.1661
  518MOL0     H69911   2.060   9.625   7.085  0.2483  0.8520  0.8863
  518MOL0     H69912   2.853   9.049   7.496 -2.3248  0.7230  1.6618
  518MOL0     H69913   2.950   8.977   7.269  0.6359  0.4893  2.4861
  518MOL0     H69914   2.761   8.942   6.821  0.6328  0.6283  0.2008
  518MOL0     H69915   2.688   8.805   6.614 -0.0499 -1.8360 -0.2337
  518MOL0     H69916   2.324   8.374   6.382 -2.3395 -2.1776 -0.1508
  518MOL0     H69917   2.450   8.369   6.598  1.2415 -1.2898  1.4794
  518MOL0     H69918   2.517   8.159   7.063  0.2431 -3.0258 -0.2945
  518MOL0     H69919   2.669   8.198   7.252  5.1412  2.7888  0.6362
  518MOL0     H69920   3.121   8.237   7.144  2.3094  1.0323  0.5379
  518MOL0     H69921   3.021   8.368   7.226 -0.6315 -1.1291 -1.7220
  518MOL0     H69922   3.168   8.148   7.370 -0.3542  0.1343  0.5332
  518MOL0     H69923   3.049   8.254   7.444 -1.2147 -0.8936 -0.6118
  518MOL0     H69924   3.188   8.454   7.402 -0.0150 -0.1613 -2.4319
  518MOL0     H69925   3.265   8.381   7.268  1.8886 -3.4250  0.3732
  518MOL0     H69926   3.334   8.338   7.556 -0.3002 -1.8568 -0.2327
  518MOL0     H69927   3.426   8.425   7.443 -1.2363  0.0739  2.6303
  518MOL0     H69928   3.528   8.046   7.294  0.3788  0.3370  0.0645
  518MOL0     H69929   2.990   8.186   6.964  0.7058  0.3474 -0.2013
  518MOL0     H69930   2.859   8.190   6.796  3.7266  2.2196  1.8368
  519MOL0     O69931   2.398   6.551   2.500 -0.1001  0.2345  0.0427
  519MOL0     C69932   2.407   6.479   2.402 -0.3582 -0.1944  0.4482
  519MOL0     O69933   2.506   6.494   2.311 -0.3605  0.3531  0.3472
  519MOL0     C69934   2.599   6.591   2.340 -0.6376  0.3816 -0.1708
  519MOL0     C69935   2.678   6.592   2.458  0.4525 -1.0533 -0.4162
  519MOL0     C69936   2.783   6.683   2.458  0.0329 -0.2554 -0.5504
  519MOL0     C69937   2.829   6.755   2.345  0.0523  0.1981 -0.5264
  519MOL0     O69938   2.949   6.828   2.349  0.2300 -0.4924  0.3403
  519MOL0     C69939   2.938   6.946   2.283  0.3806  0.0726  0.4043
  519MOL0     C69940   3.047   7.050   2.327  0.6921  1.0448  0.3010
  519MOL0     C69941   3.152   7.065   2.210  0.0860 -0.0068  0.8258
  519MOL0     C69942   3.286   7.074   2.286  0.4309  0.4618  1.0516
  519MOL0     C69943   3.401   7.120   2.202 -0.1779  0.2425  1.0692
  519MOL0     C69944   3.508   7.185   2.283  0.2443  1.1578  1.0848
  519MOL0     C69945   3.648   7.210   2.230 -0.7969  0.2142 -0.0183
  519MOL0     C69946   3.734   7.081   2.202  0.5017 -0.0635  0.1247
  519MOL0     N69947   3.702   7.018   2.070  0.3001 -0.0928 -0.9228
  519MOL0     C69948   3.756   7.058   1.949 -1.0681 -0.1860 -0.6193
  519MOL0     C69949   3.729   6.952   1.863 -0.1042  1.0001 -0.0599
  519MOL0     C69950   3.739   6.949   1.716  0.3988  0.6785  0.2176
  519MOL0     C69951   3.832   6.836   1.673 -0.4933  0.0816  0.4764
  519MOL0     C69952   3.745   6.699   1.655 -0.2787  0.9257  0.0190
  519MOL0     C69953   3.842   6.591   1.608 -0.8869  0.0735  0.6272
  519MOL0     O69954   3.878   6.596   1.463 -0.0982  0.2603  1.0391
  519MOL0     C69955   3.787   6.554   1.368  0.1157  0.3217  0.3486
  519MOL0     C69956   3.822   6.563   1.236 -0.6234  0.5348 -0.2337
  519MOL0     C69957   3.734   6.519   1.131  0.2292  0.2817  0.3592
  519MOL0     C69958   3.797   6.496   0.996  0.4031 -0.1279  0.8469
  519MOL0     C69959   3.601   6.480   1.164  0.5521  1.0353 -0.1571
  519MOL0     C69960   3.501   6.431   1.063  0.0131  0.0237 -0.0719
  519MOL0     O69961   3.400   6.359   1.116  0.2539  0.1330 -0.3236
  519MOL0     C69962   3.300   6.309   1.032  0.0701  0.3737 -1.0135
  519MOL0     C69963   3.219   6.382   0.949 -0.2026  0.8119 -0.1285
  519MOL0     C69964   3.115   6.322   0.875  0.4273  0.9136 -0.0548
  519MOL0     C69965   3.095   6.178   0.885  0.3858 -0.1018 -1.1623
  519MOL0     O69966   3.008   6.130   0.800 -0.2703  0.2105  0.8006
  519MOL0     C69967   2.942   6.008   0.837  0.1839  0.1081  0.2782
  519MOL0     C69968   2.838   5.963   0.731 -0.8407  0.3925  0.2544
  519MOL0     C69969   2.763   5.837   0.778 -0.0392 -0.1756 -0.1223
  519MOL0     C69970   2.657   5.878   0.879 -0.6877  0.1413 -0.2592
  519MOL0     C69971   2.555   5.767   0.866 -0.1130 -0.2169  0.0841
  519MOL0     C69972   2.437   5.767   0.961 -0.0005 -0.5745 -0.1085
  519MOL0     C69973   2.344   5.649   0.925  0.0626  0.1185  0.3572
  519MOL0     C69974   2.231   5.638   1.036 -0.7151 -1.4802 -0.2329
  519MOL0    Cl69975   2.122   5.509   0.994  0.2356 -0.6000  0.3751
  519MOL0     C69976   3.164   6.111   0.982 -0.5665 -0.0576 -0.8321
  519MOL0     C69977   3.266   6.170   1.052 -0.3966  0.1390  0.3028
  519MOL0     O69978   3.514   6.464   0.945  0.1164  0.0937  0.1625
  519MOL0     C69979   3.568   6.479   1.298 -0.0664 -0.9417  0.0798
  519MOL0     C69980   3.655   6.514   1.398 -0.1172  0.6674 -0.6077
  519MOL0     N69981   3.654   6.857   1.930  1.1802 -0.3410 -0.1950
  519MOL0     N69982   3.637   6.898   2.052 -0.0448 -0.1101  0.3256
  519MOL0     C69983   2.745   6.745   2.231 -0.8276 -0.1821 -0.1705
  519MOL0     C69984   2.635   6.666   2.237  0.0469 -0.0663 -0.7088
  519MOL0     C69985   2.303   6.383   2.385 -0.0403  0.0951  0.6433
  519MOL0     C69986   2.243   6.327   2.497  0.6235 -0.2300  0.7166
  519MOL0     C69987   2.144   6.227   2.473 -0.8825 -0.7461  0.8769
  519MOL0     C69988   2.107   6.189   2.340 -0.4836  0.4822 -0.0552
  519MOL0     O69989   2.008   6.102   2.311  0.0587 -0.3759 -0.0446
  519MOL0     C69990   1.923   6.049   2.421 -0.7366 -0.1862  0.6601
  519MOL0     C69991   1.785   5.992   2.375  0.5538 -0.3375  0.4569
  519MOL0     C69992   1.676   6.097   2.364 -0.5014 -0.8158 -1.0235
  519MOL0     C69993   1.546   6.064   2.289  0.4381 -0.6108 -0.0916
  519MOL0     C69994   1.479   5.936   2.334  0.4295 -0.2723  0.0193
  519MOL0     C69995   1.402   5.845   2.364 -0.3275  0.0016  0.5298
  519MOL0     C69996   2.180   6.241   2.235 -0.7188  0.2107  0.6311
  519MOL0     C69997   2.279   6.340   2.256 -0.6594  0.5267 -0.6505
  519MOL0     H69998   2.655   6.533   2.546 -0.3954  1.1434  0.8947
  519MOL0     H69999   2.829   6.695   2.555 -2.4951 -1.2011  0.8722
  519MOL0     H70000   2.954   6.915   2.179  1.1317 -0.0043  0.5347
  519MOL0     H70001   2.841   6.997   2.286  0.6800  0.6220  1.0459
  519MOL0     H70002   2.992   7.143   2.344  0.0388  0.5350  1.0096
  519MOL0     H70003   3.098   7.023   2.419  2.3515  0.0102 -0.8647
  519MOL0     H70004   3.149   6.989   2.131 -0.1251  1.8877 -1.1045
  519MOL0     H70005   3.137   7.162   2.162 -0.9713 -0.2658  0.6257
  519MOL0     H70006   3.263   7.133   2.375 -2.0632  0.4956  0.4548
  519MOL0     H70007   3.325   6.978   2.322  3.3854  0.8010 -0.8752
  519MOL0     H70008   3.460   7.051   2.141  3.5635  4.4471 -0.6777
  519MOL0     H70009   3.367   7.189   2.124 -0.3036  0.8084  1.6127
  519MOL0     H70010   3.469   7.283   2.311 -2.2482  0.4374  0.3766
  519MOL0     H70011   3.534   7.127   2.372  2.7085  2.5412  1.3475
  519MOL0     H70012   3.632   7.270   2.139 -2.5706  2.5491  1.7217
  519MOL0     H70013   3.705   7.278   2.293  1.0027 -0.5439 -0.7508
  519MOL0     H70014   3.716   7.012   2.286  0.7684 -0.3193 -0.0268
  519MOL0     H70015   3.842   7.085   2.220  0.2053 -3.4557  4.7418
  519MOL0     H70016   3.818   7.146   1.933  0.1080 -0.4945  1.8671
  519MOL0     H70017   3.640   6.936   1.673 -0.5161 -1.5955  2.7416
  519MOL0     H70018   3.772   7.045   1.675 -0.5362  0.5231 -0.9330
  519MOL0     H70019   3.910   6.817   1.747  1.8719  2.0527 -1.3244
  519MOL0     H70020   3.890   6.866   1.585 -1.0313  2.5354  0.8915
  519MOL0     H70021   3.673   6.717   1.575 -1.8442  1.0988  1.4174
  519MOL0     H70022   3.687   6.657   1.737 -1.2373 -3.5217 -2.6135
  519MOL0     H70023   3.795   6.493   1.622 -1.4867 -0.0590 -1.7905
  519MOL0     H70024   3.940   6.582   1.657  0.4749  0.5301 -1.8343
  519MOL0     H70025   3.923   6.593   1.211  0.5552 -1.7365  1.4938
  519MOL0     H70026   3.768   6.396   0.962 -1.0518 -0.3680  2.6575
  519MOL0     H70027   3.750   6.568   0.928  0.5594 -0.5021  0.3383
  519MOL0     H70028   3.904   6.521   0.995  0.6241 -1.0365  0.4362
  519MOL0     H70029   3.240   6.487   0.935  0.8232  0.5530 -0.6451
  519MOL0     H70030   3.046   6.373   0.809 -0.0797 -2.8426 -2.7348
  519MOL0     H70031   3.010   5.924   0.850  0.7949  0.6814  0.9137
  519MOL0     H70032   2.887   6.018   0.931 -0.0661 -2.2818  0.4339
  519MOL0     H70033   2.769   6.041   0.699 -2.5789 -0.2748  2.1423
  519MOL0     H70034   2.893   5.934   0.641 -1.6906 -0.1332 -0.1012
  519MOL0     H70035   2.829   5.771   0.835 -1.6947 -1.2556  0.5864
  519MOL0     H70036   2.727   5.785   0.689  0.3859 -1.5974  0.5067
  519MOL0     H70037   2.697   5.879   0.981 -0.6154  1.9390 -0.2744
  519MOL0     H70038   2.614   5.977   0.863  0.7520  0.5476 -1.8839
  519MOL0     H70039   2.597   5.668   0.888 -0.3991 -0.2129  0.6898
  519MOL0     H70040   2.512   5.780   0.767 -3.4641  1.8445  1.6241
  519MOL0     H70041   2.477   5.750   1.062  0.8505  3.4496  0.4291
  519MOL0     H70042   2.385   5.862   0.946 -1.8459 -1.9204 -3.0953
  519MOL0     H70043   2.403   5.558   0.938  1.3035  0.6681 -1.2042
  519MOL0     H70044   2.309   5.670   0.824  2.4470 -0.0012 -0.5488
  519MOL0     H70045   2.170   5.726   1.019 -1.3852 -2.0395 -0.7928
  519MOL0     H70046   2.264   5.632   1.140  0.4353  0.9993 -0.3799
  519MOL0     H70047   3.156   6.004   1.002 -3.3712  0.3717  0.9285
  519MOL0     H70048   3.320   6.104   1.118 -2.9470 -0.4846  1.9184
  519MOL0     H70049   3.468   6.454   1.330  0.6159 -1.9164  1.5498
  519MOL0     H70050   3.622   6.509   1.501 -1.7551  3.3291 -0.9075
  519MOL0     H70051   2.773   6.791   2.136  1.3570  0.0497  0.5398
  519MOL0     H70052   2.572   6.656   2.149 -1.9603  4.1233  0.0039
  519MOL0     H70053   2.271   6.366   2.594 -1.2016 -2.6209  2.3208
  519MOL0     H70054   2.096   6.188   2.563 -0.8744  1.6882  2.0272
  519MOL0     H70055   1.975   5.964   2.466 -0.4836  0.8321  2.4064
  519MOL0     H70056   1.908   6.122   2.502  1.3223 -3.4298  4.3093
  519MOL0     H70057   1.745   5.918   2.446 -0.9339  1.2285  1.3522
  519MOL0     H70058   1.792   5.940   2.279  0.1657 -0.8102  0.6773
  519MOL0     H70059   1.709   6.197   2.332 -0.6899 -0.0666  0.9634
  519MOL0     H70060   1.654   6.114   2.470 -2.0222  2.1844 -1.7012
  519MOL0     H70061   1.558   6.060   2.180 -2.5045  2.0176 -0.6739
  519MOL0     H70062   1.474   6.145   2.306 -0.2525 -1.5453  1.6693
  519MOL0     H70063   1.326   5.774   2.393  0.4579 -0.7280  0.8436
  519MOL0     H70064   2.161   6.200   2.137 -0.4883  0.6840  0.3850
  519MOL0     H70065   2.328   6.382   2.169  0.7724  2.1933  0.8638
  520MOL0     O70066   4.472   1.924   2.777  0.3140  0.5890  0.7786
  520MOL0     C70067   4.376   1.875   2.836 -0.2368 -0.1594 -0.4701
  520MOL0     O70068   4.273   1.952   2.892 -0.0585  0.4475 -0.7580
  520MOL0     C70069   4.288   2.079   2.916 -0.8018  0.6899 -0.3741
  520MOL0     C70070   4.284   2.106   3.053  0.1756 -0.1765 -0.3216
  520MOL0     C70071   4.325   2.229   3.098 -0.6908  0.4312 -0.0100
  520MOL0     C70072   4.358   2.330   3.000 -0.5669  0.6503 -0.9874
  520MOL0     O70073   4.410   2.454   3.037 -0.1869 -0.1516 -0.5096
  520MOL0     C70074   4.317   2.519   3.137  0.5127 -0.3679 -0.2555
  520MOL0     C70075   4.318   2.671   3.130  0.6573  0.2318  0.3669
  520MOL0     C70076   4.257   2.707   2.987 -0.0244  0.6644  0.1613
  520MOL0     C70077   4.121   2.646   2.950  0.1893 -0.7584 -0.3261
  520MOL0     C70078   4.083   2.717   2.818 -0.5517  0.4447 -0.0906
  520MOL0     C70079   4.047   2.863   2.816 -0.2303  0.4142 -0.6804
  520MOL0     C70080   3.980   2.902   2.684  0.6458 -1.2187  0.3678
  520MOL0     C70081   3.929   3.047   2.685 -0.2081  0.5345 -0.6628
  520MOL0     N70082   3.825   3.096   2.589  0.6751 -0.1468  0.5412
  520MOL0     C70083   3.713   3.024   2.535 -0.5098 -0.7037  0.2601
  520MOL0     C70084   3.656   3.118   2.453  0.4520 -0.0643 -0.8119
  520MOL0     C70085   3.543   3.068   2.366 -0.3937  1.0142 -0.2786
  520MOL0     C70086   3.407   3.088   2.422  0.2607  0.4033 -0.8502
  520MOL0     C70087   3.332   3.223   2.385  0.6592  0.7816  0.8070
  520MOL0     C70088   3.263   3.200   2.250 -0.1043 -0.0823 -0.6033
  520MOL0     O70089   3.142   3.122   2.255  0.3051 -0.2984 -0.5195
  520MOL0     C70090   3.105   3.074   2.130  0.4603  0.0323  0.2387
  520MOL0     C70091   2.976   3.101   2.090 -0.6566  0.9963 -0.1918
  520MOL0     C70092   2.918   3.047   1.977 -0.4233 -0.1951 -0.2831
  520MOL0     C70093   2.775   3.097   1.940 -0.9819 -1.1396 -0.1845
  520MOL0     C70094   3.000   2.954   1.896 -0.3274 -0.2852 -0.2073
  520MOL0     C70095   2.956   2.899   1.766  0.4023  1.0922  0.1909
  520MOL0     O70096   3.048   2.865   1.671 -0.2718 -0.2603 -0.2560
  520MOL0     C70097   2.994   2.832   1.548 -0.5494  0.1639 -0.0314
  520MOL0     C70098   2.986   2.701   1.504  0.2671 -0.4668 -0.1542
  520MOL0     C70099   2.952   2.672   1.374  0.1958  0.6987 -0.1866
  520MOL0     C70100   2.916   2.774   1.276  0.0254 -0.2150 -0.0995
  520MOL0     O70101   2.886   2.734   1.146 -0.3180  0.2804 -0.0845
  520MOL0     C70102   2.881   2.847   1.055  0.1870  0.8668 -0.5158
  520MOL0     C70103   2.849   2.782   0.916 -0.4697  0.0740  0.4078
  520MOL0     C70104   2.935   2.665   0.869  0.3092  0.4109 -0.0843
  520MOL0     C70105   3.080   2.691   0.873 -0.7130 -1.2416 -0.1915
  520MOL0     C70106   3.163   2.586   0.794 -0.3108  0.0301  0.3909
  520MOL0     C70107   3.311   2.579   0.818 -0.3451  0.8783  0.7331
  520MOL0     C70108   3.392   2.532   0.694 -0.8794  0.3044  0.0222
  520MOL0     C70109   3.474   2.656   0.642 -0.1199 -0.2449  0.4454
  520MOL0    Cl70110   3.362   2.756   0.543 -0.3081 -0.3250 -0.0997
  520MOL0     C70111   2.906   2.906   1.333 -0.1370 -0.1403 -0.2911
  520MOL0     C70112   2.953   2.932   1.462  0.3128 -0.8107  0.4423
  520MOL0     O70113   2.836   2.871   1.759 -0.2117  0.4934 -0.0353
  520MOL0     C70114   3.138   2.930   1.936  0.4712 -0.2779  0.3822
  520MOL0     C70115   3.184   2.988   2.050  0.6442 -0.1529 -0.4067
  520MOL0     N70116   3.731   3.237   2.458  0.5901 -0.5073  0.0234
  520MOL0     N70117   3.819   3.225   2.536 -0.5041 -0.0871 -0.7871
  520MOL0     C70118   4.361   2.295   2.865 -0.6790  0.4846 -0.7329
  520MOL0     C70119   4.317   2.172   2.825  0.0240  0.4563  0.2890
  520MOL0     C70120   4.363   1.736   2.851 -0.6496  0.0416 -0.0923
  520MOL0     C70121   4.243   1.681   2.906  0.9373 -0.0539  0.2240
  520MOL0     C70122   4.231   1.548   2.927  0.8411 -0.1646  0.1259
  520MOL0     C70123   4.335   1.452   2.883  0.2657  0.1437  0.6142
  520MOL0     O70124   4.311   1.317   2.900 -0.3938 -0.8133 -0.1599
  520MOL0     C70125   4.212   1.268   2.811 -0.1608  0.5105 -0.1685
  520MOL0     C70126   4.289   1.185   2.717  0.1418  0.2345 -0.0481
  520MOL0     C70127   4.330   1.048   2.775  0.0266 -1.4507 -0.4572
  520MOL0     C70128   4.352   0.930   2.677 -0.0399 -0.1521 -0.3614
  520MOL0     C70129   4.463   0.954   2.581 -0.0639  0.0790 -0.0533
  520MOL0     C70130   4.559   0.960   2.514  0.4009  0.1303 -0.2672
  520MOL0     C70131   4.447   1.507   2.824 -0.3093  0.4541  0.5233
  520MOL0     C70132   4.466   1.646   2.814 -0.8814  0.4334 -0.5950
  520MOL0     H70133   4.258   2.027   3.123  2.4241  0.6613  1.5806
  520MOL0     H70134   4.328   2.233   3.207  0.0629 -0.8181  0.0281
  520MOL0     H70135   4.215   2.480   3.136 -0.5555  2.2505 -0.5051
  520MOL0     H70136   4.363   2.486   3.231  2.2531 -0.5829 -1.1463
  520MOL0     H70137   4.261   2.716   3.212  4.1897 -1.0156  3.8214
  520MOL0     H70138   4.422   2.707   3.126  0.0812  1.9146 -0.8593
  520MOL0     H70139   4.243   2.816   2.992  0.5146  0.7784 -0.6527
  520MOL0     H70140   4.323   2.679   2.905 -0.3115  1.2931 -0.3004
  520MOL0     H70141   4.137   2.538   2.940  1.0121 -0.8319  1.4584
  520MOL0     H70142   4.059   2.673   3.036  0.4963 -0.0157 -0.3361
  520MOL0     H70143   4.151   2.701   2.733 -1.3265 -0.0507 -0.6327
  520MOL0     H70144   3.993   2.663   2.787 -1.4829  1.2972  1.0515
  520MOL0     H70145   3.982   2.880   2.902 -0.6340 -1.0557 -0.6767
  520MOL0     H70146   4.135   2.927   2.829  0.6165 -0.7292 -0.6666
  520MOL0     H70147   4.046   2.908   2.597 -1.1274  1.0666 -0.9299
  520MOL0     H70148   3.902   2.829   2.663  1.1264 -1.7894  0.5330
  520MOL0     H70149   4.013   3.115   2.695 -1.5990  2.0442  1.8726
  520MOL0     H70150   3.891   3.070   2.785  1.8044  3.8962 -0.5267
  520MOL0     H70151   3.683   2.922   2.554 -0.6214 -1.0892 -1.6927
  520MOL0     H70152   3.544   3.126   2.274  0.6266  2.4019  0.5738
  520MOL0     H70153   3.561   2.963   2.343  2.1248  1.4562 -0.5548
  520MOL0     H70154   3.416   3.082   2.531 -1.3831  0.1763 -0.6973
  520MOL0     H70155   3.346   3.003   2.390  1.0726  0.4115 -2.5242
  520MOL0     H70156   3.405   3.304   2.379 -0.4862  1.7470 -0.6232
  520MOL0     H70157   3.269   3.251   2.470  0.5977  1.3421  0.5779
  520MOL0     H70158   3.339   3.164   2.180  1.4065  0.3872  0.7394
  520MOL0     H70159   3.239   3.301   2.214  1.0605  1.4031  2.4740
  520MOL0     H70160   2.917   3.172   2.147  0.4362  1.2939  0.6129
  520MOL0     H70161   2.717   3.101   2.032 -0.1633 -2.8100  0.4489
  520MOL0     H70162   2.779   3.201   1.905  3.3150 -0.2206  2.3390
  520MOL0     H70163   2.713   3.039   1.871  1.3841 -0.7172 -2.8958
  520MOL0     H70164   3.037   2.624   1.561  0.8951 -0.1116 -0.2372
  520MOL0     H70165   2.968   2.571   1.337 -1.8447  1.4402 -3.5116
  520MOL0     H70166   2.799   2.915   1.079  0.2868  0.6770  0.4016
  520MOL0     H70167   2.980   2.893   1.042  1.0808 -1.0549 -0.8043
  520MOL0     H70168   2.746   2.746   0.924 -0.9154  1.6665  4.6575
  520MOL0     H70169   2.851   2.853   0.833  0.1058 -0.8042 -0.3509
  520MOL0     H70170   2.922   2.657   0.760  2.9271 -0.0046 -0.4535
  520MOL0     H70171   2.918   2.576   0.930  0.4617  1.1235  1.0089
  520MOL0     H70172   3.100   2.793   0.839 -0.7229 -0.5638  1.7505
  520MOL0     H70173   3.099   2.688   0.980 -1.1568  0.3254 -0.0507
  520MOL0     H70174   3.154   2.579   0.685  0.4421 -0.3374  0.3434
  520MOL0     H70175   3.121   2.494   0.836 -0.4058  0.5610  1.4963
  520MOL0     H70176   3.341   2.683   0.837  2.5480  0.2354  0.1608
  520MOL0     H70177   3.336   2.513   0.901  2.1792  1.0750  0.2139
  520MOL0     H70178   3.337   2.492   0.608  1.1552 -0.6663 -0.8891
  520MOL0     H70179   3.462   2.459   0.737  0.0084  2.2038  2.0359
  520MOL0     H70180   3.544   2.604   0.576 -1.5320  0.8841 -2.1013
  520MOL0     H70181   3.526   2.714   0.718 -0.1314 -1.0359  1.0600
  520MOL0     H70182   2.889   2.979   1.253  2.8279 -0.9740 -1.8289
  520MOL0     H70183   2.953   3.038   1.486  1.5706 -0.7156  0.0655
  520MOL0     H70184   3.207   2.868   1.880  0.0270  0.0779 -0.5836
  520MOL0     H70185   3.287   2.967   2.079 -0.5956 -2.0666  3.3019
  520MOL0     H70186   4.415   2.361   2.798  0.6156  0.8695  0.6512
  520MOL0     H70187   4.328   2.166   2.717 -0.0080 -0.7420  0.3414
  520MOL0     H70188   4.160   1.746   2.932 -0.6895 -2.5435  1.6537
  520MOL0     H70189   4.140   1.507   2.968  1.5503 -1.5192  0.4263
  520MOL0     H70190   4.135   1.216   2.868  0.0177  0.9125  0.4566
  520MOL0     H70191   4.167   1.339   2.741 -1.5127 -1.8815 -1.8729
  520MOL0     H70192   4.378   1.231   2.673  1.8747 -2.9026 -0.1492
  520MOL0     H70193   4.218   1.165   2.637 -1.4792  4.1339  0.1815
  520MOL0     H70194   4.255   1.024   2.851 -1.7166  2.3700 -0.7264
  520MOL0     H70195   4.427   1.061   2.824 -0.0116  2.2024 -1.0899
  520MOL0     H70196   4.251   0.911   2.639 -0.8496 -0.5442  1.8041
  520MOL0     H70197   4.384   0.837   2.724  4.6281  1.8577  1.0356
  520MOL0     H70198   4.653   0.977   2.464  3.0785  1.6124  4.5538
  520MOL0     H70199   4.522   1.447   2.773  0.9565  3.6672 -1.7653
  520MOL0     H70200   4.562   1.685   2.783  0.9704  0.7676  4.6010
  521MOL0     O70201   7.386  10.736   2.364 -0.1581 -0.1354  0.0177
  521MOL0     C70202   7.459  10.835   2.394  0.1080 -0.2349  0.5616
  521MOL0     O70203   7.590  10.829   2.421 -0.4151  0.2772  0.1054
  521MOL0     C70204   7.668  10.715   2.419 -1.0283  0.3712  0.3434
  521MOL0     C70205   7.811  10.740   2.380  1.0873  0.0931 -0.5740
  521MOL0     C70206   7.902  10.640   2.342 -0.4507 -0.2807  1.9474
  521MOL0     C70207   7.860  10.506   2.345  0.1287  1.0225  0.2229
  521MOL0     O70208   7.956  10.412   2.309 -0.2350 -0.2575  0.2329
  521MOL0     C70209   7.973  10.312   2.410  0.2088 -0.1834 -1.0311
  521MOL0     C70210   8.107  10.232   2.378 -0.0950 -0.6301  0.1792
  521MOL0     C70211   8.150  10.141   2.496 -0.3896  0.6740  0.8377
  521MOL0     C70212   8.267  10.044   2.453  0.2000 -0.3273  0.3193
  521MOL0     C70213   8.242   9.964   2.325  0.0422  0.2176 -0.9483
  521MOL0     C70214   8.345   9.849   2.345 -0.5400  0.4300 -0.6702
  521MOL0     C70215   8.343   9.742   2.237  0.4805  0.0851  0.0645
  521MOL0     C70216   8.441   9.629   2.274 -0.8153  0.4662  0.3098
  521MOL0     N70217   8.453   9.535   2.164 -0.2641  0.1503 -0.3582
  521MOL0     C70218   8.545   9.427   2.165 -0.7430  0.2240 -0.7000
  521MOL0     C70219   8.548   9.389   2.039 -0.2317 -0.5227 -0.1839
  521MOL0     C70220   8.642   9.278   1.986  1.3329 -0.4256  0.4412
  521MOL0     C70221   8.795   9.302   1.988 -0.7564  0.3228  0.1792
  521MOL0     C70222   8.881   9.173   1.982  0.4799  0.0409  0.4468
  521MOL0     C70223   9.031   9.213   1.995 -0.7179  0.7402  0.0072
  521MOL0     O70224   9.054   9.257   2.130 -0.3701 -0.3609  0.5774
  521MOL0     C70225   9.178   9.259   2.176  0.5137  0.4686  0.3936
  521MOL0     C70226   9.192   9.291   2.310 -0.2953  0.0433 -0.9027
  521MOL0     C70227   9.317   9.284   2.376 -0.0995 -0.3640  0.2820
  521MOL0     C70228   9.316   9.295   2.525  0.2437 -0.2060 -0.6086
  521MOL0     C70229   9.439   9.250   2.308  1.4199  0.1802 -0.1229
  521MOL0     C70230   9.567   9.236   2.372  0.0504 -0.7871 -0.8023
  521MOL0     O70231   9.675   9.258   2.284 -0.4333  0.7977 -0.2219
  521MOL0     C70232   9.787   9.174   2.303 -0.2037 -0.0183  0.4493
  521MOL0     C70233   9.808   9.059   2.230 -0.2317  0.6606  0.1783
  521MOL0     C70234   9.933   8.986   2.232 -0.0237 -0.3375 -0.1134
  521MOL0     C70235  10.025   9.014   2.338 -0.5894  0.2989 -0.0411
  521MOL0     O70236  10.127   8.924   2.362 -0.2187  0.1077  0.6579
  521MOL0     C70237  10.208   8.926   2.483 -0.7937  0.2786 -0.9263
  521MOL0     C70238  10.339   8.886   2.426 -0.4513  0.4259 -0.4444
  521MOL0     C70239  10.455   8.870   2.524 -0.0624 -0.1213 -0.2745
  521MOL0     C70240  10.498   9.000   2.601 -0.4824 -0.1669  0.1702
  521MOL0     C70241  10.627   8.980   2.683 -0.1876 -0.2597  0.1381
  521MOL0     C70242  10.675   9.121   2.719  0.2938 -0.2812  0.0713
  521MOL0     C70243  10.594   9.205   2.823  0.7760 -0.2233  1.0246
  521MOL0     C70244  10.653   9.343   2.846 -0.7966  0.6488 -0.7679
  521MOL0    Cl70245  10.818   9.316   2.932 -0.1882 -0.1752 -0.0562
  521MOL0     C70246   9.993   9.127   2.415 -1.0068  0.0036 -0.6764
  521MOL0     C70247   9.872   9.199   2.404 -0.8832 -0.4213  1.2351
  521MOL0     O70248   9.568   9.161   2.474 -0.2393 -0.2766 -0.0847
  521MOL0     C70249   9.417   9.220   2.170  0.0036  1.1999 -0.2108
  521MOL0     C70250   9.294   9.227   2.099  1.0853 -0.0666 -0.4690
  521MOL0     N70251   8.446   9.440   1.961  0.4042  0.8455  0.7692
  521MOL0     N70252   8.396   9.535   2.039 -0.0963  0.4495  0.8845
  521MOL0     C70253   7.727  10.473   2.388 -0.8615 -0.5112 -0.4421
  521MOL0     C70254   7.628  10.575   2.416  0.1897 -0.3964 -0.3480
  521MOL0     C70255   7.406  10.973   2.362 -0.5160  0.2329  0.5580
  521MOL0     C70256   7.469  11.073   2.295 -1.5799  0.2040  0.3846
  521MOL0     C70257   7.425  11.205   2.280  0.9450  0.2173  0.6320
  521MOL0     C70258   7.300  11.241   2.342 -0.8353 -0.2791  0.6860
  521MOL0     O70259   7.274  11.376   2.321 -0.5781  0.2526 -0.2184
  521MOL0     C70260   7.132  11.413   2.339 -1.1835  0.0676 -1.2688
  521MOL0     C70261   7.101  11.539   2.262  0.8394  0.0327 -0.1780
  521MOL0     C70262   6.951  11.570   2.250 -0.4318 -0.4703  0.5061
  521MOL0     C70263   6.883  11.566   2.387 -0.5714  0.0995  0.8332
  521MOL0     C70264   6.745  11.620   2.379 -0.7229 -0.0646 -0.2683
  521MOL0     C70265   6.634  11.658   2.386  0.0152  0.1838 -1.4252
  521MOL0     C70266   7.220  11.139   2.393  0.2978 -0.2453  0.3344
  521MOL0     C70267   7.275  11.013   2.410  0.1448  0.3160  0.6271
  521MOL0     H70268   7.839  10.845   2.382 -4.0738  1.7199 -1.0365
  521MOL0     H70269   8.002  10.672   2.312 -0.3961 -0.9274  1.4134
  521MOL0     H70270   7.995  10.352   2.509 -1.4792 -1.6774  0.0008
  521MOL0     H70271   7.890  10.242   2.407  0.6396 -0.7899  0.4191
  521MOL0     H70272   8.095  10.178   2.284  0.9692  0.1394 -0.4276
  521MOL0     H70273   8.194  10.298   2.366  1.0319 -2.0901  0.0638
  521MOL0     H70274   8.172  10.199   2.586 -0.0776  0.4856  0.8829
  521MOL0     H70275   8.061  10.090   2.534 -1.9218  2.9729  0.5463
  521MOL0     H70276   8.352  10.111   2.436 -1.3575  2.0812  1.4262
  521MOL0     H70277   8.299   9.984   2.538 -1.4664 -0.0620  1.1744
  521MOL0     H70278   8.138   9.931   2.318 -1.1502  3.7247 -2.0859
  521MOL0     H70279   8.252  10.026   2.236 -0.1551  2.1008  0.2816
  521MOL0     H70280   8.450   9.878   2.355  0.4354 -3.2346  1.6583
  521MOL0     H70281   8.308   9.808   2.439 -0.9121  2.5053  0.1312
  521MOL0     H70282   8.247   9.693   2.214 -0.4533  2.8377 -2.6320
  521MOL0     H70283   8.377   9.786   2.142 -1.1809  0.7975 -0.2525
  521MOL0     H70284   8.418   9.566   2.361  2.6560  1.7193  2.3353
  521MOL0     H70285   8.539   9.677   2.284 -1.1408  1.7015 -1.7891
  521MOL0     H70286   8.609   9.392   2.245 -0.2783  2.1532 -0.1565
  521MOL0     H70287   8.621   9.189   2.047 -2.6634  0.6247  0.8624
  521MOL0     H70288   8.607   9.261   1.884 -1.4489  1.6130  0.9219
  521MOL0     H70289   8.830   9.363   2.071  1.3587  0.5416 -0.8087
  521MOL0     H70290   8.818   9.351   1.893  2.2616 -1.3098 -0.0581
  521MOL0     H70291   8.858   9.137   1.882  0.6768 -2.0706  1.1237
  521MOL0     H70292   8.850   9.104   2.061  2.3548  0.4215  1.5763
  521MOL0     H70293   9.065   9.289   1.924  2.3870  0.7716  1.3602
  521MOL0     H70294   9.093   9.125   1.974 -2.7633 -0.6855 -0.3219
  521MOL0     H70295   9.106   9.326   2.366  0.9515  0.6183  0.6873
  521MOL0     H70296   9.288   9.203   2.577 -0.4961  1.5238  2.2797
  521MOL0     H70297   9.406   9.336   2.571 -1.0965  1.3702  0.7790
  521MOL0     H70298   9.234   9.358   2.560  0.1010 -0.9059  0.3515
  521MOL0     H70299   9.736   9.026   2.155  0.5400 -2.3380  0.6300
  521MOL0     H70300   9.955   8.913   2.155  2.1325 -0.2170  0.3445
  521MOL0     H70301  10.226   9.020   2.536 -0.7658 -0.9278  1.3480
  521MOL0     H70302  10.168   8.847   2.549 -0.4094 -0.1052 -1.1491
  521MOL0     H70303  10.325   8.796   2.366  1.8129 -0.6146  0.4426
  521MOL0     H70304  10.366   8.972   2.364 -2.5173  2.1569  0.9241
  521MOL0     H70305  10.540   8.839   2.464 -0.5392 -1.4252 -0.3036
  521MOL0     H70306  10.432   8.789   2.594  1.7485 -1.3655 -1.0512
  521MOL0     H70307  10.497   9.085   2.532 -0.3574  2.3291  3.0225
  521MOL0     H70308  10.421   9.013   2.678  0.6160  2.3812  0.9442
  521MOL0     H70309  10.703   8.929   2.621  0.1179  1.7928 -1.2924
  521MOL0     H70310  10.612   8.915   2.769  0.4327  0.4579  0.8001
  521MOL0     H70311  10.776   9.110   2.759 -0.3643 -0.9123  1.6408
  521MOL0     H70312  10.685   9.178   2.626  2.4522 -1.1735 -0.3016
  521MOL0     H70313  10.593   9.149   2.917  1.5110 -1.7352  0.1682
  521MOL0     H70314  10.495   9.218   2.780  0.5456 -2.7723  0.6485
  521MOL0     H70315  10.588   9.384   2.923 -0.6639 -1.6476  0.6423
  521MOL0     H70316  10.655   9.411   2.760 -1.1490  1.1289 -0.4012
  521MOL0     H70317  10.061   9.162   2.491 -2.3756 -2.1218  1.7016
  521MOL0     H70318   9.860   9.288   2.465  1.1864  0.0535  1.0494
  521MOL0     H70319   9.504   9.189   2.112  0.6442 -2.2195  2.2650
  521MOL0     H70320   9.298   9.217   1.991  0.2498 -0.5282 -0.4705
  521MOL0     H70321   7.693  10.373   2.413  1.0917 -0.8613  1.0724
  521MOL0     H70322   7.526  10.537   2.425 -0.6815  1.4875 -1.5993
  521MOL0     H70323   7.569  11.056   2.256 -2.6076  1.0234 -2.9251
  521MOL0     H70324   7.494  11.276   2.234 -1.5380  1.0429 -2.0904
  521MOL0     H70325   7.060  11.332   2.321 -0.7041 -0.9158  0.8197
  521MOL0     H70326   7.130  11.426   2.448 -1.2645 -0.2862 -1.2266
  521MOL0     H70327   7.152  11.534   2.166  1.6976 -1.3010  0.3264
  521MOL0     H70328   7.134  11.622   2.325  2.2358 -0.0675 -0.7494
  521MOL0     H70329   6.909  11.494   2.183 -0.0394 -0.3772  0.1487
  521MOL0     H70330   6.934  11.673   2.217 -0.5812 -1.1444 -1.6682
  521MOL0     H70331   6.946  11.622   2.457  1.4320 -0.5985 -0.3313
  521MOL0     H70332   6.870  11.458   2.403 -1.8563 -0.0310 -0.8245
  521MOL0     H70333   6.528  11.674   2.396  0.2566  0.9062  0.3251
  521MOL0     H70334   7.121  11.163   2.431  1.0491  3.2762  0.3735
  521MOL0     H70335   7.212  10.939   2.458 -1.4655  1.1542 -0.1490
  522MOL0     O70336   4.546   4.103   7.734  0.0346 -0.3042 -0.1636
  522MOL0     C70337   4.634   4.178   7.701 -0.6735  0.6704 -0.8998
  522MOL0     O70338   4.628   4.287   7.615  0.5070  0.4069 -0.8021
  522MOL0     C70339   4.503   4.292   7.548  0.0594  0.0709  0.0917
  522MOL0     C70340   4.429   4.407   7.558 -0.3943 -0.0880  0.1876
  522MOL0     C70341   4.309   4.418   7.495  0.9428 -0.9148 -0.2489
  522MOL0     C70342   4.262   4.319   7.410 -0.2748  0.6811 -0.1506
  522MOL0     O70343   4.143   4.341   7.342 -0.2404  0.4583  0.1582
  522MOL0     C70344   4.030   4.327   7.437  0.0389 -0.1756  0.4456
  522MOL0     C70345   3.902   4.311   7.355  0.1389 -0.3686  0.0283
  522MOL0     C70346   3.861   4.444   7.288 -0.0510 -0.2371 -0.5631
  522MOL0     C70347   3.712   4.439   7.232  0.7455 -0.1350 -1.0133
  522MOL0     C70348   3.670   4.572   7.166  0.3309 -0.3297  0.8013
  522MOL0     C70349   3.562   4.550   7.060  0.5884 -0.5237  0.6237
  522MOL0     C70350   3.553   4.679   6.982  0.1684  0.1599  1.1451
  522MOL0     C70351   3.436   4.679   6.878 -0.1741  0.2451 -0.5427
  522MOL0     N70352   3.406   4.806   6.803 -0.3963 -0.3662 -0.6851
  522MOL0     C70353   3.477   4.856   6.703 -0.2229  0.1874 -0.0693
  522MOL0     C70354   3.440   4.988   6.700 -0.1235  0.0836 -0.2360
  522MOL0     C70355   3.485   5.101   6.605  0.1692 -0.4350 -0.0619
  522MOL0     C70356   3.623   5.153   6.631  0.7433  0.1618 -0.5039
  522MOL0     C70357   3.625   5.263   6.736 -0.4972  0.0524 -0.7054
  522MOL0     C70358   3.770   5.309   6.777  0.2322  0.4385  0.1714
  522MOL0     O70359   3.834   5.362   6.662  0.0205  0.1685  0.3307
  522MOL0     C70360   3.963   5.409   6.676 -0.0880 -0.4975 -0.4862
  522MOL0     C70361   4.011   5.467   6.796  0.1796 -0.4022  0.2110
  522MOL0     C70362   4.131   5.542   6.808  1.2749 -0.4921 -0.2295
  522MOL0     C70363   4.170   5.601   6.942  0.9340 -0.6200 -0.8821
  522MOL0     C70364   4.214   5.557   6.691 -0.8265  1.0714 -0.3631
  522MOL0     C70365   4.344   5.620   6.683  0.4751 -0.8759 -0.3656
  522MOL0     O70366   4.418   5.577   6.573  0.5345  0.5479 -0.0812
  522MOL0     C70367   4.548   5.621   6.568  0.1045  0.1970  0.2406
  522MOL0     C70368   4.576   5.749   6.530 -0.2646  0.0951 -0.0584
  522MOL0     C70369   4.711   5.782   6.523  0.6600 -0.5948  0.0861
  522MOL0     C70370   4.814   5.684   6.555  1.2476 -0.0096  0.4863
  522MOL0     O70371   4.947   5.713   6.556  0.1096 -1.1665 -0.8004
  522MOL0     C70372   5.002   5.828   6.494  0.1383  0.6083 -0.3255
  522MOL0     C70373   5.146   5.829   6.528  0.9942  0.5438 -1.0106
  522MOL0     C70374   5.174   5.914   6.655 -0.3505 -1.0422  0.5489
  522MOL0     C70375   5.320   5.932   6.684 -0.4012 -0.4286 -1.0807
  522MOL0     C70376   5.371   6.074   6.671  0.0556  0.5457  1.0383
  522MOL0     C70377   5.377   6.122   6.527  0.8121  0.3040 -0.1428
  522MOL0     C70378   5.469   6.254   6.505  0.8431 -0.4195 -0.4868
  522MOL0     C70379   5.447   6.308   6.362  0.0366 -0.9195 -0.4621
  522MOL0    Cl70380   5.564   6.452   6.323  0.0740  0.1303 -0.2220
  522MOL0     C70381   4.783   5.550   6.582 -0.1058  0.2660 -0.1700
  522MOL0     C70382   4.647   5.518   6.578  0.2030  0.4866 -1.4404
  522MOL0     O70383   4.379   5.714   6.758 -0.8775  0.2333 -0.3385
  522MOL0     C70384   4.166   5.504   6.575  0.5432  0.0361 -0.9313
  522MOL0     C70385   4.044   5.432   6.568  0.6640  0.3011 -0.5607
  522MOL0     N70386   3.340   5.009   6.791  0.2737 -0.7384 -0.9198
  522MOL0     N70387   3.330   4.908   6.858 -0.3853 -0.2504  0.5126
  522MOL0     C70388   4.331   4.203   7.397  0.5735 -1.1474  0.0298
  522MOL0     C70389   4.451   4.191   7.467  0.1139 -0.5037 -0.1045
  522MOL0     C70390   4.770   4.134   7.741  0.2281  0.4687 -0.4431
  522MOL0     C70391   4.878   4.223   7.732  0.0653 -0.3765 -0.0109
  522MOL0     C70392   5.011   4.186   7.772  0.5977 -1.1384  0.8865
  522MOL0     C70393   5.044   4.067   7.832  0.1862  0.4481  0.5843
  522MOL0     O70394   5.170   4.019   7.863 -0.0799  0.3322  0.5539
  522MOL0     C70395   5.281   4.080   7.790  0.3166 -0.2580  0.5234
  522MOL0     C70396   5.287   4.061   7.643 -0.4805  0.7131  0.0718
  522MOL0     C70397   5.398   4.141   7.568  0.6943 -1.2610 -0.3203
  522MOL0     C70398   5.356   4.282   7.547  0.0257  0.0855 -0.3982
  522MOL0     C70399   5.231   4.300   7.467 -0.3758  0.9169  0.7372
  522MOL0     C70400   5.134   4.312   7.389 -0.1706 -0.2120 -0.8618
  522MOL0     C70401   4.932   3.972   7.841 -0.2528 -0.9242  0.5354
  522MOL0     C70402   4.801   4.000   7.788  0.9723 -0.2156 -0.5749
  522MOL0     H70403   4.467   4.484   7.623  2.3901 -3.1052  2.5006
  522MOL0     H70404   4.249   4.504   7.522 -0.6102 -1.8634 -0.5178
  522MOL0     H70405   4.036   4.236   7.497 -0.5912  0.1652  1.0415
  522MOL0     H70406   4.017   4.408   7.509  1.0620 -1.4743  2.1564
  522MOL0     H70407   3.904   4.235   7.276 -2.4729  0.7545 -1.2453
  522MOL0     H70408   3.822   4.288   7.426 -1.2791  0.4094 -1.2634
  522MOL0     H70409   3.865   4.520   7.367  0.4771  0.7035 -1.4854
  522MOL0     H70410   3.927   4.470   7.205  1.4591  1.0925  0.9701
  522MOL0     H70411   3.702   4.361   7.156  2.0542  0.1633 -1.5327
  522MOL0     H70412   3.654   4.413   7.320 -0.3563  2.1933 -0.9683
  522MOL0     H70413   3.641   4.634   7.250  0.6489 -1.1048  1.4945
  522MOL0     H70414   3.765   4.613   7.129  0.1082 -0.1155  0.4651
  522MOL0     H70415   3.598   4.469   6.997  0.2724 -1.5747  1.7569
  522MOL0     H70416   3.464   4.533   7.106  0.7533  2.4082  2.3469
  522MOL0     H70417   3.544   4.766   7.047  2.4797 -0.7516  2.8376
  522MOL0     H70418   3.644   4.694   6.923  0.0610  0.4418  1.0487
  522MOL0     H70419   3.345   4.655   6.934  0.1358  1.3267  0.4649
  522MOL0     H70420   3.442   4.603   6.799 -1.9407  0.5826 -1.0560
  522MOL0     H70421   3.543   4.804   6.635 -2.6944 -0.9476 -1.7545
  522MOL0     H70422   3.479   5.073   6.499  0.1533  0.8148 -0.4194
  522MOL0     H70423   3.416   5.185   6.621  1.7480  1.0647 -0.7186
  522MOL0     H70424   3.654   5.189   6.532  3.4637 -2.0610 -0.5935
  522MOL0     H70425   3.695   5.075   6.657  0.3018 -0.4489 -1.0838
  522MOL0     H70426   3.583   5.226   6.829  0.5299 -0.4724 -0.4371
  522MOL0     H70427   3.567   5.348   6.700  0.9071  0.8913 -1.0893
  522MOL0     H70428   3.835   5.233   6.822 -0.0190 -0.3057 -0.6766
  522MOL0     H70429   3.760   5.384   6.856 -0.8236  0.5901 -0.0912
  522MOL0     H70430   3.959   5.457   6.891  0.7483 -0.7249  0.4939
  522MOL0     H70431   4.237   5.540   7.003  4.2452  1.7344 -1.8656
  522MOL0     H70432   4.226   5.694   6.930  0.2737 -0.4600 -3.3896
  522MOL0     H70433   4.076   5.634   6.988 -0.0440  0.3365 -3.4079
  522MOL0     H70434   4.500   5.824   6.512 -0.2887  0.1211  0.1601
  522MOL0     H70435   4.728   5.888   6.510 -2.1265 -0.1977 -0.9754
  522MOL0     H70436   4.990   5.817   6.385  1.0404 -1.7247 -0.2455
  522MOL0     H70437   4.946   5.918   6.520 -1.4018  0.0481 -1.5161
  522MOL0     H70438   5.180   5.725   6.539 -2.3834 -0.6694 -0.9991
  522MOL0     H70439   5.199   5.881   6.448  0.1135  0.4842 -1.6402
  522MOL0     H70440   5.125   5.875   6.745 -2.1217 -1.0182 -0.3678
  522MOL0     H70441   5.145   6.019   6.644 -2.6688 -1.6805 -0.1024
  522MOL0     H70442   5.340   5.912   6.789  1.9385 -0.2726 -1.4440
  522MOL0     H70443   5.376   5.855   6.630  1.4491 -0.6958  1.0719
  522MOL0     H70444   5.472   6.061   6.711  0.8501 -2.7428 -1.5686
  522MOL0     H70445   5.314   6.143   6.733 -1.9798 -0.2714  0.1683
  522MOL0     H70446   5.422   6.044   6.464  3.2460  1.6273 -0.1645
  522MOL0     H70447   5.277   6.146   6.491  0.8542  0.7587  0.0428
  522MOL0     H70448   5.573   6.242   6.538 -0.0702 -0.5766  2.6327
  522MOL0     H70449   5.422   6.331   6.566  0.2772  1.0771 -2.6865
  522MOL0     H70450   5.344   6.344   6.352  0.0846 -0.6640 -0.0356
  522MOL0     H70451   5.474   6.226   6.294  4.2424  0.1125 -0.3500
  522MOL0     H70452   4.864   5.479   6.593  1.3462  1.9130  0.2341
  522MOL0     H70453   4.616   5.414   6.585  1.0028  0.3040 -0.1534
  522MOL0     H70454   4.200   5.499   6.472 -2.5602 -0.1478 -2.0453
  522MOL0     H70455   4.020   5.392   6.470  0.6129 -2.1089  0.3603
  522MOL0     H70456   4.302   4.123   7.329 -1.7937  1.2430 -1.9905
  522MOL0     H70457   4.511   4.100   7.469 -0.2541 -0.7415  0.2984
  522MOL0     H70458   4.867   4.326   7.700  1.4920 -0.0991  0.3300
  522MOL0     H70459   5.086   4.265   7.765  0.9559 -1.4117  1.5255
  522MOL0     H70460   5.278   4.189   7.803 -0.6233  0.1631 -2.3742
  522MOL0     H70461   5.373   4.034   7.828 -1.1004 -0.9379  3.4018
  522MOL0     H70462   5.192   4.091   7.598 -0.5404  0.8187  0.2693
  522MOL0     H70463   5.292   3.955   7.614 -0.0143  0.9358 -0.6948
  522MOL0     H70464   5.432   4.075   7.487  2.4865 -4.3734  2.6659
  522MOL0     H70465   5.490   4.134   7.626 -0.8573  1.2980  2.7685
  522MOL0     H70466   5.433   4.346   7.501 -0.2737  0.2929 -0.6146
  522MOL0     H70467   5.339   4.326   7.646  1.3394  0.0422 -0.1388
  522MOL0     H70468   5.049   4.323   7.325  0.1767  2.5076 -0.9883
  522MOL0     H70469   4.961   3.872   7.872  0.4627 -0.4190  1.5489
  522MOL0     H70470   4.725   3.925   7.807 -1.1942  1.5413 -1.7914
  523MOL0     O70471   9.094   2.053   6.209  0.2625  0.2688  0.1560
  523MOL0     C70472   9.203   2.049   6.152 -0.3925  0.4428 -0.0132
  523MOL0     O70473   9.297   1.961   6.191 -0.1720 -0.6709  1.0755
  523MOL0     C70474   9.261   1.830   6.229 -0.2178 -0.7144 -0.0702
  523MOL0     C70475   9.354   1.759   6.304  0.2010  0.1891 -1.2646
  523MOL0     C70476   9.314   1.637   6.372 -0.1967 -0.2559 -0.2423
  523MOL0     C70477   9.194   1.566   6.342  0.7040 -1.0435  0.7363
  523MOL0     O70478   9.183   1.427   6.366 -0.4113 -0.3646  0.6369
  523MOL0     C70479   9.077   1.347   6.320 -0.2707 -0.3298 -0.6356
  523MOL0     C70480   8.958   1.348   6.416  0.0880  0.0657 -1.2413
  523MOL0     C70481   8.834   1.269   6.379  0.0386 -0.2942 -0.8302
  523MOL0     C70482   8.726   1.256   6.497  0.1008 -0.4505  0.0733
  523MOL0     C70483   8.666   1.385   6.554  0.1327  0.0020 -0.3626
  523MOL0     C70484   8.553   1.450   6.474  0.4781 -0.2642  0.7144
  523MOL0     C70485   8.425   1.372   6.478  0.5068  0.5763 -0.2271
  523MOL0     C70486   8.304   1.467   6.460 -0.3080  0.1387 -0.6642
  523MOL0     N70487   8.186   1.392   6.422 -0.1584  1.2844  1.1015
  523MOL0     C70488   8.176   1.303   6.314  0.1832 -1.4425  0.0920
  523MOL0     C70489   8.059   1.236   6.332 -0.3759  0.5013  0.9804
  523MOL0     C70490   8.001   1.134   6.238  0.2371  0.0634 -0.1105
  523MOL0     C70491   7.865   1.088   6.283 -0.4838 -1.0932  0.2375
  523MOL0     C70492   7.755   1.191   6.238  0.1605  0.8242 -1.3465
  523MOL0     C70493   7.623   1.134   6.273  0.4819  0.5156  0.1102
  523MOL0     O70494   7.525   1.244   6.259 -0.3946 -0.2361 -0.1306
  523MOL0     C70495   7.397   1.206   6.255  0.3938 -0.8900 -0.2644
  523MOL0     C70496   7.343   1.082   6.287  0.1763  0.4140 -0.6221
  523MOL0     C70497   7.206   1.055   6.300 -0.7590 -0.1357 -0.2948
  523MOL0     C70498   7.166   0.914   6.336 -0.3076 -0.3802 -0.5790
  523MOL0     C70499   7.115   1.154   6.259  0.4465  0.1161 -0.4702
  523MOL0     C70500   6.966   1.150   6.247  0.5962  0.3003  0.0890
  523MOL0     O70501   6.909   1.266   6.198  0.1889 -0.7777  0.3969
  523MOL0     C70502   6.768   1.260   6.195 -0.6592  0.8806  0.1610
  523MOL0     C70503   6.702   1.211   6.075  0.2925  0.1643  0.5956
  523MOL0     C70504   6.559   1.201   6.079 -0.3095  0.6244  0.5702
  523MOL0     C70505   6.485   1.212   6.199 -0.8614  0.1693  0.2867
  523MOL0     O70506   6.353   1.178   6.186 -0.1548 -0.3438 -0.1122
  523MOL0     C70507   6.261   1.194   6.297  0.5540  0.0407  0.2132
  523MOL0     C70508   6.116   1.151   6.242 -0.2806  0.4792 -0.3521
  523MOL0     C70509   6.017   1.178   6.346  0.3964  0.6045 -0.4135
  523MOL0     C70510   5.875   1.199   6.295  0.5485 -0.3752  0.2701
  523MOL0     C70511   5.764   1.220   6.393  0.6840  0.3533 -0.7297
  523MOL0     C70512   5.626   1.177   6.344 -0.4739 -0.5557  0.2673
  523MOL0     C70513   5.611   1.217   6.202  0.1343  1.0086 -0.0991
  523MOL0     C70514   5.463   1.228   6.169 -0.2712 -0.2422 -0.6790
  523MOL0    Cl70515   5.446   1.237   5.992  0.2939  0.4056  0.2509
  523MOL0     C70516   6.560   1.252   6.317  0.1817 -0.0787  0.0848
  523MOL0     C70517   6.697   1.266   6.312 -0.6283 -0.6385  0.2208
  523MOL0     O70518   6.902   1.052   6.283 -0.3387  0.9628  0.1877
  523MOL0     C70519   7.172   1.279   6.220 -0.2971 -0.0812  0.3873
  523MOL0     C70520   7.307   1.310   6.229 -0.6440 -0.2897  0.1960
  523MOL0     N70521   8.006   1.273   6.445 -0.3179 -0.0242 -1.0823
  523MOL0     N70522   8.075   1.371   6.506 -1.1752  0.1034  0.3748
  523MOL0     C70523   9.104   1.638   6.254 -0.4375 -0.1868 -0.7828
  523MOL0     C70524   9.136   1.763   6.201 -0.3872  0.2503  0.1596
  523MOL0     C70525   9.237   2.155   6.052 -0.7513  0.2555  0.1266
  523MOL0     C70526   9.171   2.277   6.054 -1.0955  0.2414 -1.3860
  523MOL0     C70527   9.209   2.386   5.971 -0.4654 -0.4059  0.1015
  523MOL0     C70528   9.306   2.358   5.878  0.2525 -0.0706  0.7447
  523MOL0     O70529   9.348   2.448   5.789  0.0481  0.5603 -0.2441
  523MOL0     C70530   9.299   2.579   5.799  0.3781  0.4632 -0.0498
  523MOL0     C70531   9.402   2.674   5.741  0.5062  0.1515  0.2325
  523MOL0     C70532   9.476   2.626   5.613 -0.4445  0.2809  0.5123
  523MOL0     C70533   9.627   2.642   5.625  0.3879 -0.2740  0.9017
  523MOL0     C70534   9.677   2.599   5.495 -0.3758  0.5603 -0.2450
  523MOL0     C70535   9.715   2.584   5.380  0.4441  0.3117  0.1461
  523MOL0     C70536   9.372   2.237   5.863 -0.6864  0.7613 -0.5332
  523MOL0     C70537   9.342   2.136   5.960  0.4448  0.2225  0.3190
  523MOL0     H70538   9.440   1.822   6.324 -0.0965  0.2571 -0.0902
  523MOL0     H70539   9.392   1.589   6.430  2.2777  2.0390 -1.4254
  523MOL0     H70540   9.044   1.371   6.218 -0.0957 -0.9702 -0.8445
  523MOL0     H70541   9.118   1.246   6.314  2.8423  0.6845  1.3178
  523MOL0     H70542   8.996   1.315   6.513 -0.4967 -0.0241 -1.0397
  523MOL0     H70543   8.921   1.450   6.428 -0.7085 -0.3642  0.2860
  523MOL0     H70544   8.779   1.336   6.312 -2.2775 -1.2225  0.0327
  523MOL0     H70545   8.874   1.174   6.343  0.9732  0.6382 -2.3761
  523MOL0     H70546   8.643   1.188   6.476 -0.6303 -0.3703  2.4207
  523MOL0     H70547   8.776   1.203   6.578 -1.7967 -1.7114  0.4907
  523MOL0     H70548   8.624   1.362   6.653  2.2332 -0.3290  0.5030
  523MOL0     H70549   8.747   1.457   6.569  0.7864 -1.0931  1.7270
  523MOL0     H70550   8.537   1.549   6.518 -0.9284  0.2196 -0.7570
  523MOL0     H70551   8.581   1.462   6.369 -1.7766 -0.5209  0.0180
  523MOL0     H70552   8.435   1.291   6.405 -2.4930 -1.4695  1.4465
  523MOL0     H70553   8.397   1.329   6.574  0.3721  3.3320  1.0699
  523MOL0     H70554   8.324   1.536   6.377  0.4263 -0.6153 -1.1267
  523MOL0     H70555   8.281   1.533   6.544 -0.8149  0.9185 -1.3933
  523MOL0     H70556   8.234   1.275   6.226 -0.4361  0.0006 -0.8151
  523MOL0     H70557   8.004   1.176   6.137  3.4118 -1.2053 -0.6726
  523MOL0     H70558   8.072   1.051   6.225  1.3191  1.2975 -2.8443
  523MOL0     H70559   7.862   1.082   6.392 -0.3334 -1.8364  0.2097
  523MOL0     H70560   7.840   0.990   6.239  2.7948 -1.2852 -1.4749
  523MOL0     H70561   7.770   1.190   6.129  4.0636  1.1203 -0.9536
  523MOL0     H70562   7.765   1.286   6.291  2.7592 -0.7603  1.2759
  523MOL0     H70563   7.623   1.093   6.374 -2.2571  1.5877  0.6173
  523MOL0     H70564   7.611   1.052   6.201  2.2069 -0.8268  1.2759
  523MOL0     H70565   7.412   1.001   6.308  1.0682  1.4523  0.6571
  523MOL0     H70566   7.118   0.882   6.244 -0.8299  1.3913 -0.9615
  523MOL0     H70567   7.250   0.849   6.364  0.4193  0.7889  0.0481
  523MOL0     H70568   7.098   0.919   6.422  1.3698  4.8782  0.8697
  523MOL0     H70569   6.757   1.180   5.987  2.0881 -0.9610  2.0473
  523MOL0     H70570   6.502   1.195   5.987  0.7010  0.7783 -0.0739
  523MOL0     H70571   6.288   1.122   6.375 -3.4372 -0.2446  1.5907
  523MOL0     H70572   6.268   1.300   6.324  0.5554 -0.0216  0.4606
  523MOL0     H70573   6.096   1.219   6.158 -1.4702  0.0052 -0.4751
  523MOL0     H70574   6.112   1.050   6.201  1.8116  0.3346 -0.2755
  523MOL0     H70575   6.044   1.272   6.395 -1.0774  1.2293 -0.7367
  523MOL0     H70576   6.006   1.094   6.416  0.6936  3.2117  3.0146
  523MOL0     H70577   5.881   1.293   6.239 -0.3070 -0.5321 -0.0968
  523MOL0     H70578   5.854   1.120   6.222 -0.1349  2.2518 -2.6027
  523MOL0     H70579   5.767   1.326   6.420  2.0573  0.9958 -3.1049
  523MOL0     H70580   5.782   1.160   6.483  2.2651  1.6553 -0.1318
  523MOL0     H70581   5.617   1.068   6.350 -1.4028 -0.4182  2.2054
  523MOL0     H70582   5.543   1.219   6.401 -0.3182  0.5455 -0.3113
  523MOL0     H70583   5.665   1.153   6.131  2.9753  1.7400  1.2767
  523MOL0     H70584   5.652   1.316   6.181 -0.5450  1.3054 -0.0797
  523MOL0     H70585   5.424   1.321   6.212 -0.1785 -1.2137  1.6258
  523MOL0     H70586   5.407   1.146   6.214 -1.6854  2.0606  2.1058
  523MOL0     H70587   6.507   1.264   6.411  0.4860 -0.4791  0.3077
  523MOL0     H70588   6.752   1.297   6.400 -1.2223  0.6812  0.1539
  523MOL0     H70589   7.114   1.368   6.198  2.1892  1.1420 -1.7746
  523MOL0     H70590   7.348   1.410   6.219  0.3114 -0.7266 -0.3269
  523MOL0     H70591   9.006   1.590   6.245 -0.9364  0.4482  0.7881
  523MOL0     H70592   9.061   1.823   6.150 -0.4730  1.3697  1.5336
  523MOL0     H70593   9.094   2.296   6.127 -0.7426  0.7845 -1.1517
  523MOL0     H70594   9.164   2.485   5.977  1.7342  0.8280 -1.9668
  523MOL0     H70595   9.208   2.574   5.739  0.5572 -0.9730 -0.2183
  523MOL0     H70596   9.275   2.625   5.895 -0.7479  3.0322 -1.4487
  523MOL0     H70597   9.474   2.702   5.819  2.1292 -3.5760  0.2827
  523MOL0     H70598   9.351   2.765   5.709  1.6827  0.9353  0.5212
  523MOL0     H70599   9.434   2.676   5.525  1.6281 -0.3056 -0.8579
  523MOL0     H70600   9.459   2.522   5.585 -1.8803  0.7611 -0.5598
  523MOL0     H70601   9.666   2.582   5.708 -1.0163 -1.4238  0.7761
  523MOL0     H70602   9.656   2.747   5.629 -0.7272  0.1809 -1.2177
  523MOL0     H70603   9.744   2.576   5.277  0.8936  0.0758  0.2905
  523MOL0     H70604   9.442   2.224   5.781 -2.1320 -3.7990 -1.3571
  523MOL0     H70605   9.393   2.040   5.961  2.4414  1.1378 -2.1761
  524MOL0     O70606   8.153   5.647  10.746  0.3846  0.5406 -0.0791
  524MOL0     C70607   8.099   5.728  10.680 -0.6362 -0.5675  1.0198
  524MOL0     O70608   7.986   5.701  10.602 -0.6003 -0.2485 -0.9153
  524MOL0     C70609   7.941   5.575  10.594 -0.4180  0.9348 -0.1913
  524MOL0     C70610   7.810   5.569  10.568  0.3717  0.0037  1.0120
  524MOL0     C70611   7.738   5.448  10.541  0.0301 -0.8754  0.1673
  524MOL0     C70612   7.804   5.326  10.545  0.1747  0.7536  0.7851
  524MOL0     O70613   7.736   5.204  10.531 -0.8756 -0.1000 -0.6158
  524MOL0     C70614   7.594   5.198  10.548 -0.0438 -0.3026 -0.1578
  524MOL0     C70615   7.533   5.165  10.686 -0.0408 -0.8496  0.9459
  524MOL0     C70616   7.379   5.148  10.691  0.1964  0.1630 -0.0057
  524MOL0     C70617   7.340   5.088  10.821 -0.0624 -0.4942  0.3234
  524MOL0     C70618   7.191   5.076  10.820 -0.5452 -0.6242  0.5313
  524MOL0     C70619   7.137   5.026  10.959  0.3130  0.4429 -0.5663
  524MOL0     C70620   7.126   5.147  11.059  1.0093  0.9851  0.6950
  524MOL0     C70621   6.995   5.222  11.043 -0.1282  0.1888 -0.3988
  524MOL0     N70622   6.877   5.152  11.081  0.0154  0.4167  0.8088
  524MOL0     C70623   6.870   5.066  11.184  0.1050 -0.5638 -0.5307
  524MOL0     C70624   6.760   4.993  11.155  0.3797  0.6393 -0.8108
  524MOL0     C70625   6.701   4.885  11.250  0.3229 -0.3938  0.3883
  524MOL0     C70626   6.551   4.876  11.229  0.7463  0.3720 -0.0693
  524MOL0     C70627   6.480   4.787  11.326 -0.2196  0.1727 -0.5514
  524MOL0     C70628   6.345   4.736  11.272  0.0712 -0.5163  1.4202
  524MOL0     O70629   6.284   4.831  11.176  0.2510 -0.1894  0.5575
  524MOL0     C70630   6.182   4.919  11.227 -0.5314 -1.1561  0.6903
  524MOL0     C70631   6.098   4.979  11.135 -0.4050 -0.1371 -0.0287
  524MOL0     C70632   5.992   5.060  11.171 -1.1909  0.3015 -0.5267
  524MOL0     C70633   5.920   5.126  11.055  0.0198  0.1383 -0.5715
  524MOL0     C70634   5.969   5.099  11.305  0.7284 -0.7110 -0.6735
  524MOL0     C70635   5.852   5.181  11.345 -0.1907  1.3240 -0.0817
  524MOL0     O70636   5.802   5.278  11.258  0.4920 -0.3125 -0.0614
  524MOL0     C70637   5.697   5.352  11.295  0.2946 -0.4323 -0.0530
  524MOL0     C70638   5.567   5.296  11.324  0.1862 -0.9122  0.2224
  524MOL0     C70639   5.457   5.380  11.339  0.1257 -0.0593 -0.8483
  524MOL0     C70640   5.477   5.522  11.339  0.6298 -0.0641 -1.0305
  524MOL0     O70641   5.374   5.607  11.353  0.4173  0.4162 -0.2496
  524MOL0     C70642   5.307   5.601  11.472  0.0968  0.7039 -0.2692
  524MOL0     C70643   5.178   5.677  11.452 -0.0706 -0.7465  0.6433
  524MOL0     C70644   5.072   5.581  11.394  1.7759  0.2057 -0.1556
  524MOL0     C70645   4.964   5.665  11.323 -1.0692 -0.7271 -0.3789
  524MOL0     C70646   4.864   5.580  11.248  0.2327 -0.1947 -0.8521
  524MOL0     C70647   4.747   5.660  11.182  0.2745 -0.0169  0.8000
  524MOL0     C70648   4.630   5.561  11.143 -0.0276  0.4940  0.3109
  524MOL0     C70649   4.500   5.637  11.136  0.6290  0.4831  0.9756
  524MOL0    Cl70650   4.433   5.643  11.301 -0.0334 -0.3379 -0.1135
  524MOL0     C70651   5.595   5.580  11.311 -0.1358 -0.3877  0.0297
  524MOL0     C70652   5.703   5.492  11.280  0.5574 -1.1361 -0.1487
  524MOL0     O70653   5.814   5.156  11.461 -0.4258 -0.7039 -0.1278
  524MOL0     C70654   6.045   5.032  11.399 -0.2291  0.4449 -0.2660
  524MOL0     C70655   6.156   4.953  11.360  0.5596 -0.0884 -0.0015
  524MOL0     N70656   6.710   5.024  11.028 -0.5415 -0.5787 -0.1568
  524MOL0     N70657   6.784   5.127  10.986 -0.0255  0.4457 -0.1288
  524MOL0     C70658   7.938   5.333  10.562 -0.2840  0.7780  0.8100
  524MOL0     C70659   8.014   5.451  10.587  0.9248  0.8139  0.5112
  524MOL0     C70660   8.161   5.863  10.692  0.6566  0.3467  0.5797
  524MOL0     C70661   8.099   5.969  10.619  0.0296 -0.0130  0.1307
  524MOL0     C70662   8.160   6.099  10.609  1.0108 -0.3895  0.4665
  524MOL0     C70663   8.277   6.120  10.677 -0.4508 -0.9237 -0.4317
  524MOL0     O70664   8.343   6.236  10.658  0.4036 -0.4727 -0.0973
  524MOL0     C70665   8.493   6.237  10.677 -0.2344 -0.5723  0.2534
  524MOL0     C70666   8.546   6.292  10.545  0.2425  0.0148 -0.3881
  524MOL0     C70667   8.693   6.318  10.530  0.0652 -0.0827 -0.1388
  524MOL0     C70668   8.781   6.193  10.531 -0.2744 -0.9720 -0.0542
  524MOL0     C70669   8.918   6.214  10.584 -0.0646  0.3110  0.6841
  524MOL0     C70670   9.023   6.224  10.632 -0.1201 -0.4840  0.0466
  524MOL0     C70671   8.333   6.021  10.763 -0.3776  0.1950  0.4312
  524MOL0     C70672   8.274   5.896  10.767  0.4261  0.1601 -0.1380
  524MOL0     H70673   7.749   5.659  10.566 -1.6956 -1.3513  0.0144
  524MOL0     H70674   7.633   5.450  10.513  0.0279 -1.9280  0.0785
  524MOL0     H70675   7.549   5.285  10.499 -0.6349 -1.3554 -1.5561
  524MOL0     H70676   7.566   5.119  10.477 -1.3866 -1.2881  1.4075
  524MOL0     H70677   7.581   5.074  10.724 -1.2002 -1.1642  1.7049
  524MOL0     H70678   7.563   5.247  10.751 -1.7393 -0.6583  1.5309
  524MOL0     H70679   7.329   5.244  10.678 -1.7966 -1.0248 -1.7560
  524MOL0     H70680   7.329   5.096  10.608  0.0619 -0.7558  0.6337
  524MOL0     H70681   7.394   4.995  10.842  0.8700  0.3792  1.9623
  524MOL0     H70682   7.374   5.161  10.895  3.0611 -0.2569 -1.1910
  524MOL0     H70683   7.146   5.172  10.795  0.5458 -0.0761  0.6152
  524MOL0     H70684   7.158   5.000  10.749  1.8139  0.1288 -1.5162
  524MOL0     H70685   7.041   4.974  10.955  0.7079 -0.3781  0.1532
  524MOL0     H70686   7.210   4.950  10.990  0.0705  0.2392 -0.4858
  524MOL0     H70687   7.125   5.099  11.158  2.7972 -0.1196  0.2214
  524MOL0     H70688   7.213   5.213  11.050  1.5856  0.2203  0.5729
  524MOL0     H70689   6.995   5.242  10.936  2.1666  1.2233 -0.2794
  524MOL0     H70690   7.007   5.321  11.090 -0.3269  0.1154 -0.1911
  524MOL0     H70691   6.943   5.061  11.264  0.7092  2.0056 -0.8331
  524MOL0     H70692   6.753   4.793  11.222  1.6960  0.1732  1.0001
  524MOL0     H70693   6.718   4.920  11.352  4.7305 -0.3362 -0.1917
  524MOL0     H70694   6.527   4.833  11.132 -3.0909  0.2263  0.7741
  524MOL0     H70695   6.512   4.978  11.234 -0.0847  0.1635 -1.6128
  524MOL0     H70696   6.463   4.842  11.419  0.8053  2.0701 -1.4330
  524MOL0     H70697   6.537   4.697  11.352  0.2084  0.5362 -0.2262
  524MOL0     H70698   6.285   4.707  11.359 -1.8477 -2.1401 -0.3307
  524MOL0     H70699   6.369   4.644  11.218 -0.5906 -0.8749  1.7236
  524MOL0     H70700   6.104   4.953  11.030 -0.0208  2.9606 -0.8604
  524MOL0     H70701   5.923   5.235  11.066  0.4782  0.2262 -1.5064
  524MOL0     H70702   5.979   5.110  10.965  2.3482 -0.5029  0.9870
  524MOL0     H70703   5.815   5.099  11.039 -0.3026  1.3368 -0.5939
  524MOL0     H70704   5.572   5.188  11.325 -0.1431 -0.9393 -0.6408
  524MOL0     H70705   5.363   5.328  11.356 -0.7046  2.2912  3.0623
  524MOL0     H70706   5.288   5.498  11.501  1.3812  0.9671  1.6738
  524MOL0     H70707   5.367   5.646  11.551 -3.7248  1.7127  2.3289
  524MOL0     H70708   5.147   5.717  11.548 -0.6692  1.6324 -0.4734
  524MOL0     H70709   5.196   5.764  11.388 -2.1140 -2.1583 -2.0774
  524MOL0     H70710   5.044   5.531  11.487  0.1946  1.3777  0.0438
  524MOL0     H70711   5.111   5.504  11.326 -1.3745 -1.4395 -0.3182
  524MOL0     H70712   4.906   5.728  11.391 -0.3119  1.3189 -1.5429
  524MOL0     H70713   5.007   5.727  11.244 -2.4708 -1.4677 -1.7962
  524MOL0     H70714   4.822   5.533  11.338 -0.5716  0.5500 -0.8209
  524MOL0     H70715   4.906   5.503  11.184  1.4006 -0.8102  0.5926
  524MOL0     H70716   4.718   5.739  11.251 -2.2270 -0.5604  0.4445
  524MOL0     H70717   4.784   5.723  11.101  0.1181  2.1998  2.3609
  524MOL0     H70718   4.612   5.478  11.212 -2.5796  0.5871 -0.1183
  524MOL0     H70719   4.640   5.518  11.042 -2.9179 -1.1336  0.5880
  524MOL0     H70720   4.433   5.582  11.069 -1.6507  2.4740  1.5008
  524MOL0     H70721   4.514   5.738  11.097 -1.4842  0.0980 -1.0483
  524MOL0     H70722   5.617   5.686  11.300 -0.1868 -0.4726 -0.9512
  524MOL0     H70723   5.797   5.543  11.256  0.0585  0.0964  0.4089
  524MOL0     H70724   6.023   5.055  11.503  1.0427  0.4750  0.0130
  524MOL0     H70725   6.226   4.916  11.434 -0.9243  0.3539  1.7001
  524MOL0     H70726   7.993   5.240  10.554 -0.3661  0.7078  1.0696
  524MOL0     H70727   8.122   5.451  10.585  1.0319 -2.7745  0.0349
  524MOL0     H70728   8.005   5.944  10.571  0.1037  2.9769 -1.8016
  524MOL0     H70729   8.116   6.174  10.543  3.3657  1.2288  0.6234
  524MOL0     H70730   8.533   6.289  10.765  1.2652 -0.5310 -0.4165
  524MOL0     H70731   8.535   6.137  10.691 -0.1748 -0.2749  2.6071
  524MOL0     H70732   8.495   6.388  10.532  1.2909  0.5039 -0.9944
  524MOL0     H70733   8.514   6.231  10.459 -2.3322 -2.0907  1.8773
  524MOL0     H70734   8.728   6.384  10.610 -3.8242  0.2321  1.5500
  524MOL0     H70735   8.705   6.374  10.437 -1.1793  1.9484  0.8382
  524MOL0     H70736   8.779   6.155  10.429 -1.7631  1.6261 -1.0654
  524MOL0     H70737   8.730   6.121  10.596 -1.1842 -0.8414 -0.6031
  524MOL0     H70738   9.122   6.241  10.671 -1.1922  2.2072  1.8611
  524MOL0     H70739   8.421   6.037  10.823  1.3711  0.9182 -2.1350
  524MOL0     H70740   8.320   5.820  10.829 -2.1218  0.6098  2.5014
  525MOL0     O70741   3.640   5.769   4.870  0.2335 -0.8994 -0.3479
  525MOL0     C70742   3.736   5.820   4.930  0.0924  0.9129  0.0274
  525MOL0     O70743   3.724   5.923   5.019  0.0526 -0.0856 -0.2792
  525MOL0     C70744   3.598   5.966   5.058 -0.6135  0.7828 -1.6524
  525MOL0     C70745   3.481   5.886   5.075  0.0051 -0.1004  0.5271
  525MOL0     C70746   3.355   5.943   5.120 -0.1682  0.2643 -0.0655
  525MOL0     C70747   3.345   6.084   5.141 -0.0631 -0.3650  0.8482
  525MOL0     O70748   3.227   6.153   5.160  0.5007 -0.4005 -0.3498
  525MOL0     C70749   3.141   6.133   5.046 -0.3550  0.3843 -0.7178
  525MOL0     C70750   3.016   6.052   5.074  0.1628  0.0308 -0.9875
  525MOL0     C70751   2.919   6.159   5.128 -0.8311  0.3986  0.7190
  525MOL0     C70752   2.786   6.089   5.142  0.0700  0.3168  0.8099
  525MOL0     C70753   2.725   6.027   4.998 -0.4256 -0.5471  0.8829
  525MOL0     C70754   2.585   5.968   5.016 -0.2796  0.3031  0.0527
  525MOL0     C70755   2.528   5.897   4.894 -0.3535 -0.1356 -0.8891
  525MOL0     C70756   2.397   5.832   4.934  0.2035  0.4577  0.5918
  525MOL0     N70757   2.362   5.734   4.822  0.7269  0.1571  0.2670
  525MOL0     C70758   2.290   5.750   4.706 -0.1650 -0.5018  0.5438
  525MOL0     C70759   2.303   5.638   4.631  0.0924 -0.4480  0.0067
  525MOL0     C70760   2.246   5.618   4.501  0.0391  0.1029 -0.7314
  525MOL0     C70761   2.334   5.519   4.432 -0.3986 -0.0972  0.0015
  525MOL0     C70762   2.326   5.500   4.279 -0.4071 -0.4025  0.8905
  525MOL0     C70763   2.407   5.390   4.227  0.2368  0.4272  0.6637
  525MOL0     O70764   2.365   5.355   4.096 -0.0252  0.8074  0.0960
  525MOL0     C70765   2.256   5.283   4.071  0.3243 -0.5909  0.6932
  525MOL0     C70766   2.152   5.261   4.154  0.7332  0.5487  0.2339
  525MOL0     C70767   2.041   5.201   4.111  0.0796 -0.3818  0.0191
  525MOL0     C70768   1.926   5.205   4.213 -0.2251  0.1467 -0.1809
  525MOL0     C70769   2.042   5.143   3.980  0.5825  0.0298  0.7594
  525MOL0     C70770   1.923   5.063   3.938 -0.0822  0.9960 -0.7706
  525MOL0     O70771   1.843   5.009   4.036 -0.1479 -0.4240  0.3988
  525MOL0     C70772   1.725   4.940   4.009  0.3993 -0.3064  0.6360
  525MOL0     C70773   1.718   4.845   3.908 -0.3720  0.3811  0.5981
  525MOL0     C70774   1.600   4.798   3.861  0.3603  0.8494  0.2639
  525MOL0     C70775   1.477   4.836   3.915 -0.6695 -0.1817 -0.4362
  525MOL0     O70776   1.359   4.776   3.873  0.1943  0.0972 -0.2357
  525MOL0     C70777   1.355   4.734   3.735  0.3026 -0.6622 -0.9359
  525MOL0     C70778   1.211   4.695   3.708  0.0020  0.3822  0.3663
  525MOL0     C70779   1.109   4.808   3.734  0.0457 -0.6481 -0.2436
  525MOL0     C70780   1.108   4.899   3.607  0.4131  0.2319 -1.1852
  525MOL0     C70781   1.013   5.016   3.616 -0.6235 -0.7934  0.6134
  525MOL0     C70782   0.863   4.983   3.613  0.2367 -1.2594 -0.1690
  525MOL0     C70783   0.822   4.859   3.538 -0.1433  0.9446  0.3945
  525MOL0     C70784   0.668   4.846   3.526  0.5391 -0.9013 -0.4071
  525MOL0    Cl70785   0.602   4.972   3.411  0.1632  0.4367 -0.5223
  525MOL0     C70786   1.482   4.931   4.019 -0.4061 -0.5574  0.7182
  525MOL0     C70787   1.605   4.986   4.062  0.9285 -0.1358 -0.1064
  525MOL0     O70788   1.906   5.046   3.819 -0.2138  0.2496  0.1161
  525MOL0     C70789   2.145   5.161   3.893  0.5596 -0.7265 -0.5451
  525MOL0     C70790   2.255   5.229   3.937 -0.5235  0.0437 -0.3017
  525MOL0     N70791   2.371   5.550   4.710 -0.0138  0.6911 -0.1515
  525MOL0     N70792   2.411   5.608   4.820 -0.8882 -0.1827 -0.1008
  525MOL0     C70793   3.454   6.162   5.127 -1.2179 -0.0383 -0.2450
  525MOL0     C70794   3.584   6.103   5.087  0.1875 -0.0558 -0.6950
  525MOL0     C70795   3.876   5.775   4.901 -0.2585 -0.5962  0.4820
  525MOL0     C70796   3.889   5.703   4.785  0.3537  0.0514  0.0937
  525MOL0     C70797   4.018   5.675   4.743  0.4193 -0.6209 -0.4851
  525MOL0     C70798   4.130   5.723   4.807 -0.3235  0.4833  0.0886
  525MOL0     O70799   4.243   5.709   4.738 -0.2887 -0.8943  0.0181
  525MOL0     C70800   4.362   5.729   4.816 -0.4016  0.7225  0.6145
  525MOL0     C70801   4.413   5.873   4.806  0.1745  0.6777 -0.6786
  525MOL0     C70802   4.399   5.917   4.660 -0.3198 -0.5333  0.7100
  525MOL0     C70803   4.480   6.044   4.644 -0.9541  0.1074  0.0112
  525MOL0     C70804   4.427   6.169   4.701  0.4729  0.8580 -0.0837
  525MOL0     C70805   4.374   6.266   4.740 -0.0888  0.7476 -0.5801
  525MOL0     C70806   4.106   5.796   4.925 -0.1368 -0.0234  0.2248
  525MOL0     C70807   3.983   5.823   4.972  0.4044  0.3147  0.5042
  525MOL0     H70808   3.490   5.779   5.059  2.4733  0.2646 -1.0985
  525MOL0     H70809   3.274   5.875   5.145  0.7778 -0.2149  1.9322
  525MOL0     H70810   3.121   6.236   5.013  3.8567  1.6786  0.1390
  525MOL0     H70811   3.197   6.086   4.964  1.6613  1.0836  0.1819
  525MOL0     H70812   2.975   5.999   4.988 -3.2432  1.8555 -0.6347
  525MOL0     H70813   3.035   5.974   5.148  0.1028  0.2092 -0.7813
  525MOL0     H70814   2.953   6.198   5.224  4.1353 -0.5886 -0.3902
  525MOL0     H70815   2.910   6.243   5.057  1.0806  0.6595  0.7481
  525MOL0     H70816   2.776   6.003   5.208 -1.6313  0.7716  1.2067
  525MOL0     H70817   2.715   6.167   5.172  2.6088  2.0695  2.6498
  525MOL0     H70818   2.737   6.111   4.929 -0.3592 -1.3743 -0.1391
  525MOL0     H70819   2.785   5.945   4.956  2.6097  1.1723  1.4958
  525MOL0     H70820   2.595   5.891   5.094  3.1137  0.1591 -0.3549
  525MOL0     H70821   2.515   6.050   5.036 -0.9222  0.2692 -1.8856
  525MOL0     H70822   2.511   5.960   4.805 -1.7389 -4.4561 -4.0054
  525MOL0     H70823   2.596   5.820   4.857 -1.5104 -0.7420 -1.8105
  525MOL0     H70824   2.321   5.907   4.957 -2.2900 -0.6202 -3.2060
  525MOL0     H70825   2.415   5.768   5.021  0.9743  0.3829  0.3844
  525MOL0     H70826   2.244   5.844   4.675 -1.7661 -1.8425 -1.3671
  525MOL0     H70827   2.150   5.567   4.518 -0.6016  1.0228 -1.5128
  525MOL0     H70828   2.229   5.708   4.442 -0.5939 -0.0680 -0.8183
  525MOL0     H70829   2.303   5.424   4.477  0.6889  0.4643  2.0950
  525MOL0     H70830   2.440   5.538   4.450  0.4623  2.5587 -5.8060
  525MOL0     H70831   2.361   5.593   4.234  0.4042 -0.8314  0.6143
  525MOL0     H70832   2.220   5.491   4.252 -0.9516 -1.9958  3.2099
  525MOL0     H70833   2.384   5.308   4.296 -0.9319  0.0779 -0.1195
  525MOL0     H70834   2.515   5.408   4.232  0.5325 -1.5598  2.9405
  525MOL0     H70835   2.156   5.302   4.254 -0.2393  0.9027  0.1440
  525MOL0     H70836   1.825   5.208   4.172  0.0624  0.5879 -0.8691
  525MOL0     H70837   1.916   5.111   4.269  1.8766 -0.4315 -0.6817
  525MOL0     H70838   1.937   5.285   4.287 -0.6240 -3.1453  3.8190
  525MOL0     H70839   1.805   4.813   3.851 -1.3234 -0.6202 -0.3448
  525MOL0     H70840   1.599   4.723   3.782 -1.6658  0.8117  0.2782
  525MOL0     H70841   1.390   4.815   3.670 -2.4406 -0.2803 -2.1097
  525MOL0     H70842   1.411   4.641   3.726 -0.9059 -1.3010 -2.4803
  525MOL0     H70843   1.199   4.657   3.606  0.2603 -2.6226  1.3850
  525MOL0     H70844   1.179   4.617   3.777 -3.2145 -0.2333 -1.5975
  525MOL0     H70845   1.127   4.863   3.826 -1.0629  1.2540 -1.0999
  525MOL0     H70846   1.018   4.747   3.739  1.3181 -2.8292 -2.0023
  525MOL0     H70847   1.207   4.941   3.585 -0.1837  1.8016 -0.9793
  525MOL0     H70848   1.092   4.831   3.523 -0.6149 -0.6334 -0.3205
  525MOL0     H70849   1.043   5.090   3.541  1.3073  0.6469  2.6747
  525MOL0     H70850   1.023   5.063   3.714  0.5044  0.3370 -0.0066
  525MOL0     H70851   0.836   4.968   3.718 -1.5954  0.1224 -0.4048
  525MOL0     H70852   0.813   5.072   3.574  1.9373 -0.6903 -1.1643
  525MOL0     H70853   0.865   4.766   3.577  1.6703 -0.6705 -4.6319
  525MOL0     H70854   0.869   4.867   3.439  2.0363  0.6638  1.3490
  525MOL0     H70855   0.616   4.867   3.620 -2.4563 -0.7503 -1.9752
  525MOL0     H70856   0.643   4.746   3.489 -0.3804 -1.0604  0.5924
  525MOL0     H70857   1.385   4.957   4.060 -0.0468  1.4004  0.4037
  525MOL0     H70858   1.603   5.060   4.141 -0.8363  3.8121 -3.5045
  525MOL0     H70859   2.146   5.132   3.788 -0.3356 -0.5988 -0.5932
  525MOL0     H70860   2.338   5.259   3.874  0.7081  1.7601  1.9891
  525MOL0     H70861   3.441   6.268   5.143 -0.7318  0.3143 -1.9944
  525MOL0     H70862   3.663   6.176   5.077  0.6554 -0.6246 -1.2475
  525MOL0     H70863   3.806   5.656   4.733  0.8637 -1.0529  0.2411
  525MOL0     H70864   4.041   5.614   4.656  1.5501  2.5907 -2.6201
  525MOL0     H70865   4.346   5.699   4.919 -3.4924 -1.1373 -0.2804
  525MOL0     H70866   4.428   5.656   4.768 -1.0142  0.6455 -0.1297
  525MOL0     H70867   4.510   5.876   4.857 -1.9038 -1.4267  4.0290
  525MOL0     H70868   4.345   5.938   4.863 -2.3234  0.1258 -2.8475
  525MOL0     H70869   4.297   5.935   4.626 -0.1610  2.4070  1.5641
  525MOL0     H70870   4.433   5.830   4.603 -2.9073 -1.4050  0.3586
  525MOL0     H70871   4.497   6.067   4.538 -0.4968  0.7465  0.2222
  525MOL0     H70872   4.576   6.022   4.692 -1.1854 -0.3961  0.2554
  525MOL0     H70873   4.315   6.344   4.784 -1.6284 -1.0192  0.6792
  525MOL0     H70874   4.191   5.852   4.962 -1.0245  1.5824 -0.0547
  525MOL0     H70875   3.967   5.879   5.063  1.6367  1.1088  0.2506
  526MOL0     O70876   4.529   5.436   5.091  0.2858  0.3434  0.4049
  526MOL0     C70877   4.460   5.531   5.138  0.7419 -0.2908  0.7409
  526MOL0     O70878   4.488   5.676   5.131 -0.2432  0.2948  0.3330
  526MOL0     C70879   4.611   5.728   5.084  1.1658  0.5306  0.3580
  526MOL0     C70880   4.728   5.663   5.048  0.5705  0.2024 -0.1912
  526MOL0     C70881   4.825   5.741   4.990 -1.0904 -0.4204 -0.7681
  526MOL0     C70882   4.815   5.885   5.000  0.4309  0.0109 -0.8080
  526MOL0     O70883   4.920   5.958   4.947  0.1441 -0.3769  0.5715
  526MOL0     C70884   5.009   6.013   5.046 -0.1798 -0.0055 -0.4175
  526MOL0     C70885   5.104   6.118   4.988  0.2303  0.2637 -1.1937
  526MOL0     C70886   5.177   6.083   4.866  0.2803  0.4491 -0.2315
  526MOL0     C70887   5.269   5.957   4.875  0.4029 -0.1066  0.7904
  526MOL0     C70888   5.387   5.985   4.972 -0.5284 -0.9422  0.2665
  526MOL0     C70889   5.459   6.120   4.950  0.3221 -0.2342 -0.3771
  526MOL0     C70890   5.566   6.143   5.056 -0.2075  0.0595  0.3050
  526MOL0     C70891   5.692   6.059   5.026 -0.0880 -0.9462  0.1399
  526MOL0     N70892   5.762   6.096   4.904  0.1620  0.6997 -0.2099
  526MOL0     C70893   5.858   6.189   4.884 -0.3782  0.1787 -0.0961
  526MOL0     C70894   5.903   6.161   4.760 -0.7749 -0.0391  0.1268
  526MOL0     C70895   6.011   6.237   4.683 -0.2185  0.3925  1.0549
  526MOL0     C70896   6.106   6.148   4.592  0.5009 -0.3403  0.8037
  526MOL0     C70897   6.178   6.239   4.480 -0.3564 -0.1727  0.2845
  526MOL0     C70898   6.269   6.349   4.536 -0.2896 -0.2894 -0.9373
  526MOL0     O70899   6.190   6.451   4.594  0.0944 -0.7899 -0.3768
  526MOL0     C70900   6.251   6.565   4.658  0.8589 -0.7358 -0.2338
  526MOL0     C70901   6.173   6.671   4.708  0.1455  0.1893  0.5644
  526MOL0     C70902   6.229   6.789   4.762 -0.1448  0.0594  0.2185
  526MOL0     C70903   6.135   6.878   4.841  0.4170  0.2947  0.6218
  526MOL0     C70904   6.362   6.811   4.743 -0.9318 -0.6551 -0.0725
  526MOL0     C70905   6.427   6.950   4.778 -0.5502  0.4059  0.1478
  526MOL0     O70906   6.565   6.947   4.801  0.0223  0.3946  0.6802
  526MOL0     C70907   6.648   7.048   4.852 -0.5019 -0.2959  0.3789
  526MOL0     C70908   6.784   7.054   4.813 -0.2017 -0.6020 -0.1606
  526MOL0     C70909   6.861   7.164   4.854 -0.0613 -0.1672  0.0420
  526MOL0     C70910   6.812   7.269   4.923  0.5475  0.7728 -0.0540
  526MOL0     O70911   6.879   7.372   4.975 -0.4343  0.3470  0.4693
  526MOL0     C70912   6.982   7.431   4.897 -0.6321 -1.2844 -0.0431
  526MOL0     C70913   7.122   7.402   4.958  0.1741  0.5325  0.7010
  526MOL0     C70914   7.236   7.448   4.863  0.2100  0.0824 -0.1854
  526MOL0     C70915   7.222   7.584   4.799  0.2920 -0.4608  0.0312
  526MOL0     C70916   7.356   7.631   4.747 -0.2401  0.7338  0.4330
  526MOL0     C70917   7.339   7.772   4.672  0.0826 -0.4316  0.4593
  526MOL0     C70918   7.258   7.876   4.754  0.2571 -0.4839  0.4632
  526MOL0     C70919   7.276   8.015   4.706 -0.7557 -0.8811 -0.2985
  526MOL0    Cl70920   7.435   8.081   4.760 -0.3410 -0.2960 -0.0981
  526MOL0     C70921   6.675   7.258   4.972 -0.4402 -0.7606 -0.2191
  526MOL0     C70922   6.594   7.156   4.931 -0.7091 -0.2313  0.1287
  526MOL0     O70923   6.362   7.053   4.767  1.0846 -0.1697 -0.1485
  526MOL0     C70924   6.442   6.712   4.685  0.5113 -0.4141  0.7202
  526MOL0     C70925   6.387   6.588   4.648 -0.7634 -0.5966  1.1062
  526MOL0     N70926   5.825   6.066   4.702  0.4300 -1.0083 -0.3566
  526MOL0     N70927   5.744   6.018   4.791  0.3470  0.4329 -0.7320
  526MOL0     C70928   4.698   5.950   5.044  0.2341  0.6577  0.4180
  526MOL0     C70929   4.598   5.867   5.090  0.1497  0.3981  0.0730
  526MOL0     C70930   4.325   5.487   5.175  0.2137 -0.4328 -0.1223
  526MOL0     C70931   4.239   5.572   5.250 -0.2160 -0.1379 -0.2851
  526MOL0     C70932   4.117   5.526   5.296 -1.0901  0.1446  0.1537
  526MOL0     C70933   4.074   5.395   5.272  0.2970 -0.0138 -0.6460
  526MOL0     O70934   3.950   5.339   5.292 -0.4035  0.6421 -0.2755
  526MOL0     C70935   3.837   5.418   5.329 -0.1298 -0.9854 -0.1028
  526MOL0     C70936   3.704   5.338   5.345  0.4186 -0.0071  0.2448
  526MOL0     C70937   3.571   5.418   5.376 -1.0789  0.3259  0.3300
  526MOL0     C70938   3.505   5.471   5.250  0.0536 -0.7987 -0.5360
  526MOL0     C70939   3.384   5.553   5.282  0.1353  0.5016  0.1419
  526MOL0     C70940   3.289   5.627   5.292  0.1740 -0.2011 -0.4533
  526MOL0     C70941   4.164   5.308   5.208  0.3428  0.8908 -0.6529
  526MOL0     C70942   4.290   5.354   5.164 -0.5410  0.5647 -0.2657
  526MOL0     H70943   4.732   5.554   5.040 -0.1774  0.1945 -0.5474
  526MOL0     H70944   4.914   5.702   4.943 -0.6508  0.6575 -0.8481
  526MOL0     H70945   4.959   6.068   5.127  1.9240  1.1494  0.1492
  526MOL0     H70946   5.056   5.932   5.104  0.8751  0.3645 -0.7459
  526MOL0     H70947   5.039   6.201   4.960 -0.7278 -0.9044 -2.5549
  526MOL0     H70948   5.171   6.158   5.065 -2.0037 -0.1903  1.1492
  526MOL0     H70949   5.113   6.055   4.782 -1.4031 -0.0529  1.1794
  526MOL0     H70950   5.222   6.174   4.826 -0.8046  0.4587 -1.4724
  526MOL0     H70951   5.210   5.871   4.910  1.4081 -1.0098  0.3079
  526MOL0     H70952   5.307   5.927   4.777 -3.0855 -0.3834 -0.6081
  526MOL0     H70953   5.342   5.990   5.072  0.5996 -0.0297  0.7445
  526MOL0     H70954   5.456   5.900   4.973 -0.8725 -1.2211  0.6682
  526MOL0     H70955   5.499   6.130   4.848  0.2555  4.4667 -0.1591
  526MOL0     H70956   5.379   6.192   4.968 -0.6666 -1.5908  0.8951
  526MOL0     H70957   5.596   6.248   5.065 -1.3322  0.8088 -3.2463
  526MOL0     H70958   5.519   6.118   5.151  0.0703 -0.0059  0.4252
  526MOL0     H70959   5.662   5.955   5.009 -0.3496 -1.1014  1.4529
  526MOL0     H70960   5.756   6.071   5.114 -1.8894  2.1026  1.2010
  526MOL0     H70961   5.895   6.264   4.952  1.0591 -1.2978  0.8288
  526MOL0     H70962   5.971   6.311   4.614  2.0676  0.5803 -0.1511
  526MOL0     H70963   6.074   6.293   4.754  0.6563  2.0439 -0.9243
  526MOL0     H70964   6.043   6.076   4.540  0.3177 -0.3777  1.0763
  526MOL0     H70965   6.175   6.090   4.654  1.1364 -0.6366 -0.1577
  526MOL0     H70966   6.105   6.280   4.410  1.4959 -0.2745 -1.8230
  526MOL0     H70967   6.248   6.184   4.416  1.9301 -0.7560  3.0839
  526MOL0     H70968   6.332   6.392   4.457 -2.4938  1.5842 -1.8034
  526MOL0     H70969   6.337   6.295   4.602 -0.5716 -2.0915 -2.0396
  526MOL0     H70970   6.067   6.655   4.726 -0.0958  0.7480 -0.2725
  526MOL0     H70971   6.074   6.940   4.775  0.0097  0.6242  1.2930
  526MOL0     H70972   6.068   6.814   4.899  1.0692 -1.6554 -0.6659
  526MOL0     H70973   6.181   6.951   4.909 -0.2188 -0.5164  1.9728
  526MOL0     H70974   6.820   6.973   4.750  4.1239  1.1420 -0.2657
  526MOL0     H70975   6.968   7.161   4.837 -0.0282 -3.0667  0.2769
  526MOL0     H70976   6.983   7.392   4.795 -0.4404  0.6719 -0.8348
  526MOL0     H70977   6.968   7.540   4.897 -0.3841 -1.2161  1.5597
  526MOL0     H70978   7.141   7.449   5.055  2.2941  0.2832  0.4671
  526MOL0     H70979   7.124   7.293   4.968 -0.7550  0.1803 -2.2275
  526MOL0     H70980   7.254   7.374   4.784 -2.4982 -0.2293 -0.5786
  526MOL0     H70981   7.325   7.427   4.924  0.3218  0.9370 -0.0491
  526MOL0     H70982   7.145   7.586   4.721  2.0488  2.5713 -1.8183
  526MOL0     H70983   7.182   7.647   4.879 -1.9344 -0.7068 -0.8158
  526MOL0     H70984   7.392   7.559   4.673  2.7107  0.9490  1.5225
  526MOL0     H70985   7.434   7.634   4.823  0.0287 -1.3145  0.2788
  526MOL0     H70986   7.438   7.806   4.642 -0.5825 -1.6058 -3.5543
  526MOL0     H70987   7.287   7.765   4.576  1.9714  1.2279 -0.7657
  526MOL0     H70988   7.296   7.870   4.856  1.8529  2.3250  0.1087
  526MOL0     H70989   7.153   7.845   4.745 -0.1621  0.9606  0.1813
  526MOL0     H70990   7.201   8.088   4.738 -2.0304 -0.5431 -3.6231
  526MOL0     H70991   7.274   8.008   4.597  0.1081 -1.4123 -0.2908
  526MOL0     H70992   6.646   7.334   5.044 -1.2113  0.8364 -2.1122
  526MOL0     H70993   6.492   7.152   4.969 -1.2604  0.3008 -1.2054
  526MOL0     H70994   6.550   6.720   4.690  0.9801 -2.7871 -2.3976
  526MOL0     H70995   6.449   6.504   4.621 -1.8735 -1.5328  1.3743
  526MOL0     H70996   4.674   6.056   5.048 -0.2037  0.5465  3.4203
  526MOL0     H70997   4.507   5.920   5.113  0.0389  1.1992 -2.0099
  526MOL0     H70998   4.284   5.662   5.290  2.2062 -0.4755 -2.0640
  526MOL0     H70999   4.058   5.586   5.364 -0.6435  1.6021 -0.7097
  526MOL0     H71000   3.847   5.477   5.421 -0.7713  0.7609 -1.1034
  526MOL0     H71001   3.817   5.509   5.270  2.0435  1.5155  2.6851
  526MOL0     H71002   3.708   5.258   5.419  0.4014 -0.6416 -0.4244
  526MOL0     H71003   3.694   5.284   5.250 -0.4181 -3.2574  2.0277
  526MOL0     H71004   3.594   5.499   5.446 -0.6395  0.3796  0.1265
  526MOL0     H71005   3.515   5.341   5.429 -0.2932  1.5061  3.0706
  526MOL0     H71006   3.483   5.384   5.187  0.5315 -1.1721 -0.2014
  526MOL0     H71007   3.574   5.538   5.197 -1.0589  2.4547  1.8375
  526MOL0     H71008   3.206   5.694   5.280 -0.1803 -0.5546 -0.0572
  526MOL0     H71009   4.133   5.209   5.177 -0.5445  0.7784  0.5160
  526MOL0     H71010   4.356   5.287   5.110 -1.0662 -0.0676 -0.1420
  527MOL0     O71011   7.281   7.383   9.779 -0.5041  0.1028 -0.8933
  527MOL0     C71012   7.294   7.496   9.726 -0.0630  0.5942 -0.2777
  527MOL0     O71013   7.193   7.567   9.672  0.0109 -0.1595  0.5026
  527MOL0     C71014   7.068   7.506   9.666  0.5207  0.1622 -0.6596
  527MOL0     C71015   7.022   7.475   9.542  0.8930 -0.4758  0.8734
  527MOL0     C71016   6.899   7.400   9.528  0.7649 -0.9921  0.4020
  527MOL0     C71017   6.830   7.367   9.642 -0.2554 -0.5286  0.4435
  527MOL0     O71018   6.705   7.307   9.627 -0.0848 -0.8114 -0.0665
  527MOL0     C71019   6.687   7.203   9.531  0.1513 -0.0322  0.9049
  527MOL0     C71020   6.543   7.158   9.499 -0.5605 -0.4157  0.0010
  527MOL0     C71021   6.437   7.268   9.462  0.4153  1.6191  0.0620
  527MOL0     C71022   6.469   7.328   9.321 -0.4117  0.2705  0.5044
  527MOL0     C71023   6.351   7.335   9.227  0.4293  0.0970 -0.4782
  527MOL0     C71024   6.319   7.200   9.162 -0.0102 -0.6826  0.4568
  527MOL0     C71025   6.266   7.094   9.252  1.1505  0.5353  0.2326
  527MOL0     C71026   6.201   6.979   9.157  0.4812 -0.9675  0.0437
  527MOL0     N71027   6.077   7.028   9.099  0.6896 -0.4140  0.0492
  527MOL0     C71028   5.964   7.067   9.167 -0.4517  0.0207  0.9968
  527MOL0     C71029   5.870   7.100   9.069 -0.0803  0.2037  0.3188
  527MOL0     C71030   5.735   7.170   9.097  0.2673  0.7748  0.1147
  527MOL0     C71031   5.606   7.102   9.048  1.3739 -0.6013 -0.4302
  527MOL0     C71032   5.589   7.095   8.904  0.1983  0.3874  0.4092
  527MOL0     C71033   5.450   7.038   8.866 -0.2333  0.3235 -0.3019
  527MOL0     O71034   5.351   7.125   8.913  0.1354  0.5717  0.3458
  527MOL0     C71035   5.225   7.092   8.898 -0.1097  0.5245  0.4674
  527MOL0     C71036   5.187   6.962   8.847  1.0134 -0.1857  0.1286
  527MOL0     C71037   5.060   6.924   8.800  0.5647 -0.4639 -0.1770
  527MOL0     C71038   5.027   6.781   8.767  0.2823 -1.1753  0.1260
  527MOL0     C71039   4.968   7.034   8.793 -0.1531  0.5155 -0.6543
  527MOL0     C71040   4.835   7.024   8.738 -0.4862 -0.5236  0.5811
  527MOL0     O71041   4.744   6.943   8.807 -0.2158  0.1099  0.8120
  527MOL0     C71042   4.616   6.941   8.746 -0.2671  0.1340 -0.8036
  527MOL0     C71043   4.498   6.928   8.826  0.9781 -0.2103  0.5684
  527MOL0     C71044   4.369   6.921   8.766  0.2631 -0.9681  0.0793
  527MOL0     C71045   4.356   6.929   8.627  0.0704 -0.1620  0.5489
  527MOL0     O71046   4.236   6.924   8.563 -0.1385 -0.5873 -0.3135
  527MOL0     C71047   4.223   6.803   8.488 -0.4086  0.2442  0.9232
  527MOL0     C71048   4.067   6.773   8.484  0.1981  0.7040  0.2046
  527MOL0     C71049   4.023   6.705   8.356  0.7508 -0.0408 -0.7557
  527MOL0     C71050   4.078   6.566   8.321  0.5536  1.3425 -0.6836
  527MOL0     C71051   4.044   6.507   8.182  0.3530 -0.4889 -0.4153
  527MOL0     C71052   3.901   6.483   8.157 -0.4728 -0.2444 -0.1225
  527MOL0     C71053   3.871   6.443   8.014  0.0070  0.1913  1.0260
  527MOL0     C71054   3.726   6.391   7.993  0.6161  0.5867  0.2221
  527MOL0    Cl71055   3.705   6.225   8.061 -0.5963 -0.5371 -0.1597
  527MOL0     C71056   4.471   6.927   8.541  0.0898 -0.2091 -0.1592
  527MOL0     C71057   4.601   6.930   8.608 -0.2826 -0.4089  0.6448
  527MOL0     O71058   4.814   7.097   8.639 -0.3656  0.2892  0.2716
  527MOL0     C71059   4.996   7.154   8.856  0.4188  0.3007  0.4747
  527MOL0     C71060   5.122   7.187   8.901  0.2517 -0.3131 -0.5176
  527MOL0     N71061   5.924   7.063   8.949 -0.1741  0.6859 -0.3118
  527MOL0     N71062   6.040   7.009   8.976 -0.8117  0.3528 -0.7841
  527MOL0     C71063   6.874   7.393   9.774 -0.1392 -0.0255 -0.5454
  527MOL0     C71064   6.998   7.465   9.780 -0.0228  0.7823 -0.1933
  527MOL0     C71065   7.428   7.559   9.730 -0.1963 -0.2022  0.5262
  527MOL0     C71066   7.443   7.693   9.694 -0.1984 -0.1106 -0.6232
  527MOL0     C71067   7.568   7.749   9.660  0.4637  0.7363  0.0388
  527MOL0     C71068   7.683   7.673   9.686 -0.3566  0.2992  0.0543
  527MOL0     O71069   7.816   7.704   9.694 -0.1042  0.2373 -0.5932
  527MOL0     C71070   7.839   7.839   9.736 -0.9980 -0.2391 -0.1894
  527MOL0     C71071   7.795   7.861   9.884  0.0200  0.2707 -0.3831
  527MOL0     C71072   7.844   7.782  10.004  0.0419 -0.0064 -0.6340
  527MOL0     C71073   7.968   7.831  10.069  0.1838 -0.0780 -1.0363
  527MOL0     C71074   8.089   7.812   9.998 -0.4874 -0.6848 -0.1619
  527MOL0     C71075   8.179   7.784   9.929 -0.3005  0.8360  0.9274
  527MOL0     C71076   7.664   7.541   9.730  0.7059 -0.2975 -0.6019
  527MOL0     C71077   7.538   7.478   9.735 -0.0613  0.9363 -1.0802
  527MOL0     H71078   7.063   7.512   9.449 -2.7347  1.3631 -0.1680
  527MOL0     H71079   6.857   7.389   9.428  1.3181  0.3128 -0.0032
  527MOL0     H71080   6.724   7.237   9.434 -0.3153  0.4455  0.8937
  527MOL0     H71081   6.754   7.125   9.569  0.5674  0.2200  0.6977
  527MOL0     H71082   6.548   7.074   9.428  0.4326 -3.2237  3.1019
  527MOL0     H71083   6.513   7.112   9.594  1.7442 -1.5765  0.2532
  527MOL0     H71084   6.334   7.231   9.455  0.0274  2.9504 -2.3877
  527MOL0     H71085   6.434   7.346   9.538  1.2625 -0.2817  2.1519
  527MOL0     H71086   6.512   7.425   9.346  0.4096 -0.7138  3.2725
  527MOL0     H71087   6.547   7.268   9.274 -0.9692  0.2858 -0.4789
  527MOL0     H71088   6.264   7.372   9.282  1.2163 -1.0350  1.6314
  527MOL0     H71089   6.375   7.402   9.145  0.0013 -0.9258 -1.4748
  527MOL0     H71090   6.240   7.227   9.091  0.8222  0.9564  0.1016
  527MOL0     H71091   6.404   7.161   9.104 -0.2567  1.8659 -1.8126
  527MOL0     H71092   6.351   7.056   9.309 -0.1432 -2.1501  0.4953
  527MOL0     H71093   6.183   7.133   9.312 -0.0075 -0.1665 -0.8765
  527MOL0     H71094   6.176   6.890   9.216  0.5156  1.0756  3.3943
  527MOL0     H71095   6.264   6.966   9.068 -1.4645 -0.1052 -1.5163
  527MOL0     H71096   5.944   7.078   9.273  0.4614 -2.5512  1.5116
  527MOL0     H71097   5.720   7.168   9.205 -1.3676 -1.4978 -0.0758
  527MOL0     H71098   5.735   7.270   9.052 -3.5010 -0.0854 -2.2614
  527MOL0     H71099   5.531   7.174   9.083  0.6990 -1.0688 -0.8992
  527MOL0     H71100   5.601   7.004   9.096 -0.8647  0.3044  1.4081
  527MOL0     H71101   5.673   7.031   8.875 -0.4765  0.8990 -3.1607
  527MOL0     H71102   5.601   7.192   8.855  0.5149  0.0082 -0.2786
  527MOL0     H71103   5.442   6.940   8.913  0.5610  1.1741  1.7423
  527MOL0     H71104   5.442   7.028   8.758  0.0201 -1.0041 -0.2094
  527MOL0     H71105   5.259   6.882   8.834 -0.4958 -1.4739 -0.7017
  527MOL0     H71106   4.921   6.761   8.754  0.1697 -1.1082  0.8909
  527MOL0     H71107   5.079   6.747   8.677 -2.7612  0.2081 -2.2992
  527MOL0     H71108   5.045   6.733   8.864  0.4236 -0.6301  0.3730
  527MOL0     H71109   4.502   6.931   8.934 -2.0920 -0.0595  0.7559
  527MOL0     H71110   4.271   6.913   8.812  0.3720 -3.2666  0.0134
  527MOL0     H71111   4.262   6.816   8.387 -3.1809  0.6001 -0.2020
  527MOL0     H71112   4.261   6.712   8.534  1.8344  0.8907  0.4361
  527MOL0     H71113   4.038   6.717   8.573  0.2543  1.5338  0.7590
  527MOL0     H71114   4.009   6.865   8.467  0.2079  0.0679 -4.7818
  527MOL0     H71115   4.042   6.766   8.267  0.2754 -0.8894 -1.4605
  527MOL0     H71116   3.916   6.690   8.373  0.3421 -0.3435 -3.1623
  527MOL0     H71117   4.187   6.576   8.332  0.7604 -1.5851  0.8665
  527MOL0     H71118   4.047   6.496   8.399  3.7279  1.9542  1.3273
  527MOL0     H71119   4.093   6.413   8.154  0.6518 -0.2911 -0.5632
  527MOL0     H71120   4.079   6.584   8.113 -4.1522  2.5480  0.2549
  527MOL0     H71121   3.885   6.401   8.227 -0.9499  1.7556  2.2572
  527MOL0     H71122   3.836   6.565   8.187 -0.4294 -0.9842  2.1693
  527MOL0     H71123   3.936   6.358   7.992  0.9588  1.7214 -2.7872
  527MOL0     H71124   3.896   6.532   7.954  2.4958  2.0751  4.4985
  527MOL0     H71125   3.703   6.391   7.886 -2.0680  3.0980  0.6642
  527MOL0     H71126   3.649   6.457   8.033  1.3078  1.0373  0.8357
  527MOL0     H71127   4.472   6.930   8.432  0.9825 -0.4375 -0.1670
  527MOL0     H71128   4.685   6.937   8.540 -0.4610 -1.6519  0.2642
  527MOL0     H71129   4.924   7.235   8.867  0.3775 -0.0512  3.9231
  527MOL0     H71130   5.148   7.282   8.946 -0.1228 -0.4874  0.0746
  527MOL0     H71131   6.828   7.363   9.868  4.3817 -2.7931  1.0723
  527MOL0     H71132   7.032   7.478   9.883 -1.8843  2.2609  0.2920
  527MOL0     H71133   7.354   7.753   9.680 -0.3731 -0.3712 -0.6345
  527MOL0     H71134   7.570   7.855   9.637 -1.2840  0.8947  0.5024
  527MOL0     H71135   7.947   7.855   9.726 -0.9750  1.1362  1.8475
  527MOL0     H71136   7.782   7.911   9.677 -3.1030 -2.3543 -0.8996
  527MOL0     H71137   7.688   7.841   9.874  0.0989 -0.4896  0.2507
  527MOL0     H71138   7.821   7.967   9.894 -1.4285  0.5051  1.6890
  527MOL0     H71139   7.862   7.680   9.969 -1.0960  0.1307 -1.7013
  527MOL0     H71140   7.759   7.796  10.072  0.9894 -0.6586  0.7306
  527MOL0     H71141   7.992   7.773  10.158  0.4666  0.0566 -1.0217
  527MOL0     H71142   7.958   7.935  10.103 -0.0667 -0.2507 -0.5829
  527MOL0     H71143   8.256   7.761   9.857 -0.8524  0.8277  0.3280
  527MOL0     H71144   7.754   7.485   9.754  0.6609  0.4783  1.5218
  527MOL0     H71145   7.528   7.374   9.763  2.8751  1.1321  1.0850
  528MOL0     O71146   4.240   8.044   3.500  0.3534  0.1111  0.3637
  528MOL0     C71147   4.275   8.037   3.385 -0.1919  0.7362 -0.1005
  528MOL0     O71148   4.197   8.047   3.279  0.0644 -0.2063 -0.0843
  528MOL0     C71149   4.059   8.065   3.289  0.2021 -0.2374 -1.1949
  528MOL0     C71150   3.998   8.131   3.177  1.2442  0.2979  0.8451
  528MOL0     C71151   3.857   8.151   3.171 -0.5937 -0.9134 -0.4526
  528MOL0     C71152   3.778   8.119   3.275 -0.9581  0.4397  0.0178
  528MOL0     O71153   3.644   8.140   3.271  0.1010  0.4011 -1.0823
  528MOL0     C71154   3.580   8.240   3.192 -0.0164  0.1499 -0.2236
  528MOL0     C71155   3.448   8.282   3.256 -0.4511 -0.1695 -0.2970
  528MOL0     C71156   3.348   8.180   3.243  0.1765 -0.4128 -0.0436
  528MOL0     C71157   3.216   8.224   3.310 -0.9441  0.0337  0.7851
  528MOL0     C71158   3.124   8.103   3.303  0.4627 -0.0675 -0.4630
  528MOL0     C71159   2.981   8.131   3.341  0.3478  0.2609  0.1476
  528MOL0     C71160   2.966   8.227   3.461 -0.3569  0.1333  0.3684
  528MOL0     C71161   2.848   8.209   3.547  0.7112  0.8354  0.0413
  528MOL0     N71162   2.718   8.212   3.469  0.6223 -0.3322 -0.4691
  528MOL0     C71163   2.607   8.140   3.518 -0.8590 -0.5050  0.7997
  528MOL0     C71164   2.506   8.159   3.431  0.2849  0.3170 -0.1271
  528MOL0     C71165   2.363   8.107   3.455  0.3767 -0.5232 -0.1457
  528MOL0     C71166   2.295   8.166   3.575  0.0781  0.1299 -0.0748
  528MOL0     C71167   2.151   8.105   3.591  0.4541  0.1553  0.5659
  528MOL0     C71168   2.069   8.187   3.691  0.1685 -0.1691  0.3337
  528MOL0     O71169   1.929   8.154   3.709 -0.0886  0.1741  0.9101
  528MOL0     C71170   1.838   8.152   3.603  1.2131 -0.7891 -0.8724
  528MOL0     C71171   1.864   8.208   3.476 -0.1079 -0.0030  0.4649
  528MOL0     C71172   1.766   8.210   3.378  0.3998 -0.2828 -1.2304
  528MOL0     C71173   1.814   8.262   3.244 -0.3882  0.3836 -0.3262
  528MOL0     C71174   1.645   8.147   3.405  0.1703 -0.5534  0.4569
  528MOL0     C71175   1.538   8.128   3.307  0.4456 -0.2698  0.3788
  528MOL0     O71176   1.564   8.047   3.202  0.1688 -1.0517 -0.4907
  528MOL0     C71177   1.471   8.046   3.111 -0.4773 -0.0778  0.7373
  528MOL0     C71178   1.487   8.121   2.988  0.2531  1.3183 -0.4298
  528MOL0     C71179   1.384   8.105   2.888  0.4487 -1.0320 -0.4768
  528MOL0     C71180   1.273   8.028   2.903  0.6147 -0.5769  0.2105
  528MOL0     O71181   1.180   8.033   2.800  0.1491 -0.3225  0.0276
  528MOL0     C71182   1.054   7.975   2.823 -0.2805  0.2703 -0.2795
  528MOL0     C71183   0.946   8.025   2.724  0.2541 -0.5119  0.3467
  528MOL0     C71184   0.794   7.987   2.754  0.1761  0.5415  0.1767
  528MOL0     C71185   0.697   8.018   2.639 -0.6829 -0.6648 -0.1841
  528MOL0     C71186   0.553   7.954   2.662 -0.2113  0.3084  0.5599
  528MOL0     C71187   0.455   7.996   2.548  0.5661 -0.2361 -0.5145
  528MOL0     C71188   0.316   7.935   2.561 -0.5427  0.1035 -0.3984
  528MOL0     C71189   0.221   7.997   2.454  0.5240 -0.1265 -0.0058
  528MOL0    Cl71190   0.073   7.889   2.433 -0.6657  0.0717  0.2215
  528MOL0     C71191   1.265   7.954   3.020  0.2947  0.5768 -0.0516
  528MOL0     C71192   1.363   7.958   3.122  0.5521 -0.1398 -1.1259
  528MOL0     O71193   1.428   8.178   3.330  0.1928  0.1241  0.7031
  528MOL0     C71194   1.614   8.091   3.534  0.5881 -0.3564  0.1587
  528MOL0     C71195   1.712   8.098   3.634  0.2477 -0.4851 -0.7536
  528MOL0     N71196   2.550   8.248   3.340 -0.6796 -0.1567 -0.2682
  528MOL0     N71197   2.681   8.273   3.364 -0.3252 -0.5864 -0.1594
  528MOL0     C71198   3.836   8.046   3.381  0.9274  0.2362  0.6604
  528MOL0     C71199   3.971   8.022   3.388  0.6833  0.8218 -0.7831
  528MOL0     C71200   4.416   8.040   3.354 -0.6164  0.4670  0.5052
  528MOL0     C71201   4.457   7.990   3.235 -0.3254  0.4075  0.4313
  528MOL0     C71202   4.592   7.973   3.209 -0.0120  0.0128 -0.5728
  528MOL0     C71203   4.693   7.997   3.305 -0.1176 -0.4738 -0.9733
  528MOL0     O71204   4.821   7.987   3.260 -0.3659 -0.8716 -0.0867
  528MOL0     C71205   4.923   8.019   3.349 -0.1891  0.3317 -0.6920
  528MOL0     C71206   4.939   8.173   3.363 -0.3421  0.5744  0.5018
  528MOL0     C71207   5.000   8.236   3.234  0.0719  0.0287 -0.3955
  528MOL0     C71208   5.154   8.256   3.260  0.4217  0.1734 -0.9571
  528MOL0     C71209   5.230   8.336   3.162  0.2371 -0.5410 -1.0003
  528MOL0     C71210   5.297   8.407   3.089  0.4036 -0.3831 -0.2000
  528MOL0     C71211   4.652   8.042   3.432 -0.9618 -0.2665 -0.0654
  528MOL0     C71212   4.514   8.054   3.453  0.2163 -0.7739  0.6970
  528MOL0     H71213   4.055   8.168   3.092  2.0413  1.5846  1.9022
  528MOL0     H71214   3.820   8.189   3.077 -0.6621 -1.2686 -0.5695
  528MOL0     H71215   3.643   8.329   3.197 -2.1641  2.0144 -3.2450
  528MOL0     H71216   3.577   8.198   3.091 -0.3182 -2.8395  0.9260
  528MOL0     H71217   3.466   8.299   3.363 -0.4707  1.1902 -0.4861
  528MOL0     H71218   3.412   8.380   3.225  2.2575  1.4635  1.3053
  528MOL0     H71219   3.340   8.147   3.139  1.4878  0.7567 -0.5461
  528MOL0     H71220   3.390   8.092   3.292  1.0966  0.7814  1.4047
  528MOL0     H71221   3.227   8.260   3.413 -1.9977  2.1020  0.2273
  528MOL0     H71222   3.172   8.308   3.256  1.2931  0.5529 -0.3474
  528MOL0     H71223   3.124   8.066   3.200  0.8417 -1.2381 -0.0634
  528MOL0     H71224   3.150   8.024   3.374 -4.8903 -2.0349 -0.1721
  528MOL0     H71225   2.931   8.156   3.248  0.6784  0.4925  0.0310
  528MOL0     H71226   2.932   8.035   3.359  2.9313 -1.0855  0.5346
  528MOL0     H71227   3.049   8.225   3.532  0.4337 -2.0048 -0.5504
  528MOL0     H71228   2.966   8.329   3.422 -3.6572  0.0191 -0.2593
  528MOL0     H71229   2.848   8.280   3.630  2.4164 -2.0113  2.6854
  528MOL0     H71230   2.865   8.113   3.596 -1.8036  1.4696  2.4226
  528MOL0     H71231   2.609   8.082   3.610 -0.4236 -2.7755 -0.5673
  528MOL0     H71232   2.309   8.145   3.368  2.9575 -0.8093 -1.9950
  528MOL0     H71233   2.366   7.998   3.460 -2.1271 -0.6260  0.1329
  528MOL0     H71234   2.287   8.274   3.561  1.3749  0.5211  1.8792
  528MOL0     H71235   2.353   8.138   3.663 -0.0227 -1.4936 -0.4916
  528MOL0     H71236   2.158   7.999   3.616  1.6973  0.3568  1.1236
  528MOL0     H71237   2.096   8.114   3.497  0.8018 -1.2927  0.2154
  528MOL0     H71238   2.075   8.292   3.663 -1.3876  0.3717  1.8930
  528MOL0     H71239   2.111   8.179   3.792 -0.5739  0.2865  0.6813
  528MOL0     H71240   1.964   8.243   3.455  0.2298 -1.5799 -0.7395
  528MOL0     H71241   1.922   8.241   3.240 -0.5542 -1.3724  1.8490
  528MOL0     H71242   1.758   8.210   3.167 -0.3325  1.0110 -0.7932
  528MOL0     H71243   1.796   8.366   3.218 -3.0687 -0.5693 -2.7971
  528MOL0     H71244   1.567   8.194   2.978  1.1159  0.2520 -1.6637
  528MOL0     H71245   1.385   8.167   2.799 -1.9699  0.3113  0.3122
  528MOL0     H71246   1.069   7.868   2.804  0.7562  0.1644  0.9754
  528MOL0     H71247   1.021   7.996   2.925 -2.6193  0.3441 -0.9791
  528MOL0     H71248   0.951   8.134   2.722  0.8685 -0.5126 -2.6573
  528MOL0     H71249   0.978   8.001   2.622 -2.3345 -1.0023 -0.4414
  528MOL0     H71250   0.746   8.025   2.844 -1.3835 -3.0939  1.0740
  528MOL0     H71251   0.791   7.880   2.779 -1.0240  0.3612 -0.6641
  528MOL0     H71252   0.669   8.123   2.630 -5.0806 -1.6074  0.3197
  528MOL0     H71253   0.741   7.990   2.543 -0.0859  1.2384 -0.4915
  528MOL0     H71254   0.502   7.980   2.756 -0.1146 -1.1720  1.0489
  528MOL0     H71255   0.558   7.845   2.659  0.1960  0.2753  1.6545
  528MOL0     H71256   0.452   8.105   2.554 -1.8512 -0.1989 -1.3895
  528MOL0     H71257   0.490   7.959   2.452 -0.5990  1.8262 -1.8193
  528MOL0     H71258   0.268   7.962   2.655  0.4918  2.0077 -0.3682
  528MOL0     H71259   0.323   7.827   2.554 -2.5116 -0.1837  1.1363
  528MOL0     H71260   0.273   8.004   2.358 -0.2478 -0.5045 -0.4610
  528MOL0     H71261   0.206   8.099   2.490 -1.1132  0.3450 -1.8355
  528MOL0     H71262   1.182   7.886   3.034  0.8423  0.5059  3.6567
  528MOL0     H71263   1.348   7.915   3.220 -0.4760  0.8392 -0.8310
  528MOL0     H71264   1.517   8.044   3.550 -0.7299  1.4650 -1.8902
  528MOL0     H71265   1.678   8.063   3.731  1.4472 -1.0882 -0.5332
  528MOL0     H71266   3.774   8.010   3.463  0.1855 -0.5325 -0.2042
  528MOL0     H71267   4.005   7.976   3.480 -1.8201  0.1699 -0.1074
  528MOL0     H71268   4.386   7.955   3.162 -0.0661 -1.4548  1.0272
  528MOL0     H71269   4.623   7.940   3.110 -1.4942 -0.4938 -0.8857
  528MOL0     H71270   4.914   7.963   3.443 -2.4642 -2.5808 -2.4801
  528MOL0     H71271   5.014   7.979   3.304 -1.0046 -2.1334 -0.2569
  528MOL0     H71272   5.008   8.198   3.444  0.6189 -0.8680  0.1580
  528MOL0     H71273   4.856   8.238   3.391  1.6004  3.3714  0.1615
  528MOL0     H71274   4.945   8.330   3.222 -0.2963  0.3166  2.6842
  528MOL0     H71275   4.986   8.179   3.142 -0.0635  0.3941 -0.6030
  528MOL0     H71276   5.199   8.157   3.274  0.8562  0.8477  3.8055
  528MOL0     H71277   5.165   8.321   3.347 -0.9276 -0.4294 -0.3066
  528MOL0     H71278   5.357   8.469   3.025 -1.1343 -0.6784 -2.0053
  528MOL0     H71279   4.709   8.079   3.516 -2.6321  1.4142  0.3996
  528MOL0     H71280   4.480   8.081   3.553 -0.1103  0.3814  0.2913
  529MOL0     O71281   8.570   7.682  10.857 -0.8020 -0.0198 -0.1178
  529MOL0     C71282   8.648   7.707  10.952 -0.9539 -0.5337 -0.8617
  529MOL0     O71283   8.614   7.758  11.079 -0.3898 -0.0222  0.3167
  529MOL0     C71284   8.481   7.794  11.104  0.2912 -0.2244 -0.4384
  529MOL0     C71285   8.447   7.794  11.243  0.2515  0.4596 -0.4319
  529MOL0     C71286   8.319   7.833  11.281  0.2402 -1.0852  0.1839
  529MOL0     C71287   8.217   7.856  11.185  0.4353  0.0251  0.0782
  529MOL0     O71288   8.090   7.877  11.240 -0.6199 -0.6745  0.5211
  529MOL0     C71289   7.981   7.812  11.172  0.8810 -1.1795 -0.3850
  529MOL0     C71290   7.846   7.879  11.222 -1.1079 -0.4032  0.3042
  529MOL0     C71291   7.819   7.851  11.373  0.9538 -0.3202  0.9096
  529MOL0     C71292   7.673   7.903  11.398  0.6490 -0.6168 -0.3044
  529MOL0     C71293   7.617   7.923  11.546  0.3346  0.1889 -0.2647
  529MOL0     C71294   7.474   7.978  11.543 -0.8308  0.2415 -0.0906
  529MOL0     C71295   7.411   8.015  11.674  0.2784  0.2179  0.3952
  529MOL0     C71296   7.375   7.900  11.772 -0.9677 -0.4044  0.3860
  529MOL0     N71297   7.301   7.796  11.703 -0.4752  1.2981 -0.8189
  529MOL0     C71298   7.168   7.790  11.682 -0.0830 -1.0526 -0.6591
  529MOL0     C71299   7.131   7.661  11.657 -0.2236 -0.3942 -0.4752
  529MOL0     C71300   6.995   7.598  11.634  0.3509 -0.6799 -0.7255
  529MOL0     C71301   6.879   7.670  11.700 -0.7901 -0.1154 -0.4666
  529MOL0     C71302   6.761   7.589  11.689  0.0033  0.4411 -0.1530
  529MOL0     C71303   6.631   7.657  11.732  0.3356  0.0057 -0.0749
  529MOL0     O71304   6.639   7.716  11.858  0.4082  0.7626 -0.3434
  529MOL0     C71305   6.517   7.754  11.920 -0.0771  0.9731  0.9267
  529MOL0     C71306   6.391   7.744  11.865 -0.7034  0.4489 -0.5524
  529MOL0     C71307   6.274   7.783  11.933  0.2285  0.6779 -0.0550
  529MOL0     C71308   6.137   7.772  11.865 -0.5260  0.0545  0.2899
  529MOL0     C71309   6.287   7.826  12.072  0.9072  0.8947  0.6328
  529MOL0     C71310   6.180   7.871  12.156  0.1474  0.1376  0.1188
  529MOL0     O71311   6.210   7.970  12.234  0.5305  0.0258  0.3545
  529MOL0     C71312   6.114   8.040  12.296 -0.2882 -0.2952  0.2924
  529MOL0     C71313   6.129   8.074  12.428  0.1804 -0.9798 -0.9639
  529MOL0     C71314   6.049   8.158  12.503  0.0192  0.2110  0.5173
  529MOL0     C71315   5.929   8.209  12.447 -0.2349 -0.4673  0.4111
  529MOL0     O71316   5.856   8.276  12.544 -0.2016 -0.5028 -0.0441
  529MOL0     C71317   5.783   8.392  12.489  0.7803  0.2378 -0.3265
  529MOL0     C71318   5.643   8.337  12.442 -1.7022 -0.5670  0.4242
  529MOL0     C71319   5.573   8.280  12.556 -0.1694  0.0602  0.6741
  529MOL0     C71320   5.421   8.269  12.543 -0.8145  1.1459  0.1758
  529MOL0     C71321   5.350   8.191  12.660  0.6225  0.1799  0.3704
  529MOL0     C71322   5.212   8.160  12.593 -0.6118 -0.5864 -0.7156
  529MOL0     C71323   5.128   8.299  12.583 -0.7683  0.3086 -0.4658
  529MOL0     C71324   4.979   8.281  12.547  0.2331  0.4724  0.4958
  529MOL0    Cl71325   4.912   8.112  12.588 -0.2406  0.5668  0.6490
  529MOL0     C71326   5.922   8.196  12.300  0.7851 -0.0940  0.0938
  529MOL0     C71327   6.012   8.120  12.230 -0.1878 -0.1357 -0.7213
  529MOL0     O71328   6.066   7.835  12.132 -0.2705  0.4268  0.1813
  529MOL0     C71329   6.416   7.849  12.120  0.5131 -0.7269  0.3118
  529MOL0     C71330   6.524   7.805  12.044  0.0540  0.0017 -0.0710
  529MOL0     N71331   7.238   7.577  11.683 -1.0712  0.5347  0.7696
  529MOL0     N71332   7.350   7.659  11.705  0.2858  0.0408  0.1669
  529MOL0     C71333   8.251   7.866  11.055  0.5003  0.4124 -0.4390
  529MOL0     C71334   8.381   7.839  11.018  0.4030 -0.3607  0.7585
  529MOL0     C71335   8.800   7.692  10.929  0.0628 -0.2819 -0.5610
  529MOL0     C71336   8.896   7.732  11.040 -0.1058  0.5241  0.6818
  529MOL0     C71337   9.031   7.736  11.010 -0.5754  0.3453  0.0632
  529MOL0     C71338   9.076   7.685  10.878 -0.6400 -0.1558  0.0135
  529MOL0     O71339   9.203   7.689  10.835 -0.4204  0.2621 -0.2659
  529MOL0     C71340   9.302   7.678  10.939  0.6623  0.7685  0.2849
  529MOL0     C71341   9.447   7.646  10.887 -0.4738 -0.6338 -0.1085
  529MOL0     C71342   9.478   7.524  10.801  0.1732  0.0385  0.3997
  529MOL0     C71343   9.622   7.523  10.744 -0.2594 -1.1975  0.7632
  529MOL0     C71344   9.729   7.493  10.843  0.7011 -0.0695  0.1329
  529MOL0     C71345   9.795   7.480  10.943 -0.6652  0.0751  0.0063
  529MOL0     C71346   8.983   7.648  10.781  0.1410  0.8529 -0.8578
  529MOL0     C71347   8.844   7.649  10.808 -0.3709  0.2811  0.5809
  529MOL0     H71348   8.524   7.771  11.316  1.6544  3.4710 -0.8207
  529MOL0     H71349   8.293   7.824  11.386 -2.1852 -0.1996 -0.2770
  529MOL0     H71350   7.981   7.819  11.063 -2.3283  2.5054 -0.3616
  529MOL0     H71351   7.994   7.707  11.200  0.1238 -1.1796 -0.0260
  529MOL0     H71352   7.856   7.985  11.196 -0.4219 -0.4829  0.2455
  529MOL0     H71353   7.767   7.844  11.155 -1.0166  5.0202 -3.3240
  529MOL0     H71354   7.828   7.743  11.390 -1.3583 -0.8499 -0.6846
  529MOL0     H71355   7.891   7.902  11.437  1.0077  1.7033 -0.6682
  529MOL0     H71356   7.664   8.002  11.354  0.1494  0.4737  2.1446
  529MOL0     H71357   7.602   7.835  11.348 -1.0633  0.6851  0.2722
  529MOL0     H71358   7.635   7.833  11.605  1.6726  0.3264 -0.4230
  529MOL0     H71359   7.684   7.995  11.593  0.5171  1.3361 -2.1558
  529MOL0     H71360   7.470   8.065  11.477  2.5783  1.7890  1.5031
  529MOL0     H71361   7.417   7.890  11.512 -2.1137  0.0128  2.6669
  529MOL0     H71362   7.471   8.083  11.735  1.0456  1.0390 -1.2232
  529MOL0     H71363   7.317   8.064  11.650  0.0844  0.9636  2.4306
  529MOL0     H71364   7.324   7.938  11.861 -0.9603  0.3067  0.0983
  529MOL0     H71365   7.469   7.858  11.809  0.0782  1.8650  0.5004
  529MOL0     H71366   7.101   7.875  11.693  1.2636 -0.0774  0.4088
  529MOL0     H71367   6.979   7.585  11.526 -1.2536  0.0465 -0.6010
  529MOL0     H71368   6.994   7.499  11.681  1.7634 -0.4452 -0.1299
  529MOL0     H71369   6.861   7.771  11.661  2.2517  0.6209 -0.2690
  529MOL0     H71370   6.899   7.683  11.807 -2.3068 -0.8052 -0.0796
  529MOL0     H71371   6.760   7.492  11.740  0.4587 -1.6414 -3.6969
  529MOL0     H71372   6.744   7.561  11.584 -1.6863  3.1592 -0.6885
  529MOL0     H71373   6.556   7.577  11.730 -0.2854  0.5861 -0.9735
  529MOL0     H71374   6.607   7.727  11.651  1.0772  0.6469  0.2591
  529MOL0     H71375   6.396   7.717  11.760  0.6129  0.8210 -0.6002
  529MOL0     H71376   6.101   7.669  11.862 -0.6474  0.0293  1.9975
  529MOL0     H71377   6.061   7.836  11.909 -0.4265 -0.7034  1.6085
  529MOL0     H71378   6.143   7.811  11.763 -0.4585 -1.0450 -0.1404
  529MOL0     H71379   6.219   8.033  12.472  0.0249 -0.7252 -0.4025
  529MOL0     H71380   6.073   8.181  12.606 -1.9120 -0.2036  1.1023
  529MOL0     H71381   5.775   8.467  12.568 -2.3830 -0.8278  0.4992
  529MOL0     H71382   5.833   8.434  12.401  1.1952 -0.9870 -0.6985
  529MOL0     H71383   5.596   8.426  12.397 -1.3540 -0.8552 -0.5368
  529MOL0     H71384   5.657   8.271  12.356 -0.5573 -0.0138  0.1637
  529MOL0     H71385   5.598   8.340  12.644  0.9623  1.6448 -0.6595
  529MOL0     H71386   5.614   8.182  12.582  1.6216  0.0749 -1.7688
  529MOL0     H71387   5.383   8.369  12.518 -2.5613 -0.2652 -3.4651
  529MOL0     H71388   5.393   8.212  12.454 -0.1313  0.9666  0.0715
  529MOL0     H71389   5.333   8.256  12.747 -3.4264 -0.5205  0.3098
  529MOL0     H71390   5.400   8.097  12.685 -2.5387 -1.8572 -0.3945
  529MOL0     H71391   5.217   8.100  12.501 -1.7928 -5.3211  2.0016
  529MOL0     H71392   5.156   8.105  12.669  3.0468 -0.2611  2.5313
  529MOL0     H71393   5.168   8.368  12.507 -1.0059  1.5405  0.4999
  529MOL0     H71394   5.139   8.350  12.679  1.6163  2.2591 -1.6598
  529MOL0     H71395   4.961   8.303  12.442 -2.0046  1.1557  0.9652
  529MOL0     H71396   4.929   8.361  12.603  1.4999  2.5612 -1.2508
  529MOL0     H71397   5.840   8.226  12.236  1.5856  0.1035 -0.8563
  529MOL0     H71398   6.013   8.119  12.121 -0.1984  0.9906 -0.7425
  529MOL0     H71399   6.421   7.902  12.215 -1.2082  1.8573 -0.9207
  529MOL0     H71400   6.622   7.824  12.088 -0.3516  0.0121  0.8510
  529MOL0     H71401   8.178   7.888  10.977  0.6745 -1.5579 -1.2196
  529MOL0     H71402   8.391   7.872  10.915 -1.0479  0.0700  0.7293
  529MOL0     H71403   8.861   7.761  11.138 -0.8119 -2.4468  1.4260
  529MOL0     H71404   9.101   7.784  11.079  0.3475  0.8829 -1.2135
  529MOL0     H71405   9.304   7.766  11.004  0.2907 -0.9412  2.7148
  529MOL0     H71406   9.279   7.590  10.998  0.0800  1.7995  1.6382
  529MOL0     H71407   9.510   7.640  10.976  0.2833 -0.0731 -0.5984
  529MOL0     H71408   9.474   7.731  10.824  0.8776 -1.4469 -0.6456
  529MOL0     H71409   9.409   7.505  10.718  1.1869 -0.5714 -0.3212
  529MOL0     H71410   9.471   7.436  10.866 -1.2983 -1.0341 -1.1116
  529MOL0     H71411   9.646   7.619  10.697 -0.2186 -1.5247  0.0978
  529MOL0     H71412   9.625   7.440  10.673  0.1855 -3.5567  3.3870
  529MOL0     H71413   9.863   7.461  11.024  2.9831  4.5391 -1.5449
  529MOL0     H71414   9.021   7.619  10.683 -0.0338  2.8640 -1.5727
  529MOL0     H71415   8.775   7.625  10.728  0.1073  0.6284  0.0591
  530MOL0     O71416   9.854   8.940   4.266 -0.8750  0.6969  0.7021
  530MOL0     C71417   9.926   8.874   4.191 -0.1285 -0.4032 -0.6301
  530MOL0     O71418   9.884   8.800   4.086  0.2409 -0.9410  0.2138
  530MOL0     C71419   9.754   8.781   4.037 -0.7901  0.3073  0.1351
  530MOL0     C71420   9.641   8.784   4.104  0.8897  0.4410 -1.3473
  530MOL0     C71421   9.523   8.733   4.046 -0.5377  0.7674 -1.1096
  530MOL0     C71422   9.523   8.681   3.917 -0.0635 -0.1620  0.0420
  530MOL0     O71423   9.402   8.624   3.865  0.0577  0.6321  0.5526
  530MOL0     C71424   9.348   8.672   3.738 -0.3356  0.4413 -0.7266
  530MOL0     C71425   9.348   8.562   3.632  1.6495  0.0999 -0.7193
  530MOL0     C71426   9.238   8.452   3.635  0.7647 -0.2838  0.1147
  530MOL0     C71427   9.249   8.352   3.522 -0.4367  0.1034 -0.1793
  530MOL0     C71428   9.158   8.239   3.545  0.5963  0.0472  0.2828
  530MOL0     C71429   9.009   8.277   3.523  0.7365  0.0513 -0.5087
  530MOL0     C71430   8.990   8.341   3.389  0.6627  0.4740  0.4323
  530MOL0     C71431   8.844   8.362   3.350 -0.0067 -0.7908 -0.3199
  530MOL0     N71432   8.848   8.400   3.205  0.0418  0.2044  0.0472
  530MOL0     C71433   8.785   8.335   3.107 -0.4312 -0.0902 -0.2545
  530MOL0     C71434   8.815   8.402   2.988 -0.1566  0.0382 -0.2836
  530MOL0     C71435   8.769   8.352   2.862  0.2626  0.1379  0.1893
  530MOL0     C71436   8.619   8.383   2.853  0.1467  0.0421  0.3921
  530MOL0     C71437   8.577   8.292   2.734  0.0431 -0.8806 -0.1007
  530MOL0     C71438   8.429   8.332   2.704  1.0286  0.2806  0.4273
  530MOL0     O71439   8.379   8.231   2.612  0.3345  0.0251  0.3632
  530MOL0     C71440   8.276   8.248   2.517 -0.6609  0.4656 -0.3563
  530MOL0     C71441   8.235   8.134   2.450 -0.7419 -0.5685 -0.6633
  530MOL0     C71442   8.110   8.137   2.387  0.1138  0.5139  0.4753
  530MOL0     C71443   8.058   8.006   2.329 -0.0810  0.0435  0.4329
  530MOL0     C71444   8.044   8.249   2.366 -1.0611 -0.5748  0.8724
  530MOL0     C71445   7.936   8.258   2.268 -0.3096  0.3351 -0.0189
  530MOL0     O71446   7.836   8.348   2.303 -0.2067  0.0001  0.2811
  530MOL0     C71447   7.735   8.386   2.222  0.2155 -1.0831  0.0301
  530MOL0     C71448   7.672   8.305   2.129 -0.1909  1.0176  0.2506
  530MOL0     C71449   7.568   8.354   2.047 -0.3661  0.4060  0.3275
  530MOL0     C71450   7.541   8.492   2.052 -0.8194 -0.4749  0.9453
  530MOL0     O71451   7.452   8.552   1.969 -0.0696 -0.2238  0.2080
  530MOL0     C71452   7.326   8.500   1.933 -0.4049 -0.1402  0.1771
  530MOL0     C71453   7.265   8.597   1.834 -1.0394 -0.0907 -0.2858
  530MOL0     C71454   7.147   8.535   1.757  0.1774  0.5800 -0.6044
  530MOL0     C71455   7.065   8.640   1.682  0.3043  0.6217 -0.3953
  530MOL0     C71456   6.968   8.726   1.765 -0.9146  0.3365 -0.8532
  530MOL0     C71457   6.895   8.837   1.689 -0.3618  0.3632  0.0990
  530MOL0     C71458   6.798   8.928   1.757 -0.6468  0.4356  0.0003
  530MOL0     C71459   6.713   8.997   1.651  0.0772  0.0402 -1.3948
  530MOL0    Cl71460   6.620   9.136   1.724 -0.2349 -0.2275 -0.0382
  530MOL0     C71461   7.607   8.578   2.144  0.0959  0.4829  0.6211
  530MOL0     C71462   7.690   8.520   2.242 -0.3408 -0.4415 -1.0003
  530MOL0     O71463   7.944   8.197   2.159  0.1240  0.1456  0.1894
  530MOL0     C71464   8.092   8.363   2.422 -0.3737 -0.5312  0.2347
  530MOL0     C71465   8.206   8.366   2.500  0.2664 -0.4319 -0.6956
  530MOL0     N71466   8.888   8.520   3.022 -0.6373  0.4273 -0.4299
  530MOL0     N71467   8.906   8.511   3.149 -0.0520 -0.2870  0.4655
  530MOL0     C71468   9.638   8.689   3.843 -0.1754 -0.3749  0.0656
  530MOL0     C71469   9.751   8.746   3.902  0.0202  0.6594 -0.3180
  530MOL0     C71470  10.071   8.865   4.214 -0.3202 -0.3924 -0.1448
  530MOL0     C71471  10.149   8.769   4.144  0.6235 -0.6161 -0.6056
  530MOL0     C71472  10.287   8.769   4.169 -0.0726  1.2918  0.9092
  530MOL0     C71473  10.352   8.857   4.254 -0.1013 -0.0977 -0.6540
  530MOL0     O71474  10.492   8.863   4.265  0.0841 -0.0368  0.7193
  530MOL0     C71475  10.585   8.783   4.182  0.0871 -0.5930  1.5164
  530MOL0     C71476  10.613   8.644   4.251  0.7158  0.1505  1.1303
  530MOL0     C71477  10.683   8.635   4.380 -0.2876 -0.2979 -0.7363
  530MOL0     C71478  10.837   8.645   4.377  0.2887  0.4859 -0.7443
  530MOL0     C71479  10.891   8.698   4.511 -0.1998 -0.7196  0.3095
  530MOL0     C71480  10.931   8.739   4.616  0.2192 -0.8949 -0.0558
  530MOL0     C71481  10.268   8.955   4.317 -0.8463 -0.4115  0.0308
  530MOL0     C71482  10.134   8.959   4.300  0.7711 -0.2835  0.6543
  530MOL0     H71483   9.655   8.818   4.206 -0.7612  2.2454 -1.6670
  530MOL0     H71484   9.443   8.723   4.118  2.5077  3.5907  3.1413
  530MOL0     H71485   9.250   8.716   3.755 -0.1637  0.3872  0.5398
  530MOL0     H71486   9.411   8.751   3.697 -2.4302  2.0123 -1.0540
  530MOL0     H71487   9.339   8.606   3.532  3.1157 -2.4604 -2.1030
  530MOL0     H71488   9.441   8.505   3.647  0.4974 -2.1340 -1.6004
  530MOL0     H71489   9.237   8.403   3.732 -0.2696  0.3169  0.4177
  530MOL0     H71490   9.143   8.500   3.611  0.3323 -1.8674 -1.6909
  530MOL0     H71491   9.242   8.411   3.430  2.6142 -0.3446 -0.7923
  530MOL0     H71492   9.353   8.323   3.538 -0.2148  1.7184  1.7070
  530MOL0     H71493   9.173   8.153   3.478  1.1187 -1.6711  2.4697
  530MOL0     H71494   9.173   8.191   3.642 -0.2134 -0.6091  0.0925
  530MOL0     H71495   8.957   8.180   3.525 -1.6207  1.2324 -0.6710
  530MOL0     H71496   8.978   8.345   3.603  2.7836  2.6541 -1.7914
  530MOL0     H71497   9.034   8.441   3.384  2.1610 -0.1341  0.7590
  530MOL0     H71498   9.044   8.279   3.316  1.5812 -0.4545  1.8409
  530MOL0     H71499   8.800   8.439   3.414 -3.5622 -0.2739 -3.0729
  530MOL0     H71500   8.800   8.262   3.356  3.6465 -2.6070 -0.9959
  530MOL0     H71501   8.739   8.237   3.112  2.4029 -1.6551 -1.8930
  530MOL0     H71502   8.823   8.396   2.777  0.3112 -0.7986 -0.2885
  530MOL0     H71503   8.789   8.245   2.846 -0.5908  0.4231 -4.2162
  530MOL0     H71504   8.615   8.489   2.827  0.7054  0.3351  1.4560
  530MOL0     H71505   8.552   8.365   2.938 -2.7123  0.5368 -1.6086
  530MOL0     H71506   8.595   8.185   2.746 -0.7597 -1.2829 -2.0816
  530MOL0     H71507   8.642   8.324   2.652  2.4919 -2.4633  1.1079
  530MOL0     H71508   8.425   8.435   2.668 -0.1381  0.2981  0.5830
  530MOL0     H71509   8.365   8.325   2.792 -3.7658 -0.7646 -2.7539
  530MOL0     H71510   8.295   8.043   2.458  1.2344  0.7332  0.1994
  530MOL0     H71511   8.081   7.995   2.223 -1.2229  0.7751  0.0925
  530MOL0     H71512   8.097   7.917   2.379 -1.4780 -1.1176 -0.4693
  530MOL0     H71513   7.949   7.999   2.343  0.0246  0.8964  1.9260
  530MOL0     H71514   7.691   8.199   2.120  0.7667  1.2815 -1.0955
  530MOL0     H71515   7.508   8.281   1.993 -0.8727 -1.9255  3.7040
  530MOL0     H71516   7.351   8.404   1.888  0.5496  0.7177 -1.1827
  530MOL0     H71517   7.261   8.501   2.021  1.0606  1.9410  1.3315
  530MOL0     H71518   7.230   8.679   1.897 -1.6449  0.5111 -1.3702
  530MOL0     H71519   7.346   8.627   1.767  0.8266 -0.2345  1.7871
  530MOL0     H71520   7.079   8.471   1.814 -2.3550  1.8346 -2.0496
  530MOL0     H71521   7.192   8.473   1.679 -0.2887  0.3483 -0.6946
  530MOL0     H71522   7.134   8.709   1.632  0.9332  0.1250 -0.2279
  530MOL0     H71523   7.009   8.590   1.603 -1.9339  3.4238 -0.7285
  530MOL0     H71524   7.028   8.768   1.847  1.1267  3.5061 -3.7072
  530MOL0     H71525   6.889   8.664   1.808  0.0998  0.7386  1.8191
  530MOL0     H71526   6.968   8.892   1.629  0.9194 -0.7179  0.6059
  530MOL0     H71527   6.829   8.787   1.618  0.5230 -0.1804 -0.3685
  530MOL0     H71528   6.857   9.010   1.801 -1.1336  1.5515 -1.3565
  530MOL0     H71529   6.750   8.879   1.843  0.8191  2.2234  1.9690
  530MOL0     H71530   6.646   8.914   1.629  3.6371 -3.5026 -0.1886
  530MOL0     H71531   6.780   9.023   1.569  3.3193  0.0139  1.0205
  530MOL0     H71532   7.581   8.682   2.160 -1.0627  0.2295  0.4708
  530MOL0     H71533   7.748   8.579   2.313 -1.7713 -1.7028  1.3283
  530MOL0     H71534   8.048   8.459   2.398  1.2723  0.3035  0.4274
  530MOL0     H71535   8.238   8.460   2.545 -2.6015  0.7486 -0.8898
  530MOL0     H71536   9.634   8.638   3.748 -0.1777  3.1543 -2.0183
  530MOL0     H71537   9.850   8.731   3.860 -0.2098 -0.8599 -0.3922
  530MOL0     H71538  10.103   8.692   4.082 -1.2778  0.0487 -0.0914
  530MOL0     H71539  10.344   8.688   4.122  0.3245  1.3250  1.3219
  530MOL0     H71540  10.547   8.764   4.081  0.1501 -2.1755  1.7666
  530MOL0     H71541  10.672   8.850   4.175 -0.8643  0.7919  2.5048
  530MOL0     H71542  10.674   8.589   4.178  0.5038  0.4174  0.7490
  530MOL0     H71543  10.517   8.591   4.243 -0.4927  2.4548 -3.0267
  530MOL0     H71544  10.662   8.539   4.428 -0.8037 -0.0652 -0.4859
  530MOL0     H71545  10.640   8.718   4.438  2.3273  1.0334 -0.5480
  530MOL0     H71546  10.870   8.720   4.305  0.7116  1.0561  0.0210
  530MOL0     H71547  10.886   8.551   4.352  1.1154  0.1007  1.9761
  530MOL0     H71548  10.970   8.757   4.714 -1.6389  2.9045  0.1699
  530MOL0     H71549  10.309   9.031   4.382 -2.4410 -1.0445  1.8537
  530MOL0     H71550  10.073   9.025   4.361  0.9013 -0.8337  1.3821
  531MOL0     O71551   0.752   9.610   3.742  0.0808 -0.6516 -0.5094
  531MOL0     C71552   0.837   9.577   3.660 -1.1023 -0.5694 -0.3966
  531MOL0     O71553   0.831   9.546   3.529  0.6417 -0.4083  0.3869
  531MOL0     C71554   0.720   9.543   3.448 -0.1724 -0.3380 -0.2455
  531MOL0     C71555   0.590   9.555   3.495 -0.6493  0.9952 -0.2395
  531MOL0     C71556   0.487   9.556   3.403  0.6010  0.1742  0.2757
  531MOL0     C71557   0.511   9.565   3.269 -0.5507 -0.6928 -0.1963
  531MOL0     O71558   0.401   9.574   3.188  0.0503 -0.0054 -0.9749
  531MOL0     C71559   0.324   9.700   3.200  0.3739  0.5336 -0.2414
  531MOL0     C71560   0.180   9.661   3.204 -0.3361  0.2895  1.4765
  531MOL0     C71561   0.080   9.772   3.181 -0.2415 -0.2145  0.5541
  531MOL0     C71562  -0.062   9.717   3.217 -0.4041 -0.4253 -0.2022
  531MOL0     C71563  -0.103   9.582   3.143 -0.0590 -0.0128 -0.3476
  531MOL0     C71564  -0.254   9.598   3.101  0.8125  0.1515  0.5551
  531MOL0     C71565  -0.302   9.488   3.012  0.2137 -0.0122  0.5047
  531MOL0     C71566  -0.283   9.346   3.073  0.1879 -0.1688  0.1647
  531MOL0     N71567  -0.344   9.317   3.199 -0.1601  0.0106  0.1919
  531MOL0     C71568  -0.303   9.334   3.328  0.9039 -0.1333 -0.2594
  531MOL0     C71569  -0.400   9.288   3.410 -0.1434  0.0678  0.5559
  531MOL0     C71570  -0.397   9.278   3.565  0.2005 -0.4926  0.3515
  531MOL0     C71571  -0.367   9.138   3.623  0.1748 -0.0761  0.6357
  531MOL0     C71572  -0.462   9.014   3.600 -0.4035 -0.1166  1.2870
  531MOL0     C71573  -0.608   9.039   3.629  0.7993  0.0074  0.0217
  531MOL0     O71574  -0.674   8.914   3.592 -0.5831  0.4527  0.1235
  531MOL0     C71575  -0.809   8.923   3.590 -0.4870  0.0050 -0.1091
  531MOL0     C71576  -0.882   8.845   3.499  0.4839  0.2052  0.3001
  531MOL0     C71577  -1.024   8.840   3.494 -0.3590 -0.0927  0.4848
  531MOL0     C71578  -1.092   8.736   3.398  0.5601 -0.4015 -0.0850
  531MOL0     C71579  -1.100   8.911   3.591  0.0401 -0.5300  0.0288
  531MOL0     C71580  -1.247   8.914   3.594 -0.1963 -0.8263 -0.3611
  531MOL0     O71581  -1.333   8.904   3.480 -1.0238 -0.2336  0.0120
  531MOL0     C71582  -1.475   8.921   3.491  0.1882 -0.2397 -0.4373
  531MOL0     C71583  -1.523   9.044   3.448  0.3378  0.3030 -0.1534
  531MOL0     C71584  -1.660   9.067   3.445  0.4014  0.0637  0.2249
  531MOL0     C71585  -1.753   8.972   3.498 -0.7775 -0.4926  0.5974
  531MOL0     O71586  -1.890   8.991   3.496  0.0507  0.2493  0.0145
  531MOL0     C71587  -1.939   9.118   3.569 -0.2997  0.5495 -0.4615
  531MOL0     C71588  -2.094   9.108   3.592 -0.3999  0.1072  0.9716
  531MOL0     C71589  -2.183   9.103   3.466 -0.6138 -0.5411 -0.1491
  531MOL0     C71590  -2.223   8.956   3.439 -0.0729  0.2144 -0.5266
  531MOL0     C71591  -2.322   8.950   3.325 -0.2122  0.0948 -0.3553
  531MOL0     C71592  -2.378   8.803   3.297  0.2366  0.0099 -0.2986
  531MOL0     C71593  -2.447   8.739   3.413 -0.1287 -0.1778  0.4342
  531MOL0     C71594  -2.571   8.806   3.461 -0.5464  0.0094  0.4492
  531MOL0    Cl71595  -2.694   8.800   3.321 -0.3356  0.1286  0.0752
  531MOL0     C71596  -1.707   8.846   3.545  0.6929 -0.0962 -0.6005
  531MOL0     C71597  -1.567   8.827   3.534  0.2684 -0.0947  0.0034
  531MOL0     O71598  -1.298   8.932   3.701 -0.3179 -0.4658  0.1425
  531MOL0     C71599  -1.025   8.977   3.690 -0.0548 -0.3432  0.0649
  531MOL0     C71600  -0.887   8.992   3.687  0.3670 -0.1572  0.2714
  531MOL0     N71601  -0.497   9.248   3.327 -0.4978  0.2762  0.5258
  531MOL0     N71602  -0.456   9.244   3.205  0.4985 -0.1800  0.2020
  531MOL0     C71603   0.645   9.559   3.216 -0.1840  0.2067  0.0881
  531MOL0     C71604   0.748   9.544   3.309 -0.4575  0.6029  0.2290
  531MOL0     C71605   0.977   9.573   3.715  0.8327  0.0588  1.2219
  531MOL0     C71606   1.072   9.482   3.671  0.5283 -0.1774 -0.3519
  531MOL0     C71607   1.205   9.490   3.711 -0.0506 -0.3299 -0.6747
  531MOL0     C71608   1.240   9.584   3.808  0.1277 -0.7456  0.2720
  531MOL0     O71609   1.367   9.575   3.859  0.2763 -0.4471  0.0980
  531MOL0     C71610   1.468   9.600   3.758 -0.2022  0.0154  0.1605
  531MOL0     C71611   1.576   9.488   3.750  0.2162  0.1720  0.1494
  531MOL0     C71612   1.669   9.484   3.868 -0.2528  0.1906 -0.2605
  531MOL0     C71613   1.751   9.357   3.853  0.0986  0.5481 -0.3230
  531MOL0     C71614   1.863   9.363   3.950  0.7258  0.3191 -0.2924
  531MOL0     C71615   1.955   9.390   4.028 -0.4641 -0.2911  0.6865
  531MOL0     C71616   1.140   9.665   3.871 -0.5179 -0.6336 -0.5949
  531MOL0     C71617   1.011   9.652   3.826  0.2991 -0.0910 -0.0275
  531MOL0     H71618   0.566   9.565   3.600  0.5032  2.1696 -0.0616
  531MOL0     H71619   0.383   9.559   3.433 -0.7579 -0.1249 -3.8025
  531MOL0     H71620   0.359   9.752   3.289 -1.0667 -0.4235  0.9450
  531MOL0     H71621   0.339   9.760   3.110  1.6094  0.2043 -0.2736
  531MOL0     H71622   0.169   9.583   3.129  0.4508  0.3329  1.3082
  531MOL0     H71623   0.164   9.601   3.295 -0.0017 -0.7767  0.8550
  531MOL0     H71624   0.099   9.859   3.244 -0.8735 -1.5147  2.6306
  531MOL0     H71625   0.087   9.792   3.073 -2.5251  1.2565  0.6184
  531MOL0     H71626  -0.055   9.687   3.322  0.6416 -0.9918 -0.4241
  531MOL0     H71627  -0.145   9.786   3.202  0.2844  0.2582 -0.9796
  531MOL0     H71628  -0.033   9.582   3.059  0.5359  2.2362  0.0854
  531MOL0     H71629  -0.076   9.498   3.207  3.6537  1.1402 -0.1820
  531MOL0     H71630  -0.314   9.597   3.192 -1.9425 -2.6132 -1.0875
  531MOL0     H71631  -0.279   9.686   3.042 -0.2770  0.1164  0.9561
  531MOL0     H71632  -0.407   9.509   2.989  0.4862 -1.4908 -2.6483
  531MOL0     H71633  -0.261   9.488   2.911 -0.1794  1.0218  0.3424
  531MOL0     H71634  -0.180   9.309   3.077 -0.1806 -1.3821 -0.8102
  531MOL0     H71635  -0.333   9.285   2.997  1.2629 -1.6391  0.5956
  531MOL0     H71636  -0.203   9.363   3.359  0.2451  0.8340  1.0914
  531MOL0     H71637  -0.320   9.349   3.596 -0.0568 -0.0470 -0.0216
  531MOL0     H71638  -0.489   9.324   3.601  0.5702 -0.6794  1.5708
  531MOL0     H71639  -0.370   9.155   3.730 -5.2098  2.2376  0.4222
  531MOL0     H71640  -0.267   9.106   3.591 -0.6782 -1.3570 -0.9317
  531MOL0     H71641  -0.412   8.933   3.653 -0.6604 -1.2298 -0.1011
  531MOL0     H71642  -0.452   8.993   3.493 -0.1631 -0.5568  1.3927
  531MOL0     H71643  -0.645   9.122   3.568 -0.7152 -0.2872  0.4926
  531MOL0     H71644  -0.620   9.056   3.737 -2.1490 -1.0177 -0.0611
  531MOL0     H71645  -0.833   8.779   3.429 -0.9292 -3.6164  2.5608
  531MOL0     H71646  -1.153   8.797   3.331 -0.3690  0.6552  1.6570
  531MOL0     H71647  -1.009   8.677   3.357  0.2593 -1.0660  0.2548
  531MOL0     H71648  -1.157   8.670   3.455  3.7047 -4.6497 -0.9705
  531MOL0     H71649  -1.454   9.127   3.433  2.9917 -0.7228  4.3924
  531MOL0     H71650  -1.685   9.158   3.392  0.7427  0.2519  0.3874
  531MOL0     H71651  -1.891   9.125   3.667  0.5956  1.4855 -0.9507
  531MOL0     H71652  -1.913   9.203   3.506 -0.1473 -0.7578 -2.2473
  531MOL0     H71653  -2.119   9.019   3.651 -0.2567  0.0199  0.9033
  531MOL0     H71654  -2.143   9.191   3.645 -2.3991  0.1395 -0.7994
  531MOL0     H71655  -2.130   9.146   3.381  0.5476  0.0385  0.8344
  531MOL0     H71656  -2.269   9.166   3.491 -0.8936  1.2502 -4.6519
  531MOL0     H71657  -2.137   8.892   3.418  0.4489  0.7977 -0.2074
  531MOL0     H71658  -2.269   8.927   3.534  1.4762  0.7481  0.4325
  531MOL0     H71659  -2.270   8.989   3.237  0.7111 -0.8066 -0.2351
  531MOL0     H71660  -2.403   9.020   3.344 -1.9242 -2.3005  2.0595
  531MOL0     H71661  -2.447   8.816   3.213  0.2414  3.3683  0.0858
  531MOL0     H71662  -2.287   8.744   3.277 -0.3356 -3.0130  4.5376
  531MOL0     H71663  -2.376   8.747   3.496  0.5162  4.6191 -0.3197
  531MOL0     H71664  -2.469   8.636   3.384  0.3778 -0.3500  0.6457
  531MOL0     H71665  -2.546   8.907   3.493  0.4459  1.6792 -4.6672
  531MOL0     H71666  -2.620   8.749   3.540 -1.5183 -1.7277 -1.2900
  531MOL0     H71667  -1.781   8.781   3.592 -1.7755  1.4219 -2.1580
  531MOL0     H71668  -1.514   8.738   3.566  0.1378  0.4583  1.8623
  531MOL0     H71669  -1.070   9.028   3.775  0.5761  1.3364 -0.5776
  531MOL0     H71670  -0.828   9.043   3.762  4.3856 -5.6349  1.4911
  531MOL0     H71671   0.658   9.540   3.110  0.0236 -0.3834  0.2180
  531MOL0     H71672   0.851   9.519   3.286 -0.2790 -0.1981  1.7650
  531MOL0     H71673   1.038   9.413   3.594  1.9353 -1.1059 -0.1752
  531MOL0     H71674   1.280   9.416   3.685  0.5104 -0.3420  0.9144
  531MOL0     H71675   1.431   9.616   3.656  1.8644  1.7640 -0.3943
  531MOL0     H71676   1.507   9.699   3.786 -4.6272  1.4902  1.9468
  531MOL0     H71677   1.634   9.501   3.658 -0.0495  0.8354  0.0677
  531MOL0     H71678   1.517   9.397   3.740  1.4503 -0.6248 -0.0512
  531MOL0     H71679   1.605   9.474   3.957  0.4752 -0.1559  0.2398
  531MOL0     H71680   1.735   9.571   3.873  0.4765 -0.3550 -0.2567
  531MOL0     H71681   1.795   9.348   3.754  0.2979 -1.8647 -0.0745
  531MOL0     H71682   1.684   9.272   3.874  0.0002  0.0912 -2.2998
  531MOL0     H71683   2.021   9.430   4.102  0.8296 -0.8821 -0.1297
  531MOL0     H71684   1.156   9.732   3.954 -1.6533 -3.4621  2.0931
  531MOL0     H71685   0.935   9.720   3.863 -1.4677 -1.5999 -0.7082
  532MOL0     O71686  10.761   9.548   4.122 -1.1656  0.8061  0.1537
  532MOL0     C71687  10.857   9.514   4.050  0.0939 -0.3246 -0.9753
  532MOL0     O71688  10.839   9.499   3.915 -0.7177  0.8060  1.2114
  532MOL0     C71689  10.716   9.491   3.853 -0.1037  0.6250 -0.8009
  532MOL0     C71690  10.682   9.379   3.781  0.6857 -0.2513  0.2556
  532MOL0     C71691  10.549   9.371   3.715  0.3522  0.2179 -0.0862
  532MOL0     C71692  10.460   9.475   3.715  0.3099 -0.2392 -0.3661
  532MOL0     O71693  10.341   9.487   3.651 -0.0630 -0.3025  0.1353
  532MOL0     C71694  10.299   9.376   3.567 -0.0840  0.5520 -1.2263
  532MOL0     C71695  10.164   9.406   3.513 -0.3699  0.4536  0.5521
  532MOL0     C71696  10.055   9.386   3.623  0.7241 -0.0638  0.0239
  532MOL0     C71697   9.925   9.446   3.586  0.6782 -0.2085  0.8538
  532MOL0     C71698   9.805   9.423   3.675  0.9846 -0.3419  0.7155
  532MOL0     C71699   9.673   9.462   3.601  0.2368  0.2307  0.5655
  532MOL0     C71700   9.629   9.604   3.617  0.4628 -0.1162  0.2070
  532MOL0     C71701   9.487   9.633   3.556 -0.9494  0.2072 -0.6732
  532MOL0     N71702   9.478   9.589   3.413  0.0680 -0.1639  0.3643
  532MOL0     C71703   9.410   9.476   3.375  0.1948 -0.3186  0.0867
  532MOL0     C71704   9.427   9.461   3.249 -0.4086 -0.3126  0.7062
  532MOL0     C71705   9.382   9.345   3.161  0.8961  0.9184  1.2566
  532MOL0     C71706   9.230   9.361   3.120 -0.2292 -0.2284 -0.7126
  532MOL0     C71707   9.177   9.246   3.028 -0.1512 -0.0014 -0.2210
  532MOL0     C71708   9.164   9.277   2.877  1.1224 -0.1570 -0.3819
  532MOL0     O71709   9.082   9.398   2.872  0.3274  0.1832  0.8860
  532MOL0     C71710   9.046   9.463   2.759 -0.2184 -0.7379 -0.6261
  532MOL0     C71711   8.974   9.388   2.669  0.8454  0.5329 -0.5042
  532MOL0     C71712   8.924   9.454   2.549  0.0537 -0.2764  0.3047
  532MOL0     C71713   8.842   9.365   2.450  0.3326  0.1469  0.4702
  532MOL0     C71714   8.959   9.590   2.524 -0.4880 -0.3066 -0.0725
  532MOL0     C71715   8.901   9.666   2.418 -0.1901  0.6384  0.9295
  532MOL0     O71716   8.952   9.787   2.396  0.3439  0.0893  0.0327
  532MOL0     C71717   8.881   9.871   2.315  0.4390  0.1322 -0.4597
  532MOL0     C71718   8.787   9.943   2.377  0.8277 -0.4630 -0.2419
  532MOL0     C71719   8.711  10.035   2.303  0.4907  0.0211 -0.0667
  532MOL0     C71720   8.738  10.053   2.169  0.4135  0.0070  0.1910
  532MOL0     O71721   8.651  10.127   2.092 -0.5501  0.3398 -0.3288
  532MOL0     C71722   8.507  10.120   2.109  0.6992 -0.7665 -0.5288
  532MOL0     C71723   8.434  10.231   2.041 -0.8459  0.3802 -1.0682
  532MOL0     C71724   8.480  10.245   1.895  0.1875  0.0262  0.1429
  532MOL0     C71725   8.496  10.121   1.810  0.9431 -0.0300  0.0385
  532MOL0     C71726   8.578  10.156   1.683  0.0026  0.4137 -0.7510
  532MOL0     C71727   8.487  10.190   1.564 -0.6682  0.8011 -0.0815
  532MOL0     C71728   8.572  10.198   1.431 -0.3280 -0.0821 -0.0151
  532MOL0     C71729   8.492  10.227   1.304  0.1242  0.4625  0.6036
  532MOL0    Cl71730   8.444  10.396   1.284  0.0908 -0.4417 -0.1563
  532MOL0     C71731   8.841   9.997   2.109 -0.7385  0.2126  0.2610
  532MOL0     C71732   8.919   9.908   2.177  0.6699  0.3385 -0.2822
  532MOL0     O71733   8.804   9.619   2.355  0.3342  0.7784 -0.5047
  532MOL0     C71734   9.042   9.659   2.615 -0.3197  0.0529 -0.9171
  532MOL0     C71735   9.075   9.598   2.737  0.6076  0.7979  0.1149
  532MOL0     N71736   9.502   9.563   3.205  0.6927 -0.3744  0.9534
  532MOL0     N71737   9.536   9.641   3.303  0.1052  0.0714 -0.1333
  532MOL0     C71738  10.493   9.586   3.793  0.3675 -0.4716 -0.2420
  532MOL0     C71739  10.617   9.593   3.863 -0.3650 -1.2233 -0.2015
  532MOL0     C71740  10.992   9.490   4.090 -0.3163 -0.5442 -0.6624
  532MOL0     C71741  11.114   9.499   4.009  1.3858  0.0341  0.1421
  532MOL0     C71742  11.239   9.476   4.059 -0.2372  0.7766  0.1183
  532MOL0     C71743  11.249   9.426   4.189  0.0718  0.2126  0.1674
  532MOL0     O71744  11.362   9.404   4.267 -0.4095  0.3660  0.3825
  532MOL0     C71745  11.476   9.347   4.187 -0.5730  0.5852  0.6663
  532MOL0     C71746  11.584   9.280   4.280  0.3796 -0.0638 -0.0607
  532MOL0     C71747  11.723   9.315   4.253 -0.6859 -0.2907 -0.1534
  532MOL0     C71748  11.810   9.249   4.359 -0.2242 -0.4543  0.4302
  532MOL0     C71749  11.953   9.282   4.341  0.5051 -0.4305  0.2371
  532MOL0     C71750  12.071   9.310   4.347  0.2062  1.5946  1.4909
  532MOL0     C71751  11.138   9.417   4.268  0.5171 -0.3598 -0.0435
  532MOL0     C71752  11.014   9.455   4.230 -0.0478 -0.3758 -0.9420
  532MOL0     H71753  10.741   9.290   3.758 -0.7011 -0.4568 -2.9321
  532MOL0     H71754  10.530   9.288   3.648  2.7282  0.2686 -0.9186
  532MOL0     H71755  10.373   9.361   3.488  1.9732  0.9216  0.5148
  532MOL0     H71756  10.290   9.281   3.621  2.2919  1.6919  1.4760
  532MOL0     H71757  10.176   9.509   3.478  3.7779 -0.8729 -2.7635
  532MOL0     H71758  10.151   9.339   3.428  3.1501  2.0892 -1.4772
  532MOL0     H71759  10.042   9.280   3.644 -0.9016 -0.5834 -3.0382
  532MOL0     H71760  10.083   9.448   3.709  2.4898  1.9329 -1.8663
  532MOL0     H71761   9.939   9.554   3.595  2.7372 -0.6022  4.0873
  532MOL0     H71762   9.908   9.414   3.483 -1.0744 -2.5765  1.8118
  532MOL0     H71763   9.797   9.315   3.692 -0.9665 -0.7546 -2.0590
  532MOL0     H71764   9.809   9.476   3.770 -2.7387  0.2347  0.7009
  532MOL0     H71765   9.679   9.439   3.495  1.2165  3.3857 -0.1720
  532MOL0     H71766   9.592   9.410   3.653 -0.0878 -1.4324 -1.4732
  532MOL0     H71767   9.644   9.650   3.715 -1.0018 -3.0935  1.9747
  532MOL0     H71768   9.692   9.656   3.545  0.0547  0.2485  0.1114
  532MOL0     H71769   9.468   9.741   3.552  0.2966  0.3996 -1.8303
  532MOL0     H71770   9.400   9.594   3.610 -0.8041 -1.0733 -1.3380
  532MOL0     H71771   9.370   9.407   3.449  1.2638 -0.7783  0.2492
  532MOL0     H71772   9.443   9.334   3.071 -0.0783  0.4027  0.6424
  532MOL0     H71773   9.398   9.255   3.221  0.5049  0.5196  0.7686
  532MOL0     H71774   9.214   9.456   3.068 -0.7823  0.3499  0.4755
  532MOL0     H71775   9.176   9.353   3.215 -0.1462 -0.2166 -0.6645
  532MOL0     H71776   9.085   9.211   3.075 -0.9197  1.3670 -0.6659
  532MOL0     H71777   9.242   9.157   3.028 -3.7824 -3.0700 -3.5387
  532MOL0     H71778   9.119   9.190   2.827 -2.9073  0.3741  1.8568
  532MOL0     H71779   9.265   9.291   2.837  0.7767  1.0273 -0.8760
  532MOL0     H71780   8.960   9.284   2.697 -1.0376  0.5658 -1.1907
  532MOL0     H71781   8.852   9.265   2.495  1.7602  0.4003  0.7675
  532MOL0     H71782   8.740   9.406   2.449 -0.3169 -1.3755  0.9168
  532MOL0     H71783   8.890   9.360   2.352  0.1266  4.8635 -0.0635
  532MOL0     H71784   8.779   9.938   2.485  1.8940 -1.6149 -0.1824
  532MOL0     H71785   8.648  10.104   2.358  1.0631  0.5342 -0.0557
  532MOL0     H71786   8.481  10.020   2.072  3.2727 -1.6180 -0.2076
  532MOL0     H71787   8.469  10.126   2.211 -1.6501 -1.9538 -1.2363
  532MOL0     H71788   8.327  10.209   2.031 -1.3553  2.0427  0.2715
  532MOL0     H71789   8.456  10.320   2.100  1.0613  0.1074 -1.3132
  532MOL0     H71790   8.580  10.290   1.887  0.1271  0.2642  0.6759
  532MOL0     H71791   8.409  10.310   1.843 -0.5156 -0.3441  0.6257
  532MOL0     H71792   8.562  10.054   1.868 -0.3632 -1.0470  0.3934
  532MOL0     H71793   8.403  10.072   1.781  1.1775 -0.1309 -0.5589
  532MOL0     H71794   8.649  10.076   1.663 -2.0713 -1.7636  0.0582
  532MOL0     H71795   8.632  10.250   1.696 -1.9604  1.1900  3.9080
  532MOL0     H71796   8.409  10.115   1.548 -1.9297  1.8927  0.6881
  532MOL0     H71797   8.449  10.290   1.588 -2.8690  0.0219 -0.0748
  532MOL0     H71798   8.626  10.107   1.403 -0.2435  0.1412 -0.5915
  532MOL0     H71799   8.643  10.278   1.453 -1.3682  0.2052  2.7444
  532MOL0     H71800   8.402  10.165   1.306  0.6238 -0.2654  1.2983
  532MOL0     H71801   8.549  10.190   1.218 -0.4320  0.9175  0.0346
  532MOL0     H71802   8.865  10.013   2.005  1.3921  1.2041  0.8624
  532MOL0     H71803   9.007   9.884   2.118  1.0230 -0.8317  0.6724
  532MOL0     H71804   9.071   9.763   2.608  4.4008 -0.7908  1.8832
  532MOL0     H71805   9.137   9.655   2.805  0.3162  0.7159  0.4502
  532MOL0     H71806  10.417   9.662   3.804  1.6402  0.9557 -0.9020
  532MOL0     H71807  10.625   9.684   3.922 -1.1949 -2.7571  2.4346
  532MOL0     H71808  11.105   9.521   3.903  1.4121 -0.6060  0.0019
  532MOL0     H71809  11.334   9.483   4.006 -0.3925 -1.8693 -0.6586
  532MOL0     H71810  11.436   9.266   4.126 -1.0075  0.8535  0.5966
  532MOL0     H71811  11.534   9.417   4.125  1.8727 -1.9050 -0.0773
  532MOL0     H71812  11.576   9.171   4.279  3.4472 -0.3793  1.0099
  532MOL0     H71813  11.565   9.311   4.383  1.1171  2.2211 -0.5622
  532MOL0     H71814  11.736   9.424   4.252 -2.1030 -0.1064  0.0135
  532MOL0     H71815  11.766   9.285   4.157  0.8025 -3.1806  1.2630
  532MOL0     H71816  11.790   9.142   4.364  2.7761 -1.1268 -0.1326
  532MOL0     H71817  11.798   9.293   4.458 -1.2928 -2.9423  1.4847
  532MOL0     H71818  12.173   9.343   4.350  0.2422  1.5087  1.2101
  532MOL0     H71819  11.142   9.383   4.371 -1.1373 -0.0132  0.1537
  532MOL0     H71820  10.935   9.446   4.304 -0.5593  2.6016 -0.9899
  533MOL0     O71821   3.220  11.211   4.371  0.2371 -0.3699  0.2211
  533MOL0     C71822   3.160  11.266   4.281  0.0596  0.0747  1.1532
  533MOL0     O71823   3.050  11.340   4.290  0.0802 -0.0738 -0.3832
  533MOL0     C71824   3.020  11.376   4.418 -0.3869 -0.8460  0.3632
  533MOL0     C71825   3.058  11.507   4.460  0.5972  0.9899  0.1109
  533MOL0     C71826   3.011  11.546   4.585 -0.9564 -0.0529 -0.3930
  533MOL0     C71827   2.924  11.471   4.671 -0.4748  0.2987 -1.2563
  533MOL0     O71828   2.856  11.529   4.777 -0.2185 -0.6220 -0.0665
  533MOL0     C71829   2.841  11.434   4.881  0.0272 -0.4546 -0.9449
  533MOL0     C71830   2.856  11.518   5.017 -0.5619 -0.0376 -0.2637
  533MOL0     C71831   2.874  11.424   5.133 -1.0138  0.2675  0.5579
  533MOL0     C71832   2.836  11.487   5.270 -0.3581 -0.2349 -0.3406
  533MOL0     C71833   2.891  11.408   5.381 -0.2881  0.8301 -0.2688
  533MOL0     C71834   2.893  11.482   5.506 -0.1073 -0.5856  0.3273
  533MOL0     C71835   2.880  11.396   5.633 -0.8471  0.2387 -0.7410
  533MOL0     C71836   2.931  11.478   5.755  0.4581 -0.4591 -0.4119
  533MOL0     N71837   2.883  11.407   5.884  0.1617 -0.1075  0.0236
  533MOL0     C71838   2.951  11.301   5.930 -0.0983  1.0510  0.1976
  533MOL0     C71839   2.878  11.259   6.028  0.6683 -0.3911 -1.0873
  533MOL0     C71840   2.913  11.156   6.126 -0.6595  0.0206  0.5143
  533MOL0     C71841   2.801  11.084   6.209  0.2182 -0.1524  0.8289
  533MOL0     C71842   2.739  10.963   6.125  0.3353  0.0016 -0.0292
  533MOL0     C71843   2.637  10.889   6.204  0.3227 -0.1542 -0.0807
  533MOL0     O71844   2.529  10.972   6.264 -0.2575  0.1353  0.3150
  533MOL0     C71845   2.443  11.026   6.176  0.1834 -0.1225  0.3526
  533MOL0     C71846   2.334  10.954   6.136 -0.3793  1.0183  0.4717
  533MOL0     C71847   2.236  11.008   6.044  0.0880  0.7172 -0.3738
  533MOL0     C71848   2.117  10.915   6.016  0.9931 -0.7371  0.9199
  533MOL0     C71849   2.262  11.129   5.977  0.9797  0.1451 -0.4530
  533MOL0     C71850   2.171  11.199   5.886 -0.0657 -0.2171  0.6163
  533MOL0     O71851   2.231  11.303   5.821 -0.1354 -1.0566  0.0506
  533MOL0     C71852   2.144  11.398   5.755 -0.9840  0.7813 -0.4217
  533MOL0     C71853   2.077  11.481   5.831  0.6572 -0.8500  0.0789
  533MOL0     C71854   1.984  11.565   5.775 -0.1972 -1.2156 -0.9289
  533MOL0     C71855   1.959  11.564   5.634  0.0061 -0.2003 -0.5481
  533MOL0     O71856   1.870  11.650   5.586  0.2162  0.5721  0.2408
  533MOL0     C71857   1.812  11.637   5.453  0.4494 -1.3665 -0.5297
  533MOL0     C71858   1.727  11.771   5.425  0.6591 -0.9247 -0.1273
  533MOL0     C71859   1.818  11.894   5.403 -0.7837  0.1335  0.2139
  533MOL0     C71860   1.743  12.024   5.382  0.2286  0.0857  1.1570
  533MOL0     C71861   1.703  12.081   5.523  0.6239  0.3655 -0.0609
  533MOL0     C71862   1.602  12.193   5.514 -0.4624  0.6362 -0.2621
  533MOL0     C71863   1.540  12.213   5.655 -0.3397 -0.0975  0.4703
  533MOL0     C71864   1.636  12.272   5.756 -0.3901  0.4909 -0.6733
  533MOL0    Cl71865   1.564  12.301   5.924 -0.4366 -0.0760 -0.1488
  533MOL0     C71866   2.035  11.477   5.552 -0.3021  0.2187 -0.0860
  533MOL0     C71867   2.129  11.391   5.617  0.0459  0.4099 -0.2300
  533MOL0     O71868   2.053  11.177   5.879 -0.0795 -0.6051 -0.3854
  533MOL0     C71869   2.375  11.201   6.012  0.1483 -0.4859 -0.2176
  533MOL0     C71870   2.468  11.143   6.105  0.9914  1.3315 -0.4674
  533MOL0     N71871   2.760  11.328   6.038  0.1601  0.0835  0.1314
  533MOL0     N71872   2.766  11.422   5.957 -0.1760 -0.4267  0.5422
  533MOL0     C71873   2.882  11.347   4.622 -0.1256 -0.6598  1.0178
  533MOL0     C71874   2.939  11.298   4.501 -0.4244 -0.2963  0.0700
  533MOL0     C71875   3.220  11.253   4.150 -0.2696  0.4780  0.2202
  533MOL0     C71876   3.131  11.259   4.038  0.3852  0.7481  0.5985
  533MOL0     C71877   3.178  11.236   3.907  0.0245 -0.4686 -0.5660
  533MOL0     C71878   3.314  11.228   3.885 -0.5821 -0.3070  0.9883
  533MOL0     O71879   3.357  11.239   3.752  0.3894  0.7947  0.4553
  533MOL0     C71880   3.488  11.290   3.728 -0.4488  0.4877 -0.1091
  533MOL0     C71881   3.524  11.304   3.572 -0.4354 -0.5560 -0.4340
  533MOL0     C71882   3.542  11.161   3.512  0.8029 -0.4253  0.1038
  533MOL0     C71883   3.656  11.163   3.407  0.3707 -0.4608 -0.0883
  533MOL0     C71884   3.632  11.257   3.287  0.2122  0.1255 -0.5019
  533MOL0     C71885   3.627  11.323   3.186  0.4067 -0.4455 -0.4389
  533MOL0     C71886   3.405  11.222   3.991 -0.8463  0.0247 -0.0920
  533MOL0     C71887   3.354  11.237   4.124  0.1528  0.4124 -0.0688
  533MOL0     H71888   3.111  11.576   4.396 -5.0204  2.0399 -4.2534
  533MOL0     H71889   3.041  11.642   4.625 -3.3242  0.9239 -0.8027
  533MOL0     H71890   2.739  11.396   4.867 -1.3563  1.6270  2.1399
  533MOL0     H71891   2.915  11.355   4.869 -0.0679 -0.4716 -1.4600
  533MOL0     H71892   2.938  11.589   5.012 -1.5689  1.0647 -2.6857
  533MOL0     H71893   2.758  11.564   5.035 -0.5863  0.8956 -2.4338
  533MOL0     H71894   2.799  11.345   5.119 -1.8303  1.3204 -1.4380
  533MOL0     H71895   2.976  11.385   5.132 -0.5961  0.9371  3.9849
  533MOL0     H71896   2.902  11.574   5.270  0.8862 -1.1379  1.4370
  533MOL0     H71897   2.730  11.514   5.280  0.0557  2.5888 -2.3054
  533MOL0     H71898   2.835  11.315   5.384 -1.0299  1.2958  1.2339
  533MOL0     H71899   2.997  11.389   5.360 -0.6632  0.4220 -1.9742
  533MOL0     H71900   2.987  11.537   5.495 -0.2192 -0.7627 -1.8896
  533MOL0     H71901   2.803  11.544   5.500  0.8521  0.7802 -0.1723
  533MOL0     H71902   2.773  11.382   5.652 -0.1521 -1.3700  3.0145
  533MOL0     H71903   2.929  11.299   5.621 -0.0523  0.5451 -0.0412
  533MOL0     H71904   2.878  11.574   5.748 -2.5967 -2.0618 -1.0274
  533MOL0     H71905   3.038  11.495   5.749  0.2127  1.6017  0.3338
  533MOL0     H71906   3.052  11.265   5.917 -0.0985  0.5565  1.3924
  533MOL0     H71907   2.979  11.092   6.067 -0.1936  2.8270 -2.3335
  533MOL0     H71908   2.970  11.223   6.191  0.8957  0.9973 -1.7347
  533MOL0     H71909   2.719  11.138   6.259  0.9785 -0.6118  2.6642
  533MOL0     H71910   2.833  11.039   6.304 -2.6887  0.9271  2.4489
  533MOL0     H71911   2.821  10.892   6.109  0.1545 -0.6080  1.5451
  533MOL0     H71912   2.696  11.012   6.037  0.7773  1.9326  0.7806
  533MOL0     H71913   2.678  10.831   6.287  0.1708 -0.1134  0.0243
  533MOL0     H71914   2.595  10.814   6.137 -0.8043  0.6256 -0.2782
  533MOL0     H71915   2.321  10.863   6.193 -1.2833  0.6810 -0.2486
  533MOL0     H71916   2.036  10.941   6.084 -1.5945  0.1202 -2.2223
  533MOL0     H71917   2.074  10.921   5.915 -1.8503  1.3188  2.1292
  533MOL0     H71918   2.152  10.812   6.027 -1.2284 -1.4737  1.5461
  533MOL0     H71919   2.109  11.495   5.934  0.2048 -2.0420  0.3968
  533MOL0     H71920   1.907  11.609   5.838  1.0503  1.8086 -1.3644
  533MOL0     H71921   1.890  11.617   5.379  0.6043 -0.1630 -0.7179
  533MOL0     H71922   1.745  11.551   5.462 -0.5544 -0.3620  3.2713
  533MOL0     H71923   1.666  11.764   5.334 -1.8942 -0.0357  1.4078
  533MOL0     H71924   1.647  11.780   5.500 -0.4552 -0.9624 -1.2699
  533MOL0     H71925   1.893  11.876   5.326  0.1417  2.5272  0.4605
  533MOL0     H71926   1.884  11.909   5.488  2.7090 -4.0004 -1.4191
  533MOL0     H71927   1.805  12.105   5.343 -0.8986 -0.0710 -1.1203
  533MOL0     H71928   1.663  12.021   5.308  1.2106  0.7708  0.0262
  533MOL0     H71929   1.790  12.106   5.585  1.5025 -2.8323  0.1516
  533MOL0     H71930   1.655  11.993   5.566  0.1010  0.6140 -0.1280
  533MOL0     H71931   1.643  12.285   5.472 -2.8026  0.9467 -2.1083
  533MOL0     H71932   1.513  12.167   5.456 -2.1848 -1.1898  2.9101
  533MOL0     H71933   1.495  12.120   5.693 -1.9826  0.7445  0.7022
  533MOL0     H71934   1.455  12.280   5.641 -0.2998 -0.3124 -0.9118
  533MOL0     H71935   1.696  12.358   5.724  2.0500 -1.5646 -2.0029
  533MOL0     H71936   1.719  12.201   5.766  0.0476  0.9268 -1.1409
  533MOL0     H71937   2.036  11.477   5.443 -1.7525  0.3883 -0.1169
  533MOL0     H71938   2.176  11.319   5.551 -2.9774  0.2750 -2.4553
  533MOL0     H71939   2.405  11.293   5.963  1.9645 -0.5939  0.6220
  533MOL0     H71940   2.566  11.189   6.113  1.6774  0.5586 -3.4063
  533MOL0     H71941   2.816  11.284   4.681  2.6878 -1.5956  3.3726
  533MOL0     H71942   2.905  11.202   4.463 -2.3095  0.4300 -0.2162
  533MOL0     H71943   3.023  11.256   4.053  0.1475 -3.8569 -0.5736
  533MOL0     H71944   3.110  11.226   3.822 -2.4868  0.8705  1.1607
  533MOL0     H71945   3.503  11.389   3.771  1.3971  1.7477 -3.3365
  533MOL0     H71946   3.564  11.224   3.770 -2.1620 -1.5789 -0.0636
  533MOL0     H71947   3.616  11.359   3.549 -0.3083 -0.0839  1.1258
  533MOL0     H71948   3.438  11.345   3.519 -2.2665 -2.9528  0.4884
  533MOL0     H71949   3.452  11.121   3.465 -1.4622  2.2993  1.7829
  533MOL0     H71950   3.580  11.107   3.600 -2.1861 -0.5551  1.4293
  533MOL0     H71951   3.673  11.064   3.364  0.0172 -0.2829 -0.6550
  533MOL0     H71952   3.752  11.181   3.455  2.6890 -2.1867 -3.6519
  533MOL0     H71953   3.615  11.380   3.097  0.6631  0.5886  0.1690
  533MOL0     H71954   3.512  11.213   3.977 -0.4591 -0.6609  2.6120
  533MOL0     H71955   3.418  11.220   4.210 -0.8418  1.4561  0.9205
  534MOL0     O71956  10.228   6.014   6.426  0.1354 -0.3249  0.7112
  534MOL0     C71957  10.184   5.998   6.314 -0.1450  0.2898 -1.0096
  534MOL0     O71958  10.056   5.960   6.279 -0.0697 -0.8883  1.1450
  534MOL0     C71959   9.959   5.961   6.374 -1.3471  0.1938  0.3729
  534MOL0     C71960   9.953   5.864   6.477 -0.3214 -0.5731 -0.5625
  534MOL0     C71961   9.872   5.876   6.594 -1.0247  0.2550  0.5091
  534MOL0     C71962   9.779   5.974   6.601  0.4286 -0.6647 -0.4462
  534MOL0     O71963   9.704   5.978   6.723  0.9126  0.7341  0.3094
  534MOL0     C71964   9.578   6.050   6.717  0.8683  0.2190 -0.5573
  534MOL0     C71965   9.489   6.007   6.840 -0.6804 -0.8995 -1.1978
  534MOL0     C71966   9.355   6.078   6.865  0.8374  0.4091 -0.7682
  534MOL0     C71967   9.265   6.040   6.760  0.2704  0.7117 -0.2294
  534MOL0     C71968   9.117   6.078   6.793 -0.1433 -0.7535  0.2954
  534MOL0     C71969   9.022   6.001   6.705 -0.8144  0.3780  0.8931
  534MOL0     C71970   8.874   6.045   6.716 -0.1770 -0.9163  0.6198
  534MOL0     C71971   8.777   5.943   6.671 -1.0662  0.1850 -0.1551
  534MOL0     N71972   8.639   6.000   6.675  1.0828 -0.8292 -0.1204
  534MOL0     C71973   8.582   6.073   6.574  0.5406  0.7284 -0.1034
  534MOL0     C71974   8.466   6.125   6.634  0.5049  0.0086  1.2346
  534MOL0     C71975   8.376   6.228   6.571  0.2960 -0.5992  0.1413
  534MOL0     C71976   8.300   6.183   6.447 -0.2617 -0.1344  0.0025
  534MOL0     C71977   8.203   6.287   6.392 -0.0615  0.3236  0.3915
  534MOL0     C71978   8.134   6.213   6.280 -0.4121 -0.1276  0.5727
  534MOL0     O71979   8.029   6.297   6.225 -0.4342  0.4708 -0.0493
  534MOL0     C71980   7.970   6.267   6.104 -0.5972  0.5285 -0.0329
  534MOL0     C71981   7.992   6.149   6.028 -0.4685  0.6520  0.4693
  534MOL0     C71982   7.927   6.130   5.908 -0.2005 -0.3088  0.3986
  534MOL0     C71983   7.981   6.025   5.811  0.4703  0.6234 -0.2517
  534MOL0     C71984   7.816   6.203   5.871  0.2086  0.1081 -0.1114
  534MOL0     C71985   7.729   6.167   5.753 -0.3026  0.1522 -0.2550
  534MOL0     O71986   7.606   6.110   5.782 -0.3525  0.5170 -0.5057
  534MOL0     C71987   7.493   6.110   5.704 -0.7476 -0.0404 -0.0929
  534MOL0     C71988   7.418   5.999   5.680 -0.3168 -0.4679 -1.5786
  534MOL0     C71989   7.287   6.000   5.625  0.4204  0.1763  0.4862
  534MOL0     C71990   7.230   6.123   5.580  0.1855  0.1360 -0.0934
  534MOL0     O71991   7.096   6.130   5.543  0.7094 -0.0440  0.0350
  534MOL0     C71992   7.025   6.248   5.512  0.6449 -0.2685 -0.0728
  534MOL0     C71993   6.883   6.208   5.488 -0.7189 -0.5074  0.9054
  534MOL0     C71994   6.880   6.126   5.357 -0.1615 -0.2897  0.1380
  534MOL0     C71995   6.737   6.092   5.310 -0.8846  1.0119 -0.5674
  534MOL0     C71996   6.689   6.160   5.182  0.5189  0.0765 -0.4100
  534MOL0     C71997   6.533   6.145   5.170  0.4584 -0.4690 -0.0045
  534MOL0     C71998   6.487   6.184   5.027  1.3260 -0.3089 -0.0061
  534MOL0     C71999   6.336   6.181   5.014 -0.4456 -0.3620  1.2114
  534MOL0    Cl72000   6.288   6.253   4.863 -0.6908 -0.3821 -0.0439
  534MOL0     C72001   7.317   6.237   5.586  0.4174  0.2885 -0.5259
  534MOL0     C72002   7.447   6.230   5.655  0.3671 -0.1489  0.2264
  534MOL0     O72003   7.772   6.185   5.634  0.0376  0.4211 -0.5066
  534MOL0     C72004   7.786   6.320   5.945 -0.3895 -0.1677  1.2340
  534MOL0     C72005   7.872   6.348   6.059  0.8463  0.0055 -0.2013
  534MOL0     N72006   8.446   6.074   6.761  0.2391 -0.8562  0.4395
  534MOL0     N72007   8.549   5.995   6.780 -0.3947  0.0895 -0.5962
  534MOL0     C72008   9.780   6.071   6.499 -0.5516  0.6266 -0.4155
  534MOL0     C72009   9.865   6.057   6.388 -0.9219  1.2292  0.6602
  534MOL0     C72010  10.272   6.025   6.199  0.3368  0.0230  0.2119
  534MOL0     C72011  10.227   6.020   6.063  0.2061  0.3699 -0.3060
  534MOL0     C72012  10.305   6.033   5.956  0.6412 -0.8698  0.6945
  534MOL0     C72013  10.448   6.038   5.970  0.5416 -0.0183 -0.0331
  534MOL0     O72014  10.525   6.036   5.856  0.2574  0.0594 -0.2303
  534MOL0     C72015  10.666   6.031   5.859 -0.9409 -0.1537 -0.0666
  534MOL0     C72016  10.719   6.060   5.714 -0.4147  1.5369  0.1351
  534MOL0     C72017  10.872   6.054   5.710  0.5647  0.0955  0.3699
  534MOL0     C72018  10.931   6.103   5.584 -0.1324  0.5651 -0.7241
  534MOL0     C72019  11.069   6.051   5.558 -0.0536 -0.4269  0.4787
  534MOL0     C72020  11.181   6.010   5.544 -0.0811  0.2847  0.8406
  534MOL0     C72021  10.501   6.045   6.096  1.4948  0.0296  0.3772
  534MOL0     C72022  10.413   6.036   6.209 -0.8458  0.2580  0.7941
  534MOL0     H72023  10.020   5.778   6.473  1.3373  0.6021  0.3558
  534MOL0     H72024   9.860   5.799   6.669 -1.9392  0.5114  0.6419
  534MOL0     H72025   9.593   6.157   6.735 -2.7828  0.4276  2.2314
  534MOL0     H72026   9.530   6.035   6.620  2.0381 -2.4988 -0.8256
  534MOL0     H72027   9.476   5.899   6.830  0.5049 -1.3989  1.7044
  534MOL0     H72028   9.548   6.034   6.928  0.4657 -0.1151 -2.1744
  534MOL0     H72029   9.319   6.039   6.961  0.2197  2.1696 -0.2378
  534MOL0     H72030   9.368   6.186   6.879  0.7484  0.0681  3.0760
  534MOL0     H72031   9.286   6.081   6.661  2.3448 -2.3313 -1.1844
  534MOL0     H72032   9.277   5.935   6.732  0.2140  1.1355 -1.9289
  534MOL0     H72033   9.096   6.046   6.896 -0.9000  0.3246  0.4897
  534MOL0     H72034   9.114   6.186   6.778 -2.9899 -0.3760  2.7555
  534MOL0     H72035   9.047   6.021   6.600  0.4868 -0.4393  1.0145
  534MOL0     H72036   9.037   5.895   6.726  0.0807  0.2295 -0.3549
  534MOL0     H72037   8.848   6.068   6.820  0.9493  0.6895  0.5794
  534MOL0     H72038   8.861   6.133   6.652 -0.4470 -0.8930  0.7031
  534MOL0     H72039   8.792   5.854   6.732  1.5136 -0.2407 -1.2891
  534MOL0     H72040   8.797   5.911   6.568 -1.4214  1.1201 -0.5277
  534MOL0     H72041   8.613   6.089   6.471 -3.6090 -1.9570 -2.0391
  534MOL0     H72042   8.290   6.240   6.637 -1.2903 -0.4205 -1.8856
  534MOL0     H72043   8.418   6.329   6.563 -3.6026  1.2487  0.9049
  534MOL0     H72044   8.259   6.083   6.463  0.8432 -0.7807 -0.9985
  534MOL0     H72045   8.375   6.172   6.368  1.6028  1.6814  1.4128
  534MOL0     H72046   8.258   6.374   6.354 -1.0233  0.5419 -0.5506
  534MOL0     H72047   8.126   6.321   6.462  0.5576 -0.2144  1.3609
  534MOL0     H72048   8.078   6.127   6.319  0.7065 -0.0004  2.6446
  534MOL0     H72049   8.205   6.186   6.202 -0.1298  3.0425 -0.3836
  534MOL0     H72050   8.080   6.089   6.044 -1.1567 -0.3447  0.5617
  534MOL0     H72051   8.068   5.977   5.858 -0.7906 -0.1984  1.3500
  534MOL0     H72052   7.916   5.939   5.792 -0.5012  1.7831 -2.4875
  534MOL0     H72053   7.998   6.071   5.713 -5.5702 -1.5571 -2.7908
  534MOL0     H72054   7.454   5.901   5.707 -0.9928 -0.6724 -1.3943
  534MOL0     H72055   7.225   5.912   5.615 -1.5749  1.6496 -0.7717
  534MOL0     H72056   7.023   6.322   5.592 -0.4851 -0.9287  0.5183
  534MOL0     H72057   7.067   6.300   5.425  0.9615 -2.1800 -1.1304
  534MOL0     H72058   6.852   6.165   5.584 -1.8156  3.7131  2.6819
  534MOL0     H72059   6.822   6.296   5.466  3.0463  1.6411 -2.0088
  534MOL0     H72060   6.944   6.037   5.365  0.6929  0.4564  3.4183
  534MOL0     H72061   6.923   6.194   5.283  3.1393 -0.4778  1.6786
  534MOL0     H72062   6.742   5.986   5.284  0.7686  1.6760 -3.3379
  534MOL0     H72063   6.665   6.116   5.389 -0.6874 -1.2826  0.4067
  534MOL0     H72064   6.737   6.123   5.092  0.2427  1.6362 -1.2369
  534MOL0     H72065   6.714   6.265   5.196  0.2005 -0.1743  2.8155
  534MOL0     H72066   6.524   6.037   5.178  1.3399 -0.5077  0.7458
  534MOL0     H72067   6.488   6.203   5.252 -2.6423  0.7000 -2.3405
  534MOL0     H72068   6.534   6.112   4.959  4.0282  2.4284 -1.2713
  534MOL0     H72069   6.533   6.281   5.002  2.9125 -0.9770  0.2178
  534MOL0     H72070   6.283   6.237   5.092 -1.1758 -0.2111  0.6122
  534MOL0     H72071   6.295   6.080   5.026 -0.1379 -0.7110 -0.4386
  534MOL0     H72072   7.287   6.331   5.541  1.3510  0.1780 -1.4129
  534MOL0     H72073   7.502   6.323   5.655  0.5469 -0.2475 -0.4228
  534MOL0     H72074   7.704   6.385   5.919  1.0140  1.9938  1.8931
  534MOL0     H72075   7.861   6.442   6.113  1.1592 -0.6977  1.1317
  534MOL0     H72076   9.723   6.160   6.522  0.5745  0.7583  2.2240
  534MOL0     H72077   9.876   6.141   6.320  1.7636  0.1426 -0.3816
  534MOL0     H72078  10.121   6.014   6.042 -0.3531  0.7938  2.0237
  534MOL0     H72079  10.261   6.032   5.857  0.7609  0.1109  0.6271
  534MOL0     H72080  10.702   6.115   5.918 -1.6583  0.2045 -0.1265
  534MOL0     H72081  10.690   5.934   5.903  0.0347  0.9744  1.9982
  534MOL0     H72082  10.683   6.156   5.675 -1.9099  1.3694  1.0100
  534MOL0     H72083  10.682   5.985   5.644  1.0403 -1.5092  2.3757
  534MOL0     H72084  10.913   5.960   5.748  2.1215 -0.3918 -2.2721
  534MOL0     H72085  10.899   6.126   5.787 -1.0752  1.7047 -0.4857
  534MOL0     H72086  10.932   6.212   5.594  2.0711  1.0143 -4.1879
  534MOL0     H72087  10.871   6.088   5.494 -0.4713  1.6806 -0.6991
  534MOL0     H72088  11.275   5.959   5.541 -1.7351 -3.2797  3.0111
  534MOL0     H72089  10.606   6.060   6.118  2.1914  1.9146 -3.2841
  534MOL0     H72090  10.457   6.031   6.308 -1.0893 -0.4859  0.8668
  535MOL0     O72091   4.884   6.290   6.483  0.0756  0.0482  0.6304
  535MOL0     C72092   4.942   6.276   6.593  0.2837 -0.0849  0.1163
  535MOL0     O72093   5.058   6.340   6.629  0.6306 -0.5434 -1.0442
  535MOL0     C72094   5.116   6.450   6.567  0.5452  0.0034  0.3834
  535MOL0     C72095   5.237   6.483   6.622 -0.1336  0.0555 -1.0416
  535MOL0     C72096   5.301   6.600   6.593 -1.5510 -0.0293  0.1907
  535MOL0     C72097   5.248   6.686   6.495  0.0090 -0.5114  0.3146
  535MOL0     O72098   5.298   6.809   6.449  0.3910 -0.4535 -0.6436
  535MOL0     C72099   5.395   6.871   6.531 -0.1541  0.6362  1.5230
  535MOL0     C72100   5.530   6.814   6.491  0.3152  0.5576  0.3567
  535MOL0     C72101   5.636   6.878   6.588  0.2593  0.1786  0.3187
  535MOL0     C72102   5.764   6.867   6.519 -0.5320  0.0533  0.3070
  535MOL0     C72103   5.886   6.890   6.603 -0.0640 -0.3176 -0.6850
  535MOL0     C72104   5.887   7.007   6.689 -0.5628 -1.0354 -0.3092
  535MOL0     C72105   6.026   7.029   6.741 -0.1965  0.1348 -0.6936
  535MOL0     C72106   6.120   7.085   6.632 -0.5838  0.3197  0.8532
  535MOL0     N72107   6.085   7.214   6.579  0.3129 -0.1668 -0.0062
  535MOL0     C72108   6.091   7.333   6.649 -0.0854  0.0494  1.5467
  535MOL0     C72109   6.055   7.427   6.557  0.2256 -0.2863 -0.7281
  535MOL0     C72110   6.040   7.575   6.590 -0.3470 -0.7341  0.3750
  535MOL0     C72111   6.055   7.675   6.468 -0.1398  0.7198  0.5298
  535MOL0     C72112   6.071   7.827   6.505 -0.2531 -0.4362 -0.1504
  535MOL0     C72113   6.153   7.862   6.634  0.0582  0.3016 -0.6286
  535MOL0     O72114   6.167   8.003   6.659  0.2181  0.3748  0.4810
  535MOL0     C72115   6.058   8.067   6.706  0.2754 -1.0047 -0.3244
  535MOL0     C72116   6.012   8.176   6.638  0.7226 -0.4291  0.5353
  535MOL0     C72117   5.891   8.243   6.676  0.4043 -0.2924 -0.8899
  535MOL0     C72118   5.849   8.366   6.594  0.3710  0.3171  0.3688
  535MOL0     C72119   5.804   8.195   6.788 -0.2970  0.1264  0.3617
  535MOL0     C72120   5.683   8.270   6.826 -0.2065  0.3827 -0.0345
  535MOL0     O72121   5.677   8.403   6.807  0.0398 -0.2933 -0.0448
  535MOL0     C72122   5.560   8.471   6.817  0.1727 -0.2871  0.1285
  535MOL0     C72123   5.485   8.496   6.699 -0.1089  0.3773  0.2144
  535MOL0     C72124   5.377   8.584   6.703 -0.2970  0.0898 -0.1857
  535MOL0     C72125   5.341   8.654   6.820  0.2267 -0.5235  0.4325
  535MOL0     O72126   5.225   8.731   6.820 -0.0511  0.3083 -1.2836
  535MOL0     C72127   5.221   8.835   6.724 -0.1767 -0.2815  0.2594
  535MOL0     C72128   5.088   8.913   6.712 -0.3100  0.5618 -0.7909
  535MOL0     C72129   5.066   9.007   6.832  1.1011 -0.3861 -0.4346
  535MOL0     C72130   4.942   9.097   6.836 -0.1606 -0.2886 -0.0509
  535MOL0     C72131   4.945   9.227   6.912 -0.1588 -0.3866 -0.5029
  535MOL0     C72132   4.806   9.262   6.953  0.0123  0.1811  0.8034
  535MOL0     C72133   4.787   9.391   7.015 -0.0044 -0.3582  0.2236
  535MOL0     C72134   4.644   9.426   7.060  1.0711 -0.8071  0.3528
  535MOL0    Cl72135   4.548   9.423   6.918 -0.0751  0.4764 -0.0478
  535MOL0     C72136   5.408   8.629   6.941 -0.1282  0.6990 -0.2625
  535MOL0     C72137   5.512   8.538   6.944 -0.3342  0.0147 -0.5225
  535MOL0     O72138   5.594   8.194   6.866  0.3208  0.3644 -0.8933
  535MOL0     C72139   5.853   8.075   6.854  0.4043 -0.6052 -0.2500
  535MOL0     C72140   5.971   8.014   6.804  0.2806 -0.3238 -0.3187
  535MOL0     N72141   6.000   7.364   6.446 -0.4432  0.3721 -0.3332
  535MOL0     N72142   6.029   7.238   6.458  0.3173  0.0837  0.8420
  535MOL0     C72143   5.125   6.653   6.435 -0.4101  0.3515  0.4479
  535MOL0     C72144   5.062   6.527   6.463  0.9356 -0.6986 -0.4786
  535MOL0     C72145   4.893   6.183   6.695 -0.0382 -0.3810 -1.0052
  535MOL0     C72146   4.962   6.151   6.807 -0.2784 -0.0131 -0.2217
  535MOL0     C72147   4.909   6.070   6.917  0.0259  0.2562 -0.2978
  535MOL0     C72148   4.775   6.030   6.904 -0.3667  0.0536 -0.1344
  535MOL0     O72149   4.728   5.942   6.999  0.4999  0.6326  0.2601
  535MOL0     C72150   4.595   5.890   7.017 -0.7228  0.1593  0.5526
  535MOL0     C72151   4.510   6.009   7.062  0.6418 -0.2586  0.6100
  535MOL0     C72152   4.530   6.053   7.209  0.2670  0.2816 -1.1782
  535MOL0     C72153   4.422   6.162   7.256 -0.8121  0.4239  0.2981
  535MOL0     C72154   4.287   6.109   7.237 -0.4330  0.0516  0.3502
  535MOL0     C72155   4.172   6.075   7.229  0.0046 -0.2384 -0.3486
  535MOL0     C72156   4.701   6.069   6.793  0.5901  0.5974 -0.6642
  535MOL0     C72157   4.760   6.145   6.685  0.4613  0.0000  0.3956
  535MOL0     H72158   5.282   6.438   6.710  0.3854  3.2583  0.4822
  535MOL0     H72159   5.397   6.613   6.642 -1.3754 -2.3107  0.5423
  535MOL0     H72160   5.391   6.979   6.511  0.4745  0.3134 -0.5587
  535MOL0     H72161   5.382   6.845   6.636  1.5085 -2.3620  1.0800
  535MOL0     H72162   5.535   6.704   6.493  4.1011  0.5323 -1.4217
  535MOL0     H72163   5.542   6.857   6.391 -0.5942  0.9186  0.3959
  535MOL0     H72164   5.620   6.985   6.605 -2.4307  0.2277 -1.7976
  535MOL0     H72165   5.639   6.826   6.684 -4.3386  0.4894  0.8518
  535MOL0     H72166   5.779   6.778   6.458  2.3245  2.6657 -3.2494
  535MOL0     H72167   5.775   6.936   6.435 -1.2026 -1.0346 -0.7174
  535MOL0     H72168   5.893   6.810   6.676 -2.3912 -1.3484 -1.5060
  535MOL0     H72169   5.976   6.888   6.541  2.0019 -0.3044  2.1244
  535MOL0     H72170   5.856   7.095   6.632 -3.1058  0.0712  2.5753
  535MOL0     H72171   5.834   6.988   6.782 -0.0875 -0.4392  0.0880
  535MOL0     H72172   6.024   7.102   6.822 -1.0785  2.1812 -2.4408
  535MOL0     H72173   6.054   6.933   6.784 -1.2571 -0.4141 -1.1697
  535MOL0     H72174   6.143   7.008   6.557  0.3881 -0.5204  1.9776
  535MOL0     H72175   6.217   7.110   6.676 -1.5043  3.2947  1.3793
  535MOL0     H72176   6.128   7.337   6.751 -2.8746 -1.7346  2.7633
  535MOL0     H72177   5.941   7.587   6.636 -1.2495 -2.8245 -0.8699
  535MOL0     H72178   6.122   7.613   6.652  0.9474 -2.3007 -0.3196
  535MOL0     H72179   5.969   7.664   6.401 -0.4989  0.1264  1.0824
  535MOL0     H72180   6.149   7.660   6.415  0.3592  2.0869  0.9989
  535MOL0     H72181   5.966   7.851   6.524 -0.5250 -0.8336 -1.1089
  535MOL0     H72182   6.104   7.893   6.424  0.2532 -2.9855 -2.1294
  535MOL0     H72183   6.247   7.808   6.650 -1.2647 -1.9173  0.1537
  535MOL0     H72184   6.101   7.811   6.716 -0.0894  1.0681 -0.2393
  535MOL0     H72185   6.060   8.221   6.552  1.0228 -0.7794  0.5170
  535MOL0     H72186   5.901   8.369   6.497  0.3715  1.0973  0.3877
  535MOL0     H72187   5.744   8.360   6.565  0.8476  2.5637 -2.1937
  535MOL0     H72188   5.873   8.465   6.633 -2.6717  2.0763 -1.7782
  535MOL0     H72189   5.504   8.454   6.600 -1.9910  3.1332 -1.4518
  535MOL0     H72190   5.320   8.596   6.612 -1.9633 -3.0052  0.3144
  535MOL0     H72191   5.304   8.906   6.730 -1.3051  1.2176 -1.0308
  535MOL0     H72192   5.228   8.782   6.628 -2.7723 -1.1525  0.4968
  535MOL0     H72193   5.083   8.963   6.615 -0.8234 -1.8150 -2.0696
  535MOL0     H72194   5.008   8.839   6.702 -0.8014  1.1725 -1.4426
  535MOL0     H72195   5.158   9.065   6.849  0.9723 -0.1533 -0.5312
  535MOL0     H72196   5.052   8.947   6.922 -3.1692  0.3353 -0.4172
  535MOL0     H72197   4.930   9.120   6.730  0.3420  0.8622  0.1311
  535MOL0     H72198   4.862   9.030   6.869 -0.8151  0.1798 -0.6735
  535MOL0     H72199   4.985   9.307   6.848  5.0231 -0.3205  2.2371
  535MOL0     H72200   5.022   9.229   6.990  2.0288 -1.4777 -2.5180
  535MOL0     H72201   4.747   9.261   6.860  0.3117  0.3407  0.6105
  535MOL0     H72202   4.754   9.185   7.012 -1.0093  0.0335 -0.2374
  535MOL0     H72203   4.809   9.468   6.940  0.1430  0.1886  0.8221
  535MOL0     H72204   4.858   9.403   7.097 -0.4788 -0.4788  0.6569
  535MOL0     H72205   4.634   9.529   7.095 -3.8996 -1.1066  0.4733
  535MOL0     H72206   4.617   9.350   7.134 -0.0933 -2.4665 -1.6598
  535MOL0     H72207   5.393   8.682   7.034 -0.1679 -0.8676  0.6709
  535MOL0     H72208   5.554   8.535   7.044 -2.1799 -2.3606  0.2761
  535MOL0     H72209   5.792   8.028   6.931 -1.6334  1.4410 -0.4888
  535MOL0     H72210   5.981   7.913   6.842  1.4926 -0.1690 -0.1795
  535MOL0     H72211   5.088   6.723   6.361 -2.6582  0.3156  1.4592
  535MOL0     H72212   4.978   6.498   6.402 -0.4253 -0.9574  1.4297
  535MOL0     H72213   5.064   6.187   6.814  0.7565 -2.7356  0.2863
  535MOL0     H72214   4.967   6.030   7.000 -0.8807  1.5249  0.9876
  535MOL0     H72215   4.562   5.857   6.919 -0.7815  3.1674 -0.5407
  535MOL0     H72216   4.598   5.820   7.101 -1.3709  1.1159  1.4001
  535MOL0     H72217   4.404   5.986   7.043 -0.0457  3.4086 -1.0493
  535MOL0     H72218   4.532   6.099   7.004  2.3886 -1.8432 -1.3368
  535MOL0     H72219   4.633   6.090   7.218  1.3024 -2.5684 -0.1144
  535MOL0     H72220   4.527   5.974   7.284  1.3737  2.6383  1.5447
  535MOL0     H72221   4.425   6.250   7.192  0.1814 -1.0878 -1.8752
  535MOL0     H72222   4.436   6.203   7.356  1.9455 -0.1776  0.2452
  535MOL0     H72223   4.071   6.058   7.195 -0.7032  2.2619  0.3058
  535MOL0     H72224   4.598   6.033   6.793  0.4678  0.9456 -0.7927
  535MOL0     H72225   4.700   6.192   6.608  0.2146 -1.2044 -0.1635
  536MOL0     O72226  11.097   5.398   8.753 -0.2429 -0.7085 -0.8875
  536MOL0     C72227  11.051   5.303   8.687 -0.4645 -0.5856  0.3101
  536MOL0     O72228  10.936   5.234   8.724 -0.5513 -0.1758  0.3497
  536MOL0     C72229  10.830   5.284   8.796 -0.3671 -0.0136 -0.6805
  536MOL0     C72230  10.863   5.330   8.933 -0.1831  0.1508 -0.1134
  536MOL0     C72231  10.766   5.382   9.016 -0.0138  0.0736  0.2906
  536MOL0     C72232  10.635   5.392   8.969  0.1660 -0.3964  0.5253
  536MOL0     O72233  10.537   5.447   9.052  0.0391 -0.3092 -0.0207
  536MOL0     C72234  10.418   5.495   8.990 -0.1350  0.1652 -0.8354
  536MOL0     C72235  10.320   5.546   9.090 -0.1376  0.2851  0.3865
  536MOL0     C72236  10.371   5.666   9.162  0.3786  0.3050  0.3140
  536MOL0     C72237  10.259   5.763   9.206 -0.5098 -0.7712  0.2393
  536MOL0     C72238  10.306   5.906   9.207  0.5897  0.2898  0.3098
  536MOL0     C72239  10.203   5.992   9.275 -0.2791 -0.4282  0.2912
  536MOL0     C72240  10.267   6.124   9.340 -0.8484  0.0414 -0.0348
  536MOL0     C72241  10.163   6.205   9.410  1.0556 -0.2424  0.3124
  536MOL0     N72242  10.066   6.291   9.340 -0.6757 -0.5900 -0.5472
  536MOL0     C72243  10.080   6.426   9.317 -0.2071  0.2764  0.3555
  536MOL0     C72244   9.990   6.458   9.224  0.4350 -0.6500  0.1964
  536MOL0     C72245   9.955   6.595   9.162 -0.0059  0.2140  0.2628
  536MOL0     C72246   9.829   6.657   9.233  0.1130 -0.2448  0.2598
  536MOL0     C72247   9.864   6.676   9.383  1.0050  0.3449 -0.0414
  536MOL0     C72248   9.762   6.770   9.447 -0.9251  1.2947 -0.1850
  536MOL0     O72249   9.631   6.708   9.447 -0.1026  0.4335 -0.1357
  536MOL0     C72250   9.523   6.770   9.496  0.5861  0.3432  0.6269
  536MOL0     C72251   9.523   6.902   9.546  1.0359  0.4382 -0.3663
  536MOL0     C72252   9.406   6.953   9.599  0.4962  0.4746  0.5556
  536MOL0     C72253   9.403   7.094   9.642 -0.0369  0.4533 -0.5486
  536MOL0     C72254   9.284   6.872   9.603 -0.4379  0.2611 -0.2055
  536MOL0     C72255   9.157   6.925   9.652  0.4008 -0.1406  0.3826
  536MOL0     O72256   9.047   6.910   9.565 -0.3736  0.4479  0.1683
  536MOL0     C72257   8.923   6.945   9.594 -0.0192 -0.7057  0.6293
  536MOL0     C72258   8.877   6.989   9.716  1.2218 -0.0159  0.7704
  536MOL0     C72259   8.733   7.008   9.733 -0.8109  0.0607  0.1211
  536MOL0     C72260   8.643   7.003   9.620 -0.1969 -0.0782 -0.5616
  536MOL0     O72261   8.506   7.012   9.644  1.3192 -0.3113  0.0963
  536MOL0     C72262   8.415   7.035   9.528 -0.0816 -0.5825 -0.0129
  536MOL0     C72263   8.274   7.037   9.591  0.7846 -0.2075  0.2775
  536MOL0     C72264   8.231   7.178   9.646 -0.3364  0.7857  0.3752
  536MOL0     C72265   8.212   7.157   9.795 -0.8173  0.3106 -0.3933
  536MOL0     C72266   8.139   7.284   9.849 -0.5049 -0.3911  0.3108
  536MOL0     C72267   8.126   7.284  10.009  0.8687 -0.7016 -0.0918
  536MOL0     C72268   8.005   7.196  10.060 -0.2118 -0.3449  0.1424
  536MOL0     C72269   7.864   7.245  10.024 -0.6719  0.2971 -0.4818
  536MOL0    Cl72270   7.837   7.416  10.088 -0.3079  0.3962  0.4693
  536MOL0     C72271   8.707   6.976   9.501 -0.3614 -0.6728  0.7422
  536MOL0     C72272   8.839   6.939   9.484  0.7186  0.0305 -0.9531
  536MOL0     O72273   9.156   6.969   9.767  0.0834 -0.1668 -0.6594
  536MOL0     C72274   9.286   6.741   9.541  0.2846 -0.7863 -0.1373
  536MOL0     C72275   9.408   6.694   9.491 -0.3438 -0.2784  0.0246
  536MOL0     N72276   9.913   6.352   9.193  0.3765 -0.4522 -0.5461
  536MOL0     N72277   9.964   6.253   9.261 -0.0404  0.0381  0.3923
  536MOL0     C72278  10.598   5.336   8.840  0.6581  0.3103  0.3324
  536MOL0     C72279  10.697   5.286   8.756  0.3764  1.1510  0.2999
  536MOL0     C72280  11.131   5.248   8.573  0.2134 -0.0745  0.1575
  536MOL0     C72281  11.219   5.325   8.498  0.0810 -0.7789 -0.1438
  536MOL0     C72282  11.303   5.264   8.402  0.0393 -0.3181 -0.4372
  536MOL0     C72283  11.297   5.127   8.373  0.3305 -0.0966  0.2255
  536MOL0     O72284  11.378   5.072   8.275  1.0461  0.2238 -0.6878
  536MOL0     C72285  11.506   5.124   8.245 -0.1939  0.5129  1.0063
  536MOL0     C72286  11.591   5.004   8.180  0.4991  0.2508  0.0873
  536MOL0     C72287  11.561   4.872   8.252 -0.3149  0.1040  0.4431
  536MOL0     C72288  11.456   4.782   8.178  0.2331  0.3608 -0.3772
  536MOL0     C72289  11.507   4.712   8.061 -0.4371  0.0545 -0.5548
  536MOL0     C72290  11.547   4.660   7.951 -0.0064  0.2684 -0.3627
  536MOL0     C72291  11.201   5.055   8.444  0.6154 -0.7114 -0.0229
  536MOL0     C72292  11.121   5.112   8.544 -0.5807  0.7028 -0.2512
  536MOL0     H72293  10.966   5.329   8.969 -0.4078  3.2628  0.9203
  536MOL0     H72294  10.772   5.417   9.118  0.2011 -1.8529  0.9905
  536MOL0     H72295  10.434   5.571   8.914 -0.8045  1.6395  0.4351
  536MOL0     H72296  10.370   5.407   8.948 -0.0341 -1.6576  2.4678
  536MOL0     H72297  10.230   5.568   9.031 -1.0545 -2.7352  0.4992
  536MOL0     H72298  10.283   5.470   9.159 -3.5236 -1.1132 -2.6117
  536MOL0     H72299  10.436   5.644   9.247  0.9687  0.7864 -0.0022
  536MOL0     H72300  10.430   5.731   9.097 -1.1296  1.7396  0.3003
  536MOL0     H72301  10.180   5.781   9.132  1.1513  4.7483 -0.7000
  536MOL0     H72302  10.214   5.730   9.300 -0.8013  1.3041  0.8867
  536MOL0     H72303  10.402   5.907   9.260  0.3189  1.5001  0.8006
  536MOL0     H72304  10.318   5.949   9.107  0.6618 -2.9658 -1.2107
  536MOL0     H72305  10.129   6.019   9.199 -1.5322 -0.3191  1.5306
  536MOL0     H72306  10.160   5.928   9.352  2.0900 -3.7417 -0.8795
  536MOL0     H72307  10.335   6.078   9.412 -0.8744 -1.3476 -0.8631
  536MOL0     H72308  10.323   6.180   9.265 -0.3248  0.2061  0.4721
  536MOL0     H72309  10.224   6.273   9.470  3.7114 -1.0200 -1.3214
  536MOL0     H72310  10.102   6.144   9.477  0.9888  2.2560  2.6596
  536MOL0     H72311  10.140   6.499   9.371 -1.5302 -0.6982  3.3328
  536MOL0     H72312  10.039   6.665   9.165  0.5167 -0.3920  0.0973
  536MOL0     H72313   9.928   6.586   9.056  1.4759  0.7993 -0.2008
  536MOL0     H72314   9.737   6.602   9.211 -1.0403  1.3820  0.8458
  536MOL0     H72315   9.833   6.755   9.186  1.4771  0.5915  2.0173
  536MOL0     H72316   9.963   6.718   9.405  0.9472 -0.2944  1.6083
  536MOL0     H72317   9.865   6.575   9.426 -2.6196 -0.1852 -0.9149
  536MOL0     H72318   9.745   6.863   9.391 -0.5293 -0.2200 -3.0292
  536MOL0     H72319   9.801   6.790   9.547  1.9167  1.9476 -1.3051
  536MOL0     H72320   9.619   6.954   9.542  2.1865 -1.5891 -0.7629
  536MOL0     H72321   9.375   7.100   9.748 -0.4218  4.7569 -0.6985
  536MOL0     H72322   9.494   7.155   9.638 -0.0034  0.6094  1.3843
  536MOL0     H72323   9.326   7.144   9.582 -0.5756  4.0163  2.7018
  536MOL0     H72324   8.937   7.011   9.803 -0.0307 -1.1317  1.9570
  536MOL0     H72325   8.699   7.027   9.834  1.1679 -2.9001  1.4880
  536MOL0     H72326   8.439   7.128   9.477  1.0969 -0.5396  0.5943
  536MOL0     H72327   8.417   6.956   9.452  4.4600 -0.7351 -0.0198
  536MOL0     H72328   8.221   7.034   9.495  2.7274  1.6213 -0.9169
  536MOL0     H72329   8.251   6.952   9.656  0.0967 -0.0823  0.2081
  536MOL0     H72330   8.143   7.225   9.601 -0.3986  0.6812  0.3848
  536MOL0     H72331   8.315   7.247   9.640 -2.2409  3.1544 -0.6907
  536MOL0     H72332   8.145   7.073   9.816 -0.6253 -0.1401 -1.5343
  536MOL0     H72333   8.306   7.145   9.850 -1.3347  2.4731  1.1215
  536MOL0     H72334   8.039   7.299   9.806 -2.1047 -0.5531  3.6407
  536MOL0     H72335   8.192   7.376   9.821  0.9620 -0.6335  2.1008
  536MOL0     H72336   8.214   7.233  10.051 -2.0354 -3.6841  2.9308
  536MOL0     H72337   8.111   7.387  10.044  0.0365 -1.2526  1.2262
  536MOL0     H72338   8.004   7.192  10.169  0.2173  0.7153  0.1966
  536MOL0     H72339   8.017   7.090  10.035 -0.1340 -0.7609  1.8403
  536MOL0     H72340   7.793   7.171  10.063  1.1893 -1.4204 -0.2336
  536MOL0     H72341   7.860   7.253   9.915  2.7003 -1.0505 -0.7942
  536MOL0     H72342   8.644   6.970   9.412  2.8151 -1.4510 -1.6317
  536MOL0     H72343   8.857   6.883   9.393 -2.2516 -1.1254 -0.9324
  536MOL0     H72344   9.204   6.670   9.543 -2.4874  2.1518 -1.4419
  536MOL0     H72345   9.405   6.591   9.456 -2.0045 -0.8793  1.7899
  536MOL0     H72346  10.501   5.339   8.792  0.8974  2.2349 -0.1182
  536MOL0     H72347  10.667   5.246   8.659  1.2188 -0.3881  0.6439
  536MOL0     H72348  11.227   5.431   8.519 -1.7607 -0.1049 -2.3622
  536MOL0     H72349  11.370   5.329   8.347 -1.6338 -0.1556 -2.3934
  536MOL0     H72350  11.515   5.204   8.171  2.5013 -0.0641  0.6131
  536MOL0     H72351  11.562   5.156   8.333  2.2666  1.0359 -0.6583
  536MOL0     H72352  11.698   5.022   8.194  0.2530  0.7254  1.4666
  536MOL0     H72353  11.559   4.991   8.076 -0.1520  1.3398  0.1350
  536MOL0     H72354  11.526   4.890   8.354 -1.5949 -0.7368  0.1798
  536MOL0     H72355  11.656   4.817   8.260  0.2386  1.2341  2.5675
  536MOL0     H72356  11.370   4.844   8.153 -1.1099 -0.8158  1.1260
  536MOL0     H72357  11.417   4.713   8.253  2.6753  0.2294  0.8692
  536MOL0     H72358  11.583   4.607   7.865 -2.9735  1.2703 -2.3741
  536MOL0     H72359  11.179   4.957   8.403  0.0389 -0.0068 -1.4734
  536MOL0     H72360  11.051   5.048   8.596 -0.1987  0.7164  0.2915
  537MOL0     O72361  11.143   5.086  11.148 -0.7195 -0.2912  0.2836
  537MOL0     C72362  11.187   5.193  11.194 -0.0756  0.0571  0.1945
  537MOL0     O72363  11.113   5.296  11.242 -0.2929 -0.2817  0.6625
  537MOL0     C72364  10.977   5.297  11.227  0.4413  0.3042  0.2203
  537MOL0     C72365  10.906   5.237  11.124  0.1825 -0.1613 -0.0961
  537MOL0     C72366  10.767   5.256  11.122 -0.3977  0.5632  0.3279
  537MOL0     C72367  10.696   5.306  11.229  0.3551 -0.4174  0.5867
  537MOL0     O72368  10.559   5.315  11.202  0.4167  0.3641  0.3530
  537MOL0     C72369  10.467   5.372  11.296  0.4942 -0.9405 -0.0697
  537MOL0     C72370  10.415   5.272  11.398 -0.1269  0.3715 -1.2534
  537MOL0     C72371  10.307   5.320  11.495 -0.5365  0.2849 -0.1376
  537MOL0     C72372  10.251   5.191  11.559 -1.2454 -0.9089  0.5511
  537MOL0     C72373  10.232   5.218  11.708 -0.3203  0.7345 -0.0285
  537MOL0     C72374  10.154   5.098  11.764  0.1267  0.5714  0.1689
  537MOL0     C72375  10.101   5.123  11.915  0.3263  0.2154  0.8573
  537MOL0     C72376  10.208   5.194  12.011  1.0560 -0.2940  0.2337
  537MOL0     N72377  10.156   5.199  12.145  0.2800 -0.1273 -0.2724
  537MOL0     C72378  10.049   5.279  12.182  0.0182  0.6502 -0.0193
  537MOL0     C72379  10.011   5.239  12.299  0.8528  0.3666 -0.5480
  537MOL0     C72380   9.895   5.292  12.389 -0.2235  0.4844  0.2935
  537MOL0     C72381   9.774   5.202  12.407 -0.6146  0.2333 -0.6540
  537MOL0     C72382   9.721   5.161  12.269  0.0099  0.3036  0.0671
  537MOL0     C72383   9.581   5.087  12.279  0.1344 -0.4872  0.2387
  537MOL0     O72384   9.502   5.110  12.396  0.3944  0.0685 -0.6290
  537MOL0     C72385   9.381   5.050  12.409  0.6384 -0.3043  0.9802
  537MOL0     C72386   9.299   5.006  12.302 -0.0574  0.2047  0.3996
  537MOL0     C72387   9.183   4.929  12.311  0.6057 -0.3392 -0.1176
  537MOL0     C72388   9.121   4.861  12.189  0.2681 -0.0519  0.0194
  537MOL0     C72389   9.144   4.906  12.442 -0.3659  0.2953 -0.7620
  537MOL0     C72390   9.038   4.800  12.470 -1.0289 -0.0815 -1.5412
  537MOL0     O72391   8.925   4.781  12.391 -1.1114 -0.4665  0.2391
  537MOL0     C72392   8.863   4.663  12.414  0.1219  0.1964  0.2797
  537MOL0     C72393   8.765   4.661  12.505  0.1000 -0.1149  1.2256
  537MOL0     C72394   8.696   4.547  12.525  0.7992  1.1001 -0.1205
  537MOL0     C72395   8.719   4.430  12.459 -0.3156  0.5714  1.4062
  537MOL0     O72396   8.656   4.309  12.479  0.9958 -0.6496  0.2482
  537MOL0     C72397   8.559   4.306  12.587 -1.0667 -0.2850 -0.7791
  537MOL0     C72398   8.519   4.165  12.607  0.6641 -0.3993  0.1308
  537MOL0     C72399   8.382   4.141  12.682  0.0575 -0.0732 -0.0928
  537MOL0     C72400   8.375   3.995  12.721  0.7334  1.0326  0.3549
  537MOL0     C72401   8.232   3.965  12.781  0.1538 -0.1326  0.1885
  537MOL0     C72402   8.198   3.825  12.843 -0.7944  0.3551 -0.2817
  537MOL0     C72403   8.296   3.757  12.949  0.5251  0.2640  0.0630
  537MOL0     C72404   8.217   3.690  13.065 -0.5594  0.5552 -0.2737
  537MOL0    Cl72405   8.123   3.559  12.993 -0.0585  0.3642 -0.1419
  537MOL0     C72406   8.823   4.429  12.362 -0.1953 -0.1389  0.9414
  537MOL0     C72407   8.902   4.547  12.350 -0.0052  0.2687  0.0436
  537MOL0     O72408   9.069   4.728  12.565  0.7854  0.5473 -0.0732
  537MOL0     C72409   9.208   4.960  12.558 -0.0770  0.9197  0.2870
  537MOL0     C72410   9.328   5.026  12.535 -0.0522 -0.3656  0.7424
  537MOL0     N72411  10.093   5.131  12.336  0.2317  0.1589  0.1581
  537MOL0     N72412  10.161   5.091  12.233  0.2418  0.4042 -0.0816
  537MOL0     C72413  10.767   5.362  11.344 -0.3935  0.4006  0.7057
  537MOL0     C72414  10.905   5.369  11.325  0.0040 -0.1203  0.4251
  537MOL0     C72415  11.337   5.204  11.202  0.5520 -0.3105 -0.5768
  537MOL0     C72416  11.393   5.330  11.213  0.1146 -0.2828 -1.0410
  537MOL0     C72417  11.533   5.343  11.222 -1.2955 -0.2233 -0.2515
  537MOL0     C72418  11.611   5.225  11.233 -0.4193 -0.8000 -0.0459
  537MOL0     O72419  11.744   5.239  11.249  0.6032 -0.3882  0.6886
  537MOL0     C72420  11.793   5.247  11.119  0.4193  1.1756  1.1605
  537MOL0     C72421  11.941   5.265  11.116  0.2030  0.1953 -0.3763
  537MOL0     C72422  11.980   5.409  11.170 -0.7138  0.5099  0.5444
  537MOL0     C72423  11.920   5.526  11.078 -0.3329  0.2157 -0.3802
  537MOL0     C72424  11.957   5.659  11.135  0.1428  0.6980 -0.1451
  537MOL0     C72425  11.971   5.770  11.181  0.7899  0.1905  0.8165
  537MOL0     C72426  11.557   5.095  11.240  0.8891 -0.5913  0.8732
  537MOL0     C72427  11.422   5.079  11.211  0.4680 -0.3124 -0.2779
  537MOL0     H72428  10.962   5.194  11.041  0.5308  0.8484 -0.3992
  537MOL0     H72429  10.717   5.215  11.035  0.6325  0.8337 -0.4130
  537MOL0     H72430  10.518   5.454  11.346  0.8172 -0.8478 -0.5528
  537MOL0     H72431  10.379   5.418  11.249  2.4319  1.4981 -1.5276
  537MOL0     H72432  10.372   5.186  11.347 -1.4484 -2.1822  3.5372
  537MOL0     H72433  10.504   5.260  11.460 -0.2112  1.1487 -0.9766
  537MOL0     H72434  10.362   5.387  11.562 -1.1614  0.2333  0.4288
  537MOL0     H72435  10.222   5.373  11.451 -0.8973  0.9641  1.3146
  537MOL0     H72436  10.151   5.180  11.515 -0.4109 -2.8610 -1.0803
  537MOL0     H72437  10.305   5.097  11.544  2.9707  1.6203 -2.5505
  537MOL0     H72438  10.328   5.233  11.759 -0.4783  1.7976 -0.0381
  537MOL0     H72439  10.175   5.310  11.721  0.7591  1.3798  0.3086
  537MOL0     H72440  10.069   5.070  11.700  1.4860 -0.4611 -1.2624
  537MOL0     H72441  10.219   5.010  11.768  0.7979  1.0103 -0.6568
  537MOL0     H72442  10.011   5.185  11.908 -0.4052 -0.7104  1.7263
  537MOL0     H72443  10.065   5.026  11.951 -1.2575  0.4376 -0.0089
  537MOL0     H72444  10.230   5.295  11.976  0.5118 -0.0029  0.7264
  537MOL0     H72445  10.302   5.137  12.017  1.1495  0.0022  2.2990
  537MOL0     H72446  10.017   5.361  12.119  3.2253  0.3828 -2.2737
  537MOL0     H72447   9.932   5.335  12.483 -1.3451  0.8083  0.6032
  537MOL0     H72448   9.849   5.380  12.343 -2.1935  0.7231  2.5006
  537MOL0     H72449   9.692   5.239  12.471  0.5844  1.3418  0.3019
  537MOL0     H72450   9.810   5.116  12.464  0.3822  0.9719 -0.1322
  537MOL0     H72451   9.795   5.104  12.212 -0.9694  0.1035 -1.0299
  537MOL0     H72452   9.707   5.257  12.218  1.7521  1.5019  1.6855
  537MOL0     H72453   9.593   4.978  12.277 -0.7053 -0.6183  1.3573
  537MOL0     H72454   9.520   5.114  12.192 -0.2441 -0.8375  0.3890
  537MOL0     H72455   9.309   5.038  12.199 -2.8998  0.6459  0.1868
  537MOL0     H72456   9.027   4.914  12.172 -0.3177  0.1768  3.2100
  537MOL0     H72457   9.186   4.874  12.102  0.8688  2.7224  0.7609
  537MOL0     H72458   9.099   4.755  12.206 -0.3329 -0.9841 -5.1866
  537MOL0     H72459   8.737   4.759  12.541 -0.7221  1.3017 -2.7467
  537MOL0     H72460   8.623   4.563  12.604 -0.8302  3.4742 -1.9654
  537MOL0     H72461   8.603   4.338  12.682 -3.2393  2.4510 -0.5381
  537MOL0     H72462   8.469   4.365  12.564 -1.4757 -0.4838  0.2213
  537MOL0     H72463   8.519   4.109  12.513  1.3501  0.0227 -0.1323
  537MOL0     H72464   8.605   4.123  12.659  3.4338  0.9035 -3.0031
  537MOL0     H72465   8.301   4.158  12.610 -0.6308  0.1337  0.7221
  537MOL0     H72466   8.375   4.209  12.767  1.0513 -0.5028  0.3478
  537MOL0     H72467   8.392   3.931  12.634 -1.6819 -1.1662  1.3816
  537MOL0     H72468   8.450   3.979  12.799  2.1008 -0.8602 -1.2506
  537MOL0     H72469   8.165   3.974  12.695 -0.1137 -2.7417  0.0250
  537MOL0     H72470   8.209   4.035  12.862  0.3517  0.0494  0.0865
  537MOL0     H72471   8.100   3.839  12.890 -0.0411  1.0471  1.1472
  537MOL0     H72472   8.200   3.753  12.761 -1.1921  2.9771 -2.7069
  537MOL0     H72473   8.358   3.833  12.997 -0.7369  0.0705  2.0920
  537MOL0     H72474   8.368   3.683  12.913  1.1294 -0.2650  2.2375
  537MOL0     H72475   8.151   3.757  13.121  1.6617  0.4734  2.7038
  537MOL0     H72476   8.285   3.643  13.137 -3.0330 -0.1900  1.7194
  537MOL0     H72477   8.857   4.349  12.297 -0.9620  0.6740 -0.5177
  537MOL0     H72478   8.987   4.536  12.283  1.9679 -0.4798  2.5231
  537MOL0     H72479   9.179   4.941  12.660 -1.3675 -4.3287 -0.7350
  537MOL0     H72480   9.370   5.072  12.624 -1.1898  0.9789  0.6141
  537MOL0     H72481  10.714   5.416  11.422 -1.2139 -0.0377  0.4625
  537MOL0     H72482  10.968   5.423  11.395  0.4575 -0.4148  0.2488
  537MOL0     H72483  11.343   5.427  11.208 -1.2710 -0.8637  0.5916
  537MOL0     H72484  11.580   5.441  11.212  1.3007 -0.9622  2.9362
  537MOL0     H72485  11.765   5.147  11.087  0.6045  0.5159  2.9610
  537MOL0     H72486  11.751   5.324  11.053  1.3784  0.1109 -0.7744
  537MOL0     H72487  11.995   5.255  11.021  1.9846  0.6689  0.5365
  537MOL0     H72488  11.983   5.195  11.188  0.5729  2.8371  2.1811
  537MOL0     H72489  12.088   5.424  11.172 -0.6795  1.1782 -2.4031
  537MOL0     H72490  11.942   5.438  11.269  2.3586 -0.5222  2.1530
  537MOL0     H72491  11.812   5.512  11.070 -0.5923 -2.6459  4.3076
  537MOL0     H72492  11.951   5.523  10.973  1.0654  1.7109 -0.0487
  537MOL0     H72493  11.965   5.867  11.226  1.2120 -0.8625  3.3400
  537MOL0     H72494  11.625   5.010  11.249  0.6752 -0.9820 -0.8523
  537MOL0     H72495  11.375   4.981  11.205 -0.0816 -0.0052 -1.1342
  538MOL0     O72496   0.276   6.943  10.799  0.3527 -0.1032 -0.1118
  538MOL0     C72497   0.381   6.990  10.755 -1.2043 -0.6442 -0.2300
  538MOL0     O72498   0.398   7.111  10.696  0.0724 -0.0549 -0.4982
  538MOL0     C72499   0.308   7.211  10.666  0.5370  0.0832 -0.2777
  538MOL0     C72500   0.171   7.210  10.703 -0.2165 -0.2046  0.6873
  538MOL0     C72501   0.090   7.328  10.685  0.2229  0.1288 -0.8141
  538MOL0     C72502   0.144   7.439  10.626  0.0387 -0.0909 -0.0882
  538MOL0     O72503   0.067   7.550  10.590 -0.2312  0.7638 -0.8784
  538MOL0     C72504  -0.077   7.532  10.595 -0.3597  0.3384 -0.0649
  538MOL0     C72505  -0.155   7.662  10.555 -0.2920  0.2850  0.5016
  538MOL0     C72506  -0.088   7.726  10.426  0.6976 -0.4572  0.1851
  538MOL0     C72507  -0.116   7.646  10.307 -0.3739  0.1332  0.0882
  538MOL0     C72508  -0.029   7.689  10.184 -1.1424 -1.2626  0.9160
  538MOL0     C72509  -0.012   7.574  10.089 -0.1872  0.0682 -0.1211
  538MOL0     C72510   0.072   7.600   9.963 -0.4827 -0.5136  0.7540
  538MOL0     C72511   0.214   7.648  10.000 -0.2138  1.2987  0.0596
  538MOL0     N72512   0.303   7.560  10.080  0.4172  0.3662  0.6535
  538MOL0     C72513   0.313   7.429  10.071 -0.0680  0.0147  0.0326
  538MOL0     C72514   0.397   7.398  10.176 -0.5292 -0.2537  0.0086
  538MOL0     C72515   0.460   7.267  10.200 -0.4317 -0.0370  0.0041
  538MOL0     C72516   0.572   7.240  10.099 -0.5730 -0.1675 -0.4578
  538MOL0     C72517   0.678   7.348  10.088 -1.2933 -0.6072  0.1030
  538MOL0     C72518   0.784   7.334   9.968  0.1618 -0.3980 -0.5348
  538MOL0     O72519   0.843   7.211   9.978 -0.0967  0.3890  0.4098
  538MOL0     C72520   0.965   7.195  10.044  0.0862  0.1788 -0.5360
  538MOL0     C72521   1.032   7.071  10.040  0.8130  0.1311 -0.5319
  538MOL0     C72522   1.152   7.044  10.107  0.1512 -0.1960  0.2625
  538MOL0     C72523   1.224   6.919  10.097 -0.5722 -0.7313 -0.0226
  538MOL0     C72524   1.212   7.146  10.186  0.0466 -0.6503 -1.0472
  538MOL0     C72525   1.335   7.137  10.291 -0.4446 -0.4763  0.4086
  538MOL0     O72526   1.330   7.223  10.395 -0.1122 -0.2030  0.3658
  538MOL0     C72527   1.436   7.213  10.483  0.1359 -0.1583  0.1322
  538MOL0     C72528   1.428   7.129  10.586  0.0362  0.2010  0.1598
  538MOL0     C72529   1.533   7.114  10.677 -0.8309 -0.2452 -0.2027
  538MOL0     C72530   1.645   7.200  10.677  0.5055  0.5023  0.2208
  538MOL0     O72531   1.729   7.204  10.782 -0.9738  0.6410  0.2471
  538MOL0     C72532   1.874   7.202  10.757 -0.2718  0.0497 -0.3066
  538MOL0     C72533   1.960   7.302  10.833 -0.1486  0.0773  0.1140
  538MOL0     C72534   1.932   7.304  10.987 -0.3050 -0.0705 -0.5503
  538MOL0     C72535   1.994   7.176  11.055  0.8382 -0.7433  0.0058
  538MOL0     C72536   1.946   7.160  11.197 -0.4489  0.1190 -0.7087
  538MOL0     C72537   2.013   7.044  11.275  0.0635  0.8711  0.6836
  538MOL0     C72538   1.938   6.968  11.385 -0.2743 -0.8845  0.2141
  538MOL0     C72539   2.020   6.951  11.514 -0.0182  1.3187 -0.3924
  538MOL0    Cl72540   2.163   6.848  11.493  0.0166 -0.3325  0.2052
  538MOL0     C72541   1.653   7.303  10.576  0.0084 -0.2789 -0.6425
  538MOL0     C72542   1.544   7.306  10.478 -0.0164  0.2454 -0.2045
  538MOL0     O72543   1.414   7.040  10.283 -0.2982 -0.0114 -0.0189
  538MOL0     C72544   1.143   7.274  10.188  0.2324  0.7379  0.2356
  538MOL0     C72545   1.025   7.300  10.119 -1.6959  0.1305  0.0673
  538MOL0     N72546   0.429   7.514  10.246  0.1604  0.1951  0.4562
  538MOL0     N72547   0.376   7.616  10.180  0.3030  1.3962  0.2755
  538MOL0     C72548   0.280   7.436  10.586  0.7631 -0.9618 -0.7345
  538MOL0     C72549   0.364   7.327  10.604  0.2469  0.4225  1.1393
  538MOL0     C72550   0.508   6.915  10.767 -0.0886  0.0614 -1.1342
  538MOL0     C72551   0.518   6.780  10.804 -0.0181 -0.7368 -0.0290
  538MOL0     C72552   0.639   6.719  10.816 -1.1944  0.2968  0.3536
  538MOL0     C72553   0.756   6.792  10.824 -0.1150 -0.4735  0.4515
  538MOL0     O72554   0.888   6.762  10.854 -0.5885  0.3092 -0.1901
  538MOL0     C72555   0.926   6.622  10.872 -0.1416  0.2032 -0.4327
  538MOL0     C72556   1.074   6.621  10.902 -0.8686  0.8998  0.9077
  538MOL0     C72557   1.122   6.488  10.963 -0.0673 -0.5788 -0.1497
  538MOL0     C72558   1.253   6.496  11.035 -0.5865 -0.2068  0.6451
  538MOL0     C72559   1.356   6.472  10.937  0.1999 -0.4733 -0.1946
  538MOL0     C72560   1.439   6.442  10.851 -0.0853 -0.4707  0.5495
  538MOL0     C72561   0.744   6.923  10.793  0.5952  0.1397 -0.4515
  538MOL0     C72562   0.624   6.990  10.768 -0.0845 -0.2012 -0.1355
  538MOL0     H72563   0.134   7.120  10.750  3.1536 -1.0940  1.9045
  538MOL0     H72564  -0.012   7.311  10.717  0.4946 -1.9747 -0.8701
  538MOL0     H72565  -0.095   7.454  10.520  0.8837  0.7051 -0.7927
  538MOL0     H72566  -0.106   7.506  10.697  3.0771 -2.9589  0.3084
  538MOL0     H72567  -0.261   7.638  10.547 -1.3968  3.2815  3.7975
  538MOL0     H72568  -0.137   7.741  10.628  0.9907  1.2461 -0.7876
  538MOL0     H72569  -0.141   7.818  10.399  1.8581 -0.8279 -4.1737
  538MOL0     H72570   0.021   7.730  10.441  2.0351 -4.8833 -4.9897
  538MOL0     H72571  -0.096   7.540  10.325 -0.7020 -0.2671 -1.7231
  538MOL0     H72572  -0.221   7.654  10.278  0.6867  1.1619 -4.2216
  538MOL0     H72573  -0.073   7.765  10.120  1.8124 -0.0362  0.1647
  538MOL0     H72574   0.066   7.737  10.211 -0.4318 -1.7211 -0.6960
  538MOL0     H72575   0.037   7.489  10.138 -0.4941  0.1877  0.3981
  538MOL0     H72576  -0.108   7.534  10.055 -0.2053 -0.1927  0.2395
  538MOL0     H72577   0.086   7.511   9.901 -0.2737  1.2304 -1.8723
  538MOL0     H72578   0.033   7.664   9.884  0.5089 -2.3025 -1.3083
  538MOL0     H72579   0.201   7.744  10.052 -0.6784 -0.2317  2.9960
  538MOL0     H72580   0.267   7.674   9.908  0.5538  1.0041  0.4023
  538MOL0     H72581   0.290   7.356   9.994 -2.2123 -1.2141  1.7227
  538MOL0     H72582   0.504   7.282  10.299  4.1107 -1.3777 -1.5371
  538MOL0     H72583   0.391   7.183  10.212 -0.5176  0.1573  1.0141
  538MOL0     H72584   0.530   7.236   9.998  0.1385 -0.4158 -0.7527
  538MOL0     H72585   0.609   7.139  10.120 -1.3518 -0.8876 -2.2989
  538MOL0     H72586   0.717   7.344  10.190 -2.8257  1.2585  0.8351
  538MOL0     H72587   0.629   7.446  10.089 -0.3895 -0.1377  1.3885
  538MOL0     H72588   0.853   7.418   9.977 -2.1454  1.5014  0.3311
  538MOL0     H72589   0.731   7.338   9.872  2.7958 -1.7109 -2.1672
  538MOL0     H72590   0.990   6.990   9.981 -2.1648 -0.6927  2.3918
  538MOL0     H72591   1.230   6.878  10.198  0.7189  2.3200  1.2700
  538MOL0     H72592   1.171   6.849  10.032  0.3829  1.1225 -3.0534
  538MOL0     H72593   1.321   6.937  10.048 -0.5132  1.2751  0.7178
  538MOL0     H72594   1.352   7.052  10.577  0.9718 -0.8581  1.0578
  538MOL0     H72595   1.511   7.041  10.754 -2.7761  0.6478  0.1388
  538MOL0     H72596   1.914   7.104  10.784  0.6461  0.1353 -1.2738
  538MOL0     H72597   1.890   7.228  10.652  1.4248 -0.8198 -0.2875
  538MOL0     H72598   2.065   7.276  10.818 -0.4507 -2.6881  1.9070
  538MOL0     H72599   1.941   7.401  10.791 -1.5162 -0.9317 -1.7845
  538MOL0     H72600   1.824   7.300  11.006  0.0250  0.7856  1.9640
  538MOL0     H72601   1.962   7.397  11.035  1.0480 -0.9145  0.3263
  538MOL0     H72602   1.971   7.082  11.004 -2.6570  0.2851 -0.5921
  538MOL0     H72603   2.102   7.187  11.070  0.8353  1.8340 -1.2975
  538MOL0     H72604   1.838   7.145  11.187 -0.5727  0.4700  0.0201
  538MOL0     H72605   1.965   7.254  11.249  1.5593 -0.3433 -0.5365
  538MOL0     H72606   2.034   6.970  11.198  1.6308 -0.2097  2.0563
  538MOL0     H72607   2.107   7.097  11.294  1.7352 -0.6507 -2.6090
  538MOL0     H72608   1.903   6.869  11.355 -2.4219 -0.3672  0.8006
  538MOL0     H72609   1.854   7.022  11.430 -0.9911 -1.3369 -0.5560
  538MOL0     H72610   1.953   6.897  11.580  2.8998  0.0316  1.7430
  538MOL0     H72611   2.056   7.040  11.566 -0.1249 -0.1506  2.3563
  538MOL0     H72612   1.733   7.373  10.596 -0.3402  0.1640 -0.7915
  538MOL0     H72613   1.537   7.386  10.405 -2.1838  1.2714  1.0374
  538MOL0     H72614   1.182   7.346  10.259  0.3728  0.2279  0.6815
  538MOL0     H72615   0.991   7.402  10.129 -0.5096  0.5035  0.4188
  538MOL0     H72616   0.318   7.528  10.544 -2.5328  1.5671  1.3194
  538MOL0     H72617   0.472   7.333  10.595  0.3371 -0.3448  1.6459
  538MOL0     H72618   0.428   6.726  10.830 -0.9381  0.9411  0.3932
  538MOL0     H72619   0.635   6.611  10.822  0.1854  0.1356 -0.8864
  538MOL0     H72620   0.866   6.562  10.942 -1.9536  0.9704 -1.2579
  538MOL0     H72621   0.908   6.561  10.782 -0.7512  0.3396 -0.4041
  538MOL0     H72622   1.094   6.706  10.967 -2.0287  2.8219 -1.0764
  538MOL0     H72623   1.124   6.648  10.809 -2.1247  1.7146  0.4318
  538MOL0     H72624   1.130   6.431  10.871  3.5385  1.6789 -1.4606
  538MOL0     H72625   1.049   6.456  11.037  2.2215  0.2733  2.6908
  538MOL0     H72626   1.243   6.424  11.117  1.6942  1.3017  2.3625
  538MOL0     H72627   1.261   6.591  11.089  4.3035 -1.0987  1.9963
  538MOL0     H72628   1.508   6.430  10.770  0.0132  1.2295  0.3353
  538MOL0     H72629   0.835   6.979  10.813  1.2139 -0.9004 -0.2562
  538MOL0     H72630   0.629   7.098  10.764  1.3693 -0.2776 -0.8497
  539MOL0     O72631   4.893   1.302   4.082 -0.4941  0.2966  0.0256
  539MOL0     C72632   4.781   1.266   4.113 -1.0845 -0.6278  0.1128
  539MOL0     O72633   4.725   1.148   4.081 -0.5658 -0.2076 -0.0439
  539MOL0     C72634   4.805   1.051   4.026  0.3487 -0.2870 -0.7967
  539MOL0     C72635   4.890   0.971   4.101  0.7208 -0.1090  0.6323
  539MOL0     C72636   4.998   0.900   4.044  0.5865 -0.0288 -0.9186
  539MOL0     C72637   5.009   0.899   3.902 -0.6869 -0.1437  0.6094
  539MOL0     O72638   5.110   0.829   3.839 -0.5999  1.0139 -0.9590
  539MOL0     C72639   5.242   0.883   3.860 -0.5030 -0.1581  0.1149
  539MOL0     C72640   5.325   0.798   3.959 -0.5806  0.1498 -0.9760
  539MOL0     C72641   5.462   0.854   3.993 -0.0530  0.1881  0.9695
  539MOL0     C72642   5.514   0.779   4.110  0.3033 -0.0757  0.1931
  539MOL0     C72643   5.662   0.794   4.118 -0.4259 -0.1158  0.2201
  539MOL0     C72644   5.717   0.789   4.258 -0.4222 -0.5730  0.5669
  539MOL0     C72645   5.878   0.793   4.260  0.0135 -0.0944  0.7544
  539MOL0     C72646   5.929   0.811   4.405  0.0084  0.2333 -0.0673
  539MOL0     N72647   5.848   0.741   4.512  0.2769 -0.1348  0.1926
  539MOL0     C72648   5.756   0.810   4.585 -0.0300  0.0788  0.3971
  539MOL0     C72649   5.701   0.707   4.671  0.3353 -0.0623  1.4610
  539MOL0     C72650   5.587   0.711   4.766 -1.0052  0.8174 -1.0605
  539MOL0     C72651   5.605   0.822   4.869 -0.1593  0.0930 -0.2730
  539MOL0     C72652   5.734   0.820   4.947 -0.5304  0.0331 -1.0164
  539MOL0     C72653   5.761   0.687   5.011 -0.2120  0.9248  0.8129
  539MOL0     O72654   5.871   0.693   5.102 -0.5869  0.3231 -0.4920
  539MOL0     C72655   6.000   0.702   5.050  0.0871 -0.1664  0.0231
  539MOL0     C72656   6.030   0.685   4.909 -0.0530 -0.2092  0.2155
  539MOL0     C72657   6.165   0.704   4.873 -0.6482 -0.2369  0.0475
  539MOL0     C72658   6.203   0.672   4.731 -0.2115  0.2321  0.5789
  539MOL0     C72659   6.262   0.746   4.961 -0.8199 -0.2670 -0.7186
  539MOL0     C72660   6.409   0.743   4.924 -0.7163 -0.4049 -0.7830
  539MOL0     O72661   6.480   0.854   4.963 -0.2841  0.5380 -0.1368
  539MOL0     C72662   6.610   0.837   4.988 -0.2299  0.7088 -0.4058
  539MOL0     C72663   6.645   0.762   5.097 -0.3413  0.0337  0.4533
  539MOL0     C72664   6.779   0.756   5.131 -0.7482 -0.0592  0.7393
  539MOL0     C72665   6.886   0.819   5.055  0.1566  0.2902 -0.1315
  539MOL0     O72666   7.015   0.794   5.096  0.0080  0.2134  0.1751
  539MOL0     C72667   7.121   0.857   5.013  0.0126  0.2760 -0.1800
  539MOL0     C72668   7.260   0.821   5.061  0.7365 -0.2076 -0.3481
  539MOL0     C72669   7.370   0.905   4.990  0.1975  0.8800  0.0605
  539MOL0     C72670   7.501   0.900   5.066  0.1291 -0.6430 -0.9377
  539MOL0     C72671   7.608   0.981   4.993  0.2664 -0.7398  0.6541
  539MOL0     C72672   7.744   0.973   5.059  0.6308  0.6072  0.0030
  539MOL0     C72673   7.855   0.906   4.979 -1.3421  0.0219  0.2549
  539MOL0     C72674   7.984   0.923   5.058  0.3222 -0.4564 -0.4525
  539MOL0    Cl72675   8.114   0.855   4.967  0.3300 -0.0994  0.3503
  539MOL0     C72676   6.838   0.905   4.949 -0.1387  0.1714 -0.3581
  539MOL0     C72677   6.699   0.912   4.921 -0.1937  0.6814  0.3314
  539MOL0     O72678   6.452   0.649   4.861 -0.7085 -0.0606 -0.5937
  539MOL0     C72679   6.224   0.767   5.091  0.3860  0.1202  0.4678
  539MOL0     C72680   6.097   0.736   5.140 -0.2201  0.4204 -0.3390
  539MOL0     N72681   5.776   0.600   4.644  0.0461  0.1991  0.3605
  539MOL0     N72682   5.851   0.611   4.542  0.6932 -0.3882  0.2091
  539MOL0     C72683   4.926   0.967   3.814  0.0897  0.8039  0.2517
  539MOL0     C72684   4.823   1.046   3.884 -0.4938  0.7179 -0.8932
  539MOL0     C72685   4.696   1.360   4.183 -0.2980  0.6445 -0.7559
  539MOL0     C72686   4.557   1.338   4.193 -0.3861  0.6869  0.0824
  539MOL0     C72687   4.475   1.436   4.247  1.3721 -0.5368 -0.7643
  539MOL0     C72688   4.534   1.561   4.290 -0.2513 -0.3287  0.4264
  539MOL0     O72689   4.436   1.637   4.349  0.7585  0.6086  0.0294
  539MOL0     C72690   4.476   1.757   4.416 -0.2747  0.5340 -0.9901
  539MOL0     C72691   4.357   1.807   4.516 -0.8091  0.5437  0.4570
  539MOL0     C72692   4.330   1.689   4.616 -0.2435  0.2022  0.0287
  539MOL0     C72693   4.285   1.740   4.752  0.5111  0.3985 -0.0645
  539MOL0     C72694   4.154   1.810   4.763 -0.4506  0.0307 -0.4542
  539MOL0     C72695   4.043   1.872   4.745 -0.4951  0.5648  0.2012
  539MOL0     C72696   4.673   1.583   4.286  0.1869 -1.1387  0.8817
  539MOL0     C72697   4.745   1.475   4.237  0.3607 -0.4910  0.1250
  539MOL0     H72698   4.878   0.970   4.209  1.7833  1.9461  0.8186
  539MOL0     H72699   5.044   0.836   4.118 -0.5364 -0.0885 -0.2489
  539MOL0     H72700   5.305   0.875   3.771 -0.9315  0.7812 -0.2976
  539MOL0     H72701   5.227   0.982   3.905  0.9421  0.8230 -1.4437
  539MOL0     H72702   5.272   0.780   4.053 -0.3780 -1.8399 -1.1890
  539MOL0     H72703   5.326   0.698   3.915  0.9809 -0.0025 -0.6583
  539MOL0     H72704   5.522   0.850   3.901 -1.5182  0.0680 -0.0050
  539MOL0     H72705   5.452   0.959   4.020  2.0659  1.4549 -2.4493
  539MOL0     H72706   5.458   0.818   4.196 -0.2729 -1.0041  0.2552
  539MOL0     H72707   5.485   0.674   4.103  1.6809 -0.5336  1.0061
  539MOL0     H72708   5.707   0.724   4.047  0.0969  2.0996 -1.7464
  539MOL0     H72709   5.694   0.890   4.078 -0.3803 -0.5838 -0.8983
  539MOL0     H72710   5.689   0.869   4.327  3.3679 -0.8119  2.6435
  539MOL0     H72711   5.690   0.696   4.308 -0.2900 -0.3048  1.1499
  539MOL0     H72712   5.908   0.693   4.226  0.3577  0.9919 -2.5124
  539MOL0     H72713   5.915   0.868   4.189  1.2529 -1.6245 -0.2766
  539MOL0     H72714   5.912   0.916   4.431 -1.7016 -0.1998  0.7007
  539MOL0     H72715   6.035   0.788   4.417 -0.2076  0.0748  1.9119
  539MOL0     H72716   5.717   0.911   4.577  0.6228  0.4653  1.7309
  539MOL0     H72717   5.497   0.723   4.704  0.0192 -0.7520 -2.9696
  539MOL0     H72718   5.575   0.609   4.804  0.4807  0.9657 -0.1248
  539MOL0     H72719   5.525   0.818   4.944 -1.2489 -4.0226 -1.4310
  539MOL0     H72720   5.592   0.914   4.812 -0.4642 -0.7844 -1.6557
  539MOL0     H72721   5.734   0.902   5.019  0.1382 -0.6056 -0.2746
  539MOL0     H72722   5.812   0.835   4.872 -0.0206  1.7522 -0.1933
  539MOL0     H72723   5.780   0.612   4.934 -0.8353  0.4591  1.1081
  539MOL0     H72724   5.668   0.664   5.063 -0.4044  2.0240  0.9775
  539MOL0     H72725   5.960   0.651   4.832 -0.8599 -3.4942  2.1838
  539MOL0     H72726   6.234   0.567   4.730  1.1123  0.5877  1.2179
  539MOL0     H72727   6.115   0.680   4.667 -1.4253 -1.5558  1.9471
  539MOL0     H72728   6.282   0.730   4.681 -0.6180  1.5646  1.4357
  539MOL0     H72729   6.573   0.712   5.159  0.0166 -0.0043  0.8427
  539MOL0     H72730   6.800   0.715   5.229  0.1616 -2.0294 -0.2364
  539MOL0     H72731   7.121   0.836   4.906  0.9156 -0.3488 -0.0732
  539MOL0     H72732   7.111   0.965   5.027 -2.2727  0.0974 -0.1840
  539MOL0     H72733   7.261   0.834   5.169 -1.8941 -0.1151 -0.2766
  539MOL0     H72734   7.279   0.714   5.044 -2.6875 -1.0207  0.2768
  539MOL0     H72735   7.335   1.008   4.978 -0.1029  0.6058 -1.5383
  539MOL0     H72736   7.382   0.862   4.891  1.8413 -0.9247  0.9624
  539MOL0     H72737   7.486   0.926   5.171  0.0795 -0.2361 -1.0443
  539MOL0     H72738   7.528   0.796   5.084  2.0840  0.3843  3.2503
  539MOL0     H72739   7.575   1.086   4.994  3.0414  0.2166  1.7705
  539MOL0     H72740   7.621   0.956   4.887  0.9977 -0.2414  0.6170
  539MOL0     H72741   7.777   1.067   5.104 -0.1385  1.2428 -0.7200
  539MOL0     H72742   7.733   0.910   5.148  3.5636  1.5932  1.1984
  539MOL0     H72743   7.873   0.970   4.892  4.2209 -0.9773  0.3117
  539MOL0     H72744   7.831   0.801   4.960 -1.2248  0.3127 -1.6815
  539MOL0     H72745   7.987   0.867   5.152  0.4900  0.5997  0.1912
  539MOL0     H72746   7.998   1.027   5.088  1.7678 -0.1093 -2.1297
  539MOL0     H72747   6.911   0.969   4.900  1.5804 -0.1659  1.5970
  539MOL0     H72748   6.666   0.976   4.840 -1.8735 -0.6673 -0.1157
  539MOL0     H72749   6.306   0.786   5.159 -0.1345 -1.5315  1.5932
  539MOL0     H72750   6.082   0.736   5.248  0.3516  1.8682 -0.2403
  539MOL0     H72751   4.942   0.973   3.707  1.8870 -4.0444  0.0106
  539MOL0     H72752   4.757   1.106   3.823 -1.1358 -2.5077 -3.6944
  539MOL0     H72753   4.500   1.253   4.157 -0.8471 -0.4660  3.2383
  539MOL0     H72754   4.371   1.421   4.271  2.1549 -0.5952  3.3450
  539MOL0     H72755   4.567   1.734   4.472  1.2497  1.1817 -3.0678
  539MOL0     H72756   4.501   1.827   4.336  2.9977 -2.0181 -2.4120
  539MOL0     H72757   4.259   1.824   4.471 -0.0858  0.5374 -1.1795
  539MOL0     H72758   4.393   1.892   4.575  0.3041  0.8876 -0.6846
  539MOL0     H72759   4.423   1.636   4.637 -0.5346 -0.0392  0.7669
  539MOL0     H72760   4.257   1.614   4.583  0.0920 -0.8094  1.4884
  539MOL0     H72761   4.358   1.811   4.793 -1.1766  1.9103  0.5036
  539MOL0     H72762   4.268   1.645   4.804 -2.2818  0.9992  0.2913
  539MOL0     H72763   3.963   1.933   4.710 -1.5100 -1.8268 -1.8852
  539MOL0     H72764   4.725   1.674   4.311 -0.3139 -0.5302 -0.1988
  539MOL0     H72765   4.853   1.486   4.236  0.3653 -0.4535  0.6896
  540MOL0     O72766   9.470   6.546   7.404 -0.4502 -0.3441  0.6008
  540MOL0     C72767   9.519   6.619   7.314  0.4341  0.2178 -0.1023
  540MOL0     O72768   9.448   6.703   7.242  0.6377 -0.1933  0.6040
  540MOL0     C72769   9.308   6.722   7.253 -0.6110  0.7392  0.8954
  540MOL0     C72770   9.223   6.732   7.136 -0.7973  0.1454  0.5765
  540MOL0     C72771   9.087   6.749   7.151 -0.7342  0.3164 -0.0467
  540MOL0     C72772   9.030   6.774   7.277 -0.1501 -0.0778  0.6107
  540MOL0     O72773   8.894   6.800   7.294  0.0864  0.0015 -0.2607
  540MOL0     C72774   8.836   6.890   7.204  0.0504 -0.5582 -0.5901
  540MOL0     C72775   8.688   6.924   7.260 -0.3779  0.3156 -0.7161
  540MOL0     C72776   8.593   6.799   7.259 -0.1584 -0.1395 -1.2559
  540MOL0     C72777   8.458   6.837   7.331  0.2061  0.2603  0.6837
  540MOL0     C72778   8.348   6.733   7.309  0.4420  0.0638  0.1578
  540MOL0     C72779   8.230   6.766   7.403 -0.8746 -0.2921  0.4214
  540MOL0     C72780   8.108   6.688   7.346 -0.7628  0.6219  0.6068
  540MOL0     C72781   8.003   6.662   7.458  0.0634  0.0076  1.2910
  540MOL0     N72782   7.899   6.570   7.409 -0.0931  0.1190  0.6355
  540MOL0     C72783   7.825   6.593   7.295  0.0724  0.2668 -0.4076
  540MOL0     C72784   7.770   6.471   7.270  0.0558 -1.6746 -0.6372
  540MOL0     C72785   7.669   6.433   7.162 -0.1324 -0.5229 -0.2321
  540MOL0     C72786   7.524   6.479   7.209 -0.1396  0.4794  0.5679
  540MOL0     C72787   7.413   6.453   7.104  0.0231  0.2259  0.0755
  540MOL0     C72788   7.425   6.546   6.980  0.7067 -0.6887  0.1813
  540MOL0     O72789   7.314   6.544   6.892  0.5401  0.3116  0.5623
  540MOL0     C72790   7.325   6.631   6.795  0.8147 -0.2793  0.4230
  540MOL0     C72791   7.427   6.729   6.777 -0.7563 -0.3742 -0.3629
  540MOL0     C72792   7.429   6.807   6.661  0.1998 -0.0001 -0.6484
  540MOL0     C72793   7.546   6.891   6.650 -0.7775  0.0266  0.8336
  540MOL0     C72794   7.325   6.795   6.560 -0.4748 -1.3633  0.1472
  540MOL0     C72795   7.322   6.886   6.437 -0.3794 -1.2241  0.4180
  540MOL0     O72796   7.196   6.902   6.378  0.3148 -0.2175 -0.5574
  540MOL0     C72797   7.193   6.980   6.268  0.5953  0.3574  0.7201
  540MOL0     C72798   7.230   6.922   6.150 -0.1492  1.0231  1.4347
  540MOL0     C72799   7.217   6.990   6.033 -0.0785 -0.3237 -0.3490
  540MOL0     C72800   7.172   7.119   6.025  0.1473 -0.6733  0.1975
  540MOL0     O72801   7.155   7.170   5.900 -0.3702  0.3695 -0.8436
  540MOL0     C72802   7.110   7.300   5.888  0.2639  0.3527 -1.4532
  540MOL0     C72803   6.956   7.307   5.894  0.3195 -0.0107  1.1609
  540MOL0     C72804   6.920   7.448   5.836 -0.3158 -0.3164 -0.0936
  540MOL0     C72805   6.765   7.467   5.842 -0.7560  0.7528  1.2406
  540MOL0     C72806   6.708   7.591   5.776  0.0997 -0.0883  0.3129
  540MOL0     C72807   6.552   7.606   5.791  0.5512 -0.1280  0.7919
  540MOL0     C72808   6.508   7.741   5.739 -0.2667 -1.0493 -0.6476
  540MOL0     C72809   6.564   7.854   5.815  0.4829 -0.2818 -0.1814
  540MOL0    Cl72810   6.483   8.019   5.770 -0.9992  0.2580 -0.1895
  540MOL0     C72811   7.128   7.180   6.146  0.5434  0.1446 -0.5076
  540MOL0     C72812   7.137   7.108   6.267  0.3120  1.3682 -0.6771
  540MOL0     O72813   7.430   6.936   6.394 -0.5075  0.3965  0.0153
  540MOL0     C72814   7.229   6.693   6.580  0.0604 -0.3692  1.0744
  540MOL0     C72815   7.230   6.609   6.687  0.2753  0.5088  1.0775
  540MOL0     N72816   7.804   6.387   7.369  0.2817 -0.0989 -0.3977
  540MOL0     N72817   7.894   6.441   7.435 -0.2606  0.1031 -0.7971
  540MOL0     C72818   9.110   6.772   7.384 -0.0758 -0.3744 -0.6416
  540MOL0     C72819   9.251   6.739   7.380  0.2899  0.0727  0.4244
  540MOL0     C72820   9.658   6.588   7.275 -0.4275 -0.2468 -0.2326
  540MOL0     C72821   9.734   6.486   7.336  0.0584 -0.0852 -0.2419
  540MOL0     C72822   9.865   6.458   7.286  0.1672  0.3350 -0.1709
  540MOL0     C72823   9.931   6.542   7.198  0.0922  0.4095  0.9838
  540MOL0     O72824  10.060   6.532   7.157 -0.0664  0.0110 -0.0667
  540MOL0     C72825  10.158   6.480   7.248  0.0600 -0.5292  0.4346
  540MOL0     C72826  10.282   6.488   7.162 -0.0507  0.1083 -0.5230
  540MOL0     C72827  10.386   6.395   7.233 -1.2300 -0.2034 -1.3490
  540MOL0     C72828  10.471   6.324   7.135 -0.1466  0.0147  0.1411
  540MOL0     C72829  10.587   6.262   7.207  0.3809  0.4182  0.3918
  540MOL0     C72830  10.690   6.207   7.232  0.2830 -0.4610 -0.8713
  540MOL0     C72831   9.861   6.639   7.133  0.0973  0.2433 -0.2255
  540MOL0     C72832   9.723   6.667   7.175  0.1790  0.3750  0.8064
  540MOL0     H72833   9.251   6.707   7.034 -0.3130  1.0751  0.4759
  540MOL0     H72834   9.017   6.750   7.068 -2.6345 -3.6952  1.2344
  540MOL0     H72835   8.888   6.986   7.194 -2.5638  0.8084 -2.6075
  540MOL0     H72836   8.831   6.843   7.105 -3.3338 -1.5173 -0.0945
  540MOL0     H72837   8.698   6.957   7.364  0.8184 -1.6592 -0.1476
  540MOL0     H72838   8.634   6.998   7.200 -3.1412  0.3637  1.5957
  540MOL0     H72839   8.569   6.763   7.158 -0.4354  0.9889 -1.6026
  540MOL0     H72840   8.636   6.711   7.307 -1.5244 -0.5906 -0.8269
  540MOL0     H72841   8.468   6.840   7.440 -2.2054  1.4565  0.9378
  540MOL0     H72842   8.420   6.930   7.289 -0.6801 -0.3160  0.1752
  540MOL0     H72843   8.310   6.733   7.207 -1.7398 -2.4382  0.8489
  540MOL0     H72844   8.381   6.630   7.329 -2.4733 -1.5916 -2.6155
  540MOL0     H72845   8.249   6.717   7.499 -0.2443 -1.4254 -0.2589
  540MOL0     H72846   8.213   6.874   7.404 -1.0983 -0.3014  2.1937
  540MOL0     H72847   8.075   6.750   7.263  0.2498  0.3860  0.0060
  540MOL0     H72848   8.137   6.587   7.318 -1.7023 -1.4801  5.9464
  540MOL0     H72849   7.969   6.759   7.498 -0.9132 -0.4147  1.5172
  540MOL0     H72850   8.048   6.611   7.543  2.6085 -1.0106 -0.5366
  540MOL0     H72851   7.811   6.678   7.228  1.9635  1.4998  0.6582
  540MOL0     H72852   7.699   6.487   7.072  1.5518 -0.5717  0.2568
  540MOL0     H72853   7.674   6.328   7.129  0.2743 -0.8829  0.9245
  540MOL0     H72854   7.534   6.586   7.229  1.1944  0.6832 -0.9538
  540MOL0     H72855   7.513   6.420   7.300  1.3495  2.2667  2.0032
  540MOL0     H72856   7.315   6.468   7.151 -0.9295  0.2676 -1.8502
  540MOL0     H72857   7.416   6.346   7.085  1.9902 -0.2661  2.6102
  540MOL0     H72858   7.518   6.531   6.924 -0.7803 -1.6019 -2.2029
  540MOL0     H72859   7.422   6.650   7.014  0.0413  0.6381 -3.4513
  540MOL0     H72860   7.503   6.742   6.853 -0.7914 -1.3356 -0.1491
  540MOL0     H72861   7.522   6.996   6.665 -0.5346 -0.0918  2.1607
  540MOL0     H72862   7.624   6.862   6.722  0.7110  0.7906 -0.4096
  540MOL0     H72863   7.589   6.889   6.550 -3.7390 -0.5183 -0.5373
  540MOL0     H72864   7.273   6.823   6.156  0.2967  1.1790  0.8137
  540MOL0     H72865   7.256   6.941   5.944 -0.2663 -0.2947 -0.4482
  540MOL0     H72866   7.147   7.362   5.970 -0.2771 -0.0749 -0.8824
  540MOL0     H72867   7.151   7.334   5.792  2.3600  0.7545 -0.4767
  540MOL0     H72868   6.917   7.233   5.824  2.3822 -1.5545  1.5468
  540MOL0     H72869   6.910   7.282   5.990  0.5452 -1.9643  0.8095
  540MOL0     H72870   6.964   7.462   5.737 -1.6757  0.3012 -0.6330
  540MOL0     H72871   6.970   7.527   5.893  1.9085 -1.3496 -0.5365
  540MOL0     H72872   6.724   7.371   5.808  1.5408  0.4288 -0.9348
  540MOL0     H72873   6.741   7.467   5.949 -1.2774  1.8997  1.1310
  540MOL0     H72874   6.732   7.575   5.670 -1.7466 -0.5033 -0.0810
  540MOL0     H72875   6.764   7.678   5.813 -0.0012 -0.3798  1.1577
  540MOL0     H72876   6.504   7.519   5.744 -0.4396  1.1498 -0.6557
  540MOL0     H72877   6.528   7.594   5.897  0.3610  0.9664  0.8827
  540MOL0     H72878   6.400   7.743   5.757  0.0424 -1.3326  1.6165
  540MOL0     H72879   6.543   7.746   5.636 -0.1583  3.8391 -0.6117
  540MOL0     H72880   6.666   7.867   5.777  0.5581  1.2194  0.4661
  540MOL0     H72881   6.565   7.836   5.923  2.3983 -1.8177 -0.3955
  540MOL0     H72882   7.075   7.273   6.157  0.3315 -0.1296  0.9314
  540MOL0     H72883   7.105   7.156   6.359 -0.9539  4.4589 -2.5605
  540MOL0     H72884   7.151   6.686   6.505  2.0134 -0.6388 -1.0550
  540MOL0     H72885   7.151   6.535   6.690  1.1091 -0.5054 -0.5719
  540MOL0     H72886   9.060   6.787   7.480 -1.1733 -0.1966 -1.2281
  540MOL0     H72887   9.301   6.734   7.476 -3.4080 -1.8412  2.4925
  540MOL0     H72888   9.685   6.428   7.414 -1.5918  1.1368 -0.3064
  540MOL0     H72889   9.910   6.363   7.314 -0.2650  0.6661  1.8293
  540MOL0     H72890  10.168   6.539   7.339  0.7662 -1.5407  1.0179
  540MOL0     H72891  10.141   6.373   7.261 -0.0986 -0.7561 -1.3178
  540MOL0     H72892  10.322   6.590   7.160  3.0997 -0.6455  4.8358
  540MOL0     H72893  10.264   6.444   7.063  0.3119  0.7616 -0.8864
  540MOL0     H72894  10.337   6.318   7.294  0.9590  0.1850  1.0865
  540MOL0     H72895  10.438   6.459   7.305 -1.7360 -0.7573 -0.4735
  540MOL0     H72896  10.511   6.398   7.065  1.4157  0.4096  1.3724
  540MOL0     H72897  10.414   6.254   7.074 -0.2662  1.4243 -1.4501
  540MOL0     H72898  10.779   6.165   7.276 -0.7994 -1.3842  0.5101
  540MOL0     H72899   9.913   6.709   7.069 -0.3798 -0.4422 -1.4044
  540MOL0     H72900   9.681   6.750   7.119  2.2707  2.3062  1.9476
  541MOL0     O72901   7.258   2.729   8.279  0.1710  0.7103  0.3597
  541MOL0     C72902   7.319   2.751   8.175  0.1740 -0.3495 -0.2925
  541MOL0     O72903   7.251   2.802   8.061  0.2327  0.7638 -0.6319
  541MOL0     C72904   7.114   2.817   8.082  0.0095 -0.6773  0.1887
  541MOL0     C72905   7.052   2.935   8.124  0.0446 -0.3551 -0.0607
  541MOL0     C72906   6.908   2.948   8.142 -0.2821 -1.0804  0.4398
  541MOL0     C72907   6.823   2.844   8.105 -1.3891  0.4113  0.7759
  541MOL0     O72908   6.690   2.849   8.110  0.3165  0.2312 -0.5382
  541MOL0     C72909   6.627   2.976   8.093  0.6117  0.4655 -0.7723
  541MOL0     C72910   6.468   2.970   8.096  0.3228  0.1975  0.8959
  541MOL0     C72911   6.420   2.971   7.955 -0.2971 -0.4218 -0.7105
  541MOL0     C72912   6.272   2.947   7.945 -0.1941 -0.0645 -0.5934
  541MOL0     C72913   6.216   2.940   7.796  1.1851  0.3909  0.2942
  541MOL0     C72914   6.062   2.938   7.801  0.3625  0.6978 -0.0464
  541MOL0     C72915   6.007   2.946   7.660  0.4215 -0.8149  0.3751
  541MOL0     C72916   5.854   2.946   7.666  0.3591  0.0991  0.5223
  541MOL0     N72917   5.804   2.950   7.528  0.2801 -0.2066 -0.4614
  541MOL0     C72918   5.834   3.040   7.439 -0.2882  0.6282  0.3884
  541MOL0     C72919   5.762   2.999   7.326  0.6929  0.3391 -1.3966
  541MOL0     C72920   5.760   3.060   7.188  0.0138 -0.1614 -0.1079
  541MOL0     C72921   5.888   3.126   7.139 -0.0618 -0.3922 -0.9221
  541MOL0     C72922   5.856   3.189   6.997 -0.1685  0.2025 -0.0267
  541MOL0     C72923   5.933   3.317   6.970 -0.6385 -0.2516 -0.0459
  541MOL0     O72924   6.058   3.288   6.900 -0.7412 -0.1950  0.1314
  541MOL0     C72925   6.142   3.382   6.853 -0.5880  0.1162 -0.0273
  541MOL0     C72926   6.125   3.522   6.831  0.2810  0.3517 -0.2244
  541MOL0     C72927   6.223   3.618   6.781 -0.5735  0.5703  0.9473
  541MOL0     C72928   6.175   3.752   6.733 -0.5851 -0.0980 -0.5846
  541MOL0     C72929   6.358   3.567   6.757 -0.0554  0.2390  0.0780
  541MOL0     C72930   6.465   3.650   6.716 -0.6917 -0.3206 -0.2925
  541MOL0     O72931   6.590   3.582   6.705  0.3239  0.3725  0.4119
  541MOL0     C72932   6.684   3.667   6.670 -0.1279 -0.4260  0.0128
  541MOL0     C72933   6.725   3.792   6.733  0.9067 -0.0230 -0.0899
  541MOL0     C72934   6.841   3.858   6.684 -0.1556 -0.0972 -0.0181
  541MOL0     C72935   6.913   3.814   6.573  0.5602  0.7065  0.4302
  541MOL0     O72936   7.008   3.895   6.508  0.5331 -0.0766 -0.2708
  541MOL0     C72937   6.986   3.903   6.361  0.1655 -0.6827  0.2718
  541MOL0     C72938   7.105   3.989   6.309  0.3879 -0.4494  0.1580
  541MOL0     C72939   7.237   3.918   6.298  0.2243 -0.1471  0.1443
  541MOL0     C72940   7.338   4.008   6.220  0.2724 -0.8799 -0.0454
  541MOL0     C72941   7.323   4.017   6.065 -0.0942 -0.8831  0.5226
  541MOL0     C72942   7.454   4.042   5.993 -1.4642  0.2522 -0.0552
  541MOL0     C72943   7.541   4.163   6.019  0.0668 -1.2391 -1.1528
  541MOL0     C72944   7.480   4.297   5.973  0.3227 -0.4992  0.2124
  541MOL0    Cl72945   7.507   4.320   5.796  0.0040 -0.1089 -0.2483
  541MOL0     C72946   6.877   3.683   6.519 -0.5595  0.5989  0.6357
  541MOL0     C72947   6.768   3.615   6.579  0.5372  0.1703  1.1854
  541MOL0     O72948   6.443   3.764   6.691 -0.9598 -0.4099  0.2058
  541MOL0     C72949   6.375   3.427   6.787  0.0357  0.5009 -0.0174
  541MOL0     C72950   6.264   3.339   6.817  0.4780 -0.1152 -0.9662
  541MOL0     N72951   5.676   2.894   7.362 -0.6016  0.9413 -0.2877
  541MOL0     N72952   5.710   2.865   7.490  0.7105 -0.3988  0.1543
  541MOL0     C72953   6.884   2.728   8.060 -0.7445 -0.6615 -0.0755
  541MOL0     C72954   7.023   2.719   8.038  1.0492 -0.3236  0.2101
  541MOL0     C72955   7.455   2.701   8.154  0.0436 -0.2409 -0.3835
  541MOL0     C72956   7.531   2.695   8.032 -0.0908 -0.7356 -0.6407
  541MOL0     C72957   7.661   2.659   8.026  0.4689  0.3353 -0.7435
  541MOL0     C72958   7.736   2.628   8.138  0.4959 -0.4489  0.3775
  541MOL0     O72959   7.860   2.571   8.115 -0.1811  0.2838  0.4370
  541MOL0     C72960   7.922   2.491   8.210  0.0271  0.6528 -0.3633
  541MOL0     C72961   7.855   2.355   8.251 -0.3552 -0.5512 -0.6286
  541MOL0     C72962   7.810   2.277   8.118  0.9040 -0.3714  0.4019
  541MOL0     C72963   7.902   2.163   8.059 -0.1133 -0.8861 -0.4177
  541MOL0     C72964   8.037   2.202   8.024 -1.0357  0.5736 -1.6191
  541MOL0     C72965   8.153   2.226   7.990 -0.2912 -0.2808  0.2134
  541MOL0     C72966   7.667   2.637   8.263 -0.9749 -0.9054 -0.6132
  541MOL0     C72967   7.531   2.675   8.268 -0.3087 -0.2438 -0.3952
  541MOL0     H72968   7.124   3.010   8.155  0.7127 -0.0200 -2.2344
  541MOL0     H72969   6.872   3.037   8.191  0.0987 -0.5869 -0.1713
  541MOL0     H72970   6.660   3.043   8.174 -1.0857  1.7485 -1.0753
  541MOL0     H72971   6.658   3.030   8.003  0.7530  2.5702  0.4548
  541MOL0     H72972   6.428   2.884   8.149  1.0845 -1.0314 -0.4439
  541MOL0     H72973   6.429   3.056   8.152  1.2062  0.1149  1.6686
  541MOL0     H72974   6.438   3.070   7.912  0.8557 -1.4813 -2.8676
  541MOL0     H72975   6.460   2.892   7.891  0.3823  0.5692 -1.5634
  541MOL0     H72976   6.253   2.851   7.993  0.0112 -0.2031 -0.7883
  541MOL0     H72977   6.220   3.029   7.996  1.0774  0.8792 -0.7389
  541MOL0     H72978   6.249   3.030   7.742 -0.6379  1.5903  1.0713
  541MOL0     H72979   6.258   2.850   7.752  2.4779  1.6116 -1.0976
  541MOL0     H72980   6.033   2.843   7.849 -1.0899  0.3885 -1.4465
  541MOL0     H72981   6.022   3.018   7.863  2.2449  1.9497 -0.3454
  541MOL0     H72982   6.038   3.031   7.597 -0.4327 -0.4584  0.4193
  541MOL0     H72983   6.029   2.849   7.615 -0.9326 -0.7516 -0.4877
  541MOL0     H72984   5.813   3.035   7.716 -1.7739  1.6105 -3.4753
  541MOL0     H72985   5.803   2.858   7.708 -4.2947  2.0398 -0.3844
  541MOL0     H72986   5.903   3.122   7.452  0.8507 -0.3458  0.6129
  541MOL0     H72987   5.717   2.988   7.118 -1.6241 -0.1029  0.8005
  541MOL0     H72988   5.685   3.139   7.194 -0.4881 -0.4112 -2.1931
  541MOL0     H72989   5.959   3.045   7.123  0.7787  0.4298 -1.4689
  541MOL0     H72990   5.929   3.196   7.212 -1.8376 -0.9018  0.6550
  541MOL0     H72991   5.750   3.209   6.984 -0.1990 -1.1546 -2.5786
  541MOL0     H72992   5.885   3.111   6.926  1.5366 -0.2626  1.1032
  541MOL0     H72993   5.949   3.371   7.064  0.1796 -0.6363  0.0449
  541MOL0     H72994   5.883   3.381   6.896  0.5372  0.3889 -0.2994
  541MOL0     H72995   6.027   3.557   6.863  1.1871  2.0627  0.8598
  541MOL0     H72996   6.198   3.773   6.628 -4.9000  3.8326 -1.1288
  541MOL0     H72997   6.066   3.757   6.743 -0.5096  0.0729  0.2977
  541MOL0     H72998   6.207   3.826   6.807  0.4983  1.2672 -2.3328
  541MOL0     H72999   6.667   3.840   6.811 -2.4620 -1.2508 -1.6663
  541MOL0     H73000   6.863   3.954   6.729  0.6575 -0.5374  0.5556
  541MOL0     H73001   6.994   3.814   6.297 -1.2004 -0.0599 -0.8290
  541MOL0     H73002   6.894   3.959   6.344  0.4277 -0.5375 -0.7592
  541MOL0     H73003   7.066   4.023   6.213 -3.5270  2.4418  2.4831
  541MOL0     H73004   7.109   4.080   6.370 -0.5521  0.1404 -0.6194
  541MOL0     H73005   7.230   3.820   6.249 -0.6308 -0.4661  0.8781
  541MOL0     H73006   7.267   3.895   6.401 -1.6545  1.2512  1.0592
  541MOL0     H73007   7.319   4.104   6.268  0.7711 -0.5447 -0.5052
  541MOL0     H73008   7.440   3.973   6.239  0.3012 -1.3067 -0.9384
  541MOL0     H73009   7.256   4.099   6.038  1.3030 -0.7769 -3.2405
  541MOL0     H73010   7.290   3.922   6.022  3.7516 -0.7900 -3.3629
  541MOL0     H73011   7.518   3.955   6.005  0.5049  1.6579  0.2083
  541MOL0     H73012   7.431   4.051   5.887  0.5661 -3.9565 -1.0492
  541MOL0     H73013   7.648   4.154   5.997  1.6076 -0.0815  4.2294
  541MOL0     H73014   7.549   4.178   6.127  0.2884  0.0189 -1.3232
  541MOL0     H73015   7.519   4.383   6.027 -2.2218  1.7150 -1.2393
  541MOL0     H73016   7.372   4.293   5.989 -0.0607  0.3778 -1.8520
  541MOL0     H73017   6.931   3.629   6.442  0.6657 -0.1576  1.9845
  541MOL0     H73018   6.748   3.513   6.548 -0.0817  1.4657 -3.5195
  541MOL0     H73019   6.472   3.381   6.773 -1.0974 -1.0503 -4.5989
  541MOL0     H73020   6.281   3.233   6.805  0.7609 -0.3880  1.2724
  541MOL0     H73021   6.823   2.641   8.038  0.2029 -2.0958  2.5366
  541MOL0     H73022   7.075   2.628   8.009  2.8270  0.8261 -0.3580
  541MOL0     H73023   7.483   2.714   7.937  0.5904  1.4815 -0.6065
  541MOL0     H73024   7.700   2.667   7.925  1.6060  1.1293 -0.2653
  541MOL0     H73025   8.024   2.466   8.180 -0.7387  0.2715 -2.8665
  541MOL0     H73026   7.931   2.546   8.305 -1.1809 -0.5838  0.5148
  541MOL0     H73027   7.768   2.362   8.317  0.9811 -0.7784  1.2290
  541MOL0     H73028   7.928   2.293   8.304  0.2220  2.4071  2.4161
  541MOL0     H73029   7.787   2.349   8.039  0.3638 -2.7388 -1.7347
  541MOL0     H73030   7.718   2.237   8.161  0.1634  1.7303  0.8906
  541MOL0     H73031   7.850   2.137   7.966 -0.5008  4.9235 -2.2240
  541MOL0     H73032   7.892   2.069   8.116 -3.0581 -0.6995 -0.4609
  541MOL0     H73033   8.258   2.240   7.970 -0.1871  0.6103  1.3264
  541MOL0     H73034   7.722   2.623   8.355 -2.9546 -1.8606  0.4992
  541MOL0     H73035   7.487   2.681   8.367  0.7517 -2.2499  0.2513
  542MOL0     O73036   5.518   9.765   0.424  0.9515  1.0318 -1.0085
  542MOL0     C73037   5.530   9.653   0.374  0.0115 -0.6990  0.1175
  542MOL0     O73038   5.488   9.537   0.431 -0.0907 -0.5095  0.4860
  542MOL0     C73039   5.430   9.541   0.555 -0.5571  0.7174 -0.1114
  542MOL0     C73040   5.517   9.530   0.665  1.5384  0.0923  0.1373
  542MOL0     C73041   5.462   9.534   0.793  0.5968 -0.0998 -0.1828
  542MOL0     C73042   5.327   9.545   0.811  0.2670 -0.6673 -0.0210
  542MOL0     O73043   5.280   9.546   0.944 -0.4822 -0.1998 -0.1587
  542MOL0     C73044   5.140   9.527   0.956  0.2831 -0.1556 -0.8358
  542MOL0     C73045   5.107   9.542   1.104 -0.8686 -0.0337 -0.2300
  542MOL0     C73046   4.975   9.481   1.149 -0.4989  0.3270  0.3214
  542MOL0     C73047   4.961   9.511   1.296 -0.0263  0.0849  0.4689
  542MOL0     C73048   4.834   9.442   1.360 -0.5287  0.4603 -0.4443
  542MOL0     C73049   4.849   9.297   1.357  0.1072  0.9690 -0.4411
  542MOL0     C73050   4.753   9.222   1.454  0.2907 -0.1367 -0.1119
  542MOL0     C73051   4.704   9.088   1.394 -0.3314  0.6114  0.1272
  542MOL0     N73052   4.653   8.988   1.500 -0.5201 -0.9434  0.4293
  542MOL0     C73053   4.698   8.965   1.626 -0.2394 -0.0936 -0.0768
  542MOL0     C73054   4.639   8.852   1.658 -0.2191 -0.3659  0.1078
  542MOL0     C73055   4.669   8.766   1.772 -0.5261  0.3033 -0.4636
  542MOL0     C73056   4.600   8.819   1.902 -0.6866 -0.1986 -0.7537
  542MOL0     C73057   4.614   8.717   2.012 -0.0353  0.2031 -0.3539
  542MOL0     C73058   4.499   8.729   2.111  0.3840 -0.5701 -0.8262
  542MOL0     O73059   4.366   8.705   2.051  0.3552 -0.1080  0.3220
  542MOL0     C73060   4.254   8.716   2.132  0.7460 -0.4221  0.4376
  542MOL0     C73061   4.135   8.706   2.065  0.0886  0.0824  0.3377
  542MOL0     C73062   4.015   8.719   2.141  0.6353  0.3595  0.4123
  542MOL0     C73063   3.887   8.710   2.053 -0.6644  0.4577 -0.8602
  542MOL0     C73064   4.003   8.742   2.280 -0.6000  0.1896  0.4252
  542MOL0     C73065   3.881   8.742   2.358  0.0688  0.5373  0.4742
  542MOL0     O73066   3.887   8.807   2.474 -0.1554 -0.0668  0.3529
  542MOL0     C73067   3.780   8.838   2.546 -0.7227 -0.1623 -0.2685
  542MOL0     C73068   3.797   8.850   2.684 -0.1151 -0.3392  0.3517
  542MOL0     C73069   3.696   8.893   2.772  0.1353 -0.0323 -0.3505
  542MOL0     C73070   3.581   8.946   2.723  0.6617  0.4635  0.6109
  542MOL0     O73071   3.486   8.990   2.816 -0.3829  0.0451  0.0787
  542MOL0     C73072   3.363   9.053   2.772 -0.1347  0.1052 -0.3171
  542MOL0     C73073   3.274   9.110   2.884 -1.0855  0.7233 -0.1606
  542MOL0     C73074   3.346   9.203   2.974  0.0324 -0.3412 -0.8444
  542MOL0     C73075   3.285   9.220   3.116  0.6987  0.5921  0.5199
  542MOL0     C73076   3.359   9.311   3.207  0.4785 -0.7316  0.0149
  542MOL0     C73077   3.275   9.340   3.332 -0.2015  0.1245 -0.2395
  542MOL0     C73078   3.164   9.439   3.318  0.0570 -0.0619  0.9999
  542MOL0     C73079   3.026   9.385   3.365  0.2913 -0.6880  0.5230
  542MOL0    Cl73080   2.909   9.525   3.358 -0.1714  0.0527  0.1856
  542MOL0     C73081   3.554   8.937   2.580 -0.2905  0.0559 -0.2918
  542MOL0     C73082   3.651   8.886   2.497  0.0764  0.3418 -0.4158
  542MOL0     O73083   3.785   8.672   2.322  0.6859 -0.0626 -1.0112
  542MOL0     C73084   4.126   8.765   2.346 -0.1621  0.5524  0.4866
  542MOL0     C73085   4.244   8.750   2.268  0.2598  0.6054 -0.4904
  542MOL0     N73086   4.554   8.810   1.560  1.1472  0.7051  0.0914
  542MOL0     N73087   4.570   8.889   1.461 -0.2681 -0.4079 -0.5117
  542MOL0     C73088   5.237   9.549   0.695 -0.5083  0.0023  0.2673
  542MOL0     C73089   5.293   9.541   0.567 -0.1376 -1.0513 -0.2938
  542MOL0     C73090   5.580   9.638   0.237 -0.3452  0.0589  0.5288
  542MOL0     C73091   5.618   9.746   0.155 -0.2135  0.8498 -0.1495
  542MOL0     C73092   5.660   9.731   0.014 -0.0729  0.3153 -0.2206
  542MOL0     C73093   5.669   9.607  -0.038  0.2322  0.4634  0.9462
  542MOL0     O73094   5.688   9.576  -0.169  0.2211 -0.5658  0.2358
  542MOL0     C73095   5.750   9.674  -0.258  0.9268  0.0031  0.2412
  542MOL0     C73096   5.895   9.713  -0.231 -0.3224 -0.5638  0.2392
  542MOL0     C73097   5.968   9.576  -0.194  0.6048 -1.2959  0.2043
  542MOL0     C73098   6.114   9.604  -0.129 -0.9401 -0.1716  0.7135
  542MOL0     C73099   6.188   9.709  -0.192  0.3886  0.1791 -0.2783
  542MOL0     C73100   6.251   9.796  -0.254 -0.4489 -0.4259  0.3811
  542MOL0     C73101   5.647   9.495   0.046 -1.5753  0.3421 -0.7309
  542MOL0     C73102   5.594   9.507   0.179 -0.2877 -1.4075 -0.6928
  542MOL0     H73103   5.624   9.515   0.649  1.1336 -2.7535 -0.6315
  542MOL0     H73104   5.515   9.550   0.886  0.7333  1.6551 -0.5257
  542MOL0     H73105   5.092   9.605   0.895 -1.0144 -0.6157 -0.4264
  542MOL0     H73106   5.119   9.427   0.916 -0.5268 -0.3162 -0.0294
  542MOL0     H73107   5.197   9.497   1.148  0.8055  1.1827 -2.2165
  542MOL0     H73108   5.097   9.648   1.130 -0.2669  0.0782 -0.4439
  542MOL0     H73109   4.893   9.521   1.089 -1.4308 -0.4669  1.0333
  542MOL0     H73110   4.984   9.375   1.122  1.1304  0.5411 -0.1023
  542MOL0     H73111   5.051   9.475   1.346  0.6319 -1.5329 -1.6991
  542MOL0     H73112   4.963   9.620   1.300  3.0790  0.2174 -1.2191
  542MOL0     H73113   4.829   9.473   1.465 -0.2436  0.5548 -0.4574
  542MOL0     H73114   4.743   9.488   1.320 -1.8966  0.1092  2.0949
  542MOL0     H73115   4.824   9.265   1.255 -1.3784  0.5465  0.0244
  542MOL0     H73116   4.948   9.261   1.385 -0.5651 -0.9341 -0.3273
  542MOL0     H73117   4.798   9.210   1.553  1.3178  0.6563 -0.4702
  542MOL0     H73118   4.663   9.284   1.463  1.0681  0.7519  3.0046
  542MOL0     H73119   4.774   9.035   1.328 -0.0604  2.5687 -1.2893
  542MOL0     H73120   4.621   9.124   1.331 -0.9349 -1.1077 -0.1153
  542MOL0     H73121   4.787   9.008   1.672 -1.1985  1.9645 -0.0368
  542MOL0     H73122   4.602   8.682   1.751 -1.3079  0.9089 -0.4361
  542MOL0     H73123   4.769   8.730   1.796  0.3696  2.3440 -0.9501
  542MOL0     H73124   4.495   8.845   1.892 -1.2724 -2.3996 -0.8142
  542MOL0     H73125   4.640   8.914   1.941  0.0175 -0.4003 -0.9721
  542MOL0     H73126   4.711   8.709   2.061 -0.3662 -0.5873  0.2062
  542MOL0     H73127   4.605   8.619   1.964 -0.3100  1.9309 -4.1973
  542MOL0     H73128   4.505   8.827   2.160 -1.3327 -1.1578  0.6576
  542MOL0     H73129   4.519   8.660   2.194 -2.1001  1.4012  1.6128
  542MOL0     H73130   4.125   8.695   1.957  1.2545  0.8365  0.1380
  542MOL0     H73131   3.810   8.783   2.079 -0.4263 -0.0448  1.4364
  542MOL0     H73132   3.914   8.709   1.947  2.4979 -0.7718 -0.1751
  542MOL0     H73133   3.831   8.618   2.075 -0.7792  1.0023  1.3327
  542MOL0     H73134   3.897   8.832   2.723  1.3781 -0.3171 -3.0960
  542MOL0     H73135   3.714   8.902   2.879  0.3596 -0.1739 -0.3770
  542MOL0     H73136   3.380   9.132   2.699 -0.1642  2.3764  1.9781
  542MOL0     H73137   3.303   8.971   2.731 -2.2532 -1.2198  4.6951
  542MOL0     H73138   3.191   9.164   2.836 -0.0649  3.4019  0.9009
  542MOL0     H73139   3.235   9.023   2.938  0.1983  1.0449  1.3339
  542MOL0     H73140   3.343   9.301   2.925 -0.2396  1.4251  2.4127
  542MOL0     H73141   3.452   9.178   2.989 -0.3817 -1.5415  0.3037
  542MOL0     H73142   3.177   9.239   3.115  0.0419 -2.5874  0.0032
  542MOL0     H73143   3.289   9.122   3.164 -0.6125  0.7342  0.9819
  542MOL0     H73144   3.367   9.410   3.160 -0.1077 -0.1251  1.1606
  542MOL0     H73145   3.455   9.258   3.212  1.0954  0.2634 -0.6383
  542MOL0     H73146   3.238   9.246   3.374 -1.4182 -0.0352 -1.6154
  542MOL0     H73147   3.344   9.378   3.408  0.6684  4.5253 -2.8767
  542MOL0     H73148   3.152   9.453   3.210  3.1488  0.6866  0.6418
  542MOL0     H73149   3.190   9.531   3.371  0.9667 -0.8721  1.9958
  542MOL0     H73150   3.035   9.353   3.469 -0.5278  0.6821  1.0390
  542MOL0     H73151   2.993   9.307   3.296 -1.3313  0.3178  0.1007
  542MOL0     H73152   3.462   8.976   2.538  0.6130  1.1533 -1.3245
  542MOL0     H73153   3.637   8.878   2.389  0.2209  1.2539 -0.5088
  542MOL0     H73154   4.139   8.779   2.453 -1.6729  1.8633  0.5167
  542MOL0     H73155   4.341   8.762   2.315  0.7181 -1.6138 -0.7712
  542MOL0     H73156   5.128   9.548   0.698 -0.5645 -2.6733 -0.1005
  542MOL0     H73157   5.240   9.543   0.473  0.8295  0.7371 -0.8625
  542MOL0     H73158   5.625   9.847   0.195  4.7337  1.2034 -1.2892
  542MOL0     H73159   5.682   9.820  -0.043 -1.0120  0.8555  0.2390
  542MOL0     H73160   5.749   9.634  -0.360  3.4197 -2.5937  1.0917
  542MOL0     H73161   5.685   9.762  -0.254  0.6153  0.0718 -3.2329
  542MOL0     H73162   5.892   9.776  -0.141 -0.1878 -1.6389  1.0174
  542MOL0     H73163   5.943   9.762  -0.316 -2.2312 -1.4656 -1.4359
  542MOL0     H73164   5.984   9.516  -0.284 -1.9973 -0.8917 -0.5979
  542MOL0     H73165   5.905   9.515  -0.127 -3.9148 -0.7067 -3.0536
  542MOL0     H73166   6.162   9.505  -0.131 -1.4824 -0.4330 -1.2131
  542MOL0     H73167   6.084   9.618  -0.025 -2.5496  0.4910  0.1855
  542MOL0     H73168   6.309   9.863  -0.314 -2.8921 -0.1848 -1.9232
  542MOL0     H73169   5.668   9.398   0.002  2.2517  0.9561 -0.6348
  542MOL0     H73170   5.574   9.422   0.244 -1.5519 -1.3077 -0.9215
  543MOL0     O73171   1.554   6.607   9.217 -0.1582 -0.2490 -0.5561
  543MOL0     C73172   1.563   6.727   9.200  0.8528  0.2446  0.0105
  543MOL0     O73173   1.521   6.789   9.091  0.3617  0.6508  0.5964
  543MOL0     C73174   1.485   6.721   8.976  0.0589  0.6202  0.2037
  543MOL0     C73175   1.554   6.737   8.846  0.6595  0.9212  1.2543
  543MOL0     C73176   1.511   6.655   8.734  0.1312  0.2131 -0.2176
  543MOL0     C73177   1.415   6.555   8.747  0.0439 -0.9175 -0.7148
  543MOL0     O73178   1.390   6.483   8.634 -0.3698 -0.3944 -0.4104
  543MOL0     C73179   1.287   6.379   8.634 -0.9583 -1.3414  0.2577
  543MOL0     C73180   1.271   6.305   8.506  0.2246  1.1319  0.3300
  543MOL0     C73181   1.142   6.229   8.494 -0.0978 -0.6112 -0.3182
  543MOL0     C73182   1.175   6.133   8.381  0.8252 -0.0225 -0.4545
  543MOL0     C73183   1.053   6.058   8.338  0.6668 -0.8141 -0.4995
  543MOL0     C73184   1.078   5.982   8.205  0.5795  0.4470 -0.4079
  543MOL0     C73185   1.006   5.854   8.175  0.7737  0.3866  0.6637
  543MOL0     C73186   0.851   5.879   8.158 -0.2620 -0.3656  0.3143
  543MOL0     N73187   0.799   5.739   8.134 -0.2427 -0.3616  0.7626
  543MOL0     C73188   0.787   5.649   8.231  0.8819  0.3755 -0.1480
  543MOL0     C73189   0.767   5.525   8.174 -0.0845  0.2072 -0.1010
  543MOL0     C73190   0.730   5.386   8.225 -0.6209 -0.2057  1.2151
  543MOL0     C73191   0.779   5.333   8.356 -0.7116 -0.5403 -0.6616
  543MOL0     C73192   0.925   5.326   8.375 -0.3055  0.1464 -0.7957
  543MOL0     C73193   1.004   5.261   8.267 -0.6345 -0.3770 -0.7470
  543MOL0     O73194   1.137   5.241   8.316  0.3446 -0.0955 -0.1279
  543MOL0     C73195   1.216   5.347   8.345 -0.0518 -0.4538 -0.6862
  543MOL0     C73196   1.315   5.321   8.431  0.0057  0.0071  0.0422
  543MOL0     C73197   1.426   5.408   8.443 -0.1499  0.2478  1.0381
  543MOL0     C73198   1.547   5.362   8.511 -0.6619  0.0471 -0.4885
  543MOL0     C73199   1.418   5.541   8.389 -0.7014 -0.0350 -0.3815
  543MOL0     C73200   1.513   5.654   8.411 -0.9880 -0.7818 -0.2820
  543MOL0     O73201   1.512   5.756   8.318  0.0115  0.7099  0.4302
  543MOL0     C73202   1.596   5.862   8.308 -0.1011  0.1036 -1.1274
  543MOL0     C73203   1.686   5.900   8.415 -0.6714  0.4774  0.1847
  543MOL0     C73204   1.758   6.020   8.407 -0.3166  0.4802 -0.0741
  543MOL0     C73205   1.756   6.096   8.285 -0.3776  0.2780  0.2903
  543MOL0     O73206   1.822   6.218   8.290 -0.2744  0.0195  0.6822
  543MOL0     C73207   1.941   6.232   8.215 -0.8263 -0.0745  0.0227
  543MOL0     C73208   2.030   6.343   8.279 -0.2082 -0.1445  0.3292
  543MOL0     C73209   2.094   6.303   8.414  0.1943  0.3319  0.5091
  543MOL0     C73210   2.228   6.224   8.386 -1.3832 -0.0893 -0.1959
  543MOL0     C73211   2.295   6.184   8.525  0.4046  0.3995  0.7544
  543MOL0     C73212   2.403   6.071   8.505  0.1936  0.7842  0.6859
  543MOL0     C73213   2.415   5.994   8.637 -0.6214 -0.5686 -0.0524
  543MOL0     C73214   2.497   5.867   8.630  0.2302  0.4348 -0.6510
  543MOL0    Cl73215   2.420   5.746   8.523 -0.0047 -0.2312 -0.2397
  543MOL0     C73216   1.683   6.057   8.177 -0.2808  0.0156 -0.0611
  543MOL0     C73217   1.603   5.945   8.192  0.3983  0.3740  0.9532
  543MOL0     O73218   1.590   5.644   8.506 -0.1202 -0.2235  0.0346
  543MOL0     C73219   1.301   5.578   8.326 -0.0601 -0.6483  0.3669
  543MOL0     C73220   1.205   5.475   8.292 -0.1943 -0.0458 -0.2973
  543MOL0     N73221   0.762   5.541   8.040  0.2453  0.0939  0.3326
  543MOL0     N73222   0.788   5.667   8.012  0.7296 -0.4622 -0.4523
  543MOL0     C73223   1.345   6.543   8.870  0.7028  0.1840 -0.2437
  543MOL0     C73224   1.391   6.617   8.978  0.3517 -0.5197 -0.1456
  543MOL0     C73225   1.617   6.809   9.310 -0.6429  0.3611  0.2967
  543MOL0     C73226   1.584   6.947   9.325 -0.0429 -0.2182 -0.5314
  543MOL0     C73227   1.644   7.014   9.434  0.2100  0.1502 -0.0198
  543MOL0     C73228   1.722   6.959   9.529 -0.2511 -0.4125  0.3778
  543MOL0     O73229   1.770   7.035   9.630  0.0121 -0.2489 -0.1447
  543MOL0     C73230   1.841   7.160   9.607 -0.1494  0.7797  0.7369
  543MOL0     C73231   1.956   7.173   9.707  0.1455 -0.5249 -0.4345
  543MOL0     C73232   2.076   7.074   9.681  0.3749 -0.0255  0.8158
  543MOL0     C73233   2.167   7.037   9.793 -0.6688 -0.2958 -0.3920
  543MOL0     C73234   2.253   7.144   9.844  0.4173  0.2016 -1.0084
  543MOL0     C73235   2.304   7.242   9.891  0.2495  0.2102  0.0057
  543MOL0     C73236   1.763   6.831   9.510 -0.2191  0.4748 -0.7255
  543MOL0     C73237   1.711   6.758   9.404  0.1030 -0.0633 -0.1300
  543MOL0     H73238   1.639   6.804   8.839  0.0357  1.5503 -1.3635
  543MOL0     H73239   1.567   6.657   8.641  3.5405  2.2218  1.6909
  543MOL0     H73240   1.319   6.309   8.712  0.4425 -0.0796  0.8399
  543MOL0     H73241   1.193   6.428   8.661  0.3124  0.5571  1.4493
  543MOL0     H73242   1.278   6.384   8.430  1.0135  0.8377  0.0906
  543MOL0     H73243   1.362   6.246   8.501 -0.0066  0.8199 -0.2938
  543MOL0     H73244   1.123   6.183   8.591  1.8870  0.4820  0.6521
  543MOL0     H73245   1.071   6.310   8.474 -1.8876 -1.4690  1.9961
  543MOL0     H73246   1.212   6.194   8.298 -2.1492  1.2539 -0.9575
  543MOL0     H73247   1.259   6.068   8.409  2.2802  2.0026  0.1444
  543MOL0     H73248   1.024   5.985   8.415 -2.6444  1.0540  0.2170
  543MOL0     H73249   0.984   6.140   8.320  3.4705  1.9192  0.3399
  543MOL0     H73250   1.070   6.059   8.129 -0.7480  0.4949 -0.2479
  543MOL0     H73251   1.184   5.956   8.210  1.0164  1.5645 -2.7357
  543MOL0     H73252   1.038   5.814   8.079 -3.1275 -0.7130 -0.3855
  543MOL0     H73253   1.027   5.781   8.254  0.6102 -1.8298 -1.2456
  543MOL0     H73254   0.824   5.930   8.065  2.7882 -3.6676 -2.7107
  543MOL0     H73255   0.804   5.933   8.240  0.4158 -1.7840  1.6881
  543MOL0     H73256   0.793   5.669   8.338 -0.6795 -0.5145  0.1415
  543MOL0     H73257   0.623   5.365   8.236 -0.0487 -2.1606  4.0260
  543MOL0     H73258   0.768   5.320   8.147 -1.2226  1.7404 -0.8248
  543MOL0     H73259   0.739   5.232   8.363  0.2098 -0.8576  0.2155
  543MOL0     H73260   0.728   5.396   8.429  2.5442  1.8100 -0.1814
  543MOL0     H73261   0.939   5.267   8.466 -1.7687  0.2717 -0.4737
  543MOL0     H73262   0.957   5.429   8.395 -1.4146 -0.0489  2.6232
  543MOL0     H73263   1.022   5.320   8.176  0.0120 -0.5596 -0.7414
  543MOL0     H73264   0.956   5.168   8.236  0.8011 -2.0518  1.7326
  543MOL0     H73265   1.334   5.221   8.470 -0.5184  0.9511  3.0460
  543MOL0     H73266   1.568   5.255   8.501 -0.2808 -0.0218  0.8206
  543MOL0     H73267   1.641   5.405   8.473  1.8827 -1.0191  3.9068
  543MOL0     H73268   1.544   5.387   8.618 -0.1830 -1.4537 -0.1109
  543MOL0     H73269   1.697   5.853   8.512 -1.5504  0.6740  0.3843
  543MOL0     H73270   1.816   6.056   8.491 -1.8581  0.9931  0.8102
  543MOL0     H73271   1.999   6.139   8.216  0.2207  0.5643  0.3601
  543MOL0     H73272   1.914   6.261   8.113 -0.1553  0.2538 -0.0702
  543MOL0     H73273   2.116   6.376   8.220  1.2676 -4.2092 -0.0867
  543MOL0     H73274   1.970   6.434   8.289 -0.3637 -0.5143  4.1148
  543MOL0     H73275   2.030   6.237   8.474  0.7149  0.4607  1.2143
  543MOL0     H73276   2.115   6.397   8.465 -3.5026  2.9093 -2.1998
  543MOL0     H73277   2.230   6.142   8.313  2.9079  0.9254 -1.4598
  543MOL0     H73278   2.295   6.300   8.346 -0.3949 -1.9586 -2.3253
  543MOL0     H73279   2.219   6.135   8.586  2.3422 -1.8176  1.5486
  543MOL0     H73280   2.332   6.278   8.569 -1.8748  1.1245  1.2799
  543MOL0     H73281   2.373   5.997   8.430  2.3171  0.4428  0.1064
  543MOL0     H73282   2.493   6.120   8.469 -1.7616  3.5268 -0.8227
  543MOL0     H73283   2.314   5.973   8.674 -1.5628  1.7039 -1.1228
  543MOL0     H73284   2.459   6.059   8.714 -0.8835  0.8637 -1.0792
  543MOL0     H73285   2.495   5.824   8.731  1.8649  3.1630  0.6505
  543MOL0     H73286   2.601   5.890   8.608  1.5212 -1.5411  2.6285
  543MOL0     H73287   1.677   6.110   8.082  0.8697 -0.4804 -0.4140
  543MOL0     H73288   1.533   5.917   8.114  3.6455  0.4291 -2.2519
  543MOL0     H73289   1.271   5.675   8.289 -1.1221 -0.6843  1.0776
  543MOL0     H73290   1.128   5.508   8.223  0.9054  3.7143  0.0720
  543MOL0     H73291   1.269   6.467   8.883  2.7900 -1.8275  1.0015
  543MOL0     H73292   1.343   6.589   9.071 -0.7583  3.0705  0.5273
  543MOL0     H73293   1.517   7.004   9.262 -1.0585 -0.2139  0.5138
  543MOL0     H73294   1.636   7.121   9.452 -0.0189  0.7882 -3.2549
  543MOL0     H73295   1.879   7.172   9.505 -2.4388  1.3759 -0.1081
  543MOL0     H73296   1.775   7.243   9.633 -3.3556 -1.6360  0.7913
  543MOL0     H73297   1.914   7.156   9.807  1.7104  2.0096  0.7354
  543MOL0     H73298   2.004   7.270   9.700 -0.9566 -0.0632 -2.1435
  543MOL0     H73299   2.138   7.114   9.599 -1.8603 -0.4392 -1.1760
  543MOL0     H73300   2.033   6.979   9.649 -0.1505  0.5342 -0.2114
  543MOL0     H73301   2.228   6.952   9.761 -0.6546 -0.5608  0.3290
  543MOL0     H73302   2.104   7.005   9.877  1.1192 -2.3117  0.2651
  543MOL0     H73303   2.357   7.328   9.923 -1.6862  0.6178  2.4645
  543MOL0     H73304   1.840   6.781   9.567  0.4367  0.4154 -1.6525
  543MOL0     H73305   1.739   6.654   9.412  0.7825  0.0006 -1.3265
  544MOL0     O73306   4.741   7.802   6.557 -0.2543 -0.7211 -0.2572
  544MOL0     C73307   4.658   7.859   6.626 -0.4088 -0.3546  0.5229
  544MOL0     O73308   4.558   7.939   6.577 -0.4936 -0.0602 -0.5533
  544MOL0     C73309   4.533   7.912   6.446 -0.2041  0.1091 -0.2870
  544MOL0     C73310   4.434   7.812   6.418  0.8540 -0.7191  0.8412
  544MOL0     C73311   4.405   7.782   6.289  0.2350 -0.6843  0.7129
  544MOL0     C73312   4.474   7.847   6.179  0.6802  0.0336  0.4180
  544MOL0     O73313   4.455   7.825   6.044 -0.2418 -0.6039  0.3312
  544MOL0     C73314   4.392   7.714   5.999  0.1827 -0.5012 -0.6588
  544MOL0     C73315   4.375   7.709   5.843 -0.0782 -1.3459 -0.4400
  544MOL0     C73316   4.262   7.803   5.784 -0.7815 -0.3704 -0.3683
  544MOL0     C73317   4.249   7.811   5.633 -0.9349  0.3757 -0.4032
  544MOL0     C73318   4.168   7.927   5.584 -0.3406 -0.3239  0.2323
  544MOL0     C73319   4.226   8.075   5.608  0.2202 -0.1675 -0.2583
  544MOL0     C73320   4.121   8.180   5.567 -0.0477 -0.1003 -0.3133
  544MOL0     C73321   4.117   8.291   5.657  0.5946 -0.6252  1.0839
  544MOL0     N73322   3.994   8.369   5.624 -0.3473  0.0526 -0.4293
  544MOL0     C73323   3.988   8.477   5.542 -0.1383 -0.1795 -0.2304
  544MOL0     C73324   3.856   8.502   5.529 -0.1577 -0.3850 -0.1681
  544MOL0     C73325   3.800   8.632   5.470  0.4205  0.3587 -0.1344
  544MOL0     C73326   3.779   8.737   5.578 -0.7607  0.1234 -0.2899
  544MOL0     C73327   3.917   8.776   5.641  0.1803  0.8911  0.5673
  544MOL0     C73328   3.920   8.887   5.746 -0.3520 -0.2430  0.5024
  544MOL0     O73329   3.869   9.014   5.719  0.1766  0.9920  0.1658
  544MOL0     C73330   3.736   9.027   5.668  0.1855 -0.9509  0.0394
  544MOL0     C73331   3.711   9.104   5.555 -0.1053  1.1121  0.6442
  544MOL0     C73332   3.589   9.116   5.498  0.9157 -0.3697 -0.4329
  544MOL0     C73333   3.559   9.177   5.359  0.3546  0.6461 -0.0999
  544MOL0     C73334   3.478   9.050   5.563 -0.5518 -0.0071 -0.6175
  544MOL0     C73335   3.340   9.047   5.512  0.0808  0.0531  0.4986
  544MOL0     O73336   3.246   9.088   5.598 -0.1237  0.4474 -0.1490
  544MOL0     C73337   3.122   9.117   5.536  0.0732  0.2203 -0.2538
  544MOL0     C73338   3.103   9.223   5.441  0.2677  0.2306  0.3094
  544MOL0     C73339   2.982   9.239   5.381  0.2472 -0.1122  0.1622
  544MOL0     C73340   2.872   9.173   5.425  1.3273  0.7432 -0.4766
  544MOL0     O73341   2.756   9.192   5.360 -0.0221  0.0050 -0.7230
  544MOL0     C73342   2.749   9.193   5.214 -0.3058 -0.2957 -0.3926
  544MOL0     C73343   2.606   9.202   5.155  0.1006  1.2641  0.4018
  544MOL0     C73344   2.537   9.060   5.154 -0.4194 -0.8717  0.5542
  544MOL0     C73345   2.460   9.027   5.285  0.6630 -0.1758  0.2669
  544MOL0     C73346   2.372   8.902   5.290  0.2626 -0.4337  0.6332
  544MOL0     C73347   2.309   8.889   5.429  0.7030  0.4114 -0.6488
  544MOL0     C73348   2.223   8.759   5.453  0.2863  0.3099 -0.1055
  544MOL0     C73349   2.166   8.773   5.597  0.9730 -0.3312  0.6379
  544MOL0    Cl73350   2.052   8.638   5.621  0.4161  0.1444  0.7710
  544MOL0     C73351   2.880   9.069   5.528 -0.0274 -0.1997  0.0282
  544MOL0     C73352   3.008   9.049   5.580 -0.1081  0.4214  0.5843
  544MOL0     O73353   3.314   9.003   5.405 -0.1381 -0.7478  0.6385
  544MOL0     C73354   3.506   8.987   5.685 -0.1086  0.5842 -0.7135
  544MOL0     C73355   3.631   8.977   5.740 -0.2423  0.4097 -0.6620
  544MOL0     N73356   3.782   8.417   5.612  0.1835 -0.0403  0.0567
  544MOL0     N73357   3.870   8.350   5.676 -0.7557 -0.2685 -0.3789
  544MOL0     C73358   4.561   7.946   6.209 -0.7222 -0.9640 -0.5143
  544MOL0     C73359   4.601   7.978   6.344 -0.4680 -0.6447  0.3608
  544MOL0     C73360   4.674   7.859   6.768  0.3187  0.9042 -0.4745
  544MOL0     C73361   4.570   7.926   6.846  0.0837 -0.3668 -0.2243
  544MOL0     C73362   4.584   7.932   6.982  0.9659  0.8553 -0.5794
  544MOL0     C73363   4.700   7.881   7.044  0.2339  0.3714 -0.0375
  544MOL0     O73364   4.701   7.869   7.184  0.8339 -0.1676 -0.5716
  544MOL0     C73365   4.758   7.982   7.255  0.7384 -0.6715  0.5443
  544MOL0     C73366   4.908   7.989   7.243 -0.0377  0.5412 -0.0291
  544MOL0     C73367   4.968   7.862   7.301  0.3623  0.4259 -0.9193
  544MOL0     C73368   5.118   7.858   7.308  0.1009  0.0619 -0.2102
  544MOL0     C73369   5.169   7.958   7.399 -0.2886  0.6231  0.3553
  544MOL0     C73370   5.185   8.030   7.489 -0.3932  1.1910 -0.0705
  544MOL0     C73371   4.797   7.808   6.967  0.2956 -0.4814 -0.0823
  544MOL0     C73372   4.784   7.801   6.832 -0.3374 -0.1475 -0.4254
  544MOL0     H73373   4.373   7.760   6.492 -2.0407  1.5633  0.2601
  544MOL0     H73374   4.325   7.713   6.262  1.0764 -2.6238  2.7967
  544MOL0     H73375   4.443   7.622   6.031  2.6593  0.0479 -2.6977
  544MOL0     H73376   4.294   7.722   6.047 -0.6534  2.5167 -2.5908
  544MOL0     H73377   4.473   7.738   5.805 -0.0993 -0.7862 -0.0791
  544MOL0     H73378   4.349   7.611   5.802 -0.8540 -1.1192 -0.5049
  544MOL0     H73379   4.166   7.792   5.836 -0.1438  0.2321  0.9747
  544MOL0     H73380   4.289   7.904   5.815 -2.5474  0.5624 -1.6365
  544MOL0     H73381   4.346   7.810   5.583 -0.3104 -1.1156  0.7435
  544MOL0     H73382   4.205   7.718   5.597 -0.0106  0.9862 -3.3136
  544MOL0     H73383   4.157   7.904   5.478 -0.8546 -0.9129  0.4115
  544MOL0     H73384   4.069   7.932   5.629 -0.0069  1.8227  0.8503
  544MOL0     H73385   4.251   8.097   5.712  0.6343 -0.3382 -0.3167
  544MOL0     H73386   4.315   8.084   5.544  0.8342  3.3774  0.8800
  544MOL0     H73387   4.151   8.226   5.472  0.1878  4.5964  1.7224
  544MOL0     H73388   4.018   8.143   5.559  0.1768 -0.8413  0.1948
  544MOL0     H73389   4.205   8.355   5.644  0.6647 -0.8731  0.3517
  544MOL0     H73390   4.111   8.257   5.761 -1.1234  1.5848  1.8102
  544MOL0     H73391   4.065   8.543   5.505 -0.1227 -1.6753 -3.2391
  544MOL0     H73392   3.872   8.660   5.392 -3.7105  0.9239 -4.2008
  544MOL0     H73393   3.708   8.609   5.416 -0.0045  2.5989 -0.4857
  544MOL0     H73394   3.715   8.701   5.659  0.7599  0.6882  1.2261
  544MOL0     H73395   3.739   8.820   5.519  3.4280  3.3775  0.9026
  544MOL0     H73396   3.998   8.804   5.572  2.0953 -1.8357  1.5069
  544MOL0     H73397   3.957   8.689   5.694  3.3658  2.0524  0.2886
  544MOL0     H73398   4.025   8.897   5.775 -0.4105  1.2474  0.3134
  544MOL0     H73399   3.874   8.857   5.841  2.0656 -1.2515  1.4264
  544MOL0     H73400   3.782   9.153   5.489 -1.6191  3.3610  0.5493
  544MOL0     H73401   3.478   9.250   5.366  0.5207  1.0455 -1.8453
  544MOL0     H73402   3.646   9.227   5.315  1.0712  0.2660  0.8417
  544MOL0     H73403   3.519   9.095   5.299 -2.2475 -0.3561  2.7558
  544MOL0     H73404   3.193   9.271   5.405 -0.4649  0.7468 -0.9088
  544MOL0     H73405   2.975   9.328   5.319  0.9556  0.1635  0.4548
  544MOL0     H73406   2.813   9.274   5.177  1.6486 -1.6894 -0.1953
  544MOL0     H73407   2.802   9.101   5.186 -0.6998 -0.6350 -0.0310
  544MOL0     H73408   2.545   9.262   5.223 -2.6395 -2.6811  1.8002
  544MOL0     H73409   2.620   9.237   5.053 -1.1776 -0.4080 -0.4006
  544MOL0     H73410   2.614   8.986   5.130  1.8921  1.8517 -0.8601
  544MOL0     H73411   2.466   9.058   5.071  0.4971 -1.2331 -0.2449
  544MOL0     H73412   2.526   9.027   5.372 -0.0213  1.3596  0.8297
  544MOL0     H73413   2.397   9.113   5.307  1.7866  0.1110  2.6674
  544MOL0     H73414   2.427   8.811   5.266  0.8375 -0.0021  0.2829
  544MOL0     H73415   2.283   8.915   5.227 -0.5362  1.9597  2.0858
  544MOL0     H73416   2.386   8.884   5.507 -1.4082 -0.9475  1.4574
  544MOL0     H73417   2.253   8.982   5.442  2.6824  1.5574  0.3100
  544MOL0     H73418   2.285   8.669   5.457  0.7631  0.6710  2.9167
  544MOL0     H73419   2.135   8.763   5.389 -1.2712  1.2974  1.9579
  544MOL0     H73420   2.118   8.871   5.603 -0.5582 -0.6220 -3.7597
  544MOL0     H73421   2.248   8.758   5.668  1.3344 -2.6020 -0.1881
  544MOL0     H73422   2.787   9.026   5.563 -1.0399  2.8173  1.3796
  544MOL0     H73423   3.012   8.992   5.672  1.0380  0.2136  0.4164
  544MOL0     H73424   3.420   8.941   5.732 -1.8877  2.3576 -2.0697
  544MOL0     H73425   3.661   8.932   5.834  1.7568 -0.2467 -1.5756
  544MOL0     H73426   4.623   8.005   6.142  3.0336 -0.0783  3.2998
  544MOL0     H73427   4.670   8.049   6.389 -1.2439 -1.4825  3.0493
  544MOL0     H73428   4.479   7.958   6.797 -1.9118 -1.1195  2.7295
  544MOL0     H73429   4.507   7.974   7.047 -0.4746 -0.4372 -1.3765
  544MOL0     H73430   4.724   8.084   7.235  1.2129 -0.6581 -0.2377
  544MOL0     H73431   4.721   7.966   7.357  1.5526  0.5397  1.0540
  544MOL0     H73432   4.946   8.080   7.291  1.1738 -1.7238  3.7171
  544MOL0     H73433   4.923   7.999   7.135  1.7053  1.5702  0.2668
  544MOL0     H73434   4.942   7.797   7.217 -0.4665  1.0124 -1.1323
  544MOL0     H73435   4.917   7.853   7.397 -0.1029  0.5515 -1.1517
  544MOL0     H73436   5.157   7.868   7.206 -2.8706  0.4450 -1.4177
  544MOL0     H73437   5.158   7.762   7.342 -1.9671 -0.4777  0.8399
  544MOL0     H73438   5.200   8.094   7.573  0.6472  0.4189  0.3566
  544MOL0     H73439   4.880   7.763   7.020  0.6789 -0.3952 -0.5995
  544MOL0     H73440   4.863   7.753   6.775  0.2316 -0.8514  0.9167
  545MOL0     O73441  11.097   7.791   8.880 -0.7286  0.2734 -0.3592
  545MOL0     C73442  11.086   7.707   8.969 -0.1833 -0.6544  0.1978
  545MOL0     O73443  10.966   7.662   9.023  0.0200  0.2539  0.2522
  545MOL0     C73444  10.851   7.732   9.018  0.0468 -0.6787  0.7399
  545MOL0     C73445  10.834   7.868   9.007 -0.0961 -0.9626 -0.2343
  545MOL0     C73446  10.706   7.921   8.998  0.2031 -0.3419 -0.2019
  545MOL0     C73447  10.590   7.850   8.970  0.5247  0.0792 -0.2213
  545MOL0     O73448  10.460   7.900   8.949 -0.5932 -0.6381 -0.0876
  545MOL0     C73449  10.417   7.987   9.048 -0.0265  0.2549 -0.3719
  545MOL0     C73450  10.284   8.049   9.009 -0.0815 -0.5651 -0.5239
  545MOL0     C73451  10.175   7.936   8.995  0.0926  0.5421  0.3911
  545MOL0     C73452  10.038   7.993   8.966  0.0821 -0.3800  0.6967
  545MOL0     C73453   9.929   7.899   8.979  0.0663  0.5409 -0.2607
  545MOL0     C73454   9.797   7.959   8.928 -0.1096  0.0960 -0.7819
  545MOL0     C73455   9.745   8.064   9.030  0.0357  0.1500  0.2197
  545MOL0     C73456   9.598   8.071   9.012  0.2429  0.8819 -1.0666
  545MOL0     N73457   9.543   8.195   9.061  0.2746 -0.3398 -0.4392
  545MOL0     C73458   9.545   8.248   9.191 -0.6672 -0.7274  0.1038
  545MOL0     C73459   9.498   8.374   9.177 -0.0592 -0.1718 -0.0531
  545MOL0     C73460   9.483   8.478   9.288 -0.1699  0.6601 -0.9302
  545MOL0     C73461   9.418   8.610   9.233 -0.3109  0.3889  0.3726
  545MOL0     C73462   9.384   8.708   9.334  0.2247 -0.3757  0.1159
  545MOL0     C73463   9.325   8.841   9.287 -1.2538  0.2205 -0.3071
  545MOL0     O73464   9.205   8.808   9.227 -0.2276  0.7711  0.0456
  545MOL0     C73465   9.118   8.902   9.196 -0.0076  0.0546  0.2579
  545MOL0     C73466   9.145   9.032   9.182  0.4711  0.1734 -0.7415
  545MOL0     C73467   9.055   9.123   9.126  0.1875  0.0088  0.2060
  545MOL0     C73468   9.094   9.269   9.117  0.0500  1.1339  0.2922
  545MOL0     C73469   8.926   9.079   9.081  0.0337 -0.7434  0.5507
  545MOL0     C73470   8.816   9.158   9.034  0.6386  0.2338  0.2599
  545MOL0     O73471   8.730   9.105   8.941  0.1468  1.3098 -0.2057
  545MOL0     C73472   8.641   9.180   8.879  0.5609 -0.4230  0.4892
  545MOL0     C73473   8.499   9.162   8.887  0.2967  0.1486 -0.2860
  545MOL0     C73474   8.406   9.224   8.804 -1.0828 -0.3321 -0.1936
  545MOL0     C73475   8.454   9.300   8.704 -0.1846  0.0046  0.7896
  545MOL0     O73476   8.354   9.357   8.624 -0.2252 -0.1632  0.1652
  545MOL0     C73477   8.383   9.406   8.492 -0.0900 -0.3209  0.1437
  545MOL0     C73478   8.260   9.469   8.415 -0.4295 -0.9351  0.1636
  545MOL0     C73479   8.137   9.371   8.413 -0.6628 -0.3582 -0.0715
  545MOL0     C73480   8.183   9.227   8.380 -0.6108  0.1836 -0.7408
  545MOL0     C73481   8.057   9.134   8.389 -0.4648  0.2204  0.0872
  545MOL0     C73482   8.098   9.011   8.309 -0.2941  0.2749 -0.2870
  545MOL0     C73483   8.005   8.897   8.326  0.1871 -0.2983  0.2155
  545MOL0     C73484   8.019   8.792   8.216 -0.6462 -0.1903  0.4801
  545MOL0    Cl73485   7.889   8.673   8.251  0.1794 -0.3210 -0.2805
  545MOL0     C73486   8.596   9.327   8.699  0.0745  0.1321  0.0097
  545MOL0     C73487   8.686   9.268   8.780 -0.2924  0.3735 -0.5084
  545MOL0     O73488   8.803   9.273   9.083  0.4522  0.4880 -0.2949
  545MOL0     C73489   8.889   8.947   9.112  0.9009 -0.6845 -0.7146
  545MOL0     C73490   8.980   8.858   9.177 -0.6065 -0.0720  0.5596
  545MOL0     N73491   9.485   8.409   9.043 -0.4454 -0.6456  0.1794
  545MOL0     N73492   9.513   8.301   8.977  0.6195  0.0524  0.3885
  545MOL0     C73493  10.610   7.713   8.963  0.9861  0.3578  0.2610
  545MOL0     C73494  10.732   7.652   8.989  0.8829 -1.0922 -0.8378
  545MOL0     C73495  11.209   7.659   9.019 -0.0793  0.6913  0.3515
  545MOL0     C73496  11.336   7.693   8.964 -0.3919 -0.0306  0.4772
  545MOL0     C73497  11.457   7.647   9.026 -0.3871 -0.0648 -0.0756
  545MOL0     C73498  11.452   7.544   9.126 -0.4438  0.2625 -0.2253
  545MOL0     O73499  11.567   7.496   9.178  0.3437  0.4471 -0.6126
  545MOL0     C73500  11.567   7.357   9.186  0.2754  0.1932 -0.1933
  545MOL0     C73501  11.712   7.318   9.188  0.2845  0.1904 -0.5621
  545MOL0     C73502  11.792   7.324   9.065 -0.4728 -0.3096  0.0931
  545MOL0     C73503  11.794   7.195   8.972  0.1732 -0.4256  0.3264
  545MOL0     C73504  11.665   7.148   8.926  0.2574 -0.2926  0.5548
  545MOL0     C73505  11.559   7.106   8.889 -0.0488 -0.0673 -0.2229
  545MOL0     C73506  11.330   7.509   9.173 -0.6328  0.1069  0.3213
  545MOL0     C73507  11.208   7.563   9.121 -0.1267 -0.0957 -0.0600
  545MOL0     H73508  10.917   7.939   9.005 -1.8446  1.1766 -1.1961
  545MOL0     H73509  10.699   8.028   9.012 -1.0770 -0.2992 -1.0050
  545MOL0     H73510  10.412   7.934   9.143  0.9866 -1.1927 -1.0721
  545MOL0     H73511  10.479   8.077   9.057 -2.2417  1.5670  4.3935
  545MOL0     H73512  10.260   8.126   9.083  1.6483 -1.0071  0.5511
  545MOL0     H73513  10.293   8.098   8.911  0.0626  1.4336  0.4442
  545MOL0     H73514  10.204   7.862   8.920  2.6876  1.0198  0.8283
  545MOL0     H73515  10.178   7.884   9.091  0.5098  0.1017  0.1424
  545MOL0     H73516  10.020   8.075   9.038 -0.2383  1.4217 -1.3295
  545MOL0     H73517  10.029   8.055   8.877  2.6707  1.2761  1.4858
  545MOL0     H73518   9.940   7.803   8.929  0.8057  0.5671 -0.1547
  545MOL0     H73519   9.916   7.862   9.081  2.1760 -0.8502 -0.4367
  545MOL0     H73520   9.813   8.007   8.832 -3.3435 -3.1122 -3.2033
  545MOL0     H73521   9.730   7.873   8.915 -0.2659  0.2138 -0.7532
  545MOL0     H73522   9.778   8.029   9.128  3.5691  0.7563 -0.6189
  545MOL0     H73523   9.779   8.167   9.010 -2.4688  0.9029 -0.5479
  545MOL0     H73524   9.551   7.987   9.064  4.5257  0.1005  2.0514
  545MOL0     H73525   9.581   8.055   8.905  1.3431  1.8182 -1.3999
  545MOL0     H73526   9.569   8.208   9.288 -3.3873  2.1915  2.1944
  545MOL0     H73527   9.431   8.423   9.367  2.1553 -2.3487 -1.2949
  545MOL0     H73528   9.579   8.509   9.330  0.0322  1.3267 -1.8458
  545MOL0     H73529   9.321   8.577   9.195 -1.9348  1.7374  3.0597
  545MOL0     H73530   9.479   8.650   9.151 -0.6248 -0.7524 -0.4457
  545MOL0     H73531   9.475   8.726   9.390 -0.3165  2.4454  0.2334
  545MOL0     H73532   9.309   8.656   9.395  0.7341 -1.3922 -0.1083
  545MOL0     H73533   9.395   8.894   9.221  3.9881 -1.3019  3.3538
  545MOL0     H73534   9.304   8.903   9.374 -0.5509  0.1529 -0.0800
  545MOL0     H73535   9.243   9.072   9.208  2.9906 -6.6101  2.8681
  545MOL0     H73536   9.073   9.311   9.216 -1.0757 -2.6925  1.8740
  545MOL0     H73537   9.198   9.285   9.088  0.1491 -0.1281 -0.1394
  545MOL0     H73538   9.035   9.321   9.041 -0.5013  0.4845  0.2671
  545MOL0     H73539   8.452   9.103   8.965  0.9737 -0.4508 -0.3241
  545MOL0     H73540   8.302   9.211   8.831 -1.0670  0.6135  0.3411
  545MOL0     H73541   8.452   9.490   8.498 -1.4459  0.8546 -0.2412
  545MOL0     H73542   8.433   9.327   8.434  2.5043  0.0041  1.7328
  545MOL0     H73543   8.226   9.566   8.450  0.8290  1.5876 -4.6707
  545MOL0     H73544   8.297   9.495   8.315 -0.7190  1.4833  0.6428
  545MOL0     H73545   8.057   9.414   8.352  0.1980  3.2940  1.1395
  545MOL0     H73546   8.097   9.357   8.514  0.7887  0.1760  0.5976
  545MOL0     H73547   8.232   9.220   8.282  0.7128 -3.4456  0.0494
  545MOL0     H73548   8.261   9.201   8.451 -1.0555  0.7174 -0.0378
  545MOL0     H73549   7.964   9.180   8.353 -2.0646 -0.6322  2.8005
  545MOL0     H73550   8.042   9.097   8.491  5.9856  2.7897  2.4708
  545MOL0     H73551   8.118   9.034   8.204  2.0048 -0.4145 -0.0663
  545MOL0     H73552   8.199   8.977   8.335 -1.1859 -2.1962  0.1489
  545MOL0     H73553   7.904   8.938   8.326  1.0136  1.9766  2.3133
  545MOL0     H73554   8.013   8.834   8.416 -2.2097 -2.4586 -0.9570
  545MOL0     H73555   8.114   8.739   8.213 -0.7387 -0.5431  2.5393
  545MOL0     H73556   8.009   8.844   8.120  2.0165 -0.6976 -0.1242
  545MOL0     H73557   8.637   9.391   8.621  0.8011  0.2931  0.5200
  545MOL0     H73558   8.793   9.279   8.763 -0.0478 -3.4862 -2.6775
  545MOL0     H73559   8.785   8.915   9.111 -0.3339  2.9592 -1.0471
  545MOL0     H73560   8.951   8.758   9.208 -1.2827  0.7989  2.9961
  545MOL0     H73561  10.523   7.656   8.932 -0.2102  0.8479  2.4676
  545MOL0     H73562  10.738   7.545   8.974 -3.5892 -1.9119  1.4362
  545MOL0     H73563  11.345   7.759   8.879  0.4341 -1.6963 -0.7783
  545MOL0     H73564  11.547   7.693   8.988 -0.7595  0.8591  0.1269
  545MOL0     H73565  11.514   7.318   9.273  0.7207  1.6242  0.7527
  545MOL0     H73566  11.519   7.308   9.101 -0.7503  0.7545  0.0442
  545MOL0     H73567  11.713   7.220   9.238 -0.7192 -0.3025 -1.4500
  545MOL0     H73568  11.759   7.387   9.259 -1.4371 -0.0983  0.9431
  545MOL0     H73569  11.897   7.342   9.092  0.0455 -1.5523 -0.9638
  545MOL0     H73570  11.754   7.410   9.010 -3.2438 -0.8039  1.0917
  545MOL0     H73571  11.838   7.110   9.026 -2.3678 -2.9584 -1.3032
  545MOL0     H73572  11.847   7.212   8.878 -2.6035  1.7662 -0.9806
  545MOL0     H73573  11.458   7.092   8.855  0.0489 -0.9312 -0.1790
  545MOL0     H73574  11.341   7.437   9.254 -1.6787 -2.1852 -1.4627
  545MOL0     H73575  11.116   7.516   9.155  0.2790 -1.8029 -1.1772
  546MOL0     O73576   9.067   8.298   4.977  0.0892 -0.2886  0.2084
  546MOL0     C73577   9.040   8.277   5.095  0.4343 -0.0777 -0.0930
  546MOL0     O73578   8.992   8.161   5.144 -0.2498  0.5322  0.4501
  546MOL0     C73579   8.936   8.081   5.047  0.7370  0.3919 -0.2352
  546MOL0     C73580   9.001   7.970   5.000  0.0739 -0.4009  0.7083
  546MOL0     C73581   8.944   7.872   4.915 -0.0022 -0.1102 -0.4444
  546MOL0     C73582   8.815   7.911   4.871  0.5219  0.6204 -0.2420
  546MOL0     O73583   8.739   7.836   4.785  0.3473 -0.2951  0.4163
  546MOL0     C73584   8.747   7.696   4.794 -0.3619 -0.1418 -0.2315
  546MOL0     C73585   8.642   7.642   4.712  0.2492  0.2594 -0.2969
  546MOL0     C73586   8.503   7.699   4.752 -1.1145 -0.4955  0.2280
  546MOL0     C73587   8.459   7.834   4.674 -0.2927  1.0070 -0.3691
  546MOL0     C73588   8.310   7.844   4.692  0.3189  0.6688  0.1630
  546MOL0     C73589   8.251   7.865   4.828  0.0645  0.1799 -0.5729
  546MOL0     C73590   8.301   7.974   4.927  0.0019  1.4466 -0.1983
  546MOL0     C73591   8.339   8.107   4.849 -0.5280  0.4271  0.1912
  546MOL0     N73592   8.359   8.233   4.938 -0.4917  0.0480  0.0406
  546MOL0     C73593   8.431   8.252   5.051 -0.3729  0.7739  0.6420
  546MOL0     C73594   8.396   8.378   5.089 -0.5161  0.0096 -0.0112
  546MOL0     C73595   8.467   8.446   5.209  0.0832 -0.1254  0.9571
  546MOL0     C73596   8.546   8.569   5.164 -0.1690  0.7317 -0.9904
  546MOL0     C73597   8.671   8.593   5.257  0.3644  0.6121 -0.7669
  546MOL0     C73598   8.634   8.662   5.403 -0.5435  0.6044 -0.0230
  546MOL0     O73599   8.518   8.613   5.469  0.3869  0.6156 -0.0784
  546MOL0     C73600   8.513   8.613   5.609 -0.5162  0.3166 -0.4321
  546MOL0     C73601   8.595   8.680   5.699  0.0342 -0.6548 -0.2144
  546MOL0     C73602   8.582   8.675   5.839  0.1546  0.7820  0.2296
  546MOL0     C73603   8.676   8.759   5.915 -0.0378  0.0418  0.4118
  546MOL0     C73604   8.465   8.606   5.891 -0.4801  0.0400  0.2767
  546MOL0     C73605   8.436   8.609   6.039  0.3242 -0.4428 -0.8855
  546MOL0     O73606   8.339   8.530   6.087 -0.0118 -0.1566  0.0263
  546MOL0     C73607   8.301   8.517   6.220  0.5657  0.2712 -0.2879
  546MOL0     C73608   8.240   8.400   6.258  0.5087  0.7086 -0.3324
  546MOL0     C73609   8.213   8.377   6.394  0.4790 -0.8699 -0.6563
  546MOL0     C73610   8.230   8.473   6.496 -0.0787  0.4229  0.3369
  546MOL0     O73611   8.196   8.446   6.633 -0.6835 -0.1720  0.6038
  546MOL0     C73612   8.060   8.485   6.657 -0.6100 -0.5541  0.5480
  546MOL0     C73613   7.961   8.377   6.603 -0.3066 -0.6000  0.6217
  546MOL0     C73614   7.820   8.389   6.663 -0.4505 -0.6304  0.8363
  546MOL0     C73615   7.792   8.338   6.806  0.3695 -0.1014  0.4575
  546MOL0     C73616   7.642   8.325   6.827 -0.3318 -0.2958 -1.1417
  546MOL0     C73617   7.609   8.265   6.960 -0.2886  0.1589 -0.0196
  546MOL0     C73618   7.464   8.219   6.969 -0.2553 -0.0441  0.1897
  546MOL0     C73619   7.445   8.142   7.096  0.5284 -0.0982  0.0110
  546MOL0    Cl73620   7.273   8.132   7.122 -0.4653 -0.7194 -0.2552
  546MOL0     C73621   8.293   8.599   6.456  0.9975  0.1549  0.3958
  546MOL0     C73622   8.326   8.614   6.320  0.1462  0.1485 -0.7077
  546MOL0     O73623   8.512   8.671   6.111 -1.2397  0.5251 -0.6240
  546MOL0     C73624   8.378   8.537   5.795  0.9124 -0.5339 -0.5362
  546MOL0     C73625   8.404   8.542   5.659 -0.5101  0.1961 -0.3645
  546MOL0     N73626   8.304   8.425   5.002  0.3361 -0.1772  0.3510
  546MOL0     N73627   8.289   8.347   4.905 -0.1152 -0.2485 -0.1527
  546MOL0     C73628   8.755   8.025   4.918  0.3653  0.6167  0.6421
  546MOL0     C73629   8.803   8.104   5.015  0.5726  0.9299  0.4394
  546MOL0     C73630   9.045   8.389   5.188  0.4695 -0.5182  0.5259
  546MOL0     C73631   9.068   8.521   5.141  0.0182  0.1388 -0.6544
  546MOL0     C73632   9.084   8.629   5.224 -0.5680  0.0445  0.1396
  546MOL0     C73633   9.067   8.606   5.367 -0.3649  0.2426  0.3877
  546MOL0     O73634   9.095   8.690   5.466 -0.0128 -0.1984  0.0918
  546MOL0     C73635   9.123   8.830   5.434 -0.1324 -0.1039 -0.3457
  546MOL0     C73636   9.148   8.911   5.562  0.0718 -0.2321 -0.2313
  546MOL0     C73637   9.028   8.927   5.649  0.2706  0.1777  0.1527
  546MOL0     C73638   9.056   8.956   5.797  0.8825  1.5748  0.2172
  546MOL0     C73639   9.117   9.084   5.814 -1.1587 -0.0389 -0.2823
  546MOL0     C73640   9.175   9.189   5.843  0.6188 -0.2647 -0.2132
  546MOL0     C73641   9.017   8.481   5.409 -0.3217 -0.3029  0.3985
  546MOL0     C73642   9.004   8.376   5.323  0.5349  0.2431 -0.5145
  546MOL0     H73643   9.101   7.943   5.032 -0.0547 -1.1950  0.4696
  546MOL0     H73644   8.988   7.776   4.887  0.8888  0.8848 -2.6763
  546MOL0     H73645   8.843   7.666   4.752 -0.1846  2.6286 -2.0351
  546MOL0     H73646   8.734   7.680   4.902 -3.1494  3.4299  0.1562
  546MOL0     H73647   8.666   7.632   4.605  1.4267 -1.0381  0.0645
  546MOL0     H73648   8.640   7.534   4.731  0.1177 -0.4697 -3.7363
  546MOL0     H73649   8.427   7.624   4.728 -0.5590 -1.5130  1.5130
  546MOL0     H73650   8.498   7.725   4.858 -4.1518 -1.0175  0.2948
  546MOL0     H73651   8.495   7.921   4.729  1.9357  0.6910 -1.2203
  546MOL0     H73652   8.495   7.845   4.571  1.7276  2.2235  0.4049
  546MOL0     H73653   8.277   7.923   4.625  0.0764 -0.8514 -1.5819
  546MOL0     H73654   8.269   7.749   4.659  5.2921 -1.0107 -2.2684
  546MOL0     H73655   8.143   7.873   4.812  0.0828 -2.1903 -2.3875
  546MOL0     H73656   8.267   7.769   4.877  0.9286  0.1250 -0.9578
  546MOL0     H73657   8.223   7.978   5.004  0.3446 -1.0051  0.3818
  546MOL0     H73658   8.391   7.940   4.980 -0.4834  0.2193 -0.1349
  546MOL0     H73659   8.255   8.125   4.780  0.8049  0.2888 -1.5369
  546MOL0     H73660   8.415   8.097   4.771 -2.5282 -2.2937 -1.6285
  546MOL0     H73661   8.497   8.175   5.091 -1.7452 -0.9649 -0.3147
  546MOL0     H73662   8.385   8.488   5.269  0.7668  0.9074  1.1909
  546MOL0     H73663   8.527   8.376   5.267 -0.5909 -0.3331  1.4153
  546MOL0     H73664   8.497   8.666   5.150 -0.3227  0.7003 -0.6560
  546MOL0     H73665   8.585   8.540   5.065  2.2786 -0.0003  0.1090
  546MOL0     H73666   8.748   8.652   5.207 -0.2456  1.7525 -0.3835
  546MOL0     H73667   8.711   8.495   5.285 -1.8998 -0.6943 -1.7391
  546MOL0     H73668   8.625   8.768   5.377  0.6528  0.1085 -2.8558
  546MOL0     H73669   8.730   8.653   5.455 -0.9386  1.7720  0.9726
  546MOL0     H73670   8.673   8.743   5.659 -0.0768  2.3161  3.6587
  546MOL0     H73671   8.627   8.831   5.980 -0.9264  0.6690 -0.9079
  546MOL0     H73672   8.727   8.691   5.984 -1.4112  1.0242  2.5051
  546MOL0     H73673   8.754   8.798   5.849  0.6801 -1.3140  0.4149
  546MOL0     H73674   8.219   8.318   6.191 -0.1016 -0.9133  1.7149
  546MOL0     H73675   8.183   8.278   6.428  0.5197 -0.2840  1.2134
  546MOL0     H73676   8.038   8.497   6.763 -2.0361 -0.5898  0.2663
  546MOL0     H73677   8.036   8.575   6.599  0.4059 -1.3699 -1.2473
  546MOL0     H73678   7.954   8.382   6.494  0.5892 -3.0592  0.3814
  546MOL0     H73679   8.004   8.281   6.633  2.9715  1.4811  3.3046
  546MOL0     H73680   7.752   8.339   6.595  2.7342 -1.5896 -1.9049
  546MOL0     H73681   7.777   8.490   6.657 -0.9848 -0.9392 -1.3359
  546MOL0     H73682   7.846   8.244   6.816  1.4789  0.3312 -1.1615
  546MOL0     H73683   7.821   8.410   6.884  0.3095  0.8302 -0.3628
  546MOL0     H73684   7.592   8.262   6.753 -0.5733 -0.7757 -0.5766
  546MOL0     H73685   7.606   8.428   6.814 -1.1738 -0.6391 -1.6318
  546MOL0     H73686   7.676   8.182   6.983  1.8332  1.4211 -1.3160
  546MOL0     H73687   7.630   8.339   7.037 -0.6952  1.2701 -0.9482
  546MOL0     H73688   7.431   8.161   6.883 -2.1161 -0.9641  1.4498
  546MOL0     H73689   7.402   8.309   6.973  1.4359  1.1758  0.4331
  546MOL0     H73690   7.496   8.201   7.172  1.3739  1.5583 -1.7660
  546MOL0     H73691   7.480   8.038   7.105  1.6259  0.3293  0.9139
  546MOL0     H73692   8.308   8.676   6.531  0.7898  2.2920 -1.6539
  546MOL0     H73693   8.376   8.707   6.295 -0.1326 -0.1196 -2.4245
  546MOL0     H73694   8.288   8.485   5.828  0.4455  1.4848  1.5650
  546MOL0     H73695   8.337   8.507   5.582 -1.0761  2.4579 -0.9771
  546MOL0     H73696   8.660   8.064   4.881 -0.3312  1.6013  3.2403
  546MOL0     H73697   8.743   8.185   5.055 -2.5965 -1.8607  1.8299
  546MOL0     H73698   9.079   8.539   5.034  0.1683 -1.4113 -0.9230
  546MOL0     H73699   9.107   8.732   5.198 -2.3852  1.0877  2.2832
  546MOL0     H73700   9.217   8.828   5.378 -0.9837  2.8149 -2.0386
  546MOL0     H73701   9.038   8.870   5.379 -0.5242 -0.7637 -0.2330
  546MOL0     H73702   9.196   9.007   5.543  0.5195  0.3552  3.1853
  546MOL0     H73703   9.224   8.860   5.622  0.6521 -1.1736 -1.7068
  546MOL0     H73704   8.968   8.836   5.643  2.2375 -1.1056 -0.9948
  546MOL0     H73705   8.965   9.011   5.617  0.7903  1.2815  1.9081
  546MOL0     H73706   9.123   8.879   5.837  0.3722  0.8351 -0.3187
  546MOL0     H73707   8.959   8.960   5.848  0.3696 -3.3734  0.1633
  546MOL0     H73708   9.209   9.287   5.871  1.1201 -0.7078  0.7783
  546MOL0     H73709   8.993   8.455   5.511 -0.9448 -3.0695 -0.3863
  546MOL0     H73710   8.963   8.288   5.373  1.6823  1.1081  2.1242
  547MOL0     O73711   7.926  10.727   0.671 -0.6763  0.4183 -0.3539
  547MOL0     C73712   7.981  10.758   0.767  0.3427  0.3412 -0.1039
  547MOL0     O73713   7.934  10.840   0.866  0.4976 -0.0001 -0.0425
  547MOL0     C73714   7.795  10.872   0.888 -0.2172  0.5854  0.0294
  547MOL0     C73715   7.680  10.835   0.800 -1.0256 -0.9296  0.0820
  547MOL0     C73716   7.557  10.881   0.843 -0.4419  0.4120  0.0513
  547MOL0     C73717   7.530  10.952   0.958 -0.3345  0.1912  0.1074
  547MOL0     O73718   7.416  11.005   0.973  0.8279  0.6391  0.1317
  547MOL0     C73719   7.286  10.954   0.927  0.2797  0.2482  0.5915
  547MOL0     C73720   7.168  11.052   0.966 -0.2807 -0.7176 -0.4422
  547MOL0     C73721   7.039  11.036   0.877 -0.1654  0.3482 -0.8777
  547MOL0     C73722   6.964  10.900   0.895 -0.1920 -0.0828  0.0145
  547MOL0     C73723   6.907  10.865   1.034 -0.2446 -0.4733  0.3116
  547MOL0     C73724   6.807  10.971   1.084  0.9428 -0.6315  0.3154
  547MOL0     C73725   6.722  10.914   1.200 -0.4709  0.5747  0.7855
  547MOL0     C73726   6.598  11.004   1.205 -0.8042 -0.0414 -0.6148
  547MOL0     N73727   6.475  10.940   1.259 -0.2402 -0.3412 -0.0931
  547MOL0     C73728   6.419  10.819   1.210  0.4076 -1.0109  0.0189
  547MOL0     C73729   6.322  10.801   1.310 -0.6272 -0.1150 -0.0583
  547MOL0     C73730   6.213  10.710   1.306  0.1598 -0.4771  0.0376
  547MOL0     C73731   6.132  10.755   1.180  0.9232 -0.0456  0.2651
  547MOL0     C73732   6.057  10.891   1.193 -0.9454 -0.4630 -1.2055
  547MOL0     C73733   5.972  10.914   1.080  0.6677 -0.8599 -0.1530
  547MOL0     O73734   5.865  11.018   1.108 -0.9660  0.2711  0.2251
  547MOL0     C73735   5.737  10.982   1.140 -0.8609 -0.2161  0.5725
  547MOL0     C73736   5.677  10.860   1.115  0.5375  0.8339  0.5323
  547MOL0     C73737   5.548  10.836   1.164 -0.4924 -0.4866  0.5259
  547MOL0     C73738   5.503  10.702   1.136 -0.3142  0.4651  0.2531
  547MOL0     C73739   5.476  10.933   1.229 -0.9552 -0.6195 -0.3492
  547MOL0     C73740   5.333  10.919   1.284 -1.1199  0.3091 -0.2385
  547MOL0     O73741   5.289  10.805   1.339 -1.0108  0.1492  0.2294
  547MOL0     C73742   5.165  10.772   1.382  0.4238 -0.5007  0.0906
  547MOL0     C73743   5.070  10.683   1.314 -0.3576 -0.1282 -0.6268
  547MOL0     C73744   4.955  10.649   1.374 -0.7018  0.7197 -0.7442
  547MOL0     C73745   4.922  10.706   1.502 -0.0721  1.2125  0.4165
  547MOL0     O73746   4.808  10.687   1.569  0.8395  1.1929  0.6914
  547MOL0     C73747   4.696  10.611   1.523  0.1641  0.4085  0.6006
  547MOL0     C73748   4.598  10.592   1.634  0.2189  0.2338 -0.3215
  547MOL0     C73749   4.454  10.552   1.596 -0.0944 -0.6041 -0.0304
  547MOL0     C73750   4.371  10.560   1.724  0.6985 -0.3058 -0.9001
  547MOL0     C73751   4.221  10.523   1.691  0.5254  0.1901 -0.0756
  547MOL0     C73752   4.123  10.539   1.823  0.1483  0.1776  0.8944
  547MOL0     C73753   3.977  10.520   1.780  0.4361  0.1191 -0.2160
  547MOL0     C73754   3.874  10.556   1.896 -0.2226  1.1259 -1.0249
  547MOL0    Cl73755   3.887  10.441   2.021  0.4262  0.2493  0.4038
  547MOL0     C73756   5.014  10.790   1.570  0.2141 -0.2204  0.5466
  547MOL0     C73757   5.128  10.831   1.506 -0.0150 -0.1847 -0.4480
  547MOL0     O73758   5.266  11.023   1.282 -0.7602  0.1200 -0.2886
  547MOL0     C73759   5.533  11.063   1.240 -0.6128 -0.4665  0.4623
  547MOL0     C73760   5.663  11.086   1.191 -0.1357 -0.4041  0.1245
  547MOL0     N73761   6.326  10.899   1.410  0.5397  0.2563  0.3591
  547MOL0     N73762   6.416  10.986   1.376 -0.7763 -0.1256 -0.1705
  547MOL0     C73763   7.640  10.993   1.038 -0.5030  0.8867  0.1632
  547MOL0     C73764   7.768  10.957   1.003  0.0024  0.0973  0.0839
  547MOL0     C73765   8.123  10.717   0.777  0.1718 -0.6707  0.7101
  547MOL0     C73766   8.180  10.642   0.667 -0.1875 -0.1431 -0.6281
  547MOL0     C73767   8.310  10.584   0.686  0.6433 -0.8591 -0.7991
  547MOL0     C73768   8.387  10.610   0.799  0.0280  0.3946 -0.4428
  547MOL0     O73769   8.522  10.574   0.797 -0.1986 -0.0749 -1.0471
  547MOL0     C73770   8.588  10.549   0.921 -0.2946  0.4506  0.3167
  547MOL0     C73771   8.729  10.512   0.900 -0.1954  0.6959 -0.3143
  547MOL0     C73772   8.742  10.379   0.838  0.4968  0.6939 -1.0918
  547MOL0     C73773   8.888  10.329   0.811  0.6022 -0.5070 -0.7589
  547MOL0     C73774   8.973  10.403   0.721 -0.1525  0.0931 -0.6586
  547MOL0     C73775   9.048  10.461   0.655  0.0195 -0.9343 -0.2524
  547MOL0     C73776   8.328  10.687   0.899 -0.5219 -0.6068  1.0725
  547MOL0     C73777   8.203  10.744   0.897  0.3649 -0.3678  0.5808
  547MOL0     H73778   7.691  10.780   0.707  5.0520  2.1915 -1.5183
  547MOL0     H73779   7.480  10.862   0.768  0.6669  1.4476 -1.3906
  547MOL0     H73780   7.278  10.940   0.819 -2.9782  0.1101  0.7347
  547MOL0     H73781   7.266  10.854   0.967  2.0983 -0.4335 -0.1098
  547MOL0     H73782   7.143  11.055   1.073  3.4524 -0.7755  0.5940
  547MOL0     H73783   7.219  11.148   0.951  1.1561 -1.5873 -1.3282
  547MOL0     H73784   6.973  11.122   0.898  0.2721  0.5437 -0.2977
  547MOL0     H73785   7.063  11.051   0.771 -3.3485  0.5473 -1.6872
  547MOL0     H73786   6.890  10.890   0.815  0.6610  0.7162 -0.9078
  547MOL0     H73787   7.042  10.825   0.875 -0.0874  0.3394 -1.2705
  547MOL0     H73788   6.860  10.770   1.011  3.2314 -2.3488  0.3026
  547MOL0     H73789   6.994  10.844   1.098  0.2659 -2.1310 -0.8778
  547MOL0     H73790   6.866  11.060   1.108  2.0433 -1.8490  2.3208
  547MOL0     H73791   6.745  10.992   0.996 -1.6517  2.7501  2.7163
  547MOL0     H73792   6.702  10.811   1.169  2.5544 -0.1978  1.0852
  547MOL0     H73793   6.782  10.920   1.291  0.2827  0.7947  0.2879
  547MOL0     H73794   6.569  11.013   1.100 -1.5437 -1.2316 -0.5308
  547MOL0     H73795   6.626  11.095   1.259 -2.7018  0.9936 -1.2637
  547MOL0     H73796   6.434  10.762   1.119  1.2390 -0.6860 -0.0530
  547MOL0     H73797   6.240  10.604   1.296  1.1105 -0.4570  2.0108
  547MOL0     H73798   6.150  10.708   1.395  1.5324  1.6039  1.1191
  547MOL0     H73799   6.044  10.690   1.182 -0.5614  1.8795  2.2424
  547MOL0     H73800   6.196  10.745   1.092  0.8918 -4.4258  0.5574
  547MOL0     H73801   6.131  10.971   1.193 -1.1358 -0.2868 -1.3102
  547MOL0     H73802   6.003  10.898   1.288  0.0465  1.2686 -0.7313
  547MOL0     H73803   5.930  10.817   1.051  0.7604 -2.3373  3.9270
  547MOL0     H73804   6.029  10.955   0.996 -1.4191  0.0781 -1.2016
  547MOL0     H73805   5.733  10.797   1.047  1.6726  0.7119  1.5587
  547MOL0     H73806   5.516  10.686   1.029  2.8372 -0.5453  0.6712
  547MOL0     H73807   5.565  10.623   1.181 -1.9840 -2.4992 -2.2501
  547MOL0     H73808   5.402  10.674   1.168 -0.6615  1.4972  0.0777
  547MOL0     H73809   5.093  10.637   1.218  1.0534  1.4190 -1.0731
  547MOL0     H73810   4.884  10.586   1.323 -0.2560  0.7386 -1.3870
  547MOL0     H73811   4.638  10.665   1.447  1.1990  1.2377  0.3789
  547MOL0     H73812   4.722  10.508   1.495  1.6977  0.4398  1.8279
  547MOL0     H73813   4.633  10.529   1.716 -2.7781  2.5804  3.1399
  547MOL0     H73814   4.579  10.694   1.671  3.5140 -0.1277  2.9843
  547MOL0     H73815   4.458  10.452   1.554 -0.7761 -0.3059 -0.8494
  547MOL0     H73816   4.422  10.625   1.520  0.2367 -1.0177 -0.5742
  547MOL0     H73817   4.396  10.483   1.798 -3.3687 -0.2094  0.8078
  547MOL0     H73818   4.375  10.655   1.779  0.1718 -0.7455 -0.0851
  547MOL0     H73819   4.211  10.418   1.662  2.2333 -0.9522  3.0269
  547MOL0     H73820   4.184  10.588   1.612 -0.4335 -3.3108 -2.7736
  547MOL0     H73821   4.160  10.469   1.898 -0.5895  1.2680  2.3359
  547MOL0     H73822   4.129  10.637   1.872 -0.5991 -0.4146  2.2067
  547MOL0     H73823   3.965  10.419   1.740  0.2824 -0.0844  0.3451
  547MOL0     H73824   3.949  10.592   1.703  2.2827  1.0582 -0.0648
  547MOL0     H73825   3.776  10.554   1.849 -2.5205  2.2801  3.2019
  547MOL0     H73826   3.892  10.660   1.923 -3.1591  1.5600 -0.5157
  547MOL0     H73827   4.977  10.845   1.656 -0.5754  0.8758 -0.4635
  547MOL0     H73828   5.185  10.904   1.563 -1.0854 -0.6783  1.3499
  547MOL0     H73829   5.468  11.145   1.267  3.0623  2.9575 -0.2574
  547MOL0     H73830   5.695  11.190   1.195 -0.0957 -0.3564 -1.0217
  547MOL0     H73831   7.633  11.040   1.135 -0.6142 -1.1199  1.1789
  547MOL0     H73832   7.850  10.995   1.063 -0.3024 -3.2672  2.9313
  547MOL0     H73833   8.128  10.621   0.574  1.7312 -1.3731 -1.5031
  547MOL0     H73834   8.359  10.541   0.600 -1.3969 -3.0541 -0.9773
  547MOL0     H73835   8.587  10.640   0.982  1.6415 -0.8536  2.4695
  547MOL0     H73836   8.529  10.473   0.973 -0.2880  0.6303  0.5941
  547MOL0     H73837   8.782  10.503   0.996  2.0019 -1.3003 -1.5993
  547MOL0     H73838   8.778  10.590   0.842  1.2885 -2.3974 -3.6038
  547MOL0     H73839   8.681  10.370   0.748 -2.2279 -0.0402  0.6900
  547MOL0     H73840   8.698  10.309   0.910  0.9265  2.1909  0.7255
  547MOL0     H73841   8.882  10.235   0.755  2.4147 -0.6774 -0.7385
  547MOL0     H73842   8.939  10.315   0.907 -0.4419 -4.2618 -0.6017
  547MOL0     H73843   9.108  10.514   0.583  1.5601  0.0367  1.6598
  547MOL0     H73844   8.399  10.712   0.977  4.4281 -0.6960 -2.8792
  547MOL0     H73845   8.175  10.804   0.983  0.6653 -0.0552  0.4634
  548MOL0     O73846  10.768   0.248  10.453 -0.1098 -0.7207  0.6707
  548MOL0     C73847  10.811   0.145  10.493  0.0652  0.0076  0.0054
  548MOL0     O73848  10.739   0.047  10.545  0.1139 -0.0180 -0.6258
  548MOL0     C73849  10.598   0.056  10.562  0.2481 -0.5460  0.9377
  548MOL0     C73850  10.536  -0.029  10.663 -0.0890 -0.5492  0.3909
  548MOL0     C73851  10.393  -0.035  10.673 -0.0353  0.2776 -1.0440
  548MOL0     C73852  10.308   0.036  10.585 -0.7313  0.9603 -0.8211
  548MOL0     O73853  10.178  -0.006  10.593  0.6936  0.0871 -0.9217
  548MOL0     C73854  10.085   0.071  10.529  0.3302 -0.1921  0.3665
  548MOL0     C73855   9.940   0.010  10.556 -0.0075  0.5384  0.2499
  548MOL0     C73856   9.842   0.102  10.492  0.2483 -0.0118 -0.0484
  548MOL0     C73857   9.693   0.076  10.521  0.0452  0.4585 -0.5978
  548MOL0     C73858   9.595   0.155  10.432  1.2372 -0.3082 -0.7534
  548MOL0     C73859   9.456   0.161  10.507  0.8040  0.0716 -0.5747
  548MOL0     C73860   9.463   0.234  10.645  0.4283  0.0506 -0.0187
  548MOL0     C73861   9.358   0.336  10.677 -0.4519 -0.0789  0.3940
  548MOL0     N73862   9.321   0.435  10.572  0.5365 -0.0288  0.8995
  548MOL0     C73863   9.193   0.480  10.553 -0.1291 -0.5917 -0.5062
  548MOL0     C73864   9.199   0.594  10.480  1.0655 -0.0981 -0.2627
  548MOL0     C73865   9.087   0.685  10.448  0.2205  0.1660 -0.7400
  548MOL0     C73866   9.057   0.693  10.305  0.6501 -0.3639  0.3945
  548MOL0     C73867   8.960   0.578  10.268  0.6874 -0.6959  0.3689
  548MOL0     C73868   8.946   0.562  10.121 -1.0695 -0.7973  0.8548
  548MOL0     O73869   8.844   0.468  10.100  0.1499  0.6470  0.4206
  548MOL0     C73870   8.765   0.502   9.995  0.3114 -0.0123  0.0889
  548MOL0     C73871   8.696   0.621   9.986  0.1969  0.0749 -0.7759
  548MOL0     C73872   8.600   0.644   9.890  0.6601  0.6868  1.4119
  548MOL0     C73873   8.513   0.768   9.899  0.2474 -0.6275  0.5487
  548MOL0     C73874   8.580   0.546   9.786  0.4455 -0.2689 -0.1191
  548MOL0     C73875   8.513   0.586   9.668 -0.6970 -0.4269  1.3017
  548MOL0     O73876   8.592   0.645   9.577 -0.4247 -0.1109 -0.2123
  548MOL0     C73877   8.540   0.704   9.467  1.0724 -0.0882  0.5003
  548MOL0     C73878   8.416   0.771   9.457 -0.0428  0.1609  0.0419
  548MOL0     C73879   8.363   0.834   9.345  0.5781  0.3457  0.6045
  548MOL0     C73880   8.449   0.843   9.236  0.0750  0.4954 -0.2094
  548MOL0     O73881   8.408   0.897   9.120 -0.1871  0.3279  0.4507
  548MOL0     C73882   8.278   0.943   9.104  0.7236  0.3018  0.2932
  548MOL0     C73883   8.265   1.047   8.989  0.3580  0.4280  0.3976
  548MOL0     C73884   8.120   1.096   9.001 -0.4680 -0.9350 -0.2160
  548MOL0     C73885   8.079   1.180   8.872  0.2301  0.3523 -0.0054
  548MOL0     C73886   7.937   1.216   8.866  0.0753 -0.6482  0.2373
  548MOL0     C73887   7.899   1.316   8.980  0.2119  0.8281 -0.5029
  548MOL0     C73888   7.755   1.370   8.958 -0.0481 -0.3311  0.1682
  548MOL0     C73889   7.704   1.431   9.085 -0.0901  0.7467 -0.9436
  548MOL0    Cl73890   7.725   1.343   9.243  0.3084  0.0983 -1.0206
  548MOL0     C73891   8.580   0.788   9.242 -0.1891  0.8052 -0.0732
  548MOL0     C73892   8.621   0.723   9.357 -0.4161 -0.0342  0.1441
  548MOL0     O73893   8.394   0.568   9.651 -0.1516  0.4326  0.3602
  548MOL0     C73894   8.639   0.422   9.801  0.4954 -0.1612 -0.1265
  548MOL0     C73895   8.729   0.397   9.896  0.2599  0.3804  0.5057
  548MOL0     N73896   9.338   0.618  10.458  0.6252  0.5151 -0.4254
  548MOL0     N73897   9.410   0.514  10.512 -0.9236 -0.4402 -0.1438
  548MOL0     C73898  10.369   0.105  10.479 -0.1675 -0.4758  0.1747
  548MOL0     C73899  10.516   0.110  10.462  0.1572  0.0249 -0.1581
  548MOL0     C73900  10.960   0.135  10.517 -1.0234  0.4303 -0.0309
  548MOL0     C73901  11.041   0.208  10.430 -0.3183 -0.4174  0.3507
  548MOL0     C73902  11.179   0.206  10.444 -1.0118  0.1502 -1.1676
  548MOL0     C73903  11.244   0.133  10.548 -0.6270 -0.6291 -0.7493
  548MOL0     O73904  11.381   0.127  10.564  0.3449  0.4718 -0.0145
  548MOL0     C73905  11.444   0.103  10.445 -0.0366 -0.6352  0.9840
  548MOL0     C73906  11.583   0.073  10.466 -0.5701 -0.0973  1.2019
  548MOL0     C73907  11.651   0.021  10.333  0.6364  0.7770 -0.0289
  548MOL0     C73908  11.788  -0.045  10.363  0.5546  0.0253  0.5376
  548MOL0     C73909  11.880  -0.023  10.249  0.1906  0.4084  0.2058
  548MOL0     C73910  11.955  -0.014  10.152  0.0292 -0.3264 -0.9039
  548MOL0     C73911  11.155   0.067  10.638 -0.5214  0.5594  0.1954
  548MOL0     C73912  11.014   0.063  10.626  0.0143  0.1012  0.0745
  548MOL0     H73913  10.599  -0.091  10.726 -2.5767 -1.7890  1.7819
  548MOL0     H73914  10.361  -0.082  10.765  3.7584  1.0885  0.9215
  548MOL0     H73915  10.096   0.179  10.544 -2.0143  0.0203  0.8713
  548MOL0     H73916  10.097   0.064  10.420  0.5262 -2.4190  0.4934
  548MOL0     H73917   9.926  -0.090  10.515 -0.4314 -0.2775  2.2586
  548MOL0     H73918   9.919   0.009  10.663 -0.2387  0.9553  0.2096
  548MOL0     H73919   9.864   0.204  10.524  0.7917  0.3615 -1.5025
  548MOL0     H73920   9.866   0.095  10.385  2.2297 -0.4624  0.3919
  548MOL0     H73921   9.675  -0.030  10.500  0.6259  0.0054  1.0630
  548MOL0     H73922   9.684   0.088  10.629  2.8651 -0.7292 -0.1511
  548MOL0     H73923   9.619   0.262  10.426  0.4582 -0.1247 -0.7662
  548MOL0     H73924   9.584   0.115  10.331 -0.4857  2.9873 -2.0446
  548MOL0     H73925   9.392   0.226  10.446  2.7540 -0.3889 -3.3174
  548MOL0     H73926   9.422   0.058  10.521 -2.2022  0.9726 -0.5559
  548MOL0     H73927   9.481   0.165  10.729  1.7256  1.8444  1.2506
  548MOL0     H73928   9.547   0.304  10.645 -0.9183  1.7557  0.5927
  548MOL0     H73929   9.383   0.381  10.773  2.4126  0.8434 -0.6767
  548MOL0     H73930   9.271   0.275  10.703 -1.8275  2.1307  1.1509
  548MOL0     H73931   9.099   0.446  10.595 -0.4517  1.8218  0.9741
  548MOL0     H73932   8.998   0.664  10.508  0.4069  2.6214  0.5231
  548MOL0     H73933   9.113   0.786  10.482  1.0212  0.1341 -1.2294
  548MOL0     H73934   9.146   0.686  10.242  1.0375 -0.1673  0.9203
  548MOL0     H73935   8.995   0.780  10.281 -0.7154 -1.0758  1.1990
  548MOL0     H73936   8.863   0.616  10.302  2.3404  4.2207  0.4215
  548MOL0     H73937   8.990   0.481  10.309 -1.2646 -1.3462  0.3571
  548MOL0     H73938   9.038   0.527  10.074 -2.0007 -2.5046  0.2151
  548MOL0     H73939   8.929   0.661  10.079  1.8129 -1.4393 -2.2676
  548MOL0     H73940   8.710   0.696  10.064 -2.4965  0.3137 -0.4025
  548MOL0     H73941   8.407   0.743   9.914  0.4353  0.3336  5.0401
  548MOL0     H73942   8.536   0.826   9.989 -2.1598 -0.5569  1.1855
  548MOL0     H73943   8.524   0.837   9.815  0.3865 -0.1623  0.9429
  548MOL0     H73944   8.355   0.783   9.546  1.8178  2.2486  1.1502
  548MOL0     H73945   8.265   0.877   9.363  0.8399  0.1501  2.8505
  548MOL0     H73946   8.216   0.859   9.072  1.9665 -0.7071  0.4478
  548MOL0     H73947   8.239   0.993   9.193 -1.6741  3.9781 -2.5126
  548MOL0     H73948   8.335   1.130   9.001  0.6512  1.0075 -3.6918
  548MOL0     H73949   8.274   1.002   8.889  0.7552  4.4355 -1.5686
  548MOL0     H73950   8.125   1.171   9.081  0.2740  1.4322 -2.3443
  548MOL0     H73951   8.052   1.013   9.016  1.1739 -2.9891 -3.1959
  548MOL0     H73952   8.144   1.267   8.859 -1.3428  1.4361 -1.0555
  548MOL0     H73953   8.099   1.115   8.786  3.7106  0.1914  0.7871
  548MOL0     H73954   7.880   1.124   8.878 -1.7291  0.5085  0.9071
  548MOL0     H73955   7.901   1.257   8.772 -1.5279 -1.7036  0.3488
  548MOL0     H73956   7.898   1.258   9.073  0.5016  0.3471 -0.7918
  548MOL0     H73957   7.967   1.400   8.990  1.0571 -0.1461  3.0652
  548MOL0     H73958   7.686   1.295   8.920 -0.5270  1.0554 -1.8396
  548MOL0     H73959   7.761   1.448   8.881 -0.2822 -1.6136 -1.1797
  548MOL0     H73960   7.603   1.475   9.080 -1.0886 -1.3147  0.0563
  548MOL0     H73961   7.773   1.515   9.102  2.0541  0.0662 -4.8874
  548MOL0     H73962   8.645   0.812   9.159 -0.2010 -0.1116 -0.3580
  548MOL0     H73963   8.723   0.685   9.358 -0.3097 -0.0048 -2.4813
  548MOL0     H73964   8.621   0.350   9.722  0.3172  1.0717 -1.2530
  548MOL0     H73965   8.792   0.310   9.907 -0.3250  0.1957  2.9407
  548MOL0     H73966  10.303   0.137  10.399  2.7659 -2.7734 -3.4634
  548MOL0     H73967  10.559   0.155  10.372  0.3613  0.3446  0.0973
  548MOL0     H73968  10.987   0.261  10.352 -1.6444 -1.0759  0.7936
  548MOL0     H73969  11.242   0.264  10.378  0.6978  1.4998  1.4710
  548MOL0     H73970  11.396   0.013  10.405 -1.9618  0.9909 -0.5708
  548MOL0     H73971  11.440   0.193  10.383  0.6470 -1.1482  0.1812
  548MOL0     H73972  11.585  -0.006  10.541  1.0096 -1.2121  0.0522
  548MOL0     H73973  11.635   0.164  10.497  1.3375 -0.4668 -0.6738
  548MOL0     H73974  11.668   0.103  10.263 -2.6324  0.7254 -1.0139
  548MOL0     H73975  11.595  -0.036  10.258  1.0487  0.7332 -0.3127
  548MOL0     H73976  11.768  -0.151  10.381  1.0940 -0.4849 -1.5689
  548MOL0     H73977  11.834  -0.004  10.454  0.1808  1.8895 -0.0692
  548MOL0     H73978  12.022  -0.020  10.069  1.0141  0.1099 -0.1535
  548MOL0     H73979  11.187  -0.006  10.711  1.3538 -0.4238 -1.5379
  548MOL0     H73980  10.957   0.003  10.696 -0.7058 -1.5431 -1.8189
  549MOL0     O73981   2.777   5.687   8.562  0.0248  1.0656 -0.3688
  549MOL0     C73982   2.896   5.657   8.559 -0.2221  0.7762 -0.5210
  549MOL0     O73983   2.997   5.744   8.538 -0.1204  0.6948 -0.7071
  549MOL0     C73984   2.987   5.878   8.538 -0.2452  0.4990 -0.1337
  549MOL0     C73985   3.086   5.945   8.462 -1.2326  0.0601 -0.2278
  549MOL0     C73986   3.095   6.079   8.449 -0.5597  0.0815  0.2822
  549MOL0     C73987   2.994   6.163   8.496  0.1194 -0.2134  1.0723
  549MOL0     O73988   2.992   6.303   8.472  0.5811  0.4414 -0.1477
  549MOL0     C73989   3.038   6.361   8.352 -0.2689  0.4276  0.5180
  549MOL0     C73990   2.953   6.485   8.321 -0.2493  0.5875 -1.0189
  549MOL0     C73991   2.801   6.457   8.321  0.3374 -0.3039 -0.2071
  549MOL0     C73992   2.715   6.590   8.342  0.8757  0.2314  0.4470
  549MOL0     C73993   2.561   6.565   8.362  0.5684 -0.3169  0.6349
  549MOL0     C73994   2.479   6.688   8.419 -0.5730 -0.0111  0.7130
  549MOL0     C73995   2.342   6.631   8.477 -0.6242  0.3170  0.3488
  549MOL0     C73996   2.245   6.741   8.507 -0.0615  1.0622 -0.5209
  549MOL0     N73997   2.112   6.684   8.538 -0.0660 -0.5617 -0.2729
  549MOL0     C73998   2.080   6.619   8.656 -0.1400 -0.2879 -0.3010
  549MOL0     C73999   1.948   6.591   8.641 -0.3776 -0.6240  0.2569
  549MOL0     C74000   1.854   6.517   8.738  0.4125 -1.2225 -0.5424
  549MOL0     C74001   1.846   6.370   8.705 -0.8525  0.2983  0.1262
  549MOL0     C74002   1.764   6.283   8.807  0.0849 -0.2994 -0.3161
  549MOL0     C74003   1.792   6.132   8.803 -0.2578 -0.7296 -0.0688
  549MOL0     O74004   1.704   6.052   8.875 -0.1408 -0.0566 -0.4556
  549MOL0     C74005   1.589   5.996   8.821 -0.6161 -0.3603 -1.2002
  549MOL0     C74006   1.505   5.908   8.885  0.8194  0.6105 -0.8152
  549MOL0     C74007   1.387   5.861   8.831 -0.5940  0.7171  0.3353
  549MOL0     C74008   1.294   5.769   8.905 -0.5197  0.3869 -0.1253
  549MOL0     C74009   1.352   5.906   8.702 -0.4957 -0.5705  0.4806
  549MOL0     C74010   1.218   5.877   8.640 -0.0537  0.7285  0.6912
  549MOL0     O74011   1.107   5.905   8.711  0.9032 -0.1640  0.6848
  549MOL0     C74012   0.978   5.881   8.660  0.2377 -0.5550  0.3343
  549MOL0     C74013   0.937   5.749   8.624 -0.0240 -0.8190  0.0392
  549MOL0     C74014   0.795   5.729   8.594  0.2051  0.0424 -0.7264
  549MOL0     C74015   0.715   5.845   8.586  0.3996  1.0640  0.3063
  549MOL0     O74016   0.587   5.808   8.544  0.1177 -0.2843  0.7029
  549MOL0     C74017   0.524   5.902   8.457  0.4160 -0.5111 -0.1336
  549MOL0     C74018   0.392   5.868   8.399 -0.0756 -0.5000 -0.1267
  549MOL0     C74019   0.391   5.762   8.292 -0.3279 -0.1553 -0.0624
  549MOL0     C74020   0.432   5.816   8.155 -0.2597 -0.2913 -0.5678
  549MOL0     C74021   0.440   5.708   8.048 -0.5097  0.7222  0.2031
  549MOL0     C74022   0.300   5.655   8.013 -0.0979 -0.2303 -0.0697
  549MOL0     C74023   0.295   5.559   7.896  0.8990 -0.8539 -0.2906
  549MOL0     C74024   0.369   5.427   7.920 -1.0101  0.0837 -0.1729
  549MOL0    Cl74025   0.303   5.339   8.064  0.0367  0.3518 -0.1288
  549MOL0     C74026   0.761   5.968   8.610  0.4615 -0.3174 -0.0631
  549MOL0     C74027   0.886   5.992   8.664  0.1463 -0.2804  0.0318
  549MOL0     O74028   1.219   5.824   8.525 -0.1439  0.3327 -0.3874
  549MOL0     C74029   1.440   5.987   8.633 -1.0161 -0.1171  1.0194
  549MOL0     C74030   1.546   6.039   8.695 -0.4796 -0.9933  1.1487
  549MOL0     N74031   1.904   6.629   8.513  0.3642 -0.3433  1.1781
  549MOL0     N74032   2.001   6.689   8.453 -0.2438  0.5688 -0.4920
  549MOL0     C74033   2.895   6.098   8.566 -0.0590 -0.4359 -0.6816
  549MOL0     C74034   2.894   5.960   8.603  0.0306 -0.3428  0.8271
  549MOL0     C74035   2.930   5.513   8.589  0.0795  0.7895 -0.0074
  549MOL0     C74036   2.822   5.428   8.613 -0.3942  0.0992  0.0216
  549MOL0     C74037   2.850   5.301   8.630  0.4758  0.6641 -0.1582
  549MOL0     C74038   2.977   5.249   8.634  0.2412  0.0906  0.5811
  549MOL0     O74039   2.977   5.116   8.657 -0.0073  0.5299  0.0933
  549MOL0     C74040   3.095   5.041   8.659 -0.7406  0.1208  0.4786
  549MOL0     C74041   3.086   4.891   8.673  0.8110  0.5141  0.9032
  549MOL0     C74042   3.028   4.835   8.544  0.7823 -0.0445 -0.3700
  549MOL0     C74043   3.032   4.675   8.558 -0.3681 -0.5997  0.1515
  549MOL0     C74044   2.994   4.604   8.434 -0.0484  0.8407  0.6946
  549MOL0     C74045   2.959   4.571   8.322  0.5602  1.0542  0.4098
  549MOL0     C74046   3.095   5.331   8.626  0.2066  0.1515  0.1164
  549MOL0     C74047   3.060   5.459   8.586  0.8058 -1.1128 -0.3696
  549MOL0     H74048   3.171   5.888   8.426  0.0160  0.7176  1.4986
  549MOL0     H74049   3.176   6.131   8.399 -0.4213 -0.0546  0.3630
  549MOL0     H74050   3.147   6.373   8.355 -0.0923 -0.2486 -1.5287
  549MOL0     H74051   3.022   6.293   8.268  0.9447  0.5336  0.1896
  549MOL0     H74052   2.981   6.565   8.390  0.5349 -1.2651  0.8988
  549MOL0     H74053   2.980   6.512   8.218  1.2961 -4.1634 -2.1135
  549MOL0     H74054   2.781   6.402   8.228  0.8765  0.5784 -0.8551
  549MOL0     H74055   2.786   6.397   8.412  0.5230 -0.0465 -0.0047
  549MOL0     H74056   2.744   6.646   8.432 -1.4019 -0.3440  1.6052
  549MOL0     H74057   2.731   6.656   8.256 -1.5422  0.0871 -0.1799
  549MOL0     H74058   2.523   6.557   8.259  0.4045 -1.2214  0.7571
  549MOL0     H74059   2.551   6.473   8.420  0.8481  0.1547  1.4433
  549MOL0     H74060   2.529   6.733   8.506  0.1386  4.4335 -1.7094
  549MOL0     H74061   2.470   6.771   8.349  1.9770  0.1838  0.5247
  549MOL0     H74062   2.307   6.571   8.392  1.5001  1.7718 -1.6736
  549MOL0     H74063   2.367   6.571   8.565 -1.9661 -1.3389 -0.3338
  549MOL0     H74064   2.236   6.807   8.421  4.2327 -1.5078 -3.2990
  549MOL0     H74065   2.299   6.795   8.586  3.3690 -3.6107  0.7844
  549MOL0     H74066   2.135   6.593   8.746 -0.9328 -0.7494  0.0627
  549MOL0     H74067   1.879   6.544   8.841  1.7786 -0.2070 -1.1114
  549MOL0     H74068   1.751   6.554   8.726 -0.0437 -1.5503  1.9702
  549MOL0     H74069   1.947   6.331   8.692 -2.2745 -3.1409 -1.9938
  549MOL0     H74070   1.804   6.358   8.605  2.1745 -0.6758 -1.1561
  549MOL0     H74071   1.658   6.287   8.781 -0.1741 -3.5312 -0.1758
  549MOL0     H74072   1.784   6.308   8.912 -0.3138 -1.8493  0.1647
  549MOL0     H74073   1.891   6.118   8.847 -0.2946 -2.3340 -0.4348
  549MOL0     H74074   1.796   6.094   8.700  0.2018  0.3563 -0.4728
  549MOL0     H74075   1.531   5.869   8.983  1.2973 -1.6334 -1.7667
  549MOL0     H74076   1.238   5.719   8.825  2.8545  1.3534 -3.4345
  549MOL0     H74077   1.351   5.694   8.960 -1.8646 -0.5350  0.0526
  549MOL0     H74078   1.238   5.820   8.984  1.0383 -1.8546  2.6048
  549MOL0     H74079   1.004   5.664   8.620  0.8395 -0.1214 -1.1501
  549MOL0     H74080   0.746   5.634   8.576 -0.7847  0.2450  0.6746
  549MOL0     H74081   0.506   5.988   8.522 -3.5355 -1.3915  0.1832
  549MOL0     H74082   0.586   5.932   8.373  3.3230 -1.2728  1.5807
  549MOL0     H74083   0.331   5.841   8.486 -0.1513  3.6565  1.3025
  549MOL0     H74084   0.350   5.962   8.362 -2.7367 -0.6391  2.1693
  549MOL0     H74085   0.290   5.721   8.281  0.5620 -1.9044 -2.4451
  549MOL0     H74086   0.455   5.674   8.306 -1.1983 -1.0236 -1.3095
  549MOL0     H74087   0.359   5.891   8.123  0.4600  0.6409 -0.0559
  549MOL0     H74088   0.530   5.864   8.163  0.3083 -1.4296 -0.4899
  549MOL0     H74089   0.511   5.639   8.093 -0.9487  0.9061  1.2054
  549MOL0     H74090   0.484   5.752   7.958 -0.7212  2.0436  0.7136
  549MOL0     H74091   0.259   5.599   8.098  0.0433 -0.2448 -0.0104
  549MOL0     H74092   0.237   5.740   7.987  1.0805  0.1977 -1.5850
  549MOL0     H74093   0.329   5.610   7.805  3.0409 -1.5137  0.0713
  549MOL0     H74094   0.188   5.551   7.874  0.8941  1.1177 -1.1649
  549MOL0     H74095   0.475   5.449   7.938 -0.8062 -1.2947  0.4196
  549MOL0     H74096   0.361   5.364   7.831 -2.6591  0.5051 -0.3649
  549MOL0     H74097   0.695   6.053   8.597 -0.3622 -1.3223 -3.1279
  549MOL0     H74098   0.914   6.090   8.701 -4.0859  1.6123 -1.1787
  549MOL0     H74099   1.405   6.031   8.540 -1.0335  0.9145  1.5023
  549MOL0     H74100   1.589   6.108   8.624  1.5379 -4.1410 -0.9854
  549MOL0     H74101   2.822   6.161   8.616 -1.3194  2.2831 -5.3874
  549MOL0     H74102   2.815   5.915   8.663  0.6943 -2.8215 -0.0112
  549MOL0     H74103   2.721   5.467   8.614  0.0594  1.4390 -1.6222
  549MOL0     H74104   2.776   5.223   8.644  1.3721 -0.1005  0.4136
  549MOL0     H74105   3.164   5.061   8.576  0.0470 -0.9440  0.8489
  549MOL0     H74106   3.151   5.079   8.745 -0.9156  1.3090  0.0727
  549MOL0     H74107   3.013   4.864   8.750  0.0237  1.0871  0.3650
  549MOL0     H74108   3.187   4.857   8.700  1.1810  0.0460 -0.9435
  549MOL0     H74109   3.087   4.880   8.464  1.6215 -2.5588 -1.2765
  549MOL0     H74110   2.926   4.873   8.527  0.3789  0.4899  2.6936
  549MOL0     H74111   2.962   4.654   8.639 -2.0890 -3.1107 -1.7996
  549MOL0     H74112   3.130   4.633   8.582 -0.1602 -2.3009 -3.0684
  549MOL0     H74113   2.934   4.543   8.221 -0.7236 -0.8766  1.2165
  549MOL0     H74114   3.198   5.300   8.646 -1.0310 -4.2808  0.7041
  549MOL0     H74115   3.141   5.529   8.568 -0.0761 -0.1755 -0.7402
  550MOL0     O74116   2.075   4.056   7.155  0.2513  0.5171 -0.4434
  550MOL0     C74117   2.165   4.141   7.143  0.2831  0.6231  0.1771
  550MOL0     O74118   2.299   4.115   7.159  0.1713 -0.8950  0.1958
  550MOL0     C74119   2.355   3.987   7.189 -0.0719  0.0209  0.4485
  550MOL0     C74120   2.296   3.862   7.199  0.5550 -0.3726 -0.1691
  550MOL0     C74121   2.361   3.741   7.208 -0.1091  0.5500 -0.2636
  550MOL0     C74122   2.500   3.738   7.198  0.5600 -0.1289  0.3851
  550MOL0     O74123   2.550   3.610   7.203  0.3788 -0.5595 -1.0072
  550MOL0     C74124   2.698   3.621   7.218 -0.2196 -0.7653  0.7640
  550MOL0     C74125   2.766   3.485   7.246 -0.7685  0.0328 -0.1370
  550MOL0     C74126   2.918   3.503   7.270  0.3263 -0.8975 -0.7217
  550MOL0     C74127   3.018   3.391   7.242  0.0081 -0.2488  0.2358
  550MOL0     C74128   3.158   3.444   7.222 -0.1696 -0.1493 -0.6389
  550MOL0     C74129   3.259   3.341   7.183  0.1444  0.2759  0.1564
  550MOL0     C74130   3.261   3.230   7.289  0.0301 -0.8082  0.5846
  550MOL0     C74131   3.384   3.138   7.280  0.5878 -0.8109 -0.1077
  550MOL0     N74132   3.398   3.017   7.365  0.5639  0.7872  0.3729
  550MOL0     C74133   3.315   2.984   7.466  0.8201 -0.4229 -0.2237
  550MOL0     C74134   3.353   2.862   7.507  0.5489  0.5628  0.8236
  550MOL0     C74135   3.282   2.806   7.628  0.2558  0.2770  0.6340
  550MOL0     C74136   3.302   2.885   7.750  0.6200 -0.1414 -0.3763
  550MOL0     C74137   3.201   2.856   7.853 -0.4274 -0.1571 -0.4342
  550MOL0     C74138   3.238   2.906   7.991  0.2028  0.0858 -0.1548
  550MOL0     O74139   3.176   2.826   8.099  0.6624  0.1009  0.1031
  550MOL0     C74140   3.050   2.861   8.147  0.0473  0.2275 -0.3172
  550MOL0     C74141   3.008   2.806   8.270  0.6035  0.5242  0.0004
  550MOL0     C74142   2.887   2.842   8.328 -0.6204  1.1344  0.3793
  550MOL0     C74143   2.874   2.787   8.464  0.2962 -0.2090 -0.5079
  550MOL0     C74144   2.793   2.920   8.249  0.5838 -0.1186  0.7876
  550MOL0     C74145   2.652   2.948   8.293  0.1297  0.4425 -1.0744
  550MOL0     O74146   2.602   2.890   8.418  0.8860  0.5236 -0.4917
  550MOL0     C74147   2.469   2.893   8.463 -0.2084  0.6742  0.0520
  550MOL0     C74148   2.359   2.957   8.398  0.0379 -0.2571 -0.4922
  550MOL0     C74149   2.230   2.937   8.456  0.0013  0.1811  1.0904
  550MOL0     C74150   2.210   2.880   8.579 -0.1493  0.0372  0.5551
  550MOL0     O74151   2.084   2.892   8.629  0.0839  0.1856 -0.3514
  550MOL0     C74152   2.027   2.767   8.664 -0.7670  0.2799  0.7337
  550MOL0     C74153   1.907   2.800   8.751  0.3307 -0.5166 -0.0916
  550MOL0     C74154   1.825   2.677   8.782 -0.2174 -0.1996 -0.0177
  550MOL0     C74155   1.725   2.712   8.898 -0.1962 -0.0848  0.3833
  550MOL0     C74156   1.652   2.578   8.937  0.6174 -0.0383 -0.2978
  550MOL0     C74157   1.549   2.583   9.056 -1.2155  0.5415 -0.0007
  550MOL0     C74158   1.619   2.581   9.192  0.0773  0.7456  0.2496
  550MOL0     C74159   1.522   2.621   9.311  0.8921  0.6138  0.1019
  550MOL0    Cl74160   1.386   2.498   9.337 -0.2533 -0.6428 -0.2556
  550MOL0     C74161   2.314   2.815   8.644  1.0122 -0.1409  0.4338
  550MOL0     C74162   2.431   2.815   8.581 -0.3893 -0.4300  0.3822
  550MOL0     O74163   2.581   3.010   8.209  0.0865  0.5035 -0.3706
  550MOL0     C74164   2.825   2.962   8.117 -0.0706  0.4859 -0.2889
  550MOL0     C74165   2.953   2.927   8.072 -0.0202 -0.0110 -0.1632
  550MOL0     N74166   3.459   2.819   7.434  0.3324  0.0445  0.4327
  550MOL0     N74167   3.481   2.912   7.346 -0.3616 -0.2155 -0.1718
  550MOL0     C74168   2.563   3.867   7.186 -0.9232 -0.0719  0.4752
  550MOL0     C74169   2.491   3.991   7.191 -0.2640 -0.2064 -0.1917
  550MOL0     C74170   2.126   4.277   7.094 -0.7704  0.3887 -1.0814
  550MOL0     C74171   2.214   4.388   7.105 -0.6093 -0.0080  0.0453
  550MOL0     C74172   2.172   4.507   7.051 -0.4573 -0.3122  0.6643
  550MOL0     C74173   2.037   4.526   7.013 -0.4588 -0.1383  0.0690
  550MOL0     O74174   1.993   4.653   6.976  0.2323  0.0466  0.2687
  550MOL0     C74175   1.862   4.677   6.926  0.0166  0.0443 -0.0178
  550MOL0     C74176   1.844   4.814   6.871 -0.0032  0.0370 -0.8481
  550MOL0     C74177   1.861   4.923   6.972  0.5991 -0.7719 -0.5187
  550MOL0     C74178   1.811   5.066   6.927 -0.1280  0.3204 -0.1808
  550MOL0     C74179   1.887   5.113   6.814 -0.4637  0.5886 -0.3632
  550MOL0     C74180   1.941   5.140   6.712  0.2179 -0.4841 -0.8604
  550MOL0     C74181   1.945   4.423   7.033  0.5260  0.0173  0.6796
  550MOL0     C74182   1.984   4.297   7.054 -0.7975  0.9944 -0.0219
  550MOL0     H74183   2.189   3.867   7.186  0.9451  2.8852 -3.9960
  550MOL0     H74184   2.299   3.653   7.221  0.9387  0.0788  2.1374
  550MOL0     H74185   2.740   3.656   7.124 -0.1455 -2.0191  0.3096
  550MOL0     H74186   2.724   3.683   7.304  3.6416 -2.4085  0.9649
  550MOL0     H74187   2.734   3.457   7.346  1.4847 -2.7851 -0.0896
  550MOL0     H74188   2.741   3.418   7.163 -0.4927 -0.8305  0.4725
  550MOL0     H74189   2.941   3.594   7.215 -3.9861  1.8896  1.5333
  550MOL0     H74190   2.933   3.514   7.378  0.0179 -3.2614 -0.3689
  550MOL0     H74191   3.007   3.320   7.325  1.0421 -1.4058 -0.5870
  550MOL0     H74192   2.986   3.330   7.156 -0.0641 -0.4186  0.3809
  550MOL0     H74193   3.148   3.517   7.141  3.4753  1.9577  0.5451
  550MOL0     H74194   3.196   3.505   7.305 -1.4748  0.8438 -0.7487
  550MOL0     H74195   3.233   3.302   7.085  1.8142 -2.9249  0.8310
  550MOL0     H74196   3.361   3.376   7.169 -0.2784  3.1782  2.9841
  550MOL0     H74197   3.254   3.278   7.387  0.2129  0.7016 -0.1143
  550MOL0     H74198   3.169   3.171   7.280 -1.5815  1.9229 -4.2420
  550MOL0     H74199   3.476   3.192   7.306  0.1322 -1.7070  3.9948
  550MOL0     H74200   3.388   3.110   7.174  0.9515 -3.0980  0.4539
  550MOL0     H74201   3.233   3.047   7.499  2.0768  2.4279 -2.1238
  550MOL0     H74202   3.175   2.803   7.605  0.2599  1.6254  0.3305
  550MOL0     H74203   3.329   2.708   7.641 -0.1621 -0.1345 -0.7484
  550MOL0     H74204   3.297   2.991   7.722 -1.6065 -0.3928 -1.1883
  550MOL0     H74205   3.397   2.858   7.795  0.4025 -3.3649 -1.6225
  550MOL0     H74206   3.200   2.747   7.864  3.1175 -0.4250 -1.7366
  550MOL0     H74207   3.108   2.901   7.817  0.9882  1.6494 -2.0574
  550MOL0     H74208   3.197   3.007   7.994 -1.0627 -0.4102  0.2129
  550MOL0     H74209   3.346   2.909   8.006  0.1341 -1.2199  0.7992
  550MOL0     H74210   3.085   2.754   8.327  0.7102 -2.2425 -2.4181
  550MOL0     H74211   2.821   2.693   8.445  1.6997 -1.0059 -0.6124
  550MOL0     H74212   2.969   2.753   8.505  0.3879 -1.1039 -1.4325
  550MOL0     H74213   2.822   2.852   8.534 -0.2291 -2.2445  1.0833
  550MOL0     H74214   2.381   2.998   8.300  1.4260  0.0784 -0.0655
  550MOL0     H74215   2.143   2.977   8.405  2.7204  5.6058 -0.0619
  550MOL0     H74216   1.998   2.721   8.569  2.5926 -0.6132  0.0185
  550MOL0     H74217   2.093   2.701   8.721 -1.5549 -1.6802 -0.5100
  550MOL0     H74218   1.934   2.842   8.848 -1.6403 -0.0882  0.3195
  550MOL0     H74219   1.848   2.869   8.690  1.4595  0.1408 -0.4647
  550MOL0     H74220   1.896   2.599   8.810  0.3773  0.2331 -0.3195
  550MOL0     H74221   1.759   2.648   8.699 -1.4665  1.1219  0.4588
  550MOL0     H74222   1.775   2.742   8.991  0.2824 -0.5142  0.2668
  550MOL0     H74223   1.657   2.793   8.870  0.0026 -0.1544 -0.3113
  550MOL0     H74224   1.730   2.504   8.952 -1.0636 -1.8044  0.1157
  550MOL0     H74225   1.593   2.546   8.850  3.3147 -0.3435 -2.1381
  550MOL0     H74226   1.493   2.676   9.043 -2.8940 -0.5218 -0.8124
  550MOL0     H74227   1.477   2.502   9.040  3.5957 -4.3297 -0.1091
  550MOL0     H74228   1.702   2.651   9.179  0.2618  0.3907 -0.5290
  550MOL0     H74229   1.655   2.479   9.207 -1.8929  0.1401  1.2633
  550MOL0     H74230   1.468   2.716   9.300  1.2878  0.9761  1.2048
  550MOL0     H74231   1.580   2.631   9.403 -0.3254 -0.4560  1.0277
  550MOL0     H74232   2.305   2.778   8.745 -2.1373  0.3559  0.4388
  550MOL0     H74233   2.502   2.746   8.626 -1.5417 -0.5648  2.0924
  550MOL0     H74234   2.752   3.000   8.046  0.3645 -0.5169 -1.3197
  550MOL0     H74235   2.980   2.952   7.970  1.9767  0.2614  0.3902
  550MOL0     H74236   2.671   3.864   7.180 -0.8853  0.2916  0.9216
  550MOL0     H74237   2.523   4.095   7.191 -0.1464 -0.2358  0.7265
  550MOL0     H74238   2.310   4.386   7.155 -0.6068  3.6848  0.5101
  550MOL0     H74239   2.238   4.592   7.037 -1.2018  0.3257  0.9768
  550MOL0     H74240   1.834   4.601   6.852  1.0159 -1.9306  1.5293
  550MOL0     H74241   1.788   4.671   7.007  0.4117  1.9415  0.5246
  550MOL0     H74242   1.744   4.826   6.829 -1.1875 -1.4654  1.3569
  550MOL0     H74243   1.924   4.834   6.799 -0.5021  1.0240 -1.1405
  550MOL0     H74244   1.967   4.923   7.001 -0.1913 -0.2076  2.8465
  550MOL0     H74245   1.806   4.900   7.064 -1.9794  0.1764 -1.7393
  550MOL0     H74246   1.821   5.129   7.016 -2.7847  2.0682 -1.0074
  550MOL0     H74247   1.703   5.053   6.915 -0.1280 -0.7233  0.7838
  550MOL0     H74248   1.985   5.161   6.617 -1.6535  1.6053 -1.3369
  550MOL0     H74249   1.844   4.449   7.005  0.4955 -1.4156 -0.7097
  550MOL0     H74250   1.907   4.220   7.054 -1.7117  1.8872 -0.3099
  551MOL0     O74251   6.651   3.674   3.954  0.0260 -0.1201  0.0510
  551MOL0     C74252   6.664   3.793   3.971  0.5728 -0.1122  0.0969
  551MOL0     O74253   6.562   3.877   4.002 -0.0508  0.0589 -0.2886
  551MOL0     C74254   6.434   3.821   4.025 -0.2313  0.3225 -0.2827
  551MOL0     C74255   6.413   3.746   4.136  0.4735  0.0704 -0.3049
  551MOL0     C74256   6.294   3.688   4.170 -0.2639  0.1186  0.2361
  551MOL0     C74257   6.194   3.679   4.076 -0.8883  0.2428  0.8805
  551MOL0     O74258   6.088   3.597   4.085  0.1633  0.1982 -0.0835
  551MOL0     C74259   6.129   3.467   4.018 -0.4497  0.3146 -0.5974
  551MOL0     C74260   6.015   3.359   4.023  0.5747 -0.8458 -0.2924
  551MOL0     C74261   5.897   3.395   3.925 -0.6149  0.7257 -0.6615
  551MOL0     C74262   5.864   3.270   3.835 -0.3048  0.4437  0.0131
  551MOL0     C74263   5.720   3.271   3.787  0.1811 -0.0518  0.5219
  551MOL0     C74264   5.677   3.384   3.692  0.4066  0.1296 -0.5188
  551MOL0     C74265   5.530   3.378   3.669  0.1715 -0.4293 -0.1097
  551MOL0     C74266   5.482   3.490   3.575 -0.9760  0.2099 -0.1503
  551MOL0     N74267   5.380   3.444   3.486 -0.4967  0.0717 -0.4252
  551MOL0     C74268   5.363   3.472   3.353  0.3309  0.4180 -0.1062
  551MOL0     C74269   5.235   3.441   3.321 -0.8622 -0.1718 -0.5131
  551MOL0     C74270   5.164   3.466   3.191  0.3911  0.6791  0.6411
  551MOL0     C74271   5.127   3.331   3.121 -0.8380 -0.2597  1.0059
  551MOL0     C74272   5.095   3.369   2.973 -0.2672  0.0911  0.3817
  551MOL0     C74273   4.963   3.434   2.959 -0.2757  0.3104  0.6236
  551MOL0     O74274   4.939   3.467   2.827  0.3802 -0.0473 -0.2758
  551MOL0     C74275   4.812   3.515   2.808 -0.2151 -0.5236 -0.8371
  551MOL0     C74276   4.724   3.559   2.905 -0.2417 -1.2834  0.2272
  551MOL0     C74277   4.596   3.615   2.866 -0.3494 -0.1623  0.4601
  551MOL0     C74278   4.509   3.673   2.975 -0.8636  0.6937 -0.6714
  551MOL0     C74279   4.559   3.615   2.734  0.6864  0.7055  0.5048
  551MOL0     C74280   4.419   3.666   2.681  0.2005  0.0013 -0.0830
  551MOL0     O74281   4.416   3.697   2.546 -0.0389 -0.7159  0.2404
  551MOL0     C74282   4.297   3.706   2.480  0.1138 -0.0002  0.3626
  551MOL0     C74283   4.278   3.802   2.373 -0.0001  0.3667 -0.8146
  551MOL0     C74284   4.149   3.819   2.314 -0.3211 -0.4187  0.0798
  551MOL0     C74285   4.036   3.742   2.349  1.0636  0.0577  0.3834
  551MOL0     O74286   3.918   3.760   2.282 -0.6263  0.5144 -0.4524
  551MOL0     C74287   3.804   3.677   2.314  0.7778 -0.2068 -0.0157
  551MOL0     C74288   3.698   3.717   2.209 -0.0927  0.1078 -0.2551
  551MOL0     C74289   3.641   3.861   2.227 -0.2240  0.6939 -0.2878
  551MOL0     C74290   3.509   3.883   2.144  0.8025  0.7151 -0.2637
  551MOL0     C74291   3.480   4.034   2.153  0.0173  0.0876  0.4729
  551MOL0     C74292   3.426   4.077   2.286 -0.8746 -0.0950 -0.4642
  551MOL0     C74293   3.369   4.223   2.281  0.4236 -0.6271 -0.3404
  551MOL0     C74294   3.350   4.315   2.408  0.0455 -0.7164  0.6331
  551MOL0    Cl74295   3.238   4.223   2.523 -0.1685  0.1929 -0.0565
  551MOL0     C74296   4.057   3.642   2.453  0.6846 -0.1534 -0.0536
  551MOL0     C74297   4.180   3.630   2.517 -0.5330 -0.6675 -0.6158
  551MOL0     O74298   4.323   3.663   2.756 -0.5196 -0.1667 -0.1364
  551MOL0     C74299   4.653   3.586   2.638 -0.0052 -0.1134 -0.3712
  551MOL0     C74300   4.769   3.524   2.671  0.0166 -0.7787  0.4796
  551MOL0     N74301   5.178   3.383   3.434  0.1959  0.1006 -0.7833
  551MOL0     N74302   5.264   3.385   3.531 -0.8453 -0.6964 -0.0619
  551MOL0     C74303   6.212   3.758   3.955 -0.9533  0.0607 -1.6188
  551MOL0     C74304   6.332   3.828   3.924  0.7440 -0.0706  0.1421
  551MOL0     C74305   6.796   3.836   3.930  0.2369  0.0395 -1.2812
  551MOL0     C74306   6.841   3.966   3.970 -0.0835 -0.3257  0.2987
  551MOL0     C74307   6.959   4.004   3.925 -0.2556 -0.8071 -0.3550
  551MOL0     C74308   7.049   3.928   3.847  0.2359 -0.5007 -0.1524
  551MOL0     O74309   7.171   3.981   3.808  0.6939  0.0857 -0.2493
  551MOL0     C74310   7.267   3.891   3.744 -0.0565 -0.2646 -0.0891
  551MOL0     C74311   7.404   3.957   3.760 -0.1785 -0.4867 -0.5073
  551MOL0     C74312   7.501   3.863   3.692 -0.1849  0.9378 -0.6077
  551MOL0     C74313   7.647   3.914   3.708 -0.7141 -0.0010 -0.2406
  551MOL0     C74314   7.669   4.030   3.619  0.6151 -0.3314  0.0921
  551MOL0     C74315   7.690   4.125   3.547 -0.8072  0.3291  0.9631
  551MOL0     C74316   7.009   3.800   3.814  0.0760  0.3481 -0.3920
  551MOL0     C74317   6.882   3.760   3.851  0.4356 -0.2027  0.5142
  551MOL0     H74318   6.493   3.749   4.210  1.3722  1.4510 -1.2935
  551MOL0     H74319   6.274   3.624   4.255  1.7098 -2.6089 -1.1982
  551MOL0     H74320   6.156   3.493   3.915  1.3683  4.4076  0.6884
  551MOL0     H74321   6.224   3.432   4.060 -0.4578 -0.3359 -1.1096
  551MOL0     H74322   6.054   3.261   3.994  0.7239 -1.0348  0.5254
  551MOL0     H74323   5.978   3.348   4.125 -1.8054 -0.5013 -1.0575
  551MOL0     H74324   5.817   3.411   3.998  0.0133  2.1807 -0.2335
  551MOL0     H74325   5.914   3.489   3.872 -0.6600  2.4952  2.2053
  551MOL0     H74326   5.934   3.260   3.752  0.2908 -0.8271  0.6560
  551MOL0     H74327   5.872   3.180   3.895 -0.6072 -0.6102 -1.4692
  551MOL0     H74328   5.695   3.179   3.734  0.3484  1.8089 -3.0607
  551MOL0     H74329   5.661   3.278   3.879 -2.5515  2.3265 -1.2631
  551MOL0     H74330   5.702   3.481   3.735  2.3310 -0.1701 -0.8738
  551MOL0     H74331   5.733   3.376   3.598  2.8598  0.8965  0.7787
  551MOL0     H74332   5.493   3.283   3.630  0.7372 -1.5526  1.9414
  551MOL0     H74333   5.481   3.393   3.766 -4.5985 -1.4953 -2.0440
  551MOL0     H74334   5.565   3.520   3.511  1.2590  2.1686  3.3132
  551MOL0     H74335   5.451   3.580   3.629  2.1158  1.9257 -1.0207
  551MOL0     H74336   5.441   3.517   3.292  0.7199 -0.2611 -0.1215
  551MOL0     H74337   5.069   3.515   3.214 -1.9617 -1.2448 -3.7579
  551MOL0     H74338   5.221   3.531   3.123  0.6548  1.4045  1.5382
  551MOL0     H74339   5.043   3.275   3.164 -2.6812  0.5974 -1.2448
  551MOL0     H74340   5.212   3.263   3.133 -0.9150 -0.4979  0.2621
  551MOL0     H74341   5.075   3.275   2.919  0.6498  0.1046  0.0160
  551MOL0     H74342   5.170   3.426   2.919 -0.5626 -0.3642 -0.5350
  551MOL0     H74343   4.956   3.530   3.011 -1.6442  1.2860 -1.2728
  551MOL0     H74344   4.889   3.366   3.003 -0.9699 -1.4632 -2.9422
  551MOL0     H74345   4.746   3.556   3.012 -0.8918  0.1081  0.4234
  551MOL0     H74346   4.406   3.638   2.977 -0.2963 -1.0425  1.4237
  551MOL0     H74347   4.548   3.645   3.073 -0.3270 -2.9884 -1.8120
  551MOL0     H74348   4.508   3.782   2.987 -1.7376  0.5781  0.3432
  551MOL0     H74349   4.365   3.862   2.347 -0.4571  1.4614  0.1164
  551MOL0     H74350   4.148   3.896   2.237  3.0326 -2.4445 -2.2818
  551MOL0     H74351   3.826   3.571   2.298 -1.1171 -0.4395 -1.2790
  551MOL0     H74352   3.765   3.695   2.414 -0.0365 -0.6254 -0.2509
  551MOL0     H74353   3.736   3.711   2.106  0.5812  1.7698 -0.1328
  551MOL0     H74354   3.608   3.656   2.216 -1.1980  1.4698 -1.7036
  551MOL0     H74355   3.727   3.924   2.202  2.2240 -2.2933 -0.0296
  551MOL0     H74356   3.616   3.881   2.332  2.9321  2.5472  0.2354
  551MOL0     H74357   3.514   3.865   2.036 -0.6165 -0.9009 -0.1144
  551MOL0     H74358   3.428   3.821   2.184  2.1136 -0.7795  0.2026
  551MOL0     H74359   3.408   4.054   2.074  0.4740  0.6562  0.1910
  551MOL0     H74360   3.567   4.095   2.126 -1.1519  0.4485 -2.9993
  551MOL0     H74361   3.344   4.012   2.318  0.7865 -1.3059  1.5793
  551MOL0     H74362   3.510   4.082   2.355 -0.0304 -2.5511 -1.2090
  551MOL0     H74363   3.269   4.213   2.237 -0.4713  0.8165  1.2397
  551MOL0     H74364   3.427   4.274   2.204 -0.1484  1.2066  0.3995
  551MOL0     H74365   3.302   4.409   2.380  0.4541 -1.1533 -1.6903
  551MOL0     H74366   3.446   4.338   2.455 -0.7883  0.7648  1.7005
  551MOL0     H74367   3.976   3.580   2.490 -0.3244  2.4859  2.5559
  551MOL0     H74368   4.198   3.551   2.589  2.4173  1.3939  1.0945
  551MOL0     H74369   4.625   3.605   2.535 -1.3772  0.0316  0.0052
  551MOL0     H74370   4.842   3.491   2.598 -2.3196 -2.8591 -1.0639
  551MOL0     H74371   6.126   3.754   3.890 -2.4545  2.4973  0.0415
  551MOL0     H74372   6.343   3.874   3.826 -1.4333  0.6818  0.1854
  551MOL0     H74373   6.770   4.031   4.021 -1.6240 -0.5627 -1.4193
  551MOL0     H74374   6.992   4.096   3.972 -0.3783 -0.9401 -0.0029
  551MOL0     H74375   7.273   3.796   3.798  2.3864  0.3051  0.7831
  551MOL0     H74376   7.243   3.881   3.638  1.2461  1.1639 -0.5482
  551MOL0     H74377   7.410   3.972   3.869 -2.5955  3.1026 -0.7199
  551MOL0     H74378   7.406   4.057   3.715 -0.2757  0.0901  0.7172
  551MOL0     H74379   7.474   3.855   3.586  1.2356  1.0368 -0.9979
  551MOL0     H74380   7.489   3.767   3.743 -1.2842  2.4198  2.1140
  551MOL0     H74381   7.720   3.839   3.675 -2.0664 -1.9299  0.9197
  551MOL0     H74382   7.671   3.941   3.811 -2.1869 -1.7801  0.6349
  551MOL0     H74383   7.697   4.213   3.487  0.6767 -1.1932 -1.2278
  551MOL0     H74384   7.080   3.734   3.766  0.0649 -0.3306  0.4931
  551MOL0     H74385   6.864   3.654   3.840 -0.7342 -0.1303  1.5524
  552MOL0     O74386   1.681   4.719   4.778  0.5629 -0.1371  0.0790
  552MOL0     C74387   1.770   4.634   4.771  0.3213 -0.1260  0.1673
  552MOL0     O74388   1.763   4.517   4.705  0.5177  0.5439  0.7710
  552MOL0     C74389   1.645   4.473   4.646  0.4387 -0.6834  0.6880
  552MOL0     C74390   1.655   4.416   4.516 -0.1574 -0.2118 -0.3948
  552MOL0     C74391   1.546   4.364   4.446  0.3234  0.5741  0.1542
  552MOL0     C74392   1.421   4.391   4.496  0.1980 -0.7046  0.0766
  552MOL0     O74393   1.311   4.339   4.430 -0.3272 -0.2608  0.7952
  552MOL0     C74394   1.261   4.212   4.469 -0.4264 -0.4767  0.7011
  552MOL0     C74395   1.120   4.240   4.505  0.6092 -0.3073  0.1888
  552MOL0     C74396   1.039   4.303   4.385 -0.6966 -0.1300  0.4443
  552MOL0     C74397   0.893   4.338   4.425  0.0141 -0.5191 -1.0360
  552MOL0     C74398   0.814   4.386   4.301  0.1549 -0.2585  0.0539
  552MOL0     C74399   0.672   4.452   4.325 -0.5441 -0.3257 -0.8973
  552MOL0     C74400   0.589   4.351   4.417  0.1466 -0.7155 -0.5660
  552MOL0     C74401   0.442   4.377   4.405  1.0121 -1.1206  0.1848
  552MOL0     N74402   0.399   4.515   4.442 -0.3333  0.2157  0.3176
  552MOL0     C74403   0.289   4.533   4.525 -0.2346 -0.5895 -0.4642
  552MOL0     C74404   0.260   4.666   4.522 -0.7333 -0.5694  1.0126
  552MOL0     C74405   0.175   4.760   4.611 -0.9844  0.1491  0.3566
  552MOL0     C74406   0.229   4.899   4.632 -0.5133  0.4712  0.3393
  552MOL0     C74407   0.150   4.981   4.725  0.3741  0.3560 -1.3736
  552MOL0     C74408   0.031   5.054   4.663 -0.9188  0.2597  0.2930
  552MOL0     O74409  -0.037   5.119   4.781 -0.4161  0.0288 -0.8999
  552MOL0     C74410  -0.150   5.184   4.753 -0.0546  0.0850 -0.3965
  552MOL0     C74411  -0.201   5.256   4.855 -0.6320 -1.2574 -0.3001
  552MOL0     C74412  -0.301   5.355   4.836 -0.6463  0.8401  0.3006
  552MOL0     C74413  -0.359   5.422   4.957 -0.7414  0.1223 -0.0656
  552MOL0     C74414  -0.361   5.363   4.713 -0.6540  0.2723  0.9634
  552MOL0     C74415  -0.468   5.464   4.672 -0.0839  0.8132 -0.7287
  552MOL0     O74416  -0.452   5.593   4.725 -1.0586  0.5544  0.8292
  552MOL0     C74417  -0.548   5.681   4.697 -0.2158 -0.0371  0.1841
  552MOL0     C74418  -0.672   5.663   4.767  0.3671 -0.9021 -0.2390
  552MOL0     C74419  -0.786   5.739   4.732  0.5025 -0.4227 -0.0272
  552MOL0     C74420  -0.785   5.849   4.641 -0.5292  0.1939  0.0087
  552MOL0     O74421  -0.878   5.945   4.606  0.4431  0.4266 -0.5107
  552MOL0     C74422  -1.010   5.900   4.639  0.5247 -0.5305  0.3702
  552MOL0     C74423  -1.047   5.962   4.772 -0.6326 -0.0091  0.1722
  552MOL0     C74424  -1.180   5.922   4.828 -0.4720  0.7937 -0.0057
  552MOL0     C74425  -1.175   5.778   4.888 -0.7066  0.0998  0.3833
  552MOL0     C74426  -1.320   5.740   4.933  0.0388 -0.8285 -0.7383
  552MOL0     C74427  -1.374   5.838   5.041 -0.7471 -0.6389 -0.2645
  552MOL0     C74428  -1.513   5.802   5.092 -0.2642  0.2421 -0.2152
  552MOL0     C74429  -1.543   5.880   5.220  0.7418  0.6692 -0.1565
  552MOL0    Cl74430  -1.433   5.805   5.352 -0.6951 -0.0970 -0.1014
  552MOL0     C74431  -0.652   5.872   4.578  0.2768  0.3322 -0.3401
  552MOL0     C74432  -0.542   5.793   4.608 -0.0907 -0.6873 -0.9183
  552MOL0     O74433  -0.557   5.431   4.599 -0.2274  0.2395  0.3395
  552MOL0     C74434  -0.321   5.277   4.608  0.5449  0.3737  0.3094
  552MOL0     C74435  -0.220   5.179   4.629  0.8763 -0.7324  0.1162
  552MOL0     N74436   0.344   4.725   4.426 -0.4522  0.6900  0.6275
  552MOL0     N74437   0.429   4.638   4.388 -0.1184  0.5646  0.3408
  552MOL0     C74438   1.399   4.451   4.625 -0.1673 -0.2569  0.0987
  552MOL0     C74439   1.507   4.484   4.698 -0.2809 -0.3064 -0.7288
  552MOL0     C74440   1.904   4.686   4.815  0.0053 -0.4663 -0.1839
  552MOL0     C74441   2.021   4.611   4.814 -0.7016 -0.4486  0.5054
  552MOL0     C74442   2.139   4.677   4.854 -0.6412 -0.0102  0.2060
  552MOL0     C74443   2.139   4.812   4.896 -0.4223  0.0740  0.5355
  552MOL0     O74444   2.257   4.871   4.946 -0.1869 -0.1113 -0.8643
  552MOL0     C74445   2.341   4.800   5.044  0.4532 -0.3070 -0.1702
  552MOL0     C74446   2.286   4.713   5.163  0.2267  0.2890  0.7668
  552MOL0     C74447   2.210   4.791   5.268  0.0016  0.8262 -0.1058
  552MOL0     C74448   2.122   4.699   5.347  0.4511  0.9286 -0.2887
  552MOL0     C74449   2.008   4.649   5.250  0.0443  0.1334  0.1541
  552MOL0     C74450   1.916   4.621   5.181  0.0605 -1.1889  0.2491
  552MOL0     C74451   2.022   4.880   4.890 -0.0801  0.3767 -0.2744
  552MOL0     C74452   1.907   4.818   4.854  0.7305 -0.2359  0.5118
  552MOL0     H74453   1.758   4.401   4.486  1.3234 -0.2462  3.9744
  552MOL0     H74454   1.553   4.315   4.349  1.1871 -0.2222  0.6081
  552MOL0     H74455   1.262   4.138   4.389  0.2629  0.3833 -0.1159
  552MOL0     H74456   1.321   4.175   4.553  2.4435 -0.8933 -1.3867
  552MOL0     H74457   1.066   4.152   4.541  0.1144  0.0639  0.3715
  552MOL0     H74458   1.127   4.306   4.591  2.1035 -1.9532  1.3947
  552MOL0     H74459   1.100   4.384   4.344  1.8666 -0.1135  3.8744
  552MOL0     H74460   1.037   4.243   4.293  0.5098  1.4873 -0.7016
  552MOL0     H74461   0.847   4.251   4.472  0.9577 -0.5189 -0.0842
  552MOL0     H74462   0.889   4.416   4.502  0.6676 -2.2952  0.9098
  552MOL0     H74463   0.876   4.453   4.240 -1.3258  0.7359 -0.3984
  552MOL0     H74464   0.810   4.302   4.231 -0.2042  0.2770 -0.5866
  552MOL0     H74465   0.696   4.544   4.378 -1.1253  1.7750 -4.0205
  552MOL0     H74466   0.632   4.475   4.226  1.4842 -0.5727 -1.8265
  552MOL0     H74467   0.601   4.250   4.376 -0.5765 -0.8455 -0.4812
  552MOL0     H74468   0.614   4.339   4.523 -5.2476  1.1854  1.2460
  552MOL0     H74469   0.387   4.300   4.461  0.0630  0.5188  1.5755
  552MOL0     H74470   0.398   4.377   4.305 -0.3582 -0.6717  0.7722
  552MOL0     H74471   0.246   4.460   4.593 -0.0649 -0.0513  0.2413
  552MOL0     H74472   0.076   4.766   4.564 -2.1022 -1.0543  2.3925
  552MOL0     H74473   0.163   4.711   4.708  0.8537 -1.8033 -0.3248
  552MOL0     H74474   0.234   4.959   4.541  0.6548  0.7616  0.5820
  552MOL0     H74475   0.328   4.890   4.677  0.0053 -2.4996 -1.1522
  552MOL0     H74476   0.215   5.057   4.768 -1.7382  0.3175  2.2615
  552MOL0     H74477   0.104   4.913   4.797  1.0270  1.6446  0.3148
  552MOL0     H74478  -0.044   4.989   4.617  0.2813 -1.4156  0.6080
  552MOL0     H74479   0.061   5.127   4.588  1.4853 -0.8539  0.0824
  552MOL0     H74480  -0.153   5.239   4.950 -0.3581 -1.6814 -0.5117
  552MOL0     H74481  -0.465   5.401   4.967 -1.0293  1.8578  0.8405
  552MOL0     H74482  -0.307   5.393   5.049  1.1186 -0.2940 -1.1911
  552MOL0     H74483  -0.336   5.528   4.943 -0.1457  0.2662  1.6974
  552MOL0     H74484  -0.677   5.583   4.839  0.2219  1.0504  2.0474
  552MOL0     H74485  -0.874   5.722   4.792  1.5479  2.1879  2.5055
  552MOL0     H74486  -1.079   5.943   4.565 -1.2586  3.4817  3.9630
  552MOL0     H74487  -1.016   5.791   4.642 -0.1296 -0.4707  2.1569
  552MOL0     H74488  -0.979   5.931   4.851 -2.2940  1.0956  2.1173
  552MOL0     H74489  -1.047   6.071   4.767 -0.8336 -0.0542 -3.0427
  552MOL0     H74490  -1.258   5.931   4.751  0.4061  2.5056 -0.7600
  552MOL0     H74491  -1.206   5.987   4.911 -1.8527 -1.1339  1.1585
  552MOL0     H74492  -1.151   5.712   4.805  3.3241 -0.9128  2.1517
  552MOL0     H74493  -1.091   5.783   4.957 -0.1807  0.8389 -0.2784
  552MOL0     H74494  -1.325   5.644   4.985 -2.4588  0.4049  1.5819
  552MOL0     H74495  -1.384   5.731   4.845 -0.7261 -0.8297 -0.1981
  552MOL0     H74496  -1.305   5.835   5.126 -0.7353 -0.8338 -0.2809
  552MOL0     H74497  -1.378   5.937   4.997 -1.3153 -0.5907 -0.1057
  552MOL0     H74498  -1.514   5.696   5.122  3.8557  0.3538  0.8574
  552MOL0     H74499  -1.582   5.829   5.011  0.8749  2.0672 -0.6305
  552MOL0     H74500  -1.647   5.856   5.243  1.5290 -2.1763  0.8007
  552MOL0     H74501  -1.540   5.988   5.200 -2.4731  0.5900 -1.5440
  552MOL0     H74502  -0.643   5.961   4.516  1.0078 -0.4779 -1.4306
  552MOL0     H74503  -0.453   5.832   4.560  0.2287 -0.3140 -0.0484
  552MOL0     H74504  -0.369   5.286   4.511 -2.6114 -0.6815  1.6141
  552MOL0     H74505  -0.200   5.110   4.547  0.9415  0.4111 -0.8520
  552MOL0     H74506   1.295   4.467   4.652  0.1945  0.9737  0.8354
  552MOL0     H74507   1.490   4.530   4.795 -2.0281  1.4001 -1.7756
  552MOL0     H74508   2.020   4.515   4.764  1.4896  1.4196 -3.5699
  552MOL0     H74509   2.227   4.614   4.847 -0.6739  0.0697 -1.6852
  552MOL0     H74510   2.395   4.723   4.988  0.8360 -0.7747  0.8194
  552MOL0     H74511   2.422   4.863   5.081  0.9076 -0.0432 -1.5310
  552MOL0     H74512   2.367   4.654   5.208  0.5472  0.2566  0.1551
  552MOL0     H74513   2.214   4.643   5.119 -1.1535  2.5277 -0.7496
  552MOL0     H74514   2.140   4.858   5.217 -1.2468  1.4766  2.2809
  552MOL0     H74515   2.271   4.857   5.330  1.2283 -1.0964  0.8383
  552MOL0     H74516   2.074   4.742   5.435  0.2145  1.3956 -0.6420
  552MOL0     H74517   2.181   4.609   5.367  0.6645  1.2946  0.8134
  552MOL0     H74518   1.841   4.584   5.114  0.2928  0.6406 -1.0914
  552MOL0     H74519   2.018   4.988   4.895 -1.3123  0.3319  0.0100
  552MOL0     H74520   1.825   4.889   4.856  0.6697 -0.3290  1.7224
  553MOL0     O74521   2.124   6.051   5.655  0.1912 -0.0278 -1.0185
  553MOL0     C74522   2.012   6.027   5.624  0.2173  0.0245 -1.4773
  553MOL0     O74523   1.943   5.917   5.677 -0.2388  0.0437  0.1917
  553MOL0     C74524   1.972   5.839   5.785 -0.1042 -0.4228  0.0794
  553MOL0     C74525   1.876   5.740   5.800  0.2426  0.2700 -0.5220
  553MOL0     C74526   1.881   5.662   5.921 -0.5399  0.0970 -0.1366
  553MOL0     C74527   1.983   5.680   6.017 -0.0960  0.3538 -0.3812
  553MOL0     O74528   1.997   5.596   6.129 -0.1635  0.0989 -0.1564
  553MOL0     C74529   2.107   5.612   6.219  0.4901  0.5888  0.8580
  553MOL0     C74530   2.092   5.506   6.328 -0.3773  0.3228 -0.0151
  553MOL0     C74531   2.181   5.543   6.445 -0.1472 -0.3854 -0.0573
  553MOL0     C74532   2.162   5.431   6.560  0.8964 -0.1825  0.5468
  553MOL0     C74533   2.108   5.506   6.688  0.4066 -0.2885 -0.4554
  553MOL0     C74534   1.956   5.521   6.673  0.1880 -0.7018  0.3905
  553MOL0     C74535   1.899   5.615   6.788 -0.1986  0.2265 -0.1904
  553MOL0     C74536   1.876   5.756   6.744 -0.4319  0.1075 -0.5705
  553MOL0     N74537   1.821   5.839   6.850  0.3199 -0.4254  0.4142
  553MOL0     C74538   1.885   5.894   6.962  0.4863 -0.1194  0.5108
  553MOL0     C74539   1.788   5.943   7.046 -0.3641  0.1889  0.5828
  553MOL0     C74540   1.804   6.016   7.182  0.4531  0.2992  0.2677
  553MOL0     C74541   1.718   6.142   7.192 -0.3478 -0.4094 -0.3729
  553MOL0     C74542   1.754   6.256   7.106  0.4131  0.7738  0.3627
  553MOL0     C74543   1.660   6.370   7.122  0.2279  0.4093  0.1002
  553MOL0     O74544   1.646   6.418   7.257 -0.2424  0.4044  0.4872
  553MOL0     C74545   1.598   6.545   7.271  0.4942  0.7622 -0.3241
  553MOL0     C74546   1.494   6.598   7.194 -0.7408  1.2016 -0.2981
  553MOL0     C74547   1.463   6.734   7.191  0.6072 -0.4262  0.4498
  553MOL0     C74548   1.333   6.790   7.123 -0.2172  0.0215 -0.0862
  553MOL0     C74549   1.559   6.818   7.253  0.1791 -0.0599  0.3584
  553MOL0     C74550   1.557   6.966   7.240 -0.8504  0.1187  0.0764
  553MOL0     O74551   1.683   7.028   7.238  0.2305  0.0285  0.0183
  553MOL0     C74552   1.693   7.156   7.195 -0.1223 -1.5985  0.4232
  553MOL0     C74553   1.665   7.200   7.064 -0.0978 -0.1801 -0.4165
  553MOL0     C74554   1.671   7.334   7.026  0.0364 -0.4476 -0.1371
  553MOL0     C74555   1.700   7.436   7.125 -0.4739  0.5956 -0.5689
  553MOL0     O74556   1.693   7.575   7.105  0.2438 -0.0700 -0.1793
  553MOL0     C74557   1.814   7.640   7.148 -0.4197 -0.6614 -0.0201
  553MOL0     C74558   1.805   7.790   7.137 -0.0598  0.1030  0.9036
  553MOL0     C74559   1.943   7.861   7.146 -0.2097  0.0670  0.1813
  553MOL0     C74560   1.967   7.917   7.004 -0.2124 -0.0918  0.3822
  553MOL0     C74561   2.086   8.000   6.986 -0.0333  1.3179  0.5886
  553MOL0     C74562   2.069   8.142   7.045  0.5870 -0.0341 -0.1757
  553MOL0     C74563   2.185   8.230   7.007 -0.3691 -0.6958 -0.1004
  553MOL0     C74564   2.183   8.378   7.062 -0.4357  0.7968 -0.5110
  553MOL0    Cl74565   2.214   8.384   7.232 -0.6084  0.3508 -0.1925
  553MOL0     C74566   1.738   7.386   7.255  0.0679 -0.1998 -0.4383
  553MOL0     C74567   1.734   7.252   7.291 -0.9059 -0.7686  0.9951
  553MOL0     O74568   1.451   7.026   7.243  0.0314 -0.2601 -0.2865
  553MOL0     C74569   1.663   6.763   7.329  0.5626  0.1053  0.9649
  553MOL0     C74570   1.676   6.627   7.346 -0.5108  0.2810 -0.7847
  553MOL0     N74571   1.673   5.910   6.987 -0.4046  0.1923 -0.2559
  553MOL0     N74572   1.689   5.860   6.866 -0.6275 -1.0353 -0.5414
  553MOL0     C74573   2.078   5.773   5.991  0.0454 -1.7172 -0.2373
  553MOL0     C74574   2.079   5.850   5.875  0.0787 -0.1068 -0.3604
  553MOL0     C74575   1.941   6.117   5.533  0.2838 -0.5357  0.5342
  553MOL0     C74576   2.005   6.220   5.458 -0.4727 -0.2614 -0.2357
  553MOL0     C74577   1.934   6.287   5.359 -0.2979  0.6497  0.3582
  553MOL0     C74578   1.801   6.258   5.321 -0.5764  0.3194  0.7156
  553MOL0     O74579   1.766   6.330   5.205  0.1065  0.7817 -1.2388
  553MOL0     C74580   1.635   6.322   5.146 -0.7691  0.0982 -0.3253
  553MOL0     C74581   1.625   6.408   5.013 -0.0396  0.8822  0.2346
  553MOL0     C74582   1.487   6.412   4.940 -0.0090 -0.2222 -0.2639
  553MOL0     C74583   1.472   6.486   4.812  0.6595  0.3051 -0.1192
  553MOL0     C74584   1.531   6.622   4.827 -0.4992 -0.8622  0.7574
  553MOL0     C74585   1.591   6.728   4.821 -0.1381  0.0170 -0.5683
  553MOL0     C74586   1.740   6.155   5.391 -0.9133  0.5819 -0.6379
  553MOL0     C74587   1.807   6.097   5.502 -1.1916  1.0539 -0.1292
  553MOL0     H74588   1.795   5.737   5.728 -2.8498 -1.6685  2.7070
  553MOL0     H74589   1.805   5.588   5.945 -0.5247 -0.6454 -2.1248
  553MOL0     H74590   2.204   5.601   6.169  2.6174  1.2317  4.5137
  553MOL0     H74591   2.115   5.708   6.270  0.9795  1.0781 -0.1109
  553MOL0     H74592   1.991   5.508   6.370 -0.1146 -1.0766  0.7242
  553MOL0     H74593   2.109   5.402   6.299  0.2072 -0.5413  3.1021
  553MOL0     H74594   2.287   5.549   6.421  0.2613  0.7326  1.7965
  553MOL0     H74595   2.151   5.639   6.487 -1.2316 -0.4174 -0.7088
  553MOL0     H74596   2.091   5.357   6.523  1.8625 -0.0472 -1.7526
  553MOL0     H74597   2.261   5.389   6.577  1.0852  0.0219 -0.0056
  553MOL0     H74598   2.125   5.440   6.774 -0.4667 -2.8258 -2.1024
  553MOL0     H74599   2.157   5.602   6.709 -0.9890  0.5885 -1.0303
  553MOL0     H74600   1.939   5.570   6.578  0.2846 -0.6039  0.4237
  553MOL0     H74601   1.914   5.420   6.681 -1.5898  0.1404  3.0140
  553MOL0     H74602   1.807   5.577   6.835  1.7137 -0.4179  3.4427
  553MOL0     H74603   1.970   5.606   6.871 -0.2151 -1.7028 -0.3302
  553MOL0     H74604   1.813   5.753   6.655 -1.6918  3.3394  0.0617
  553MOL0     H74605   1.967   5.805   6.708  0.4516 -0.1847  1.1511
  553MOL0     H74606   1.993   5.901   6.972  0.8534  2.6832 -3.2720
  553MOL0     H74607   1.775   5.951   7.264 -4.3981  0.4429 -1.0277
  553MOL0     H74608   1.906   6.054   7.195  0.0263  2.3652 -1.7346
  553MOL0     H74609   1.726   6.184   7.292 -4.8661 -1.9479  0.8445
  553MOL0     H74610   1.613   6.120   7.175 -0.7350  0.3030  1.0110
  553MOL0     H74611   1.757   6.229   7.000  1.6980  2.7965 -0.1648
  553MOL0     H74612   1.852   6.298   7.131 -0.8396  3.0431  1.7743
  553MOL0     H74613   1.566   6.333   7.079 -0.1937 -0.1778  1.4898
  553MOL0     H74614   1.702   6.442   7.051  1.9048 -0.7956 -0.1801
  553MOL0     H74615   1.424   6.529   7.148  0.9418 -2.9093  2.7044
  553MOL0     H74616   1.343   6.889   7.077 -1.6037  0.0140 -0.4275
  553MOL0     H74617   1.287   6.715   7.058 -2.2294 -1.8720  3.2541
  553MOL0     H74618   1.261   6.808   7.203 -0.2763  0.2026 -0.1803
  553MOL0     H74619   1.627   7.129   6.991 -1.5949  1.7746 -1.6259
  553MOL0     H74620   1.649   7.363   6.924  1.3002 -2.1067 -0.9292
  553MOL0     H74621   1.819   7.632   7.257 -2.0871  0.4368  0.1775
  553MOL0     H74622   1.901   7.605   7.092 -1.4302 -2.5016 -0.5434
  553MOL0     H74623   1.743   7.809   7.049 -0.5073 -3.5809  0.2223
  553MOL0     H74624   1.745   7.826   7.221 -1.2013 -2.2841  1.1903
  553MOL0     H74625   2.023   7.799   7.188 -0.3534  0.5881  1.2605
  553MOL0     H74626   1.927   7.940   7.220 -0.3482  2.9722 -2.7280
  553MOL0     H74627   1.980   7.833   6.935  2.0315 -1.2733  2.1112
  553MOL0     H74628   1.882   7.977   6.969  0.9436  0.2529 -2.0473
  553MOL0     H74629   2.097   8.010   6.877 -2.9868 -1.7085 -0.1308
  553MOL0     H74630   2.176   7.956   7.029  0.6724  2.6450  0.5094
  553MOL0     H74631   1.979   8.189   7.004 -0.0083  2.2937  3.2907
  553MOL0     H74632   2.060   8.148   7.154 -0.0733  1.8336 -0.2928
  553MOL0     H74633   2.201   8.240   6.899 -0.2739 -0.4149 -0.0626
  553MOL0     H74634   2.277   8.189   7.050 -1.8579 -0.9042  3.1241
  553MOL0     H74635   2.081   8.413   7.043 -0.5517  0.9051  0.2514
  553MOL0     H74636   2.260   8.433   7.008  1.7215 -0.4600  1.1256
  553MOL0     H74637   1.753   7.459   7.334 -0.9543  0.1003 -0.5106
  553MOL0     H74638   1.764   7.214   7.388  2.4257  1.3146  0.9150
  553MOL0     H74639   1.733   6.834   7.371  1.7990  0.8416 -2.0330
  553MOL0     H74640   1.760   6.588   7.402 -0.1821  3.1564  0.9660
  553MOL0     H74641   2.138   5.806   6.074 -2.7651  0.1812  1.1885
  553MOL0     H74642   2.143   5.936   5.854 -3.5311  2.3680 -2.3107
  553MOL0     H74643   2.112   6.240   5.462 -0.4074 -0.7515  0.6070
  553MOL0     H74644   1.975   6.375   5.310 -1.4168  0.4986 -0.8920
  553MOL0     H74645   1.613   6.219   5.117  4.3743 -0.7145 -2.3791
  553MOL0     H74646   1.572   6.365   5.224 -0.7422 -2.7587  1.4429
  553MOL0     H74647   1.695   6.354   4.948 -0.8757 -0.5461  0.4822
  553MOL0     H74648   1.650   6.512   5.036  1.0808  0.4115  1.2509
  553MOL0     H74649   1.419   6.471   5.002  0.3845  1.8662 -1.7150
  553MOL0     H74650   1.454   6.308   4.933 -0.7680  0.0162 -0.2775
  553MOL0     H74651   1.369   6.485   4.774  0.5360 -0.0532  0.2159
  553MOL0     H74652   1.520   6.417   4.741  1.8428 -0.7112  1.5941
  553MOL0     H74653   1.633   6.826   4.830  0.1812 -0.2330  0.9698
  553MOL0     H74654   1.644   6.111   5.367 -2.4941  3.1063  0.5075
  553MOL0     H74655   1.760   6.016   5.556 -2.9108  1.5665 -0.7807
  554MOL0     O74656   4.669   9.056   1.082  0.6137 -0.0038  0.6105
  554MOL0     C74657   4.624   9.081   0.969  0.2008  0.3525 -0.7790
  554MOL0     O74658   4.696   9.120   0.862 -0.2403  0.2869  1.2065
  554MOL0     C74659   4.831   9.136   0.862 -0.6219 -0.2925 -0.6051
  554MOL0     C74660   4.917   9.140   0.972 -0.6773 -0.4573 -0.1257
  554MOL0     C74661   5.056   9.136   0.957  0.4240  0.4838 -0.1051
  554MOL0     C74662   5.117   9.125   0.836  0.5454  0.4128  0.9641
  554MOL0     O74663   5.252   9.115   0.827 -0.5687 -0.5480  0.3851
  554MOL0     C74664   5.341   9.109   0.716 -0.1480 -0.0572 -0.8226
  554MOL0     C74665   5.477   9.123   0.769  0.0244 -0.4023 -0.5913
  554MOL0     C74666   5.535   8.988   0.832 -0.4014  0.4614  0.7421
  554MOL0     C74667   5.667   9.019   0.888 -0.2124  1.0569  0.1041
  554MOL0     C74668   5.710   8.927   1.001 -0.3129 -0.3320 -0.6092
  554MOL0     C74669   5.865   8.935   1.009  0.7329  0.3000  0.2772
  554MOL0     C74670   5.903   8.866   1.137 -0.6532  0.0945  0.3523
  554MOL0     C74671   6.047   8.887   1.156 -0.3302  0.0569 -0.4805
  554MOL0     N74672   6.127   8.776   1.108  0.5434 -0.0112  0.6324
  554MOL0     C74673   6.176   8.663   1.159 -1.2439  0.2487  0.2350
  554MOL0     C74674   6.227   8.594   1.053  0.3558 -0.7843 -0.8662
  554MOL0     C74675   6.260   8.445   1.051  0.0364 -0.6070  0.0611
  554MOL0     C74676   6.396   8.416   0.985 -0.1544 -0.0874 -0.4301
  554MOL0     C74677   6.380   8.397   0.836 -0.6267 -0.2717  0.2178
  554MOL0     C74678   6.489   8.323   0.767  0.1016  0.1709  0.4236
  554MOL0     O74679   6.627   8.375   0.786  0.3242  0.3535 -0.6356
  554MOL0     C74680   6.730   8.286   0.756 -0.2594 -0.9742  1.2023
  554MOL0     C74681   6.720   8.169   0.672 -0.1117  0.0387 -0.5639
  554MOL0     C74682   6.837   8.093   0.647 -0.4800  1.1196 -0.3499
  554MOL0     C74683   6.829   7.967   0.565 -0.0044 -0.9033 -0.5127
  554MOL0     C74684   6.963   8.123   0.713  0.4606  0.2245 -1.0067
  554MOL0     C74685   7.093   8.052   0.682 -0.1577 -0.4700 -0.0605
  554MOL0     O74686   7.192   8.091   0.768 -0.1156  0.3320  0.3621
  554MOL0     C74687   7.309   8.019   0.778  0.5978 -0.7903 -0.6783
  554MOL0     C74688   7.398   8.094   0.857  0.9239 -0.1275 -0.0091
  554MOL0     C74689   7.519   8.038   0.894 -0.3352 -0.4808 -0.2168
  554MOL0     C74690   7.553   7.903   0.855 -0.1167  0.4788 -0.3871
  554MOL0     O74691   7.670   7.829   0.870 -0.0820 -0.7071 -0.2610
  554MOL0     C74692   7.790   7.908   0.891  0.0543 -0.0172 -0.0962
  554MOL0     C74693   7.910   7.836   0.823  0.6929 -0.3882  0.5417
  554MOL0     C74694   8.053   7.865   0.866  0.0257  0.0696  1.0652
  554MOL0     C74695   8.157   7.768   0.818 -0.1476  0.9657  0.2520
  554MOL0     C74696   8.289   7.797   0.878 -0.0542  0.4061  0.1839
  554MOL0     C74697   8.400   7.705   0.824 -0.4968  1.2176  0.8946
  554MOL0     C74698   8.528   7.742   0.897 -0.2668 -0.3994 -0.5745
  554MOL0     C74699   8.559   7.656   1.014  0.7320 -0.1423 -0.0148
  554MOL0    Cl74700   8.597   7.491   0.943 -0.5565 -0.2627  0.3023
  554MOL0     C74701   7.457   7.827   0.784 -1.4379  0.0391 -0.6644
  554MOL0     C74702   7.338   7.885   0.765  0.6240  0.8311 -1.1836
  554MOL0     O74703   7.106   7.981   0.591 -0.0023  0.1621  0.4676
  554MOL0     C74704   6.951   8.230   0.806 -0.4934 -1.1120  0.2080
  554MOL0     C74705   6.843   8.316   0.819 -0.2382 -1.2275  0.6115
  554MOL0     N74706   6.222   8.673   0.941  0.6336 -0.4673 -0.1183
  554MOL0     N74707   6.158   8.777   0.976 -0.5303 -0.5217 -0.5258
  554MOL0     C74708   5.039   9.126   0.720 -0.7135 -0.6770 -0.3428
  554MOL0     C74709   4.904   9.124   0.738  0.9058  0.0181  0.1209
  554MOL0     C74710   4.474   9.062   0.947  0.5472  0.1519 -0.4438
  554MOL0     C74711   4.398   9.015   1.051 -0.5160 -0.1066  0.3319
  554MOL0     C74712   4.261   9.000   1.039  0.2535 -0.2673  0.8539
  554MOL0     C74713   4.191   9.029   0.919 -0.6721  0.0067  0.5976
  554MOL0     O74714   4.056   9.016   0.911  0.2571 -0.4569  0.0525
  554MOL0     C74715   4.003   8.942   0.801 -0.0342 -0.7054 -0.0995
  554MOL0     C74716   3.860   9.003   0.787 -0.7499  0.0976 -0.6339
  554MOL0     C74717   3.763   8.927   0.886 -0.1610  0.1829  0.4074
  554MOL0     C74718   3.628   8.989   0.886 -0.1701 -0.9134  0.0575
  554MOL0     C74719   3.540   8.915   0.969 -0.4882  0.7194  0.9168
  554MOL0     C74720   3.463   8.826   1.003 -0.2362 -0.5045  0.3688
  554MOL0     C74721   4.269   9.085   0.812 -0.4185 -0.1370 -0.1299
  554MOL0     C74722   4.404   9.108   0.838 -0.6113  0.6405 -0.1865
  554MOL0     H74723   4.883   9.152   1.075  0.0215 -0.7011  0.1379
  554MOL0     H74724   5.112   9.159   1.047  1.7499  0.0376 -0.8010
  554MOL0     H74725   5.334   9.017   0.657  0.1218 -1.6792  1.5307
  554MOL0     H74726   5.323   9.200   0.658  2.0052  0.7244 -0.3345
  554MOL0     H74727   5.536   9.154   0.682  0.4087  2.2970  0.5332
  554MOL0     H74728   5.469   9.205   0.840 -1.0887 -1.4653  0.5651
  554MOL0     H74729   5.467   8.947   0.907  0.4362 -1.4689  0.5111
  554MOL0     H74730   5.538   8.918   0.748  2.6648  0.1935  0.9532
  554MOL0     H74731   5.746   9.020   0.812 -0.3291  0.7978 -0.0221
  554MOL0     H74732   5.673   9.120   0.930  0.4441  1.6060 -1.2259
  554MOL0     H74733   5.669   8.938   1.102  0.1502 -1.8460 -0.2328
  554MOL0     H74734   5.681   8.823   0.982 -1.3627  0.1459 -1.7394
  554MOL0     H74735   5.907   8.881   0.923 -2.0234 -1.0299 -0.3555
  554MOL0     H74736   5.898   9.039   1.006  0.8080  0.3611  2.3085
  554MOL0     H74737   5.867   8.926   1.221  0.3905  0.5992  0.4533
  554MOL0     H74738   5.876   8.760   1.132  0.8220 -0.2518 -1.0209
  554MOL0     H74739   6.066   8.893   1.264 -2.1700  0.1866 -0.1273
  554MOL0     H74740   6.085   8.977   1.107  1.6758  0.5108  1.7460
  554MOL0     H74741   6.163   8.647   1.266 -1.9315  2.2650  0.4972
  554MOL0     H74742   6.256   8.422   1.158 -2.9382  0.3195  0.2496
  554MOL0     H74743   6.175   8.394   1.005 -0.4315 -1.5018  1.8158
  554MOL0     H74744   6.437   8.325   1.030 -2.6389 -0.1931  1.8476
  554MOL0     H74745   6.471   8.492   1.007 -0.4506 -0.0043  0.3061
  554MOL0     H74746   6.379   8.497   0.791  0.5182 -1.2172 -2.0713
  554MOL0     H74747   6.295   8.330   0.817  0.6802 -2.1791  0.8415
  554MOL0     H74748   6.473   8.321   0.659  0.9108 -3.9339  0.2136
  554MOL0     H74749   6.473   8.219   0.797 -1.9886  0.8509  1.9375
  554MOL0     H74750   6.634   8.142   0.612  1.3938 -2.3549 -1.7809
  554MOL0     H74751   6.908   7.964   0.491 -0.9074 -4.0563 -1.5299
  554MOL0     H74752   6.843   7.883   0.635 -2.2645 -0.2582  0.8326
  554MOL0     H74753   6.730   7.963   0.518 -0.2604  0.2027 -0.0953
  554MOL0     H74754   7.384   8.194   0.898  0.3240 -1.4818  3.4291
  554MOL0     H74755   7.590   8.089   0.958  0.8204 -3.4951  1.1182
  554MOL0     H74756   7.780   8.008   0.849 -0.2275  0.5971  1.3760
  554MOL0     H74757   7.808   7.937   0.995 -1.8925  1.3339 -0.0738
  554MOL0     H74758   7.871   7.736   0.844 -1.3649  0.7190  2.5204
  554MOL0     H74759   7.894   7.840   0.715  1.9102  2.3045  0.3659
  554MOL0     H74760   8.062   7.859   0.975 -0.9895 -0.8994  1.1084
  554MOL0     H74761   8.065   7.967   0.828  1.3099 -0.1059  0.9423
  554MOL0     H74762   8.120   7.667   0.836 -2.6945  1.6106 -0.8937
  554MOL0     H74763   8.156   7.789   0.711 -0.7611  1.6981  0.3853
  554MOL0     H74764   8.280   7.781   0.986 -3.8862 -2.0016 -0.2781
  554MOL0     H74765   8.311   7.899   0.847  3.3659 -0.8109 -1.9573
  554MOL0     H74766   8.374   7.600   0.836  0.9188  0.8351  0.7683
  554MOL0     H74767   8.415   7.719   0.717 -0.2013 -0.7882  0.6469
  554MOL0     H74768   8.518   7.845   0.933  0.9758 -0.8282  1.1271
  554MOL0     H74769   8.614   7.759   0.831 -0.2346  2.2149  0.0235
  554MOL0     H74770   8.479   7.660   1.089  0.8960  2.9048  0.0978
  554MOL0     H74771   8.643   7.702   1.065 -0.5498  1.7740  0.4707
  554MOL0     H74772   7.477   7.722   0.767 -0.7935 -0.2019  1.3720
  554MOL0     H74773   7.253   7.824   0.735 -1.2741  1.6692  2.0809
  554MOL0     H74774   7.045   8.264   0.849 -0.2766  2.1835 -2.4960
  554MOL0     H74775   6.863   8.409   0.872 -1.4370  1.0129 -2.5480
  554MOL0     H74776   5.085   9.130   0.621  3.8342 -0.3358  1.5357
  554MOL0     H74777   4.840   9.109   0.652  0.2256 -0.4090  0.6873
  554MOL0     H74778   4.438   8.996   1.150  1.2168  0.9130 -0.1256
  554MOL0     H74779   4.209   8.960   1.126  0.2033  0.1444  1.0163
  554MOL0     H74780   4.045   8.963   0.702 -1.2513 -2.1945 -0.9693
  554MOL0     H74781   4.001   8.834   0.819 -0.5776 -0.6832 -0.0221
  554MOL0     H74782   3.823   8.991   0.685 -0.3882 -2.8140 -0.5032
  554MOL0     H74783   3.859   9.112   0.800  2.2891  0.3418 -1.7201
  554MOL0     H74784   3.804   8.945   0.986 -1.1918  1.3424  0.6630
  554MOL0     H74785   3.755   8.821   0.861  0.2497 -0.0182  1.0912
  554MOL0     H74786   3.588   8.991   0.785  0.0717  1.4560 -0.0457
  554MOL0     H74787   3.640   9.093   0.918 -3.0875 -0.3724 -0.2881
  554MOL0     H74788   3.417   8.740   1.046  0.7430 -0.8292  0.7950
  554MOL0     H74789   4.221   9.121   0.722  2.1028 -0.3871 -1.6636
  554MOL0     H74790   4.456   9.156   0.756  0.5157 -0.6050 -0.2319
  555MOL0     O74791   5.678   7.200   0.868  0.3981 -0.0080 -0.5131
  555MOL0     C74792   5.628   7.293   0.934  0.2207 -0.0042 -0.4193
  555MOL0     O74793   5.699   7.398   0.978  0.5350 -0.5400 -0.2707
  555MOL0     C74794   5.835   7.394   0.963 -0.8448 -0.7116  0.2013
  555MOL0     C74795   5.896   7.503   0.902  0.4797  0.2418  0.2511
  555MOL0     C74796   6.032   7.512   0.891  0.2923 -0.4916 -0.2974
  555MOL0     C74797   6.122   7.411   0.943 -0.3472 -0.6695 -0.4314
  555MOL0     O74798   6.262   7.410   0.940  0.7596 -0.1029  1.3768
  555MOL0     C74799   6.313   7.493   0.832  0.2951  0.3598 -0.4236
  555MOL0     C74800   6.465   7.457   0.809  0.4488  0.0616  0.0888
  555MOL0     C74801   6.568   7.527   0.897  0.3886  0.6575  0.0799
  555MOL0     C74802   6.716   7.483   0.879  0.4675  0.2472  0.0390
  555MOL0     C74803   6.802   7.508   1.001 -0.3925  0.5842  0.1172
  555MOL0     C74804   6.797   7.654   1.042 -0.2718  1.0099 -0.8892
  555MOL0     C74805   6.838   7.746   0.931 -0.4221  0.9357  0.1641
  555MOL0     C74806   6.865   7.881   0.991  0.0547 -0.2536 -0.3164
  555MOL0     N74807   6.738   7.937   1.031 -0.2772  0.1047 -0.0361
  555MOL0     C74808   6.718   8.018   1.138 -0.3319 -0.2185 -0.7928
  555MOL0     C74809   6.579   8.036   1.135 -0.5301 -0.9071  1.3038
  555MOL0     C74810   6.513   8.123   1.235  0.5591  0.1936  0.7894
  555MOL0     C74811   6.546   8.082   1.377 -0.0316  0.2924 -0.6428
  555MOL0     C74812   6.468   8.145   1.491  0.3283  0.2377 -0.4125
  555MOL0     C74813   6.478   8.295   1.499 -0.5471 -0.0646 -0.1941
  555MOL0     O74814   6.367   8.349   1.421  0.2800  0.0562  0.5154
  555MOL0     C74815   6.297   8.443   1.489 -0.4018  0.5061  0.4258
  555MOL0     C74816   6.163   8.445   1.463 -0.2143  0.6283  0.3125
  555MOL0     C74817   6.077   8.551   1.495  0.5794 -0.2093 -0.1142
  555MOL0     C74818   5.930   8.542   1.448  0.1790  0.2988 -0.7936
  555MOL0     C74819   6.122   8.638   1.598  0.0730 -0.8428 -0.5616
  555MOL0     C74820   6.035   8.760   1.647  0.2537  0.4932 -0.6312
  555MOL0     O74821   6.094   8.840   1.741  0.0227 -0.5766 -0.3466
  555MOL0     C74822   6.016   8.930   1.806  0.7819  1.1177  0.4511
  555MOL0     C74823   5.916   8.900   1.899 -0.0860 -0.6124  0.0282
  555MOL0     C74824   5.829   9.000   1.951  0.4502 -0.2479 -0.7415
  555MOL0     C74825   5.844   9.133   1.911 -0.0487  0.6138 -0.0805
  555MOL0     O74826   5.777   9.240   1.961 -0.0431  0.1512 -0.6989
  555MOL0     C74827   5.673   9.224   2.065  0.7045 -0.0026  1.2153
  555MOL0     C74828   5.537   9.183   1.989  0.1999  0.4692 -0.4053
  555MOL0     C74829   5.422   9.166   2.099 -0.5653 -0.8549  0.0163
  555MOL0     C74830   5.308   9.099   2.022 -0.1314 -0.0030 -0.1643
  555MOL0     C74831   5.234   9.213   1.958  0.2302 -0.1171 -0.5180
  555MOL0     C74832   5.100   9.170   1.907  0.1662  0.2768 -0.1674
  555MOL0     C74833   5.010   9.289   1.854 -0.8587 -0.3671 -0.6337
  555MOL0     C74834   4.859   9.255   1.854 -0.2360  0.3034  1.1762
  555MOL0    Cl74835   4.773   9.225   2.014  0.4674 -0.3422 -0.2460
  555MOL0     C74836   5.950   9.169   1.820  0.7693  0.5077 -0.0584
  555MOL0     C74837   6.029   9.058   1.760  0.3666  0.7647 -0.1670
  555MOL0     O74838   5.923   8.778   1.604  0.1525 -0.1616  0.8733
  555MOL0     C74839   6.254   8.632   1.639 -0.1993 -0.6126 -0.0467
  555MOL0     C74840   6.342   8.544   1.576 -0.0946 -0.5066 -0.4654
  555MOL0     N74841   6.519   7.974   1.025  0.7801 -0.2787 -0.5237
  555MOL0     N74842   6.623   7.906   0.975  0.0128 -0.0692 -0.3353
  555MOL0     C74843   6.058   7.301   1.003 -0.2964 -0.7477 -0.8228
  555MOL0     C74844   5.922   7.297   1.026  0.3376 -0.1419  0.2980
  555MOL0     C74845   5.478   7.295   0.950  0.5571  0.0104 -0.5725
  555MOL0     C74846   5.421   7.406   1.013  0.2296  0.0704  0.2173
  555MOL0     C74847   5.281   7.430   1.009 -0.6734  0.0839 -0.4944
  555MOL0     C74848   5.201   7.337   0.954  0.2843 -0.1099 -0.9731
  555MOL0     O74849   5.066   7.356   0.925 -0.0353  0.2957 -0.1925
  555MOL0     C74850   4.990   7.471   0.965  0.8043 -0.3930 -0.3096
  555MOL0     C74851   4.954   7.438   1.122  0.7187 -1.4280  0.7572
  555MOL0     C74852   4.835   7.522   1.179  0.2619 -0.8230 -0.3427
  555MOL0     C74853   4.793   7.486   1.317  0.1233 -0.8290 -1.1498
  555MOL0     C74854   4.754   7.341   1.330 -0.0402  0.8629  0.0592
  555MOL0     C74855   4.706   7.230   1.336 -0.5381 -0.6746 -0.0078
  555MOL0     C74856   5.249   7.212   0.908  0.2885  0.0538  0.4313
  555MOL0     C74857   5.393   7.197   0.899 -0.2015  0.3571  0.0343
  555MOL0     H74858   5.825   7.571   0.855 -1.8773 -2.0349  0.2926
  555MOL0     H74859   6.082   7.590   0.834 -1.9078  1.1529 -0.0943
  555MOL0     H74860   6.254   7.470   0.743  0.6457 -0.4077 -0.4584
  555MOL0     H74861   6.300   7.590   0.880 -0.8805 -1.6855  3.8740
  555MOL0     H74862   6.475   7.349   0.801 -3.8227 -0.3676 -3.1497
  555MOL0     H74863   6.486   7.486   0.705  2.9704  0.7439  0.7317
  555MOL0     H74864   6.568   7.634   0.875  1.5510  0.4561 -1.0072
  555MOL0     H74865   6.539   7.513   1.002 -1.2407  1.1388 -0.2754
  555MOL0     H74866   6.719   7.374   0.865 -3.7829 -0.5093  3.0221
  555MOL0     H74867   6.763   7.527   0.790 -1.2204 -0.1231 -1.0925
  555MOL0     H74868   6.762   7.442   1.079 -0.8349  0.8915  0.1485
  555MOL0     H74869   6.906   7.478   0.983 -0.2693 -0.8278  2.7045
  555MOL0     H74870   6.693   7.672   1.074 -0.3447 -0.3992 -0.2774
  555MOL0     H74871   6.868   7.662   1.125  1.6482  0.0185 -2.3842
  555MOL0     H74872   6.930   7.705   0.891 -1.6959 -1.8143 -0.1640
  555MOL0     H74873   6.764   7.741   0.850 -0.6631  2.1764  0.2898
  555MOL0     H74874   6.910   7.952   0.921 -1.4080  1.0785  0.0277
  555MOL0     H74875   6.928   7.861   1.078  0.6102  2.2228 -0.0613
  555MOL0     H74876   6.802   8.052   1.199 -1.4128  1.7855 -0.3347
  555MOL0     H74877   6.550   8.226   1.224  0.2096  0.2696  0.3288
  555MOL0     H74878   6.407   8.137   1.215  1.2531  1.6017 -2.6543
  555MOL0     H74879   6.650   8.104   1.405 -0.8635 -0.3473  3.4501
  555MOL0     H74880   6.535   7.973   1.374  2.2442  0.0191 -1.4097
  555MOL0     H74881   6.508   8.113   1.588  2.8773  1.5786 -0.9378
  555MOL0     H74882   6.364   8.111   1.492 -0.1331  1.5342 -1.7135
  555MOL0     H74883   6.577   8.321   1.461 -1.0271 -0.3068 -1.6683
  555MOL0     H74884   6.471   8.327   1.604  3.7126 -2.5490  1.0632
  555MOL0     H74885   6.118   8.366   1.405 -0.6374  3.1731 -3.1503
  555MOL0     H74886   5.909   8.446   1.399 -1.4412 -0.2074  0.7600
  555MOL0     H74887   5.858   8.547   1.530 -0.9251  0.6048 -1.7522
  555MOL0     H74888   5.907   8.622   1.377 -1.7420 -0.3546 -0.9690
  555MOL0     H74889   5.895   8.795   1.913 -0.1713 -0.5370  0.4741
  555MOL0     H74890   5.750   8.955   2.010 -0.5662 -0.8301 -2.4480
  555MOL0     H74891   5.696   9.153   2.146  0.0808 -0.5586  0.9078
  555MOL0     H74892   5.661   9.325   2.105 -2.7548  0.2363 -0.1538
  555MOL0     H74893   5.507   9.265   1.923  1.9742  1.7172  0.2538
  555MOL0     H74894   5.549   9.085   1.943  0.5479  1.9509 -3.7718
  555MOL0     H74895   5.397   9.258   2.152 -1.0764  0.2356 -2.0374
  555MOL0     H74896   5.456   9.087   2.167 -0.1573 -1.2920 -0.6821
  555MOL0     H74897   5.344   9.021   1.954 -0.5969 -1.3666  1.1151
  555MOL0     H74898   5.238   9.052   2.092  1.5153 -1.4059  0.5976
  555MOL0     H74899   5.288   9.252   1.872  1.7409  0.7021  0.7506
  555MOL0     H74900   5.229   9.300   2.024  2.0669 -0.4288  0.0671
  555MOL0     H74901   5.122   9.090   1.836  0.4956 -0.3963  0.6846
  555MOL0     H74902   5.038   9.123   1.984 -0.2482  1.0871  0.0112
  555MOL0     H74903   5.039   9.331   1.757  2.6677  1.2722  0.9477
  555MOL0     H74904   5.025   9.377   1.917  2.4865  0.4122 -2.3156
  555MOL0     H74905   4.843   9.167   1.791 -2.1639 -0.5519  2.7507
  555MOL0     H74906   4.803   9.333   1.802 -2.6646 -1.1197  1.5409
  555MOL0     H74907   5.959   9.270   1.782  1.7761  1.0210  1.4374
  555MOL0     H74908   6.099   9.087   1.683 -0.8023  2.7160 -0.5589
  555MOL0     H74909   6.301   8.703   1.706 -0.0640 -1.4421  0.7539
  555MOL0     H74910   6.449   8.556   1.591 -0.0874  0.1938 -1.0277
  555MOL0     H74911   6.111   7.223   1.056 -2.3922 -0.1470  2.4453
  555MOL0     H74912   5.868   7.241   1.102 -3.2502 -1.6478 -2.9940
  555MOL0     H74913   5.485   7.471   1.070 -0.6814  2.0404 -0.9016
  555MOL0     H74914   5.238   7.521   1.049  2.3243  0.6087  1.9168
  555MOL0     H74915   5.048   7.562   0.954 -1.1564  0.8085 -1.1935
  555MOL0     H74916   4.894   7.472   0.912  0.1680 -0.9508  0.7807
  555MOL0     H74917   5.041   7.463   1.183  2.0015 -2.5730 -0.5260
  555MOL0     H74918   4.943   7.331   1.140  1.5725 -2.1857 -2.5343
  555MOL0     H74919   4.748   7.520   1.112 -0.5282 -0.0706  0.6264
  555MOL0     H74920   4.871   7.625   1.177 -2.8543  0.4638  1.4263
  555MOL0     H74921   4.722   7.561   1.352 -1.9035 -2.4331 -1.6546
  555MOL0     H74922   4.882   7.501   1.380 -1.0055  2.1346 -0.1034
  555MOL0     H74923   4.666   7.131   1.344 -0.9713 -0.3718  2.4040
  555MOL0     H74924   5.182   7.141   0.862  0.7292 -0.7161  0.9680
  555MOL0     H74925   5.441   7.130   0.829 -0.2065 -0.1002  0.4692
  556MOL0     O74926   5.053   0.602   7.616  0.2620  0.0510  0.5011
  556MOL0     C74927   4.954   0.668   7.579  0.1243 -0.6362  0.2426
  556MOL0     O74928   4.935   0.804   7.599 -0.5560  0.5184 -0.3388
  556MOL0     C74929   5.035   0.887   7.644  0.2543 -0.2067  0.0742
  556MOL0     C74930   5.128   0.852   7.742  0.7452 -0.2810  0.0312
  556MOL0     C74931   5.215   0.955   7.783 -0.5981  0.4545  0.1908
  556MOL0     C74932   5.209   1.083   7.741 -0.8022  0.8072  1.1885
  556MOL0     O74933   5.302   1.169   7.791  0.2483  0.2153 -0.4276
  556MOL0     C74934   5.256   1.305   7.784 -0.3368  0.0372  0.2720
  556MOL0     C74935   5.346   1.395   7.871 -0.5500 -0.2433 -0.2750
  556MOL0     C74936   5.315   1.544   7.862  0.0797  0.0681  0.1697
  556MOL0     C74937   5.402   1.636   7.943  0.3054 -0.7357 -0.6023
  556MOL0     C74938   5.399   1.781   7.895 -0.1565  0.2215 -0.3847
  556MOL0     C74939   5.269   1.846   7.934 -0.2946 -0.2460  0.0324
  556MOL0     C74940   5.263   2.003   7.924  0.3285 -0.4574  0.4110
  556MOL0     C74941   5.123   2.063   7.971  0.3597  0.0657  0.6761
  556MOL0     N74942   5.109   2.202   7.926  0.6652  0.6143  0.0943
  556MOL0     C74943   5.184   2.313   7.955  0.2841  1.0501  0.0375
  556MOL0     C74944   5.128   2.410   7.893 -0.1224  0.2858 -0.1060
  556MOL0     C74945   5.162   2.557   7.894  1.2314  0.5734  0.0823
  556MOL0     C74946   5.087   2.638   8.001 -0.0164  0.8354 -1.0008
  556MOL0     C74947   5.095   2.791   7.986  0.0664  0.0475  0.0307
  556MOL0     C74948   5.224   2.852   8.016 -0.1228  1.5014  0.2766
  556MOL0     O74949   5.228   2.994   8.003  0.3899  0.9723 -0.2481
  556MOL0     C74950   5.179   3.053   8.119  0.6505  0.1795  0.1437
  556MOL0     C74951   5.049   3.111   8.103  0.3318 -1.2900 -0.1416
  556MOL0     C74952   4.998   3.175   8.217  0.4957  0.4791  1.2118
  556MOL0     C74953   4.877   3.250   8.187  0.3006  0.0537 -0.4407
  556MOL0     C74954   5.065   3.188   8.337 -1.7307  0.5144 -0.9092
  556MOL0     C74955   5.009   3.275   8.447  0.2975 -0.3769  0.3697
  556MOL0     O74956   4.881   3.277   8.470  0.5154 -0.1820 -0.0819
  556MOL0     C74957   4.825   3.325   8.586 -0.3861 -0.2888  0.0911
  556MOL0     C74958   4.705   3.397   8.578  0.6797  0.0493 -0.6519
  556MOL0     C74959   4.644   3.446   8.693  0.2894  0.0377  0.1927
  556MOL0     C74960   4.690   3.409   8.821 -0.0038 -1.4259  0.4135
  556MOL0     O74961   4.622   3.441   8.931  0.2943  0.3876  0.0807
  556MOL0     C74962   4.631   3.352   9.050 -0.0643  0.1783  0.5818
  556MOL0     C74963   4.598   3.200   9.021 -1.2266  0.0839 -0.6541
  556MOL0     C74964   4.668   3.118   9.135  0.7495  0.1068  0.0742
  556MOL0     C74965   4.635   2.967   9.123 -0.4534 -0.1723 -0.4743
  556MOL0     C74966   4.731   2.882   9.211 -0.1205  0.6979 -0.0181
  556MOL0     C74967   4.695   2.734   9.194  0.1093  0.9521 -0.2436
  556MOL0     C74968   4.805   2.638   9.229  0.8250 -0.1130 -0.6862
  556MOL0     C74969   4.748   2.501   9.254 -0.1093  0.7639 -0.0627
  556MOL0    Cl74970   4.881   2.394   9.296 -0.3491 -0.3717 -0.1084
  556MOL0     C74971   4.811   3.340   8.829 -0.5195 -0.2484  0.5755
  556MOL0     C74972   4.880   3.295   8.714  0.8803  0.1290  1.6291
  556MOL0     O74973   5.088   3.334   8.511 -0.6083 -0.1607  0.2366
  556MOL0     C74974   5.201   3.139   8.343  0.0930 -0.6771 -0.3014
  556MOL0     C74975   5.257   3.067   8.238  1.2657 -1.1729  1.0725
  556MOL0     N74976   5.027   2.368   7.823  1.0916 -0.1036  0.1438
  556MOL0     N74977   5.021   2.240   7.831 -1.1182 -0.1942 -0.0191
  556MOL0     C74978   5.120   1.112   7.631 -0.2817 -0.1325 -0.4435
  556MOL0     C74979   5.032   1.017   7.591  0.4499 -0.1064  0.8801
  556MOL0     C74980   4.843   0.597   7.512 -0.9119  0.2096 -0.6539
  556MOL0     C74981   4.737   0.668   7.452 -0.6681 -0.6370  0.3673
  556MOL0     C74982   4.634   0.597   7.383  0.1311  0.9759  0.5081
  556MOL0     C74983   4.628   0.456   7.384 -0.0717  0.1193 -0.6112
  556MOL0     O74984   4.535   0.376   7.323  0.2834  0.1217  0.5695
  556MOL0     C74985   4.405   0.435   7.312  1.2534 -0.5846 -0.7947
  556MOL0     C74986   4.374   0.464   7.166  0.7987 -0.7550  0.9309
  556MOL0     C74987   4.225   0.484   7.133 -0.1800  0.0047 -0.6397
  556MOL0     C74988   4.193   0.631   7.155  0.5327  0.5652  1.0194
  556MOL0     C74989   4.047   0.663   7.140 -0.1890 -0.3778  0.2333
  556MOL0     C74990   3.927   0.680   7.139  0.2898  0.1379  0.1938
  556MOL0     C74991   4.739   0.391   7.446  0.5820  0.0567  1.0796
  556MOL0     C74992   4.847   0.460   7.501  0.0870 -0.7175 -0.1343
  556MOL0     H74993   5.135   0.764   7.805  3.3125  0.1770  0.4650
  556MOL0     H74994   5.286   0.942   7.864 -1.3413  1.7685  1.1000
  556MOL0     H74995   5.261   1.342   7.681  3.6044 -0.2739  0.2070
  556MOL0     H74996   5.155   1.318   7.823 -0.8363  0.9480 -1.2326
  556MOL0     H74997   5.339   1.363   7.975  1.3608 -0.9550 -0.3098
  556MOL0     H74998   5.448   1.366   7.842 -0.4102 -1.0890  0.9686
  556MOL0     H74999   5.313   1.581   7.759  0.1065 -2.6196 -0.8746
  556MOL0     H75000   5.214   1.557   7.902 -0.9899 -1.8000 -1.6872
  556MOL0     H75001   5.359   1.640   8.043 -0.1806  1.8246 -0.8495
  556MOL0     H75002   5.504   1.596   7.937  1.4601  2.0826 -1.1366
  556MOL0     H75003   5.472   1.831   7.960 -2.0614  2.3724  0.2088
  556MOL0     H75004   5.408   1.791   7.786 -0.9227 -1.8721 -0.6829
  556MOL0     H75005   5.184   1.803   7.879  0.0255  1.9834 -2.4435
  556MOL0     H75006   5.250   1.824   8.039  1.3149  1.3077  0.6950
  556MOL0     H75007   5.341   2.053   7.982 -1.0812  1.7190  0.5272
  556MOL0     H75008   5.276   2.029   7.818 -1.1654  1.1645  0.5895
  556MOL0     H75009   5.106   2.062   8.079 -0.8231  1.6942  0.5446
  556MOL0     H75010   5.057   1.988   7.925  2.4862 -0.3041 -2.0096
  556MOL0     H75011   5.278   2.311   8.010  1.5419 -5.8439 -1.4240
  556MOL0     H75012   5.267   2.573   7.923  1.5312 -3.3653  1.7667
  556MOL0     H75013   5.136   2.594   7.794 -1.5564  1.0177  0.8858
  556MOL0     H75014   5.120   2.616   8.103 -2.0068 -0.5067 -0.5850
  556MOL0     H75015   4.981   2.614   7.987  0.0875  0.6598 -1.4831
  556MOL0     H75016   5.014   2.840   8.041  0.5622  2.1054 -0.9514
  556MOL0     H75017   5.059   2.822   7.887 -2.7507  0.7866  1.1865
  556MOL0     H75018   5.293   2.816   7.940  0.2251  2.1017  0.3015
  556MOL0     H75019   5.256   2.812   8.113 -1.2464  1.5869  0.6986
  556MOL0     H75020   4.992   3.102   8.012  0.4690  2.4515 -0.7250
  556MOL0     H75021   4.823   3.207   8.103 -3.2763  1.1142  1.1138
  556MOL0     H75022   4.803   3.244   8.269  0.7564  2.7235  0.2553
  556MOL0     H75023   4.897   3.357   8.184  0.2663  0.0294 -1.6711
  556MOL0     H75024   4.646   3.403   8.487 -1.6162 -2.4923  0.5269
  556MOL0     H75025   4.547   3.486   8.666  1.5386  1.0671 -3.3396
  556MOL0     H75026   4.726   3.361   9.103 -0.3941 -2.8714  1.8960
  556MOL0     H75027   4.558   3.396   9.118 -1.8478  2.2247 -2.4221
  556MOL0     H75028   4.490   3.195   9.041 -1.0417 -0.6393  0.2173
  556MOL0     H75029   4.620   3.148   8.927  2.2320 -2.1204  1.1781
  556MOL0     H75030   4.633   3.162   9.229  3.6175 -2.5590  2.6432
  556MOL0     H75031   4.777   3.131   9.131  0.7720 -0.2953 -1.4001
  556MOL0     H75032   4.529   2.959   9.152 -0.2054  1.9433  1.2472
  556MOL0     H75033   4.653   2.950   9.017  0.3282 -0.0110 -0.3688
  556MOL0     H75034   4.712   2.895   9.318 -0.4981 -2.3523  0.3767
  556MOL0     H75035   4.838   2.903   9.197  0.1311  0.5296  1.4514
  556MOL0     H75036   4.606   2.702   9.249  0.3203 -3.6088 -2.0354
  556MOL0     H75037   4.666   2.717   9.090 -1.6355  3.6109 -0.3019
  556MOL0     H75038   4.860   2.666   9.319 -1.0396 -0.0949  0.5063
  556MOL0     H75039   4.886   2.635   9.156 -0.8405 -1.4469 -2.5895
  556MOL0     H75040   4.691   2.462   9.170  3.5192 -2.7210 -1.2380
  556MOL0     H75041   4.687   2.509   9.344  0.6612 -0.8666  0.6337
  556MOL0     H75042   4.854   3.324   8.928 -1.0636  0.4002  0.9309
  556MOL0     H75043   4.965   3.229   8.703 -0.3791 -1.1053 -2.6811
  556MOL0     H75044   5.259   3.165   8.431 -1.0504  0.4742  0.1608
  556MOL0     H75045   5.356   3.024   8.247  1.5759 -1.7753 -3.2002
  556MOL0     H75046   5.117   1.211   7.586  2.0387  0.7249  1.1010
  556MOL0     H75047   4.965   1.036   7.508  0.7330  0.0922  0.6955
  556MOL0     H75048   4.732   0.776   7.453  2.1874 -0.1870 -3.8977
  556MOL0     H75049   4.543   0.636   7.337 -0.2672 -3.7801 -3.5565
  556MOL0     H75050   4.334   0.358   7.344  1.9550 -1.0844 -0.4298
  556MOL0     H75051   4.383   0.512   7.385  1.0414 -0.9253 -0.4970
  556MOL0     H75052   4.408   0.378   7.109  1.9220 -0.2384  0.8079
  556MOL0     H75053   4.439   0.547   7.140  0.8127 -1.0389  0.0151
  556MOL0     H75054   4.167   0.412   7.191  2.5612 -0.2565  2.1183
  556MOL0     H75055   4.221   0.455   7.028 -0.5702  0.7865 -0.8489
  556MOL0     H75056   4.243   0.685   7.075 -0.1182 -0.1998  0.0706
  556MOL0     H75057   4.223   0.685   7.245  4.0018  1.6204 -0.6102
  556MOL0     H75058   3.820   0.677   7.132  0.2014  1.9037  0.4003
  556MOL0     H75059   4.728   0.283   7.444 -4.5469  0.3224 -0.5983
  556MOL0     H75060   4.931   0.402   7.536  1.6496 -0.2502 -2.8607
  557MOL0     O75061   1.570   8.524   1.425 -0.8439 -0.2205 -0.0784
  557MOL0     C75062   1.652   8.438   1.392 -1.0706 -0.3420  0.2956
  557MOL0     O75063   1.647   8.347   1.283 -0.2610 -0.1737  1.0588
  557MOL0     C75064   1.540   8.333   1.201 -0.6028 -0.1927  0.0640
  557MOL0     C75065   1.563   8.296   1.068 -0.1168  1.2304  0.5545
  557MOL0     C75066   1.465   8.273   0.974 -0.0642 -0.2832 -0.3701
  557MOL0     C75067   1.330   8.294   1.006 -0.5560  0.0157 -0.4504
  557MOL0     O75068   1.239   8.277   0.900 -0.2896  0.3343 -0.1939
  557MOL0     C75069   1.106   8.259   0.914  1.2253 -0.5142 -0.8858
  557MOL0     C75070   1.053   8.401   0.899 -0.3476 -0.0440 -0.7695
  557MOL0     C75071   0.895   8.417   0.917  0.9128 -0.6578  0.1223
  557MOL0     C75072   0.839   8.496   0.802 -0.8882  0.1447  0.1821
  557MOL0     C75073   0.691   8.507   0.799  0.5108  0.3561  0.2949
  557MOL0     C75074   0.636   8.621   0.701 -0.4874  1.5192  0.4220
  557MOL0     C75075   0.488   8.605   0.665 -0.9185 -0.0820  0.6018
  557MOL0     C75076   0.419   8.737   0.601  0.2921 -0.0238  0.2125
  557MOL0     N75077   0.304   8.699   0.527  0.4458 -0.1106 -0.3185
  557MOL0     C75078   0.188   8.658   0.579  0.5334 -0.6008  0.0953
  557MOL0     C75079   0.106   8.629   0.473 -0.4575 -0.3988 -0.5639
  557MOL0     C75080  -0.011   8.543   0.474  0.0864  0.3378 -0.9173
  557MOL0     C75081  -0.129   8.579   0.396  0.1924 -0.0503  0.3746
  557MOL0     C75082  -0.111   8.537   0.250  0.4003  0.1859  0.0039
  557MOL0     C75083  -0.243   8.574   0.181  0.8983 -0.1837 -1.0045
  557MOL0     O75084  -0.258   8.493   0.066  0.2121  0.4699  0.0204
  557MOL0     C75085  -0.385   8.502   0.009 -0.4549  0.0073  0.5026
  557MOL0     C75086  -0.490   8.580   0.042 -0.4945 -1.5113 -0.0124
  557MOL0     C75087  -0.604   8.589  -0.030 -0.5697 -0.2068 -0.4703
  557MOL0     C75088  -0.702   8.683   0.031  0.2583 -0.1682 -0.9208
  557MOL0     C75089  -0.622   8.505  -0.141  0.6260  0.2907  1.1568
  557MOL0     C75090  -0.739   8.514  -0.233  1.0408 -0.9111 -0.0990
  557MOL0     O75091  -0.856   8.584  -0.190 -0.0178 -0.0664 -0.2745
  557MOL0     C75092  -0.944   8.608  -0.288  0.6854 -0.2690 -0.4065
  557MOL0     C75093  -1.079   8.613  -0.254 -0.4641  0.5928 -0.0457
  557MOL0     C75094  -1.184   8.639  -0.345  0.0742  0.1591 -0.9036
  557MOL0     C75095  -1.148   8.677  -0.471 -0.4822 -0.1982 -1.1620
  557MOL0     O75096  -1.240   8.711  -0.570 -0.4669 -0.2633 -0.4935
  557MOL0     C75097  -1.368   8.759  -0.539  0.2290  0.3811 -1.0497
  557MOL0     C75098  -1.420   8.788  -0.676 -0.1738 -0.0843 -0.0335
  557MOL0     C75099  -1.562   8.867  -0.677 -0.0817  0.3922 -0.6703
  557MOL0     C75100  -1.654   8.819  -0.560  0.3604  0.3913  0.3670
  557MOL0     C75101  -1.783   8.898  -0.574  0.6194  0.6349 -1.3203
  557MOL0     C75102  -1.873   8.864  -0.696  0.4684 -0.3307 -0.4630
  557MOL0     C75103  -2.001   8.938  -0.703 -0.8759 -0.5962  0.0006
  557MOL0     C75104  -2.106   8.867  -0.776 -0.3271  0.0955  0.1691
  557MOL0    Cl75105  -2.234   8.975  -0.787 -0.0412  0.3116 -0.3715
  557MOL0     C75106  -1.010   8.684  -0.500  0.5043 -1.1643 -0.0169
  557MOL0     C75107  -0.910   8.645  -0.417 -0.3459  0.0741  0.0557
  557MOL0     O75108  -0.737   8.445  -0.335  1.0109  0.5453 -0.1057
  557MOL0     C75109  -0.518   8.420  -0.177  0.3195 -0.1938  0.4887
  557MOL0     C75110  -0.398   8.428  -0.105 -0.4155 -0.6948 -0.7580
  557MOL0     N75111   0.167   8.672   0.360 -0.2934 -0.9618  0.0462
  557MOL0     N75112   0.286   8.709   0.395 -0.6320  0.5701  0.5701
  557MOL0     C75113   1.301   8.336   1.144 -0.4171 -0.2485 -0.2706
  557MOL0     C75114   1.409   8.352   1.240 -0.0242 -0.8694  0.1187
  557MOL0     C75115   1.780   8.423   1.466  0.5303  0.2675 -1.0981
  557MOL0     C75116   1.799   8.495   1.585 -0.3980  0.4478 -0.2779
  557MOL0     C75117   1.924   8.495   1.652  0.1184 -0.4637  1.3433
  557MOL0     C75118   2.031   8.421   1.603 -0.1036 -0.1197 -0.3972
  557MOL0     O75119   2.160   8.429   1.660 -0.1999  0.0273  0.1521
  557MOL0     C75120   2.186   8.481   1.787 -0.2261 -0.2240 -0.7325
  557MOL0     C75121   2.330   8.446   1.824  0.2272  0.8908  0.5290
  557MOL0     C75122   2.434   8.488   1.703 -0.1951 -0.6018  0.2433
  557MOL0     C75123   2.555   8.402   1.698 -0.3939  1.0974 -0.9096
  557MOL0     C75124   2.616   8.386   1.827 -0.1923  0.0335 -0.5146
  557MOL0     C75125   2.674   8.368   1.934 -0.0955 -0.9935  0.6788
  557MOL0     C75126   2.008   8.347   1.484 -0.1579 -0.1235 -0.4588
  557MOL0     C75127   1.883   8.348   1.418 -0.5051 -0.0042 -0.3587
  557MOL0     H75128   1.665   8.279   1.037 -0.3157  3.7817 -1.8868
  557MOL0     H75129   1.508   8.252   0.877  1.1414 -0.7737  0.2473
  557MOL0     H75130   1.056   8.208   0.831 -0.3693  0.8269 -0.7998
  557MOL0     H75131   1.072   8.216   1.008 -0.3132  3.0936  0.4056
  557MOL0     H75132   1.101   8.459   0.978 -0.3905 -0.3786 -0.4938
  557MOL0     H75133   1.090   8.440   0.804  1.4193  2.5797  0.8537
  557MOL0     H75134   0.844   8.321   0.910  0.5876 -0.4661 -0.1740
  557MOL0     H75135   0.869   8.462   1.013 -1.7562 -0.0627 -0.8086
  557MOL0     H75136   0.881   8.597   0.803  0.2769 -0.3353  1.1821
  557MOL0     H75137   0.867   8.451   0.706 -0.0309  0.8357  0.0997
  557MOL0     H75138   0.647   8.409   0.779  1.3438 -1.0932  4.6024
  557MOL0     H75139   0.656   8.516   0.902  1.6401 -2.2495  0.9774
  557MOL0     H75140   0.632   8.722   0.743  0.7589  1.4567  0.7103
  557MOL0     H75141   0.704   8.625   0.615 -0.0096 -2.7423  0.4018
  557MOL0     H75142   0.497   8.519   0.598  0.4976  1.4370 -1.2838
  557MOL0     H75143   0.443   8.584   0.762 -0.3127 -2.9802  0.3392
  557MOL0     H75144   0.486   8.786   0.530 -1.6829 -2.2921 -3.5978
  557MOL0     H75145   0.392   8.799   0.686 -1.3839  1.5456 -1.3678
  557MOL0     H75146   0.162   8.640   0.683  0.0972  2.3086  0.5558
  557MOL0     H75147   0.006   8.436   0.461 -0.5352 -0.2281  2.0181
  557MOL0     H75148  -0.042   8.548   0.579 -0.3710 -0.2446 -1.0211
  557MOL0     H75149  -0.156   8.685   0.398 -0.5437 -0.2402  2.4980
  557MOL0     H75150  -0.220   8.528   0.429  0.2489 -0.1886  0.3213
  557MOL0     H75151  -0.081   8.432   0.256  2.9899  0.7746 -1.3146
  557MOL0     H75152  -0.024   8.583   0.202  0.4558 -0.9496 -1.0070
  557MOL0     H75153  -0.229   8.677   0.148  2.1980  0.7516  2.1501
  557MOL0     H75154  -0.330   8.553   0.244  2.5788 -1.6120  0.9762
  557MOL0     H75155  -0.475   8.650   0.124 -1.6541 -1.3421  0.0702
  557MOL0     H75156  -0.656   8.771   0.078 -2.9907  0.9416  0.4495
  557MOL0     H75157  -0.775   8.725  -0.039  0.6146 -0.8873 -1.7456
  557MOL0     H75158  -0.759   8.640   0.113 -1.7322  2.4315 -0.8161
  557MOL0     H75159  -1.108   8.594  -0.151  0.2094 -1.3169 -0.1590
  557MOL0     H75160  -1.288   8.637  -0.313  1.0618 -0.4989  2.7382
  557MOL0     H75161  -1.426   8.681  -0.489  0.5745  1.5011  1.1952
  557MOL0     H75162  -1.375   8.853  -0.484  1.2758 -0.6938  0.9885
  557MOL0     H75163  -1.355   8.846  -0.742 -4.7868  2.9815 -2.4669
  557MOL0     H75164  -1.440   8.691  -0.721  2.4531 -0.4800 -0.4988
  557MOL0     H75165  -1.614   8.850  -0.772 -0.0826  3.3791 -1.2985
  557MOL0     H75166  -1.535   8.972  -0.664 -0.2254  0.3208  0.2899
  557MOL0     H75167  -1.659   8.710  -0.569  3.2543  0.1346  0.8712
  557MOL0     H75168  -1.612   8.846  -0.463 -1.3600  0.0547  1.2467
  557MOL0     H75169  -1.765   9.006  -0.578  1.6720  0.5797  0.6976
  557MOL0     H75170  -1.852   8.893  -0.489 -0.0392  0.7846 -1.8428
  557MOL0     H75171  -1.819   8.868  -0.790  1.0442 -0.9835 -0.1662
  557MOL0     H75172  -1.893   8.759  -0.674  0.2988  0.0218  1.2304
  557MOL0     H75173  -1.982   9.040  -0.739  2.0494  0.0247  2.8450
  557MOL0     H75174  -2.042   8.943  -0.602  2.9562  0.0504  1.7122
  557MOL0     H75175  -2.141   8.787  -0.710 -3.8360  0.0954 -1.4251
  557MOL0     H75176  -2.080   8.830  -0.876 -0.3239  2.7816 -0.9182
  557MOL0     H75177  -0.981   8.708  -0.602 -0.3573 -3.9364 -0.9980
  557MOL0     H75178  -0.814   8.665  -0.464 -0.4500  4.1073  1.1872
  557MOL0     H75179  -0.515   8.362  -0.269  2.1319  2.7230 -1.4826
  557MOL0     H75180  -0.322   8.355  -0.132 -0.9584 -1.0576 -1.3367
  557MOL0     H75181   1.197   8.344   1.176 -0.6533 -3.7883  0.2852
  557MOL0     H75182   1.384   8.381   1.342  3.4244  1.1866  0.5293
  557MOL0     H75183   1.723   8.557   1.632 -1.5060 -0.6411 -0.5864
  557MOL0     H75184   1.935   8.541   1.749  0.3771 -1.4762  1.8132
  557MOL0     H75185   2.171   8.589   1.792  1.1498  0.0186 -1.3915
  557MOL0     H75186   2.113   8.434   1.853  0.9263 -0.6142  0.3173
  557MOL0     H75187   2.335   8.338   1.841 -2.3311  1.1617  3.9326
  557MOL0     H75188   2.354   8.505   1.913  0.3112  2.2881 -0.3884
  557MOL0     H75189   2.476   8.585   1.730  0.3176 -1.3826  2.4112
  557MOL0     H75190   2.377   8.502   1.610 -1.3509  0.3849  1.0704
  557MOL0     H75191   2.633   8.428   1.626  1.9235 -1.1238  0.6094
  557MOL0     H75192   2.535   8.303   1.657 -0.2292  0.2425  0.9789
  557MOL0     H75193   2.721   8.365   2.031  0.9679 -1.7113  0.1647
  557MOL0     H75194   2.101   8.302   1.450  0.0868  0.3958 -0.4851
  557MOL0     H75195   1.871   8.284   1.331 -0.7238 -0.2894 -0.1230
  558MOL0     O75196   2.510   1.462  10.535 -0.0962  0.8268  0.1429
  558MOL0     C75197   2.594   1.551  10.534  0.5912 -1.7754  0.9845
  558MOL0     O75198   2.590   1.655  10.443 -0.9590  0.3836  0.2151
  558MOL0     C75199   2.486   1.664  10.360 -0.3366 -0.0966 -0.4948
  558MOL0     C75200   2.352   1.637  10.384  0.0273 -0.0220 -0.2056
  558MOL0     C75201   2.253   1.633  10.285  0.0506 -0.7891  0.3700
  558MOL0     C75202   2.291   1.661  10.152 -0.2266  0.2122  0.4470
  558MOL0     O75203   2.196   1.650  10.055  0.1057 -0.2425 -0.1667
  558MOL0     C75204   2.131   1.526  10.053  0.0782  0.5350 -0.0641
  558MOL0     C75205   2.007   1.523   9.949 -0.3559 -0.1187 -0.1331
  558MOL0     C75206   1.878   1.588  10.003  0.0021  0.1433  0.6185
  558MOL0     C75207   1.741   1.537   9.950  0.0742  0.2399  0.0216
  558MOL0     C75208   1.623   1.628   9.981  0.3963  0.2381  0.0604
  558MOL0     C75209   1.646   1.776   9.952  0.1427  1.2181  0.3670
  558MOL0     C75210   1.516   1.857   9.966  0.1385  0.0892  0.3051
  558MOL0     C75211   1.464   1.835  10.107  0.2770  0.0553  0.9760
  558MOL0     N75212   1.371   1.949  10.149  0.6156 -0.2991  1.0181
  558MOL0     C75213   1.403   2.083  10.172  0.7794  0.1422 -0.0220
  558MOL0     C75214   1.288   2.145  10.216  0.0671  0.1140 -0.4898
  558MOL0     C75215   1.274   2.278  10.272  0.2700 -0.3447  2.2260
  558MOL0     C75216   1.290   2.375  10.145 -0.1026 -0.2670  0.7618
  558MOL0     C75217   1.167   2.386  10.055 -0.1094  0.7471  0.6268
  558MOL0     C75218   1.189   2.294   9.941 -0.3235 -0.1701  0.3668
  558MOL0     O75219   1.077   2.300   9.862 -0.7488 -0.2417 -0.6963
  558MOL0     C75220   0.965   2.228   9.892 -0.2720 -1.3667 -0.0183
  558MOL0     C75221   0.964   2.119   9.977 -0.0345  0.2445  0.5650
  558MOL0     C75222   0.852   2.048  10.009  0.0688 -0.1371 -0.2186
  558MOL0     C75223   0.865   1.942  10.119 -0.8960 -0.4289 -0.4340
  558MOL0     C75224   0.731   2.073   9.942 -0.5024  0.2406  0.6697
  558MOL0     C75225   0.603   2.000   9.977  0.0696 -0.3135  0.2087
  558MOL0     O75226   0.487   2.045   9.915 -0.4268 -0.5884 -0.0659
  558MOL0     C75227   0.367   1.980   9.923  0.2081  0.7043 -0.3813
  558MOL0     C75228   0.291   2.011  10.031  0.1695  0.4026 -0.1742
  558MOL0     C75229   0.155   1.978  10.041  0.2685 -0.4374  0.4528
  558MOL0     C75230   0.111   1.890   9.941  0.8608 -0.2384 -0.3662
  558MOL0     O75231  -0.018   1.831   9.948 -0.5817  0.1337 -0.6790
  558MOL0     C75232  -0.126   1.898  10.020 -0.0679  0.5200  0.3881
  558MOL0     C75233  -0.247   1.814   9.991 -0.6078  0.5500  0.2956
  558MOL0     C75234  -0.356   1.820  10.095  1.1145  0.5518  0.6389
  558MOL0     C75235  -0.355   1.708  10.198  0.6348 -0.7013 -0.4594
  558MOL0     C75236  -0.450   1.722  10.324  0.0349 -0.3183  0.3581
  558MOL0     C75237  -0.604   1.755  10.294  0.7801 -0.3514  0.7592
  558MOL0     C75238  -0.657   1.671  10.171  0.8982 -0.5622  0.4581
  558MOL0     C75239  -0.648   1.522  10.201 -0.3753  0.7509 -0.2149
  558MOL0    Cl75240  -0.758   1.420  10.106  0.1959  0.0124  0.0410
  558MOL0     C75241   0.190   1.847   9.839 -0.4937  0.3490  0.4235
  558MOL0     C75242   0.322   1.892   9.823  0.0562 -0.1514  1.2525
  558MOL0     O75243   0.603   1.901  10.050 -0.2909  0.1091 -0.1215
  558MOL0     C75244   0.729   2.174   9.845 -0.7139 -0.6366 -0.0037
  558MOL0     C75245   0.845   2.252   9.814 -0.0707  1.0221  0.5995
  558MOL0     N75246   1.190   2.042  10.217 -0.4438  0.0195 -0.0650
  558MOL0     N75247   1.243   1.925  10.184 -0.0025 -0.6037 -0.2177
  558MOL0     C75248   2.423   1.699  10.128  0.9202 -0.6538  0.1313
  558MOL0     C75249   2.515   1.703  10.233  0.1627  0.1301  0.3494
  558MOL0     C75250   2.706   1.535  10.628 -0.6548 -0.1806 -0.5632
  558MOL0     C75251   2.724   1.422  10.704  0.5121 -0.1906  0.1751
  558MOL0     C75252   2.822   1.415  10.806  0.5959 -0.7109  0.7853
  558MOL0     C75253   2.902   1.526  10.845 -0.6284  0.5983 -0.1749
  558MOL0     O75254   2.994   1.509  10.944 -1.1917  0.8029 -0.0642
  558MOL0     C75255   3.083   1.611  10.983 -0.4223 -0.0565 -0.7929
  558MOL0     C75256   3.213   1.556  11.045  0.1002  0.2887  0.1956
  558MOL0     C75257   3.188   1.494  11.179  0.1018  0.3924 -0.4369
  558MOL0     C75258   3.309   1.415  11.235 -0.8701  0.0191 -0.0160
  558MOL0     C75259   3.388   1.481  11.340 -0.3130  0.2210  0.3289
  558MOL0     C75260   3.453   1.546  11.417 -0.5385  0.2882 -0.0435
  558MOL0     C75261   2.876   1.648  10.774 -0.5682 -0.1639 -0.5395
  558MOL0     C75262   2.784   1.644  10.670  0.3437 -0.7374  0.4936
  558MOL0     H75263   2.327   1.596  10.481  2.5412 -6.1429 -1.6609
  558MOL0     H75264   2.148   1.617  10.306  0.1638 -1.0464  0.7574
  558MOL0     H75265   2.197   1.446  10.016 -1.2874  0.2741 -2.0828
  558MOL0     H75266   2.100   1.496  10.154  0.4008  0.6188  0.0609
  558MOL0     H75267   2.036   1.575   9.856  2.1252  1.0108  1.1725
  558MOL0     H75268   1.986   1.419   9.924 -0.7085 -0.7863  2.6300
  558MOL0     H75269   1.886   1.577  10.111 -0.5561  1.1694  0.7813
  558MOL0     H75270   1.876   1.693   9.972 -4.4475  0.0250 -0.2818
  558MOL0     H75271   1.741   1.524   9.842 -2.2349  1.1544 -0.1431
  558MOL0     H75272   1.725   1.437   9.993 -3.2047 -0.0296 -1.5316
  558MOL0     H75273   1.538   1.590   9.922  1.1501 -3.1833  0.9473
  558MOL0     H75274   1.591   1.619  10.085 -1.3013 -0.5737 -0.4818
  558MOL0     H75275   1.701   1.825  10.032  3.0404  0.6904 -1.1721
  558MOL0     H75276   1.697   1.800   9.858 -0.1374  2.9244  0.6112
  558MOL0     H75277   1.534   1.963   9.950  1.0857 -0.3107 -1.6362
  558MOL0     H75278   1.444   1.820   9.892  1.0966 -2.2540  0.4468
  558MOL0     H75279   1.547   1.826  10.177 -0.2293 -1.5110  1.4309
  558MOL0     H75280   1.411   1.739  10.112  1.1961 -0.5264 -0.0340
  558MOL0     H75281   1.491   2.141  10.146 -0.7260  3.3645  1.4094
  558MOL0     H75282   1.187   2.306  10.332 -0.5910  0.3603  0.6877
  558MOL0     H75283   1.356   2.297  10.342 -0.5772  0.3574  3.0531
  558MOL0     H75284   1.373   2.344  10.081 -1.7501 -2.3435 -0.5404
  558MOL0     H75285   1.314   2.478  10.172  0.0721 -0.1535  0.2022
  558MOL0     H75286   1.155   2.485  10.010 -2.3602  1.2248  2.1326
  558MOL0     H75287   1.071   2.371  10.104 -0.6468 -2.0951 -1.0827
  558MOL0     H75288   1.212   2.190   9.966  1.2365  0.2493  0.8032
  558MOL0     H75289   1.278   2.323   9.884 -1.1720  2.0993  0.1165
  558MOL0     H75290   1.052   2.078  10.025 -0.9734 -0.3059  1.8720
  558MOL0     H75291   0.835   1.842  10.087 -1.4146 -0.5652  0.4207
  558MOL0     H75292   0.971   1.931  10.144 -1.0617 -0.3954  0.3025
  558MOL0     H75293   0.813   1.972  10.211  2.7626 -3.0383  2.7744
  558MOL0     H75294   0.327   2.085  10.102  0.4607 -1.0884  1.3061
  558MOL0     H75295   0.087   2.006  10.121  1.3547 -0.5876  1.4508
  558MOL0     H75296  -0.114   1.907  10.129 -0.2496 -0.4624  0.5007
  558MOL0     H75297  -0.139   1.994   9.970 -1.9352 -0.3810 -1.0018
  558MOL0     H75298  -0.286   1.845   9.893  3.5928 -0.9755 -2.1507
  558MOL0     H75299  -0.222   1.708   9.983 -0.6517  0.6827 -3.5012
  558MOL0     H75300  -0.450   1.815  10.039  0.4487  2.5652  1.5014
  558MOL0     H75301  -0.355   1.915  10.148 -2.8026 -0.1141  2.2535
  558MOL0     H75302  -0.369   1.610  10.150  1.3961 -0.8139 -0.4669
  558MOL0     H75303  -0.254   1.689  10.237  0.6006  2.2453  1.3308
  558MOL0     H75304  -0.406   1.779  10.406 -0.1371 -1.9004  1.6113
  558MOL0     H75305  -0.451   1.627  10.378  1.0777  0.5285  1.9750
  558MOL0     H75306  -0.674   1.736  10.377  0.7479  0.8298  1.0164
  558MOL0     H75307  -0.613   1.857  10.256  0.9159 -1.4244 -2.3907
  558MOL0     H75308  -0.600   1.683  10.078 -3.1202 -2.7628 -2.5904
  558MOL0     H75309  -0.754   1.712  10.141 -0.5059 -1.7346  3.0918
  558MOL0     H75310  -0.680   1.503  10.304  2.0180 -3.2656 -0.0184
  558MOL0     H75311  -0.545   1.488  10.203 -0.4012  0.5414 -1.8091
  558MOL0     H75312   0.145   1.788   9.759  0.8940  2.1906 -1.8413
  558MOL0     H75313   0.384   1.866   9.738 -2.7794  1.4382 -1.4857
  558MOL0     H75314   0.651   2.180   9.770  2.6144  0.2677 -3.7641
  558MOL0     H75315   0.827   2.322   9.733  1.0160  0.7647  0.1164
  558MOL0     H75316   2.464   1.723  10.031  3.7081  3.0663  1.9729
  558MOL0     H75317   2.609   1.746  10.201  0.4073  0.4495  1.4460
  558MOL0     H75318   2.673   1.329  10.685  0.5196 -0.2390  0.3803
  558MOL0     H75319   2.853   1.324  10.855  3.3620 -0.2242  0.1601
  558MOL0     H75320   3.103   1.685  10.905  1.0696  3.4150  2.6016
  558MOL0     H75321   3.029   1.665  11.061 -1.1643  0.4517 -1.6459
  558MOL0     H75322   3.297   1.625  11.041  1.9111 -1.8278 -0.3843
  558MOL0     H75323   3.243   1.465  10.991 -0.4790 -0.7922  1.6404
  558MOL0     H75324   3.100   1.429  11.173  2.0271 -2.4992  0.6709
  558MOL0     H75325   3.169   1.575  11.250 -1.0866 -0.5407  0.3496
  558MOL0     H75326   3.368   1.374  11.152 -0.8420  1.8374 -0.9617
  558MOL0     H75327   3.272   1.322  11.279 -0.7152 -1.4399 -2.7529
  558MOL0     H75328   3.502   1.602  11.493 -0.1805 -2.0367  1.5723
  558MOL0     H75329   2.951   1.724  10.796  2.2793 -2.3800 -1.8279
  558MOL0     H75330   2.761   1.735  10.616 -2.9728 -1.5355  0.3234
  559MOL0     O75331   7.250  10.846   4.229  0.5541  0.2117 -0.4730
  559MOL0     C75332   7.194  10.735   4.249 -0.0381 -0.4433  0.0535
  559MOL0     O75333   7.263  10.618   4.296 -0.0741 -0.1895  0.1939
  559MOL0     C75334   7.395  10.635   4.335  0.0929 -0.2729 -0.9774
  559MOL0     C75335   7.505  10.618   4.245  0.5981 -0.8938 -0.0982
  559MOL0     C75336   7.636  10.630   4.287 -0.9989 -0.8419 -0.1235
  559MOL0     C75337   7.668  10.654   4.423 -0.2381 -0.9319 -0.2288
  559MOL0     O75338   7.798  10.652   4.464 -0.6888 -0.1716  0.2142
  559MOL0     C75339   7.833  10.602   4.590 -0.6323  0.6118  0.1734
  559MOL0     C75340   7.988  10.618   4.608 -0.0201 -0.0757  0.4880
  559MOL0     C75341   8.069  10.515   4.530  0.2206  0.4837 -0.4675
  559MOL0     C75342   8.184  10.445   4.618 -1.1823  0.1797  0.2165
  559MOL0     C75343   8.277  10.348   4.544 -0.3840  0.0331  0.4056
  559MOL0     C75344   8.370  10.264   4.645 -0.1392 -0.1365 -0.2223
  559MOL0     C75345   8.500  10.341   4.684 -0.4360  0.3344  0.2534
  559MOL0     C75346   8.580  10.398   4.570 -1.4744 -0.4476 -0.1924
  559MOL0     N75347   8.643  10.301   4.487 -0.5059  0.5104  1.2798
  559MOL0     C75348   8.566  10.233   4.392  0.3291  0.4206 -0.9135
  559MOL0     C75349   8.631  10.118   4.360 -0.0641  0.8482  0.7481
  559MOL0     C75350   8.573  10.015   4.264  0.5834 -0.5090  0.2840
  559MOL0     C75351   8.457  10.086   4.180 -0.1415  1.5879  0.1734
  559MOL0     C75352   8.316  10.085   4.244  0.0483 -0.5334 -0.2670
  559MOL0     C75353   8.233  10.213   4.225 -0.5219  0.3975  0.5494
  559MOL0     O75354   8.240  10.244   4.083  0.4441 -0.1483  0.3199
  559MOL0     C75355   8.150  10.342   4.044  0.4125  0.4749 -0.0421
  559MOL0     C75356   8.046  10.314   3.960 -0.3654 -0.0891  1.2064
  559MOL0     C75357   7.953  10.400   3.916 -0.0071 -0.0767 -1.0000
  559MOL0     C75358   7.864  10.338   3.806 -0.3072 -0.7970  0.3515
  559MOL0     C75359   7.964  10.540   3.947  0.0278  0.5637  0.5779
  559MOL0     C75360   7.874  10.646   3.890  0.2808 -0.6479 -0.5808
  559MOL0     O75361   7.850  10.760   3.971  0.1870 -0.4021  0.7997
  559MOL0     C75362   7.777  10.862   3.913 -0.4585 -0.3703 -1.3049
  559MOL0     C75363   7.640  10.868   3.961 -0.4156 -0.2587 -0.2152
  559MOL0     C75364   7.554  10.965   3.906 -0.4147  0.2003 -0.1274
  559MOL0     C75365   7.603  11.050   3.798  0.6230 -1.1402 -0.5067
  559MOL0     O75366   7.513  11.140   3.751 -0.1314 -0.1480  0.8856
  559MOL0     C75367   7.562  11.276   3.743  0.1712  0.9995  0.3650
  559MOL0     C75368   7.590  11.334   3.881  0.1561  0.0986 -0.2041
  559MOL0     C75369   7.578  11.483   3.872 -0.1165  0.2132  0.8413
  559MOL0     C75370   7.636  11.557   3.988 -0.1906  0.5629 -0.2344
  559MOL0     C75371   7.593  11.701   4.002  0.5596 -0.1503 -0.6338
  559MOL0     C75372   7.451  11.710   4.061  0.4456  0.4735 -0.8395
  559MOL0     C75373   7.419  11.859   4.090  0.7350 -0.1170  0.3679
  559MOL0     C75374   7.272  11.879   4.134  0.4393 -0.6280  0.2701
  559MOL0    Cl75375   7.233  11.796   4.281  0.0089 -0.1111 -0.5218
  559MOL0     C75376   7.731  11.031   3.746 -0.0385 -0.3994 -0.1389
  559MOL0     C75377   7.825  10.938   3.801 -1.6798 -0.7074 -0.5905
  559MOL0     O75378   7.829  10.626   3.779 -0.4651 -0.9885 -0.2392
  559MOL0     C75379   8.074  10.564   4.036 -0.7094 -0.3559  0.5644
  559MOL0     C75380   8.159  10.478   4.088  0.1384  0.3404 -0.7520
  559MOL0     N75381   8.751  10.106   4.430 -0.4737 -0.6114 -0.7232
  559MOL0     N75382   8.752  10.219   4.502 -0.4184 -0.7487 -0.7591
  559MOL0     C75383   7.555  10.690   4.504 -0.2998  0.9153 -0.0402
  559MOL0     C75384   7.425  10.676   4.465  0.0041 -0.9106  0.1443
  559MOL0     C75385   7.044  10.742   4.238 -0.0937 -0.0159 -0.0464
  559MOL0     C75386   6.972  10.846   4.166 -0.7143  0.6247  0.3664
  559MOL0     C75387   6.829  10.843   4.147 -0.5162 -0.3528  0.8416
  559MOL0     C75388   6.751  10.752   4.217 -0.6944 -0.5117 -0.0063
  559MOL0     O75389   6.615  10.769   4.196  0.1545 -0.1325 -0.3113
  559MOL0     C75390   6.533  10.689   4.278  0.7074  0.3217  0.5752
  559MOL0     C75391   6.389  10.738   4.266  0.8756 -0.5014  0.0929
  559MOL0     C75392   6.357  10.891   4.234  0.1200 -0.2275 -0.5254
  559MOL0     C75393   6.423  10.982   4.327 -0.4367  0.1341  0.2004
  559MOL0     C75394   6.393  11.124   4.314  0.6495  0.3950 -0.4871
  559MOL0     C75395   6.342  11.233   4.319  0.2337  0.6490 -0.1404
  559MOL0     C75396   6.817  10.653   4.286 -0.3342  0.6018 -0.5402
  559MOL0     C75397   6.961  10.644   4.294  0.4563  0.2092  0.7135
  559MOL0     H75398   7.492  10.603   4.138  1.0448  1.3186 -0.5223
  559MOL0     H75399   7.716  10.613   4.215 -0.2504  2.1147 -0.1185
  559MOL0     H75400   7.779  10.652   4.671 -0.1166  0.3745  0.6728
  559MOL0     H75401   7.813  10.496   4.610  3.3833 -0.6305 -1.1924
  559MOL0     H75402   8.013  10.721   4.580 -2.0327  1.0872  2.6228
  559MOL0     H75403   8.018  10.607   4.713  0.6084  1.5098  0.4964
  559MOL0     H75404   8.007  10.435   4.491  2.4913 -1.0534 -1.1166
  559MOL0     H75405   8.123  10.561   4.446  2.3962 -0.1373  0.5177
  559MOL0     H75406   8.245  10.521   4.669  0.3225 -1.3445  0.7901
  559MOL0     H75407   8.149  10.390   4.706  1.6026  0.4729  1.6376
  559MOL0     H75408   8.227  10.266   4.491  2.1935 -2.5905  1.7153
  559MOL0     H75409   8.329  10.403   4.465 -2.0820  1.5371  0.2639
  559MOL0     H75410   8.308  10.230   4.728  0.6740  0.2712  0.5807
  559MOL0     H75411   8.403  10.171   4.598  0.0587  0.0159 -0.3869
  559MOL0     H75412   8.484  10.416   4.763  0.0143 -0.7487  1.3992
  559MOL0     H75413   8.566  10.272   4.736  0.5112  0.2849 -0.9724
  559MOL0     H75414   8.662  10.461   4.605  0.0024 -1.3716 -1.8476
  559MOL0     H75415   8.521  10.461   4.503 -0.0282  0.1777 -0.9064
  559MOL0     H75416   8.466  10.262   4.363 -1.3648 -1.8879  2.0334
  559MOL0     H75417   8.649   9.983   4.192 -0.3435  0.7240 -1.3126
  559MOL0     H75418   8.533   9.926   4.315  3.4913 -2.7759 -1.0538
  559MOL0     H75419   8.435  10.039   4.083 -3.5151 -0.0821  1.5777
  559MOL0     H75420   8.492  10.187   4.158  0.9412  1.2809  0.4239
  559MOL0     H75421   8.338  10.073   4.351  2.0777 -3.1324 -0.8850
  559MOL0     H75422   8.260   9.999   4.207 -1.4256  0.4172 -0.3467
  559MOL0     H75423   8.270  10.300   4.279  2.4976 -1.7355  2.2336
  559MOL0     H75424   8.127  10.204   4.249 -0.5303 -0.7736  0.1358
  559MOL0     H75425   8.049  10.211   3.925 -0.2162 -0.0492  1.0983
  559MOL0     H75426   7.821  10.249   3.854  2.0984 -1.1592  2.0418
  559MOL0     H75427   7.774  10.388   3.770 -0.7868 -2.0467 -0.2655
  559MOL0     H75428   7.930  10.324   3.719 -1.7663 -1.7380 -0.6615
  559MOL0     H75429   7.599  10.818   4.049 -0.1434  1.1924  0.7818
  559MOL0     H75430   7.451  10.971   3.940 -0.6322  0.2153 -0.7698
  559MOL0     H75431   7.652  11.287   3.681  0.0980  1.2586  0.3044
  559MOL0     H75432   7.478  11.334   3.704  0.4724  1.8249  0.9210
  559MOL0     H75433   7.519  11.286   3.949  1.4638 -2.0275 -0.2101
  559MOL0     H75434   7.694  11.303   3.895  0.2110  0.2316 -0.3246
  559MOL0     H75435   7.469  11.489   3.884 -0.1204  0.9729  0.4810
  559MOL0     H75436   7.594  11.519   3.770  0.8351 -1.8581  0.2155
  559MOL0     H75437   7.621  11.508   4.084 -0.8814 -1.8510 -1.4952
  559MOL0     H75438   7.743  11.560   3.965 -0.4849  2.5345 -1.5728
  559MOL0     H75439   7.592  11.750   3.904  2.0113  2.2816  0.4790
  559MOL0     H75440   7.662  11.767   4.056 -1.3699  1.3988  0.0291
  559MOL0     H75441   7.376  11.661   3.998 -2.7698 -0.4847  3.2950
  559MOL0     H75442   7.446  11.660   4.158 -1.9708  0.9099 -0.6668
  559MOL0     H75443   7.429  11.909   3.993  2.0993  0.1542  0.6209
  559MOL0     H75444   7.504  11.891   4.150  2.3510  1.3637 -2.4993
  559MOL0     H75445   7.197  11.833   4.069  0.3008 -1.9977  1.3448
  559MOL0     H75446   7.241  11.982   4.151 -0.4622 -0.9880  0.8906
  559MOL0     H75447   7.781  11.088   3.668 -0.8513 -2.1329 -2.0094
  559MOL0     H75448   7.923  10.923   3.758 -1.9292  1.7328 -2.1853
  559MOL0     H75449   8.090  10.666   4.070  2.8388 -0.3029 -0.8866
  559MOL0     H75450   8.241  10.500   4.156 -0.6313 -1.5363  0.8770
  559MOL0     H75451   7.574  10.734   4.602 -0.5352  1.9805 -0.4527
  559MOL0     H75452   7.350  10.685   4.544  0.9993  1.0072  0.9379
  559MOL0     H75453   7.029  10.923   4.114  0.3243  0.3973  1.1411
  559MOL0     H75454   6.775  10.920   4.093 -0.5976 -2.2526 -1.9882
  559MOL0     H75455   6.535  10.583   4.252 -1.4996  0.2036  0.7697
  559MOL0     H75456   6.564  10.691   4.384 -0.8972 -1.8792  1.1447
  559MOL0     H75457   6.332  10.704   4.353 -1.2164 -2.4593 -1.8534
  559MOL0     H75458   6.355  10.687   4.175  2.4155 -1.1329 -0.1601
  559MOL0     H75459   6.248  10.891   4.244 -0.0985 -0.6890 -2.4426
  559MOL0     H75460   6.382  10.927   4.133  0.2519  3.3613  0.6318
  559MOL0     H75461   6.531  10.993   4.313  0.2302  2.9588  5.2572
  559MOL0     H75462   6.400  10.958   4.431 -0.4502  0.8995  0.3763
  559MOL0     H75463   6.315  11.336   4.307  1.1073  0.7964 -0.9265
  559MOL0     H75464   6.763  10.569   4.328  0.3527  0.2655 -0.3246
  559MOL0     H75465   7.001  10.557   4.346  2.2044 -0.8471 -2.2059
  560MOL0     O75466   0.476   8.638  10.091  0.5640 -0.4470  0.2733
  560MOL0     C75467   0.532   8.662   9.984  0.5067 -0.9899 -0.8062
  560MOL0     O75468   0.555   8.568   9.881 -0.6873  0.0748 -0.5724
  560MOL0     C75469   0.552   8.429   9.910  0.2077 -0.3808  0.6064
  560MOL0     C75470   0.626   8.377  10.009 -0.3197  0.2122  0.6843
  560MOL0     C75471   0.629   8.238  10.022 -0.2988  0.8932  0.5205
  560MOL0     C75472   0.561   8.155   9.933 -0.2242 -0.2633  1.4303
  560MOL0     O75473   0.535   8.022   9.948 -0.4735  0.2532  0.4949
  560MOL0     C75474   0.612   7.953  10.048 -0.5241 -0.3241 -0.6848
  560MOL0     C75475   0.611   7.808  10.033  0.1433 -0.2048  0.0300
  560MOL0     C75476   0.692   7.759   9.911  1.1657 -0.2409  0.5840
  560MOL0     C75477   0.619   7.746   9.775 -0.0704 -0.3085 -1.0532
  560MOL0     C75478   0.710   7.709   9.654 -0.7222 -0.0508 -0.7728
  560MOL0     C75479   0.635   7.713   9.515  0.2029  0.0223 -0.1460
  560MOL0     C75480   0.541   7.599   9.482  0.0149 -0.0842  0.4553
  560MOL0     C75481   0.420   7.645   9.390 -0.5462  0.4013 -0.5018
  560MOL0     N75482   0.451   7.691   9.259 -1.1639 -0.2537  0.1349
  560MOL0     C75483   0.541   7.643   9.170  0.1885 -0.2335 -0.4714
  560MOL0     C75484   0.529   7.728   9.063 -0.1164 -1.2505  0.0479
  560MOL0     C75485   0.584   7.713   8.925 -0.9199  0.2761 -0.6234
  560MOL0     C75486   0.477   7.673   8.831 -2.0360 -0.1963 -0.0536
  560MOL0     C75487   0.515   7.539   8.763  0.1835 -0.1950 -0.3436
  560MOL0     C75488   0.405   7.483   8.675  0.0099 -0.3166 -0.1690
  560MOL0     O75489   0.362   7.592   8.582  0.1226  0.7816 -0.0482
  560MOL0     C75490   0.226   7.591   8.547  0.4915  0.5641  0.2497
  560MOL0     C75491   0.143   7.476   8.543 -0.5141 -0.9481 -1.4625
  560MOL0     C75492   0.017   7.477   8.485  0.4786 -0.6237 -0.8232
  560MOL0     C75493  -0.055   7.343   8.467 -0.4613  0.1872 -0.4407
  560MOL0     C75494  -0.041   7.594   8.438  0.1393  0.2705 -0.8398
  560MOL0     C75495  -0.171   7.610   8.369  0.2718 -0.9470 -0.5347
  560MOL0     O75496  -0.240   7.722   8.387 -0.4416 -0.7249 -0.2707
  560MOL0     C75497  -0.362   7.733   8.325 -0.3852 -0.7918  1.0499
  560MOL0     C75498  -0.482   7.743   8.404 -0.7481 -1.2031  0.5481
  560MOL0     C75499  -0.610   7.754   8.345 -0.4845 -0.1264  0.1788
  560MOL0     C75500  -0.623   7.765   8.202  0.1010 -0.6516 -0.8407
  560MOL0     O75501  -0.749   7.783   8.149 -0.6449 -0.3728  0.0805
  560MOL0     C75502  -0.871   7.752   8.219  0.0621  0.3644  0.8674
  560MOL0     C75503  -0.981   7.784   8.118  0.1488  0.5890  0.3117
  560MOL0     C75504  -1.123   7.754   8.165 -0.4453 -0.4619  1.2277
  560MOL0     C75505  -1.144   7.809   8.304 -0.1202 -0.6431  0.5675
  560MOL0     C75506  -1.282   7.792   8.374 -0.3459  0.7260  0.1647
  560MOL0     C75507  -1.399   7.872   8.321  0.5513  0.2006  0.6355
  560MOL0     C75508  -1.537   7.855   8.395 -0.1534  0.0176  0.0831
  560MOL0     C75509  -1.642   7.961   8.343 -0.8101  0.2878  0.6423
  560MOL0    Cl75510  -1.774   7.970   8.461  0.1690 -0.3656 -0.1815
  560MOL0     C75511  -0.503   7.759   8.127  0.9791  0.6208  0.2758
  560MOL0     C75512  -0.380   7.727   8.190 -0.1719 -0.5612 -0.6036
  560MOL0     O75513  -0.196   7.522   8.289  0.2673 -0.3738  0.0790
  560MOL0     C75514   0.039   7.716   8.454 -0.3687 -0.1436 -0.2174
  560MOL0     C75515   0.169   7.711   8.503 -0.6264  0.0614 -0.7250
  560MOL0     N75516   0.433   7.825   9.093  0.0978 -0.3045  0.1905
  560MOL0     N75517   0.391   7.803   9.217  0.8826 -0.7764 -0.1051
  560MOL0     C75518   0.488   8.217   9.829 -0.9125 -0.5838  0.4294
  560MOL0     C75519   0.488   8.358   9.816 -0.7095  1.7992  0.2436
  560MOL0     C75520   0.571   8.801   9.961  0.2400 -0.1135 -0.2750
  560MOL0     C75521   0.524   8.909  10.043 -0.3897  0.0387 -0.0994
  560MOL0     C75522   0.571   9.042  10.029 -0.5096  1.0925  1.3342
  560MOL0     C75523   0.655   9.079   9.919  0.0536 -0.4046 -0.1091
  560MOL0     O75524   0.692   9.207   9.894 -0.0842 -0.1143  0.0341
  560MOL0     C75525   0.786   9.242   9.800 -0.2670 -0.1987 -0.1358
  560MOL0     C75526   0.814   9.394   9.817 -0.2172  0.5529  0.3111
  560MOL0     C75527   0.691   9.474   9.768 -0.3723  0.0922  0.3109
  560MOL0     C75528   0.706   9.624   9.786  0.0062 -0.2002 -0.2426
  560MOL0     C75529   0.754   9.693   9.660 -0.4255  0.8226  0.3046
  560MOL0     C75530   0.802   9.746   9.564 -0.9253  0.2018  0.4098
  560MOL0     C75531   0.696   8.973   9.834  0.6150 -0.4713 -0.2482
  560MOL0     C75532   0.658   8.839   9.855  0.3256  0.3180 -0.0224
  560MOL0     H75533   0.674   8.444  10.079 -1.7686 -0.8505  2.8243
  560MOL0     H75534   0.689   8.205  10.106 -1.2385  3.1715  2.1995
  560MOL0     H75535   0.713   7.990  10.033  0.1616 -2.6148 -2.3026
  560MOL0     H75536   0.576   7.976  10.149 -1.2274  1.4220 -1.2964
  560MOL0     H75537   0.645   7.763  10.126  0.6458  5.6233  3.1355
  560MOL0     H75538   0.506   7.779  10.018  0.3161  0.2570 -2.3816
  560MOL0     H75539   0.776   7.829   9.909  0.1596  1.0974  2.1348
  560MOL0     H75540   0.731   7.661   9.937  1.6088  0.6293  3.6084
  560MOL0     H75541   0.543   7.668   9.774  0.6065 -1.0238  0.4530
  560MOL0     H75542   0.577   7.846   9.761  0.9973 -0.1464 -3.9675
  560MOL0     H75543   0.799   7.772   9.654  0.5279 -1.6156  2.3566
  560MOL0     H75544   0.745   7.608   9.674  1.0793  0.8880  1.1925
  560MOL0     H75545   0.579   7.807   9.515 -3.9066 -2.1736 -1.2565
  560MOL0     H75546   0.714   7.717   9.440  1.8065 -0.1911  1.4621
  560MOL0     H75547   0.597   7.521   9.430 -0.4259 -2.2059  2.9671
  560MOL0     H75548   0.491   7.546   9.563 -2.3510 -0.6168 -1.2524
  560MOL0     H75549   0.367   7.718   9.452  0.5013 -0.4736  1.5190
  560MOL0     H75550   0.350   7.561   9.386 -0.2569  0.2120 -2.2527
  560MOL0     H75551   0.591   7.547   9.182 -0.1676 -0.2084  1.7744
  560MOL0     H75552   0.647   7.798   8.897  0.2452  0.7068  2.7945
  560MOL0     H75553   0.658   7.632   8.926 -0.9435  0.2395 -1.2518
  560MOL0     H75554   0.472   7.752   8.755  1.5565  3.0815  2.7391
  560MOL0     H75555   0.382   7.667   8.885 -1.8152 -0.5797  0.2967
  560MOL0     H75556   0.541   7.466   8.840 -0.5963  0.5202  0.6309
  560MOL0     H75557   0.606   7.554   8.705  0.0946 -0.4011 -0.5355
  560MOL0     H75558   0.332   7.443   8.746 -0.6665 -1.2166 -1.3367
  560MOL0     H75559   0.432   7.396   8.615  0.2657  0.5835 -1.3991
  560MOL0     H75560   0.186   7.381   8.575 -0.2610  0.2626  2.2502
  560MOL0     H75561  -0.011   7.268   8.532 -1.7224 -0.2548 -0.0772
  560MOL0     H75562  -0.155   7.362   8.507  0.3550 -0.9293  2.3579
  560MOL0     H75563  -0.057   7.291   8.371 -0.6747 -2.6203  1.0045
  560MOL0     H75564  -0.466   7.742   8.511 -1.7288 -0.4215  0.7216
  560MOL0     H75565  -0.700   7.756   8.406 -1.5379 -1.4173 -1.2412
  560MOL0     H75566  -0.871   7.645   8.242 -2.2670  0.3056  0.7386
  560MOL0     H75567  -0.882   7.811   8.311 -1.2720  2.3784 -0.5081
  560MOL0     H75568  -0.966   7.891   8.099 -0.6315  0.7261  0.4359
  560MOL0     H75569  -0.967   7.728   8.025  0.9161  1.0153  0.1603
  560MOL0     H75570  -1.131   7.645   8.165  0.6039 -0.6110 -1.4263
  560MOL0     H75571  -1.187   7.810   8.096 -0.1312 -0.6365  0.7905
  560MOL0     H75572  -1.070   7.758   8.366  2.8395  0.4084 -1.8805
  560MOL0     H75573  -1.108   7.912   8.311  2.5040 -1.5633  2.3161
  560MOL0     H75574  -1.271   7.811   8.481 -2.9762 -1.5033  0.9583
  560MOL0     H75575  -1.304   7.685   8.361  1.3246  0.3807 -0.1121
  560MOL0     H75576  -1.377   7.978   8.334  1.3185  0.1388 -0.0883
  560MOL0     H75577  -1.401   7.857   8.213  1.7363 -0.8347  0.7308
  560MOL0     H75578  -1.512   7.882   8.498  1.2803  6.3994 -1.4969
  560MOL0     H75579  -1.583   7.756   8.385  1.2013 -0.5022 -1.6225
  560MOL0     H75580  -1.690   7.920   8.255 -4.9400  2.0638  1.8270
  560MOL0     H75581  -1.596   8.060   8.328  1.1874 -0.8697 -1.4016
  560MOL0     H75582  -0.517   7.770   8.020  0.6533 -1.1760  0.0927
  560MOL0     H75583  -0.287   7.726   8.133  0.1761 -1.3434 -0.0315
  560MOL0     H75584  -0.005   7.807   8.415 -1.1074  0.6826  2.3161
  560MOL0     H75585   0.225   7.803   8.513 -0.2143 -0.0566 -1.7547
  560MOL0     H75586   0.442   8.145   9.763  0.3493  0.5486 -1.7998
  560MOL0     H75587   0.430   8.408   9.739 -1.9781 -3.1330 -2.4714
  560MOL0     H75588   0.461   8.893  10.130  0.5248  0.9766  0.7625
  560MOL0     H75589   0.535   9.116  10.100  2.0450  1.4359  2.3729
  560MOL0     H75590   0.875   9.182   9.822 -1.5921 -2.4885 -0.6994
  560MOL0     H75591   0.762   9.216   9.697  3.0652  1.9171 -1.6049
  560MOL0     H75592   0.889   9.423   9.744 -0.5361  2.3949  0.6661
  560MOL0     H75593   0.844   9.409   9.922 -0.8095  2.2769  0.2643
  560MOL0     H75594   0.618   9.436   9.840  0.4274  2.1997  2.3867
  560MOL0     H75595   0.664   9.445   9.666  0.1929 -0.3310  0.2768
  560MOL0     H75596   0.784   9.649   9.859  1.9714 -1.1560 -1.9236
  560MOL0     H75597   0.609   9.664   9.817 -0.4735  0.5556 -2.5251
  560MOL0     H75598   0.849   9.789   9.478  2.4209  0.1077  2.0688
  560MOL0     H75599   0.740   8.993   9.737 -3.2850  1.4124 -1.8408
  560MOL0     H75600   0.693   8.768   9.781  1.1887  2.4989 -1.8228
  561MOL0     O75601   6.950   1.382   3.782 -0.1989  0.2175  0.2171
  561MOL0     C75602   6.993   1.373   3.894  0.1284 -0.3911  0.1168
  561MOL0     O75603   6.924   1.387   4.006  0.4512  0.3886  0.3380
  561MOL0     C75604   6.787   1.386   4.026  0.2384  1.0233  0.7714
  561MOL0     C75605   6.702   1.416   3.923  0.9485  0.1759  0.6564
  561MOL0     C75606   6.563   1.424   3.948  0.7295  0.0078 -0.0138
  561MOL0     C75607   6.513   1.403   4.079  0.4159  0.3915  0.9458
  561MOL0     O75608   6.380   1.405   4.118  0.3253 -0.3261 -0.4297
  561MOL0     C75609   6.346   1.519   4.199 -0.0195  0.4342 -0.1792
  561MOL0     C75610   6.273   1.617   4.108  0.3174  0.5666 -0.4512
  561MOL0     C75611   6.199   1.735   4.186 -1.0116  0.7678  0.2656
  561MOL0     C75612   6.148   1.834   4.077 -1.2176  0.0735 -0.0668
  561MOL0     C75613   6.071   1.934   4.162 -0.1419 -0.1671  0.7720
  561MOL0     C75614   5.944   1.899   4.249  0.3729  0.4831  0.1629
  561MOL0     C75615   5.823   1.837   4.185 -0.1290  0.8869  0.1575
  561MOL0     C75616   5.723   1.797   4.285 -0.4649  0.3727  0.9736
  561MOL0     N75617   5.592   1.753   4.234 -0.1923  0.3327 -0.0849
  561MOL0     C75618   5.474   1.823   4.203 -0.5221 -0.3500 -0.0351
  561MOL0     C75619   5.385   1.734   4.154 -0.3376  0.1843  0.1704
  561MOL0     C75620   5.242   1.757   4.099 -0.5475 -0.2254  0.4838
  561MOL0     C75621   5.148   1.724   4.213 -0.1526 -1.1547  0.4398
  561MOL0     C75622   5.009   1.783   4.192 -0.2804 -0.0997 -0.9090
  561MOL0     C75623   4.985   1.937   4.177  0.1670  1.1335  0.1158
  561MOL0     O75624   4.842   1.946   4.176 -0.3884  0.0091 -0.7050
  561MOL0     C75625   4.769   2.008   4.274  0.3977 -0.4135  0.6900
  561MOL0     C75626   4.798   2.027   4.409 -0.7890  1.3358 -0.3277
  561MOL0     C75627   4.717   2.096   4.498  0.2406 -0.5828 -0.8517
  561MOL0     C75628   4.766   2.108   4.638  0.4488 -0.4669 -1.1042
  561MOL0     C75629   4.597   2.149   4.458  0.0843  1.1159  0.5823
  561MOL0     C75630   4.504   2.226   4.529 -0.1351 -0.7932  0.0849
  561MOL0     O75631   4.505   2.226   4.659 -0.8651  0.0765 -0.0883
  561MOL0     C75632   4.396   2.276   4.718 -0.8501  0.7283  0.5653
  561MOL0     C75633   4.418   2.372   4.807  0.4473 -0.9591 -1.3512
  561MOL0     C75634   4.314   2.408   4.900  0.1422  0.4716  0.2219
  561MOL0     C75635   4.186   2.349   4.897  0.0791  0.3717  0.4466
  561MOL0     O75636   4.104   2.387   4.997  0.2126 -0.3052 -0.0823
  561MOL0     C75637   3.964   2.406   4.955 -0.3819 -0.0705  0.2493
  561MOL0     C75638   3.864   2.433   5.071 -0.3224  0.4324 -0.2890
  561MOL0     C75639   3.724   2.466   5.014  0.2059 -1.2788  1.3127
  561MOL0     C75640   3.653   2.575   5.094  0.5132  0.5890  0.1427
  561MOL0     C75641   3.521   2.629   5.036 -1.0311  1.2064 -0.7745
  561MOL0     C75642   3.415   2.525   5.056  0.0544  0.0323 -0.0360
  561MOL0     C75643   3.267   2.567   5.036 -0.8875 -0.6393 -0.5139
  561MOL0     C75644   3.237   2.618   4.900  0.2074 -0.8565 -0.1662
  561MOL0    Cl75645   3.223   2.471   4.793  0.1148 -0.5392  0.2758
  561MOL0     C75646   4.158   2.265   4.787 -0.3064  0.5423 -0.1087
  561MOL0     C75647   4.259   2.217   4.706 -0.3010 -0.7048  0.0532
  561MOL0     O75648   4.434   2.300   4.463 -0.4237 -0.2555  0.1165
  561MOL0     C75649   4.565   2.124   4.317 -1.3176 -0.7638 -0.2428
  561MOL0     C75650   4.647   2.054   4.237 -0.6871  0.2141 -0.1315
  561MOL0     N75651   5.434   1.610   4.181  0.4196  1.0703 -0.1389
  561MOL0     N75652   5.551   1.624   4.234 -0.4321 -0.0415 -0.0802
  561MOL0     C75653   6.604   1.366   4.182  0.1038  0.7290  0.8826
  561MOL0     C75654   6.739   1.355   4.155  0.0711  0.8514  0.0475
  561MOL0     C75655   7.142   1.351   3.895  0.4223  0.1420 -0.1109
  561MOL0     C75656   7.217   1.346   3.780  0.5992  0.3120 -0.6280
  561MOL0     C75657   7.342   1.298   3.775  0.2575  0.2660  0.5606
  561MOL0     C75658   7.406   1.276   3.895  0.0854  0.5083 -0.1736
  561MOL0     O75659   7.534   1.230   3.874  0.5731 -0.3090 -0.2255
  561MOL0     C75660   7.630   1.224   3.974  0.4786 -0.1052  0.2344
  561MOL0     C75661   7.757   1.183   3.891 -0.4126 -0.2401 -0.0032
  561MOL0     C75662   7.884   1.185   3.974 -0.0629  0.2268  0.1278
  561MOL0     C75663   8.003   1.153   3.890  0.4949  0.2215  0.6983
  561MOL0     C75664   8.122   1.144   3.976  0.5519 -0.3441 -0.2556
  561MOL0     C75665   8.234   1.167   4.029 -0.3822  0.1937 -0.1901
  561MOL0     C75666   7.343   1.281   4.018  0.4535 -0.3618  1.2665
  561MOL0     C75667   7.204   1.321   4.019 -1.1554  0.1870  0.1374
  561MOL0     H75668   6.731   1.422   3.819  2.8934  0.2661  1.1739
  561MOL0     H75669   6.493   1.451   3.870 -1.5342 -1.7340  1.3106
  561MOL0     H75670   6.282   1.489   4.282 -0.9393  0.9263 -0.6807
  561MOL0     H75671   6.435   1.554   4.252  1.4644 -1.5351 -1.2479
  561MOL0     H75672   6.334   1.660   4.028  0.6118 -1.4253 -1.3344
  561MOL0     H75673   6.196   1.558   4.058  0.1306 -0.3882  0.8977
  561MOL0     H75674   6.111   1.695   4.237 -3.9295  1.8956 -3.4635
  561MOL0     H75675   6.257   1.784   4.264 -1.2728 -0.2562  1.1332
  561MOL0     H75676   6.226   1.883   4.018 -1.9671  1.5860  0.1345
  561MOL0     H75677   6.078   1.785   4.009 -3.1677  0.3650  1.6367
  561MOL0     H75678   6.150   1.974   4.225  2.1343 -3.7859  0.4976
  561MOL0     H75679   6.035   2.010   4.092  1.6246 -2.9667 -3.6371
  561MOL0     H75680   5.973   1.827   4.326 -1.5232 -2.2595 -1.4847
  561MOL0     H75681   5.914   1.992   4.297  0.7097 -0.0266  1.4179
  561MOL0     H75682   5.766   1.896   4.112 -2.1485  2.6005  2.9132
  561MOL0     H75683   5.847   1.743   4.135  3.0379  2.0954 -0.8294
  561MOL0     H75684   5.700   1.878   4.355 -1.0557  1.8404 -0.8379
  561MOL0     H75685   5.776   1.721   4.343  5.7597  3.1762 -0.2634
  561MOL0     H75686   5.471   1.931   4.196  1.0427 -0.2765  0.1167
  561MOL0     H75687   5.235   1.855   4.053  1.0597 -1.6932 -3.2787
  561MOL0     H75688   5.221   1.702   4.007 -0.5765 -0.0214  0.3680
  561MOL0     H75689   5.186   1.771   4.305 -0.6005 -0.4231  0.2623
  561MOL0     H75690   5.144   1.615   4.221 -2.2315 -1.4622 -2.8719
  561MOL0     H75691   4.948   1.747   4.275 -2.1892  3.2905 -0.6690
  561MOL0     H75692   4.968   1.733   4.104  0.0845 -1.1631 -0.4963
  561MOL0     H75693   5.020   1.970   4.078 -0.4373 -0.3753 -0.6188
  561MOL0     H75694   5.029   1.989   4.263 -0.3866 -2.3929  2.7526
  561MOL0     H75695   4.888   1.978   4.443 -1.6032  0.3211  0.4645
  561MOL0     H75696   4.705   2.044   4.702  1.5761  2.7365  3.6805
  561MOL0     H75697   4.869   2.075   4.658 -0.0251 -1.4606 -0.1896
  561MOL0     H75698   4.758   2.213   4.666  0.5235 -0.6566 -0.3507
  561MOL0     H75699   4.512   2.418   4.836  0.0312  0.1977 -1.7583
  561MOL0     H75700   4.332   2.483   4.976 -1.4018 -0.0020  1.1007
  561MOL0     H75701   3.947   2.500   4.902 -2.4588 -0.2291  0.5487
  561MOL0     H75702   3.933   2.330   4.884 -0.4425  0.4997 -0.3442
  561MOL0     H75703   3.860   2.346   5.137  0.2184  0.6420  0.0233
  561MOL0     H75704   3.907   2.515   5.129  1.9584  0.2465 -1.6120
  561MOL0     H75705   3.666   2.373   5.020  0.1833 -1.2011  2.4959
  561MOL0     H75706   3.732   2.487   4.907  0.5016  0.8028  1.7084
  561MOL0     H75707   3.632   2.552   5.198 -2.4311 -1.5246 -0.7858
  561MOL0     H75708   3.725   2.657   5.096 -0.1069  1.1262  0.7649
  561MOL0     H75709   3.530   2.648   4.928  2.0587 -2.6721 -1.4104
  561MOL0     H75710   3.489   2.717   5.092 -4.3024  0.8479 -1.8574
  561MOL0     H75711   3.425   2.444   4.983  0.9506 -0.4098  0.5585
  561MOL0     H75712   3.424   2.479   5.155 -0.1674  1.4159  0.6470
  561MOL0     H75713   3.241   2.653   5.099 -1.2360 -0.1467 -1.3148
  561MOL0     H75714   3.205   2.478   5.052  0.5324 -1.7738 -1.0707
  561MOL0     H75715   3.320   2.681   4.867  1.2397 -1.5013  1.1161
  561MOL0     H75716   3.143   2.674   4.891  0.7727  0.1213 -0.0773
  561MOL0     H75717   4.058   2.226   4.773 -0.6952  1.2696  0.5782
  561MOL0     H75718   4.251   2.147   4.623  0.4125  0.0519 -0.6805
  561MOL0     H75719   4.472   2.167   4.281 -1.3216 -0.0567  0.5834
  561MOL0     H75720   4.624   2.032   4.133  1.9785  2.5172 -1.3233
  561MOL0     H75721   6.559   1.353   4.280  2.1993 -0.3706  1.7757
  561MOL0     H75722   6.805   1.338   4.240 -4.0184 -1.5522  3.1609
  561MOL0     H75723   7.172   1.368   3.684  1.3805  0.2110 -1.0208
  561MOL0     H75724   7.392   1.280   3.680 -1.8456  0.5336 -0.6732
  561MOL0     H75725   7.647   1.323   4.017 -1.7443  0.3522  0.1501
  561MOL0     H75726   7.606   1.154   4.055 -1.5350  0.7350  0.4019
  561MOL0     H75727   7.783   1.262   3.820  3.6544  0.5552  2.0994
  561MOL0     H75728   7.743   1.086   3.842  0.5171  0.1899 -1.1603
  561MOL0     H75729   7.875   1.104   4.047 -1.4575  1.0542  0.9351
  561MOL0     H75730   7.893   1.285   4.019 -1.4401  1.0386 -1.2979
  561MOL0     H75731   8.016   1.241   3.826  1.5024 -0.4360 -0.0142
  561MOL0     H75732   8.000   1.057   3.839  1.7001 -1.0202  2.8183
  561MOL0     H75733   8.329   1.198   4.068 -0.6151 -0.6681  1.1388
  561MOL0     H75734   7.398   1.254   4.108  1.1924 -0.7861  0.6890
  561MOL0     H75735   7.155   1.332   4.115  0.0806  2.8675  0.5371
  562MOL0     O75736   0.778   9.088   3.644  0.5916  0.1637 -0.1100
  562MOL0     C75737   0.829   9.001   3.576  0.4624  0.9893 -0.3717
  562MOL0     O75738   0.760   8.905   3.498  0.1936  0.5476 -0.8576
  562MOL0     C75739   0.624   8.887   3.515 -0.3119 -0.6779  1.2597
  562MOL0     C75740   0.551   8.908   3.631  0.1088  0.7329  0.7385
  562MOL0     C75741   0.413   8.895   3.633 -0.9694  0.1067  0.5325
  562MOL0     C75742   0.338   8.858   3.522 -0.2780 -0.4351  0.6979
  562MOL0     O75743   0.207   8.836   3.543  0.8533 -0.1712 -0.2337
  562MOL0     C75744   0.117   8.843   3.429  0.1291  0.3551  0.6975
  562MOL0     C75745  -0.025   8.834   3.475  0.3026  1.1980 -1.5502
  562MOL0     C75746  -0.116   8.772   3.367 -1.2258  0.0159 -0.0536
  562MOL0     C75747  -0.249   8.846   3.341  0.7800 -1.2712 -0.2265
  562MOL0     C75748  -0.343   8.757   3.264  0.2379 -0.0717  0.4572
  562MOL0     C75749  -0.467   8.827   3.196  0.9257 -0.3279 -0.4919
  562MOL0     C75750  -0.450   8.891   3.061  0.2223  1.0245 -0.3306
  562MOL0     C75751  -0.582   8.933   2.997  0.2057  0.6316  0.6330
  562MOL0     N75752  -0.672   8.812   2.979  0.3382 -0.5506  0.2673
  562MOL0     C75753  -0.649   8.714   2.888 -0.3037 -0.2297 -0.0456
  562MOL0     C75754  -0.754   8.634   2.893 -0.6233  0.4911  0.1421
  562MOL0     C75755  -0.766   8.511   2.805 -0.1719  0.1210 -0.4102
  562MOL0     C75756  -0.845   8.567   2.679 -0.5132  0.3791  0.2146
  562MOL0     C75757  -0.854   8.465   2.571 -0.3416  0.0054  0.6343
  562MOL0     C75758  -0.922   8.333   2.618  0.0389 -0.5275  0.2097
  562MOL0     O75759  -0.973   8.258   2.500 -0.5887 -1.1591  0.0835
  562MOL0     C75760  -1.089   8.301   2.456  0.1762 -0.7554  0.2511
  562MOL0     C75761  -1.142   8.234   2.344 -0.5844  0.1178 -0.3259
  562MOL0     C75762  -1.275   8.246   2.290 -0.2866 -0.8665 -0.1935
  562MOL0     C75763  -1.313   8.169   2.170  0.4644 -0.4540  0.3573
  562MOL0     C75764  -1.363   8.330   2.371 -0.2588  0.4241 -0.5184
  562MOL0     C75765  -1.500   8.350   2.328  0.2595 -0.0055  0.1195
  562MOL0     O75766  -1.555   8.251   2.264  0.0057 -0.3646 -0.3750
  562MOL0     C75767  -1.662   8.269   2.195  0.3649 -0.9214 -0.2108
  562MOL0     C75768  -1.657   8.225   2.064 -0.4878  0.1930  0.9858
  562MOL0     C75769  -1.785   8.216   2.000 -0.5325 -0.3508  0.4871
  562MOL0     C75770  -1.895   8.263   2.059  0.6051 -0.2314 -0.1550
  562MOL0     O75771  -2.019   8.239   2.010  0.5865  0.8159  0.9059
  562MOL0     C75772  -2.067   8.307   1.892 -0.7961  0.3758 -0.2559
  562MOL0     C75773  -2.168   8.224   1.811  0.2989 -0.7175 -0.2889
  562MOL0     C75774  -2.111   8.095   1.747  1.2746  0.1258  0.5794
  562MOL0     C75775  -2.235   8.016   1.700 -0.1201 -0.2225 -0.3325
  562MOL0     C75776  -2.201   7.881   1.631 -0.8388  0.4271 -0.4436
  562MOL0     C75777  -2.322   7.809   1.577 -0.0978  0.1088 -0.6981
  562MOL0     C75778  -2.363   7.850   1.439  0.0264 -0.1503 -0.5497
  562MOL0     C75779  -2.492   7.771   1.406 -0.4435  0.4902 -1.2918
  562MOL0    Cl75780  -2.555   7.822   1.247  0.0198  0.0272 -0.1257
  562MOL0     C75781  -1.899   8.319   2.187 -0.1951 -0.6679  0.6192
  562MOL0     C75782  -1.782   8.320   2.259 -0.2620  0.2076 -0.9251
  562MOL0     O75783  -1.541   8.466   2.323  0.0533  0.0785 -0.6848
  562MOL0     C75784  -1.307   8.415   2.467  0.0196  0.0733 -0.6745
  562MOL0     C75785  -1.170   8.401   2.512  0.9868  0.9086 -0.1446
  562MOL0     N75786  -0.839   8.675   2.995 -0.2032 -0.0642  0.9422
  562MOL0     N75787  -0.789   8.777   3.045  0.3904  0.3638 -0.1732
  562MOL0     C75788   0.406   8.838   3.402 -0.2712  1.4286 -0.1189
  562MOL0     C75789   0.551   8.848   3.403 -0.2947 -0.4775  0.0383
  562MOL0     C75790   0.980   9.002   3.568  0.2744  0.4387 -0.0054
  562MOL0     C75791   1.052   9.100   3.630 -0.3449 -0.0545  0.2598
  562MOL0     C75792   1.185   9.113   3.615 -0.1219  0.2290 -0.0029
  562MOL0     C75793   1.258   9.013   3.551  0.5372  0.0604 -0.1168
  562MOL0     O75794   1.399   9.014   3.545 -0.0701  0.0816  1.0205
  562MOL0     C75795   1.477   9.104   3.624  0.0793  0.4405  0.9660
  562MOL0     C75796   1.629   9.078   3.609 -0.0124  0.0576  0.1781
  562MOL0     C75797   1.686   8.934   3.658  1.4895 -0.0405  0.0619
  562MOL0     C75798   1.795   8.958   3.766 -0.1962  0.4710 -0.1992
  562MOL0     C75799   1.870   8.832   3.779  0.5192  0.7090 -0.2360
  562MOL0     C75800   1.928   8.728   3.781 -1.4957 -0.1197  0.9866
  562MOL0     C75801   1.190   8.904   3.492  0.0672  0.2081 -0.4195
  562MOL0     C75802   1.049   8.892   3.500 -0.1452 -0.2516  0.4554
  562MOL0     H75803   0.595   8.926   3.728 -2.6055  0.9335  2.0500
  562MOL0     H75804   0.377   8.913   3.733  0.0211 -2.8444  1.5393
  562MOL0     H75805   0.130   8.935   3.370  2.6729 -0.7974 -0.7073
  562MOL0     H75806   0.131   8.760   3.359 -0.3148 -0.2472  1.3106
  562MOL0     H75807  -0.030   8.773   3.566 -3.4041  0.7113 -1.9388
  562MOL0     H75808  -0.054   8.938   3.494  1.7929  2.0447 -3.5513
  562MOL0     H75809  -0.060   8.744   3.277  0.1600 -2.9077  1.5423
  562MOL0     H75810  -0.130   8.669   3.402  2.5651 -0.8295 -0.5808
  562MOL0     H75811  -0.302   8.868   3.434 -0.7312 -1.7326 -0.9369
  562MOL0     H75812  -0.233   8.940   3.288 -1.1944 -0.8177 -0.1054
  562MOL0     H75813  -0.286   8.709   3.183  0.5930 -1.3414  1.4319
  562MOL0     H75814  -0.393   8.683   3.326  1.6657 -1.4929 -0.0392
  562MOL0     H75815  -0.550   8.755   3.199 -1.0604  1.8612  0.8389
  562MOL0     H75816  -0.506   8.903   3.264  1.7087  1.7912 -2.2970
  562MOL0     H75817  -0.398   8.988   3.069 -0.4910  1.4882 -1.1588
  562MOL0     H75818  -0.407   8.822   2.987  0.1205  0.7502 -0.1337
  562MOL0     H75819  -0.558   8.987   2.906 -0.1213 -0.0845  0.1085
  562MOL0     H75820  -0.627   9.007   3.064  1.9053  2.0568  0.2734
  562MOL0     H75821  -0.573   8.709   2.811 -1.3293  1.5862 -1.2500
  562MOL0     H75822  -0.667   8.470   2.783 -0.0293 -0.3890  1.0432
  562MOL0     H75823  -0.821   8.428   2.850  1.8775 -0.7969  0.5417
  562MOL0     H75824  -0.805   8.663   2.646 -1.5044  1.6217  2.3869
  562MOL0     H75825  -0.944   8.598   2.714 -0.0926 -0.9738  2.7559
  562MOL0     H75826  -0.751   8.440   2.544 -1.1271 -0.8298 -1.8233
  562MOL0     H75827  -0.902   8.502   2.480  3.5337  0.4859 -1.4482
  562MOL0     H75828  -0.982   8.347   2.709  2.8070 -0.1158  2.1214
  562MOL0     H75829  -0.847   8.261   2.652  1.9163  2.5329  3.2811
  562MOL0     H75830  -1.079   8.159   2.298  2.3666  1.1042  1.8231
  562MOL0     H75831  -1.383   8.087   2.189 -0.2677 -0.4092 -1.8148
  562MOL0     H75832  -1.367   8.234   2.099 -1.5233  1.4528  3.3611
  562MOL0     H75833  -1.226   8.126   2.120  0.2245 -1.2212  0.5917
  562MOL0     H75834  -1.568   8.173   2.028 -2.0855 -1.5740 -0.6708
  562MOL0     H75835  -1.793   8.168   1.903  0.0798 -0.6573  0.5820
  562MOL0     H75836  -2.124   8.392   1.930  1.4006  2.2288 -0.8636
  562MOL0     H75837  -1.992   8.330   1.815  1.3120  0.2975  1.6792
  562MOL0     H75838  -2.254   8.195   1.872  0.2544  1.1741  0.6370
  562MOL0     H75839  -2.193   8.292   1.730 -1.6864 -0.1907  0.7113
  562MOL0     H75840  -2.067   8.030   1.824  1.5804  0.0604  0.3516
  562MOL0     H75841  -2.046   8.122   1.663  0.2836 -0.9269 -0.5765
  562MOL0     H75842  -2.308   8.006   1.781  1.5351  0.2252  1.2880
  562MOL0     H75843  -2.280   8.085   1.628  0.2791  0.2993 -0.0893
  562MOL0     H75844  -2.155   7.812   1.702  1.5077  2.3498  0.0542
  562MOL0     H75845  -2.130   7.901   1.550  0.8751  0.5835  1.0251
  562MOL0     H75846  -2.313   7.700   1.580 -1.3758  0.0038 -0.2309
  562MOL0     H75847  -2.405   7.839   1.641 -0.4681  0.7699 -1.4704
  562MOL0     H75848  -2.287   7.816   1.368  1.9660  0.1108  1.3296
  562MOL0     H75849  -2.361   7.959   1.434  2.9640 -0.1786 -2.7245
  562MOL0     H75850  -2.566   7.781   1.485 -1.8310 -0.4820 -2.4267
  562MOL0     H75851  -2.463   7.665   1.399 -0.3950  0.2986  1.0284
  562MOL0     H75852  -1.992   8.352   2.231 -0.8598 -0.2273 -1.0723
  562MOL0     H75853  -1.779   8.347   2.364  0.9225 -1.1220 -0.5813
  562MOL0     H75854  -1.366   8.484   2.527 -0.1098 -1.3379  0.8723
  562MOL0     H75855  -1.151   8.465   2.597 -0.8406  3.5953 -1.5897
  562MOL0     H75856   0.363   8.802   3.309 -0.8419  0.2410  0.5779
  562MOL0     H75857   0.594   8.835   3.304  3.3516  0.8932  1.2791
  562MOL0     H75858   0.992   9.176   3.679 -2.8604 -0.7016 -1.6033
  562MOL0     H75859   1.238   9.204   3.641 -1.2522  0.8810  0.0756
  562MOL0     H75860   1.452   9.208   3.600 -0.7490 -0.1158 -0.7191
  562MOL0     H75861   1.454   9.091   3.730  3.2952 -2.3129  1.4851
  562MOL0     H75862   1.663   9.159   3.674 -1.6445  0.1214  0.9812
  562MOL0     H75863   1.665   9.108   3.510 -2.5874  0.0223 -0.8533
  562MOL0     H75864   1.729   8.880   3.574  3.0993 -0.4015  1.0684
  562MOL0     H75865   1.593   8.883   3.686  1.1899 -0.1625 -1.1366
  562MOL0     H75866   1.756   8.983   3.865  1.9184 -2.0780  1.4251
  562MOL0     H75867   1.881   9.018   3.735  2.4240 -2.2472  1.2030
  562MOL0     H75868   1.964   8.628   3.793 -2.7136 -0.7522 -0.3071
  562MOL0     H75869   1.239   8.831   3.429  1.8486  1.1579 -0.2189
  562MOL0     H75870   0.992   8.813   3.454 -0.8602  0.6235 -0.2017
  563MOL0     O75871   7.590   5.074   4.072  0.6238  0.8286 -0.2118
  563MOL0     C75872   7.559   5.085   4.191 -0.6744  0.4339 -0.1041
  563MOL0     O75873   7.431   5.132   4.234  0.4989 -0.2760 -0.2578
  563MOL0     C75874   7.332   5.158   4.141 -0.1506 -0.6220 -0.1812
  563MOL0     C75875   7.250   5.059   4.104 -0.0492 -0.4391  0.0647
  563MOL0     C75876   7.162   5.077   4.000 -0.6688 -0.5055  0.0733
  563MOL0     C75877   7.153   5.202   3.933 -0.3286 -0.4359 -0.0865
  563MOL0     O75878   7.060   5.216   3.826 -0.0592 -0.7797 -1.0332
  563MOL0     C75879   7.002   5.357   3.810 -0.4368  1.5681  0.1139
  563MOL0     C75880   6.883   5.360   3.702  0.4077 -0.1304 -0.1792
  563MOL0     C75881   6.749   5.338   3.767 -0.0631 -0.4459  0.2264
  563MOL0     C75882   6.715   5.189   3.772 -0.2790  0.6460 -0.0719
  563MOL0     C75883   6.584   5.167   3.855  0.2021  0.2800 -0.0226
  563MOL0     C75884   6.450   5.221   3.787  0.6460 -0.1005 -0.0226
  563MOL0     C75885   6.322   5.151   3.845 -0.9927  0.2768  0.0066
  563MOL0     C75886   6.309   5.178   3.995  0.2408  0.7541  1.0328
  563MOL0     N75887   6.202   5.090   4.045 -0.8758 -0.2576 -0.9998
  563MOL0     C75888   6.213   4.989   4.134  0.0666  0.4232 -0.8357
  563MOL0     C75889   6.086   4.947   4.142  0.5181 -0.0211  0.0209
  563MOL0     C75890   6.051   4.820   4.219 -0.8311  0.0756  0.0314
  563MOL0     C75891   5.904   4.783   4.230  0.4790 -0.8619 -0.2637
  563MOL0     C75892   5.875   4.675   4.339 -0.6529 -0.5711 -0.5000
  563MOL0     C75893   5.722   4.638   4.334  0.3106 -0.1835  0.4568
  563MOL0     O75894   5.707   4.512   4.410 -0.0638 -0.3947 -0.3739
  563MOL0     C75895   5.585   4.450   4.426  0.0216  0.1831 -0.6914
  563MOL0     C75896   5.462   4.502   4.408  1.1968 -0.0201 -0.3369
  563MOL0     C75897   5.345   4.419   4.428  0.3647 -0.2395 -0.5595
  563MOL0     C75898   5.220   4.495   4.382  0.0804 -0.5504  0.3212
  563MOL0     C75899   5.347   4.290   4.480 -0.1022 -0.4720  0.2727
  563MOL0     C75900   5.227   4.209   4.498  0.0799  0.0378 -0.1927
  563MOL0     O75901   5.105   4.258   4.528 -0.5218  0.0594 -0.7091
  563MOL0     C75902   4.990   4.184   4.498 -0.1794 -1.8307 -0.6319
  563MOL0     C75903   4.930   4.083   4.589 -0.1860  0.1090 -0.0675
  563MOL0     C75904   4.798   4.041   4.568  0.1524  0.0010 -0.0547
  563MOL0     C75905   4.725   4.089   4.452 -0.2343  0.7973 -0.9732
  563MOL0     O75906   4.593   4.047   4.437  0.3832  1.2659  0.1263
  563MOL0     C75907   4.486   4.130   4.398 -0.2012  0.1452 -0.2056
  563MOL0     C75908   4.373   4.049   4.351 -0.2892 -0.7966 -0.3626
  563MOL0     C75909   4.412   3.988   4.220 -0.1711  1.4742  0.7074
  563MOL0     C75910   4.318   3.868   4.183 -0.1229 -0.7014  0.0590
  563MOL0     C75911   4.181   3.927   4.153 -0.3684 -0.0113  0.5590
  563MOL0     C75912   4.084   3.819   4.132  0.8510 -0.3623  0.8142
  563MOL0     C75913   3.954   3.901   4.088 -0.2289 -0.6542  0.2184
  563MOL0     C75914   3.872   3.806   4.020 -1.2155 -0.4483 -0.6759
  563MOL0    Cl75915   3.730   3.880   3.950  0.3796  0.5725  0.2379
  563MOL0     C75916   4.785   4.190   4.372 -0.2209  1.0704  0.7706
  563MOL0     C75917   4.914   4.233   4.396 -0.5693 -0.5766  0.4472
  563MOL0     O75918   5.243   4.091   4.467  0.2769  0.0568 -0.5729
  563MOL0     C75919   5.476   4.235   4.495 -0.1586 -0.0085 -0.0646
  563MOL0     C75920   5.584   4.327   4.484  0.2837  0.1394 -1.0378
  563MOL0     N75921   6.005   5.009   4.046 -0.1004 -0.6682  0.3584
  563MOL0     N75922   6.075   5.101   3.995 -0.3810 -0.0302 -0.5283
  563MOL0     C75923   7.223   5.308   3.993  0.3972  0.6025  0.3583
  563MOL0     C75924   7.314   5.289   4.094  0.4480  0.5719 -0.1386
  563MOL0     C75925   7.650   5.043   4.298 -0.3326 -0.3132 -0.2027
  563MOL0     C75926   7.775   4.984   4.270 -0.2293  0.6478  0.3354
  563MOL0     C75927   7.863   4.942   4.371  0.4973  0.0312 -0.1367
  563MOL0     C75928   7.828   4.966   4.503 -0.0794  0.6043  0.0455
  563MOL0     O75929   7.925   4.936   4.595  1.1832 -0.1922 -0.6644
  563MOL0     C75930   7.890   4.949   4.737  0.2338 -0.0261  0.5297
  563MOL0     C75931   7.998   4.858   4.816 -0.1475 -0.3661  0.4883
  563MOL0     C75932   7.985   4.885   4.966 -1.4333  0.1879  0.1990
  563MOL0     C75933   8.091   4.984   5.009 -0.2746 -1.0010 -0.0686
  563MOL0     C75934   8.067   5.130   4.984 -0.5824 -0.2806 -0.7301
  563MOL0     C75935   8.029   5.238   4.949  0.3159  1.2099 -0.7202
  563MOL0     C75936   7.704   5.029   4.533  1.7032  0.0389  0.2183
  563MOL0     C75937   7.614   5.068   4.430 -0.3288 -0.5026 -0.3497
  563MOL0     H75938   7.251   4.960   4.148  2.2524 -0.0297  1.0567
  563MOL0     H75939   7.108   4.993   3.958  1.3352 -1.6548 -0.3305
  563MOL0     H75940   6.960   5.380   3.909 -3.1172  1.0574 -0.8383
  563MOL0     H75941   7.080   5.424   3.772  0.2158 -0.3036 -2.0120
  563MOL0     H75942   6.889   5.464   3.669  1.8089  0.0165  0.4698
  563MOL0     H75943   6.902   5.295   3.617 -2.0973 -0.9937 -0.1570
  563MOL0     H75944   6.763   5.371   3.870  1.1341 -1.4812  0.4078
  563MOL0     H75945   6.668   5.395   3.720  0.6791  1.0534  0.7230
  563MOL0     H75946   6.697   5.152   3.670  4.7635 -0.4334 -0.8380
  563MOL0     H75947   6.802   5.129   3.799  0.6230  2.3640  0.9661
  563MOL0     H75948   6.565   5.061   3.877  0.3783  0.1237 -0.6149
  563MOL0     H75949   6.595   5.207   3.957 -2.3042  0.9933  0.0273
  563MOL0     H75950   6.445   5.329   3.799  2.2519  0.1298 -1.1024
  563MOL0     H75951   6.445   5.194   3.681 -2.5625 -0.5843  0.1517
  563MOL0     H75952   6.235   5.193   3.792  1.3799  4.7254 -0.8548
  563MOL0     H75953   6.324   5.044   3.819 -0.0295  0.4957 -0.8762
  563MOL0     H75954   6.294   5.283   4.023 -1.8447  0.9552 -0.5968
  563MOL0     H75955   6.396   5.147   4.054  0.4268 -0.6744  0.0657
  563MOL0     H75956   6.304   4.938   4.166 -2.4006 -2.2730  2.8014
  563MOL0     H75957   6.102   4.744   4.160 -1.5712  0.7809 -1.5710
  563MOL0     H75958   6.101   4.829   4.316 -0.8194 -0.2926  0.0600
  563MOL0     H75959   5.878   4.738   4.134 -1.0600  0.0783 -0.3241
  563MOL0     H75960   5.839   4.870   4.243 -1.0802 -2.2100  1.4711
  563MOL0     H75961   5.906   4.719   4.434 -2.6252  0.2797 -0.2019
  563MOL0     H75962   5.941   4.592   4.315  1.5000  1.6370 -2.8943
  563MOL0     H75963   5.676   4.633   4.235 -0.1054 -1.0769  0.6791
  563MOL0     H75964   5.674   4.720   4.388  0.8195 -0.6962  1.7414
  563MOL0     H75965   5.459   4.606   4.375 -1.9971  0.0432 -0.2036
  563MOL0     H75966   5.140   4.490   4.456 -0.4323  0.5012 -0.1420
  563MOL0     H75967   5.229   4.604   4.378 -0.7972 -0.4888 -0.1025
  563MOL0     H75968   5.198   4.460   4.281  1.2834 -0.0914 -0.1125
  563MOL0     H75969   4.981   4.021   4.663 -0.8784 -2.6514 -1.7559
  563MOL0     H75970   4.757   3.978   4.646  3.4449 -0.2657  1.6075
  563MOL0     H75971   4.448   4.201   4.472 -3.3216 -0.7538 -0.8337
  563MOL0     H75972   4.520   4.195   4.316 -1.1046 -2.0380 -2.4389
  563MOL0     H75973   4.334   3.973   4.420  1.4888  0.1753  1.8670
  563MOL0     H75974   4.292   4.122   4.343 -0.3234 -0.4278  2.3688
  563MOL0     H75975   4.512   3.945   4.237 -0.7405 -0.9260 -1.4406
  563MOL0     H75976   4.415   4.063   4.141  0.9269  0.4479 -0.2653
  563MOL0     H75977   4.355   3.826   4.089  0.2196 -1.4352  0.5148
  563MOL0     H75978   4.311   3.794   4.263  0.2802 -0.5113  0.2760
  563MOL0     H75979   4.182   3.988   4.062 -2.2392 -1.6825 -0.6659
  563MOL0     H75980   4.146   3.981   4.242  0.8072 -0.9703  1.6490
  563MOL0     H75981   4.116   3.752   4.052 -2.1166 -0.1312 -0.7102
  563MOL0     H75982   4.063   3.755   4.218  0.6101  1.0197  1.8029
  563MOL0     H75983   3.981   3.980   4.017  1.0981 -1.7754 -0.5933
  563MOL0     H75984   3.906   3.946   4.175 -1.9798 -3.9117  1.0794
  563MOL0     H75985   3.828   3.743   4.097 -0.7362  0.0030 -0.0125
  563MOL0     H75986   3.918   3.745   3.941 -1.7842  1.5582 -2.6821
  563MOL0     H75987   4.717   4.239   4.303  3.1698  1.3396 -2.6940
  563MOL0     H75988   4.947   4.316   4.334 -0.6600 -2.4624 -2.2855
  563MOL0     H75989   5.497   4.130   4.515  1.7240 -0.2894 -2.9686
  563MOL0     H75990   5.684   4.301   4.514  0.2727  0.5443 -0.6352
  563MOL0     H75991   7.211   5.409   3.955 -2.1153  0.5995  0.9430
  563MOL0     H75992   7.365   5.376   4.133  1.8769  0.0339 -0.7276
  563MOL0     H75993   7.811   4.966   4.169  1.9824 -0.8890  1.3035
  563MOL0     H75994   7.957   4.898   4.337 -0.2179 -2.2792  0.6795
  563MOL0     H75995   7.885   5.054   4.766 -1.1386 -0.9805  4.2973
  563MOL0     H75996   7.785   4.919   4.749 -0.0066 -0.9666 -2.9900
  563MOL0     H75997   8.099   4.880   4.781 -0.7135  1.7066  0.0396
  563MOL0     H75998   7.970   4.753   4.798  1.4601 -0.6383 -0.6666
  563MOL0     H75999   8.005   4.799   5.031  0.0198  0.2626 -0.1138
  563MOL0     H76000   7.884   4.922   4.985 -1.3975  1.6774 -2.2058
  563MOL0     H76001   8.180   4.963   4.949 -0.5557 -0.6556 -0.6120
  563MOL0     H76002   8.109   4.977   5.117  0.1448 -2.4687 -0.2123
  563MOL0     H76003   7.994   5.331   4.909  2.9143  1.6184 -2.2918
  563MOL0     H76004   7.666   5.054   4.632 -2.5776  1.9673 -1.6611
  563MOL0     H76005   7.518   5.111   4.456  1.2440  2.0258  1.7426
  564MOL0     O76006   4.968   6.409   4.808  0.1306 -0.3285 -0.4833
  564MOL0     C76007   5.047   6.481   4.748  0.4924 -0.3986  0.0851
  564MOL0     O76008   5.030   6.534   4.627  1.0354 -0.2273 -0.5839
  564MOL0     C76009   4.919   6.521   4.542 -0.1686  0.1577 -0.9017
  564MOL0     C76010   4.801   6.452   4.570 -0.4055 -0.6169 -0.0233
  564MOL0     C76011   4.697   6.452   4.465 -0.2079 -0.1660 -0.4007
  564MOL0     C76012   4.716   6.530   4.347  1.0329  0.8215  0.4655
  564MOL0     O76013   4.623   6.561   4.249  0.0859  0.4712  0.4248
  564MOL0     C76014   4.489   6.583   4.302  0.4895  0.3064  0.4121
  564MOL0     C76015   4.405   6.452   4.298 -0.6634 -0.1914  0.6586
  564MOL0     C76016   4.275   6.479   4.378 -0.6548  0.2602  0.0502
  564MOL0     C76017   4.202   6.345   4.382  0.5326 -0.2563  0.0947
  564MOL0     C76018   4.078   6.355   4.471  0.1792 -0.1613  0.2260
  564MOL0     C76019   3.978   6.235   4.466 -0.2050  0.2805 -0.6127
  564MOL0     C76020   4.011   6.120   4.569 -0.7053  0.0294  0.7892
  564MOL0     C76021   3.943   5.987   4.548  0.0977 -1.1093 -0.7007
  564MOL0     N76022   3.797   6.008   4.560 -0.3122  0.6109 -0.3647
  564MOL0     C76023   3.731   6.064   4.660  0.8550 -0.5387 -0.3344
  564MOL0     C76024   3.598   6.065   4.632 -0.2764 -0.3609 -0.3386
  564MOL0     C76025   3.496   6.121   4.722  0.6411 -0.0137 -0.0212
  564MOL0     C76026   3.387   6.202   4.645  0.6190 -0.7504 -0.7937
  564MOL0     C76027   3.286   6.267   4.743  0.1799  0.1455  0.3596
  564MOL0     C76028   3.176   6.353   4.673 -0.8683  0.0087  0.4898
  564MOL0     O76029   3.112   6.432   4.769 -0.1716  0.3938  0.4635
  564MOL0     C76030   2.977   6.427   4.766  0.0038 -0.0764 -0.1923
  564MOL0     C76031   2.893   6.431   4.870  0.2140 -0.1497  0.7262
  564MOL0     C76032   2.750   6.441   4.868  0.5563 -0.1167  0.1213
  564MOL0     C76033   2.674   6.440   4.990 -0.1519 -0.6805 -0.0789
  564MOL0     C76034   2.686   6.449   4.738  0.2952  0.2203 -0.1798
  564MOL0     C76035   2.540   6.418   4.712  0.5727  0.0973 -1.1372
  564MOL0     O76036   2.471   6.354   4.816 -0.0435 -0.5528  0.2856
  564MOL0     C76037   2.360   6.288   4.781 -0.5882 -0.5306  0.4802
  564MOL0     C76038   2.247   6.289   4.867  0.2971 -0.7056 -0.6007
  564MOL0     C76039   2.141   6.193   4.850 -0.2068 -0.3043 -0.5890
  564MOL0     C76040   2.139   6.109   4.744  0.4240 -0.2259 -0.2074
  564MOL0     O76041   2.048   6.012   4.713  0.1186  0.0787  0.5641
  564MOL0     C76042   1.920   6.007   4.784  0.1765  0.0918  0.3459
  564MOL0     C76043   1.841   5.886   4.756  0.4683 -0.3046  0.4313
  564MOL0     C76044   1.918   5.753   4.775 -0.2448 -0.2461  0.2177
  564MOL0     C76045   1.946   5.711   4.920  0.0155 -0.4359 -0.9875
  564MOL0     C76046   2.001   5.563   4.936  0.4380  0.3917 -0.3235
  564MOL0     C76047   2.022   5.522   5.076  0.4013  0.6847  0.1640
  564MOL0     C76048   2.110   5.395   5.082  0.8031 -0.4706  0.1090
  564MOL0     C76049   2.036   5.267   5.041  0.3340 -0.4020 -1.3722
  564MOL0    Cl76050   1.912   5.213   5.169 -0.2401  0.4919  0.3936
  564MOL0     C76051   2.246   6.106   4.661  0.6453 -0.0190 -0.0921
  564MOL0     C76052   2.356   6.192   4.671  0.1467  0.4950 -0.2487
  564MOL0     O76053   2.491   6.441   4.603  0.1168 -0.1065 -0.3305
  564MOL0     C76054   2.774   6.465   4.633 -0.4655 -0.1517 -0.1164
  564MOL0     C76055   2.910   6.447   4.646 -0.3300  0.8755 -0.4478
  564MOL0     N76056   3.586   5.999   4.508 -0.1401  0.6752  0.8451
  564MOL0     N76057   3.699   5.964   4.471  0.5555  0.2857  0.9166
  564MOL0     C76058   4.838   6.594   4.327  0.0700  0.2049  0.4144
  564MOL0     C76059   4.933   6.593   4.427 -0.5170 -0.0614 -0.3205
  564MOL0     C76060   5.165   6.520   4.828 -0.2363  0.6714 -0.7963
  564MOL0     C76061   5.256   6.609   4.768 -0.6671  1.1436 -0.4845
  564MOL0     C76062   5.369   6.654   4.849  1.7142 -0.6623  0.2038
  564MOL0     C76063   5.392   6.604   4.982  0.6623 -0.7552  0.5626
  564MOL0     O76064   5.508   6.644   5.042  0.0547 -0.3434  0.0022
  564MOL0     C76065   5.560   6.541   5.120 -0.1223  0.0844 -0.1691
  564MOL0     C76066   5.705   6.558   5.146 -0.1767 -0.5721 -0.4616
  564MOL0     C76067   5.774   6.566   5.020 -0.7356  0.1805  0.5227
  564MOL0     C76068   5.921   6.587   5.032  0.0837  0.6271 -0.7005
  564MOL0     C76069   5.999   6.481   5.100  0.2683  0.6560 -0.5095
  564MOL0     C76070   6.051   6.394   5.168  1.2765  0.6612  0.0710
  564MOL0     C76071   5.298   6.517   5.031 -0.0075 -0.2727 -0.7698
  564MOL0     C76072   5.184   6.480   4.960  0.1620 -0.1940 -1.2236
  564MOL0     H76073   4.782   6.399   4.663 -0.9616  1.0676  0.8841
  564MOL0     H76074   4.606   6.394   4.469 -1.0702  1.1906  0.3561
  564MOL0     H76075   4.497   6.613   4.406  0.1069 -0.5854  0.7109
  564MOL0     H76076   4.440   6.664   4.248  0.3651  0.5475  0.8843
  564MOL0     H76077   4.377   6.426   4.196 -2.0178 -1.1481  1.2390
  564MOL0     H76078   4.466   6.364   4.321  0.5656 -0.4382 -2.8848
  564MOL0     H76079   4.288   6.519   4.479  2.3421 -1.3001  0.3890
  564MOL0     H76080   4.212   6.546   4.319 -0.3322  0.7680  0.2740
  564MOL0     H76081   4.170   6.307   4.285 -3.4014  0.3879  0.9844
  564MOL0     H76082   4.257   6.266   4.434 -0.1272  0.4390  1.9458
  564MOL0     H76083   4.107   6.354   4.577 -0.4596 -0.0891  0.4112
  564MOL0     H76084   4.019   6.445   4.450 -1.2063 -1.2096 -0.5805
  564MOL0     H76085   3.879   6.280   4.479 -0.5774 -0.4059 -0.9707
  564MOL0     H76086   3.987   6.190   4.367  0.0204 -0.3477 -0.3130
  564MOL0     H76087   4.117   6.096   4.559 -1.0367 -0.7773 -1.1179
  564MOL0     H76088   4.002   6.154   4.673  0.3367  0.4411  0.7607
  564MOL0     H76089   3.993   5.925   4.623 -0.6611  0.4948  1.2424
  564MOL0     H76090   3.957   5.941   4.450 -2.5472 -3.1053 -0.2379
  564MOL0     H76091   3.766   6.099   4.758 -1.9365  0.2715  0.4628
  564MOL0     H76092   3.459   6.040   4.786  0.9908 -0.2595 -0.1304
  564MOL0     H76093   3.542   6.183   4.799  3.1296  1.9771 -2.9163
  564MOL0     H76094   3.333   6.140   4.573  1.0325 -3.4462  1.0873
  564MOL0     H76095   3.436   6.284   4.590 -2.4159 -0.1904 -2.9187
  564MOL0     H76096   3.343   6.318   4.821 -0.1933  1.7300 -0.3655
  564MOL0     H76097   3.238   6.188   4.802  0.2431 -0.1007  0.0822
  564MOL0     H76098   3.113   6.282   4.618  3.8245 -2.4998 -2.2991
  564MOL0     H76099   3.230   6.407   4.595 -3.4007 -0.3122 -1.6561
  564MOL0     H76100   2.938   6.435   4.968 -1.5000 -0.7376  1.5596
  564MOL0     H76101   2.593   6.511   4.973  1.3621  0.7864 -1.6714
  564MOL0     H76102   2.647   6.335   5.003  3.4216 -2.0939 -2.4366
  564MOL0     H76103   2.725   6.468   5.083 -0.0127  1.1810 -0.6553
  564MOL0     H76104   2.258   6.345   4.959  2.5220 -0.5692 -0.9050
  564MOL0     H76105   2.061   6.191   4.924 -1.1096  0.6990 -1.4974
  564MOL0     H76106   1.936   6.003   4.892 -3.5186  0.0714  1.0139
  564MOL0     H76107   1.862   6.095   4.757  0.9774  0.0907 -1.5514
  564MOL0     H76108   1.750   5.877   4.815  0.9083 -0.7247  1.0639
  564MOL0     H76109   1.815   5.888   4.650 -0.2668  0.7695  0.6167
  564MOL0     H76110   2.003   5.748   4.708 -0.5457 -0.3673 -0.1562
  564MOL0     H76111   1.848   5.673   4.747  2.4235 -2.5080 -0.3979
  564MOL0     H76112   2.027   5.770   4.963  0.4074  0.0649 -2.3638
  564MOL0     H76113   1.867   5.718   4.995  0.2383  0.5738 -0.8254
  564MOL0     H76114   2.093   5.562   4.877  1.2657  3.7673  0.6892
  564MOL0     H76115   1.942   5.485   4.886 -0.5941 -0.4150  2.0350
  564MOL0     H76116   2.071   5.602   5.132  1.4930  0.3722 -0.3020
  564MOL0     H76117   1.930   5.500   5.130 -0.3315 -0.0078 -1.3037
  564MOL0     H76118   2.139   5.384   5.187  0.8822 -0.3405  0.1005
  564MOL0     H76119   2.200   5.421   5.025  1.1593  1.2458  1.3888
  564MOL0     H76120   2.102   5.180   5.040 -0.2215 -0.9391  1.1145
  564MOL0     H76121   1.992   5.269   4.941 -0.7174 -0.4352 -0.9258
  564MOL0     H76122   2.248   6.041   4.575  0.9585 -1.1834  0.7811
  564MOL0     H76123   2.441   6.180   4.605 -0.9746  3.7137 -2.4966
  564MOL0     H76124   2.725   6.457   4.536 -1.1394 -5.3878  0.3626
  564MOL0     H76125   2.970   6.464   4.557  1.6614  2.9968  1.1662
  564MOL0     H76126   4.866   6.660   4.245 -0.6253 -0.5796 -0.4877
  564MOL0     H76127   5.017   6.658   4.406 -0.5897  0.3212  0.5407
  564MOL0     H76128   5.267   6.632   4.662  1.6806 -0.7625 -0.7406
  564MOL0     H76129   5.444   6.721   4.808  0.9148 -0.7173 -1.4445
  564MOL0     H76130   5.497   6.540   5.209 -1.0457  0.6839 -0.7969
  564MOL0     H76131   5.554   6.438   5.084  3.3141 -0.0464 -0.7321
  564MOL0     H76132   5.737   6.477   5.211 -0.0225  2.4306  3.5717
  564MOL0     H76133   5.713   6.652   5.202  4.2649 -1.4774  0.7886
  564MOL0     H76134   5.743   6.660   4.972  1.3761  1.8007  2.1050
  564MOL0     H76135   5.763   6.480   4.953  1.3352  0.9170 -0.8712
  564MOL0     H76136   5.940   6.681   5.085 -0.1510  1.2799 -1.7427
  564MOL0     H76137   5.965   6.597   4.932  0.7214  0.5694 -0.4321
  564MOL0     H76138   6.087   6.310   5.224 -0.1408 -1.9456 -2.6090
  564MOL0     H76139   5.303   6.484   5.134 -0.5513 -0.7351 -0.8886
  564MOL0     H76140   5.099   6.439   5.013  0.0362  1.6166  0.0773
  565MOL0     O76141   2.597   2.987   7.407 -0.3909  0.9012  0.2361
  565MOL0     C76142   2.620   3.101   7.426  0.3998 -0.2725  0.2862
  565MOL0     O76143   2.740   3.172   7.386  0.2593  0.2737 -0.6554
  565MOL0     C76144   2.842   3.092   7.342 -1.0023 -0.5215 -0.3957
  565MOL0     C76145   2.902   2.992   7.417  0.1025 -0.8232  0.1659
  565MOL0     C76146   3.001   2.907   7.359 -0.3005 -0.3278 -0.9739
  565MOL0     C76147   3.050   2.925   7.229 -0.2428 -0.0560 -0.7356
  565MOL0     O76148   3.163   2.861   7.189 -0.1618  0.2715 -0.3710
  565MOL0     C76149   3.158   2.718   7.204 -0.2662  0.7662 -0.3978
  565MOL0     C76150   3.274   2.644   7.139  0.9134 -0.8115  0.0848
  565MOL0     C76151   3.297   2.698   6.999 -0.1335  0.4825  0.6813
  565MOL0     C76152   3.422   2.627   6.943  0.6230 -0.2800  0.5702
  565MOL0     C76153   3.552   2.664   7.012  0.0424 -0.0291 -0.4591
  565MOL0     C76154   3.592   2.809   6.999  0.5806 -0.2239  0.3631
  565MOL0     C76155   3.731   2.833   7.055 -0.2295  0.0765  0.0976
  565MOL0     C76156   3.786   2.970   7.059  1.0409  0.3714  0.7982
  565MOL0     N76157   3.791   3.040   6.930  0.4700 -0.1324 -0.4998
  565MOL0     C76158   3.698   3.129   6.890 -0.1060  0.3787 -0.2212
  565MOL0     C76159   3.746   3.174   6.771  0.2499  0.8070 -0.1124
  565MOL0     C76160   3.664   3.272   6.687 -0.2034  0.1540 -0.3797
  565MOL0     C76161   3.559   3.364   6.767  0.1070 -0.4253 -0.1194
  565MOL0     C76162   3.470   3.460   6.692  0.5879 -0.0916  0.0331
  565MOL0     C76163   3.405   3.552   6.805 -0.7150  0.1051  0.1865
  565MOL0     O76164   3.302   3.641   6.757 -0.0272  0.4912 -0.0103
  565MOL0     C76165   3.232   3.720   6.840  0.7054 -0.4955  0.2643
  565MOL0     C76166   3.247   3.730   6.975 -0.9224  0.2882  0.4278
  565MOL0     C76167   3.174   3.813   7.055  0.6217  0.0673 -0.1969
  565MOL0     C76168   3.226   3.823   7.199  0.9142  0.2371 -0.1332
  565MOL0     C76169   3.062   3.870   6.995 -0.3578 -0.1038 -0.2956
  565MOL0     C76170   2.955   3.950   7.067  0.1426  0.9407 -1.0001
  565MOL0     O76171   2.854   4.018   6.999 -0.1286  0.1382  0.3051
  565MOL0     C76172   2.783   4.127   7.050  0.3392 -0.9326  0.1903
  565MOL0     C76173   2.693   4.186   6.966 -0.3740 -0.7287  0.0384
  565MOL0     C76174   2.614   4.298   7.009  0.1049  0.0299 -0.3237
  565MOL0     C76175   2.637   4.351   7.138  0.8605  0.4412  0.4442
  565MOL0     O76176   2.566   4.459   7.180  0.1877 -0.2444  0.5777
  565MOL0     C76177   2.600   4.517   7.300  0.7872  0.6860  0.0845
  565MOL0     C76178   2.500   4.628   7.342 -0.1761  0.4355 -0.4406
  565MOL0     C76179   2.377   4.545   7.407 -0.1814 -0.5259 -0.1130
  565MOL0     C76180   2.231   4.608   7.406  0.4748  0.0937  0.0132
  565MOL0     C76181   2.242   4.737   7.498 -1.1266 -0.4372 -0.7716
  565MOL0     C76182   2.126   4.826   7.499  0.0364 -0.1796  0.1722
  565MOL0     C76183   2.116   4.936   7.387 -0.4472  0.5841 -0.4655
  565MOL0     C76184   2.030   5.053   7.436 -0.2880 -0.1748  1.2621
  565MOL0    Cl76185   1.885   5.019   7.528 -0.4323  0.3726  0.0076
  565MOL0     C76186   2.728   4.297   7.216 -0.3942 -0.4036 -0.4169
  565MOL0     C76187   2.809   4.194   7.173  0.2774 -0.0245  0.2391
  565MOL0     O76188   2.944   3.914   7.186  0.4819  1.2170 -0.2295
  565MOL0     C76189   3.040   3.860   6.862  0.9526  0.6667 -0.6461
  565MOL0     C76190   3.133   3.793   6.783  0.6758  0.2777 -0.0364
  565MOL0     N76191   3.868   3.104   6.749 -0.2171 -0.0434  1.0863
  565MOL0     N76192   3.900   3.038   6.848  0.8025  0.2147  0.0360
  565MOL0     C76193   2.989   3.035   7.156 -0.9672  0.2359  0.6488
  565MOL0     C76194   2.886   3.111   7.212  0.6010 -1.1957 -0.2850
  565MOL0     C76195   2.501   3.181   7.464 -0.2059  0.5619  0.4042
  565MOL0     C76196   2.401   3.110   7.534  0.6378  0.1429  0.3019
  565MOL0     C76197   2.299   3.183   7.596 -0.2748  0.2110  0.8234
  565MOL0     C76198   2.297   3.323   7.597  0.1984  0.2962 -0.1161
  565MOL0     O76199   2.197   3.387   7.662  0.4957 -0.1850  0.4125
  565MOL0     C76200   2.225   3.411   7.799 -0.6820 -0.1402 -0.5872
  565MOL0     C76201   2.084   3.412   7.867 -0.3361  0.0572 -0.9862
  565MOL0     C76202   2.031   3.270   7.874  0.1481 -0.0355  0.3547
  565MOL0     C76203   1.931   3.252   7.990 -0.3935 -0.2810 -0.6454
  565MOL0     C76204   1.993   3.253   8.128 -1.1911  0.1998 -0.8388
  565MOL0     C76205   2.048   3.234   8.233  0.7051 -0.3539 -0.3234
  565MOL0     C76206   2.384   3.392   7.512  0.1223 -0.6445  0.0386
  565MOL0     C76207   2.481   3.317   7.446 -0.7465  0.2169 -0.6348
  565MOL0     H76208   2.876   2.989   7.523 -1.7258 -0.1238 -0.2299
  565MOL0     H76209   3.052   2.831   7.419 -1.7890 -1.0989 -0.6473
  565MOL0     H76210   3.154   2.688   7.309 -1.5728 -3.1314 -1.3887
  565MOL0     H76211   3.060   2.681   7.174 -0.9696  1.2458  1.2052
  565MOL0     H76212   3.356   2.680   7.202  1.6228  0.3226 -1.4104
  565MOL0     H76213   3.248   2.538   7.146 -0.2085 -0.5382  0.3918
  565MOL0     H76214   3.213   2.683   6.931  1.4775  3.8654 -2.3274
  565MOL0     H76215   3.310   2.806   7.000 -0.0768  0.5674 -2.2086
  565MOL0     H76216   3.407   2.520   6.961 -3.1986 -0.1848 -1.1440
  565MOL0     H76217   3.424   2.642   6.835  3.2503 -1.9849  0.3078
  565MOL0     H76218   3.558   2.648   7.120  1.4135  0.0847 -0.4991
  565MOL0     H76219   3.629   2.599   6.971  1.9230  0.4393  2.1232
  565MOL0     H76220   3.596   2.846   6.896 -2.2242  0.5587  0.4397
  565MOL0     H76221   3.516   2.872   7.047  0.3665 -0.9558  1.0044
  565MOL0     H76222   3.721   2.794   7.156  0.2474 -3.6059 -1.1302
  565MOL0     H76223   3.805   2.769   7.006  3.5250  2.0206  2.7249
  565MOL0     H76224   3.885   2.971   7.105  1.7504 -0.5000 -0.6188
  565MOL0     H76225   3.721   3.017   7.133 -0.6269 -3.7380  2.2560
  565MOL0     H76226   3.601   3.151   6.934 -0.8569 -0.8108 -1.1900
  565MOL0     H76227   3.729   3.355   6.658  1.7741 -1.1235  0.1763
  565MOL0     H76228   3.626   3.209   6.606 -0.3681  0.2228 -0.3550
  565MOL0     H76229   3.614   3.425   6.839  0.8240  0.3132 -1.2419
  565MOL0     H76230   3.494   3.291   6.816  0.6341  0.9693  2.8930
  565MOL0     H76231   3.393   3.394   6.652 -0.2627  1.9257 -1.8656
  565MOL0     H76232   3.520   3.510   6.608 -1.1516 -1.2588 -1.7820
  565MOL0     H76233   3.482   3.618   6.847 -4.5881  2.8049  3.7606
  565MOL0     H76234   3.361   3.483   6.877  0.4602 -1.3628 -0.4360
  565MOL0     H76235   3.327   3.680   7.029 -2.3978 -1.3875  1.1579
  565MOL0     H76236   3.241   3.922   7.243  2.5586 -0.7307  1.6194
  565MOL0     H76237   3.149   3.769   7.255  0.6682 -1.1162 -1.7030
  565MOL0     H76238   3.324   3.777   7.215  0.4765 -0.3791  0.9415
  565MOL0     H76239   2.676   4.144   6.867 -0.0607  1.1428 -0.8555
  565MOL0     H76240   2.534   4.340   6.949  1.1144  2.3580 -0.1377
  565MOL0     H76241   2.607   4.437   7.374 -1.4699  0.5454  0.2156
  565MOL0     H76242   2.702   4.555   7.294  0.6236  0.9102 -2.0468
  565MOL0     H76243   2.544   4.687   7.423 -0.9757 -2.2911  2.1772
  565MOL0     H76244   2.454   4.688   7.263 -0.0358  1.1869  0.0329
  565MOL0     H76245   2.399   4.518   7.511  0.8623 -1.4916 -0.5598
  565MOL0     H76246   2.367   4.448   7.356 -2.7983 -1.1971  1.4891
  565MOL0     H76247   2.196   4.635   7.306  1.4008  0.2695 -0.2710
  565MOL0     H76248   2.158   4.539   7.451 -1.1829  2.8970  1.9050
  565MOL0     H76249   2.327   4.801   7.475  0.0676 -2.5420 -2.5878
  565MOL0     H76250   2.259   4.712   7.603  0.4120  0.9214 -0.6732
  565MOL0     H76251   2.042   4.757   7.484 -1.7592  1.4452  2.0583
  565MOL0     H76252   2.123   4.879   7.595  1.1789  2.5575 -1.2046
  565MOL0     H76253   2.067   4.889   7.302 -1.0518 -0.0479  0.2155
  565MOL0     H76254   2.220   4.962   7.367 -0.5318  2.6990  1.4083
  565MOL0     H76255   1.999   5.100   7.343  2.9268 -1.6291 -0.7169
  565MOL0     H76256   2.092   5.123   7.494 -0.4328  0.1262  1.0565
  565MOL0     H76257   2.767   4.337   7.310  1.5085 -0.8660 -0.9578
  565MOL0     H76258   2.878   4.148   7.242 -2.6360  2.2144  5.1542
  565MOL0     H76259   2.946   3.899   6.823 -0.4334  0.0410  1.8322
  565MOL0     H76260   3.134   3.800   6.675 -1.8348  1.7899 -0.0159
  565MOL0     H76261   3.032   3.067   7.062 -0.2069  1.8721  1.5027
  565MOL0     H76262   2.839   3.192   7.157 -0.3119 -0.8614  0.9329
  565MOL0     H76263   2.407   3.002   7.537 -1.1693 -0.1154 -2.0058
  565MOL0     H76264   2.226   3.134   7.660  1.0640 -3.3686 -0.1535
  565MOL0     H76265   2.288   3.333   7.842 -0.6292  1.2456  2.0164
  565MOL0     H76266   2.259   3.512   7.824  0.2528 -1.1615  2.7110
  565MOL0     H76267   2.007   3.474   7.819 -0.6948  1.3446  1.1090
  565MOL0     H76268   2.096   3.458   7.966  0.2457 -2.1452  0.0198
  565MOL0     H76269   2.117   3.202   7.871 -0.7780 -1.2293 -1.8611
  565MOL0     H76270   1.980   3.238   7.782 -0.0705  0.7607  0.1905
  565MOL0     H76271   1.880   3.155   7.978 -1.2780  0.3074 -1.8183
  565MOL0     H76272   1.849   3.324   7.995  0.4267  0.8765 -2.6187
  565MOL0     H76273   2.091   3.220   8.330 -2.7342 -0.6099  1.3107
  565MOL0     H76274   2.374   3.499   7.500  2.2695 -0.1461  1.9274
  565MOL0     H76275   2.554   3.373   7.388  2.0207 -1.2434  1.2380
  566MOL0     O76276   2.106   1.955  10.520  0.2461 -0.3149  1.0455
  566MOL0     C76277   2.150   1.876  10.609  0.5565 -0.1983 -0.5074
  566MOL0     O76278   2.098   1.761  10.637  1.0537 -0.2258 -0.5543
  566MOL0     C76279   1.978   1.727  10.587 -0.1226  0.0622  0.4278
  566MOL0     C76280   1.892   1.692  10.681  0.7447  0.9755 -0.2497
  566MOL0     C76281   1.754   1.669  10.646  0.2075  0.1134 -0.6355
  566MOL0     C76282   1.727   1.648  10.511 -0.7200 -0.0794 -0.2126
  566MOL0     O76283   1.606   1.618  10.448 -0.2611 -0.0624  0.1833
  566MOL0     C76284   1.490   1.655  10.516  0.0131  0.2867 -0.2784
  566MOL0     C76285   1.372   1.617  10.425 -0.8331 -0.1367 -0.3233
  566MOL0     C76286   1.236   1.684  10.472  0.4138 -0.4630 -0.0868
  566MOL0     C76287   1.104   1.651  10.397 -0.1668  0.0750  0.2580
  566MOL0     C76288   0.977   1.705  10.471 -0.1842  0.6227 -0.1477
  566MOL0     C76289   0.847   1.672  10.394  0.3095  0.5211 -0.0914
  566MOL0     C76290   0.727   1.774  10.426 -0.6872  0.6092  0.1430
  566MOL0     C76291   0.593   1.738  10.369 -0.5511 -0.4085 -1.2298
  566MOL0     N76292   0.477   1.819  10.420 -0.4621  0.1215 -0.1492
  566MOL0     C76293   0.347   1.791  10.387 -0.4714 -0.0782  0.2172
  566MOL0     C76294   0.278   1.866  10.479 -0.2801 -0.1279  0.6133
  566MOL0     C76295   0.134   1.850  10.500 -0.4410 -0.1616  0.4800
  566MOL0     C76296   0.108   1.737  10.596 -0.2225  0.4208 -0.3447
  566MOL0     C76297  -0.040   1.735  10.640  1.2121  0.2010  0.1558
  566MOL0     C76298  -0.080   1.621  10.739 -0.7749 -0.2714 -0.1384
  566MOL0     O76299  -0.039   1.492  10.696  0.3738  0.3712 -0.3161
  566MOL0     C76300  -0.050   1.395  10.792 -0.3897 -0.3343  0.0965
  566MOL0     C76301   0.028   1.276  10.778  0.9346 -0.0741  0.0215
  566MOL0     C76302   0.022   1.176  10.875 -0.1309  0.5351 -0.7411
  566MOL0     C76303   0.091   1.051  10.849  0.0039  1.1804  0.0154
  566MOL0     C76304  -0.045   1.196  10.996 -0.1969  0.3202 -0.0646
  566MOL0     C76305  -0.058   1.102  11.107  0.7132  0.4560  0.3961
  566MOL0     O76306  -0.095   0.975  11.064 -0.2835  0.3668 -0.5061
  566MOL0     C76307  -0.118   0.867  11.140  0.0452  0.2905 -0.6566
  566MOL0     C76308  -0.097   0.867  11.277  0.1224 -0.6826  0.2543
  566MOL0     C76309  -0.104   0.742  11.346  0.9144 -0.0525 -0.2353
  566MOL0     C76310  -0.161   0.631  11.293  0.8831  0.6122  0.0663
  566MOL0     O76311  -0.179   0.517  11.376  0.7072 -0.3395  0.2512
  566MOL0     C76312  -0.262   0.410  11.330  0.1095 -0.0225 -0.0362
  566MOL0     C76313  -0.299   0.324  11.453 -0.1641 -0.6861 -0.1338
  566MOL0     C76314  -0.389   0.207  11.396 -1.0204  0.0200 -0.3876
  566MOL0     C76315  -0.400   0.093  11.499 -0.4464  1.3170 -0.7816
  566MOL0     C76316  -0.500  -0.015  11.442 -0.2783 -0.0474  0.3823
  566MOL0     C76317  -0.646   0.030  11.454  0.2014  0.2930  0.8571
  566MOL0     C76318  -0.689   0.085  11.588 -0.4723 -0.1628  0.1162
  566MOL0     C76319  -0.839   0.094  11.609  0.9215 -0.1997  0.1608
  566MOL0    Cl76320  -0.931  -0.071  11.571  0.3187  0.1389  0.5810
  566MOL0     C76321  -0.204   0.633  11.156 -0.4153  0.0476  0.0844
  566MOL0     C76322  -0.177   0.749  11.082 -0.9592 -0.9532 -0.3985
  566MOL0     O76323  -0.076   1.146  11.223  0.3550  0.1936 -0.0846
  566MOL0     C76324  -0.132   1.300  11.004  0.7407 -0.2035 -0.3676
  566MOL0     C76325  -0.131   1.401  10.903 -0.1392  0.0742  0.0213
  566MOL0     N76326   0.363   1.945  10.552 -1.2721  0.5678 -0.5798
  566MOL0     N76327   0.488   1.908  10.517  0.8331 -0.1655 -0.0279
  566MOL0     C76328   1.827   1.673  10.426 -0.0528  1.0411 -0.2658
  566MOL0     C76329   1.946   1.725  10.450  0.1162  0.4394 -0.1473
  566MOL0     C76330   2.273   1.921  10.685  1.0623 -0.5316  1.2911
  566MOL0     C76331   2.339   1.824  10.748 -0.1546 -0.4526  0.5513
  566MOL0     C76332   2.445   1.845  10.833  0.2710 -0.8759  0.0833
  566MOL0     C76333   2.484   1.981  10.860  0.3665 -0.9363  0.4665
  566MOL0     O76334   2.580   2.017  10.948 -0.0755  0.4063  0.0781
  566MOL0     C76335   2.675   1.918  11.001 -0.0995 -1.0214  0.8874
  566MOL0     C76336   2.617   1.842  11.120 -0.3081 -0.1956 -0.1290
  566MOL0     C76337   2.739   1.765  11.171  0.8485 -0.0319 -0.5431
  566MOL0     C76338   2.717   1.713  11.317 -0.3381 -0.2799 -0.4269
  566MOL0     C76339   2.849   1.675  11.386  0.5613  0.1923 -0.8227
  566MOL0     C76340   2.960   1.663  11.432 -0.6454  0.4196 -0.1243
  566MOL0     C76341   2.422   2.086  10.788  0.3198  0.4876  0.2035
  566MOL0     C76342   2.310   2.054  10.707  0.7588 -0.7004  0.1644
  566MOL0     H76343   1.922   1.682  10.785 -5.4614  1.2177  1.9751
  566MOL0     H76344   1.685   1.668  10.730  1.1238 -0.6492  0.1306
  566MOL0     H76345   1.491   1.598  10.610  2.3754 -2.7462 -1.9488
  566MOL0     H76346   1.485   1.759  10.548 -2.9379  0.1280  0.0735
  566MOL0     H76347   1.393   1.652  10.323 -2.8079  0.9289 -0.4112
  566MOL0     H76348   1.370   1.508  10.429 -1.5193 -0.1206  0.0546
  566MOL0     H76349   1.218   1.655  10.576 -2.9942  1.3798 -0.0267
  566MOL0     H76350   1.242   1.793  10.458 -1.9341  0.0494  2.1149
  566MOL0     H76351   1.122   1.695  10.299 -1.0683  1.6859  0.7727
  566MOL0     H76352   1.100   1.542  10.392  1.4722  0.0541 -2.2637
  566MOL0     H76353   0.965   1.653  10.567 -0.8086  0.8672 -0.0878
  566MOL0     H76354   0.991   1.812  10.487  0.2225  0.5219  0.2050
  566MOL0     H76355   0.874   1.688  10.289 -2.2431  1.4242 -0.6672
  566MOL0     H76356   0.820   1.569  10.418  0.5570  0.5852  0.4802
  566MOL0     H76357   0.717   1.787  10.534  1.7045  1.4011  0.3285
  566MOL0     H76358   0.770   1.867  10.386 -0.9877  0.9818  0.6613
  566MOL0     H76359   0.562   1.635  10.391 -0.7959  0.1940  1.6857
  566MOL0     H76360   0.583   1.754  10.262 -3.4856  1.4552 -0.7724
  566MOL0     H76361   0.308   1.731  10.306  0.5956  2.1220 -2.0653
  566MOL0     H76362   0.108   1.949  10.538  5.9395  2.2823 -0.2607
  566MOL0     H76363   0.082   1.828  10.406  1.3335 -0.6723 -0.4436
  566MOL0     H76364   0.165   1.757  10.687  3.5683 -3.3361 -1.6043
  566MOL0     H76365   0.130   1.635  10.564  2.1483 -0.6423  3.9705
  566MOL0     H76366  -0.108   1.708  10.558  0.4361 -0.0939  0.8797
  566MOL0     H76367  -0.064   1.832  10.683 -1.1366 -0.7179  1.1144
  566MOL0     H76368  -0.188   1.620  10.751 -1.3941  0.6643 -4.1599
  566MOL0     H76369  -0.022   1.658  10.824  2.3111 -1.8148 -1.3700
  566MOL0     H76370   0.076   1.263  10.682 -0.3224 -2.4001 -0.3598
  566MOL0     H76371   0.147   1.009  10.933 -3.2144 -1.0688  1.2444
  566MOL0     H76372   0.013   0.979  10.822 -0.1518  0.6403  1.8241
  566MOL0     H76373   0.168   1.050  10.770  0.4656 -0.4623  0.4509
  566MOL0     H76374  -0.055   0.955  11.324  0.8757 -1.3562  0.8609
  566MOL0     H76375  -0.071   0.736  11.450 -0.8994 -0.8910  0.3255
  566MOL0     H76376  -0.348   0.453  11.277  0.2845  0.1453 -0.1881
  566MOL0     H76377  -0.192   0.359  11.263  3.6245  2.5508  1.3574
  566MOL0     H76378  -0.215   0.301  11.520  0.2259  0.9814 -0.0015
  566MOL0     H76379  -0.368   0.387  11.509 -0.1128 -0.4671 -0.3155
  566MOL0     H76380  -0.347   0.183  11.298 -0.9913  2.7558 -1.1163
  566MOL0     H76381  -0.489   0.247  11.373  0.5879  3.9014 -1.4605
  566MOL0     H76382  -0.304   0.044  11.518 -1.3481 -0.2380  0.0064
  566MOL0     H76383  -0.441   0.142  11.587  0.7747  2.1625 -0.6723
  566MOL0     H76384  -0.480  -0.109  11.495 -0.4003 -1.5897 -2.1133
  566MOL0     H76385  -0.478  -0.025  11.335 -2.8554  2.7585 -0.5600
  566MOL0     H76386  -0.668   0.109  11.381  1.1321  0.1210  0.3787
  566MOL0     H76387  -0.708  -0.057  11.430  1.2632 -0.4439  0.7682
  566MOL0     H76388  -0.647   0.184  11.604 -0.4424 -0.3364  1.1973
  566MOL0     H76389  -0.648   0.022  11.667 -0.1101  0.0689  0.1155
  566MOL0     H76390  -0.888   0.170  11.547  1.9334 -0.5924 -1.1659
  566MOL0     H76391  -0.855   0.121  11.714 -3.4432 -0.6050 -0.2235
  566MOL0     H76392  -0.246   0.543  11.112  1.3145  0.1347 -1.8852
  566MOL0     H76393  -0.199   0.734  10.977 -0.6069 -1.2312 -0.4321
  566MOL0     H76394  -0.200   1.321  11.086  0.8200  1.6466 -0.7447
  566MOL0     H76395  -0.189   1.491  10.917  2.6486  1.7641  1.8309
  566MOL0     H76396   1.808   1.670  10.319 -0.2352  1.9078 -0.2667
  566MOL0     H76397   2.000   1.753  10.361  0.1392 -0.9883 -0.6162
  566MOL0     H76398   2.315   1.718  10.736 -0.1521 -0.5315  1.2224
  566MOL0     H76399   2.501   1.769  10.886 -0.4017 -0.7962  0.9282
  566MOL0     H76400   2.705   1.848  10.922  1.1742 -0.9510  1.3005
  566MOL0     H76401   2.756   1.974  11.048  0.2391 -1.9576  1.4472
  566MOL0     H76402   2.537   1.772  11.093  1.2673 -2.1434  0.0539
  566MOL0     H76403   2.560   1.906  11.188 -1.6268 -1.6508  0.1877
  566MOL0     H76404   2.822   1.836  11.179 -1.2011  2.2884  2.2885
  566MOL0     H76405   2.759   1.678  11.108  0.9360  0.1532 -0.7685
  566MOL0     H76406   2.648   1.628  11.304  1.7504 -2.0878 -0.3160
  566MOL0     H76407   2.671   1.800  11.363  2.6940  0.7561  0.8730
  566MOL0     H76408   3.062   1.639  11.455  1.4168  0.8513 -6.6773
  566MOL0     H76409   2.459   2.187  10.801  2.6602 -0.3309  0.4720
  566MOL0     H76410   2.254   2.131  10.657  0.4256 -0.7179  0.5095
  567MOL0     O76411   7.152   4.560  11.048  0.4739  0.3463  0.3292
  567MOL0     C76412   7.150   4.622  10.945  0.0297 -0.4452  0.1473
  567MOL0     O76413   7.031   4.661  10.890 -0.2752 -0.4860 -0.1447
  567MOL0     C76414   6.922   4.593  10.931 -0.1120  0.2172 -0.5770
  567MOL0     C76415   6.808   4.669  10.949  0.4779 -0.3347 -0.2176
  567MOL0     C76416   6.679   4.610  10.968  0.9210 -0.3084  0.1607
  567MOL0     C76417   6.666   4.470  10.969 -0.2412  0.2196  0.2925
  567MOL0     O76418   6.545   4.416  10.994 -1.3774  0.5693  0.5206
  567MOL0     C76419   6.486   4.357  10.878 -0.3084 -0.8450  0.5187
  567MOL0     C76420   6.334   4.342  10.900 -1.0470 -0.1413  1.2987
  567MOL0     C76421   6.267   4.487  10.902 -1.0014 -0.2205  0.2220
  567MOL0     C76422   6.123   4.486  10.939  1.5286  0.0109  0.1593
  567MOL0     C76423   6.067   4.624  10.954  0.8106 -1.1111 -0.4557
  567MOL0     C76424   5.911   4.616  10.965  0.2164  0.2312  0.1826
  567MOL0     C76425   5.858   4.765  10.964 -0.3345  0.8776  0.3976
  567MOL0     C76426   5.711   4.760  10.980 -0.2696 -0.8362  0.4729
  567MOL0     N76427   5.646   4.892  11.013 -0.4825 -0.6280  0.5002
  567MOL0     C76428   5.579   4.973  10.924 -0.0271 -0.1463  0.4745
  567MOL0     C76429   5.509   5.064  10.993 -0.5891 -0.3472  0.1964
  567MOL0     C76430   5.416   5.163  10.937  0.4136 -0.2205 -0.0190
  567MOL0     C76431   5.277   5.093  10.926  1.0393 -0.6222  0.3337
  567MOL0     C76432   5.165   5.153  11.028 -1.0913  0.3197 -0.1990
  567MOL0     C76433   5.188   5.094  11.168 -0.7391 -0.2030  0.1999
  567MOL0     O76434   5.097   5.168  11.253 -0.2991 -0.2203 -0.0329
  567MOL0     C76435   4.965   5.133  11.258  1.1336  0.5922  0.0276
  567MOL0     C76436   4.880   5.221  11.330  0.3829 -0.2289  0.6452
  567MOL0     C76437   4.747   5.190  11.342 -0.5833 -0.4232  1.0378
  567MOL0     C76438   4.671   5.251  11.457  0.0063  0.1518  0.0084
  567MOL0     C76439   4.683   5.095  11.257 -0.7705  0.0029 -1.0293
  567MOL0     C76440   4.545   5.054  11.264  0.5651  0.0781 -0.5897
  567MOL0     O76441   4.515   4.933  11.219 -1.0199  0.4631 -0.7871
  567MOL0     C76442   4.381   4.891  11.228  0.1860  1.5209 -0.1875
  567MOL0     C76443   4.323   4.842  11.105  0.1473  0.0408 -0.6688
  567MOL0     C76444   4.185   4.821  11.093  0.6279  0.4493  0.0012
  567MOL0     C76445   4.102   4.822  11.202 -1.2403  0.2493  0.4216
  567MOL0     O76446   3.982   4.799  11.169  0.0292 -0.0337  0.4073
  567MOL0     C76447   3.894   4.743  11.270 -0.2524  0.8631 -0.2447
  567MOL0     C76448   3.943   4.607  11.324 -0.7532  0.9833 -0.5218
  567MOL0     C76449   3.934   4.509  11.211 -0.0326  0.1774 -0.1442
  567MOL0     C76450   3.932   4.368  11.278  0.5961  1.0447  0.2727
  567MOL0     C76451   3.911   4.260  11.181  0.1973  0.2863  0.5464
  567MOL0     C76452   3.991   4.137  11.210 -0.2328  0.5435 -0.9626
  567MOL0     C76453   3.980   4.044  11.095  0.3461  0.4206  0.3966
  567MOL0     C76454   4.059   3.911  11.104 -0.1139 -0.7794  0.2564
  567MOL0    Cl76455   4.230   3.952  11.106 -0.3330 -0.8413  0.1797
  567MOL0     C76456   4.157   4.852  11.327 -0.3470 -0.5006 -0.6089
  567MOL0     C76457   4.291   4.886  11.342 -0.1274  0.4650 -0.5573
  567MOL0     O76458   4.465   5.130  11.319  0.0223  0.0022  0.0477
  567MOL0     C76459   4.766   5.007  11.180  0.0526  0.7211  0.2184
  567MOL0     C76460   4.901   5.032  11.175  0.0055  0.4666  0.4440
  567MOL0     N76461   5.549   5.052  11.129  0.1543  0.1378  0.3737
  567MOL0     N76462   5.625   4.943  11.137  0.4786 -0.3297  0.3769
  567MOL0     C76463   6.781   4.390  10.944 -0.0498 -0.0731  0.1958
  567MOL0     C76464   6.905   4.453  10.933  0.1799 -0.1767  0.8490
  567MOL0     C76465   7.289   4.664  10.902 -0.2784  0.5658  0.0823
  567MOL0     C76466   7.413   4.628  10.967  0.7105  0.2464 -0.4397
  567MOL0     C76467   7.540   4.664  10.913  0.0313 -0.0580  0.5951
  567MOL0     C76468   7.538   4.733  10.794  0.3199 -0.2682  1.6822
  567MOL0     O76469   7.649   4.767  10.716  0.4396  0.1621  0.5166
  567MOL0     C76470   7.782   4.714  10.754 -0.2280 -0.4972 -0.4255
  567MOL0     C76471   7.856   4.813  10.847  0.0970  0.0537 -0.5347
  567MOL0     C76472   7.895   4.945  10.785 -0.0732  0.5191 -0.1521
  567MOL0     C76473   7.963   4.935  10.645  0.1834 -0.1737 -1.2543
  567MOL0     C76474   8.080   4.844  10.647 -0.0274  0.2734  0.5891
  567MOL0     C76475   8.172   4.758  10.646  0.4249 -0.2829 -0.9751
  567MOL0     C76476   7.414   4.775  10.736 -0.6125 -0.0089  0.5699
  567MOL0     C76477   7.296   4.741  10.781  0.5146 -0.2509  0.0385
  567MOL0     H76478   6.835   4.775  10.952  0.4478 -0.3230 -0.3400
  567MOL0     H76479   6.592   4.674  10.982 -0.3846 -2.2917  1.6877
  567MOL0     H76480   6.497   4.424  10.793  4.1144 -3.1957 -1.0970
  567MOL0     H76481   6.531   4.261  10.851 -3.5870 -2.3555  0.0442
  567MOL0     H76482   6.297   4.298  10.807 -1.1608 -1.5603  1.9878
  567MOL0     H76483   6.314   4.281  10.988  2.3512  1.0042  3.0322
  567MOL0     H76484   6.316   4.548  10.979 -2.3445 -3.8274  4.3164
  567MOL0     H76485   6.273   4.532  10.803 -3.5572  0.9311  0.5105
  567MOL0     H76486   6.070   4.432  10.861 -2.0911  1.0927  1.6674
  567MOL0     H76487   6.110   4.429  11.031  2.7069  0.1202  0.4127
  567MOL0     H76488   6.107   4.674  11.042  0.2267 -0.7131 -0.4051
  567MOL0     H76489   6.084   4.694  10.871 -0.3492 -1.8944 -1.3993
  567MOL0     H76490   5.871   4.546  10.890  2.9002  1.5994 -2.7404
  567MOL0     H76491   5.897   4.582  11.068  0.1585  2.4269  0.9511
  567MOL0     H76492   5.891   4.822  11.052 -3.0452  0.2524  1.9333
  567MOL0     H76493   5.893   4.820  10.876  1.9325  0.3278  0.8960
  567MOL0     H76494   5.691   4.689  11.061 -0.4452 -0.5614  0.6700
  567MOL0     H76495   5.665   4.723  10.888 -0.6310 -0.4900  0.5137
  567MOL0     H76496   5.571   4.959  10.817 -2.2270 -2.4752  0.8633
  567MOL0     H76497   5.407   5.250  11.003 -0.0767 -0.7852  0.6679
  567MOL0     H76498   5.454   5.194  10.839  2.3405  0.8699  0.9959
  567MOL0     H76499   5.291   4.985  10.927  0.0452 -0.8418 -2.2043
  567MOL0     H76500   5.252   5.114  10.822 -0.5278  1.7449  1.1084
  567MOL0     H76501   5.064   5.135  10.992 -1.5249  3.6982 -1.0107
  567MOL0     H76502   5.171   5.263  11.028 -0.1550  0.2845 -0.5245
  567MOL0     H76503   5.290   5.110  11.205 -0.4045 -1.0246 -0.3457
  567MOL0     H76504   5.168   4.987  11.167 -1.7406 -0.0379  0.8110
  567MOL0     H76505   4.944   5.286  11.389  1.6799 -1.8941  1.1332
  567MOL0     H76506   4.741   5.310  11.517  0.6418 -1.2328  0.6807
  567MOL0     H76507   4.596   5.324  11.427 -0.6753 -0.0322  1.2498
  567MOL0     H76508   4.622   5.177  11.521  2.1672  0.7000  2.4511
  567MOL0     H76509   4.389   4.831  11.019  2.3849 -1.0490  1.0709
  567MOL0     H76510   4.137   4.798  10.998  1.8052  0.4723 -0.6077
  567MOL0     H76511   3.886   4.815  11.352 -0.1387  0.8705 -0.2396
  567MOL0     H76512   3.796   4.732  11.223  1.6174  1.3759 -4.8283
  567MOL0     H76513   4.045   4.594  11.361 -1.4554 -2.4328  0.5229
  567MOL0     H76514   3.876   4.567  11.401  0.2422 -0.2141 -0.2490
  567MOL0     H76515   4.026   4.524  11.154  2.6995 -3.5221  2.8597
  567MOL0     H76516   3.841   4.526  11.155  0.1242  2.8596  0.2871
  567MOL0     H76517   4.028   4.349  11.327 -0.4891 -0.9416  1.7137
  567MOL0     H76518   3.857   4.364  11.357 -0.1832 -3.7491 -0.4399
  567MOL0     H76519   3.923   4.291  11.077 -1.2060  0.3193  0.3743
  567MOL0     H76520   3.805   4.240  11.203  0.9015 -0.6840  3.4860
  567MOL0     H76521   4.093   4.173  11.224  0.7512 -0.7886 -3.8156
  567MOL0     H76522   3.953   4.082  11.297  0.0358  1.7349 -0.0651
  567MOL0     H76523   4.016   4.103  11.010 -4.5812  0.7177 -1.8788
  567MOL0     H76524   3.874   4.021  11.081  0.0352  1.6073  0.6913
  567MOL0     H76525   4.048   3.854  11.012  0.7297  2.6222 -2.1492
  567MOL0     H76526   4.026   3.854  11.191 -0.1975 -2.9635 -1.1341
  567MOL0     H76527   4.097   4.836  11.416 -0.2534 -2.8331 -0.8846
  567MOL0     H76528   4.330   4.918  11.438 -0.8083  1.8148 -0.6944
  567MOL0     H76529   4.732   4.922  11.122  0.5671  0.5496  0.1630
  567MOL0     H76530   4.949   4.972  11.099 -1.3833 -3.1514  2.2111
  567MOL0     H76531   6.773   4.281  10.947 -0.9191 -0.0897 -1.5279
  567MOL0     H76532   6.993   4.389  10.926  1.9939  2.0760  1.7016
  567MOL0     H76533   7.412   4.552  11.045  1.7120 -0.4888 -1.1178
  567MOL0     H76534   7.629   4.633  10.967 -0.6961 -2.1229  0.6803
  567MOL0     H76535   7.764   4.617  10.801 -0.1130  0.0053  0.7008
  567MOL0     H76536   7.828   4.686  10.658 -2.9980  1.5377 -2.5172
  567MOL0     H76537   7.944   4.766  10.890 -1.4622 -0.3768  2.4780
  567MOL0     H76538   7.796   4.834  10.936  1.2894 -1.8929  0.8016
  567MOL0     H76539   7.969   4.993  10.849  1.4725 -0.3913 -1.1795
  567MOL0     H76540   7.805   5.006  10.774  0.2210  1.1213  0.7274
  567MOL0     H76541   7.991   5.031  10.602 -0.2804 -0.0263 -1.2255
  567MOL0     H76542   7.892   4.903  10.569 -0.7564  1.6877 -1.2142
  567MOL0     H76543   8.249   4.684  10.656  1.0682  0.6645  4.0875
  567MOL0     H76544   7.415   4.836  10.646  0.6520  0.3697  0.8307
  567MOL0     H76545   7.219   4.784  10.717  1.9569  1.5498 -0.5886
  568MOL0     O76546   5.148  10.371   2.203 -0.6429  0.1358 -0.0895
  568MOL0     C76547   5.193  10.487   2.202  0.0623  0.2486 -0.1392
  568MOL0     O76548   5.188  10.578   2.307 -0.2971  0.7382  0.4539
  568MOL0     C76549   5.124  10.545   2.425  1.2163 -0.1878  0.7599
  568MOL0     C76550   5.199  10.508   2.534  1.0085  0.3507 -0.6971
  568MOL0     C76551   5.123  10.466   2.653 -0.0399  0.8760 -0.4012
  568MOL0     C76552   4.980  10.458   2.652  0.2740 -0.5732 -0.2265
  568MOL0     O76553   4.907  10.399   2.753  0.1829 -0.4643  0.4140
  568MOL0     C76554   4.969  10.293   2.832  0.8328  0.4385 -0.5025
  568MOL0     C76555   4.852  10.186   2.822  0.1020 -0.0637  0.4082
  568MOL0     C76556   4.882  10.065   2.908 -1.2363 -0.0550 -0.5445
  568MOL0     C76557   4.753   9.979   2.934  0.2421 -0.4077  0.1389
  568MOL0     C76558   4.796   9.856   3.005 -0.4429  0.6599  0.3994
  568MOL0     C76559   4.685   9.758   3.003 -0.6580 -0.5614 -0.0253
  568MOL0     C76560   4.708   9.618   3.059  0.0877  0.7446  0.0288
  568MOL0     C76561   4.725   9.624   3.208 -0.3489  0.4351  0.1510
  568MOL0     N76562   4.721   9.496   3.279 -0.5180  0.5498  0.1559
  568MOL0     C76563   4.661   9.463   3.401 -0.0180 -0.3061  0.0083
  568MOL0     C76564   4.707   9.344   3.436  0.5052 -0.0204  0.4354
  568MOL0     C76565   4.666   9.277   3.566 -0.0970  0.0597  0.1637
  568MOL0     C76566   4.504   9.240   3.570 -0.4935 -0.7876  0.9440
  568MOL0     C76567   4.462   9.170   3.438  0.1123 -0.9323  0.3135
  568MOL0     C76568   4.333   9.100   3.460 -0.2399  0.1916 -0.1204
  568MOL0     O76569   4.236   9.195   3.460 -0.4889 -0.8963 -0.1825
  568MOL0     C76570   4.104   9.178   3.462  0.1623  0.3283  0.5293
  568MOL0     C76571   4.037   9.063   3.510  0.0052 -0.4980 -0.1821
  568MOL0     C76572   3.896   9.055   3.509 -0.1098 -0.3553  0.2668
  568MOL0     C76573   3.859   8.915   3.539  0.2775  0.1661  0.1134
  568MOL0     C76574   3.822   9.166   3.472  0.4802 -0.8779 -1.4975
  568MOL0     C76575   3.679   9.169   3.508  0.0071 -0.0005 -0.7734
  568MOL0     O76576   3.625   9.074   3.593 -0.2059 -0.2342 -0.3724
  568MOL0     C76577   3.492   9.072   3.601 -0.2723  0.2377 -0.5354
  568MOL0     C76578   3.433   9.168   3.680  0.1207 -0.4205  0.1652
  568MOL0     C76579   3.289   9.173   3.679  0.3169 -0.5176 -0.0975
  568MOL0     C76580   3.213   9.078   3.605 -1.0694 -1.2390 -1.3422
  568MOL0     O76581   3.076   9.068   3.619 -0.7788 -0.0305  0.5192
  568MOL0     C76582   3.011   9.131   3.736 -0.2052  0.3996 -0.5241
  568MOL0     C76583   2.858   9.105   3.740 -0.6094 -1.0420 -0.3044
  568MOL0     C76584   2.808   9.164   3.604  0.5096 -0.3622 -0.0330
  568MOL0     C76585   2.653   9.167   3.602 -0.6470  0.2859  0.0810
  568MOL0     C76586   2.593   9.195   3.464  0.0251  0.0013  0.5201
  568MOL0     C76587   2.600   9.344   3.434  0.2133  0.8994 -0.1939
  568MOL0     C76588   2.510   9.394   3.317  0.1951  0.6955 -1.0222
  568MOL0     C76589   2.543   9.536   3.274 -0.4729 -0.4676  0.3412
  568MOL0    Cl76590   2.492   9.578   3.101 -0.5921  0.5043 -0.1175
  568MOL0     C76591   3.284   8.998   3.521  0.1745  0.5343 -0.6136
  568MOL0     C76592   3.424   8.990   3.519 -0.0916  0.7943  0.2752
  568MOL0     O76593   3.620   9.258   3.459  0.0030  0.3620  0.3823
  568MOL0     C76594   3.886   9.274   3.420 -0.1802 -0.4367  0.2397
  568MOL0     C76595   4.020   9.276   3.408 -0.1056  0.0854 -0.3607
  568MOL0     N76596   4.790   9.294   3.339  0.7629 -0.2554 -0.5911
  568MOL0     N76597   4.800   9.387   3.247  0.4351 -0.5924 -1.4963
  568MOL0     C76598   4.915  10.502   2.539 -0.0231 -0.1691 -0.4714
  568MOL0     C76599   4.983  10.543   2.427 -0.9623 -0.7117  0.3375
  568MOL0     C76600   5.277  10.529   2.084 -0.5988 -0.4245 -0.4379
  568MOL0     C76601   5.321  10.436   1.988 -0.2588 -0.3817  0.5126
  568MOL0     C76602   5.405  10.478   1.886 -0.6316 -0.3053 -0.5535
  568MOL0     C76603   5.453  10.614   1.887 -0.9119  0.6305  0.4284
  568MOL0     O76604   5.525  10.659   1.776  0.9340  0.3180 -0.1000
  568MOL0     C76605   5.472  10.775   1.710 -0.8339  0.5760 -0.6075
  568MOL0     C76606   5.555  10.825   1.590 -0.8692  0.2852 -0.9318
  568MOL0     C76607   5.695  10.887   1.626  0.9059  0.2947 -0.6575
  568MOL0     C76608   5.756  10.960   1.507 -0.2166 -0.3108 -0.4146
  568MOL0     C76609   5.895  10.999   1.520 -0.1618 -0.0571  0.2794
  568MOL0     C76610   6.007  11.041   1.523  0.3030 -0.2454 -1.6034
  568MOL0     C76611   5.404  10.701   1.981 -0.4368 -0.6809 -0.3171
  568MOL0     C76612   5.323  10.660   2.080  0.2690  0.4599 -0.6309
  568MOL0     H76613   5.306  10.502   2.549  0.8852  0.1558  0.1715
  568MOL0     H76614   5.168  10.431   2.746 -4.4592 -0.5586  1.4997
  568MOL0     H76615   5.052  10.248   2.778 -1.0045  0.3976 -3.5596
  568MOL0     H76616   4.991  10.320   2.936 -0.3130 -1.0842  0.1726
  568MOL0     H76617   4.755  10.230   2.847 -0.0281  1.2706 -2.1182
  568MOL0     H76618   4.843  10.150   2.719  0.7941  0.9778 -0.0280
  568MOL0     H76619   4.953   9.998   2.859 -2.9334 -0.4047 -2.6400
  568MOL0     H76620   4.940  10.099   2.995  1.2111 -3.9212 -0.3959
  568MOL0     H76621   4.689  10.033   3.005  1.4462 -0.5040  1.3282
  568MOL0     H76622   4.715   9.967   2.832  1.4536  4.6307 -1.2049
  568MOL0     H76623   4.886   9.813   2.960 -0.6072  1.7290 -1.0088
  568MOL0     H76624   4.816   9.890   3.107 -3.5376  1.9479  0.6835
  568MOL0     H76625   4.594   9.807   3.039  0.4428  0.1255  1.9768
  568MOL0     H76626   4.659   9.744   2.898 -0.1902  0.5326 -0.3026
  568MOL0     H76627   4.624   9.552   3.040 -0.2188  0.8042  1.1270
  568MOL0     H76628   4.803   9.584   3.017 -2.0245 -1.8199 -3.1851
  568MOL0     H76629   4.640   9.678   3.249  0.7010  1.6233  0.8243
  568MOL0     H76630   4.818   9.680   3.222 -0.5438  0.9240 -0.4698
  568MOL0     H76631   4.603   9.532   3.461  1.4011  0.5195  0.5021
  568MOL0     H76632   4.725   9.186   3.581 -0.2419  0.1199  1.1781
  568MOL0     H76633   4.684   9.353   3.642 -0.9357  1.1127 -0.6594
  568MOL0     H76634   4.446   9.332   3.574  0.9378  0.1257  1.8053
  568MOL0     H76635   4.499   9.186   3.665  2.2585 -1.4134  0.8311
  568MOL0     H76636   4.546   9.116   3.392 -0.6713 -0.5747 -1.6464
  568MOL0     H76637   4.444   9.243   3.359 -0.0542 -3.3038 -1.9927
  568MOL0     H76638   4.339   9.051   3.557 -0.6291 -1.9108 -1.0963
  568MOL0     H76639   4.305   9.017   3.394 -3.1866 -0.1270  1.3568
  568MOL0     H76640   4.119   8.998   3.539  2.5441  2.3551 -0.4240
  568MOL0     H76641   3.944   8.847   3.539  0.5889  0.5053  1.6819
  568MOL0     H76642   3.815   8.907   3.639 -2.5789 -0.7074 -1.1006
  568MOL0     H76643   3.786   8.880   3.465  1.5953 -1.0846 -0.6253
  568MOL0     H76644   3.484   9.231   3.752 -0.5526 -1.7325  1.8794
  568MOL0     H76645   3.233   9.242   3.741  0.5674 -2.5707  2.6337
  568MOL0     H76646   3.060   9.093   3.826 -2.1528  2.4429  1.5289
  568MOL0     H76647   3.028   9.239   3.741 -2.5981  0.7752  1.4366
  568MOL0     H76648   2.841   8.997   3.750  1.0285 -1.2389  0.7602
  568MOL0     H76649   2.808   9.145   3.827  0.1882 -0.6305 -0.0243
  568MOL0     H76650   2.845   9.106   3.519  0.7143  0.0790 -0.2457
  568MOL0     H76651   2.849   9.264   3.592 -3.2216  1.5364  1.4654
  568MOL0     H76652   2.623   9.066   3.631 -0.4412  0.5070  1.1275
  568MOL0     H76653   2.623   9.246   3.672 -2.3302  1.4406 -1.8289
  568MOL0     H76654   2.487   9.168   3.467 -0.1138  0.2956  4.6503
  568MOL0     H76655   2.638   9.137   3.383 -3.1505 -0.4720 -1.0744
  568MOL0     H76656   2.562   9.400   3.520 -3.9486 -0.9311 -0.5607
  568MOL0     H76657   2.702   9.378   3.414  0.6740  0.3755  1.2038
  568MOL0     H76658   2.407   9.401   3.351  0.5104 -2.7696  1.1250
  568MOL0     H76659   2.525   9.325   3.233 -0.2079  0.6033 -1.0204
  568MOL0     H76660   2.649   9.564   3.273 -1.1029  2.2986 -1.6426
  568MOL0     H76661   2.492   9.606   3.341 -0.2248  0.1038 -0.0656
  568MOL0     H76662   3.222   8.934   3.459 -0.3772  1.1358 -0.6936
  568MOL0     H76663   3.480   8.930   3.448 -0.9434  0.8751 -0.4834
  568MOL0     H76664   3.831   9.359   3.383 -0.3240  0.4139  2.2785
  568MOL0     H76665   4.059   9.371   3.374 -0.3395  1.0158  1.7758
  568MOL0     H76666   4.808  10.508   2.526 -0.2460 -0.2054  1.1857
  568MOL0     H76667   4.931  10.591   2.344 -0.7936 -0.3897  0.4148
  568MOL0     H76668   5.289  10.332   1.987  0.6626 -0.7174 -1.7712
  568MOL0     H76669   5.438  10.411   1.807  0.8546  0.3648 -0.5323
  568MOL0     H76670   5.374  10.742   1.672 -0.1949 -1.8545 -0.3484
  568MOL0     H76671   5.457  10.859   1.778  0.5014  0.0688  0.3668
  568MOL0     H76672   5.501  10.904   1.537 -3.4690 -0.8086 -0.0641
  568MOL0     H76673   5.577  10.738   1.527 -0.2555 -0.5693  0.4299
  568MOL0     H76674   5.767  10.807   1.645  1.1216  1.1278  2.7320
  568MOL0     H76675   5.688  10.952   1.714 -3.8520 -0.9449  0.1258
  568MOL0     H76676   5.698  11.052   1.495 -0.1897 -0.1489  0.5908
  568MOL0     H76677   5.751  10.903   1.414  1.3738 -1.2703  0.0592
  568MOL0     H76678   6.109  11.071   1.523  1.2074 -2.8714  0.8567
  568MOL0     H76679   5.450  10.799   1.978  2.0494 -1.7545 -0.3954
  568MOL0     H76680   5.280  10.730   2.151  1.8621 -1.9314  3.0051
  569MOL0     O76681   4.422  11.121   1.750 -0.2124  0.2050 -0.5075
  569MOL0     C76682   4.538  11.080   1.784  0.3648 -0.4283  0.1489
  569MOL0     O76683   4.565  10.999   1.889 -0.7477  0.2888 -0.9290
  569MOL0     C76684   4.464  10.967   1.978  0.0365 -0.4010 -0.1584
  569MOL0     C76685   4.439  10.831   2.012  0.4506 -1.1188 -0.6361
  569MOL0     C76686   4.347  10.806   2.115  0.3280  0.5876  0.1503
  569MOL0     C76687   4.281  10.909   2.185  0.3507  0.1272  0.5999
  569MOL0     O76688   4.184  10.872   2.275 -0.2387  0.3529 -0.3079
  569MOL0     C76689   4.108  10.970   2.349  1.1645  0.1966  0.0558
  569MOL0     C76690   4.023  10.908   2.461  0.5236  0.6359  0.5459
  569MOL0     C76691   4.107  10.826   2.562  0.0804  0.0288 -0.8468
  569MOL0     C76692   4.022  10.774   2.679 -0.2799 -0.4292  0.3005
  569MOL0     C76693   4.123  10.722   2.786 -0.2557  0.8049 -0.2660
  569MOL0     C76694   4.056  10.676   2.917  0.2062 -0.0258 -0.4457
  569MOL0     C76695   4.013  10.533   2.914 -0.0848 -0.2883  1.2767
  569MOL0     C76696   3.971  10.499   3.053 -0.4114  0.6606  0.8500
  569MOL0     N76697   3.918  10.360   3.060  0.6224 -0.1256 -0.3080
  569MOL0     C76698   3.984  10.237   3.063  0.4228  0.4858  0.1016
  569MOL0     C76699   3.889  10.137   3.044  0.2265  0.3744 -0.4135
  569MOL0     C76700   3.910   9.991   3.048  0.7074  0.1480 -0.2375
  569MOL0     C76701   4.026   9.958   3.145  0.7959 -0.1187  0.1499
  569MOL0     C76702   3.989   9.954   3.297 -0.0517 -0.1853  1.4037
  569MOL0     C76703   3.902   9.839   3.330  0.3841 -0.2363  0.7819
  569MOL0     O76704   3.859   9.877   3.461 -0.1395 -0.0619 -0.2106
  569MOL0     C76705   3.766   9.806   3.531 -0.6380  0.1572 -0.8378
  569MOL0     C76706   3.684   9.876   3.619  0.1788 -0.0535 -0.5592
  569MOL0     C76707   3.577   9.804   3.672 -0.6798  0.0778 -0.2375
  569MOL0     C76708   3.485   9.876   3.765  0.9482  0.5168  0.1784
  569MOL0     C76709   3.560   9.667   3.653 -0.5966 -0.2446  0.2371
  569MOL0     C76710   3.437   9.588   3.704 -0.0330  0.2646  0.4754
  569MOL0     O76711   3.310   9.656   3.682  0.1733 -0.2529  0.2214
  569MOL0     C76712   3.185   9.600   3.713  0.2909  0.0945  0.4023
  569MOL0     C76713   3.069   9.647   3.645 -0.3843 -0.1660  0.3206
  569MOL0     C76714   2.943   9.610   3.682  0.5593  0.2225  0.2945
  569MOL0     C76715   2.919   9.511   3.782  0.0080 -0.0293  0.0775
  569MOL0     O76716   2.793   9.472   3.821 -0.1458 -0.7324  0.1342
  569MOL0     C76717   2.691   9.562   3.791  0.3912 -0.2820  0.5513
  569MOL0     C76718   2.564   9.512   3.865 -0.3424 -0.9749 -1.4723
  569MOL0     C76719   2.444   9.585   3.805 -0.5279 -0.2221 -0.4858
  569MOL0     C76720   2.322   9.556   3.882 -0.6295 -0.5212 -0.7530
  569MOL0     C76721   2.202   9.643   3.836 -0.8889 -0.3956 -0.6586
  569MOL0     C76722   2.108   9.582   3.732  0.2954  0.5831 -0.1272
  569MOL0     C76723   2.005   9.685   3.678 -0.6775  1.0417 -1.4119
  569MOL0     C76724   1.985   9.678   3.528 -0.1864 -0.4914 -0.6926
  569MOL0    Cl76725   2.013   9.512   3.451  0.4126 -0.0948 -0.2337
  569MOL0     C76726   3.031   9.468   3.844 -0.6503  0.6424  0.1973
  569MOL0     C76727   3.166   9.500   3.811  0.2407 -0.2886 -0.1107
  569MOL0     O76728   3.456   9.482   3.769  0.7502  0.7720  0.4388
  569MOL0     C76729   3.658   9.598   3.588  0.2470  0.6330 -0.3941
  569MOL0     C76730   3.748   9.666   3.517  0.3276  0.8189  0.3078
  569MOL0     N76731   3.768  10.202   3.046 -0.0704 -0.1259 -0.8987
  569MOL0     N76732   3.787  10.331   3.048  0.0418  0.2334 -0.4592
  569MOL0     C76733   4.313  11.048   2.164  0.0631  0.3668  0.6024
  569MOL0     C76734   4.403  11.064   2.058  0.4928 -0.0056 -0.5295
  569MOL0     C76735   4.649  11.133   1.704  0.3324  0.3099 -0.8272
  569MOL0     C76736   4.631  11.247   1.626  0.1448  0.0292  1.3698
  569MOL0     C76737   4.734  11.297   1.549 -0.3651 -0.1620  0.1718
  569MOL0     C76738   4.857  11.240   1.553 -0.1746 -0.4767 -0.5635
  569MOL0     O76739   4.943  11.322   1.479 -0.1315 -0.8886 -0.0238
  569MOL0     C76740   5.061  11.256   1.427  0.7542 -0.1687  0.0101
  569MOL0     C76741   5.081  11.330   1.286 -0.0216 -0.1573  0.2638
  569MOL0     C76742   4.954  11.315   1.197  0.3698 -0.5086  0.4793
  569MOL0     C76743   4.982  11.376   1.065  0.1057 -0.6795  0.6229
  569MOL0     C76744   4.864  11.364   0.971 -1.1097 -0.2185 -0.3950
  569MOL0     C76745   4.776  11.340   0.899 -0.0124  0.1244 -0.5029
  569MOL0     C76746   4.884  11.129   1.634  0.6040  0.1273 -0.8842
  569MOL0     C76747   4.774  11.076   1.706  0.2115  0.4775 -0.0687
  569MOL0     H76748   4.480  10.749   1.954 -1.6698 -1.4771 -1.7643
  569MOL0     H76749   4.330  10.704   2.147 -1.4636  0.1646 -1.8362
  569MOL0     H76750   4.173  11.036   2.407 -0.5355  0.3928  1.8459
  569MOL0     H76751   4.035  11.024   2.289  2.3234 -0.4161 -1.9888
  569MOL0     H76752   3.971  10.989   2.513  1.0295  1.2029  0.1821
  569MOL0     H76753   3.957  10.840   2.406  2.3385 -1.3081  0.6895
  569MOL0     H76754   4.137  10.732   2.514 -1.3481  0.9467 -3.8092
  569MOL0     H76755   4.198  10.877   2.594  0.0323 -1.3529  1.7572
  569MOL0     H76756   3.971  10.861   2.722  1.1946 -0.5301  2.4251
  569MOL0     H76757   3.962  10.690   2.643 -0.7273 -0.8023  1.8604
  569MOL0     H76758   4.170  10.638   2.733 -1.0533  2.4390 -3.8445
  569MOL0     H76759   4.205  10.791   2.803  0.7865  0.4098 -3.2319
  569MOL0     H76760   4.133  10.672   2.995 -0.1662 -2.2852 -0.1421
  569MOL0     H76761   3.970  10.738   2.942 -1.3340 -1.7692 -1.2149
  569MOL0     H76762   3.923  10.526   2.853 -0.4571  0.2953  1.7574
  569MOL0     H76763   4.098  10.477   2.872 -0.7833 -0.3006 -0.1663
  569MOL0     H76764   3.895  10.568   3.089 -0.7165  1.1199 -0.6189
  569MOL0     H76765   4.050  10.508   3.129 -0.1804 -0.2961  0.7364
  569MOL0     H76766   4.091  10.225   3.077 -0.2295 -2.7681  4.7373
  569MOL0     H76767   3.818   9.953   3.093 -0.9873  2.0314 -1.8732
  569MOL0     H76768   3.921   9.944   2.949 -0.9941 -4.2004  1.3867
  569MOL0     H76769   4.116  10.018   3.127  0.0330  0.5044 -1.8961
  569MOL0     H76770   4.066   9.858   3.123  2.3107  0.3574  0.5926
  569MOL0     H76771   3.934  10.045   3.321 -1.1630 -0.3299 -0.4128
  569MOL0     H76772   4.086   9.948   3.346  1.3275 -0.5037 -1.1802
  569MOL0     H76773   3.959   9.745   3.333  3.0416  1.2780  1.2872
  569MOL0     H76774   3.811   9.825   3.271  1.3647  1.0345 -1.1430
  569MOL0     H76775   3.697   9.984   3.621  1.9853 -0.2520  1.1758
  569MOL0     H76776   3.386   9.889   3.719  0.9208 -1.0268 -0.2576
  569MOL0     H76777   3.461   9.834   3.863 -0.6337  1.7451  0.3545
  569MOL0     H76778   3.516   9.980   3.777 -3.2072  1.8407  0.9834
  569MOL0     H76779   3.078   9.715   3.560 -3.7303 -1.0476 -0.8934
  569MOL0     H76780   2.859   9.644   3.623  1.3080  0.2119 -0.8007
  569MOL0     H76781   2.709   9.666   3.819 -0.3803 -0.0295  0.1604
  569MOL0     H76782   2.667   9.557   3.684 -0.2505  1.2284  0.5946
  569MOL0     H76783   2.557   9.402   3.870 -1.5642 -0.8597  0.7711
  569MOL0     H76784   2.576   9.547   3.968  0.1840 -1.5454 -1.3330
  569MOL0     H76785   2.419   9.540   3.708 -1.0754 -5.3414  1.6928
  569MOL0     H76786   2.476   9.689   3.808  3.4367 -1.2030  4.3088
  569MOL0     H76787   2.311   9.452   3.849 -3.7588  0.1690 -2.3114
  569MOL0     H76788   2.340   9.568   3.989  1.0608 -1.6291 -0.8732
  569MOL0     H76789   2.238   9.744   3.815 -0.0830 -0.4700  0.2672
  569MOL0     H76790   2.131   9.648   3.919  1.0293 -1.0041  1.0873
  569MOL0     H76791   2.171   9.543   3.651  0.4986 -0.1520  0.3763
  569MOL0     H76792   2.062   9.489   3.765  2.0931 -1.1946 -2.2594
  569MOL0     H76793   2.037   9.785   3.708 -0.1169  1.1396 -2.2668
  569MOL0     H76794   1.906   9.670   3.720 -0.3082 -0.3508 -0.9737
  569MOL0     H76795   2.052   9.750   3.480  1.3465 -1.1109  0.4673
  569MOL0     H76796   1.879   9.706   3.524  0.2449  1.2559 -0.6031
  569MOL0     H76797   3.019   9.397   3.924  0.4306 -1.1096 -1.1283
  569MOL0     H76798   3.243   9.463   3.879  1.1116 -0.4547 -1.1542
  569MOL0     H76799   3.655   9.491   3.577 -1.1768  0.8666 -3.0313
  569MOL0     H76800   3.824   9.616   3.458  0.0809 -0.2507  0.8706
  569MOL0     H76801   4.267  11.133   2.214  0.1340  1.1408 -0.6274
  569MOL0     H76802   4.415  11.171   2.044 -2.5481  0.4648 -0.2121
  569MOL0     H76803   4.530  11.284   1.618 -0.8088 -2.6181 -0.0458
  569MOL0     H76804   4.731  11.381   1.481  5.4725  0.5998  0.3727
  569MOL0     H76805   5.148  11.277   1.489  1.8885 -3.3204 -0.3588
  569MOL0     H76806   5.040  11.149   1.412 -0.5188  0.2327 -1.3327
  569MOL0     H76807   5.173  11.299   1.234  0.9335 -1.0684  2.3845
  569MOL0     H76808   5.092  11.438   1.294 -0.7986  0.1471 -1.9343
  569MOL0     H76809   4.873  11.363   1.253  0.4716  1.4787 -0.9883
  569MOL0     H76810   4.917  11.213   1.179  1.0067 -0.2049 -3.1520
  569MOL0     H76811   5.063  11.325   1.012 -0.2849  3.5462 -5.0840
  569MOL0     H76812   4.999  11.484   1.073 -0.2933 -0.2834 -2.5484
  569MOL0     H76813   4.689  11.318   0.840  0.5826 -0.7899 -1.0728
  569MOL0     H76814   4.985  11.088   1.642  1.7946  2.2297 -3.4849
  569MOL0     H76815   4.799  10.979   1.748 -2.2665 -0.3080 -0.2878
  570MOL0     O76816   7.537   0.200   5.104 -0.9064 -0.0765 -0.0440
  570MOL0     C76817   7.536   0.225   5.229 -0.9903 -0.8365  0.5120
  570MOL0     O76818   7.429   0.223   5.313 -0.6074 -0.7796 -0.1847
  570MOL0     C76819   7.311   0.240   5.237 -0.0520  0.1441 -0.1532
  570MOL0     C76820   7.283   0.360   5.161 -0.1877 -0.4475 -0.7164
  570MOL0     C76821   7.159   0.386   5.103 -0.1672  0.3807  0.1625
  570MOL0     C76822   7.063   0.292   5.134  0.9558  1.0400  0.2751
  570MOL0     O76823   6.925   0.310   5.106 -0.2547  0.1909 -0.4184
  570MOL0     C76824   6.886   0.416   5.030 -0.0570  1.2474  0.5505
  570MOL0     C76825   6.733   0.416   5.016 -0.6921 -0.0325  1.0431
  570MOL0     C76826   6.651   0.412   5.149  0.6708 -0.2820 -0.6540
  570MOL0     C76827   6.503   0.383   5.134 -0.6007  0.3455  0.1753
  570MOL0     C76828   6.436   0.389   5.272  0.5130  0.7029  1.1642
  570MOL0     C76829   6.286   0.360   5.262 -0.8453  0.6417  0.7475
  570MOL0     C76830   6.222   0.315   5.394 -1.1340 -0.1685  0.6631
  570MOL0     C76831   6.257   0.407   5.513 -0.0042  0.0097 -0.1916
  570MOL0     N76832   6.222   0.546   5.497  0.3261 -0.1272  0.0525
  570MOL0     C76833   6.123   0.617   5.561 -0.0323 -1.0049  0.3136
  570MOL0     C76834   6.146   0.749   5.530  1.0359  0.5351  0.5417
  570MOL0     C76835   6.066   0.867   5.585  0.4527 -0.7044 -0.4957
  570MOL0     C76836   5.925   0.870   5.526  0.3504  0.7378  0.1417
  570MOL0     C76837   5.839   0.974   5.596  1.0813  0.4824 -0.2329
  570MOL0     C76838   5.707   0.981   5.527 -0.5031  0.9420 -0.4056
  570MOL0     O76839   5.615   1.051   5.608  0.2277 -0.1781 -0.2165
  570MOL0     C76840   5.504   1.108   5.551 -0.0655 -0.2718  0.5559
  570MOL0     C76841   5.442   1.211   5.620 -0.5200  0.6045 -0.1275
  570MOL0     C76842   5.346   1.298   5.556 -0.6851 -0.0889 -0.0471
  570MOL0     C76843   5.311   1.418   5.639  0.2909  0.9683 -0.4229
  570MOL0     C76844   5.285   1.260   5.435 -0.3864 -0.2221 -0.0273
  570MOL0     C76845   5.163   1.320   5.374  0.4439  0.4444  0.7369
  570MOL0     O76846   5.120   1.271   5.251 -0.9737  0.4066  0.0851
  570MOL0     C76847   4.994   1.313   5.202 -0.1941  0.5775 -0.1598
  570MOL0     C76848   5.000   1.357   5.071 -0.3179 -0.2012 -0.2274
  570MOL0     C76849   4.889   1.400   5.003  0.3140 -0.2088 -0.4429
  570MOL0     C76850   4.764   1.391   5.059  0.9495 -0.7355 -1.0137
  570MOL0     O76851   4.650   1.449   5.011 -0.2399  0.3812  0.3585
  570MOL0     C76852   4.538   1.359   4.989  0.1171 -1.6943  0.7384
  570MOL0     C76853   4.489   1.389   4.850  0.1764 -0.6957  0.1563
  570MOL0     C76854   4.544   1.285   4.749 -0.9242  0.4812  0.0136
  570MOL0     C76855   4.442   1.249   4.644 -0.2889  0.0588  0.6839
  570MOL0     C76856   4.486   1.170   4.522  0.2824  0.0629 -0.2839
  570MOL0     C76857   4.515   1.027   4.554  0.4486  0.0613 -0.0842
  570MOL0     C76858   4.539   0.950   4.421  0.5987 -0.0944 -0.2258
  570MOL0     C76859   4.607   0.818   4.451  0.1285  0.1659  0.2992
  570MOL0    Cl76860   4.771   0.846   4.501  0.1154  0.3994  0.0080
  570MOL0     C76861   4.757   1.329   5.189 -0.5594 -1.1131  0.3782
  570MOL0     C76862   4.867   1.299   5.265 -0.5417  0.0549  0.3109
  570MOL0     O76863   5.099   1.392   5.441 -0.8096  0.2111  0.2694
  570MOL0     C76864   5.348   1.157   5.373 -0.5531  0.3955  0.3142
  570MOL0     C76865   5.453   1.080   5.425 -0.3754 -0.0357 -0.0066
  570MOL0     N76866   6.248   0.759   5.442 -0.7462  0.4707 -0.0588
  570MOL0     N76867   6.301   0.643   5.432 -0.6438 -0.3578  0.1454
  570MOL0     C76868   7.083   0.177   5.210 -0.1080 -0.1103 -0.4062
  570MOL0     C76869   7.203   0.155   5.266  0.1920  0.1333  0.5695
  570MOL0     C76870   7.667   0.249   5.287 -0.5187 -0.0258 -0.3685
  570MOL0     C76871   7.672   0.297   5.423  0.2972 -0.2337 -0.2144
  570MOL0     C76872   7.800   0.308   5.487  0.7640  0.1272 -0.3718
  570MOL0     C76873   7.920   0.283   5.424  0.8661  0.3527  0.0979
  570MOL0     O76874   8.031   0.307   5.495  0.5521 -0.2264  0.3337
  570MOL0     C76875   8.153   0.319   5.420  0.2391 -0.4232  0.2106
  570MOL0     C76876   8.270   0.359   5.505 -0.1037  0.8352  0.8256
  570MOL0     C76877   8.410   0.321   5.440 -0.5227 -0.5943  0.1487
  570MOL0     C76878   8.512   0.390   5.529 -0.4744  0.2322  0.1921
  570MOL0     C76879   8.600   0.482   5.450  0.6312  0.5220  0.3569
  570MOL0     C76880   8.661   0.573   5.389  0.4302  0.9841 -0.1277
  570MOL0     C76881   7.911   0.226   5.290  0.2820  0.6730 -0.2128
  570MOL0     C76882   7.788   0.218   5.224 -0.3787  0.7196 -0.5117
  570MOL0     H76883   7.365   0.430   5.149  0.8983 -1.5200  0.1395
  570MOL0     H76884   7.145   0.473   5.041 -0.4525 -0.9521 -1.7304
  570MOL0     H76885   6.910   0.516   5.068  2.0057  1.4600 -1.1640
  570MOL0     H76886   6.934   0.402   4.933 -0.3422 -2.4100  0.7948
  570MOL0     H76887   6.708   0.506   4.959 -0.4331 -0.7632 -0.2540
  570MOL0     H76888   6.711   0.335   4.945 -0.0949 -0.1908  1.0363
  570MOL0     H76889   6.687   0.325   5.205  0.5749 -0.7339 -1.2867
  570MOL0     H76890   6.671   0.503   5.208  0.9244 -1.3964  1.0563
  570MOL0     H76891   6.458   0.461   5.072  1.5789  3.1127  1.8362
  570MOL0     H76892   6.491   0.282   5.091  2.6760 -1.1368  2.3638
  570MOL0     H76893   6.474   0.307   5.333  0.5099  0.0729  0.3302
  570MOL0     H76894   6.467   0.480   5.323  0.9103  1.5135 -0.4459
  570MOL0     H76895   6.229   0.443   5.219  1.1689  1.8052  0.1326
  570MOL0     H76896   6.273   0.278   5.191 -0.1639  0.7294  0.5114
  570MOL0     H76897   6.114   0.307   5.375 -0.7176 -2.3705 -1.3811
  570MOL0     H76898   6.249   0.210   5.409 -0.4308 -0.2281 -0.7748
  570MOL0     H76899   6.365   0.398   5.523 -0.2518 -0.2828  4.6896
  570MOL0     H76900   6.222   0.370   5.610  2.3900  2.4789  1.7788
  570MOL0     H76901   6.050   0.566   5.623 -0.8667  0.3336  0.4702
  570MOL0     H76902   6.070   0.866   5.694  2.0738 -0.5085 -0.5272
  570MOL0     H76903   6.112   0.959   5.547  0.6476 -1.0470 -1.1151
  570MOL0     H76904   5.875   0.774   5.541  3.5966 -1.3052 -0.9159
  570MOL0     H76905   5.918   0.893   5.419 -1.1820  2.0816  0.5050
  570MOL0     H76906   5.877   1.076   5.606 -0.4280  0.8375  3.1988
  570MOL0     H76907   5.819   0.928   5.693 -2.0824 -2.1950 -1.9485
  570MOL0     H76908   5.665   0.882   5.512  0.5698  0.5392 -0.8648
  570MOL0     H76909   5.718   1.031   5.430  0.8434 -0.9335 -1.2634
  570MOL0     H76910   5.479   1.232   5.720  0.5923 -1.9885  0.0711
  570MOL0     H76911   5.262   1.393   5.733 -0.3808  0.0980 -0.9943
  570MOL0     H76912   5.391   1.492   5.652 -0.7140  2.3933 -1.9296
  570MOL0     H76913   5.229   1.480   5.601 -0.1749  1.6689  1.6162
  570MOL0     H76914   5.094   1.364   5.016 -0.9114  1.3714 -1.0991
  570MOL0     H76915   4.901   1.461   4.914 -0.4604 -1.2585 -1.2844
  570MOL0     H76916   4.573   1.256   5.003  4.9658 -0.9674 -3.1849
  570MOL0     H76917   4.459   1.382   5.061 -0.0886  1.5384 -0.3900
  570MOL0     H76918   4.380   1.382   4.847  0.0984 -0.1054  1.1567
  570MOL0     H76919   4.522   1.489   4.823  0.3337 -1.3847 -2.4432
  570MOL0     H76920   4.579   1.193   4.797 -1.0685  1.3222  1.8326
  570MOL0     H76921   4.632   1.323   4.696  1.3672 -1.4188  2.2218
  570MOL0     H76922   4.363   1.183   4.679 -1.3298 -1.5219 -3.9582
  570MOL0     H76923   4.406   1.346   4.609  1.8938  0.4084 -0.7523
  570MOL0     H76924   4.575   1.214   4.476  0.8732 -0.4796  0.2945
  570MOL0     H76925   4.407   1.163   4.447 -1.0166 -1.6239  1.1575
  570MOL0     H76926   4.611   1.032   4.607  2.1615 -0.0649 -2.9575
  570MOL0     H76927   4.440   0.968   4.607  0.0739 -0.6095 -1.3190
  570MOL0     H76928   4.610   1.008   4.362  1.0322  0.4396  0.7840
  570MOL0     H76929   4.441   0.946   4.372  0.4486  0.5247  0.0139
  570MOL0     H76930   4.603   0.759   4.360 -0.6620  1.2531 -0.4033
  570MOL0     H76931   4.557   0.760   4.530 -1.2051  1.1369  0.2199
  570MOL0     H76932   4.663   1.328   5.242 -0.2216 -2.3090  0.9855
  570MOL0     H76933   4.861   1.266   5.368 -1.2984  1.1523  0.6360
  570MOL0     H76934   5.317   1.120   5.275 -1.8847  0.2740  0.7638
  570MOL0     H76935   5.509   1.002   5.375  0.2295 -0.5245  1.3945
  570MOL0     H76936   7.004   0.108   5.237  1.1024 -1.1783  0.5766
  570MOL0     H76937   7.216   0.068   5.328  3.0797 -0.1703 -0.3422
  570MOL0     H76938   7.593   0.304   5.497  0.7415 -0.3208  0.2763
  570MOL0     H76939   7.793   0.328   5.594 -2.6036 -0.8372 -0.2957
  570MOL0     H76940   8.173   0.221   5.374 -1.0491 -1.9265  2.6302
  570MOL0     H76941   8.142   0.393   5.340  0.3661  1.2367  1.6777
  570MOL0     H76942   8.266   0.305   5.600 -0.5730 -3.6001 -1.4467
  570MOL0     H76943   8.254   0.465   5.528 -0.9795  0.6248  1.2548
  570MOL0     H76944   8.418   0.367   5.341 -0.5365 -0.3975  0.2376
  570MOL0     H76945   8.424   0.213   5.444  1.7935 -0.4314 -1.4767
  570MOL0     H76946   8.565   0.317   5.590 -1.5489  0.0174  0.8973
  570MOL0     H76947   8.461   0.466   5.590  0.6750  0.4072  0.9668
  570MOL0     H76948   8.697   0.656   5.331 -2.6776  2.4168 -0.2292
  570MOL0     H76949   8.000   0.210   5.230 -0.4518 -1.0547 -0.9243
  570MOL0     H76950   7.781   0.183   5.122  0.2353  1.0834 -0.6812
  571MOL0     O76951   0.113  10.534   4.844  0.6622  0.3934 -0.0136
  571MOL0     C76952   0.057  10.531   4.953  0.5024 -0.5740  0.2625
  571MOL0     O76953  -0.075  10.529   4.984 -0.3251  0.8762  0.1633
  571MOL0     C76954  -0.167  10.511   4.890 -0.1727 -0.7871  0.3202
  571MOL0     C76955  -0.285  10.431   4.917 -0.4595  0.1596 -0.0612
  571MOL0     C76956  -0.394  10.415   4.826 -0.0450  0.7189  0.0956
  571MOL0     C76957  -0.388  10.488   4.707  0.2207  1.2217  0.1955
  571MOL0     O76958  -0.485  10.473   4.609  0.2003 -0.2912  0.0428
  571MOL0     C76959  -0.613  10.426   4.648 -0.1176 -0.2420  0.2052
  571MOL0     C76960  -0.717  10.477   4.545  0.5824  0.0564 -0.6874
  571MOL0     C76961  -0.730  10.632   4.534  0.0799  0.0404 -0.5210
  571MOL0     C76962  -0.844  10.669   4.437 -0.9686 -0.4489  0.0299
  571MOL0     C76963  -0.863  10.816   4.417 -0.1784  0.3136  0.1431
  571MOL0     C76964  -0.957  10.840   4.297  0.7811 -0.1234  0.1360
  571MOL0     C76965  -0.979  10.994   4.271 -0.3413  0.1779  0.8830
  571MOL0     C76966  -1.109  11.003   4.192  0.2968  0.7479  0.0657
  571MOL0     N76967  -1.226  10.995   4.280 -0.3705  0.2149 -0.4154
  571MOL0     C76968  -1.307  10.893   4.289  0.4568 -0.2233 -1.2228
  571MOL0     C76969  -1.427  10.949   4.313  0.4220 -0.0768 -0.0204
  571MOL0     C76970  -1.553  10.877   4.294  0.0651  0.2292  0.4741
  571MOL0     C76971  -1.673  10.974   4.277  0.0893  0.1500 -0.0884
  571MOL0     C76972  -1.807  10.904   4.315  1.0247 -0.1806  0.4111
  571MOL0     C76973  -1.921  10.991   4.258  0.1440  0.3029 -1.1735
  571MOL0     O76974  -1.948  10.958   4.116  0.0563  0.1221  0.3912
  571MOL0     C76975  -2.039  11.036   4.050 -0.3099 -0.0741 -0.5690
  571MOL0     C76976  -2.072  10.991   3.916  0.1280  0.1932 -0.5925
  571MOL0     C76977  -2.173  11.060   3.846 -0.1419 -0.5872  0.9944
  571MOL0     C76978  -2.201  11.006   3.705 -0.1866  0.1344  0.3378
  571MOL0     C76979  -2.230  11.183   3.895  1.0359 -0.1258  0.0313
  571MOL0     C76980  -2.307  11.280   3.813  0.8094 -0.4889 -0.1394
  571MOL0     O76981  -2.397  11.357   3.889 -0.1038  0.0060 -0.6678
  571MOL0     C76982  -2.517  11.399   3.830 -0.2790 -0.1041 -0.9255
  571MOL0     C76983  -2.583  11.490   3.908  0.0976 -0.1924 -0.9034
  571MOL0     C76984  -2.706  11.551   3.876  0.0351  0.7753 -0.4051
  571MOL0     C76985  -2.777  11.502   3.755 -0.4303  0.0594 -0.1261
  571MOL0     O76986  -2.900  11.555   3.722  0.3388  0.3060  0.1440
  571MOL0     C76987  -2.965  11.508   3.596 -0.3926 -0.3437 -0.6983
  571MOL0     C76988  -3.084  11.596   3.589  0.1103  0.2912  0.0670
  571MOL0     C76989  -3.175  11.576   3.462  0.1480  0.0586 -0.0443
  571MOL0     C76990  -3.273  11.698   3.434 -0.9979  0.4611 -0.8299
  571MOL0     C76991  -3.332  11.672   3.290 -0.5995 -0.6130 -0.2141
  571MOL0     C76992  -3.418  11.798   3.245 -0.8253 -1.2471  0.6228
  571MOL0     C76993  -3.523  11.764   3.143 -0.7373 -0.2159  0.8952
  571MOL0     C76994  -3.664  11.807   3.181  0.8639 -0.6483 -0.0202
  571MOL0    Cl76995  -3.658  11.990   3.177 -0.0286 -1.0742 -0.2116
  571MOL0     C76996  -2.711  11.398   3.686 -0.7615 -1.0538 -0.2965
  571MOL0     C76997  -2.585  11.352   3.719  0.3316  0.6104  0.0908
  571MOL0     O76998  -2.286  11.295   3.692  0.3153  0.6872 -0.2716
  571MOL0     C76999  -2.206  11.219   4.028 -0.3341  0.4040  0.4028
  571MOL0     C77000  -2.117  11.145   4.101 -0.3092 -0.7366  0.0590
  571MOL0     N77001  -1.416  11.083   4.337  0.1271 -0.6356 -0.1606
  571MOL0     N77002  -1.295  11.108   4.311 -0.2810 -0.7648 -0.0735
  571MOL0     C77003  -0.274  10.548   4.677 -0.1142 -0.3565 -0.4451
  571MOL0     C77004  -0.160  10.559   4.758  0.8616  0.0179 -0.7451
  571MOL0     C77005   0.153  10.516   5.065  0.4441  0.0048 -0.7185
  571MOL0     C77006   0.095  10.501   5.193  0.4546  0.2152 -0.4062
  571MOL0     C77007   0.189  10.502   5.299  0.2550  0.4618 -0.7257
  571MOL0     C77008   0.326  10.503   5.284 -1.0145 -0.7599 -0.6989
  571MOL0     O77009   0.415  10.518   5.393  0.2429  0.6258 -1.1863
  571MOL0     C77010   0.366  10.528   5.527  0.3701 -0.4856  0.6922
  571MOL0     C77011   0.492  10.578   5.601  0.0563 -0.0826  0.0742
  571MOL0     C77012   0.446  10.621   5.739  0.1547 -0.6749  0.7972
  571MOL0     C77013   0.568  10.636   5.833 -0.8410  0.3052  0.1129
  571MOL0     C77014   0.677  10.713   5.774 -0.3659  0.1261  0.3533
  571MOL0     C77015   0.772  10.784   5.737 -0.7305  0.1983 -0.1663
  571MOL0     C77016   0.379  10.523   5.157  0.4566  0.5698  0.7563
  571MOL0     C77017   0.290  10.534   5.045 -0.0002  0.8381 -0.0606
  571MOL0     H77018  -0.273  10.396   5.019  1.8690 -1.5859 -0.8448
  571MOL0     H77019  -0.482  10.358   4.851 -0.3745 -0.8996 -3.9902
  571MOL0     H77020  -0.617  10.317   4.655  0.9002 -0.1777  2.5944
  571MOL0     H77021  -0.626  10.473   4.746  0.2120  2.1584 -0.8197
  571MOL0     H77022  -0.680  10.453   4.445  0.2526 -0.8023 -0.6112
  571MOL0     H77023  -0.813  10.430   4.571  0.7444 -1.3672 -2.4595
  571MOL0     H77024  -0.749  10.689   4.625 -0.4114  1.8875 -1.7396
  571MOL0     H77025  -0.638  10.672   4.489 -1.1159  1.2488 -1.9978
  571MOL0     H77026  -0.828  10.623   4.339 -2.3592 -0.5432 -0.1632
  571MOL0     H77027  -0.934  10.633   4.487 -1.2376  0.5792  0.2996
  571MOL0     H77028  -0.915  10.858   4.504 -0.4634 -0.8488  0.5525
  571MOL0     H77029  -0.765  10.860   4.398  1.0393 -2.5950 -0.9449
  571MOL0     H77030  -0.916  10.794   4.206 -1.6516 -3.0096  0.3610
  571MOL0     H77031  -1.056  10.804   4.325  0.4371  0.0551 -0.8086
  571MOL0     H77032  -0.997  11.042   4.368  0.7450 -1.1510  1.7768
  571MOL0     H77033  -0.899  11.033   4.207 -1.8269  0.6110 -0.8077
  571MOL0     H77034  -1.107  10.931   4.109 -0.2911  0.5534  0.2160
  571MOL0     H77035  -1.111  11.104   4.150  0.4942  0.4410 -0.7093
  571MOL0     H77036  -1.269  10.793   4.271  2.2716 -0.2494  1.9789
  571MOL0     H77037  -1.547  10.817   4.203  1.5197 -0.7738  1.1805
  571MOL0     H77038  -1.567  10.811   4.381 -3.5940  0.6337  0.3499
  571MOL0     H77039  -1.672  11.016   4.176  1.1059 -3.1145 -1.5426
  571MOL0     H77040  -1.661  11.056   4.350  1.3251  0.4435 -0.5990
  571MOL0     H77041  -1.822  10.914   4.422 -1.5782  2.1158 -0.0719
  571MOL0     H77042  -1.825  10.804   4.272 -2.9498  0.8116 -0.6887
  571MOL0     H77043  -1.883  11.093   4.262  0.5675  0.2444 -2.9575
  571MOL0     H77044  -2.017  10.977   4.310 -0.1951  1.3481 -1.4979
  571MOL0     H77045  -2.019  10.904   3.876 -3.5261 -1.7263 -1.7531
  571MOL0     H77046  -2.157  11.072   3.630 -1.3074 -0.1593 -0.5899
  571MOL0     H77047  -2.154  10.910   3.683 -0.3373  0.0067  0.5730
  571MOL0     H77048  -2.309  11.011   3.693 -0.0709  1.0949 -0.4021
  571MOL0     H77049  -2.542  11.513   4.006  0.3113 -2.6917 -0.3444
  571MOL0     H77050  -2.743  11.621   3.950 -0.9383  2.3166 -2.2571
  571MOL0     H77051  -2.897  11.534   3.514 -2.2359  2.8546 -1.3832
  571MOL0     H77052  -2.987  11.401   3.589  2.2603 -1.0290  0.2926
  571MOL0     H77053  -3.158  11.584   3.668 -1.1572  2.4076 -0.6936
  571MOL0     H77054  -3.051  11.701   3.590 -1.6977  0.8979  0.2698
  571MOL0     H77055  -3.217  11.475   3.463 -2.0139  0.8810 -1.6009
  571MOL0     H77056  -3.114  11.582   3.371  1.1907 -0.0610  0.6248
  571MOL0     H77057  -3.348  11.710   3.513  2.8144  2.9917  2.8434
  571MOL0     H77058  -3.215  11.791   3.435  0.0891 -0.1818  0.9622
  571MOL0     H77059  -3.397  11.584   3.290 -2.2059  0.5129  1.2866
  571MOL0     H77060  -3.261  11.653   3.209 -0.1597 -1.7211  0.3994
  571MOL0     H77061  -3.460  11.862   3.323  0.2276  2.1995 -1.4188
  571MOL0     H77062  -3.346  11.865   3.198 -1.6255 -2.5117 -2.6543
  571MOL0     H77063  -3.525  11.656   3.126 -0.2303 -0.3755  1.7752
  571MOL0     H77064  -3.497  11.812   3.048  0.2052  0.7000  1.5932
  571MOL0     H77065  -3.694  11.766   3.278  4.6488 -1.7818  0.8567
  571MOL0     H77066  -3.737  11.774   3.106 -0.7387  1.0143  0.7731
  571MOL0     H77067  -2.765  11.352   3.603  2.4998 -1.3070 -2.4810
  571MOL0     H77068  -2.541  11.274   3.659  1.0213  0.7629  0.3953
  571MOL0     H77069  -2.257  11.301   4.077  1.3344  1.1404  0.9873
  571MOL0     H77070  -2.113  11.174   4.205  1.3367 -2.8562  0.6729
  571MOL0     H77071  -0.254  10.580   4.576  0.9674 -0.8274 -0.4004
  571MOL0     H77072  -0.077  10.620   4.725  1.4739 -0.3184  0.1369
  571MOL0     H77073  -0.009  10.493   5.223  1.1321  3.9452  3.9382
  571MOL0     H77074   0.133  10.497   5.393  0.7624  2.5111 -0.2731
  571MOL0     H77075   0.284  10.599   5.539  1.4352  1.4781 -2.4352
  571MOL0     H77076   0.341  10.429   5.567  2.0723 -1.6803 -1.0025
  571MOL0     H77077   0.546  10.655   5.543 -1.2956  1.0800  0.2992
  571MOL0     H77078   0.561  10.496   5.619 -0.0697  0.0979  1.4190
  571MOL0     H77079   0.380  10.546   5.784  0.3151 -1.0870  0.3615
  571MOL0     H77080   0.393  10.716   5.747  3.4879  1.2161  3.1584
  571MOL0     H77081   0.599  10.533   5.855  1.9222  1.4052  1.8888
  571MOL0     H77082   0.540  10.674   5.932 -1.4063 -1.6774  0.7611
  571MOL0     H77083   0.863  10.838   5.722 -1.2414  1.8354  2.1099
  571MOL0     H77084   0.487  10.528   5.144  0.7425  1.1114  2.8952
  571MOL0     H77085   0.344  10.550   4.952  1.5261  0.9946  0.8334
  572MOL0     O77086   7.208   7.859   3.332  0.0059  0.1671 -0.0454
  572MOL0     C77087   7.098   7.825   3.386 -0.0185 -0.2414 -0.1984
  572MOL0     O77088   6.983   7.906   3.384 -0.4759  0.6925 -1.0189
  572MOL0     C77089   6.994   8.013   3.310  0.7266  0.5628  0.9797
  572MOL0     C77090   7.008   8.134   3.369 -0.4085  0.1948 -0.2077
  572MOL0     C77091   7.005   8.255   3.293  0.5049  0.1549  0.7744
  572MOL0     C77092   6.989   8.245   3.152 -0.9208  0.0350 -1.4853
  572MOL0     O77093   6.970   8.363   3.089 -0.3392 -0.4523  0.3434
  572MOL0     C77094   6.958   8.377   2.957  0.5485 -0.0580  0.3864
  572MOL0     C77095   6.998   8.520   2.923 -0.1994 -0.0583  0.0180
  572MOL0     C77096   6.883   8.622   2.936  0.0775 -0.1029  1.3127
  572MOL0     C77097   6.876   8.711   3.061  0.1461 -0.3931  0.7336
  572MOL0     C77098   6.876   8.629   3.194  0.3235 -0.2302  0.0708
  572MOL0     C77099   6.808   8.705   3.299 -0.1806  0.4351  0.4520
  572MOL0     C77100   6.833   8.659   3.444 -0.1892  0.0553  1.0738
  572MOL0     C77101   6.744   8.736   3.539 -0.2296 -0.7747 -0.2205
  572MOL0     N77102   6.604   8.692   3.519 -0.0658  0.5012  0.5581
  572MOL0     C77103   6.560   8.570   3.546  0.2778 -0.4879 -0.1956
  572MOL0     C77104   6.428   8.570   3.515 -0.0270 -0.0348 -0.1800
  572MOL0     C77105   6.332   8.455   3.529 -0.2856  0.5078 -0.3189
  572MOL0     C77106   6.190   8.488   3.557  0.2843 -0.4992  1.1707
  572MOL0     C77107   6.118   8.355   3.572  0.4180  0.7219 -0.0358
  572MOL0     C77108   5.967   8.366   3.620  0.3668  0.2691  0.0844
  572MOL0     O77109   5.951   8.407   3.756  0.0788 -0.4795  0.5230
  572MOL0     C77110   5.825   8.410   3.801  0.4935 -0.0867 -0.7641
  572MOL0     C77111   5.706   8.419   3.725 -0.1012 -0.5400 -0.2522
  572MOL0     C77112   5.582   8.417   3.790  0.3509  0.3774  0.4904
  572MOL0     C77113   5.453   8.414   3.706 -0.1838 -0.2839  0.5600
  572MOL0     C77114   5.574   8.406   3.933  0.7440  0.6229  0.5434
  572MOL0     C77115   5.454   8.391   4.019  0.3884 -0.5240  0.7726
  572MOL0     O77116   5.472   8.418   4.147 -0.6633  0.1816  0.0278
  572MOL0     C77117   5.361   8.395   4.223 -0.4995 -0.4260  0.5195
  572MOL0     C77118   5.250   8.479   4.210 -0.3091  0.5497  0.0668
  572MOL0     C77119   5.153   8.467   4.307  1.1203  0.5579  0.5927
  572MOL0     C77120   5.163   8.374   4.412 -0.2039 -0.4966  0.5334
  572MOL0     O77121   5.071   8.347   4.508  0.0877 -0.4426  0.0035
  572MOL0     C77122   4.947   8.300   4.451  0.6938 -0.1021  0.5047
  572MOL0     C77123   4.834   8.348   4.539 -0.3685  0.1142 -0.0654
  572MOL0     C77124   4.717   8.249   4.530 -0.1838  0.0984  0.7128
  572MOL0     C77125   4.591   8.273   4.613  0.8231 -0.2497  0.3594
  572MOL0     C77126   4.512   8.147   4.596 -0.2467 -0.2964  0.5997
  572MOL0     C77127   4.366   8.151   4.647 -0.2437  0.0152  1.0088
  572MOL0     C77128   4.360   8.176   4.794 -0.5410  0.6337  1.0949
  572MOL0     C77129   4.235   8.243   4.851  0.1605  0.7579 -0.0767
  572MOL0    Cl77130   4.092   8.131   4.813  0.5551  0.4848 -0.1556
  572MOL0     C77131   5.277   8.299   4.429  0.6588 -0.6856 -0.3745
  572MOL0     C77132   5.374   8.301   4.332 -1.0067 -0.5899  0.3398
  572MOL0     O77133   5.351   8.349   3.965 -0.6514 -0.6823 -0.2174
  572MOL0     C77134   5.688   8.397   4.000 -0.7582  0.8018  0.3751
  572MOL0     C77135   5.809   8.398   3.935 -1.1462  0.6017  0.2598
  572MOL0     N77136   6.400   8.685   3.444  0.3846  0.0936  1.0092
  572MOL0     N77137   6.503   8.766   3.457  0.2001 -0.0670 -0.6181
  572MOL0     C77138   6.987   8.121   3.090  0.7417 -0.0089 -0.4432
  572MOL0     C77139   6.995   8.003   3.166  0.9074 -0.2165 -1.0333
  572MOL0     C77140   7.105   7.691   3.449 -0.6026  0.3940 -0.8602
  572MOL0     C77141   7.200   7.595   3.411 -0.1775  0.3251  0.0491
  572MOL0     C77142   7.212   7.475   3.469  0.7471  1.0151  0.0630
  572MOL0     C77143   7.118   7.444   3.567  0.3708  0.2966  0.7852
  572MOL0     O77144   7.123   7.309   3.604 -0.2815  0.0470 -0.4483
  572MOL0     C77145   7.073   7.270   3.732  0.6846  0.9312 -0.1256
  572MOL0     C77146   6.938   7.202   3.705  0.2104 -0.1943 -0.0717
  572MOL0     C77147   6.946   7.050   3.656 -0.1262  0.5210 -0.0025
  572MOL0     C77148   6.814   6.983   3.615  0.5998 -0.2174 -0.0262
  572MOL0     C77149   6.725   6.954   3.729 -0.1195  0.1821  0.0314
  572MOL0     C77150   6.658   6.943   3.833 -0.0732  0.5763 -0.4383
  572MOL0     C77151   7.017   7.526   3.602  0.0732  0.3257 -0.3982
  572MOL0     C77152   7.011   7.656   3.558 -0.2598  0.1949 -0.2953
  572MOL0     H77153   7.012   8.134   3.478 -0.1961 -2.7871 -0.1465
  572MOL0     H77154   7.006   8.343   3.356 -3.2124 -1.0734  2.8633
  572MOL0     H77155   7.023   8.308   2.901  0.5540  0.6140 -0.4560
  572MOL0     H77156   6.860   8.349   2.917  0.4936 -0.6215  0.8958
  572MOL0     H77157   7.080   8.544   2.991  2.2677 -4.8210 -0.8050
  572MOL0     H77158   7.050   8.532   2.827  5.0838  2.5014  2.7971
  572MOL0     H77159   6.876   8.674   2.840 -0.5057 -1.7713  0.4020
  572MOL0     H77160   6.795   8.557   2.942 -0.7350  1.0127  1.7206
  572MOL0     H77161   6.962   8.778   3.064 -1.5287  1.8908  0.0043
  572MOL0     H77162   6.793   8.781   3.055 -0.5111 -1.0908  1.5873
  572MOL0     H77163   6.830   8.530   3.186  2.1009 -1.1777  0.9893
  572MOL0     H77164   6.978   8.619   3.230  0.1957 -2.3151 -0.0579
  572MOL0     H77165   6.827   8.813   3.297 -0.8671  0.5613 -1.2408
  572MOL0     H77166   6.706   8.682   3.269  1.4122 -3.3844 -2.9488
  572MOL0     H77167   6.813   8.551   3.444 -0.5206  0.0905 -0.4256
  572MOL0     H77168   6.936   8.687   3.467  0.4467 -0.4923 -0.9234
  572MOL0     H77169   6.749   8.845   3.532  3.4375 -0.8959 -1.2419
  572MOL0     H77170   6.786   8.708   3.637  0.2543  4.7338  1.5194
  572MOL0     H77171   6.612   8.486   3.593  0.8060  1.0722  2.1598
  572MOL0     H77172   6.354   8.395   3.440  2.4770  1.0815 -0.1271
  572MOL0     H77173   6.365   8.401   3.618 -1.1788 -2.0372 -1.4458
  572MOL0     H77174   6.143   8.527   3.466 -1.8283 -3.1857  0.9916
  572MOL0     H77175   6.169   8.565   3.631  1.0239  0.2206  0.6608
  572MOL0     H77176   6.179   8.291   3.636  1.2024  1.8271  0.3523
  572MOL0     H77177   6.113   8.306   3.474 -2.1375  1.2362 -0.2296
  572MOL0     H77178   5.919   8.268   3.619 -0.6284  0.7460 -0.2939
  572MOL0     H77179   5.917   8.435   3.552  0.9542  0.9485  0.3307
  572MOL0     H77180   5.705   8.423   3.617 -0.7186  0.1329 -0.2239
  572MOL0     H77181   5.483   8.416   3.601 -0.4645  0.8766  0.4928
  572MOL0     H77182   5.396   8.321   3.712 -1.9903  0.6517 -0.9223
  572MOL0     H77183   5.383   8.497   3.718 -1.3846 -0.6887 -2.7662
  572MOL0     H77184   5.244   8.558   4.136 -0.4795  0.7089  0.2470
  572MOL0     H77185   5.068   8.533   4.314  0.3267 -0.0926 -1.9365
  572MOL0     H77186   4.920   8.330   4.349  1.4368 -0.5495  0.1729
  572MOL0     H77187   4.958   8.192   4.441  2.2944  0.1922 -1.5552
  572MOL0     H77188   4.867   8.344   4.643 -0.0710 -0.3904 -0.1752
  572MOL0     H77189   4.803   8.449   4.510  0.1592 -0.0350 -1.1987
  572MOL0     H77190   4.767   8.155   4.556  1.6820  0.2262 -2.0196
  572MOL0     H77191   4.682   8.253   4.426  0.4691  2.1883  0.5335
  572MOL0     H77192   4.606   8.297   4.719  0.6206  0.6357  0.1926
  572MOL0     H77193   4.547   8.367   4.578  1.8887  0.7457  1.5617
  572MOL0     H77194   4.565   8.077   4.660 -1.5650 -1.4011  0.5411
  572MOL0     H77195   4.505   8.109   4.494  1.2485 -2.9083  1.3799
  572MOL0     H77196   4.324   8.241   4.601  3.0596  1.2806  0.1976
  572MOL0     H77197   4.314   8.055   4.636 -1.4082  0.6501  0.8457
  572MOL0     H77198   4.428   8.256   4.826 -1.8571  2.7795 -1.1135
  572MOL0     H77199   4.385   8.092   4.859 -1.1177  1.4248  2.3906
  572MOL0     H77200   4.222   8.343   4.809 -0.5039  1.7605  2.3230
  572MOL0     H77201   4.254   8.262   4.957 -1.6405 -0.3040  0.4879
  572MOL0     H77202   5.291   8.235   4.515 -0.6926  2.3204  2.3102
  572MOL0     H77203   5.467   8.248   4.352 -1.3843 -2.3805 -2.2373
  572MOL0     H77204   5.691   8.356   4.101  0.5279 -2.1300 -0.7624
  572MOL0     H77205   5.897   8.378   3.995 -1.4989 -2.6307 -0.1152
  572MOL0     H77206   6.982   8.113   2.982  1.1051  1.4357 -0.5872
  572MOL0     H77207   6.985   7.908   3.116 -1.1530 -0.5168 -0.1342
  572MOL0     H77208   7.269   7.619   3.331  0.6714  1.1511  1.0022
  572MOL0     H77209   7.293   7.407   3.449  0.5089 -0.1790  2.7917
  572MOL0     H77210   7.143   7.195   3.769  2.7111  1.2513 -2.9723
  572MOL0     H77211   7.068   7.352   3.804  1.3514  0.1964  0.7767
  572MOL0     H77212   6.880   7.247   3.624 -3.2621 -5.3642 -0.9068
  572MOL0     H77213   6.871   7.206   3.791 -2.0656  2.6097 -1.7840
  572MOL0     H77214   6.992   7.000   3.742  0.6728  0.4318 -0.4739
  572MOL0     H77215   7.023   7.056   3.579  3.0086 -0.8982  2.7531
  572MOL0     H77216   6.835   6.885   3.572  0.3671  0.5987 -2.1528
  572MOL0     H77217   6.759   7.045   3.543 -0.1776  0.3021  0.9907
  572MOL0     H77218   6.602   6.931   3.924  1.5552 -0.3560  0.4908
  572MOL0     H77219   6.947   7.486   3.675  0.2933  4.3443  2.2964
  572MOL0     H77220   6.932   7.720   3.597 -3.3673 -2.0400 -2.4238
  573MOL0     O77221  10.404   3.149   5.448 -0.1502 -0.8759  0.7217
  573MOL0     C77222  10.401   3.134   5.568  0.3584  0.5590 -0.3712
  573MOL0     O77223  10.306   3.055   5.643  0.2219  0.1683 -0.0075
  573MOL0     C77224  10.192   3.023   5.570 -0.7022  0.2494  0.4742
  573MOL0     C77225  10.114   3.123   5.518 -0.4926  0.3209  0.3250
  573MOL0     C77226   9.998   3.095   5.433  0.0723  0.6685 -0.4178
  573MOL0     C77227   9.967   2.962   5.399 -0.1078 -0.5716 -0.9840
  573MOL0     O77228   9.853   2.919   5.348  0.4538  1.0564  0.8228
  573MOL0     C77229   9.769   3.015   5.281  0.6253  0.4348  0.0760
  573MOL0     C77230   9.649   2.940   5.225  0.2450 -0.0701 -0.3382
  573MOL0     C77231   9.535   3.041   5.186  0.2350 -1.0131  0.3889
  573MOL0     C77232   9.441   2.992   5.072 -0.9363  0.5845 -0.4601
  573MOL0     C77233   9.295   3.059   5.080 -0.2268  0.0541  0.5356
  573MOL0     C77234   9.206   3.017   4.961  0.2127  1.1869 -0.1776
  573MOL0     C77235   9.057   3.060   4.985  0.4428 -0.6049  0.6094
  573MOL0     C77236   8.963   3.032   4.869  0.4411  1.2176  0.5541
  573MOL0     N77237   8.898   2.900   4.884 -0.6818 -0.1433 -0.2290
  573MOL0     C77238   8.773   2.883   4.938  0.2338  0.2536 -0.5259
  573MOL0     C77239   8.753   2.746   4.938  0.1283 -0.1570 -0.2738
  573MOL0     C77240   8.646   2.648   4.994 -0.7069 -0.0816 -0.2445
  573MOL0     C77241   8.530   2.631   4.895  0.2185 -0.2672 -0.6776
  573MOL0     C77242   8.421   2.532   4.937 -0.2183 -0.5660  0.6636
  573MOL0     C77243   8.360   2.471   4.808  0.4920  0.6414 -0.5649
  573MOL0     O77244   8.279   2.353   4.824 -0.5298 -0.5573 -0.4462
  573MOL0     C77245   8.158   2.363   4.888  1.0311 -0.0923  0.6501
  573MOL0     C77246   8.130   2.252   4.960 -0.4930  0.5886  0.3643
  573MOL0     C77247   8.020   2.244   5.049 -0.0948 -0.9083  0.7460
  573MOL0     C77248   8.012   2.106   5.108  0.3939 -0.4641 -0.1282
  573MOL0     C77249   7.931   2.349   5.060 -0.7318  0.3543 -0.9172
  573MOL0     C77250   7.820   2.356   5.151 -1.0917 -0.9521  0.2082
  573MOL0     O77251   7.739   2.248   5.162 -0.0032  0.2772 -0.8225
  573MOL0     C77252   7.617   2.277   5.218 -0.4937  0.3581  0.2942
  573MOL0     C77253   7.588   2.256   5.355  0.1492 -0.5039  0.2008
  573MOL0     C77254   7.465   2.290   5.414  0.2189  0.2418 -0.0474
  573MOL0     C77255   7.364   2.340   5.338 -1.6687 -0.1280  0.4769
  573MOL0     O77256   7.241   2.368   5.386 -0.3116  0.3520  0.2780
  573MOL0     C77257   7.225   2.475   5.471 -0.5742 -0.3886  0.2107
  573MOL0     C77258   7.200   2.424   5.617  0.0320 -0.6976 -0.5282
  573MOL0     C77259   7.161   2.541   5.713  0.2305  0.2515 -0.0700
  573MOL0     C77260   7.106   2.502   5.844  0.5590  0.9202 -0.1653
  573MOL0     C77261   6.962   2.568   5.882  0.1554  0.3868  0.4010
  573MOL0     C77262   6.954   2.719   5.913 -0.2363  0.1778  0.5790
  573MOL0     C77263   6.979   2.729   6.058 -0.1460  0.3496  0.6155
  573MOL0     C77264   6.977   2.880   6.107 -0.2137  0.4397 -0.9134
  573MOL0    Cl77265   6.814   2.938   6.141 -0.1677 -0.1702  0.3836
  573MOL0     C77266   7.395   2.353   5.197 -0.3960 -1.0002  0.2615
  573MOL0     C77267   7.513   2.321   5.137  0.5695  0.8007 -0.4251
  573MOL0     O77268   7.796   2.461   5.204  0.4614 -0.0699  0.1469
  573MOL0     C77269   7.958   2.466   4.981 -0.1628 -0.1948  0.0391
  573MOL0     C77270   8.072   2.474   4.905 -0.4600 -0.4919 -0.6401
  573MOL0     N77271   8.866   2.696   4.866  0.3674 -0.1644 -0.1358
  573MOL0     N77272   8.949   2.789   4.840 -0.8320 -0.8442  0.3083
  573MOL0     C77273  10.045   2.855   5.458  0.5688  0.0882 -0.5994
  573MOL0     C77274  10.156   2.891   5.545 -0.0147 -0.2018  0.0391
  573MOL0     C77275  10.521   3.180   5.647 -0.0929 -0.2954 -0.3085
  573MOL0     C77276  10.630   3.251   5.586  0.3196  0.8290  0.1657
  573MOL0     C77277  10.739   3.296   5.658 -0.1282 -1.1257 -1.2181
  573MOL0     C77278  10.734   3.286   5.800  0.2241  0.5563  0.6988
  573MOL0     O77279  10.843   3.333   5.868 -0.2703  0.3266 -0.0321
  573MOL0     C77280  10.922   3.222   5.906  0.3541  0.3566 -0.1212
  573MOL0     C77281  11.002   3.142   5.797 -0.2670 -0.5650 -0.4295
  573MOL0     C77282  11.107   3.231   5.726  0.6379 -0.1433 -0.1035
  573MOL0     C77283  11.199   3.302   5.818  0.1282  0.6528 -0.8319
  573MOL0     C77284  11.322   3.352   5.762  0.4592  0.0164 -0.1555
  573MOL0     C77285  11.441   3.403   5.752  0.2612  0.0872 -1.0031
  573MOL0     C77286  10.626   3.223   5.863  0.1498 -0.3554 -0.9243
  573MOL0     C77287  10.524   3.164   5.787  0.2513 -0.3364 -0.4301
  573MOL0     H77288  10.143   3.225   5.541  2.0847 -0.0446 -0.9913
  573MOL0     H77289   9.940   3.182   5.405 -1.9930 -0.0553  1.3194
  573MOL0     H77290   9.728   3.087   5.351 -1.4130 -1.8861  1.4537
  573MOL0     H77291   9.827   3.069   5.205  1.7510 -0.5877  0.1792
  573MOL0     H77292   9.687   2.879   5.142 -1.2903 -0.8673 -0.4953
  573MOL0     H77293   9.618   2.873   5.306 -0.6849  1.7433  0.8746
  573MOL0     H77294   9.472   3.058   5.274  1.5101 -0.9479  1.3093
  573MOL0     H77295   9.576   3.136   5.151 -1.6405 -1.1361 -2.5094
  573MOL0     H77296   9.485   3.019   4.976 -0.2679  2.0094  0.2127
  573MOL0     H77297   9.438   2.885   5.095 -0.5199  0.9070  1.2830
  573MOL0     H77298   9.249   3.028   5.175  1.9337 -1.7260  1.0894
  573MOL0     H77299   9.320   3.166   5.083  3.2659 -0.6556  0.4423
  573MOL0     H77300   9.256   3.039   4.866 -1.9602 -0.1388 -1.7212
  573MOL0     H77301   9.200   2.908   4.956  0.8398  0.9639  2.4365
  573MOL0     H77302   9.004   3.010   5.067 -1.2180 -4.6001 -2.5474
  573MOL0     H77303   9.055   3.169   4.996 -2.8033 -0.6126  1.0677
  573MOL0     H77304   9.005   3.035   4.768 -1.1335 -1.9444 -0.3342
  573MOL0     H77305   8.883   3.106   4.861  0.7746  1.3941 -1.9087
  573MOL0     H77306   8.696   2.950   4.975  0.4143 -0.0415  0.4069
  573MOL0     H77307   8.697   2.552   5.001  0.1578  0.3990  0.1231
  573MOL0     H77308   8.606   2.666   5.094  0.2722 -0.0598  0.1461
  573MOL0     H77309   8.571   2.596   4.800  3.2666 -1.6708  0.9846
  573MOL0     H77310   8.491   2.733   4.880 -0.7646 -0.1223  2.1844
  573MOL0     H77311   8.343   2.596   4.979 -3.0441 -0.6821 -3.7561
  573MOL0     H77312   8.454   2.455   5.007  0.4074  0.8409  1.9828
  573MOL0     H77313   8.435   2.444   4.733  1.5744  0.6724  0.4744
  573MOL0     H77314   8.305   2.548   4.754  1.3676  2.2115  0.7031
  573MOL0     H77315   8.206   2.175   4.953 -2.4613 -1.3844 -1.0438
  573MOL0     H77316   7.997   2.034   5.027 -2.0827 -1.6921  1.3129
  573MOL0     H77317   8.110   2.096   5.155  0.0027 -2.7764  0.3224
  573MOL0     H77318   7.935   2.108   5.186  2.2310 -2.4619  1.8828
  573MOL0     H77319   7.677   2.227   5.410  0.5043  2.2264  1.2205
  573MOL0     H77320   7.453   2.276   5.521  1.3040  1.7365  0.3011
  573MOL0     H77321   7.318   2.530   5.486 -0.5681 -0.7115  1.5815
  573MOL0     H77322   7.147   2.537   5.428 -1.0125 -1.0071  0.0933
  573MOL0     H77323   7.123   2.347   5.611 -0.5866 -0.1121 -0.1903
  573MOL0     H77324   7.297   2.385   5.650 -0.2206  0.1391  1.2706
  573MOL0     H77325   7.089   2.597   5.653  1.7431 -0.5078 -2.8208
  573MOL0     H77326   7.245   2.610   5.729 -0.1424  1.1055 -1.5748
  573MOL0     H77327   7.082   2.396   5.831 -0.7259  1.0491  0.9724
  573MOL0     H77328   7.178   2.515   5.925 -0.4650 -0.8724  1.0995
  573MOL0     H77329   6.928   2.511   5.970  2.2926  1.5753  2.1032
  573MOL0     H77330   6.892   2.560   5.799  0.5307  3.0731 -0.2365
  573MOL0     H77331   7.037   2.766   5.859 -0.8860  0.3076 -0.3357
  573MOL0     H77332   6.856   2.756   5.880  0.4414  1.2629 -0.2841
  573MOL0     H77333   7.074   2.679   6.078 -0.9980 -1.7397 -0.2959
  573MOL0     H77334   6.902   2.678   6.117  0.5901  0.4121  1.6673
  573MOL0     H77335   7.034   2.947   6.042 -0.7078  2.7785  0.9124
  573MOL0     H77336   7.025   2.878   6.205  1.8910  2.1972 -1.8243
  573MOL0     H77337   7.314   2.384   5.131 -1.6740 -1.5667  1.5231
  573MOL0     H77338   7.530   2.352   5.034  1.8334  0.6982 -0.2682
  573MOL0     H77339   7.881   2.541   4.967  1.7407  1.3720 -3.0255
  573MOL0     H77340   8.087   2.568   4.852  0.0821  0.7393  1.5586
  573MOL0     H77341  10.023   2.750   5.439 -0.6403  0.2229 -0.0201
  573MOL0     H77342  10.227   2.818   5.583 -1.8394 -1.1499  1.8004
  573MOL0     H77343  10.623   3.275   5.480  0.4826  1.1681  0.2289
  573MOL0     H77344  10.825   3.341   5.610  0.1709 -0.3848 -0.0453
  573MOL0     H77345  11.001   3.259   5.972  1.2476  2.4954 -2.2617
  573MOL0     H77346  10.856   3.155   5.963  0.4157  0.9721  0.6866
  573MOL0     H77347  10.936   3.087   5.729 -0.8669 -1.1307  0.5905
  573MOL0     H77348  11.050   3.066   5.859 -2.2729 -0.8130  0.8908
  573MOL0     H77349  11.049   3.296   5.659  1.6516  0.1252 -0.7573
  573MOL0     H77350  11.166   3.164   5.663 -0.5269 -1.4718  0.1858
  573MOL0     H77351  11.222   3.226   5.893  1.1144 -1.7960 -3.4359
  573MOL0     H77352  11.146   3.386   5.864 -1.4421 -0.4935 -0.4778
  573MOL0     H77353  11.541   3.438   5.741  0.2282 -0.1513 -2.2488
  573MOL0     H77354  10.611   3.221   5.971 -0.3225  1.3554 -0.9271
  573MOL0     H77355  10.435   3.119   5.830 -0.1074  0.3563 -0.4243
  574MOL0     O77356   5.713   7.890   2.720  0.0473 -0.1268 -0.1903
  574MOL0     C77357   5.739   7.890   2.601  0.1424 -0.8022  0.2855
  574MOL0     O77358   5.736   7.998   2.520 -0.1477  0.5525 -0.4974
  574MOL0     C77359   5.741   8.119   2.585  0.4378 -0.4314 -0.5495
  574MOL0     C77360   5.847   8.205   2.559  0.0186 -0.0878 -0.0930
  574MOL0     C77361   5.857   8.330   2.618 -0.3493 -0.8402 -0.4128
  574MOL0     C77362   5.753   8.389   2.691  0.4821  0.7174 -0.3023
  574MOL0     O77363   5.781   8.509   2.754  0.0419 -0.7360  0.5036
  574MOL0     C77364   5.674   8.579   2.824 -0.8672 -0.0737  0.6231
  574MOL0     C77365   5.715   8.722   2.855 -0.8745 -0.4731  0.3991
  574MOL0     C77366   5.606   8.813   2.913  0.2774  0.5344  0.2107
  574MOL0     C77367   5.654   8.946   2.946 -0.6388 -0.2930  0.5595
  574MOL0     C77368   5.561   9.034   3.036  0.3951  0.0240  0.7521
  574MOL0     C77369   5.628   9.169   3.040 -0.1042  0.3315 -0.6459
  574MOL0     C77370   5.544   9.278   3.105  0.2588 -0.2704 -0.9930
  574MOL0     C77371   5.612   9.410   3.127 -0.0129  0.1363  0.2991
  574MOL0     N77372   5.718   9.383   3.227 -0.5844 -0.4427  0.2476
  574MOL0     C77373   5.705   9.343   3.360 -0.3672  0.6907  0.0028
  574MOL0     C77374   5.826   9.361   3.416  0.1499 -0.7217  0.5754
  574MOL0     C77375   5.861   9.339   3.557  0.2547  0.7858 -0.3452
  574MOL0     C77376   5.793   9.440   3.653  0.5462 -0.4568  0.1449
  574MOL0     C77377   5.642   9.396   3.687 -0.4999  0.1056  0.5269
  574MOL0     C77378   5.586   9.480   3.799 -0.3625  0.0301 -0.9553
  574MOL0     O77379   5.503   9.404   3.884  0.4074  0.8577  0.3696
  574MOL0     C77380   5.369   9.387   3.865  0.3491 -0.6275 -0.3818
  574MOL0     C77381   5.290   9.467   3.781  0.1011  0.2347  0.7218
  574MOL0     C77382   5.151   9.450   3.768  0.1527 -0.6511 -0.7200
  574MOL0     C77383   5.085   9.525   3.657 -0.2148  0.2071  0.1875
  574MOL0     C77384   5.080   9.365   3.854  0.8256  0.6914  1.0173
  574MOL0     C77385   4.933   9.339   3.863  0.4292  0.4497 -0.0930
  574MOL0     O77386   4.892   9.228   3.934  0.2936 -0.4334  0.0128
  574MOL0     C77387   4.763   9.185   3.922 -0.5913  1.5332  0.0956
  574MOL0     C77388   4.662   9.281   3.956  1.0071  0.7017  0.1245
  574MOL0     C77389   4.530   9.238   3.951 -0.1107  0.5412 -0.9818
  574MOL0     C77390   4.499   9.102   3.930  0.5585  0.5610  0.4842
  574MOL0     O77391   4.365   9.068   3.937 -0.4398 -0.3817  0.2530
  574MOL0     C77392   4.323   8.932   3.952  0.3800 -0.5853  0.5012
  574MOL0     C77393   4.181   8.930   3.997  0.2258  0.5421  0.8926
  574MOL0     C77394   4.079   9.004   3.900 -0.0495 -0.1396  0.2617
  574MOL0     C77395   3.938   8.993   3.955  0.4200  1.1993 -0.0393
  574MOL0     C77396   3.851   9.120   3.922  0.4030  0.6424  1.0061
  574MOL0     C77397   3.708   9.102   3.952 -0.5053 -0.4568 -0.7021
  574MOL0     C77398   3.672   9.142   4.101  0.0780 -0.5483  0.7645
  574MOL0     C77399   3.524   9.107   4.142 -0.1351  0.0656 -0.6163
  574MOL0    Cl77400   3.459   9.168   4.301 -0.2067  0.3643  0.1531
  574MOL0     C77401   4.600   9.003   3.915 -0.6495 -0.4739  0.5156
  574MOL0     C77402   4.736   9.045   3.907  0.0610  0.5633  0.1898
  574MOL0     O77403   4.857   9.421   3.815 -0.9277  0.3269  0.5024
  574MOL0     C77404   5.166   9.274   3.926  0.1878  0.6884  0.0110
  574MOL0     C77405   5.306   9.283   3.924  0.2020  0.1213  0.4115
  574MOL0     N77406   5.910   9.396   3.308 -0.1530  0.3046 -0.2768
  574MOL0     N77407   5.843   9.409   3.205 -0.3223 -0.3444  0.6866
  574MOL0     C77408   5.639   8.313   2.703 -0.0147  0.4867 -0.5989
  574MOL0     C77409   5.628   8.182   2.656  0.4614  0.0361 -0.1875
  574MOL0     C77410   5.753   7.762   2.528 -0.0549 -0.1311 -0.6839
  574MOL0     C77411   5.753   7.639   2.601  0.1783  0.6716  0.0490
  574MOL0     C77412   5.785   7.521   2.528  0.3893  0.6412 -0.0427
  574MOL0     C77413   5.805   7.521   2.385 -0.1701 -0.6189  0.0670
  574MOL0     O77414   5.817   7.409   2.311 -0.2508 -0.4577  0.0429
  574MOL0     C77415   5.872   7.289   2.356 -0.0801  0.8864 -0.4264
  574MOL0     C77416   5.758   7.182   2.357 -0.1574  0.8743  0.3874
  574MOL0     C77417   5.831   7.040   2.358 -0.3721  0.0448  0.3799
  574MOL0     C77418   5.735   6.932   2.350  0.6512  0.1763 -0.5634
  574MOL0     C77419   5.810   6.802   2.366  0.3040 -0.5099  1.1123
  574MOL0     C77420   5.867   6.700   2.343 -1.0740 -1.0439 -0.2757
  574MOL0     C77421   5.806   7.639   2.318 -0.9020  0.8663 -0.7177
  574MOL0     C77422   5.786   7.753   2.389  0.2816 -0.7033  0.0931
  574MOL0     H77423   5.924   8.162   2.497 -1.3816 -0.3401 -1.7096
  574MOL0     H77424   5.946   8.388   2.598  0.1344 -1.6908 -0.7831
  574MOL0     H77425   5.583   8.583   2.763 -1.0219  2.1648  0.9374
  574MOL0     H77426   5.642   8.526   2.915  1.1137  2.0814  2.7131
  574MOL0     H77427   5.795   8.726   2.929  0.6210 -0.8578 -1.1122
  574MOL0     H77428   5.753   8.771   2.764  1.5223  0.5344  1.8379
  574MOL0     H77429   5.533   8.820   2.832  1.0209  2.2278 -0.3595
  574MOL0     H77430   5.567   8.765   3.004 -2.8803  2.8868  0.2920
  574MOL0     H77431   5.750   8.932   2.996  0.3603 -1.8491 -1.6346
  574MOL0     H77432   5.664   8.998   2.851 -3.0334  0.4902  0.6626
  574MOL0     H77433   5.464   9.039   2.987  1.5264 -0.2258 -1.6790
  574MOL0     H77434   5.556   8.995   3.138 -1.1898 -2.1839 -0.0834
  574MOL0     H77435   5.724   9.153   3.090 -2.5680 -0.2828  4.5455
  574MOL0     H77436   5.648   9.213   2.941  1.2479 -0.9572 -0.9771
  574MOL0     H77437   5.452   9.297   3.050 -1.0321  0.8554  1.3647
  574MOL0     H77438   5.502   9.247   3.201  1.4257 -0.2148 -0.4466
  574MOL0     H77439   5.544   9.485   3.169  0.7773  0.7099  0.5885
  574MOL0     H77440   5.651   9.442   3.030  0.9585 -1.1720  0.2364
  574MOL0     H77441   5.615   9.309   3.410 -1.8038  1.4015 -1.9678
  574MOL0     H77442   5.838   9.234   3.581 -1.7915  0.2929 -3.7885
  574MOL0     H77443   5.968   9.361   3.556  0.7525 -1.2766  0.6039
  574MOL0     H77444   5.787   9.533   3.597 -1.3062  0.6097  2.0027
  574MOL0     H77445   5.842   9.452   3.751 -0.4695 -0.2676  0.6404
  574MOL0     H77446   5.633   9.289   3.703 -0.6534 -0.7244 -3.7906
  574MOL0     H77447   5.578   9.417   3.600 -0.4203  0.6902  0.6042
  574MOL0     H77448   5.542   9.573   3.762  0.8654  0.6216 -0.9767
  574MOL0     H77449   5.661   9.513   3.871  0.7382 -1.4718 -1.3511
  574MOL0     H77450   5.337   9.538   3.713  0.6915  0.6308  1.5298
  574MOL0     H77451   5.036   9.456   3.589  0.7005 -1.1332  0.8280
  574MOL0     H77452   5.005   9.590   3.693 -0.7041  2.1158 -3.8194
  574MOL0     H77453   5.154   9.581   3.594 -1.4303  0.3531 -1.0461
  574MOL0     H77454   4.686   9.385   3.977 -1.1877  1.4119 -0.6030
  574MOL0     H77455   4.453   9.311   3.975  0.2198  0.1117  1.7620
  574MOL0     H77456   4.326   8.883   3.854  1.6756  0.4145  0.0139
  574MOL0     H77457   4.379   8.873   4.026 -1.0192 -1.6264  0.7624
  574MOL0     H77458   4.146   8.826   4.001 -0.7010  0.7515 -0.8751
  574MOL0     H77459   4.184   8.963   4.101 -3.2328 -0.3385  1.4163
  574MOL0     H77460   4.084   8.971   3.796 -0.4061  3.1740 -0.9520
  574MOL0     H77461   4.105   9.110   3.905 -0.1907 -0.1349  1.1505
  574MOL0     H77462   3.890   8.901   3.919  3.1469 -0.1994 -0.3871
  574MOL0     H77463   3.932   8.977   4.063 -0.4421 -0.3783 -0.2830
  574MOL0     H77464   3.867   9.124   3.814 -1.2353  2.2904  0.7671
  574MOL0     H77465   3.879   9.215   3.969 -2.4696  1.5526  1.0851
  574MOL0     H77466   3.646   9.162   3.883  0.3255 -1.1798 -2.1240
  574MOL0     H77467   3.681   8.996   3.951 -2.5533 -0.0512  1.8293
  574MOL0     H77468   3.670   9.251   4.110 -3.2557 -0.4322  0.1999
  574MOL0     H77469   3.748   9.106   4.170 -0.9204 -1.9015  1.2015
  574MOL0     H77470   3.510   8.999   4.152  2.1278 -0.1309  1.3140
  574MOL0     H77471   3.462   9.145   4.061  1.3585  0.0621 -1.8047
  574MOL0     H77472   4.571   8.904   3.882 -0.2632  0.3037 -2.4680
  574MOL0     H77473   4.818   8.974   3.912 -0.3630 -0.0181 -0.8554
  574MOL0     H77474   5.116   9.189   3.972 -1.3264  0.7597 -1.4432
  574MOL0     H77475   5.353   9.209   3.987 -0.9586  0.2996  1.5213
  574MOL0     H77476   5.554   8.352   2.758  1.4728  1.2543  1.2669
  574MOL0     H77477   5.533   8.130   2.660  0.1328  0.6988  1.4327
  574MOL0     H77478   5.734   7.628   2.708 -1.2588 -2.2583 -0.4052
  574MOL0     H77479   5.777   7.429   2.584 -4.0839 -0.2012 -1.5871
  574MOL0     H77480   5.950   7.257   2.286  1.4899  2.8375  0.3371
  574MOL0     H77481   5.939   7.301   2.442  0.8477 -3.1620 -0.3559
  574MOL0     H77482   5.689   7.201   2.274 -0.4502  0.3738  0.5071
  574MOL0     H77483   5.696   7.195   2.446 -2.2208 -3.4059 -0.1528
  574MOL0     H77484   5.889   7.025   2.449  0.8221  0.4449 -0.2923
  574MOL0     H77485   5.911   7.043   2.282  0.1490  0.7639  0.9483
  574MOL0     H77486   5.683   6.941   2.254  0.0382  0.4370 -0.2145
  574MOL0     H77487   5.661   6.937   2.430  0.9035  0.6850 -0.3583
  574MOL0     H77488   5.922   6.616   2.306 -0.9879 -0.5361 -1.3561
  574MOL0     H77489   5.821   7.652   2.211  0.3233  0.6389 -0.5902
  574MOL0     H77490   5.784   7.842   2.327 -5.1002 -1.2009 -0.9548
  575MOL0     O77491   5.067   6.977   5.598  0.7268 -0.5926  0.4395
  575MOL0     C77492   5.024   7.061   5.676  0.0517 -0.8797 -0.5611
  575MOL0     O77493   4.901   7.138   5.664  0.1095 -0.1685 -1.0600
  575MOL0     C77494   4.852   7.142   5.537 -0.7336 -1.0031 -0.1392
  575MOL0     C77495   4.806   7.037   5.474  0.9122  0.3396 -0.1122
  575MOL0     C77496   4.759   7.038   5.341 -0.7461 -0.3949  0.0869
  575MOL0     C77497   4.761   7.159   5.275  1.0162 -0.4490  0.1744
  575MOL0     O77498   4.723   7.180   5.143 -0.0450 -0.4302 -0.3001
  575MOL0     C77499   4.669   7.072   5.065  0.2598 -0.5923  0.2120
  575MOL0     C77500   4.621   7.122   4.935  0.9475  0.0558 -0.7658
  575MOL0     C77501   4.473   7.177   4.952  0.0640 -0.5411  0.3619
  575MOL0     C77502   4.422   7.217   4.822  0.1223 -0.5378  0.0015
  575MOL0     C77503   4.275   7.279   4.835  0.8574  0.2179  0.3671
  575MOL0     C77504   4.181   7.156   4.822 -0.7241  0.1023  0.3012
  575MOL0     C77505   4.040   7.200   4.852 -0.5171  0.1222 -0.2261
  575MOL0     C77506   3.939   7.102   4.803  0.2468 -0.0635  0.0590
  575MOL0     N77507   3.938   6.981   4.891 -0.1721 -1.0831 -0.6767
  575MOL0     C77508   3.923   6.988   5.023  0.2526  0.6082 -0.0208
  575MOL0     C77509   3.938   6.860   5.071 -0.3117 -0.3575  0.3705
  575MOL0     C77510   3.952   6.801   5.211 -0.0708 -0.0866 -0.5022
  575MOL0     C77511   3.857   6.676   5.226 -0.4745  0.8894 -0.3645
  575MOL0     C77512   3.870   6.597   5.355  0.0086  0.4765  0.5791
  575MOL0     C77513   3.849   6.447   5.349 -1.0313 -0.0088  0.2751
  575MOL0     O77514   3.819   6.389   5.480  0.0999  0.4813  0.0387
  575MOL0     C77515   3.701   6.401   5.547  0.5860  0.2647 -0.5928
  575MOL0     C77516   3.698   6.319   5.662  0.9737  1.2140 -0.3573
  575MOL0     C77517   3.587   6.315   5.745 -0.6753 -1.1657  0.3410
  575MOL0     C77518   3.600   6.232   5.867  0.7653  0.2599  0.2958
  575MOL0     C77519   3.467   6.375   5.694 -0.6465 -0.2719 -0.8959
  575MOL0     C77520   3.329   6.367   5.756  0.6344 -0.0114 -0.3442
  575MOL0     O77521   3.301   6.270   5.846  0.4758  0.3579  0.7072
  575MOL0     C77522   3.199   6.285   5.938 -1.2779 -0.3675  0.0110
  575MOL0     C77523   3.242   6.240   6.068  0.5158  0.5801 -0.5039
  575MOL0     C77524   3.147   6.233   6.172  0.8229  0.0793  0.0079
  575MOL0     C77525   3.011   6.268   6.144  0.3452  0.1825 -0.6084
  575MOL0     O77526   2.917   6.257   6.241  0.7442  0.7161  0.1208
  575MOL0     C77527   2.829   6.368   6.251 -0.1001  0.3833 -0.1173
  575MOL0     C77528   2.690   6.325   6.222  0.4411 -0.1554 -0.3961
  575MOL0     C77529   2.580   6.430   6.250 -0.5789  0.3155  0.5747
  575MOL0     C77530   2.443   6.374   6.291  0.0305  0.7582  0.1697
  575MOL0     C77531   2.371   6.482   6.378 -0.9923  0.8722 -0.3237
  575MOL0     C77532   2.245   6.427   6.448 -0.0384  0.7501 -0.5243
  575MOL0     C77533   2.119   6.412   6.366  1.0101 -0.1498  0.3371
  575MOL0     C77534   1.991   6.380   6.449  0.7948 -0.5156 -0.2606
  575MOL0    Cl77535   1.855   6.374   6.350  0.3752 -0.0455  0.4492
  575MOL0     C77536   2.984   6.314   6.018  0.3382 -0.4540 -0.3572
  575MOL0     C77537   3.074   6.337   5.916 -0.0025  0.0001  0.0576
  575MOL0     O77538   3.247   6.448   5.721  0.6951 -0.0535  0.3260
  575MOL0     C77539   3.468   6.463   5.584 -0.7074 -0.5077  0.4276
  575MOL0     C77540   3.583   6.475   5.508 -0.2415  0.5832  0.6296
  575MOL0     N77541   3.956   6.786   4.953  0.2031  0.5254  0.3176
  575MOL0     N77542   3.952   6.857   4.851  0.9711  1.0094 -0.3914
  575MOL0     C77543   4.788   7.278   5.342 -0.0812 -0.1569 -1.4094
  575MOL0     C77544   4.836   7.271   5.473 -0.0788  0.3808  0.4821
  575MOL0     C77545   5.131   7.102   5.776  0.4374 -0.6211 -0.5054
  575MOL0     C77546   5.268   7.059   5.772  0.1807  0.0685 -0.3104
  575MOL0     C77547   5.352   7.121   5.861 -0.1626  0.3594  0.0738
  575MOL0     C77548   5.319   7.213   5.954  0.5381 -0.1422 -0.5391
  575MOL0     O77549   5.417   7.273   6.030  0.1739  0.7128 -0.3988
  575MOL0     C77550   5.386   7.365   6.131  0.0599 -0.0834  0.6487
  575MOL0     C77551   5.355   7.509   6.084 -0.5396 -0.1695 -0.7269
  575MOL0     C77552   5.286   7.599   6.190 -0.8789 -0.0854 -1.0665
  575MOL0     C77553   5.336   7.588   6.337  0.1261  0.8422 -0.2034
  575MOL0     C77554   5.483   7.613   6.344  0.9462  0.8132 -0.3339
  575MOL0     C77555   5.592   7.650   6.345 -0.2936 -1.2165  0.1982
  575MOL0     C77556   5.186   7.256   5.960  0.8308 -0.0170 -0.2638
  575MOL0     C77557   5.099   7.203   5.872  1.1626  0.0952 -0.3162
  575MOL0     H77558   4.804   6.942   5.526 -0.1692 -1.2521 -2.8040
  575MOL0     H77559   4.721   6.952   5.287  0.0801 -0.1623 -0.9083
  575MOL0     H77560   4.746   6.995   5.048  0.8982  0.1782 -0.5004
  575MOL0     H77561   4.590   7.016   5.116  2.9195 -2.5113  2.5746
  575MOL0     H77562   4.694   7.190   4.890  0.1163  0.1143 -2.0858
  575MOL0     H77563   4.617   7.046   4.857 -2.5237 -0.6753 -0.0307
  575MOL0     H77564   4.410   7.104   5.003 -0.3606  2.2583  4.3654
  575MOL0     H77565   4.448   7.260   5.019 -2.5817 -1.6621  0.8886
  575MOL0     H77566   4.488   7.296   4.785 -0.5244 -0.1617 -0.3731
  575MOL0     H77567   4.433   7.133   4.752 -2.3581  1.2666 -2.7883
  575MOL0     H77568   4.255   7.333   4.929 -1.8183 -1.4879  0.8855
  575MOL0     H77569   4.260   7.347   4.751 -0.2694  2.4494  2.2384
  575MOL0     H77570   4.201   7.103   4.728  1.2219 -1.2859  1.4469
  575MOL0     H77571   4.202   7.080   4.897  4.3604 -0.0904 -0.9569
  575MOL0     H77572   4.040   7.213   4.960 -0.5945  0.1419 -0.2286
  575MOL0     H77573   4.020   7.296   4.802  0.6412  1.0083  0.9398
  575MOL0     H77574   3.956   7.074   4.699 -0.9824 -1.7203  0.2731
  575MOL0     H77575   3.843   7.153   4.791 -0.3326 -1.0940  0.1977
  575MOL0     H77576   3.926   7.074   5.089  0.2273 -0.6596  1.7055
  575MOL0     H77577   4.058   6.775   5.225  0.5084  0.8571 -2.7636
  575MOL0     H77578   3.913   6.875   5.281 -2.2620 -0.1642 -1.5503
  575MOL0     H77579   3.876   6.599   5.151 -1.8022  0.3840 -0.2115
  575MOL0     H77580   3.756   6.712   5.207 -0.4704  0.4044 -1.3894
  575MOL0     H77581   3.801   6.649   5.423 -2.2601 -1.9518  0.2844
  575MOL0     H77582   3.966   6.614   5.405  0.1091  1.4596  0.0776
  575MOL0     H77583   3.937   6.406   5.300 -1.9282 -1.5242 -0.1392
  575MOL0     H77584   3.764   6.417   5.287  0.0981 -0.9903 -0.8271
  575MOL0     H77585   3.787   6.263   5.687 -0.8622 -2.2582 -1.0063
  575MOL0     H77586   3.537   6.279   5.942  0.3931 -1.3468  1.0267
  575MOL0     H77587   3.577   6.125   5.860 -1.3857  0.5646  1.9332
  575MOL0     H77588   3.705   6.238   5.897  2.2611 -0.1103 -4.1565
  575MOL0     H77589   3.343   6.204   6.083  0.0412  0.1239  1.9437
  575MOL0     H77590   3.174   6.208   6.274  1.9772  1.5239  0.0869
  575MOL0     H77591   2.836   6.399   6.356 -1.3785 -1.9125  0.7215
  575MOL0     H77592   2.871   6.445   6.186  1.4175 -0.1125  0.2170
  575MOL0     H77593   2.684   6.290   6.118 -2.1497 -0.9781 -0.0351
  575MOL0     H77594   2.659   6.245   6.289  0.4624  1.4634  1.6593
  575MOL0     H77595   2.590   6.491   6.160  2.3832 -1.5347 -0.5057
  575MOL0     H77596   2.602   6.489   6.339 -1.8609  1.6016  0.0881
  575MOL0     H77597   2.384   6.350   6.202 -0.7089 -2.5951  1.4070
  575MOL0     H77598   2.460   6.280   6.343 -2.7598  0.0024 -0.0944
  575MOL0     H77599   2.336   6.572   6.325 -0.4724  1.2955  0.0541
  575MOL0     H77600   2.448   6.512   6.449  0.1208  2.0742 -1.9438
  575MOL0     H77601   2.272   6.330   6.490  1.3833  1.4897  0.3051
  575MOL0     H77602   2.219   6.497   6.528  1.1818 -0.1389  0.6952
  575MOL0     H77603   2.131   6.334   6.290  0.3926 -2.1659  2.1819
  575MOL0     H77604   2.094   6.511   6.328 -2.6136 -1.0887 -0.1131
  575MOL0     H77605   1.982   6.462   6.520 -0.1158  2.9896 -4.0576
  575MOL0     H77606   2.003   6.282   6.497  1.6737 -1.2158 -1.8033
  575MOL0     H77607   2.879   6.322   5.995  0.4805 -1.4157 -1.4649
  575MOL0     H77608   3.028   6.360   5.821 -1.6983 -0.5547  0.7058
  575MOL0     H77609   3.379   6.516   5.549  0.5699  0.3748 -1.6914
  575MOL0     H77610   3.576   6.542   5.423  1.1676  0.9708  0.8080
  575MOL0     H77611   4.777   7.372   5.289  0.1207  0.1387 -0.9406
  575MOL0     H77612   4.862   7.363   5.525  3.4508  0.2444 -0.7547
  575MOL0     H77613   5.299   6.972   5.715  1.5156 -0.4624  1.1534
  575MOL0     H77614   5.455   7.088   5.870 -0.4279 -0.2096  1.2103
  575MOL0     H77615   5.309   7.327   6.200 -1.0134  0.4348 -0.2268
  575MOL0     H77616   5.476   7.375   6.192 -1.1417  0.0076  2.4872
  575MOL0     H77617   5.295   7.500   5.993 -0.3701 -3.7611 -0.6176
  575MOL0     H77618   5.452   7.551   6.055  0.4678 -1.8178  0.1049
  575MOL0     H77619   5.180   7.572   6.186 -0.3512 -2.6561 -0.1159
  575MOL0     H77620   5.281   7.700   6.148  2.0099  0.1496 -1.0621
  575MOL0     H77621   5.326   7.481   6.359 -1.4741  0.9801 -0.1130
  575MOL0     H77622   5.272   7.645   6.406 -0.1128  0.6464 -0.2606
  575MOL0     H77623   5.696   7.676   6.354 -0.2851 -0.6702 -1.1998
  575MOL0     H77624   5.147   7.315   6.043 -2.5804 -2.1507 -0.1642
  575MOL0     H77625   5.000   7.247   5.871  0.9348 -0.3696 -1.8791
  576MOL0     O77626   2.971   4.408   3.893  0.0420  0.3454 -0.7063
  576MOL0     C77627   3.022   4.373   4.000  0.0235 -0.5946 -0.3551
  576MOL0     O77628   2.981   4.268   4.078  0.2414 -0.1074  0.5845
  576MOL0     C77629   2.866   4.203   4.060 -0.6945 -0.5190  0.8921
  576MOL0     C77630   2.869   4.069   4.082  0.5950 -0.1280  0.0023
  576MOL0     C77631   2.752   3.996   4.076  0.7535  0.2799  0.3655
  576MOL0     C77632   2.633   4.045   4.030  0.6472 -0.4862  0.0755
  576MOL0     O77633   2.513   3.981   4.028 -0.1804  0.2107 -0.5312
  576MOL0     C77634   2.509   3.834   4.027  0.5786  0.2769  0.8847
  576MOL0     C77635   2.374   3.782   4.003  0.4252 -0.0770  1.2269
  576MOL0     C77636   2.381   3.630   3.988  1.3107 -0.3250 -0.7017
  576MOL0     C77637   2.273   3.568   4.087  0.7341  0.1998 -1.1040
  576MOL0     C77638   2.229   3.424   4.053  0.2486 -0.2961 -0.2264
  576MOL0     C77639   2.112   3.377   4.129  0.8794 -0.1540 -0.2370
  576MOL0     C77640   2.121   3.229   4.141  0.0049  0.4517  0.0286
  576MOL0     C77641   2.003   3.170   4.216  1.0296  0.1810 -0.9525
  576MOL0     N77642   2.015   3.028   4.237  0.6507  0.9026 -0.0863
  576MOL0     C77643   2.127   2.949   4.225  0.0109 -0.4463 -0.4036
  576MOL0     C77644   2.098   2.836   4.298  1.0227  0.5582  0.5518
  576MOL0     C77645   2.194   2.719   4.321  0.1596 -0.3351  0.0777
  576MOL0     C77646   2.195   2.667   4.468  0.6507 -0.4547  0.7591
  576MOL0     C77647   2.279   2.541   4.488  0.4420 -0.6962  0.1250
  576MOL0     C77648   2.254   2.470   4.625  0.0374  0.6430 -0.0973
  576MOL0     O77649   2.320   2.548   4.722  0.0793 -1.1224 -0.4920
  576MOL0     C77650   2.264   2.562   4.840 -0.5031  0.3667  0.3659
  576MOL0     C77651   2.250   2.448   4.920  0.2475 -0.8380  0.6745
  576MOL0     C77652   2.185   2.457   5.046 -0.7620  0.3470  1.0049
  576MOL0     C77653   2.208   2.334   5.134  0.3945 -1.0118 -0.7993
  576MOL0     C77654   2.112   2.570   5.088 -0.5785  0.0766 -0.6234
  576MOL0     C77655   2.011   2.578   5.199  0.4278  0.4126  0.2611
  576MOL0     O77656   1.954   2.701   5.223  0.4958 -0.5081 -0.4236
  576MOL0     C77657   1.883   2.716   5.336  0.1907 -0.1068  0.8164
  576MOL0     C77658   1.775   2.802   5.323 -0.4365 -0.2339  0.4497
  576MOL0     C77659   1.676   2.821   5.426 -1.4960 -0.3657 -0.1606
  576MOL0     C77660   1.695   2.762   5.554  0.5365 -0.1111  0.9337
  576MOL0     O77661   1.605   2.785   5.653 -0.0267 -0.1199  0.0520
  576MOL0     C77662   1.516   2.666   5.672  0.4960  0.4048  1.0255
  576MOL0     C77663   1.478   2.668   5.818  0.0419 -0.6616  0.3527
  576MOL0     C77664   1.339   2.600   5.828  0.0474  1.6893  0.3677
  576MOL0     C77665   1.290   2.613   5.973 -0.4450 -1.0045 -0.1090
  576MOL0     C77666   1.154   2.557   5.985 -0.2788 -0.0959 -0.4206
  576MOL0     C77667   1.048   2.667   5.950 -1.1710  0.2175 -0.2477
  576MOL0     C77668   0.904   2.647   5.986 -0.1615 -0.1593  0.0513
  576MOL0     C77669   0.885   2.682   6.132  0.5566 -0.0605 -0.3199
  576MOL0    Cl77670   0.714   2.670   6.164  0.2345  0.0508 -0.7813
  576MOL0     C77671   1.805   2.679   5.570  0.3291  0.1695  0.4088
  576MOL0     C77672   1.894   2.656   5.468 -1.1973  0.1298  0.1259
  576MOL0     O77673   1.972   2.475   5.244  0.0801 -0.1099 -0.6581
  576MOL0     C77674   2.125   2.680   5.001 -1.0873 -0.2294  0.2046
  576MOL0     C77675   2.207   2.681   4.888 -0.2361  0.2113  0.4179
  576MOL0     N77676   1.969   2.840   4.344  0.5580  0.3823  0.4453
  576MOL0     N77677   1.922   2.953   4.311  0.1452 -0.5534  0.8516
  576MOL0     C77678   2.630   4.181   3.996 -0.3389  0.7610 -0.1792
  576MOL0     C77679   2.747   4.257   4.005 -0.2217  0.1057 -0.3461
  576MOL0     C77680   3.113   4.479   4.068  0.1462  0.5802  0.2885
  576MOL0     C77681   3.143   4.479   4.210  0.7737  0.5584  0.7614
  576MOL0     C77682   3.230   4.572   4.267  0.3273 -0.8134 -0.6071
  576MOL0     C77683   3.296   4.666   4.182 -1.1469 -0.5528 -0.5583
  576MOL0     O77684   3.389   4.752   4.225 -0.4696 -0.2681  0.3197
  576MOL0     C77685   3.439   4.746   4.357  0.1807  0.3680 -0.2177
  576MOL0     C77686   3.573   4.663   4.364 -0.5347 -0.5392  0.3837
  576MOL0     C77687   3.693   4.751   4.403 -0.4546  0.3420  0.8467
  576MOL0     C77688   3.821   4.682   4.371 -0.4460 -0.2643 -0.0632
  576MOL0     C77689   3.835   4.569   4.461  0.5491  0.8128 -0.2801
  576MOL0     C77690   3.872   4.479   4.536  0.1620 -0.2373 -0.2216
  576MOL0     C77691   3.268   4.657   4.046 -0.5979 -0.4544 -0.0261
  576MOL0     C77692   3.175   4.576   3.993 -0.1190 -0.3017  1.1325
  576MOL0     H77693   2.962   4.034   4.125  0.9182  3.1003  2.3017
  576MOL0     H77694   2.731   3.906   4.133 -0.3659 -0.9245 -1.7959
  576MOL0     H77695   2.573   3.800   3.945 -0.9176  2.0835 -1.1324
  576MOL0     H77696   2.534   3.794   4.126 -3.9254 -1.1024  1.6530
  576MOL0     H77697   2.303   3.819   4.078 -0.0453  2.9656 -0.5489
  576MOL0     H77698   2.337   3.829   3.911  2.7435  2.5297  1.4768
  576MOL0     H77699   2.361   3.595   3.887 -1.6292 -0.5483 -0.1339
  576MOL0     H77700   2.480   3.593   4.014  1.3845  0.3534  0.0259
  576MOL0     H77701   2.316   3.571   4.188  3.0422  1.0626 -2.0467
  576MOL0     H77702   2.179   3.624   4.089  0.2927 -0.5352  0.5229
  576MOL0     H77703   2.202   3.425   3.947 -1.0314 -0.2563  0.0804
  576MOL0     H77704   2.307   3.350   4.073  0.5431 -0.2534 -1.1436
  576MOL0     H77705   2.111   3.415   4.232  1.2086 -1.3927  0.2543
  576MOL0     H77706   2.023   3.423   4.085 -0.1043 -0.3196  1.4905
  576MOL0     H77707   2.131   3.181   4.044  2.2147 -1.2013  0.9819
  576MOL0     H77708   2.210   3.205   4.200  0.0199  1.4345  0.4133
  576MOL0     H77709   1.912   3.181   4.156  2.9117  0.4381 -3.9656
  576MOL0     H77710   1.997   3.225   4.311  1.4499 -0.4446 -0.5555
  576MOL0     H77711   2.226   2.967   4.186  0.2531 -0.2427  0.2847
  576MOL0     H77712   2.155   2.639   4.257  0.9731 -1.4347  0.9204
  576MOL0     H77713   2.295   2.751   4.294  0.9656 -0.5861  2.5548
  576MOL0     H77714   2.096   2.637   4.502  1.0694 -2.8764  0.0625
  576MOL0     H77715   2.233   2.755   4.521 -1.7849  0.1246  1.6628
  576MOL0     H77716   2.379   2.582   4.471 -1.0931  2.6591 -1.8424
  576MOL0     H77717   2.252   2.468   4.412 -2.0112  0.5432 -0.2782
  576MOL0     H77718   2.310   2.377   4.613  0.0537  0.7112 -0.5608
  576MOL0     H77719   2.150   2.443   4.646  0.1968  0.0700 -0.0212
  576MOL0     H77720   2.293   2.356   4.882  3.9387  1.4295 -1.2882
  576MOL0     H77721   2.255   2.379   5.222  0.3114 -0.9754 -0.7741
  576MOL0     H77722   2.115   2.287   5.166 -1.6300  1.9712 -1.9148
  576MOL0     H77723   2.279   2.261   5.094  2.4896  0.0202  0.7931
  576MOL0     H77724   1.768   2.859   5.231 -0.1041  0.1477  0.6577
  576MOL0     H77725   1.599   2.895   5.409 -1.0759  0.1424  0.1222
  576MOL0     H77726   1.427   2.676   5.608  0.7638 -2.2349  0.1405
  576MOL0     H77727   1.559   2.572   5.639  0.1053  0.1288  1.2944
  576MOL0     H77728   1.554   2.606   5.868  1.3061 -0.2639 -1.0196
  576MOL0     H77729   1.484   2.770   5.858  0.6192  0.8585 -3.2121
  576MOL0     H77730   1.347   2.497   5.794  0.0672  2.6382 -2.8718
  576MOL0     H77731   1.268   2.655   5.765 -1.3583  1.4786  1.6980
  576MOL0     H77732   1.353   2.550   6.036  1.1815  0.7137  0.0509
  576MOL0     H77733   1.304   2.715   6.009  1.0251 -1.6638  1.3621
  576MOL0     H77734   1.136   2.523   6.087 -0.6004  2.0918  0.3163
  576MOL0     H77735   1.145   2.468   5.922  1.0000  0.6478 -1.7343
  576MOL0     H77736   1.085   2.756   6.002  2.6764 -0.2475 -1.8623
  576MOL0     H77737   1.051   2.698   5.845 -2.4274  3.2660  0.5193
  576MOL0     H77738   0.873   2.542   5.978  0.0453 -0.3686  1.6523
  576MOL0     H77739   0.853   2.711   5.913 -0.7684  0.1426  0.7185
  576MOL0     H77740   0.917   2.782   6.161 -1.0902  0.6668 -0.9042
  576MOL0     H77741   0.944   2.610   6.190  0.7820 -0.9850 -1.6479
  576MOL0     H77742   1.823   2.645   5.672  1.9046  0.4426  0.2478
  576MOL0     H77743   1.986   2.599   5.480 -1.1795  0.4707  1.9751
  576MOL0     H77744   2.071   2.769   5.031  0.2519  1.5250 -2.1607
  576MOL0     H77745   2.215   2.775   4.834 -1.8454  0.1362 -0.0301
  576MOL0     H77746   2.546   4.229   3.947  0.2349  3.2139  1.0363
  576MOL0     H77747   2.741   4.363   3.984  0.5061  0.4217  0.9341
  576MOL0     H77748   3.090   4.406   4.271  1.6431 -0.5742  0.1972
  576MOL0     H77749   3.244   4.567   4.375  1.8019  2.1559 -0.5538
  576MOL0     H77750   3.457   4.851   4.380  0.6545  0.4125 -0.7709
  576MOL0     H77751   3.377   4.696   4.433  0.2553  0.3134 -0.1921
  576MOL0     H77752   3.578   4.614   4.266  0.2285 -0.1359  0.2174
  576MOL0     H77753   3.558   4.585   4.439 -2.4142 -0.9335 -0.3486
  576MOL0     H77754   3.687   4.797   4.502  3.4417 -3.8173  3.3951
  576MOL0     H77755   3.693   4.842   4.341 -0.3368  0.7784  1.4770
  576MOL0     H77756   3.918   4.732   4.379  0.5284 -1.7461 -1.7740
  576MOL0     H77757   3.825   4.658   4.264 -0.8322 -0.8350  0.0423
  576MOL0     H77758   3.880   4.398   4.606 -0.1119  0.5748  0.7829
  576MOL0     H77759   3.317   4.727   3.979  0.2772 -1.7090 -0.7289
  576MOL0     H77760   3.145   4.580   3.889 -4.3503  0.8671  2.2114
  577MOL0     O77761  10.863   6.668   3.052  0.0198  1.1118 -0.4249
  577MOL0     C77762  10.946   6.603   2.991 -0.4730 -0.5275 -0.5268
  577MOL0     O77763  10.924   6.500   2.907 -0.5574 -0.0928  0.6244
  577MOL0     C77764  10.786   6.469   2.884  0.0728 -1.0897  0.3396
  577MOL0     C77765  10.677   6.562   2.868 -0.3792  0.1949 -0.0531
  577MOL0     C77766  10.547   6.504   2.837 -0.5335  0.2423  0.2239
  577MOL0     C77767  10.520   6.364   2.847  0.3403 -0.5139  1.3580
  577MOL0     O77768  10.389   6.317   2.844 -0.1245 -0.2251  0.3574
  577MOL0     C77769  10.321   6.270   2.725 -1.1081 -0.3909  0.1731
  577MOL0     C77770  10.186   6.212   2.763 -0.1528  0.6032  0.0782
  577MOL0     C77771  10.105   6.174   2.637  0.0643 -1.1111 -0.1949
  577MOL0     C77772  10.003   6.063   2.675  0.2611 -0.8460  0.7043
  577MOL0     C77773   9.892   6.109   2.767  0.1536  0.1359  0.5082
  577MOL0     C77774   9.808   5.995   2.830 -0.2044  0.1974  0.1113
  577MOL0     C77775   9.727   5.904   2.729 -0.1596  0.3386 -0.3663
  577MOL0     C77776   9.636   5.958   2.620 -0.2123 -0.8657 -0.7315
  577MOL0     N77777   9.547   5.851   2.570 -0.3229 -0.2729  0.5482
  577MOL0     C77778   9.426   5.809   2.612 -0.5132 -0.3912 -0.2661
  577MOL0     C77779   9.393   5.708   2.524 -0.3641 -0.2807  0.4165
  577MOL0     C77780   9.265   5.626   2.513  0.5960 -0.0124  0.4238
  577MOL0     C77781   9.179   5.672   2.395  0.5705  0.1850 -1.2577
  577MOL0     C77782   9.186   5.583   2.268 -0.5999  1.3045  0.2449
  577MOL0     C77783   9.116   5.449   2.274  0.7388 -0.0953  0.2802
  577MOL0     O77784   8.969   5.457   2.284  0.5928 -0.8331  0.6637
  577MOL0     C77785   8.901   5.471   2.403  0.6027  0.1526  0.0086
  577MOL0     C77786   8.955   5.445   2.527  0.1216  0.6083 -0.9256
  577MOL0     C77787   8.884   5.464   2.645  0.9284  0.7795 -0.3833
  577MOL0     C77788   8.954   5.456   2.774  0.0038 -0.2090 -0.0648
  577MOL0     C77789   8.742   5.482   2.641  0.1484  0.4270 -0.6733
  577MOL0     C77790   8.646   5.502   2.760  0.1576  0.9777  0.9309
  577MOL0     O77791   8.688   5.450   2.868 -0.0421 -0.9503 -0.2066
  577MOL0     C77792   8.614   5.457   2.983  0.2691 -0.5280 -0.6644
  577MOL0     C77793   8.476   5.425   2.993 -0.1561  0.5867 -0.1970
  577MOL0     C77794   8.405   5.456   3.108 -0.1578 -0.1098  0.3838
  577MOL0     C77795   8.471   5.507   3.226  0.8523  0.4510 -0.2441
  577MOL0     O77796   8.390   5.523   3.334  0.0721 -0.0327  0.5962
  577MOL0     C77797   8.405   5.411   3.427 -0.0298  0.6020  1.3431
  577MOL0     C77798   8.276   5.395   3.509  0.2831  0.1607 -0.2134
  577MOL0     C77799   8.160   5.368   3.413  0.1892 -1.0351  0.0661
  577MOL0     C77800   8.167   5.243   3.336 -0.2081  0.0144 -0.0193
  577MOL0     C77801   8.039   5.216   3.259  0.0470 -0.0622  0.5680
  577MOL0     C77802   8.060   5.119   3.148  0.4091 -0.3036 -0.1504
  577MOL0     C77803   8.112   5.191   3.022 -0.3869  0.1431  0.2205
  577MOL0     C77804   8.082   5.107   2.894  0.5109  0.3261  0.4618
  577MOL0    Cl77805   8.150   5.184   2.746 -0.3307 -0.0294  0.2955
  577MOL0     C77806   8.608   5.542   3.221  0.4835 -0.2676 -0.4009
  577MOL0     C77807   8.677   5.523   3.097 -0.1715  1.1582 -0.1573
  577MOL0     O77808   8.529   5.548   2.741  0.5663  0.4127 -0.5166
  577MOL0     C77809   8.687   5.501   2.515 -0.1821  0.3045  0.7292
  577MOL0     C77810   8.762   5.500   2.402  0.5329  0.9158  0.3190
  577MOL0     N77811   9.488   5.707   2.421 -0.1792 -0.3701 -0.0312
  577MOL0     N77812   9.570   5.803   2.444  0.3874 -0.4374 -0.2247
  577MOL0     C77813  10.635   6.282   2.844  0.1411 -0.2069 -0.1533
  577MOL0     C77814  10.760   6.338   2.865 -0.5111 -0.3122 -0.0447
  577MOL0     C77815  11.083   6.649   2.983 -1.4355  0.1530 -1.6913
  577MOL0     C77816  11.186   6.587   2.911 -0.3813  0.7976 -0.0405
  577MOL0     C77817  11.327   6.614   2.922  0.3115  0.0163 -0.2751
  577MOL0     C77818  11.365   6.730   2.984  0.1502 -0.0827 -0.1574
  577MOL0     O77819  11.492   6.782   3.000  0.8837  0.0305  0.8805
  577MOL0     C77820  11.594   6.727   2.922  0.2029  0.0537  0.5543
  577MOL0     C77821  11.575   6.771   2.774  0.4449 -0.1761 -0.6309
  577MOL0     C77822  11.692   6.730   2.691 -0.5428  0.1687  0.2665
  577MOL0     C77823  11.695   6.798   2.555  0.0331 -0.9489 -0.2358
  577MOL0     C77824  11.770   6.929   2.553  0.3422  0.3365 -0.8494
  577MOL0     C77825  11.827   7.038   2.567  0.9437 -0.0959 -0.3735
  577MOL0     C77826  11.259   6.800   3.054 -0.1423  0.2772 -0.2608
  577MOL0     C77827  11.123   6.759   3.058  0.3667 -0.9084 -0.5730
  577MOL0     H77828  10.687   6.670   2.870  2.8410 -0.0189  0.2093
  577MOL0     H77829  10.463   6.571   2.828  1.1557  2.7857  1.8164
  577MOL0     H77830  10.303   6.356   2.659 -0.2561 -3.2429 -4.1897
  577MOL0     H77831  10.380   6.189   2.682 -3.3135 -1.4879 -0.9871
  577MOL0     H77832  10.207   6.125   2.827  3.1078  2.0682  1.2323
  577MOL0     H77833  10.139   6.281   2.834 -0.7923 -0.8503  1.1362
  577MOL0     H77834  10.064   6.267   2.595  0.7665 -1.0337 -0.7324
  577MOL0     H77835  10.157   6.118   2.559 -2.8386 -3.8254 -0.3297
  577MOL0     H77836   9.960   6.028   2.580  4.1145 -0.6200 -1.3367
  577MOL0     H77837  10.057   5.981   2.722 -2.6863 -3.8717 -0.7412
  577MOL0     H77838   9.938   6.167   2.848  2.7564 -0.0365 -0.7432
  577MOL0     H77839   9.830   6.189   2.725 -0.2235  0.3896  1.5140
  577MOL0     H77840   9.884   5.937   2.883  0.1407 -0.8260 -1.4360
  577MOL0     H77841   9.741   6.046   2.900 -0.3920  1.6690 -1.0946
  577MOL0     H77842   9.808   5.854   2.674  1.0237 -0.7125  2.1365
  577MOL0     H77843   9.678   5.834   2.797  1.7662  0.0716  0.8323
  577MOL0     H77844   9.697   5.994   2.537 -0.8409 -0.6678 -1.1158
  577MOL0     H77845   9.578   6.037   2.669  0.8827 -0.6214  0.2096
  577MOL0     H77846   9.377   5.844   2.701 -3.6278 -1.0230 -1.6093
  577MOL0     H77847   9.288   5.519   2.521  2.4369  0.2317 -0.9709
  577MOL0     H77848   9.209   5.655   2.602 -1.9172 -0.1489 -1.0356
  577MOL0     H77849   9.219   5.767   2.359  0.6928 -0.4694 -2.9538
  577MOL0     H77850   9.077   5.691   2.429 -0.0502  1.2182 -3.4589
  577MOL0     H77851   9.290   5.572   2.235 -0.2575  1.3520  1.2706
  577MOL0     H77852   9.143   5.651   2.194  0.3335  0.5247 -1.0651
  577MOL0     H77853   9.154   5.386   2.355 -0.6207  0.6631  1.5719
  577MOL0     H77854   9.135   5.395   2.181  2.2141  0.4311  0.2488
  577MOL0     H77855   9.059   5.422   2.545 -0.0032  1.6981  1.5657
  577MOL0     H77856   9.063   5.470   2.773  0.3722 -2.6571 -0.6964
  577MOL0     H77857   8.912   5.527   2.845 -1.0854 -0.8235 -0.0744
  577MOL0     H77858   8.932   5.355   2.809 -0.0305 -0.8096 -1.7000
  577MOL0     H77859   8.431   5.374   2.909  3.1219 -0.6421 -1.3679
  577MOL0     H77860   8.308   5.408   3.122 -0.3478 -0.3244 -1.4291
  577MOL0     H77861   8.426   5.320   3.370  1.1817  1.0508  1.0307
  577MOL0     H77862   8.493   5.432   3.488  2.8679 -0.0796 -2.1949
  577MOL0     H77863   8.291   5.325   3.591 -0.7282  1.2607  0.9461
  577MOL0     H77864   8.260   5.490   3.561 -1.3763  0.9355 -2.0150
  577MOL0     H77865   8.147   5.453   3.345  0.9896  0.5055  1.7673
  577MOL0     H77866   8.072   5.367   3.478 -1.0389 -3.1875 -1.4893
  577MOL0     H77867   8.260   5.235   3.279  0.6440 -1.5840  1.4831
  577MOL0     H77868   8.168   5.161   3.409  0.6482  0.3927  0.4033
  577MOL0     H77869   8.008   5.312   3.216 -1.1736 -0.0586  1.4215
  577MOL0     H77870   7.957   5.173   3.316 -0.5618 -2.3242 -1.8422
  577MOL0     H77871   8.110   5.025   3.171  1.5007  0.4428  0.6526
  577MOL0     H77872   7.957   5.090   3.125 -0.6616  2.0809  1.2434
  577MOL0     H77873   8.218   5.185   3.051 -0.6637 -0.8198  1.0858
  577MOL0     H77874   8.085   5.297   3.010  1.5255  0.6548 -0.0182
  577MOL0     H77875   7.973   5.096   2.886  0.4001 -2.5179  3.6936
  577MOL0     H77876   8.130   5.009   2.894 -2.4789 -1.2520  0.3501
  577MOL0     H77877   8.655   5.564   3.317 -1.2580  0.0528  0.4169
  577MOL0     H77878   8.780   5.559   3.092 -0.6761  3.3624  2.7724
  577MOL0     H77879   8.578   5.505   2.507 -0.2370 -0.6136  0.8652
  577MOL0     H77880   8.709   5.512   2.308  1.8982 -1.2234 -0.7937
  577MOL0     H77881  10.612   6.176   2.845 -1.5856  0.1435  0.3947
  577MOL0     H77882  10.844   6.270   2.868  0.1873  0.5761  1.3446
  577MOL0     H77883  11.167   6.500   2.849  1.4072 -0.2981  0.8527
  577MOL0     H77884  11.401   6.544   2.884  0.8668 -1.6717  3.4688
  577MOL0     H77885  11.680   6.782   2.962 -0.6734  1.3904  0.6920
  577MOL0     H77886  11.605   6.621   2.942 -0.5353 -0.0911  0.2149
  577MOL0     H77887  11.564   6.879   2.765 -0.5100 -0.2186 -0.1317
  577MOL0     H77888  11.477   6.739   2.736  0.6102 -1.8249  0.2207
  577MOL0     H77889  11.674   6.622   2.681 -1.8512  0.5040 -1.2984
  577MOL0     H77890  11.792   6.733   2.737 -0.9351 -3.1533  1.6548
  577MOL0     H77891  11.596   6.808   2.510  1.2705  0.6628 -2.8343
  577MOL0     H77892  11.741   6.725   2.488  1.5875 -1.4533  1.2973
  577MOL0     H77893  11.889   7.125   2.570  0.5977  0.1396  2.6910
  577MOL0     H77894  11.290   6.877   3.124 -0.1835 -1.2376  1.4921
  577MOL0     H77895  11.051   6.815   3.117  1.1391  1.6266 -1.8806
  578MOL0     O77896   0.939  10.809   5.195 -0.4998  0.3838  0.1735
  578MOL0     C77897   0.933  10.842   5.314 -0.4940 -0.0316  0.0314
  578MOL0     O77898   0.813  10.865   5.385  0.4186  0.0162  0.4918
  578MOL0     C77899   0.706  10.898   5.305  1.2460  0.9988  0.0686
  578MOL0     C77900   0.581  10.826   5.306 -0.2552 -0.1733 -0.5460
  578MOL0     C77901   0.472  10.866   5.226 -0.2324 -0.9949 -0.9245
  578MOL0     C77902   0.483  10.973   5.132  0.5416  0.0166 -0.2008
  578MOL0     O77903   0.380  10.998   5.048  0.1118  0.1191  0.4643
  578MOL0     C77904   0.381  10.922   4.924  0.0265 -0.1120 -0.9206
  578MOL0     C77905   0.242  10.923   4.857 -0.2665 -0.5115  0.7630
  578MOL0     C77906   0.116  10.881   4.937 -0.2799 -0.0154 -0.8401
  578MOL0     C77907   0.020  11.001   4.969  1.0117  0.0769 -0.1512
  578MOL0     C77908  -0.113  10.963   5.024  0.4718 -0.2147  0.0773
  578MOL0     C77909  -0.119  10.940   5.181 -0.3775 -0.2819 -0.0968
  578MOL0     C77910  -0.248  10.872   5.230 -0.6774  0.1326  0.1807
  578MOL0     C77911  -0.215  10.722   5.236 -0.4040  0.2890  0.4345
  578MOL0     N77912  -0.343  10.651   5.260 -0.7408  0.5375 -0.1720
  578MOL0     C77913  -0.439  10.686   5.346 -0.3184 -0.4335  0.2841
  578MOL0     C77914  -0.535  10.595   5.339 -0.4089  0.0150  0.5230
  578MOL0     C77915  -0.679  10.598   5.399  0.7983  0.1168 -0.1222
  578MOL0     C77916  -0.725  10.465   5.464 -0.0234  0.8507 -0.4019
  578MOL0     C77917  -0.862  10.485   5.543 -0.5723  0.3189  0.9063
  578MOL0     C77918  -0.918  10.361   5.611 -0.0295 -0.7365  0.1341
  578MOL0     O77919  -0.894  10.232   5.544  0.3349 -0.2708 -0.0264
  578MOL0     C77920  -0.980  10.189   5.446  0.9241 -0.3521 -0.5162
  578MOL0     C77921  -1.071  10.279   5.385  0.0454  0.4883  0.0073
  578MOL0     C77922  -1.165  10.242   5.288 -0.0914 -0.5516  0.0835
  578MOL0     C77923  -1.260  10.349   5.225  1.2328 -0.3092  0.0314
  578MOL0     C77924  -1.177  10.104   5.258 -0.3434  0.9209  0.4794
  578MOL0     C77925  -1.280  10.045   5.165  0.3260  0.5325  0.2735
  578MOL0     O77926  -1.331   9.919   5.201  0.0071 -0.2528  0.5389
  578MOL0     C77927  -1.416   9.853   5.117 -0.0645 -0.4653 -0.2264
  578MOL0     C77928  -1.384   9.741   5.046  0.8894 -0.0047  0.2104
  578MOL0     C77929  -1.489   9.680   4.973  0.2014 -0.0368 -0.6624
  578MOL0     C77930  -1.622   9.725   4.990  0.5942  0.9876  0.0742
  578MOL0     O77931  -1.727   9.663   4.919 -0.2960  0.9898 -0.2047
  578MOL0     C77932  -1.807   9.734   4.837  0.2498  0.3526 -0.0752
  578MOL0     C77933  -1.929   9.640   4.798 -0.8604 -0.4039 -0.7798
  578MOL0     C77934  -1.985   9.667   4.663  0.0826 -0.2027 -1.2997
  578MOL0     C77935  -1.909   9.596   4.552  0.0287  0.2609  0.0220
  578MOL0     C77936  -1.992   9.601   4.410  0.0409  0.6280  0.0498
  578MOL0     C77937  -1.971   9.745   4.352 -0.3921 -0.2087  0.3636
  578MOL0     C77938  -2.048   9.759   4.222  0.4957  0.1497  0.6149
  578MOL0     C77939  -2.056   9.901   4.189  0.4545  0.1700 -0.5693
  578MOL0    Cl77940  -2.106   9.932   4.020  0.1889  0.4363  0.3957
  578MOL0     C77941  -1.654   9.835   5.074  0.6092  0.2779  0.1219
  578MOL0     C77942  -1.545   9.908   5.127 -0.1349 -0.1037  0.0876
  578MOL0     O77943  -1.296  10.099   5.059 -0.1010 -0.5187  0.4392
  578MOL0     C77944  -1.099  10.011   5.333 -0.0520  0.5666 -0.3813
  578MOL0     C77945  -0.994  10.056   5.420 -0.4371  0.1886  1.7668
  578MOL0     N77946  -0.492  10.495   5.252 -0.7107  0.2492  0.4717
  578MOL0     N77947  -0.367  10.523   5.222  1.2433  0.1585 -0.1756
  578MOL0     C77948   0.603  11.034   5.129 -0.0130 -0.0236  0.1301
  578MOL0     C77949   0.705  10.999   5.216 -0.4759 -0.5896 -0.3410
  578MOL0     C77950   1.052  10.831   5.388 -0.4629 -0.3893 -0.5537
  578MOL0     C77951   1.038  10.756   5.504  0.8344  1.0747  1.4272
  578MOL0     C77952   1.152  10.742   5.581  0.6455 -0.3012 -0.2334
  578MOL0     C77953   1.281  10.793   5.552 -0.6689  0.0345 -0.2318
  578MOL0     O77954   1.385  10.765   5.642  0.8140 -0.0056 -0.5536
  578MOL0     C77955   1.522  10.786   5.598  0.4015 -0.5229  0.8571
  578MOL0     C77956   1.600  10.751   5.724 -0.1173  0.0453  0.2207
  578MOL0     C77957   1.748  10.771   5.708  0.3981  0.1432 -0.4524
  578MOL0     C77958   1.823  10.723   5.825 -0.5636 -0.6354 -0.4174
  578MOL0     C77959   1.792  10.805   5.942 -1.2248  0.8899  0.2620
  578MOL0     C77960   1.768  10.863   6.045 -0.4329  0.7344 -0.1840
  578MOL0     C77961   1.298  10.862   5.428  0.0204  0.5630  0.0982
  578MOL0     C77962   1.183  10.885   5.352  0.2518 -0.5720 -0.3372
  578MOL0     H77963   0.565  10.738   5.368 -2.4067  0.4595 -0.1152
  578MOL0     H77964   0.389  10.797   5.218  0.4409 -2.1820  1.4688
  578MOL0     H77965   0.446  10.969   4.850 -1.2862 -0.7341 -2.5455
  578MOL0     H77966   0.413  10.821   4.948  0.2620  0.1340 -0.1707
  578MOL0     H77967   0.234  11.015   4.798  2.3894 -2.0350 -2.2898
  578MOL0     H77968   0.252  10.850   4.776  1.1342 -0.1519  0.5870
  578MOL0     H77969   0.053  10.816   4.877 -2.5398  2.1218 -0.9551
  578MOL0     H77970   0.147  10.823   5.024  3.1165  0.4572 -1.5826
  578MOL0     H77971   0.073  11.084   5.016  0.9374  0.2596 -0.3826
  578MOL0     H77972  -0.004  11.054   4.876 -0.1533  0.0258  0.1097
  578MOL0     H77973  -0.179  11.043   4.990  0.4218 -0.9891 -1.7439
  578MOL0     H77974  -0.151  10.879   4.966 -1.7505  0.3959  0.5674
  578MOL0     H77975  -0.038  10.881   5.225  0.3091  1.6914  1.4166
  578MOL0     H77976  -0.115  11.041   5.224 -0.6269 -1.0178  1.7502
  578MOL0     H77977  -0.273  10.922   5.324  2.1400  1.1711  0.4953
  578MOL0     H77978  -0.329  10.881   5.157  0.8160  0.4135 -1.5134
  578MOL0     H77979  -0.143  10.715   5.317  1.5193  3.7209 -0.7720
  578MOL0     H77980  -0.167  10.685   5.145 -0.1412  0.8562  0.3363
  578MOL0     H77981  -0.451  10.776   5.406 -4.0214 -1.4929  1.3741
  578MOL0     H77982  -0.679  10.669   5.482  0.7359  0.4705 -0.4268
  578MOL0     H77983  -0.749  10.634   5.323  0.9423  3.5680  1.2291
  578MOL0     H77984  -0.664  10.430   5.548 -1.0070 -1.3985 -0.5560
  578MOL0     H77985  -0.741  10.388   5.389 -0.3416  1.0115 -0.5030
  578MOL0     H77986  -0.925  10.520   5.461  2.2116 -0.1459 -1.6204
  578MOL0     H77987  -0.843  10.567   5.612 -1.6950 -0.1710  1.8319
  578MOL0     H77988  -1.026  10.378   5.617  0.4058  1.9236  2.7285
  578MOL0     H77989  -0.889  10.357   5.716  0.1783 -0.2013  0.1016
  578MOL0     H77990  -1.081  10.383   5.415 -2.0123 -0.1795  1.9339
  578MOL0     H77991  -1.363  10.312   5.215  0.5473  1.1084  1.3843
  578MOL0     H77992  -1.263  10.436   5.291 -0.5692  0.9903 -1.6398
  578MOL0     H77993  -1.238  10.381   5.123  0.8356  0.1071  0.0730
  578MOL0     H77994  -1.288   9.689   5.049  0.2030 -1.2774  1.1829
  578MOL0     H77995  -1.477   9.586   4.920  0.3749 -1.0680  1.1479
  578MOL0     H77996  -1.841   9.827   4.884 -0.3627 -0.0558  0.3027
  578MOL0     H77997  -1.746   9.749   4.748 -0.2385 -1.6601 -0.8053
  578MOL0     H77998  -1.896   9.536   4.795  0.2561 -0.0538 -1.1144
  578MOL0     H77999  -2.010   9.643   4.872 -2.1531 -2.3497 -2.0429
  578MOL0     H78000  -2.001   9.775   4.650 -1.6844 -0.1227  0.8759
  578MOL0     H78001  -2.083   9.619   4.666  1.0780 -2.2543  0.4547
  578MOL0     H78002  -1.812   9.644   4.536 -0.4840  0.8959 -1.2973
  578MOL0     H78003  -1.891   9.492   4.583  1.2599  1.2985  3.1833
  578MOL0     H78004  -2.098   9.576   4.422 -0.9899  3.7199 -1.4323
  578MOL0     H78005  -1.943   9.531   4.341  1.6646  0.1395  1.6213
  578MOL0     H78006  -2.003   9.815   4.430  4.3262  0.4304  2.0494
  578MOL0     H78007  -1.866   9.749   4.323 -0.6156  0.8493 -0.3521
  578MOL0     H78008  -2.148   9.715   4.227 -1.2662  3.7965  0.8817
  578MOL0     H78009  -1.997   9.709   4.141  2.3739 -0.6603  2.2246
  578MOL0     H78010  -1.955   9.939   4.204  0.0130  0.4390  2.1966
  578MOL0     H78011  -2.135   9.938   4.256 -0.5409 -1.4738 -0.7850
  578MOL0     H78012  -1.757   9.868   5.076  0.6559  0.4289  0.0308
  578MOL0     H78013  -1.559  10.003   5.176 -0.3862 -0.8326  1.4711
  578MOL0     H78014  -1.110   9.905   5.314  0.6448  0.0881  1.6833
  578MOL0     H78015  -0.936   9.980   5.471  2.9475 -0.5775 -2.6211
  578MOL0     H78016   0.615  11.124   5.069  2.4216  0.1322  0.7549
  578MOL0     H78017   0.796  11.056   5.199 -1.7765  1.5983 -0.3215
  578MOL0     H78018   0.943  10.709   5.529  1.3050 -0.5961  0.2609
  578MOL0     H78019   1.147  10.692   5.677  1.3598  0.4126  0.1813
  578MOL0     H78020   1.538  10.716   5.516 -2.5383  0.8010 -0.9914
  578MOL0     H78021   1.536  10.887   5.558 -1.5097 -0.5705 -0.0075
  578MOL0     H78022   1.585  10.644   5.743  0.0588 -0.0184  0.0132
  578MOL0     H78023   1.558  10.800   5.812  0.2395  1.4226 -0.3636
  578MOL0     H78024   1.766  10.879   5.712  3.6261 -0.2682 -0.6598
  578MOL0     H78025   1.783  10.734   5.611 -0.0713 -0.6792 -0.3134
  578MOL0     H78026   1.930  10.723   5.804 -0.4267 -1.4097  0.2548
  578MOL0     H78027   1.792  10.620   5.839 -0.9646 -0.7164 -1.7216
  578MOL0     H78028   1.750  10.910   6.139  1.4217  0.3336  0.3998
  578MOL0     H78029   1.388  10.912   5.392  0.5080 -2.1778 -3.0823
  578MOL0     H78030   1.191  10.940   5.259 -0.0494 -1.3525 -0.8350
  579MOL0     O78031   6.579   0.093   3.146  0.2944  0.5918  0.8502
  579MOL0     C78032   6.654   0.179   3.189  0.3837 -0.5090 -0.6320
  579MOL0     O78033   6.633   0.316   3.203 -0.0872 -0.3498 -0.7928
  579MOL0     C78034   6.516   0.380   3.156 -0.5383  0.6321 -0.3559
  579MOL0     C78035   6.495   0.505   3.211  0.1698  0.5019 -0.4842
  579MOL0     C78036   6.387   0.591   3.179 -0.3972 -0.0956 -0.2022
  579MOL0     C78037   6.295   0.547   3.078  1.0526  0.2695 -0.2904
  579MOL0     O78038   6.176   0.614   3.052  0.1697  0.0545  0.2853
  579MOL0     C78039   6.146   0.751   3.112  0.6375  0.5727  1.0571
  579MOL0     C78040   6.015   0.804   3.049 -0.7481  0.0936  0.3803
  579MOL0     C78041   5.903   0.697   3.066 -0.0109 -1.1055  0.3284
  579MOL0     C78042   5.767   0.773   3.098  0.7298 -0.2180  0.1552
  579MOL0     C78043   5.662   0.671   3.158 -0.6384  0.0501  0.4975
  579MOL0     C78044   5.698   0.604   3.297 -0.5535  0.3208 -0.0489
  579MOL0     C78045   5.578   0.513   3.339 -0.1865 -0.8513  0.5453
  579MOL0     C78046   5.470   0.597   3.399  1.0380 -1.0955 -0.4247
  579MOL0     N78047   5.370   0.515   3.470  0.2437 -0.2903 -0.7571
  579MOL0     C78048   5.280   0.565   3.554 -0.2505 -0.6032 -0.3928
  579MOL0     C78049   5.187   0.472   3.565 -0.0812  0.1772 -0.0014
  579MOL0     C78050   5.077   0.477   3.673  0.1003 -0.0320  0.7819
  579MOL0     C78051   4.967   0.581   3.632 -0.2548  0.0472 -0.4765
  579MOL0     C78052   4.833   0.558   3.707 -0.4564  0.5154 -0.8787
  579MOL0     C78053   4.852   0.558   3.856 -0.0733  0.1508 -1.3581
  579MOL0     O78054   4.717   0.519   3.900  0.4591  0.9293  0.6753
  579MOL0     C78055   4.633   0.606   3.967  0.8787  0.4641 -0.1194
  579MOL0     C78056   4.534   0.546   4.052  0.9054  0.2758  0.5747
  579MOL0     C78057   4.430   0.627   4.105 -0.7239  0.0764 -0.4284
  579MOL0     C78058   4.340   0.558   4.199  0.8480 -0.4385  1.0212
  579MOL0     C78059   4.430   0.767   4.072  1.0792 -0.0049  0.3094
  579MOL0     C78060   4.319   0.860   4.116  0.1635  0.3532 -0.6105
  579MOL0     O78061   4.342   0.993   4.106 -0.2399 -0.9135  0.6470
  579MOL0     C78062   4.257   1.087   4.163 -0.5828  0.0573  0.2333
  579MOL0     C78063   4.194   1.063   4.281  0.1735 -0.1051 -0.1561
  579MOL0     C78064   4.113   1.163   4.343 -0.0357 -0.3654 -0.2799
  579MOL0     C78065   4.090   1.288   4.271 -0.2680  0.8556 -0.4406
  579MOL0     O78066   4.014   1.391   4.320  0.3659  0.4879  0.4004
  579MOL0     C78067   4.006   1.404   4.458  0.0802 -0.5817 -0.4148
  579MOL0     C78068   3.946   1.538   4.508  0.6095 -0.7257  0.5591
  579MOL0     C78069   3.997   1.665   4.438  0.8992 -1.0465  0.5670
  579MOL0     C78070   3.891   1.722   4.346 -0.0457 -0.3346  0.0255
  579MOL0     C78071   3.933   1.863   4.310 -1.1370  0.0952 -0.6307
  579MOL0     C78072   3.931   1.960   4.427  0.6857  0.0605 -1.4674
  579MOL0     C78073   3.885   2.102   4.383  0.0711 -0.5708 -1.1322
  579MOL0     C78074   3.913   2.215   4.491 -0.0467 -0.1675 -0.3027
  579MOL0    Cl78075   3.790   2.205   4.621  0.4181  0.6558  0.1846
  579MOL0     C78076   4.154   1.305   4.151 -0.6047 -0.1534 -0.0040
  579MOL0     C78077   4.227   1.207   4.093 -0.5422  0.5049 -0.6396
  579MOL0     O78078   4.206   0.816   4.143 -0.7781  0.0529  0.6925
  579MOL0     C78079   4.534   0.822   3.996  0.4968  0.0285 -0.6169
  579MOL0     C78080   4.645   0.746   3.951  0.2426  0.4828 -0.6212
  579MOL0     N78081   5.211   0.364   3.478 -0.2103  0.5597 -0.3171
  579MOL0     N78082   5.327   0.393   3.423 -0.1396 -0.4251 -0.8247
  579MOL0     C78083   6.315   0.424   3.015 -0.8131 -0.3104  0.6687
  579MOL0     C78084   6.429   0.342   3.057  0.2013 -0.6773  0.2311
  579MOL0     C78085   6.783   0.130   3.248 -0.6808  0.6160 -0.7143
  579MOL0     C78086   6.870   0.206   3.328  0.0646  0.0849  0.1689
  579MOL0     C78087   6.997   0.168   3.376  0.5502  0.4273  1.2897
  579MOL0     C78088   7.038   0.036   3.359  0.4527  1.2267  0.6153
  579MOL0     O78089   7.164  -0.008   3.404  0.2775 -0.0664  0.0471
  579MOL0     C78090   7.216  -0.132   3.374 -0.2617 -0.0825 -0.0013
  579MOL0     C78091   7.267  -0.152   3.229  0.1193 -0.1971 -1.0554
  579MOL0     C78092   7.383  -0.068   3.200  0.2477  0.1400  0.4145
  579MOL0     C78093   7.413  -0.075   3.051 -0.0005  0.1378  1.0600
  579MOL0     C78094   7.538  -0.001   3.036 -0.0242 -0.4282  0.2907
  579MOL0     C78095   7.649   0.051   3.030  0.4249  0.5623 -0.2907
  579MOL0     C78096   6.950  -0.045   3.283 -0.3685  0.9057  0.0151
  579MOL0     C78097   6.832  -0.004   3.234 -0.3511 -0.2506  0.2713
  579MOL0     H78098   6.570   0.546   3.278  2.0569 -1.8828 -1.0161
  579MOL0     H78099   6.383   0.686   3.232 -1.3170  3.0289 -5.2109
  579MOL0     H78100   6.128   0.752   3.220  1.5657  0.3455  1.2188
  579MOL0     H78101   6.227   0.813   3.074 -2.7042  1.4431 -6.4115
  579MOL0     H78102   5.979   0.897   3.093  0.0181  2.6844 -3.8659
  579MOL0     H78103   6.049   0.837   2.950  2.0341  0.0180  1.2270
  579MOL0     H78104   5.887   0.635   2.977 -1.9222 -1.6423  0.9909
  579MOL0     H78105   5.930   0.630   3.149  1.3150 -2.1594 -0.8933
  579MOL0     H78106   5.789   0.844   3.177  0.8410 -2.5093  2.3099
  579MOL0     H78107   5.737   0.828   3.008  1.6173  3.0963  1.7289
  579MOL0     H78108   5.569   0.728   3.163  1.3035  3.5121  0.4890
  579MOL0     H78109   5.667   0.590   3.084  4.8632  1.8082 -1.6082
  579MOL0     H78110   5.787   0.540   3.288 -0.1767  0.9122 -0.5857
  579MOL0     H78111   5.727   0.678   3.372  0.4669  0.4205 -0.5172
  579MOL0     H78112   5.539   0.449   3.259 -2.9765  0.8186  0.4344
  579MOL0     H78113   5.610   0.450   3.423 -0.1351  0.7072  1.7382
  579MOL0     H78114   5.420   0.653   3.319  0.8567 -0.1342  0.3390
  579MOL0     H78115   5.510   0.678   3.460 -1.0947 -0.1900 -0.1281
  579MOL0     H78116   5.282   0.662   3.602  0.5550  0.2249 -2.0498
  579MOL0     H78117   5.022   0.383   3.675 -2.2685  1.2950  2.4366
  579MOL0     H78118   5.119   0.505   3.770  3.9534  2.9127 -1.4499
  579MOL0     H78119   4.941   0.566   3.527  1.0535 -2.6992 -0.4951
  579MOL0     H78120   5.004   0.684   3.640  0.8784  0.0577 -4.1657
  579MOL0     H78121   4.795   0.459   3.681 -0.6638  0.1651  0.6320
  579MOL0     H78122   4.765   0.639   3.681 -1.4796  1.0133  2.7696
  579MOL0     H78123   4.885   0.655   3.893 -1.8272  0.7511 -1.2651
  579MOL0     H78124   4.913   0.478   3.899 -0.0349  1.8728  2.1312
  579MOL0     H78125   4.542   0.439   4.072 -0.5324 -0.0046 -0.2391
  579MOL0     H78126   4.243   0.551   4.149  2.1884 -1.1465 -1.6838
  579MOL0     H78127   4.363   0.453   4.223 -2.2824 -1.6106 -0.5647
  579MOL0     H78128   4.327   0.623   4.286  1.9569  1.8658 -0.4474
  579MOL0     H78129   4.201   0.965   4.329  0.7290 -0.6731 -1.3667
  579MOL0     H78130   4.063   1.141   4.437 -2.1351 -0.5335 -1.3764
  579MOL0     H78131   3.953   1.322   4.508 -0.0205 -0.4427 -0.2944
  579MOL0     H78132   4.107   1.388   4.495  0.2823 -0.5954 -0.9600
  579MOL0     H78133   3.837   1.532   4.501  0.7591 -1.5554 -1.6913
  579MOL0     H78134   3.952   1.534   4.618 -3.7152 -2.9288  0.9279
  579MOL0     H78135   4.092   1.647   4.386  1.3796  0.3972  0.9034
  579MOL0     H78136   4.018   1.737   4.517  4.5361 -1.4054  0.0655
  579MOL0     H78137   3.864   1.666   4.256 -1.5049  3.0730 -1.8703
  579MOL0     H78138   3.800   1.722   4.406 -0.4865 -1.1466 -0.6237
  579MOL0     H78139   3.856   1.900   4.241 -1.4711 -0.2170 -0.4258
  579MOL0     H78140   4.032   1.876   4.266 -0.9073  0.0340 -0.1240
  579MOL0     H78141   3.861   1.923   4.502 -0.9300  2.8410 -1.4664
  579MOL0     H78142   4.026   1.976   4.480  1.4033 -1.8165 -2.0816
  579MOL0     H78143   3.778   2.100   4.361  0.2321 -1.8000 -1.9047
  579MOL0     H78144   3.940   2.124   4.291  0.7385 -1.6158 -1.0032
  579MOL0     H78145   3.898   2.312   4.444 -0.8874 -0.4113 -0.5508
  579MOL0     H78146   4.018   2.204   4.519  0.2079  0.9661 -0.7872
  579MOL0     H78147   4.120   1.395   4.101  0.7127 -0.7250 -2.0509
  579MOL0     H78148   4.274   1.234   3.999  2.4474  0.3201  0.6796
  579MOL0     H78149   4.546   0.929   3.991  2.1087  0.1824  3.0886
  579MOL0     H78150   4.731   0.795   3.906  0.4285  2.1699  1.4059
  579MOL0     H78151   6.243   0.382   2.946 -0.5527 -3.2213  2.0167
  579MOL0     H78152   6.439   0.245   3.010 -0.4632 -1.1930  1.1177
  579MOL0     H78153   6.839   0.308   3.351 -0.6600 -0.1847  0.4405
  579MOL0     H78154   7.065   0.245   3.412  2.4064  1.0708 -2.9236
  579MOL0     H78155   7.299  -0.149   3.444 -0.0372  2.6435  0.5231
  579MOL0     H78156   7.144  -0.207   3.410  0.3056  0.6429  2.9730
  579MOL0     H78157   7.185  -0.153   3.157 -0.5807 -1.2810 -0.2904
  579MOL0     H78158   7.295  -0.257   3.227 -2.4931 -0.9988 -0.4715
  579MOL0     H78159   7.467  -0.115   3.251  2.5541  1.8789 -1.5229
  579MOL0     H78160   7.377   0.034   3.241  0.2594 -0.5000  2.0898
  579MOL0     H78161   7.327  -0.032   2.999  0.2017  1.4342  1.7532
  579MOL0     H78162   7.418  -0.181   3.026 -1.0904  0.5140 -1.0555
  579MOL0     H78163   7.749   0.085   3.044  1.1260 -1.5807  0.2580
  579MOL0     H78164   6.986  -0.142   3.247 -0.0398  0.2454  1.9807
  579MOL0     H78165   6.782  -0.060   3.156  0.4024 -1.4926  0.6610
  580MOL0     O78166  10.247  11.029   6.674 -0.3008  0.0801 -0.7435
  580MOL0     C78167  10.351  11.088   6.651  0.5489  0.3515  0.2323
  580MOL0     O78168  10.363  11.193   6.558 -1.0509  0.9890 -0.2975
  580MOL0     C78169  10.263  11.266   6.504 -0.0758 -0.5912 -0.1000
  580MOL0     C78170  10.125  11.269   6.553 -0.1512 -0.3544  0.0029
  580MOL0     C78171  10.036  11.355   6.481 -0.1997 -0.1304 -1.2292
  580MOL0     C78172  10.084  11.434   6.375  0.6169  0.1991 -0.2142
  580MOL0     O78173  10.001  11.525   6.305  0.1251 -0.5779  0.9003
  580MOL0     C78174   9.856  11.520   6.320 -0.0071 -0.5341  0.2342
  580MOL0     C78175   9.790  11.441   6.201 -0.1955 -0.0201 -0.1770
  580MOL0     C78176   9.639  11.449   6.202 -0.3129  0.8076  0.8762
  580MOL0     C78177   9.582  11.407   6.338  0.7243  0.3060  0.2072
  580MOL0     C78178   9.431  11.416   6.333  0.2222 -0.5065 -0.4905
  580MOL0     C78179   9.373  11.425   6.473 -0.0595 -0.5924 -0.2798
  580MOL0     C78180   9.218  11.443   6.476 -0.2855  0.2013  0.3023
  580MOL0     C78181   9.170  11.532   6.596  0.1800  0.4220 -0.2916
  580MOL0     N78182   9.126  11.438   6.698  0.0338 -0.7373 -0.0775
  580MOL0     C78183   9.202  11.375   6.792  0.4310  0.1898 -0.7741
  580MOL0     C78184   9.111  11.322   6.874 -0.0091 -0.1993 -0.0132
  580MOL0     C78185   9.119  11.233   6.991 -0.7034 -0.1608 -0.8159
  580MOL0     C78186   9.002  11.138   7.012 -0.1545 -0.5523  0.1350
  580MOL0     C78187   9.040  11.039   7.116 -0.0263  0.7782  0.8360
  580MOL0     C78188   8.927  10.945   7.145  0.1375  0.1338 -0.1256
  580MOL0     O78189   8.875  10.896   7.028  0.2235 -0.7447 -0.4230
  580MOL0     C78190   8.747  10.841   7.047  0.2415 -0.8557  0.5457
  580MOL0     C78191   8.658  10.869   6.940 -0.0191  0.2508 -0.8721
  580MOL0     C78192   8.525  10.835   6.956  1.1168  0.2343  0.4999
  580MOL0     C78193   8.429  10.886   6.845  0.0556  0.1334 -0.3289
  580MOL0     C78194   8.477  10.756   7.070 -0.6091  0.9925  0.9591
  580MOL0     C78195   8.337  10.709   7.095 -0.5979 -0.5547  0.2503
  580MOL0     O78196   8.308  10.610   7.183 -0.0117 -0.9530 -0.0113
  580MOL0     C78197   8.173  10.585   7.208  0.6436 -0.0808  0.2084
  580MOL0     C78198   8.116  10.471   7.162  0.5590  0.3141  0.2690
  580MOL0     C78199   7.981  10.443   7.187 -0.9181 -1.0508  0.0502
  580MOL0     C78200   7.903  10.526   7.272  0.4843 -0.0980  0.7128
  580MOL0     O78201   7.764  10.519   7.281  0.1522  0.4288 -0.0595
  580MOL0     C78202   7.691  10.397   7.272 -1.0795  1.0286 -0.4691
  580MOL0     C78203   7.568  10.411   7.352 -0.5709 -0.2734 -0.6038
  580MOL0     C78204   7.605  10.436   7.498  0.1360 -0.2324 -0.9433
  580MOL0     C78205   7.459  10.462   7.563  0.9052 -0.4269 -0.2504
  580MOL0     C78206   7.456  10.466   7.717 -0.4895 -0.6244  0.0611
  580MOL0     C78207   7.314  10.487   7.780 -0.5232 -0.1505  0.5568
  580MOL0     C78208   7.331  10.520   7.931  0.8148  0.3914  0.0717
  580MOL0     C78209   7.374  10.666   7.955  0.8418  0.6721  0.2508
  580MOL0    Cl78210   7.334  10.699   8.128  0.2758  0.0070  0.5846
  580MOL0     C78211   7.969  10.636   7.330  0.4819 -0.1429  0.3448
  580MOL0     C78212   8.098  10.668   7.295  0.1113  0.8663 -1.0228
  580MOL0     O78213   8.257  10.770   7.032  0.6673 -0.1652  0.5416
  580MOL0     C78214   8.583  10.714   7.164 -0.0709  0.1756  0.2407
  580MOL0     C78215   8.713  10.764   7.159  0.2557 -0.1019  0.2194
  580MOL0     N78216   8.987  11.364   6.838 -0.8614 -0.5134  0.4705
  580MOL0     N78217   8.999  11.419   6.722 -0.2952 -0.2911 -0.0283
  580MOL0     C78218  10.214  11.438   6.340  0.2162 -0.0023 -0.7167
  580MOL0     C78219  10.297  11.360   6.400 -0.9060  0.7846 -1.0076
  580MOL0     C78220  10.473  11.032   6.708 -0.3134 -0.8138 -0.3810
  580MOL0     C78221  10.594  11.064   6.646 -1.5346 -0.3325 -0.3437
  580MOL0     C78222  10.708  11.008   6.696 -0.1093  0.6033  1.3153
  580MOL0     C78223  10.707  10.926   6.811 -0.6497 -0.5384 -0.3979
  580MOL0     O78224  10.826  10.863   6.846 -0.6564  0.0510 -0.2860
  580MOL0     C78225  10.836  10.766   6.953 -0.1503  0.1431  0.7337
  580MOL0     C78226  10.849  10.826   7.097  0.1434  0.2720  0.2834
  580MOL0     C78227  10.849  10.716   7.196  0.9910  0.5886 -0.2263
  580MOL0     C78228  10.986  10.678   7.253 -0.2152  1.1715  0.6019
  580MOL0     C78229  11.040  10.781   7.342  0.2869  0.2519 -1.1852
  580MOL0     C78230  11.117  10.849   7.408  0.5984 -0.5502 -0.8048
  580MOL0     C78231  10.589  10.907   6.875 -0.6677 -0.2905  0.1793
  580MOL0     C78232  10.470  10.958   6.822 -0.1311  0.2861  0.5444
  580MOL0     H78233  10.088  11.223   6.644  1.7488  2.1777  2.2559
  580MOL0     H78234   9.934  11.350   6.517 -0.7268 -1.2115 -2.7405
  580MOL0     H78235   9.829  11.485   6.420  1.5168 -1.9060  0.2159
  580MOL0     H78236   9.823  11.624   6.314  2.5096  0.3410  0.7463
  580MOL0     H78237   9.842  11.480   6.113 -1.5188  2.0515 -0.0826
  580MOL0     H78238   9.820  11.336   6.211 -0.9913 -0.1149  1.8300
  580MOL0     H78239   9.596  11.543   6.165  1.1232  1.2125  0.1840
  580MOL0     H78240   9.609  11.369   6.134 -0.6667  1.2772  0.4670
  580MOL0     H78241   9.599  11.301   6.357  2.4097  0.3113 -1.0407
  580MOL0     H78242   9.621  11.476   6.414 -1.9381 -0.2551  2.2374
  580MOL0     H78243   9.401  11.510   6.286 -0.8351  0.8939  2.7117
  580MOL0     H78244   9.371  11.330   6.303 -1.0332 -0.8555  2.6119
  580MOL0     H78245   9.409  11.344   6.536 -1.6920 -1.6039 -0.5790
  580MOL0     H78246   9.411  11.515   6.521 -3.2832  2.5226 -2.9479
  580MOL0     H78247   9.186  11.495   6.386  1.4031 -0.9048 -1.0247
  580MOL0     H78248   9.172  11.345   6.489 -0.5244  0.2534 -0.1528
  580MOL0     H78249   9.083  11.589   6.564  1.2670  2.0592 -0.4288
  580MOL0     H78250   9.253  11.594   6.630  0.5166  0.7732 -1.6763
  580MOL0     H78251   9.310  11.366   6.790  0.4336  0.2567 -0.9641
  580MOL0     H78252   9.211  11.178   6.968 -0.6170  0.5666 -2.2979
  580MOL0     H78253   9.125  11.306   7.072  0.3033 -0.3944 -0.6616
  580MOL0     H78254   8.979  11.093   6.915  2.6912 -0.2517 -0.7628
  580MOL0     H78255   8.917  11.193   7.054  1.4295  1.4489  0.8810
  580MOL0     H78256   9.067  11.087   7.211  2.8591 -0.9379  1.0102
  580MOL0     H78257   9.131  10.979   7.106 -0.6013 -0.5882  3.0297
  580MOL0     H78258   8.853  10.996   7.207  2.3946  0.1154  2.8239
  580MOL0     H78259   8.963  10.857   7.199 -0.9669 -2.1435 -2.8529
  580MOL0     H78260   8.694  10.932   6.859  3.2248  1.3537  1.2064
  580MOL0     H78261   8.390  10.803   6.785  1.0209  0.3006 -1.2370
  580MOL0     H78262   8.353  10.944   6.897 -0.7860 -3.5063  2.9597
  580MOL0     H78263   8.488  10.947   6.775 -0.3192 -0.3513 -1.0782
  580MOL0     H78264   8.178  10.391   7.122 -0.4102 -0.3895  0.1222
  580MOL0     H78265   7.940  10.350   7.150  0.0804 -1.6391  0.3859
  580MOL0     H78266   7.663  10.383   7.168 -1.7479  1.4075 -0.3462
  580MOL0     H78267   7.749  10.315   7.318  0.1439  2.5061  0.7373
  580MOL0     H78268   7.511  10.494   7.309  1.3885  2.7726  2.1015
  580MOL0     H78269   7.521  10.314   7.339 -1.2125  0.0395 -0.6332
  580MOL0     H78270   7.679  10.515   7.516  0.2302 -0.4007 -0.5823
  580MOL0     H78271   7.645  10.345   7.544 -2.8432 -0.3815  1.7353
  580MOL0     H78272   7.426  10.560   7.527  1.1021 -1.1943 -2.7205
  580MOL0     H78273   7.391  10.385   7.526  2.3813 -0.6611 -2.7308
  580MOL0     H78274   7.514  10.552   7.752  3.2358 -1.7723 -2.6692
  580MOL0     H78275   7.508  10.378   7.756 -0.2294 -0.3536  0.3313
  580MOL0     H78276   7.267  10.572   7.731 -0.6631 -0.0468  0.8634
  580MOL0     H78277   7.246  10.403   7.760  0.3773 -0.9363  0.7066
  580MOL0     H78278   7.390  10.457   7.998  0.2812 -1.5945 -1.2257
  580MOL0     H78279   7.224  10.514   7.952  0.7179  0.4548 -0.3966
  580MOL0     H78280   7.339  10.752   7.897  0.6524 -0.1230 -0.8401
  580MOL0     H78281   7.483  10.673   7.945  0.8424 -0.0946 -0.3904
  580MOL0     H78282   7.919  10.709   7.392  0.1914  0.8154 -0.9704
  580MOL0     H78283   8.143  10.759   7.332 -1.1676  0.3612  2.1591
  580MOL0     H78284   8.561  10.660   7.256 -2.8321  0.0646 -0.3824
  580MOL0     H78285   8.785  10.739   7.237 -2.6391 -0.3411  2.9983
  580MOL0     H78286  10.248  11.514   6.271 -1.8154  1.2237 -0.4623
  580MOL0     H78287  10.398  11.362   6.362  0.0310  0.2486  1.2612
  580MOL0     H78288  10.610  11.119   6.554  1.9521 -1.4288 -0.5456
  580MOL0     H78289  10.797  11.021   6.634 -1.0520 -2.4337 -0.9103
  580MOL0     H78290  10.746  10.705   6.950 -0.3539  0.3313 -3.8007
  580MOL0     H78291  10.922  10.707   6.922 -0.7878  0.6459 -2.2924
  580MOL0     H78292  10.762  10.890   7.112 -0.5026 -0.1050 -1.5479
  580MOL0     H78293  10.930  10.896   7.116  1.5635 -0.6628 -1.9509
  580MOL0     H78294  10.794  10.631   7.156  1.0422 -0.8059  2.4365
  580MOL0     H78295  10.795  10.741   7.288  0.4203  0.9117 -0.6403
  580MOL0     H78296  11.050  10.646   7.171  1.3323  0.9268  1.8709
  580MOL0     H78297  10.961  10.590   7.312 -2.7753  0.1799 -1.7625
  580MOL0     H78298  11.179  10.884   7.488 -2.1017  0.1274  1.1258
  580MOL0     H78299  10.571  10.850   6.966  0.0999  2.5402  2.2399
  580MOL0     H78300  10.381  10.926   6.876  0.3593 -3.4734 -0.6230
  581MOL0     O78301   6.774   7.539   9.191  0.0926  0.7020 -1.1757
  581MOL0     C78302   6.855   7.591   9.113  0.4071 -1.2355 -0.6867
  581MOL0     O78303   6.852   7.576   8.982  0.0714 -0.2385  1.0399
  581MOL0     C78304   6.756   7.502   8.914  0.2750  0.0171  0.8573
  581MOL0     C78305   6.783   7.478   8.778  0.1652  0.4670 -0.8255
  581MOL0     C78306   6.698   7.398   8.702 -1.2064  0.2751 -0.1729
  581MOL0     C78307   6.582   7.345   8.756  0.2363 -1.0368  0.2985
  581MOL0     O78308   6.501   7.266   8.676  0.4997  0.1911  0.0195
  581MOL0     C78309   6.367   7.225   8.712  0.0380 -0.2254  0.2656
  581MOL0     C78310   6.324   7.127   8.612  0.8759  0.1067 -0.0518
  581MOL0     C78311   6.202   7.063   8.674 -0.8610 -0.3574 -0.1862
  581MOL0     C78312   6.128   6.953   8.589  0.5599 -1.2012 -0.6604
  581MOL0     C78313   5.975   6.976   8.595 -0.9040 -0.0106  0.8362
  581MOL0     C78314   5.902   6.864   8.523  0.4400 -0.2527 -0.6801
  581MOL0     C78315   5.755   6.907   8.510 -0.5597  0.6582 -0.9913
  581MOL0     C78316   5.678   6.803   8.419 -0.8597 -0.1128  0.4846
  581MOL0     N78317   5.544   6.841   8.385  0.0715 -0.6049  0.5850
  581MOL0     C78318   5.499   6.903   8.265 -0.4751  0.1071 -0.7976
  581MOL0     C78319   5.358   6.887   8.274 -0.6461 -0.9277  0.7866
  581MOL0     C78320   5.254   6.936   8.173 -0.2875 -0.5487 -0.2567
  581MOL0     C78321   5.297   6.925   8.019 -0.6978  0.3549 -0.9352
  581MOL0     C78322   5.342   6.775   7.980  0.3881 -1.3043 -0.3665
  581MOL0     C78323   5.270   6.665   8.056 -0.3478 -0.0603  0.8985
  581MOL0     O78324   5.296   6.536   7.990  0.5857  0.7602  0.2589
  581MOL0     C78325   5.421   6.468   8.003 -0.4105 -0.7023 -0.1259
  581MOL0     C78326   5.443   6.347   7.936  0.4096 -0.2092 -0.4777
  581MOL0     C78327   5.558   6.269   7.944  0.4209 -0.5092  0.3797
  581MOL0     C78328   5.546   6.117   7.890  0.1558 -0.1434 -1.5091
  581MOL0     C78329   5.673   6.326   8.007  0.0160 -0.4467 -0.0084
  581MOL0     C78330   5.800   6.247   8.028  0.3223 -0.3684  0.0139
  581MOL0     O78331   5.913   6.312   8.084 -0.3573 -0.2481  0.4058
  581MOL0     C78332   6.026   6.238   8.095  0.1915 -0.7196  0.1119
  581MOL0     C78333   6.122   6.224   7.996  0.4395  0.3346  0.1962
  581MOL0     C78334   6.248   6.179   8.027 -0.2526  0.2685  0.0358
  581MOL0     C78335   6.286   6.138   8.155 -0.4284 -0.0267  0.8113
  581MOL0     O78336   6.416   6.095   8.169  0.1841  0.0556  0.8655
  581MOL0     C78337   6.466   5.999   8.077  0.3578  0.1900  0.4446
  581MOL0     C78338   6.598   5.934   8.122 -0.5981 -0.3092 -0.8013
  581MOL0     C78339   6.719   6.027   8.147  0.5076 -0.1224 -0.2714
  581MOL0     C78340   6.828   5.983   8.246 -0.2010  0.3087 -1.2744
  581MOL0     C78341   6.946   5.917   8.182 -0.1687 -0.4370  0.8314
  581MOL0     C78342   7.050   5.860   8.283  0.0694  0.2418 -0.2323
  581MOL0     C78343   7.171   5.786   8.215  0.2158 -1.0687  0.0686
  581MOL0     C78344   7.283   5.756   8.315 -0.2926 -0.1328 -0.0602
  581MOL0    Cl78345   7.369   5.904   8.392  0.6350  0.3451  0.1012
  581MOL0     C78346   6.194   6.153   8.253  0.6305  0.2915  0.0476
  581MOL0     C78347   6.061   6.189   8.223 -0.4435 -0.7095  0.4072
  581MOL0     O78348   5.802   6.131   7.989 -0.3161  0.7029 -0.2521
  581MOL0     C78349   5.656   6.453   8.068 -0.2484 -0.2245 -0.2005
  581MOL0     C78350   5.535   6.525   8.073 -0.8178  0.5793  0.0992
  581MOL0     N78351   5.336   6.810   8.383  0.0843 -0.0695 -0.4601
  581MOL0     N78352   5.441   6.782   8.444 -0.6554 -0.3603  0.7392
  581MOL0     C78353   6.553   7.366   8.890  0.7637  0.4425  0.1933
  581MOL0     C78354   6.638   7.443   8.968 -0.0808 -0.5783  0.6041
  581MOL0     C78355   6.968   7.663   9.173 -0.1911 -0.1608 -0.4189
  581MOL0     C78356   6.964   7.697   9.313 -0.3417  0.4411 -0.2871
  581MOL0     C78357   7.081   7.746   9.375 -0.1984  0.6308 -0.3585
  581MOL0     C78358   7.194   7.776   9.302 -0.5416 -0.3321 -0.9952
  581MOL0     O78359   7.312   7.808   9.374 -0.1710 -0.0972 -0.0731
  581MOL0     C78360   7.407   7.881   9.298 -0.4274 -0.8972  1.0829
  581MOL0     C78361   7.522   7.941   9.365 -0.7222 -0.2993 -0.2006
  581MOL0     C78362   7.597   8.030   9.263  0.8341 -0.4724  0.0566
  581MOL0     C78363   7.657   7.959   9.143  0.4066 -1.2387 -0.4795
  581MOL0     C78364   7.772   7.869   9.181  0.3184 -0.0243  0.6955
  581MOL0     C78365   7.866   7.809   9.234 -0.9665  0.0610  0.6685
  581MOL0     C78366   7.189   7.759   9.167  0.1873 -0.1748  0.1065
  581MOL0     C78367   7.081   7.698   9.101 -0.3489 -0.0641 -0.1318
  581MOL0     H78368   6.867   7.526   8.729  0.2555  0.2897 -0.8436
  581MOL0     H78369   6.723   7.385   8.597 -1.4567  1.7512 -0.4274
  581MOL0     H78370   6.364   7.189   8.815  0.6457 -1.1676 -0.0394
  581MOL0     H78371   6.293   7.306   8.712 -1.1429 -1.0694 -3.5740
  581MOL0     H78372   6.298   7.179   8.520 -0.2741 -0.8767 -0.3161
  581MOL0     H78373   6.391   7.043   8.591 -0.9864 -1.5241  0.2222
  581MOL0     H78374   6.237   7.006   8.761 -1.1860 -3.1750 -1.7809
  581MOL0     H78375   6.131   7.138   8.710 -1.9408 -2.3276  2.0523
  581MOL0     H78376   6.157   6.964   8.484  0.7449 -0.6835 -0.5602
  581MOL0     H78377   6.161   6.854   8.620 -2.8300 -2.0663  0.5390
  581MOL0     H78378   5.934   6.986   8.696 -0.9639  0.3460  0.7750
  581MOL0     H78379   5.957   7.069   8.541  0.1999 -0.2018  0.1068
  581MOL0     H78380   5.951   6.870   8.426  1.9646  3.7106  0.1076
  581MOL0     H78381   5.903   6.764   8.567 -2.0634  0.1528  0.4540
  581MOL0     H78382   5.710   6.913   8.610  1.1408  0.1386 -0.1605
  581MOL0     H78383   5.742   6.999   8.453  1.5822 -0.1789 -2.9887
  581MOL0     H78384   5.687   6.707   8.471 -3.3776 -0.1741  0.9628
  581MOL0     H78385   5.721   6.796   8.319 -5.1966 -0.9016 -1.5532
  581MOL0     H78386   5.562   6.968   8.206  2.8004 -1.4051  0.7911
  581MOL0     H78387   5.162   6.889   8.209 -0.7415 -0.4391 -1.2452
  581MOL0     H78388   5.240   7.043   8.186  1.1232 -0.2871 -0.6993
  581MOL0     H78389   5.379   6.993   7.993  0.2754 -0.7969 -1.0165
  581MOL0     H78390   5.212   6.967   7.966 -0.4391  3.1749  0.7172
  581MOL0     H78391   5.450   6.760   7.981  0.5611 -0.4363  2.5938
  581MOL0     H78392   5.305   6.779   7.877 -1.0327  2.4429  0.1286
  581MOL0     H78393   5.162   6.672   8.044 -0.5480 -2.0129  1.3176
  581MOL0     H78394   5.304   6.638   8.156 -1.0768 -1.3993  0.8071
  581MOL0     H78395   5.358   6.303   7.885 -0.5693  0.5568  0.4691
  581MOL0     H78396   5.606   6.100   7.800  4.6808  0.7315  1.0130
  581MOL0     H78397   5.591   6.059   7.971  0.5527  1.8960 -0.1972
  581MOL0     H78398   5.443   6.082   7.882  0.8635 -2.3178 -1.6249
  581MOL0     H78399   6.102   6.255   7.894  2.0452  3.6852  0.7748
  581MOL0     H78400   6.317   6.185   7.944  2.0148 -1.1360  1.7085
  581MOL0     H78401   6.401   5.912   8.063  0.4937 -0.0793  1.4031
  581MOL0     H78402   6.493   6.044   7.981 -0.6233  3.9095  1.7352
  581MOL0     H78403   6.590   5.882   8.218  1.9110 -0.0117 -0.3662
  581MOL0     H78404   6.627   5.859   8.049  2.8900 -3.9276  3.6961
  581MOL0     H78405   6.681   6.124   8.180  0.6105  0.1750 -0.9993
  581MOL0     H78406   6.763   6.039   8.047  2.2166  1.2087  0.5821
  581MOL0     H78407   6.860   6.075   8.296  2.6375 -1.6670  0.8627
  581MOL0     H78408   6.783   5.915   8.319  1.9392 -2.9571 -2.7620
  581MOL0     H78409   7.002   5.982   8.115 -0.1729  3.1183  3.9271
  581MOL0     H78410   6.907   5.839   8.116 -0.3685  1.4633 -1.4415
  581MOL0     H78411   7.086   5.947   8.338  4.5763 -1.2844 -0.3416
  581MOL0     H78412   7.018   5.784   8.354  2.4347 -1.4572 -0.8582
  581MOL0     H78413   7.205   5.848   8.133 -0.4591 -3.3387 -2.0496
  581MOL0     H78414   7.131   5.692   8.175  0.3994 -1.2883  0.3963
  581MOL0     H78415   7.347   5.695   8.251 -1.5140  2.0229 -3.6350
  581MOL0     H78416   7.244   5.692   8.395 -0.8165 -2.4852 -2.0742
  581MOL0     H78417   6.211   6.124   8.356 -1.9799 -2.0367 -0.0568
  581MOL0     H78418   5.996   6.212   8.307 -0.2003  0.1132  0.3769
  581MOL0     H78419   5.742   6.501   8.115 -0.1545 -1.0322  0.4853
  581MOL0     H78420   5.545   6.613   8.136  3.6895  0.7450 -0.4822
  581MOL0     H78421   6.464   7.320   8.933  1.0000 -1.4217 -1.1604
  581MOL0     H78422   6.603   7.447   9.071 -1.2057  0.2245  0.2028
  581MOL0     H78423   6.876   7.672   9.370  1.2068  0.3533  2.2016
  581MOL0     H78424   7.094   7.743   9.483 -1.2610  0.7798 -0.2081
  581MOL0     H78425   7.438   7.807   9.223 -0.7171 -1.2181  1.2731
  581MOL0     H78426   7.345   7.960   9.254 -1.1518 -1.5498  0.8868
  581MOL0     H78427   7.590   7.859   9.389 -1.8927 -0.4767  2.9845
  581MOL0     H78428   7.501   8.004   9.452 -0.3988  0.4509 -0.6500
  581MOL0     H78429   7.679   8.083   9.312  1.3164 -2.4004  1.4488
  581MOL0     H78430   7.524   8.102   9.223 -0.0008 -1.5657 -0.4323
  581MOL0     H78431   7.689   8.034   9.071  1.6439 -1.3114 -0.0187
  581MOL0     H78432   7.578   7.895   9.101 -0.4848 -0.6455  0.2531
  581MOL0     H78433   7.952   7.760   9.275  1.3939  0.3907 -3.4068
  581MOL0     H78434   7.274   7.782   9.105  0.1128 -0.3252 -0.0520
  581MOL0     H78435   7.090   7.668   8.997 -4.0220 -1.7859 -0.1084
  582MOL0     O78436   2.028  10.066  10.360  0.1429 -0.4054 -0.4442
  582MOL0     C78437   2.138  10.048  10.404 -0.7829 -0.9350  0.1417
  582MOL0     O78438   2.200  10.110  10.504 -0.2622 -0.6923  0.1291
  582MOL0     C78439   2.138  10.199  10.576  1.0811 -1.1692 -0.0914
  582MOL0     C78440   2.064  10.302  10.513 -0.8710 -0.8930 -0.3610
  582MOL0     C78441   1.985  10.389  10.589 -0.0958 -0.0140 -0.4842
  582MOL0     C78442   1.969  10.358  10.722 -0.4983 -0.5126 -0.8380
  582MOL0     O78443   1.888  10.440  10.792 -0.2501  0.6735 -0.4068
  582MOL0     C78444   1.807  10.391  10.906 -0.0496 -0.4803  0.4243
  582MOL0     C78445   1.730  10.514  10.959  0.2172  0.0767  0.2013
  582MOL0     C78446   1.807  10.624  11.015  0.2178  0.1346 -0.3594
  582MOL0     C78447   1.712  10.732  11.068 -0.2129 -0.1150 -0.2264
  582MOL0     C78448   1.778  10.842  11.156  0.3266  0.3015 -0.0771
  582MOL0     C78449   1.670  10.938  11.209 -0.4245  0.2421  0.4285
  582MOL0     C78450   1.632  11.035  11.097 -0.1448 -0.2898  1.1633
  582MOL0     C78451   1.682  11.179  11.134  0.1995  0.5346  0.3286
  582MOL0     N78452   1.823  11.214  11.121  0.3700 -0.3608  0.2263
  582MOL0     C78453   1.896  11.295  11.201  0.5953 -0.3409  0.1377
  582MOL0     C78454   2.014  11.306  11.140 -0.0607 -0.1146  0.3114
  582MOL0     C78455   2.135  11.390  11.187 -0.5660 -0.5457  0.1713
  582MOL0     C78456   2.129  11.537  11.140  0.2184  0.2217 -0.0325
  582MOL0     C78457   2.134  11.545  10.984 -0.0057  0.1726 -0.4288
  582MOL0     C78458   2.256  11.476  10.918  0.2293 -0.4019  0.4143
  582MOL0     O78459   2.272  11.525  10.785 -0.3473 -0.8617  0.4568
  582MOL0     C78460   2.160  11.510  10.704  0.1426  0.7192  0.7231
  582MOL0     C78461   2.096  11.620  10.636  1.1865 -0.4203 -0.1995
  582MOL0     C78462   1.992  11.602  10.546 -1.5089 -1.1654 -0.0239
  582MOL0     C78463   1.939  11.726  10.486 -0.1791  0.0310 -0.9928
  582MOL0     C78464   1.954  11.468  10.516 -0.1465  0.5232  0.5931
  582MOL0     C78465   1.855  11.429  10.405 -0.5320 -0.1236 -0.3344
  582MOL0     O78466   1.847  11.294  10.381  0.0552 -0.5295 -0.0100
  582MOL0     C78467   1.755  11.245  10.290  0.9183 -0.2607  0.3667
  582MOL0     C78468   1.646  11.314  10.235  0.8545  1.0261 -1.2733
  582MOL0     C78469   1.549  11.245  10.169  1.1928  0.0145 -0.4145
  582MOL0     C78470   1.561  11.110  10.139  0.6067 -0.6637  0.8054
  582MOL0     O78471   1.456  11.055  10.066  0.4459  0.3011 -0.1458
  582MOL0     C78472   1.475  10.928  10.004 -1.0994 -0.4183 -0.4762
  582MOL0     C78473   1.374  10.931   9.899  0.0818  0.5712 -0.1268
  582MOL0     C78474   1.239  10.901   9.962 -0.5864  0.8508  0.9452
  582MOL0     C78475   1.126  10.940   9.867 -0.3417  0.1512 -1.2518
  582MOL0     C78476   0.985  10.888   9.915 -1.2224  0.1142  0.2110
  582MOL0     C78477   0.928  10.966  10.030 -0.5692 -0.1065 -1.1667
  582MOL0     C78478   0.796  10.907  10.067 -0.6053 -0.3345  0.0770
  582MOL0     C78479   0.746  10.973  10.199  0.0103 -0.8019 -0.3822
  582MOL0    Cl78480   0.662  10.854  10.299 -0.6339 -0.1223  0.2054
  582MOL0     C78481   1.673  11.041  10.183 -0.1717 -0.5451  1.3911
  582MOL0     C78482   1.763  11.109  10.266 -0.1245  0.1130 -0.1561
  582MOL0     O78483   1.782  11.514  10.355 -0.8634  0.4131  0.2785
  582MOL0     C78484   2.011  11.364  10.590  0.5129  0.8090 -1.6486
  582MOL0     C78485   2.118  11.379  10.676 -0.2215  0.3479  0.3788
  582MOL0     N78486   2.007  11.247  11.016  0.0343  0.2466 -1.0198
  582MOL0     N78487   1.903  11.180  11.011  0.4391 -0.6986 -0.6292
  582MOL0     C78488   2.043  10.257  10.784 -0.4357 -0.1130 -0.2382
  582MOL0     C78489   2.130  10.183  10.716  0.2931  0.0278  0.2868
  582MOL0     C78490   2.216   9.933  10.340  0.9970 -0.6955 -0.9647
  582MOL0     C78491   2.140   9.860  10.251 -0.2707 -0.0623  0.5428
  582MOL0     C78492   2.199   9.761  10.171 -0.5743 -0.4499  0.5401
  582MOL0     C78493   2.331   9.718  10.189  0.1578 -0.1941  0.1118
  582MOL0     O78494   2.401   9.621  10.119  0.1087 -0.1027  0.1015
  582MOL0     C78495   2.328   9.537  10.022 -0.2187 -0.7114  0.7009
  582MOL0     C78496   2.274   9.414  10.087 -0.3219 -0.2566  0.2413
  582MOL0     C78497   2.171   9.428  10.203  0.7875 -0.7679 -0.1601
  582MOL0     C78498   2.116   9.293  10.250  0.3294 -0.3297  0.1485
  582MOL0     C78499   2.045   9.309  10.381 -0.1643  0.1315  0.7673
  582MOL0     C78500   1.974   9.326  10.477  0.2879 -0.3669  0.0006
  582MOL0     C78501   2.409   9.777  10.290  0.7343 -0.2078  0.2944
  582MOL0     C78502   2.348   9.886  10.366  0.2815  0.4971 -0.0817
  582MOL0     H78503   2.073  10.314  10.406  0.1978 -1.6882 -0.3737
  582MOL0     H78504   1.932  10.475  10.548 -2.0924  0.1251  2.1360
  582MOL0     H78505   1.734  10.312  10.887 -0.0548  0.1821 -2.9035
  582MOL0     H78506   1.882  10.366  10.982  0.3605 -2.5099 -0.5730
  582MOL0     H78507   1.670  10.558  10.879 -0.0127  1.0972  0.9114
  582MOL0     H78508   1.664  10.468  11.033 -2.2962  0.0752 -1.9182
  582MOL0     H78509   1.858  10.579  11.100  1.7024  2.8719  0.3140
  582MOL0     H78510   1.883  10.656  10.943  0.4034 -1.9246 -1.1393
  582MOL0     H78511   1.678  10.775  10.974 -0.3717 -1.0955 -0.6299
  582MOL0     H78512   1.630  10.694  11.129 -2.0661  2.7382 -0.7672
  582MOL0     H78513   1.843  10.805  11.235  1.0581 -1.4634 -1.4194
  582MOL0     H78514   1.851  10.900  11.099 -0.6889  0.2405 -1.4925
  582MOL0     H78515   1.584  10.885  11.250 -0.9066 -1.9161 -2.9536
  582MOL0     H78516   1.711  10.996  11.292  1.7189  1.4941 -1.3641
  582MOL0     H78517   1.673  11.007  10.999 -2.5268  0.4640 -0.1192
  582MOL0     H78518   1.524  11.033  11.080  0.0920 -1.9593 -0.6120
  582MOL0     H78519   1.646  11.192  11.236 -3.8336 -0.7136 -0.7557
  582MOL0     H78520   1.618  11.252  11.083  2.2812  1.1991 -1.4973
  582MOL0     H78521   1.866  11.346  11.292  0.6421  0.6514 -0.3968
  582MOL0     H78522   2.135  11.382  11.296  0.6201 -2.8936  0.0772
  582MOL0     H78523   2.223  11.344  11.142 -0.4150  0.6918 -0.8523
  582MOL0     H78524   2.208  11.595  11.188  0.0909  1.5130 -1.3041
  582MOL0     H78525   2.033  11.583  11.167 -0.6968 -1.1982 -0.7697
  582MOL0     H78526   2.133  11.649  10.949 -0.7564  0.2999 -0.0338
  582MOL0     H78527   2.045  11.496  10.944 -0.1927  1.1042 -1.2015
  582MOL0     H78528   2.258  11.367  10.922 -0.0581 -0.4232  0.0980
  582MOL0     H78529   2.338  11.506  10.984  0.8507  0.5630 -0.7448
  582MOL0     H78530   2.142  11.716  10.659 -0.5321  0.6242 -0.9655
  582MOL0     H78531   1.933  11.702  10.380  2.0174 -2.6647 -0.6136
  582MOL0     H78532   1.833  11.741  10.509 -0.2657  1.2289 -2.0866
  582MOL0     H78533   1.982  11.825  10.505 -0.7153 -0.0269  0.6567
  582MOL0     H78534   1.610  11.413  10.261 -0.0174  0.5287 -0.5534
  582MOL0     H78535   1.463  11.308  10.147  2.4094  0.6539 -3.9392
  582MOL0     H78536   1.578  10.921   9.967 -0.7431  0.6469  0.2843
  582MOL0     H78537   1.462  10.846  10.075  0.8888 -0.1446  0.2812
  582MOL0     H78538   1.377  11.027   9.847 -0.3977 -0.3187 -1.8675
  582MOL0     H78539   1.403  10.853   9.828  0.1720  2.0372 -1.7900
  582MOL0     H78540   1.245  10.959  10.055  1.1647  1.7109  0.3444
  582MOL0     H78541   1.242  10.794   9.987  2.2005  0.3190 -1.0867
  582MOL0     H78542   1.117  11.049   9.860 -3.1434  0.6118  4.2431
  582MOL0     H78543   1.144  10.892   9.770 -1.1673 -0.2073 -1.2325
  582MOL0     H78544   0.987  10.779   9.926 -1.3886  0.0911  0.0207
  582MOL0     H78545   0.921  10.906   9.828  0.7350  3.0962 -0.7629
  582MOL0     H78546   1.001  10.958  10.112 -0.5896  2.9784 -0.7334
  582MOL0     H78547   0.926  11.074  10.014  0.6882  0.3398  1.1395
  582MOL0     H78548   0.817  10.801  10.082 -2.6224 -0.9015 -0.7570
  582MOL0     H78549   0.733  10.924   9.979  0.5185  0.7864 -0.5626
  582MOL0     H78550   0.680  11.058  10.176  2.1560  0.5951 -1.7618
  582MOL0     H78551   0.826  11.015  10.262  0.1571  0.1028 -1.1417
  582MOL0     H78552   1.690  10.935  10.162 -1.5730 -0.6795  0.8311
  582MOL0     H78553   1.848  11.068  10.318 -0.0570 -1.1905 -1.2598
  582MOL0     H78554   1.979  11.262  10.570 -0.2880  0.4398  1.1339
  582MOL0     H78555   2.177  11.295  10.709 -1.8413 -2.3451 -3.0071
  582MOL0     H78556   2.025  10.234  10.888 -0.1664 -1.0482 -0.3845
  582MOL0     H78557   2.187  10.107  10.769  2.1271 -0.0385 -1.6587
  582MOL0     H78558   2.036   9.885  10.238 -0.6116 -0.6274  2.0303
  582MOL0     H78559   2.137   9.709  10.097  0.3180 -0.5474 -0.1525
  582MOL0     H78560   2.253   9.594   9.965  3.2144  1.7373 -1.8432
  582MOL0     H78561   2.406   9.508   9.951 -0.1064  3.3004 -1.1118
  582MOL0     H78562   2.352   9.355  10.137 -1.4046 -2.0949 -0.1447
  582MOL0     H78563   2.236   9.348  10.009  3.2040 -2.9006  0.5172
  582MOL0     H78564   2.086   9.491  10.174  1.0936  0.6609  1.8130
  582MOL0     H78565   2.217   9.481  10.287 -0.8608  0.4703  0.0124
  582MOL0     H78566   2.197   9.221  10.247  1.5287  0.9955 -2.3866
  582MOL0     H78567   2.046   9.260  10.172  0.0155  2.0966 -0.6828
  582MOL0     H78568   1.917   9.332  10.567 -0.7467 -0.2030 -0.6461
  582MOL0     H78569   2.496   9.727  10.331  1.5062  0.3776 -0.5977
  582MOL0     H78570   2.403   9.929  10.450  2.0031 -1.5161 -0.1037
  583MOL0     O78571   3.873   1.663   1.515  0.4547  0.1261 -0.2170
  583MOL0     C78572   3.755   1.633   1.546 -0.2172 -0.9231 -0.5830
  583MOL0     O78573   3.693   1.652   1.668 -0.5330 -0.0892  0.0384
  583MOL0     C78574   3.769   1.715   1.760  0.8277  0.3000  0.7258
  583MOL0     C78575   3.894   1.673   1.813  0.2061  0.3442  0.5714
  583MOL0     C78576   3.971   1.739   1.908  0.0128  0.2851 -0.0065
  583MOL0     C78577   3.916   1.858   1.956  0.4284 -0.8094  0.0351
  583MOL0     O78578   3.987   1.921   2.057  0.4104 -0.4461  0.8034
  583MOL0     C78579   3.951   2.063   2.087 -1.1574  0.2290 -0.2620
  583MOL0     C78580   4.044   2.109   2.202  0.2860 -0.6162 -0.7856
  583MOL0     C78581   4.009   2.048   2.337  0.0092 -0.4446 -0.1041
  583MOL0     C78582   4.093   2.102   2.460  0.3563  0.3300  0.3892
  583MOL0     C78583   4.067   2.025   2.581 -0.0831  0.0386 -0.5664
  583MOL0     C78584   3.922   2.057   2.637 -0.1919 -0.3603 -0.6194
  583MOL0     C78585   3.885   1.985   2.764  0.6584  1.0497  0.4207
  583MOL0     C78586   3.880   1.833   2.731  0.2156  0.7830 -0.0250
  583MOL0     N78587   3.837   1.758   2.847  0.0128 -0.4976 -0.1519
  583MOL0     C78588   3.702   1.740   2.877 -0.5988 -0.4830  0.4648
  583MOL0     C78589   3.699   1.640   2.964 -0.5453 -0.5640 -1.0285
  583MOL0     C78590   3.571   1.600   3.026 -0.0482  0.1889 -0.2663
  583MOL0     C78591   3.551   1.674   3.162 -0.1666 -0.2279  0.6495
  583MOL0     C78592   3.504   1.824   3.144  0.9778  0.8094 -0.0994
  583MOL0     C78593   3.502   1.905   3.271  0.5530 -0.9758 -0.3189
  583MOL0     O78594   3.367   1.922   3.326 -0.0733 -0.1826 -0.3062
  583MOL0     C78595   3.311   1.822   3.413 -0.3281  0.2088  0.3444
  583MOL0     C78596   3.379   1.715   3.474 -0.9043  0.5565 -0.4819
  583MOL0     C78597   3.313   1.621   3.565  0.2953 -0.9980 -0.8513
  583MOL0     C78598   3.398   1.508   3.606  0.5572 -0.0024 -0.4019
  583MOL0     C78599   3.179   1.659   3.613 -0.8259 -0.5238 -0.1054
  583MOL0     C78600   3.091   1.579   3.706  0.1794 -0.4833 -0.9420
  583MOL0     O78601   3.043   1.657   3.811 -0.4394  0.4388  0.1888
  583MOL0     C78602   2.940   1.622   3.902 -0.1422  0.0545  0.5579
  583MOL0     C78603   2.834   1.529   3.879 -0.5765 -0.8574 -0.2997
  583MOL0     C78604   2.744   1.493   3.983  0.0996 -0.8821 -0.1105
  583MOL0     C78605   2.760   1.556   4.108  0.8001  1.2817 -0.6750
  583MOL0     O78606   2.688   1.527   4.222 -0.5607  0.1125 -0.4637
  583MOL0     C78607   2.585   1.418   4.222  0.0078 -0.0916 -0.1279
  583MOL0     C78608   2.452   1.481   4.163 -0.3482 -0.0203  0.0700
  583MOL0     C78609   2.348   1.367   4.129 -0.0961  0.0581 -0.1097
  583MOL0     C78610   2.295   1.383   3.995 -0.1738 -0.5712  0.7214
  583MOL0     C78611   2.159   1.323   3.970 -0.2050  0.0446 -0.0532
  583MOL0     C78612   2.171   1.166   3.958 -0.2109 -0.3066  0.3675
  583MOL0     C78613   2.049   1.100   3.896  0.5929  0.8007  0.1027
  583MOL0     C78614   1.946   1.078   4.004 -0.5631  0.4233  0.3526
  583MOL0    Cl78615   2.012   0.967   4.127  0.3394 -0.0238 -0.1364
  583MOL0     C78616   2.859   1.653   4.126  0.7768  0.3988  0.3765
  583MOL0     C78617   2.945   1.691   4.018  0.3073 -0.1073 -0.0023
  583MOL0     O78618   3.074   1.460   3.697  0.4410  0.6166  0.4062
  583MOL0     C78619   3.120   1.770   3.554  0.9741 -0.2490 -0.9707
  583MOL0     C78620   3.185   1.855   3.462  0.7174 -0.7512  0.0405
  583MOL0     N78621   3.826   1.607   2.994 -0.8073 -0.4140  0.1165
  583MOL0     N78622   3.910   1.681   2.926  0.0051 -0.2267 -0.5586
  583MOL0     C78623   3.791   1.904   1.913  0.3034 -0.5890 -0.1739
  583MOL0     C78624   3.726   1.840   1.811  0.6380 -0.3794  0.1169
  583MOL0     C78625   3.671   1.581   1.438 -0.2047 -0.3814  0.1609
  583MOL0     C78626   3.723   1.564   1.303  0.0235 -1.2014  0.3027
  583MOL0     C78627   3.645   1.533   1.193  0.2463 -0.3389 -1.0281
  583MOL0     C78628   3.513   1.488   1.217  0.7936  0.3858 -0.1615
  583MOL0     O78629   3.433   1.423   1.127 -0.2686  0.2729  0.5097
  583MOL0     C78630   3.480   1.399   0.994  0.2960  0.1950  0.8199
  583MOL0     C78631   3.373   1.326   0.917  0.5158  0.3189  0.0724
  583MOL0     C78632   3.426   1.296   0.778 -0.1927  0.0814  0.2832
  583MOL0     C78633   3.335   1.212   0.695 -0.0843  1.0802 -0.4953
  583MOL0     C78634   3.201   1.279   0.678 -0.2584  0.1693 -0.2655
  583MOL0     C78635   3.088   1.324   0.661 -0.5077  0.3681 -0.4482
  583MOL0     C78636   3.471   1.488   1.356 -0.0946 -0.4118  0.7078
  583MOL0     C78637   3.548   1.531   1.466 -0.0587  0.2093 -0.0346
  583MOL0     H78638   3.933   1.576   1.781  2.5149  1.0192  1.0990
  583MOL0     H78639   4.069   1.708   1.941 -0.5830 -0.3577  1.2080
  583MOL0     H78640   3.983   2.129   2.005  2.9068 -0.0940  0.8320
  583MOL0     H78641   3.847   2.074   2.119 -0.1504  1.5313  2.9064
  583MOL0     H78642   4.147   2.087   2.174  0.1767 -1.4858 -0.5218
  583MOL0     H78643   4.034   2.217   2.214  4.2389  0.0595 -2.0613
  583MOL0     H78644   3.903   2.071   2.356  0.2630  1.3945 -0.6651
  583MOL0     H78645   4.007   1.939   2.340 -3.4106 -0.6363  5.8608
  583MOL0     H78646   4.196   2.082   2.430 -0.3315 -1.5902 -0.9007
  583MOL0     H78647   4.078   2.210   2.467 -1.7300  0.1581 -0.5272
  583MOL0     H78648   4.067   1.916   2.568 -2.1568 -0.3525  1.9182
  583MOL0     H78649   4.132   2.066   2.658 -0.9696  1.1417 -0.3824
  583MOL0     H78650   3.924   2.166   2.649  0.9514 -0.1572 -2.3162
  583MOL0     H78651   3.843   2.035   2.564 -1.2407  3.4566 -0.8864
  583MOL0     H78652   3.959   2.013   2.840  1.0425  2.9703 -0.5947
  583MOL0     H78653   3.784   2.011   2.797  0.1759 -0.1753 -0.0306
  583MOL0     H78654   3.983   1.808   2.705  0.9665  0.9416  2.4912
  583MOL0     H78655   3.826   1.790   2.646  3.4702 -4.0491 -0.0238
  583MOL0     H78656   3.612   1.783   2.835 -1.2837  0.3881  2.6585
  583MOL0     H78657   3.486   1.619   2.960 -2.0966  3.8218  2.9865
  583MOL0     H78658   3.574   1.494   3.053  0.6968 -0.5873 -3.1310
  583MOL0     H78659   3.642   1.657   3.221  0.3823  0.3453 -0.0192
  583MOL0     H78660   3.466   1.621   3.208  0.4560 -0.0743  2.0319
  583MOL0     H78661   3.409   1.816   3.091  0.0146 -3.9187  1.7927
  583MOL0     H78662   3.584   1.878   3.092  0.8104  1.6087  0.4653
  583MOL0     H78663   3.537   2.002   3.234  3.5251 -2.4653 -1.8266
  583MOL0     H78664   3.579   1.867   3.338  0.4337 -0.8567 -0.1143
  583MOL0     H78665   3.481   1.691   3.445 -1.0912  0.5149 -1.1198
  583MOL0     H78666   3.431   1.532   3.708 -0.4140  0.3937 -0.1648
  583MOL0     H78667   3.341   1.414   3.613  0.4577  0.1509  1.7892
  583MOL0     H78668   3.489   1.495   3.547  0.6345 -2.6812  0.1368
  583MOL0     H78669   2.831   1.480   3.783  0.8530 -0.3802 -0.6080
  583MOL0     H78670   2.687   1.404   3.957  0.4788 -0.3841 -2.9544
  583MOL0     H78671   2.630   1.338   4.161  1.0899 -0.1214  0.6626
  583MOL0     H78672   2.568   1.379   4.323  1.1351  0.2382  0.2126
  583MOL0     H78673   2.418   1.543   4.246  0.3868 -0.6924  0.9018
  583MOL0     H78674   2.477   1.532   4.069 -0.5328 -1.4159 -0.7756
  583MOL0     H78675   2.279   1.364   4.214  2.2841  0.3991  1.9529
  583MOL0     H78676   2.413   1.280   4.139 -0.0935  0.2703  2.4706
  583MOL0     H78677   2.276   1.489   3.981 -1.6769 -0.7203  1.4311
  583MOL0     H78678   2.362   1.352   3.914 -1.3065 -1.4780  0.0871
  583MOL0     H78679   2.125   1.366   3.876  0.1936 -1.1334 -0.7618
  583MOL0     H78680   2.091   1.347   4.052  0.5303 -1.4726  1.0615
  583MOL0     H78681   2.245   1.153   3.879 -0.9679  1.9226 -0.7840
  583MOL0     H78682   2.211   1.125   4.052 -1.6709  0.2996  1.2874
  583MOL0     H78683   2.083   1.004   3.857  0.1677  0.4973  0.4591
  583MOL0     H78684   2.009   1.162   3.815 -1.7361 -0.5812  0.0930
  583MOL0     H78685   1.854   1.036   3.962  1.7363 -2.8803 -1.9159
  583MOL0     H78686   1.936   1.177   4.048 -1.7236  1.6290 -2.4202
  583MOL0     H78687   2.877   1.698   4.223 -1.8074  0.0675  1.0854
  583MOL0     H78688   3.020   1.768   4.026 -3.0443  3.6770 -1.5872
  583MOL0     H78689   3.019   1.793   3.587  1.5167  1.0793 -0.1512
  583MOL0     H78690   3.135   1.941   3.419  2.2276 -0.2497 -0.7858
  583MOL0     H78691   3.756   2.002   1.947  0.9982 -1.1850  2.5506
  583MOL0     H78692   3.640   1.885   1.763  1.3793  0.0417 -0.8460
  583MOL0     H78693   3.829   1.579   1.288 -0.4905  1.3574 -1.3156
  583MOL0     H78694   3.695   1.530   1.096  0.4917  0.5075 -0.9316
  583MOL0     H78695   3.497   1.487   0.930 -0.0106 -1.2928 -1.4325
  583MOL0     H78696   3.565   1.331   0.996 -0.7206 -1.4467 -2.7107
  583MOL0     H78697   3.286   1.393   0.913 -0.5592 -0.9966  0.8022
  583MOL0     H78698   3.349   1.233   0.968  2.2125 -1.6748 -2.5008
  583MOL0     H78699   3.514   1.231   0.778 -0.1782 -0.0270 -2.5700
  583MOL0     H78700   3.449   1.390   0.727  1.9378 -0.4725  0.0983
  583MOL0     H78701   3.333   1.109   0.731 -1.8784  1.9420  2.1714
  583MOL0     H78702   3.383   1.213   0.596 -0.5341  0.1275 -0.7336
  583MOL0     H78703   2.982   1.333   0.647 -0.4149 -1.2034 -2.7796
  583MOL0     H78704   3.371   1.452   1.380 -0.2271 -1.9674 -1.8083
  583MOL0     H78705   3.492   1.538   1.558 -1.7096  0.0923 -0.9869
  584MOL0     O78706   8.726   3.726   8.981 -0.1957 -0.0025  0.3024
  584MOL0     C78707   8.805   3.657   8.920  0.0093 -0.2860  0.0012
  584MOL0     O78708   8.783   3.594   8.804  0.0076 -0.4700 -0.3836
  584MOL0     C78709   8.655   3.608   8.736 -0.2877  0.4951  0.1744
  584MOL0     C78710   8.643   3.652   8.600 -0.7479 -0.2599 -0.2983
  584MOL0     C78711   8.519   3.644   8.528 -0.8989 -0.0987 -0.4807
  584MOL0     C78712   8.400   3.603   8.591 -0.1889 -0.3902 -0.2592
  584MOL0     O78713   8.285   3.598   8.512  0.3148  0.0103 -0.3883
  584MOL0     C78714   8.158   3.572   8.592 -0.1250 -0.4091  0.7667
  584MOL0     C78715   8.146   3.423   8.607 -0.1389  0.1536 -0.0158
  584MOL0     C78716   8.018   3.378   8.692  0.3235 -0.3993 -0.7408
  584MOL0     C78717   7.970   3.238   8.654 -0.3313 -0.3260 -0.4287
  584MOL0     C78718   7.828   3.221   8.711 -0.7702  0.0556 -1.3588
  584MOL0     C78719   7.784   3.074   8.706  0.3123 -0.3010  0.2123
  584MOL0     C78720   7.639   3.049   8.658 -0.2762  0.1112  0.6169
  584MOL0     C78721   7.524   3.117   8.740  0.1007 -0.8661 -0.2588
  584MOL0     N78722   7.523   3.064   8.881  0.1191  0.1918  1.0539
  584MOL0     C78723   7.481   2.934   8.910  0.0335 -0.3626  0.3016
  584MOL0     C78724   7.488   2.924   9.050  0.2061  0.2317 -0.0842
  584MOL0     C78725   7.434   2.810   9.141  0.1027  0.1564  0.1539
  584MOL0     C78726   7.282   2.821   9.163  0.6802  0.5977 -0.5201
  584MOL0     C78727   7.229   2.727   9.274  0.1847  0.5887 -0.2942
  584MOL0     C78728   7.081   2.714   9.245  0.1091 -0.0712 -1.1302
  584MOL0     O78729   7.012   2.642   9.352 -0.3547 -0.0531  0.3470
  584MOL0     C78730   6.892   2.589   9.325 -0.0539  1.0789 -1.2484
  584MOL0     C78731   6.817   2.608   9.210  1.3326 -0.8282  0.5818
  584MOL0     C78732   6.688   2.554   9.202  0.3238 -0.2543  1.0028
  584MOL0     C78733   6.603   2.553   9.071 -0.5804  0.2339  0.7063
  584MOL0     C78734   6.623   2.488   9.314 -0.3871 -0.3040 -0.6568
  584MOL0     C78735   6.472   2.450   9.321 -0.3261  0.8330  0.4529
  584MOL0     O78736   6.428   2.421   9.446  0.2264  0.1403  0.2544
  584MOL0     C78737   6.311   2.364   9.464 -0.1378  1.0966  0.8592
  584MOL0     C78738   6.213   2.421   9.547 -1.2000 -1.1141 -0.1809
  584MOL0     C78739   6.101   2.356   9.572  0.2461 -0.0726 -0.4761
  584MOL0     C78740   6.079   2.232   9.515  1.3691  0.5627  0.5066
  584MOL0     O78741   5.954   2.185   9.498 -0.5733  0.3460  0.1861
  584MOL0     C78742   5.841   2.255   9.530  1.2675 -0.0025 -0.5442
  584MOL0     C78743   5.714   2.189   9.467 -0.2532 -1.0973  0.4237
  584MOL0     C78744   5.698   2.201   9.322 -0.5077 -0.6291  0.5653
  584MOL0     C78745   5.578   2.117   9.265 -0.5014 -0.1500  0.3571
  584MOL0     C78746   5.535   2.172   9.128  0.7377 -0.3584 -0.4637
  584MOL0     C78747   5.395   2.127   9.091 -0.8592  0.6256 -0.2516
  584MOL0     C78748   5.274   2.176   9.169 -0.3735  0.0448  0.7025
  584MOL0     C78749   5.251   2.328   9.158 -0.6395 -0.0951 -0.6887
  584MOL0    Cl78750   5.345   2.437   9.266  0.3372  0.1587  0.2957
  584MOL0     C78751   6.173   2.163   9.437  0.5214 -0.5866 -0.4169
  584MOL0     C78752   6.295   2.225   9.414  0.3569 -0.4246 -0.5953
  584MOL0     O78753   6.396   2.455   9.220 -0.3142  0.6970  0.1686
  584MOL0     C78754   6.704   2.466   9.427 -0.3931 -0.5365 -0.8651
  584MOL0     C78755   6.837   2.509   9.431 -0.1659 -0.1473  0.3802
  584MOL0     N78756   7.545   3.049   9.087 -0.4583 -0.7445  0.6008
  584MOL0     N78757   7.561   3.131   8.992 -0.1070 -0.3497  0.0910
  584MOL0     C78758   8.411   3.562   8.724 -1.0013 -0.0709 -0.1671
  584MOL0     C78759   8.534   3.562   8.792 -0.1793 -0.4826  0.6225
  584MOL0     C78760   8.935   3.621   8.982 -0.7939  0.0957  0.5030
  584MOL0     C78761   8.997   3.500   8.954  0.5014  1.2816  0.2170
  584MOL0     C78762   9.120   3.469   9.018  0.9292 -0.0759 -0.2097
  584MOL0     C78763   9.162   3.539   9.126  0.5629 -1.1236 -0.0408
  584MOL0     O78764   9.272   3.526   9.194  0.1816  0.1296 -0.1505
  584MOL0     C78765   9.363   3.413   9.182 -0.7377 -0.2662  0.5599
  584MOL0     C78766   9.496   3.472   9.221 -0.1624  0.1159  0.2646
  584MOL0     C78767   9.556   3.591   9.138 -0.3199 -0.2383  1.1989
  584MOL0     C78768   9.714   3.602   9.168 -0.2390  0.2727  0.0951
  584MOL0     C78769   9.729   3.703   9.271 -0.3738  0.0141  0.1184
  584MOL0     C78770   9.747   3.797   9.345  0.1770  0.7173 -0.9456
  584MOL0     C78771   9.090   3.654   9.164 -0.7005 -0.3595  0.2944
  584MOL0     C78772   8.983   3.701   9.088 -0.3753 -0.8190 -0.0720
  584MOL0     H78773   8.739   3.681   8.560 -1.2828  0.9109 -0.7581
  584MOL0     H78774   8.518   3.669   8.422  2.4068  1.9391 -0.1525
  584MOL0     H78775   8.138   3.626   8.685  1.9077  3.8059 -0.9700
  584MOL0     H78776   8.074   3.595   8.526 -0.3880  1.1622  1.6088
  584MOL0     H78777   8.133   3.382   8.507 -1.5268 -0.5592  0.4231
  584MOL0     H78778   8.237   3.378   8.648 -0.5125 -1.0044 -0.4298
  584MOL0     H78779   8.053   3.378   8.795  0.5835 -0.0243 -0.8264
  584MOL0     H78780   7.944   3.456   8.669 -1.4116 -1.9520 -0.6195
  584MOL0     H78781   7.977   3.225   8.546  0.9231 -0.3790 -0.3652
  584MOL0     H78782   8.039   3.167   8.702  0.5626 -0.2625 -1.5930
  584MOL0     H78783   7.823   3.256   8.814  0.6578 -0.6753 -1.0090
  584MOL0     H78784   7.766   3.289   8.652 -1.0575 -2.1171 -3.7218
  584MOL0     H78785   7.843   3.012   8.638 -3.1115 -2.8819 -0.6790
  584MOL0     H78786   7.801   3.029   8.804  0.7433  0.5806  0.5514
  584MOL0     H78787   7.634   3.089   8.557 -2.6286 -2.2005 -0.2669
  584MOL0     H78788   7.620   2.943   8.646  1.0338  0.0502 -1.4373
  584MOL0     H78789   7.432   3.088   8.687  0.2539 -1.2041 -0.3406
  584MOL0     H78790   7.546   3.223   8.757 -0.3417 -0.9335  0.7912
  584MOL0     H78791   7.434   2.856   8.850  2.4664 -1.6589 -0.0743
  584MOL0     H78792   7.450   2.711   9.098 -3.3547 -0.6071  0.2978
  584MOL0     H78793   7.486   2.816   9.237  1.8713 -0.5998 -0.7210
  584MOL0     H78794   7.230   2.797   9.070  0.1941 -1.0893  0.1409
  584MOL0     H78795   7.261   2.925   9.190  3.0958  0.1060  4.3677
  584MOL0     H78796   7.236   2.759   9.378 -3.1735 -2.5034  1.1054
  584MOL0     H78797   7.262   2.625   9.253 -0.4737 -0.3101  2.6245
  584MOL0     H78798   7.070   2.662   9.149  1.1482 -1.3680 -0.5805
  584MOL0     H78799   7.033   2.812   9.233 -1.9818 -0.6406  1.6020
  584MOL0     H78800   6.869   2.660   9.131  0.2169 -1.1357 -0.3707
  584MOL0     H78801   6.522   2.626   9.063 -0.5025  0.6237  2.8589
  584MOL0     H78802   6.670   2.586   8.991 -0.3322 -2.7332 -0.4116
  584MOL0     H78803   6.570   2.459   9.027 -2.6963  1.6443 -0.8904
  584MOL0     H78804   6.248   2.518   9.580 -0.6698 -2.3596  3.3398
  584MOL0     H78805   6.036   2.415   9.636  0.5153 -3.1807  2.9974
  584MOL0     H78806   5.836   2.249   9.639 -1.9225 -1.7260 -0.6902
  584MOL0     H78807   5.855   2.358   9.493  3.4976 -0.0756 -0.0635
  584MOL0     H78808   5.710   2.086   9.504 -0.3635  0.0489  3.9806
  584MOL0     H78809   5.622   2.233   9.506 -0.9477 -0.6573 -1.5928
  584MOL0     H78810   5.795   2.169   9.284 -0.2433 -0.0196  0.7000
  584MOL0     H78811   5.705   2.304   9.286  0.5665 -1.4210 -1.6502
  584MOL0     H78812   5.608   2.012   9.253  0.6795  0.0459  1.3718
  584MOL0     H78813   5.501   2.111   9.343 -0.0768 -0.0555  0.7922
  584MOL0     H78814   5.606   2.148   9.048 -0.7924 -1.1543 -1.6546
  584MOL0     H78815   5.534   2.281   9.134  2.1892 -0.3294 -0.3533
  584MOL0     H78816   5.376   2.151   8.986  0.5046 -2.1211 -1.2159
  584MOL0     H78817   5.384   2.019   9.098 -1.2950  0.6875  0.0851
  584MOL0     H78818   5.285   2.139   9.271 -0.2426  1.2678  1.1413
  584MOL0     H78819   5.188   2.128   9.121 -0.4994  0.2372  0.7313
  584MOL0     H78820   5.147   2.360   9.174 -0.1599  1.0897  0.2724
  584MOL0     H78821   5.269   2.346   9.052 -2.6348 -1.2759 -1.2816
  584MOL0     H78822   6.134   2.079   9.380 -3.5528 -0.3194  1.5832
  584MOL0     H78823   6.367   2.176   9.349  0.5955  2.2866 -2.5266
  584MOL0     H78824   6.659   2.413   9.510  0.3819 -1.5113 -1.0455
  584MOL0     H78825   6.895   2.493   9.521  0.0521 -0.2902  0.2158
  584MOL0     H78826   8.329   3.532   8.789  0.4898 -1.3489  1.2309
  584MOL0     H78827   8.520   3.523   8.893 -0.8586 -1.2739  0.2334
  584MOL0     H78828   8.955   3.420   8.894  0.1329  1.1949  0.5785
  584MOL0     H78829   9.177   3.377   9.008 -1.7396 -1.8834  0.0879
  584MOL0     H78830   9.332   3.334   9.251 -0.3980  0.0140  1.0405
  584MOL0     H78831   9.370   3.375   9.079  0.0874 -0.1813  0.5783
  584MOL0     H78832   9.569   3.392   9.233  1.4544  1.4862 -0.1576
  584MOL0     H78833   9.500   3.509   9.324  0.6031  0.4067  0.1289
  584MOL0     H78834   9.493   3.676   9.165 -4.1849 -2.6129  0.5006
  584MOL0     H78835   9.536   3.569   9.032 -0.1413 -0.9468  1.3031
  584MOL0     H78836   9.764   3.640   9.079 -2.0740  1.9085 -0.3043
  584MOL0     H78837   9.761   3.508   9.197  1.4309  1.2754  0.8008
  584MOL0     H78838   9.769   3.884   9.404 -0.4518 -1.0867  2.2166
  584MOL0     H78839   9.134   3.711   9.245  2.1524 -1.2752 -0.5016
  584MOL0     H78840   8.939   3.798   9.107  0.4183  0.1377 -2.6424
  585MOL0     O78841   7.799   2.185   8.605 -0.3240  0.0209 -0.0998
  585MOL0     C78842   7.823   2.306   8.627  0.3794 -0.7803 -0.5597
  585MOL0     O78843   7.943   2.371   8.616  0.0607  0.6272  0.0597
  585MOL0     C78844   8.053   2.293   8.578  0.3941  0.0359  0.1226
  585MOL0     C78845   8.090   2.180   8.656  0.2476 -0.0889  0.1909
  585MOL0     C78846   8.199   2.101   8.627  0.1262  1.2566  0.4383
  585MOL0     C78847   8.270   2.127   8.514  0.5093 -0.1785  1.0493
  585MOL0     O78848   8.369   2.036   8.491 -0.1220  0.6066  0.0262
  585MOL0     C78849   8.450   2.038   8.369  0.7440 -0.0974 -0.6151
  585MOL0     C78850   8.371   1.978   8.248  0.3761 -0.6353  0.6429
  585MOL0     C78851   8.355   1.833   8.255 -0.1263  0.3022  0.3726
  585MOL0     C78852   8.276   1.785   8.126 -0.0816  0.2156 -0.0224
  585MOL0     C78853   8.225   1.647   8.156 -0.1184  0.5018 -0.0994
  585MOL0     C78854   8.157   1.582   8.038 -0.0155 -0.0407  0.2631
  585MOL0     C78855   8.039   1.674   7.979  0.1393 -0.1508 -0.0813
  585MOL0     C78856   7.943   1.588   7.889 -0.2669  0.3039  0.0091
  585MOL0     N78857   7.822   1.668   7.875 -0.3475 -0.3184 -0.2183
  585MOL0     C78858   7.800   1.799   7.852 -0.7536 -0.7939  0.2309
  585MOL0     C78859   7.668   1.807   7.813 -0.9613 -0.4648 -0.1376
  585MOL0     C78860   7.609   1.943   7.770 -0.3270  0.5916 -0.4957
  585MOL0     C78861   7.544   1.922   7.628  0.2851 -0.7075 -1.2881
  585MOL0     C78862   7.530   2.048   7.544 -1.0928  0.4265 -0.0090
  585MOL0     C78863   7.455   2.159   7.615  0.6756  0.2408 -0.5277
  585MOL0     O78864   7.331   2.090   7.652  0.3156  0.0692  0.2102
  585MOL0     C78865   7.233   2.075   7.550 -0.2418 -0.3369 -0.3073
  585MOL0     C78866   7.210   2.158   7.443  0.4561 -0.0426 -0.1626
  585MOL0     C78867   7.121   2.129   7.341 -1.1066 -0.1740 -0.7225
  585MOL0     C78868   7.122   2.234   7.228 -0.1161 -0.1766 -0.2673
  585MOL0     C78869   7.034   2.023   7.348  0.5105  0.6491 -0.7253
  585MOL0     C78870   6.923   1.999   7.252  0.2511  0.3056 -0.0228
  585MOL0     O78871   6.874   1.872   7.258  0.3367  0.1052  0.0079
  585MOL0     C78872   6.822   1.812   7.140  0.9849 -0.3671  0.1539
  585MOL0     C78873   6.877   1.820   7.004 -0.0622  0.1907  0.4369
  585MOL0     C78874   6.816   1.760   6.893  0.1731  0.0203  0.1232
  585MOL0     C78875   6.696   1.698   6.906  0.6602 -0.1434  0.9207
  585MOL0     O78876   6.629   1.647   6.806 -0.1873  0.3227  0.4887
  585MOL0     C78877   6.622   1.721   6.689 -0.2162  0.2649  0.0673
  585MOL0     C78878   6.559   1.634   6.581 -0.6541 -0.0112 -1.2492
  585MOL0     C78879   6.407   1.634   6.590 -0.1170 -0.3265  0.1259
  585MOL0     C78880   6.337   1.595   6.453 -0.3385  0.2141  0.1965
  585MOL0     C78881   6.193   1.624   6.466  0.5445  0.1886  0.8149
  585MOL0     C78882   6.120   1.604   6.337  0.0320  0.9111 -0.2442
  585MOL0     C78883   5.965   1.614   6.355 -0.4857  0.0241  0.5701
  585MOL0     C78884   5.888   1.642   6.221 -0.2828  0.5072 -0.1987
  585MOL0    Cl78885   5.726   1.574   6.251 -0.3951 -0.1546 -0.2246
  585MOL0     C78886   6.632   1.686   7.036 -0.8195 -0.3830 -0.5134
  585MOL0     C78887   6.705   1.736   7.146  0.4834  0.5338  0.1735
  585MOL0     O78888   6.866   2.088   7.192 -1.1781 -0.1445  0.3951
  585MOL0     C78889   7.039   1.946   7.466 -0.1689  0.1294 -0.5023
  585MOL0     C78890   7.141   1.972   7.562 -0.1549  0.7219  0.0618
  585MOL0     N78891   7.611   1.688   7.841  0.1669 -0.1609 -0.4787
  585MOL0     N78892   7.702   1.608   7.867  0.8335  0.8332  0.1758
  585MOL0     C78893   8.244   2.240   8.438  0.2181 -0.2664 -0.4096
  585MOL0     C78894   8.135   2.322   8.467 -1.0011 -0.6202 -0.0133
  585MOL0     C78895   7.706   2.400   8.637 -0.5024  0.8580  0.3455
  585MOL0     C78896   7.580   2.363   8.614 -0.5539  0.5971 -0.0136
  585MOL0     C78897   7.482   2.462   8.608  1.2000  0.1457 -0.0710
  585MOL0     C78898   7.503   2.593   8.644  0.1474  0.1995  0.8294
  585MOL0     O78899   7.403   2.685   8.662  0.2600 -0.9016  0.5726
  585MOL0     C78900   7.275   2.670   8.598 -0.7624  0.3395 -0.0004
  585MOL0     C78901   7.197   2.798   8.617  0.4792 -0.2494 -0.4594
  585MOL0     C78902   7.130   2.795   8.751  0.5992  0.1288  0.6709
  585MOL0     C78903   7.047   2.928   8.780 -0.4151 -0.4395  0.2578
  585MOL0     C78904   7.129   3.052   8.766  0.5932  0.5909 -0.3740
  585MOL0     C78905   7.200   3.153   8.748  0.6819 -0.7153 -0.2262
  585MOL0     C78906   7.630   2.630   8.678  1.2070  0.0578  0.1055
  585MOL0     C78907   7.731   2.533   8.673 -0.3898  0.0749 -0.0601
  585MOL0     H78908   8.028   2.155   8.742  1.0085 -2.0337  0.2207
  585MOL0     H78909   8.224   2.015   8.688  0.6647  1.2229  0.1788
  585MOL0     H78910   8.473   2.142   8.345  0.0402  0.8030  2.2766
  585MOL0     H78911   8.542   1.989   8.401 -0.2333 -0.5422  1.6540
  585MOL0     H78912   8.273   2.027   8.246 -0.3486 -1.9351 -2.4939
  585MOL0     H78913   8.422   2.010   8.156  0.5610  1.3966  1.4021
  585MOL0     H78914   8.450   1.778   8.260  0.3169  1.0355  0.1868
  585MOL0     H78915   8.295   1.809   8.343  0.5750 -3.6073 -0.0388
  585MOL0     H78916   8.193   1.851   8.100  1.3367  1.5654 -1.2804
  585MOL0     H78917   8.328   1.800   8.031 -1.0159 -1.5147 -0.8475
  585MOL0     H78918   8.306   1.584   8.193 -0.2402  1.5020  2.0297
  585MOL0     H78919   8.147   1.661   8.231 -0.5078 -0.4411 -0.3174
  585MOL0     H78920   8.229   1.555   7.961  1.6415  1.8227  1.0814
  585MOL0     H78921   8.108   1.489   8.067 -1.6783  0.5237 -0.5652
  585MOL0     H78922   7.973   1.715   8.056 -1.2507  0.3749 -1.4912
  585MOL0     H78923   8.071   1.763   7.924  0.3378 -0.5207 -0.5783
  585MOL0     H78924   7.912   1.497   7.941 -3.8012  3.0997  3.3741
  585MOL0     H78925   7.994   1.568   7.794 -0.0804  1.1601 -0.0821
  585MOL0     H78926   7.877   1.876   7.854 -0.5219 -1.0418  1.0859
  585MOL0     H78927   7.534   1.976   7.843  1.4283  0.8389  1.2622
  585MOL0     H78928   7.687   2.018   7.761  1.7315 -1.2878  0.6768
  585MOL0     H78929   7.450   1.869   7.646  0.4547 -1.1818 -1.7447
  585MOL0     H78930   7.597   1.847   7.567 -1.8753 -1.0510 -2.8660
  585MOL0     H78931   7.506   2.041   7.437 -2.0557  4.6009 -0.2114
  585MOL0     H78932   7.634   2.082   7.538 -0.5408 -1.2184 -0.3158
  585MOL0     H78933   7.446   2.254   7.561 -0.1530  0.5310  0.1034
  585MOL0     H78934   7.507   2.181   7.708 -0.3606 -0.7720  0.3260
  585MOL0     H78935   7.270   2.248   7.434 -1.2731  1.2797  1.1023
  585MOL0     H78936   7.083   2.186   7.138  1.9267  1.2138 -1.9713
  585MOL0     H78937   7.047   2.309   7.256  0.0573 -0.5393  1.2646
  585MOL0     H78938   7.214   2.292   7.215 -0.5457  0.4918 -0.3598
  585MOL0     H78939   6.973   1.869   6.988 -0.8583  1.7911  0.3295
  585MOL0     H78940   6.871   1.763   6.800 -0.3988 -1.3215 -0.2734
  585MOL0     H78941   6.568   1.816   6.697  0.2732  1.1862 -4.6057
  585MOL0     H78942   6.720   1.758   6.658 -1.8659  2.8308 -2.7858
  585MOL0     H78943   6.575   1.680   6.483  0.2237 -0.7192 -1.4543
  585MOL0     H78944   6.604   1.535   6.571 -0.2806 -0.1382  1.1111
  585MOL0     H78945   6.368   1.733   6.618 -0.5253 -0.4148 -0.1116
  585MOL0     H78946   6.375   1.560   6.664  0.9084  0.7905  1.7352
  585MOL0     H78947   6.381   1.660   6.376  0.2811  0.5610  0.8401
  585MOL0     H78948   6.364   1.490   6.438  1.2004  0.0121  3.4872
  585MOL0     H78949   6.186   1.728   6.496 -1.0994  0.5273 -0.5704
  585MOL0     H78950   6.148   1.561   6.543 -0.0451  2.3586  2.3126
  585MOL0     H78951   6.163   1.675   6.265  3.5799 -0.2128  0.5793
  585MOL0     H78952   6.146   1.503   6.302 -0.1137 -0.0459  2.2160
  585MOL0     H78953   5.933   1.685   6.431  0.0081 -1.7424  2.4989
  585MOL0     H78954   5.930   1.517   6.391 -1.2201 -0.2301 -0.7519
  585MOL0     H78955   5.913   1.589   6.129 -3.7077  0.9903 -1.5669
  585MOL0     H78956   5.886   1.749   6.197  0.4759  1.1683  2.4005
  585MOL0     H78957   6.529   1.650   7.040 -1.3888  1.2734  1.8354
  585MOL0     H78958   6.658   1.721   7.243 -0.4937  1.3641 -0.1523
  585MOL0     H78959   6.966   1.868   7.483  0.0155  0.1967  0.7258
  585MOL0     H78960   7.142   1.911   7.652 -0.8255 -0.7623 -0.8932
  585MOL0     H78961   8.320   2.269   8.366  0.1921  2.2073  0.4717
  585MOL0     H78962   8.115   2.411   8.408  0.1163 -1.3268 -1.5294
  585MOL0     H78963   7.553   2.265   8.578  1.4755 -0.5297  1.3262
  585MOL0     H78964   7.388   2.410   8.591  1.4443 -0.5905  0.7710
  585MOL0     H78965   7.286   2.640   8.493 -1.5750 -1.4109  0.3760
  585MOL0     H78966   7.231   2.573   8.626  0.4530 -0.5100 -0.9034
  585MOL0     H78967   7.126   2.799   8.534  0.8017 -2.8190 -0.8502
  585MOL0     H78968   7.259   2.887   8.605 -0.1657  0.6013  1.9959
  585MOL0     H78969   7.206   2.786   8.829  0.3312  0.9448  1.0343
  585MOL0     H78970   7.072   2.702   8.750  1.0731 -0.1818 -0.8311
  585MOL0     H78971   7.012   2.923   8.883  1.0337 -0.1290  0.7808
  585MOL0     H78972   6.962   2.921   8.711  0.1224  1.8547 -0.7400
  585MOL0     H78973   7.265   3.239   8.751  0.4052 -0.5231  1.6774
  585MOL0     H78974   7.646   2.732   8.710 -1.8076 -0.5965  4.6419
  585MOL0     H78975   7.833   2.569   8.687  1.3712 -3.2947 -2.6544
  586MOL0     O78976   6.127   0.083   4.685  0.3010  0.1904 -0.2403
  586MOL0     C78977   6.201   0.180   4.717 -0.3157 -0.0870  1.0340
  586MOL0     O78978   6.171   0.290   4.794 -0.5449 -0.2934 -0.1231
  586MOL0     C78979   6.040   0.308   4.848  1.0356 -0.6067 -0.7163
  586MOL0     C78980   6.011   0.377   4.963  0.8964  0.6263 -0.3580
  586MOL0     C78981   5.872   0.388   5.011 -0.5232  0.2713  0.2988
  586MOL0     C78982   5.762   0.327   4.951  0.3346  0.3725  0.3914
  586MOL0     O78983   5.634   0.345   5.003  0.1123 -0.4338  0.2237
  586MOL0     C78984   5.513   0.345   4.924 -0.6227 -0.9128  0.6917
  586MOL0     C78985   5.442   0.210   4.948 -0.7458  0.3254 -0.8509
  586MOL0     C78986   5.388   0.182   5.088 -0.3588  0.1995  0.4164
  586MOL0     C78987   5.239   0.229   5.104  0.7212  0.2728  0.3201
  586MOL0     C78988   5.193   0.173   5.240  0.5440 -0.4571  0.2577
  586MOL0     C78989   5.046   0.190   5.272 -0.1327  0.5261  1.6087
  586MOL0     C78990   5.017   0.150   5.410 -0.4936 -0.6993  0.0607
  586MOL0     C78991   4.864   0.144   5.439 -0.0004 -0.2177  0.3230
  586MOL0     N78992   4.820   0.087   5.567  0.2268  0.3079  0.3047
  586MOL0     C78993   4.846   0.147   5.688 -0.6283  0.5373  0.6524
  586MOL0     C78994   4.780   0.063   5.769  0.4451  0.2445  0.2809
  586MOL0     C78995   4.756   0.095   5.915  0.3910  0.6713 -0.0815
  586MOL0     C78996   4.615   0.047   5.975  0.3893  0.6763 -0.0893
  586MOL0     C78997   4.585   0.104   6.116  0.9223 -0.1897  0.9980
  586MOL0     C78998   4.435   0.110   6.127 -0.2300  0.1613  0.1226
  586MOL0     O78999   4.395   0.147   6.261 -0.5974  0.2352 -0.8409
  586MOL0     C79000   4.411   0.054   6.364 -0.0222  0.3710 -0.9225
  586MOL0     C79001   4.405   0.102   6.490  0.3693 -0.4998 -0.3440
  586MOL0     C79002   4.420   0.022   6.605 -0.1239 -0.8794  0.3395
  586MOL0     C79003   4.406   0.088   6.744 -0.2070 -0.2794 -0.4221
  586MOL0     C79004   4.449  -0.122   6.593  0.6154 -0.2067 -0.0895
  586MOL0     C79005   4.491  -0.211   6.700  0.6987 -0.0553  0.4406
  586MOL0     O79006   4.559  -0.154   6.803  0.3867 -0.1647  0.1046
  586MOL0     C79007   4.590  -0.237   6.907 -0.0431 -1.2441 -0.3639
  586MOL0     C79008   4.523  -0.352   6.961  0.2371 -0.7963 -0.0727
  586MOL0     C79009   4.560  -0.415   7.090 -0.2240 -0.4162  0.0218
  586MOL0     C79010   4.678  -0.382   7.145  0.5808  0.4205 -0.5081
  586MOL0     O79011   4.733  -0.447   7.255 -0.4214 -0.4005  0.4238
  586MOL0     C79012   4.673  -0.562   7.314 -0.0223  0.3944  0.3115
  586MOL0     C79013   4.761  -0.634   7.411 -0.5074  0.7167 -0.4202
  586MOL0     C79014   4.731  -0.769   7.454 -0.2351  0.9200  0.7164
  586MOL0     C79015   4.839  -0.823   7.546 -0.1327 -0.7152 -0.2576
  586MOL0     C79016   4.847  -0.971   7.576 -0.4199 -0.3583  0.0940
  586MOL0     C79017   4.708  -1.022   7.641 -1.1284  0.6943 -0.2936
  586MOL0     C79018   4.670  -0.950   7.766  0.0714 -0.6097  0.8282
  586MOL0     C79019   4.532  -1.008   7.805 -0.0234  0.1550 -0.5936
  586MOL0    Cl79020   4.412  -0.940   7.685 -0.1413 -0.6442 -0.1476
  586MOL0     C79021   4.751  -0.273   7.094 -0.1180 -0.0832  0.4477
  586MOL0     C79022   4.709  -0.200   6.983 -0.4653 -0.3003 -0.8443
  586MOL0     O79023   4.459  -0.325   6.691 -0.1204 -0.5133  0.0511
  586MOL0     C79024   4.463  -0.161   6.464  0.4245  1.4301  0.5930
  586MOL0     C79025   4.440  -0.086   6.350 -0.1179  0.2248  0.2580
  586MOL0     N79026   4.722  -0.045   5.706  0.9044  0.4210  0.1913
  586MOL0     N79027   4.751  -0.028   5.582 -0.4312  0.2259 -0.2738
  586MOL0     C79028   5.793   0.267   4.823  0.2016  0.0310 -1.1218
  586MOL0     C79029   5.924   0.268   4.777  0.4180  0.1241 -0.3537
  586MOL0     C79030   6.339   0.171   4.659  0.5048  0.8584 -1.2724
  586MOL0     C79031   6.376   0.071   4.572 -0.2924  0.4644 -0.0228
  586MOL0     C79032   6.506   0.053   4.527 -1.2483  0.5612 -0.0767
  586MOL0     C79033   6.600   0.143   4.571  0.2124 -0.3229 -0.2800
  586MOL0     O79034   6.727   0.119   4.530  0.0152  0.0891 -0.5375
  586MOL0     C79035   6.813   0.236   4.524  0.5707  0.4649  0.5288
  586MOL0     C79036   6.925   0.214   4.412 -0.3890  0.3067 -1.0732
  586MOL0     C79037   6.863   0.193   4.275  0.3566 -0.2849 -1.2075
  586MOL0     C79038   6.937   0.237   4.148 -0.5511  0.3789 -0.3523
  586MOL0     C79039   6.884   0.362   4.092  0.1253  0.1698  0.0876
  586MOL0     C79040   6.820   0.452   4.040 -0.7305  0.9159 -0.2334
  586MOL0     C79041   6.567   0.247   4.662 -0.4307  0.1578  0.1859
  586MOL0     C79042   6.433   0.268   4.697 -0.9474 -0.2607  0.0371
  586MOL0     H79043   6.087   0.439   5.008  2.6462 -0.1032 -2.1620
  586MOL0     H79044   5.848   0.449   5.097  1.6248  1.1609  0.3248
  586MOL0     H79045   5.436   0.418   4.955  4.1272  4.9336  0.6310
  586MOL0     H79046   5.532   0.353   4.817 -1.5750  1.2574  0.6252
  586MOL0     H79047   5.355   0.198   4.883 -0.8229 -0.7605 -0.5751
  586MOL0     H79048   5.517   0.139   4.913 -1.6395 -0.3811 -1.3566
  586MOL0     H79049   5.391   0.074   5.103  0.3836  0.2537  0.7008
  586MOL0     H79050   5.458   0.221   5.162 -1.6617  1.8180  0.8503
  586MOL0     H79051   5.232   0.338   5.111 -1.0351  0.3290 -1.4321
  586MOL0     H79052   5.181   0.193   5.019  3.4128 -0.2159 -1.4104
  586MOL0     H79053   5.214   0.065   5.234  3.4004 -0.0250  1.0729
  586MOL0     H79054   5.247   0.216   5.324 -1.8334 -0.5681  1.9441
  586MOL0     H79055   5.023   0.294   5.247  2.8369  0.3524 -3.0148
  586MOL0     H79056   4.986   0.123   5.209  0.3624 -0.8928  2.5803
  586MOL0     H79057   5.062   0.053   5.428 -1.9544 -1.4562 -0.2099
  586MOL0     H79058   5.071   0.222   5.472  0.0092  0.6017 -1.7924
  586MOL0     H79059   4.812   0.084   5.363 -1.3066 -0.2009  1.1810
  586MOL0     H79060   4.828   0.247   5.438  1.3115  0.2629  1.0590
  586MOL0     H79061   4.893   0.242   5.714  1.3429  0.5404 -2.3396
  586MOL0     H79062   4.843   0.045   5.960  1.3406  0.8966 -1.5808
  586MOL0     H79063   4.770   0.202   5.935  2.9470  0.2137  1.0287
  586MOL0     H79064   4.618  -0.060   5.994  2.2355  0.6892 -0.1622
  586MOL0     H79065   4.542   0.086   5.903  0.6512  1.6600  0.1549
  586MOL0     H79066   4.619   0.206   6.140  0.2272 -0.1720  2.0163
  586MOL0     H79067   4.626   0.039   6.194  0.3441 -0.5380  1.0156
  586MOL0     H79068   4.391   0.011   6.110 -0.1884 -0.6993  4.1045
  586MOL0     H79069   4.392   0.188   6.063 -1.2028  0.5320  1.1866
  586MOL0     H79070   4.381   0.208   6.495  0.7019 -0.3048 -2.0665
  586MOL0     H79071   4.508   0.123   6.767 -1.2300  4.5688 -2.0934
  586MOL0     H79072   4.349   0.181   6.753  0.9930  0.3865  0.7093
  586MOL0     H79073   4.369   0.013   6.814  0.1066  2.4093  2.9178
  586MOL0     H79074   4.424  -0.380   6.926 -0.2821  0.8701 -0.0425
  586MOL0     H79075   4.487  -0.482   7.134 -2.4874  1.5174 -0.6199
  586MOL0     H79076   4.578  -0.533   7.361  0.7000  1.4124  1.1724
  586MOL0     H79077   4.661  -0.631   7.230  1.1549 -0.6755  0.9847
  586MOL0     H79078   4.859  -0.639   7.361  0.3686 -0.8735  1.3471
  586MOL0     H79079   4.765  -0.568   7.499 -2.5054 -0.2161  0.4220
  586MOL0     H79080   4.738  -0.835   7.367  1.2832  0.3531  1.2423
  586MOL0     H79081   4.634  -0.778   7.505 -1.1579  2.4690 -0.6272
  586MOL0     H79082   4.935  -0.791   7.503 -0.7701  0.9575 -0.5354
  586MOL0     H79083   4.822  -0.766   7.638  0.2046  0.7726 -1.0747
  586MOL0     H79084   4.932  -0.981   7.645  0.4871  0.1906 -0.9067
  586MOL0     H79085   4.868  -1.028   7.485  0.9388 -0.2749  0.3330
  586MOL0     H79086   4.628  -0.997   7.571 -0.3322  2.1589 -0.7416
  586MOL0     H79087   4.715  -1.129   7.662 -0.1736  1.0905  1.6400
  586MOL0     H79088   4.660  -0.844   7.741  3.0045 -0.6299 -0.8834
  586MOL0     H79089   4.750  -0.969   7.838  0.7724  1.2747  0.6266
  586MOL0     H79090   4.502  -0.991   7.909 -1.2224  0.6866 -1.0098
  586MOL0     H79091   4.540  -1.116   7.789  2.8619 -0.3442  2.9912
  586MOL0     H79092   4.844  -0.241   7.139 -0.1911  4.7469 -2.2189
  586MOL0     H79093   4.770  -0.114   6.956 -1.1216  0.3911 -0.1681
  586MOL0     H79094   4.499  -0.263   6.451 -1.2695  0.5651  2.3099
  586MOL0     H79095   4.460  -0.134   6.255  1.6967 -0.3584  0.8964
  586MOL0     H79096   5.719   0.200   4.779 -0.0512 -0.3214 -0.1893
  586MOL0     H79097   5.933   0.230   4.676 -2.6147 -1.4791 -0.1019
  586MOL0     H79098   6.299   0.004   4.536 -0.2591  0.8978 -0.9275
  586MOL0     H79099   6.537  -0.024   4.457 -2.6105  0.3429 -0.4625
  586MOL0     H79100   6.757   0.326   4.495 -2.7755 -1.4374  0.5915
  586MOL0     H79101   6.866   0.255   4.618  0.5445 -5.0152  2.0011
  586MOL0     H79102   6.977   0.125   4.448 -2.7468  0.2722  2.9002
  586MOL0     H79103   6.991   0.301   4.417 -1.7314  1.3088  0.0089
  586MOL0     H79104   6.769   0.248   4.267  1.4303  1.6639 -0.9861
  586MOL0     H79105   6.836   0.087   4.269  0.3505 -0.3121 -0.7754
  586MOL0     H79106   6.944   0.173   4.060 -2.6360  0.6769 -0.7825
  586MOL0     H79107   7.041   0.248   4.181 -1.1792 -0.2568  2.0357
  586MOL0     H79108   6.762   0.523   3.984 -1.8243  2.5172  2.7109
  586MOL0     H79109   6.650   0.294   4.714 -1.8062  0.6932  2.0143
  586MOL0     H79110   6.405   0.350   4.762  0.1367  0.9699 -0.9755
  587MOL0     O79111   1.735   6.481   0.285 -0.3900 -0.8421 -0.5396
  587MOL0     C79112   1.655   6.394   0.245 -0.6933  0.4358 -0.0776
  587MOL0     O79113   1.607   6.382   0.117 -0.5314 -0.9587  0.0941
  587MOL0     C79114   1.643   6.462   0.012 -0.2064  0.3055  0.7318
  587MOL0     C79115   1.759   6.539   0.013  0.2277  0.3314  0.4207
  587MOL0     C79116   1.784   6.618  -0.100  0.1966 -0.4022  0.0030
  587MOL0     C79117   1.683   6.636  -0.199 -0.2707  0.5180 -0.2065
  587MOL0     O79118   1.685   6.713  -0.309 -0.3812 -0.1720  0.8833
  587MOL0     C79119   1.801   6.776  -0.361  0.0758 -0.5904  0.0615
  587MOL0     C79120   1.758   6.825  -0.492 -0.0141  0.1090 -0.3093
  587MOL0     C79121   1.726   6.693  -0.584 -0.1793 -0.0263 -0.9052
  587MOL0     C79122   1.712   6.747  -0.720 -0.6019  0.2141  0.0531
  587MOL0     C79123   1.648   6.641  -0.816 -1.0064 -0.5386  0.6170
  587MOL0     C79124   1.609   6.704  -0.956  0.4120  0.6067 -0.4823
  587MOL0     C79125   1.529   6.606  -1.044  0.6691  0.9471 -0.6867
  587MOL0     C79126   1.477   6.679  -1.163 -0.5289  0.9495  1.0591
  587MOL0     N79127   1.396   6.584  -1.249 -0.3112 -0.2287 -0.5074
  587MOL0     C79128   1.254   6.578  -1.248  0.1742  0.9279  0.8664
  587MOL0     C79129   1.224   6.501  -1.357  0.0273  1.0485  0.3811
  587MOL0     C79130   1.083   6.453  -1.397 -0.4475 -0.8986  0.4070
  587MOL0     C79131   0.995   6.579  -1.425  0.8746  0.7007  0.6107
  587MOL0     C79132   0.850   6.531  -1.453  0.3507 -0.3995  0.3476
  587MOL0     C79133   0.748   6.644  -1.442  0.4133  0.5031 -0.3971
  587MOL0     O79134   0.785   6.758  -1.514  0.2587  0.3067  0.4453
  587MOL0     C79135   0.684   6.854  -1.539  0.7423 -0.0637  0.0560
  587MOL0     C79136   0.676   6.917  -1.657 -0.2297  1.0872  0.0507
  587MOL0     C79137   0.565   7.001  -1.700 -0.3738  0.3745 -0.5206
  587MOL0     C79138   0.581   7.068  -1.834  0.6216 -0.2105  0.3151
  587MOL0     C79139   0.462   7.025  -1.597  0.6263  0.7979  0.3547
  587MOL0     C79140   0.341   7.102  -1.630 -1.4646  0.3477 -0.2841
  587MOL0     O79141   0.322   7.137  -1.756  0.0453  0.4639  0.0678
  587MOL0     C79142   0.257   7.255  -1.777 -0.1627 -1.3737  0.8607
  587MOL0     C79143   0.146   7.278  -1.859  0.1380  0.0837 -0.8432
  587MOL0     C79144   0.087   7.402  -1.883  0.4115 -0.3078  0.2208
  587MOL0     C79145   0.142   7.518  -1.817  0.6375 -0.2882  0.2458
  587MOL0     O79146   0.097   7.647  -1.847  1.1264  0.0234  0.1279
  587MOL0     C79147  -0.040   7.669  -1.893 -0.3212  0.0711  0.2199
  587MOL0     C79148  -0.140   7.637  -1.780 -0.0218  0.0549  0.2853
  587MOL0     C79149  -0.283   7.696  -1.809  0.7551 -0.5214 -0.7012
  587MOL0     C79150  -0.365   7.636  -1.928 -0.5978 -0.5172 -0.1003
  587MOL0     C79151  -0.514   7.647  -1.915 -0.4214 -0.3110 -0.4401
  587MOL0     C79152  -0.579   7.790  -1.936  0.0907  0.4195 -0.4072
  587MOL0     C79153  -0.735   7.780  -1.944  0.1923 -0.6613 -0.7429
  587MOL0     C79154  -0.785   7.698  -2.069  0.3214 -0.4576 -0.3698
  587MOL0    Cl79155  -0.964   7.686  -2.056 -0.0107 -0.3920  0.1092
  587MOL0     C79156   0.262   7.503  -1.744 -0.6253  1.4435  0.4953
  587MOL0     C79157   0.317   7.373  -1.722 -0.3061 -0.4435 -0.1697
  587MOL0     O79158   0.256   7.118  -1.542  0.1781  0.6105  0.3204
  587MOL0     C79159   0.466   6.962  -1.477  0.3875  0.6349  0.0831
  587MOL0     C79160   0.573   6.876  -1.452 -0.2363  0.2212 -0.4565
  587MOL0     N79161   1.350   6.467  -1.421  0.2184 -0.6579  0.2039
  587MOL0     N79162   1.442   6.502  -1.345 -0.2611 -0.3113  0.2224
  587MOL0     C79163   1.580   6.546  -0.200  0.6157 -0.4291  0.1029
  587MOL0     C79164   1.555   6.466  -0.089 -0.5853 -0.2584 -0.0545
  587MOL0     C79165   1.612   6.286   0.343 -0.2594  1.3706 -0.0043
  587MOL0     C79166   1.531   6.186   0.299  0.4138 -0.1392 -0.2955
  587MOL0     C79167   1.488   6.089   0.395 -0.2068 -0.7686  0.9208
  587MOL0     C79168   1.524   6.095   0.526  0.1446  0.0871 -0.5187
  587MOL0     O79169   1.443   6.028   0.624 -0.4578  0.0870 -0.6818
  587MOL0     C79170   1.323   5.955   0.592  0.2125  0.5695  0.1531
  587MOL0     C79171   1.245   5.910   0.720  1.0406 -0.3814  0.2529
  587MOL0     C79172   1.334   5.828   0.818 -0.3255 -0.9632 -0.4898
  587MOL0     C79173   1.261   5.768   0.936 -0.6102 -0.2968 -0.3038
  587MOL0     C79174   1.182   5.877   1.004 -0.1884  0.1382  0.4219
  587MOL0     C79175   1.100   5.951   1.051 -0.5207 -0.3141  0.0426
  587MOL0     C79176   1.622   6.189   0.560 -0.4372 -0.0296  0.1915
  587MOL0     C79177   1.657   6.287   0.478  0.1761 -0.0298 -0.0559
  587MOL0     H79178   1.836   6.544   0.089 -0.1193  0.3376  0.7747
  587MOL0     H79179   1.881   6.666  -0.102 -0.1708  0.3586 -1.5589
  587MOL0     H79180   1.824   6.868  -0.306 -2.6806  1.5839 -2.0810
  587MOL0     H79181   1.899   6.727  -0.363  1.2822  1.6298  1.1047
  587MOL0     H79182   1.666   6.883  -0.498  2.3552  4.1703 -0.6332
  587MOL0     H79183   1.837   6.886  -0.535  2.7777 -1.6036  2.0253
  587MOL0     H79184   1.805   6.618  -0.573 -0.5834 -0.1908  1.4371
  587MOL0     H79185   1.630   6.653  -0.549 -0.6467  0.3086 -1.7850
  587MOL0     H79186   1.649   6.836  -0.729 -0.6390 -0.0256 -3.3321
  587MOL0     H79187   1.814   6.772  -0.750 -0.3589 -1.2768 -0.4238
  587MOL0     H79188   1.731   6.570  -0.821 -1.3865 -1.2659  3.1762
  587MOL0     H79189   1.566   6.594  -0.761 -2.1025  0.7060  0.1032
  587MOL0     H79190   1.551   6.794  -0.936 -1.9094 -0.8200 -0.4387
  587MOL0     H79191   1.690   6.743  -1.017 -0.0244  3.0967  0.4146
  587MOL0     H79192   1.602   6.530  -1.074  2.0464  1.1931  1.7062
  587MOL0     H79193   1.445   6.562  -0.989  1.8316  2.0837  2.2147
  587MOL0     H79194   1.560   6.722  -1.220 -0.8856  2.8810  1.9199
  587MOL0     H79195   1.395   6.747  -1.140  0.7335  1.2933  5.2845
  587MOL0     H79196   1.178   6.631  -1.192 -0.6484  1.4031 -0.6341
  587MOL0     H79197   1.076   6.387  -1.484 -0.4780  2.4065 -2.3142
  587MOL0     H79198   1.045   6.400  -1.309  1.9441 -2.7262  0.4413
  587MOL0     H79199   1.043   6.626  -1.511 -0.7759 -0.2450 -0.8965
  587MOL0     H79200   0.984   6.651  -1.344  0.8334  0.0041  1.2366
  587MOL0     H79201   0.826   6.443  -1.393 -0.9355  0.3557  0.9741
  587MOL0     H79202   0.846   6.487  -1.553 -2.9360 -2.8433  1.3998
  587MOL0     H79203   0.732   6.667  -1.336 -1.1870 -1.9576 -0.0016
  587MOL0     H79204   0.653   6.602  -1.477  0.7076 -0.6472  0.1369
  587MOL0     H79205   0.761   6.903  -1.723  1.6745 -0.5591  2.6262
  587MOL0     H79206   0.498   7.050  -1.904 -0.1522 -0.4439  1.2620
  587MOL0     H79207   0.587   7.175  -1.818  1.3483  0.2712 -2.5465
  587MOL0     H79208   0.675   7.044  -1.883  1.4048  2.8911  0.1156
  587MOL0     H79209   0.106   7.191  -1.910 -1.4797 -1.2945  2.4903
  587MOL0     H79210   0.003   7.413  -1.951  0.6269  2.1286  0.2561
  587MOL0     H79211  -0.054   7.775  -1.914 -1.1202 -0.3583 -1.6099
  587MOL0     H79212  -0.060   7.609  -1.982  1.0082 -0.5545  0.3144
  587MOL0     H79213  -0.156   7.530  -1.764 -1.7623  0.6184  2.8680
  587MOL0     H79214  -0.092   7.675  -1.689  0.9429 -1.5767  0.4985
  587MOL0     H79215  -0.272   7.801  -1.837 -0.1645 -0.7756 -2.1385
  587MOL0     H79216  -0.340   7.669  -1.720  0.4263  2.8584  0.2404
  587MOL0     H79217  -0.327   7.676  -2.023 -0.0209 -4.5441 -1.7805
  587MOL0     H79218  -0.339   7.530  -1.934 -0.4157 -0.3878 -3.7677
  587MOL0     H79219  -0.538   7.610  -1.815  2.1987 -1.6964 -0.2127
  587MOL0     H79220  -0.552   7.569  -1.981 -1.4909 -0.1941  0.0288
  587MOL0     H79221  -0.537   7.856  -1.859 -4.8294  1.2133  2.0167
  587MOL0     H79222  -0.543   7.829  -2.031 -3.0726  1.3890 -1.3275
  587MOL0     H79223  -0.791   7.873  -1.952  0.0040 -0.6772  0.3261
  587MOL0     H79224  -0.752   7.727  -1.850 -1.6805  0.6664 -0.2971
  587MOL0     H79225  -0.753   7.594  -2.067 -1.1684 -0.9470 -0.4219
  587MOL0     H79226  -0.757   7.744  -2.165  1.0705 -2.2455 -1.0364
  587MOL0     H79227   0.313   7.590  -1.704  0.4036  1.0233  0.1260
  587MOL0     H79228   0.406   7.360  -1.662 -0.9455 -0.8926  0.7083
  587MOL0     H79229   0.391   6.969  -1.399 -2.0901 -4.9063 -1.2869
  587MOL0     H79230   0.582   6.828  -1.355  4.1421  0.6352 -0.4291
  587MOL0     H79231   1.508   6.556  -0.281 -0.5774 -1.0388  1.0421
  587MOL0     H79232   1.463   6.409  -0.095  0.0149 -1.1725 -0.8817
  587MOL0     H79233   1.509   6.185   0.193  0.9396 -1.9094 -0.4073
  587MOL0     H79234   1.419   6.013   0.360  0.2556 -1.0254  0.5579
  587MOL0     H79235   1.258   6.006   0.520  1.4422 -0.1450 -1.4974
  587MOL0     H79236   1.345   5.866   0.534  0.8946 -1.3194  3.0824
  587MOL0     H79237   1.159   5.852   0.685  0.7273  0.4890 -0.4491
  587MOL0     H79238   1.200   6.000   0.763 -1.1955 -1.5036  0.4128
  587MOL0     H79239   1.416   5.898   0.836 -1.1258 -0.3740  0.9990
  587MOL0     H79240   1.368   5.739   0.764  0.9412 -0.8044  0.0115
  587MOL0     H79241   1.326   5.726   1.014 -2.0002  1.1803  1.7523
  587MOL0     H79242   1.201   5.681   0.909  0.4753 -0.8033 -1.1612
  587MOL0     H79243   1.023   6.003   1.105 -3.5473 -2.6046 -1.7180
  587MOL0     H79244   1.651   6.206   0.663  0.1929  2.3552 -0.3133
  587MOL0     H79245   1.708   6.374   0.520  0.0548 -0.7712  1.7173
  588MOL0     O79246   2.887   1.727   8.018  0.0703 -0.1717  0.9456
  588MOL0     C79247   2.964   1.794   7.943  0.6695 -0.2188  0.1006
  588MOL0     O79248   2.945   1.819   7.816  0.0942  0.2902 -0.2603
  588MOL0     C79249   2.847   1.769   7.739  0.1534 -0.3149 -0.5935
  588MOL0     C79250   2.828   1.640   7.708 -0.1502  0.4277  0.4954
  588MOL0     C79251   2.740   1.596   7.613  0.0729 -0.5071 -0.7813
  588MOL0     C79252   2.660   1.688   7.552  0.1652 -0.0223 -0.5151
  588MOL0     O79253   2.559   1.631   7.469 -0.3478  0.3463 -0.3367
  588MOL0     C79254   2.450   1.716   7.428 -0.1801  0.7494  0.5436
  588MOL0     C79255   2.343   1.759   7.528 -0.6364 -0.2657 -0.2322
  588MOL0     C79256   2.280   1.628   7.602 -0.7125  0.1557  0.0798
  588MOL0     C79257   2.370   1.565   7.703 -0.3189  0.4420 -0.7148
  588MOL0     C79258   2.395   1.665   7.823  0.0637  0.8335 -0.4200
  588MOL0     C79259   2.473   1.601   7.939  0.7027 -0.5031 -0.5594
  588MOL0     C79260   2.538   1.707   8.040  0.0610 -0.7580 -0.1469
  588MOL0     C79261   2.621   1.638   8.143  0.4706  1.0685 -0.5170
  588MOL0     N79262   2.547   1.552   8.240 -0.0936 -0.5140 -0.4794
  588MOL0     C79263   2.443   1.592   8.320 -0.3881 -0.0395  0.6835
  588MOL0     C79264   2.398   1.475   8.379  0.2205 -0.6547  0.6135
  588MOL0     C79265   2.279   1.468   8.467  0.3352 -1.3944  0.2265
  588MOL0     C79266   2.189   1.360   8.405 -0.2897  0.0202  0.7298
  588MOL0     C79267   2.068   1.345   8.492 -1.2611 -0.3058 -0.0445
  588MOL0     C79268   1.966   1.257   8.424  0.0519  0.4925 -0.5785
  588MOL0     O79269   1.836   1.280   8.489 -1.0006  0.1280 -0.2805
  588MOL0     C79270   1.737   1.192   8.449 -0.3738  0.3561 -1.6234
  588MOL0     C79271   1.645   1.156   8.543 -0.0278 -1.2699  0.5016
  588MOL0     C79272   1.533   1.079   8.522 -0.2790  0.7256 -0.5471
  588MOL0     C79273   1.434   1.058   8.627  0.3866 -0.1194 -1.8347
  588MOL0     C79274   1.512   1.036   8.387 -0.0218  0.2352 -0.2425
  588MOL0     C79275   1.377   0.984   8.338 -0.8165 -0.4075  0.7189
  588MOL0     O79276   1.277   0.953   8.420 -0.0218 -0.3379  0.1848
  588MOL0     C79277   1.160   0.899   8.376  1.5806  0.7359  0.0295
  588MOL0     C79278   1.047   0.979   8.346 -0.3599  0.2156  0.3488
  588MOL0     C79279   0.930   0.924   8.301 -0.1722 -0.2357 -0.4860
  588MOL0     C79280   0.918   0.786   8.298 -0.2801 -0.0391  0.4152
  588MOL0     O79281   0.793   0.720   8.304  0.0076  0.2528  0.2410
  588MOL0     C79282   0.672   0.787   8.290 -0.7855 -0.4036 -0.1645
  588MOL0     C79283   0.561   0.688   8.272 -0.0840 -0.7337 -0.1680
  588MOL0     C79284   0.429   0.735   8.227  0.0496 -0.3800 -0.1690
  588MOL0     C79285   0.346   0.819   8.325 -0.2817  0.4052  0.8219
  588MOL0     C79286   0.199   0.848   8.286  0.2306  1.2300 -0.0180
  588MOL0     C79287   0.105   0.731   8.293 -0.1085 -0.0552 -0.0025
  588MOL0     C79288  -0.045   0.774   8.252  0.3010 -0.8412 -0.3477
  588MOL0     C79289  -0.136   0.654   8.258  0.9913  0.8461  0.1594
  588MOL0    Cl79290  -0.214   0.613   8.100  0.1295  0.0722 -0.2867
  588MOL0     C79291   1.025   0.702   8.330 -0.6018 -0.1441 -0.2556
  588MOL0     C79292   1.146   0.760   8.364 -0.1572 -0.7420  0.1720
  588MOL0     O79293   1.379   0.979   8.218  0.2990  0.5706  0.5265
  588MOL0     C79294   1.614   1.074   8.287  0.0746 -0.6516 -0.4164
  588MOL0     C79295   1.727   1.147   8.321 -0.0426  0.2376 -0.1994
  588MOL0     N79296   2.481   1.372   8.348  0.4958 -0.2107  0.5665
  588MOL0     N79297   2.568   1.420   8.270 -0.0323  0.6584  0.7055
  588MOL0     C79298   2.665   1.827   7.602 -0.7121  0.1740  0.5664
  588MOL0     C79299   2.758   1.865   7.697 -0.0453  0.0721 -0.6354
  588MOL0     C79300   3.087   1.842   8.003 -0.2081 -0.4303  0.8531
  588MOL0     C79301   3.169   1.928   7.935 -0.4556 -0.0315 -0.3101
  588MOL0     C79302   3.282   1.986   7.991 -0.3106 -0.3817  0.7344
  588MOL0     C79303   3.313   1.955   8.120  0.7341  0.2352 -0.5226
  588MOL0     O79304   3.426   1.999   8.188 -0.4141  0.0048  0.5437
  588MOL0     C79305   3.533   2.069   8.119  0.2098  0.1107  0.0601
  588MOL0     C79306   3.648   2.077   8.217  1.2423  1.5136  0.6944
  588MOL0     C79307   3.755   2.175   8.190 -0.1729  0.9109 -0.0309
  588MOL0     C79308   3.856   2.192   8.310 -0.2230  0.6124  0.7695
  588MOL0     C79309   3.812   2.287   8.410 -0.1526  0.4514 -0.6458
  588MOL0     C79310   3.778   2.353   8.495  0.7320  0.4975  0.4599
  588MOL0     C79311   3.228   1.870   8.195  0.5039  0.7025 -0.5481
  588MOL0     C79312   3.115   1.812   8.138 -0.0481 -0.4303  0.5649
  588MOL0     H79313   2.891   1.563   7.753  0.0002 -0.3448 -0.9770
  588MOL0     H79314   2.747   1.488   7.614  4.1736 -0.4127  1.6063
  588MOL0     H79315   2.498   1.805   7.385 -1.0469  1.0923  0.2529
  588MOL0     H79316   2.398   1.671   7.343 -0.0387  2.4497 -0.5002
  588MOL0     H79317   2.377   1.830   7.604 -0.0050 -0.4598 -0.3264
  588MOL0     H79318   2.261   1.815   7.482 -1.0244 -0.6908 -0.0625
  588MOL0     H79319   2.189   1.651   7.659 -0.4705 -1.7497  1.3162
  588MOL0     H79320   2.243   1.558   7.527 -1.6267 -0.0651  0.7154
  588MOL0     H79321   2.317   1.483   7.754  1.1745  1.4534  2.8193
  588MOL0     H79322   2.461   1.528   7.654 -1.3921 -2.4037 -0.7537
  588MOL0     H79323   2.450   1.754   7.789  2.7699 -1.0127 -1.2403
  588MOL0     H79324   2.298   1.695   7.863  0.4676  2.1857 -0.3796
  588MOL0     H79325   2.395   1.545   7.991 -1.3002  1.1844 -1.6039
  588MOL0     H79326   2.541   1.526   7.899 -0.3303 -0.3916 -2.6286
  588MOL0     H79327   2.617   1.767   7.992  2.3548 -2.3162  1.5039
  588MOL0     H79328   2.467   1.774   8.090 -0.8227 -1.2659 -0.6843
  588MOL0     H79329   2.680   1.712   8.200 -0.0085 -0.7418  2.5492
  588MOL0     H79330   2.695   1.579   8.089  0.8181  1.9114 -0.9756
  588MOL0     H79331   2.395   1.689   8.331  0.6791  0.3420  2.5603
  588MOL0     H79332   2.307   1.451   8.572 -2.1578  1.1003  1.3921
  588MOL0     H79333   2.232   1.566   8.471  2.1545 -0.4988  0.5863
  588MOL0     H79334   2.243   1.268   8.384 -0.8883 -0.4902  1.4008
  588MOL0     H79335   2.154   1.388   8.306  0.6296 -1.6046 -0.0814
  588MOL0     H79336   2.018   1.441   8.509 -0.5166 -0.0658  0.9050
  588MOL0     H79337   2.088   1.322   8.597  0.5082  2.9668  0.4417
  588MOL0     H79338   2.001   1.153   8.415  1.1084  0.9676 -2.6241
  588MOL0     H79339   1.945   1.288   8.321 -1.4061 -1.8859 -1.0855
  588MOL0     H79340   1.658   1.213   8.635  0.2479 -4.7691  2.8444
  588MOL0     H79341   1.347   1.123   8.622 -0.4675 -0.5213  2.8994
  588MOL0     H79342   1.400   0.955   8.640  0.9513  0.0556  3.0055
  588MOL0     H79343   1.483   1.082   8.722 -3.3227 -1.1144  0.5199
  588MOL0     H79344   1.068   1.086   8.339  3.0148 -0.4379 -3.3070
  588MOL0     H79345   0.855   0.995   8.269 -2.6316 -2.5599 -0.2854
  588MOL0     H79346   0.659   0.853   8.376  0.9023 -1.7686  1.2090
  588MOL0     H79347   0.674   0.846   8.197  2.2981  1.0727  0.7074
  588MOL0     H79348   0.589   0.593   8.224 -2.0766 -0.2218 -2.5706
  588MOL0     H79349   0.533   0.657   8.373  2.0863  0.5034  0.8845
  588MOL0     H79350   0.366   0.651   8.199 -2.2756  1.8382 -2.0816
  588MOL0     H79351   0.444   0.800   8.140  1.6698  1.1835  1.1754
  588MOL0     H79352   0.363   0.767   8.420 -0.0032  0.6958  0.9332
  588MOL0     H79353   0.404   0.912   8.321  2.6974 -1.3896 -0.9713
  588MOL0     H79354   0.198   0.879   8.181  1.7814 -1.5022 -0.9502
  588MOL0     H79355   0.167   0.933   8.346  3.8111  2.1696  0.8158
  588MOL0     H79356   0.136   0.647   8.229 -4.4173 -1.2279 -0.9009
  588MOL0     H79357   0.109   0.681   8.390 -1.5066 -0.1603  0.0248
  588MOL0     H79358  -0.038   0.812   8.150 -0.5530  0.9333  0.2030
  588MOL0     H79359  -0.089   0.856   8.310  1.8903 -1.1355  1.3870
  588MOL0     H79360  -0.213   0.663   8.335 -2.6725 -0.1578 -3.0125
  588MOL0     H79361  -0.084   0.566   8.297 -3.2047 -1.2784  1.6522
  588MOL0     H79362   1.010   0.595   8.336 -1.5672  0.0037  0.0976
  588MOL0     H79363   1.225   0.695   8.399 -0.9760 -1.9481 -0.1835
  588MOL0     H79364   1.610   1.062   8.180  1.6364 -2.4290 -0.3205
  588MOL0     H79365   1.803   1.167   8.246  0.9284 -2.4451 -0.0289
  588MOL0     H79366   2.602   1.904   7.558 -0.9915  0.4669  1.4591
  588MOL0     H79367   2.748   1.969   7.723 -0.3843  0.8381 -3.5163
  588MOL0     H79368   3.146   1.949   7.831  1.9257  1.8356 -0.5438
  588MOL0     H79369   3.343   2.057   7.936 -2.2954  1.2980  0.5641
  588MOL0     H79370   3.569   2.015   8.031  2.6557  0.0006  1.0528
  588MOL0     H79371   3.494   2.165   8.086 -4.1271 -1.4662 -0.0708
  588MOL0     H79372   3.683   1.975   8.233 -1.5399  0.5722  1.4052
  588MOL0     H79373   3.594   2.109   8.307 -2.5763 -1.0219 -0.4240
  588MOL0     H79374   3.701   2.268   8.172 -1.5420  0.0731 -0.3546
  588MOL0     H79375   3.810   2.154   8.097  3.7356 -3.8463  2.8298
  588MOL0     H79376   3.955   2.222   8.274 -0.5188  2.7813  1.6512
  588MOL0     H79377   3.888   2.091   8.340 -4.2726 -2.0088 -2.5106
  588MOL0     H79378   3.754   2.411   8.582  2.3237 -2.0776  2.7526
  588MOL0     H79379   3.250   1.855   8.300 -0.9745  0.2014 -0.2962
  588MOL0     H79380   3.055   1.740   8.192 -0.5489  0.8396  1.7583
  589MOL0     O79381   2.932  10.044   4.073  0.5937 -0.3066  0.1101
  589MOL0     C79382   2.973   9.931   4.062  0.2259  1.0215  0.0080
  589MOL0     O79383   3.078   9.892   3.981  0.7059 -0.3582  0.8746
  589MOL0     C79384   3.097   9.972   3.868 -0.7066  0.5448 -0.2794
  589MOL0     C79385   3.209  10.063   3.871 -0.1970  0.4385 -0.8049
  589MOL0     C79386   3.253  10.141   3.759 -0.9650  0.1984 -0.3385
  589MOL0     C79387   3.164  10.144   3.650 -0.0609  0.3124 -0.1420
  589MOL0     O79388   3.172  10.242   3.546  0.4747 -0.3866  0.1709
  589MOL0     C79389   3.187  10.380   3.570 -0.3137 -0.8265 -0.4713
  589MOL0     C79390   3.064  10.448   3.648 -0.6790 -0.1798  0.3359
  589MOL0     C79391   2.933  10.427   3.562 -0.1038  0.0995 -0.6155
  589MOL0     C79392   2.849  10.561   3.544  0.5726  0.2119  0.0375
  589MOL0     C79393   2.719  10.555   3.471  0.1858  0.0031  0.2318
  589MOL0     C79394   2.603  10.483   3.536  0.8690 -0.2359  0.6023
  589MOL0     C79395   2.492  10.512   3.434  0.4857  0.1617  0.0426
  589MOL0     C79396   2.352  10.455   3.489 -0.1039 -0.3887  0.0950
  589MOL0     N79397   2.241  10.471   3.392 -0.8403  0.4721 -0.1581
  589MOL0     C79398   2.243  10.438   3.259  0.1197  0.3001 -0.6551
  589MOL0     C79399   2.130  10.486   3.217  0.5140  1.2988 -0.3881
  589MOL0     C79400   2.094  10.474   3.072  0.8794 -1.0215 -0.9631
  589MOL0     C79401   1.943  10.485   3.038  0.0446  0.5643  1.6527
  589MOL0     C79402   1.910  10.467   2.888  0.3555  0.0139  0.1412
  589MOL0     C79403   1.770  10.403   2.865 -0.5352 -0.0404  0.4982
  589MOL0     O79404   1.776  10.261   2.841  0.4684 -0.2481 -0.0301
  589MOL0     C79405   1.866  10.185   2.911  0.5406 -0.5185  0.3478
  589MOL0     C79406   1.967  10.119   2.837  1.0742 -0.5988  0.7687
  589MOL0     C79407   2.063  10.046   2.894 -0.6791  0.6096 -0.6277
  589MOL0     C79408   2.175   9.985   2.800  1.1747  1.1473 -0.4416
  589MOL0     C79409   2.059  10.029   3.039 -0.2820  0.1379 -0.0928
  589MOL0     C79410   2.157   9.970   3.121 -0.3197  0.0717  0.7605
  589MOL0     O79411   2.127   9.950   3.255  0.3983  0.2483  0.9307
  589MOL0     C79412   2.232   9.952   3.341 -0.8488  1.6349 -0.1805
  589MOL0     C79413   2.292  10.067   3.380 -0.3530 -0.5793 -0.6600
  589MOL0     C79414   2.399  10.067   3.471  0.2992  0.4847 -0.2386
  589MOL0     C79415   2.458   9.942   3.520 -0.5342 -0.7538 -0.5600
  589MOL0     O79416   2.555   9.924   3.622  0.8865  0.1801 -0.1577
  589MOL0     C79417   2.596  10.041   3.696 -0.1881  0.0673  0.6005
  589MOL0     C79418   2.634  10.005   3.836 -0.6482 -0.8036 -1.1264
  589MOL0     C79419   2.506   9.997   3.919  0.6699  0.0051 -0.8574
  589MOL0     C79420   2.530   9.970   4.071  0.1584  0.0860 -0.5381
  589MOL0     C79421   2.395   9.949   4.142 -0.6013 -0.5565  1.2682
  589MOL0     C79422   2.408   9.847   4.254  0.0195  0.3665 -0.6505
  589MOL0     C79423   2.275   9.801   4.325 -0.3405 -0.8450  0.4504
  589MOL0     C79424   2.186   9.732   4.224 -0.1614 -0.6636 -0.2940
  589MOL0    Cl79425   2.077   9.626   4.309  0.6222 -0.2510  0.6340
  589MOL0     C79426   2.402   9.828   3.469  0.7208 -0.0891 -0.0643
  589MOL0     C79427   2.288   9.834   3.383  1.3154 -0.0297 -0.4677
  589MOL0     O79428   2.269   9.956   3.067 -0.2600 -0.7250  0.0044
  589MOL0     C79429   1.947  10.085   3.108  0.8898  0.7421  0.1778
  589MOL0     C79430   1.855  10.166   3.036  0.2730  0.4407 -0.8327
  589MOL0     N79431   2.064  10.562   3.317 -0.0197 -0.7411  0.1787
  589MOL0     N79432   2.137  10.555   3.419 -0.1895 -0.3357 -0.5574
  589MOL0     C79433   3.062  10.049   3.648 -0.2633 -0.2139 -0.1432
  589MOL0     C79434   3.027   9.959   3.754  0.4262 -0.0852  0.4783
  589MOL0     C79435   2.908   9.823   4.144  1.1222  0.1701  0.0255
  589MOL0     C79436   2.930   9.691   4.107 -0.1898  0.2183 -0.0086
  589MOL0     C79437   2.873   9.589   4.186  0.5402 -0.0438  0.3006
  589MOL0     C79438   2.780   9.625   4.289 -0.5095  0.6727 -0.2833
  589MOL0     O79439   2.722   9.514   4.347 -0.5885 -0.5718  0.4201
  589MOL0     C79440   2.642   9.537   4.458  0.8564 -0.2069  0.4793
  589MOL0     C79441   2.613   9.394   4.507  0.2316 -0.7811  0.8463
  589MOL0     C79442   2.525   9.378   4.636  0.0586  0.4133  0.3059
  589MOL0     C79443   2.547   9.238   4.686  0.3830  0.3724  0.1033
  589MOL0     C79444   2.682   9.216   4.751 -0.1330  0.2906 -0.0596
  589MOL0     C79445   2.785   9.187   4.803 -0.9220 -0.9965 -0.3317
  589MOL0     C79446   2.774   9.759   4.328  0.4663  0.0305 -0.5213
  589MOL0     C79447   2.834   9.857   4.259 -0.0386 -0.5663  0.4525
  589MOL0     H79448   3.266  10.069   3.963 -2.8148  1.8096  0.8614
  589MOL0     H79449   3.336  10.209   3.770 -0.6691 -0.3254  0.7578
  589MOL0     H79450   3.274  10.396   3.634 -0.7252  0.3745 -0.1901
  589MOL0     H79451   3.197  10.435   3.476  0.5659 -0.4242 -0.1556
  589MOL0     H79452   3.054  10.420   3.753  0.3529 -0.7044  0.3147
  589MOL0     H79453   3.106  10.549   3.652 -0.7470 -0.1879  1.3923
  589MOL0     H79454   2.949  10.384   3.463  2.9610  1.6241 -0.8940
  589MOL0     H79455   2.877  10.350   3.617 -0.0452  0.4357 -0.0780
  589MOL0     H79456   2.820  10.612   3.636 -3.0883 -2.0666  0.3568
  589MOL0     H79457   2.910  10.628   3.481 -1.1134 -0.4015 -2.4079
  589MOL0     H79458   2.685  10.658   3.456 -1.2858 -0.6295 -0.9651
  589MOL0     H79459   2.738  10.506   3.376 -1.5346 -0.8626  0.3001
  589MOL0     H79460   2.612  10.374   3.533 -2.2119 -0.5799  0.0286
  589MOL0     H79461   2.566  10.530   3.628 -1.7071  0.1534 -0.5379
  589MOL0     H79462   2.479  10.620   3.427  0.3027  0.2689  1.7146
  589MOL0     H79463   2.509  10.479   3.331 -3.2615  1.4453 -1.1517
  589MOL0     H79464   2.331  10.511   3.581  2.0084  1.5471 -0.5322
  589MOL0     H79465   2.355  10.347   3.507 -0.6826 -0.4111  0.0981
  589MOL0     H79466   2.326  10.398   3.203  0.9561  1.0997 -0.0112
  589MOL0     H79467   2.145  10.566   3.041 -1.4861  1.6278  2.3164
  589MOL0     H79468   2.131  10.385   3.020  1.7130 -0.6249 -1.0592
  589MOL0     H79469   1.912  10.586   3.067 -2.0590  0.4723 -0.0101
  589MOL0     H79470   1.900  10.414   3.108  2.4020 -3.3415 -0.5259
  589MOL0     H79471   1.992  10.418   2.835  1.4935 -0.2456  2.0460
  589MOL0     H79472   1.914  10.570   2.851 -1.4544  1.0078  2.4358
  589MOL0     H79473   1.729  10.449   2.775  0.9159  2.2703  0.9141
  589MOL0     H79474   1.700  10.429   2.945  0.1436  2.3747  0.3957
  589MOL0     H79475   1.968  10.135   2.729 -3.5556 -0.4582  0.5230
  589MOL0     H79476   2.265  10.042   2.822  0.7034  1.7564 -0.0680
  589MOL0     H79477   2.196   9.882   2.830 -1.1740  1.2830  2.0832
  589MOL0     H79478   2.148   9.983   2.694 -2.2867  2.4722  0.2758
  589MOL0     H79479   2.250  10.163   3.351 -2.8139 -1.2648  0.4375
  589MOL0     H79480   2.442  10.158   3.512  1.6000 -0.2336  0.0761
  589MOL0     H79481   2.684  10.077   3.643  0.6711 -2.2493  0.3384
  589MOL0     H79482   2.525  10.124   3.702 -0.2044 -0.0072  1.7330
  589MOL0     H79483   2.690   9.913   3.851  0.7629 -0.0528 -1.6344
  589MOL0     H79484   2.687  10.096   3.868 -2.0348  1.1575 -3.9802
  589MOL0     H79485   2.445   9.916   3.879  2.4072 -2.9313  1.8580
  589MOL0     H79486   2.454  10.093   3.921 -0.1047 -0.4020 -1.2778
  589MOL0     H79487   2.587   9.877   4.082 -1.4279 -0.5799  4.6137
  589MOL0     H79488   2.585  10.049   4.122  0.8549 -1.9165  2.0077
  589MOL0     H79489   2.316   9.926   4.069 -3.5301 -0.8852  4.3005
  589MOL0     H79490   2.366  10.044   4.187  0.2709  0.0737  0.5174
  589MOL0     H79491   2.455   9.756   4.216  4.0153  1.1812  1.7800
  589MOL0     H79492   2.473   9.886   4.332 -0.5916 -0.9331  0.5448
  589MOL0     H79493   2.226   9.877   4.386  0.0021  0.2002 -0.5492
  589MOL0     H79494   2.284   9.715   4.391 -0.8789 -0.8329  0.5477
  589MOL0     H79495   2.255   9.681   4.157  2.7164  1.5913  0.7117
  589MOL0     H79496   2.135   9.812   4.169  1.1182  0.7733  0.5340
  589MOL0     H79497   2.435   9.729   3.498 -2.0285 -1.6255 -1.7511
  589MOL0     H79498   2.250   9.737   3.353 -1.7199  0.6862  0.6398
  589MOL0     H79499   1.925  10.072   3.213  1.5777  0.8175  0.3358
  589MOL0     H79500   1.782  10.229   3.086  2.5730  2.0514  0.7442
  589MOL0     H79501   3.002  10.049   3.558  1.9870 -1.3077 -1.7389
  589MOL0     H79502   2.948   9.886   3.744  0.7228 -0.3970  0.3761
  589MOL0     H79503   2.994   9.674   4.021  0.1067  3.0531 -0.4234
  589MOL0     H79504   2.893   9.485   4.165 -2.6263 -0.6707 -0.1675
  589MOL0     H79505   2.691   9.591   4.540 -3.1893 -2.6556  4.9886
  589MOL0     H79506   2.551   9.590   4.428 -0.2349 -2.6060 -0.7216
  589MOL0     H79507   2.708   9.342   4.525 -0.3844 -1.8644  1.0641
  589MOL0     H79508   2.568   9.351   4.417 -1.7481  0.7675  1.0378
  589MOL0     H79509   2.424   9.395   4.598 -0.2480 -0.0478  0.9116
  589MOL0     H79510   2.553   9.451   4.713  3.5080  0.5183 -0.8490
  589MOL0     H79511   2.542   9.161   4.608 -1.1459 -2.3025  2.6526
  589MOL0     H79512   2.470   9.215   4.760  0.8256 -0.4587  0.3183
  589MOL0     H79513   2.883   9.163   4.837 -0.8174 -3.8359 -2.3327
  589MOL0     H79514   2.696   9.780   4.400  1.0080  0.4274 -0.0399
  589MOL0     H79515   2.813   9.962   4.279  0.9421 -0.1707 -0.5486
  590MOL0     O79516   6.268  10.618   9.043 -0.6619 -1.3770 -0.4326
  590MOL0     C79517   6.189  10.560   9.124 -0.0052  0.2507 -0.3423
  590MOL0     O79518   6.089  10.468   9.096  0.0676 -0.7478  0.2586
  590MOL0     C79519   6.082  10.428   8.964  0.4641 -0.1296  0.1382
  590MOL0     C79520   6.147  10.315   8.925 -0.2194 -0.1152 -0.5459
  590MOL0     C79521   6.125  10.256   8.800 -0.4690 -0.4290 -0.0888
  590MOL0     C79522   6.046  10.320   8.698  0.0761  0.1180  0.0960
  590MOL0     O79523   6.021  10.259   8.578  0.0150  0.4560  0.6565
  590MOL0     C79524   5.933  10.137   8.586  1.2662 -0.0507  1.0142
  590MOL0     C79525   5.942  10.045   8.459 -0.6152  0.3570  0.7117
  590MOL0     C79526   6.078   9.989   8.421  1.5076 -0.3699 -0.1292
  590MOL0     C79527   6.094   9.897   8.305  0.1912 -0.0432 -0.0550
  590MOL0     C79528   6.243   9.867   8.266 -0.0931  0.0824 -0.5390
  590MOL0     C79529   6.324   9.779   8.373 -0.8642  0.2301 -0.4474
  590MOL0     C79530   6.266   9.640   8.381 -0.6116  0.0744 -1.4855
  590MOL0     C79531   6.360   9.532   8.437  0.2160 -0.4798  0.3670
  590MOL0     N79532   6.480   9.519   8.350  0.1519 -0.2594  0.4282
  590MOL0     C79533   6.478   9.509   8.211  0.8451 -0.5307  0.1674
  590MOL0     C79534   6.597   9.491   8.169  0.2633 -0.8055 -0.5650
  590MOL0     C79535   6.640   9.474   8.030  0.4086 -0.2070 -0.7528
  590MOL0     C79536   6.704   9.335   8.011  0.4642  0.0826 -0.5242
  590MOL0     C79537   6.625   9.217   8.045  0.2974  1.0692  0.4869
  590MOL0     C79538   6.513   9.181   7.943  0.4219 -0.5082 -0.7673
  590MOL0     O79539   6.410   9.118   8.017 -0.2078  0.7937  0.3876
  590MOL0     C79540   6.311   9.201   8.061  0.1403 -0.0760  0.3617
  590MOL0     C79541   6.255   9.319   7.999  0.6376  0.6842  0.5188
  590MOL0     C79542   6.147   9.388   8.058 -0.1227  0.1068 -0.8282
  590MOL0     C79543   6.092   9.511   7.986 -0.0129  0.6240 -0.2680
  590MOL0     C79544   6.097   9.350   8.188  0.4601  0.0288 -0.6452
  590MOL0     C79545   5.991   9.421   8.258  0.0815  0.7071 -0.8501
  590MOL0     O79546   5.935   9.363   8.373 -0.0835  0.4588  0.3667
  590MOL0     C79547   5.814   9.413   8.421  0.2351  0.5641  0.1628
  590MOL0     C79548   5.803   9.430   8.559 -1.5318 -0.0285  0.4662
  590MOL0     C79549   5.698   9.504   8.622 -0.3761 -1.0775  0.2949
  590MOL0     C79550   5.602   9.563   8.536 -0.4111 -0.0669  0.0301
  590MOL0     O79551   5.507   9.641   8.584 -0.1458 -1.1529 -0.1712
  590MOL0     C79552   5.373   9.595   8.559 -0.6973  0.0282  0.1316
  590MOL0     C79553   5.342   9.460   8.621  0.4421 -0.4170 -0.4426
  590MOL0     C79554   5.195   9.414   8.631  0.1698  0.3567 -0.5706
  590MOL0     C79555   5.096   9.498   8.707 -0.3643 -0.3146 -0.2856
  590MOL0     C79556   4.967   9.429   8.712  1.9776  0.4554 -0.2416
  590MOL0     C79557   4.851   9.534   8.724 -0.0642 -1.1613 -0.4188
  590MOL0     C79558   4.712   9.464   8.721 -0.5088  0.3578 -0.4529
  590MOL0     C79559   4.661   9.468   8.576  0.4424 -0.0592  0.7798
  590MOL0    Cl79560   4.489   9.439   8.571  0.3254  0.4575  0.0510
  590MOL0     C79561   5.608   9.540   8.395 -0.7862  0.9293 -0.2940
  590MOL0     C79562   5.716   9.465   8.337 -1.1352  0.8910  0.6773
  590MOL0     O79563   5.962   9.537   8.219  0.7375  0.1526 -0.1907
  590MOL0     C79564   6.159   9.238   8.246  0.2468  0.1111  0.2115
  590MOL0     C79565   6.251   9.156   8.182 -1.0760  0.7239 -0.0872
  590MOL0     N79566   6.682   9.487   8.282 -0.5301 -1.0825  0.8539
  590MOL0     N79567   6.605   9.497   8.389 -0.2724 -0.5965  0.7784
  590MOL0     C79568   5.981  10.434   8.743 -0.4040 -0.2656 -0.1410
  590MOL0     C79569   5.993  10.491   8.872  0.0761  0.8425 -0.4856
  590MOL0     C79570   6.213  10.578   9.272 -0.0971  0.3830  0.0003
  590MOL0     C79571   6.121  10.535   9.364  0.0113 -1.1329  0.5480
  590MOL0     C79572   6.148  10.546   9.501 -0.1132 -0.4197  0.6398
  590MOL0     C79573   6.266  10.610   9.551  0.3476  0.8659 -0.7912
  590MOL0     O79574   6.293  10.636   9.688  0.3073 -0.2661 -0.4166
  590MOL0     C79575   6.187  10.611   9.784  0.7604 -0.2211  0.7732
  590MOL0     C79576   6.255  10.629   9.922 -0.2352  0.1369  1.1326
  590MOL0     C79577   6.181  10.551  10.027  0.1303  0.7755  0.1870
  590MOL0     C79578   6.051  10.612  10.068 -0.5895 -0.0403  0.9917
  590MOL0     C79579   6.054  10.751  10.111  1.1373 -0.4699  0.3317
  590MOL0     C79580   6.061  10.877  10.133 -0.2177  0.0755 -0.2687
  590MOL0     C79581   6.362  10.646   9.455  0.0443 -0.6986 -0.1585
  590MOL0     C79582   6.337  10.626   9.314 -0.2665 -0.3228 -0.4298
  590MOL0     H79583   6.215  10.259   8.988 -0.8822  0.0440  0.3269
  590MOL0     H79584   6.187  10.171   8.773  0.3676 -0.5770  2.1372
  590MOL0     H79585   5.941  10.089   8.684 -3.3259  0.8479  2.0952
  590MOL0     H79586   5.831  10.177   8.592 -0.2250 -3.0812 -1.1263
  590MOL0     H79587   5.868   9.967   8.478 -1.0832  0.0972 -1.7985
  590MOL0     H79588   5.912  10.100   8.369 -1.6085 -3.0617 -1.2266
  590MOL0     H79589   6.132  10.081   8.394 -0.4030  1.0798  0.7376
  590MOL0     H79590   6.113   9.936   8.509 -3.4513 -0.7499  1.9637
  590MOL0     H79591   6.052   9.801   8.337  3.4550 -0.1884  4.8752
  590MOL0     H79592   6.049   9.952   8.222 -0.3900 -1.1108 -0.4684
  590MOL0     H79593   6.252   9.810   8.172 -0.1873  1.0806 -1.1611
  590MOL0     H79594   6.300   9.959   8.253 -3.1816  1.9582 -1.7534
  590MOL0     H79595   6.429   9.771   8.344 -0.9794 -1.3179 -0.5393
  590MOL0     H79596   6.333   9.816   8.476 -0.7318 -3.5090  1.0507
  590MOL0     H79597   6.188   9.644   8.457  2.8382  4.6846  2.4487
  590MOL0     H79598   6.233   9.613   8.280 -1.2888  2.6273 -2.0099
  590MOL0     H79599   6.306   9.436   8.444 -0.1859 -0.2673  0.2505
  590MOL0     H79600   6.389   9.559   8.538 -0.6592  0.6075  0.3491
  590MOL0     H79601   6.397   9.518   8.139 -0.7370  2.6718  2.0923
  590MOL0     H79602   6.560   9.491   7.957 -0.0072  3.0100  0.2914
  590MOL0     H79603   6.710   9.556   8.012 -1.6924  1.6230 -1.0995
  590MOL0     H79604   6.786   9.331   8.083 -1.5009  1.2159  1.9631
  590MOL0     H79605   6.737   9.347   7.907 -0.0415  4.3729 -0.3865
  590MOL0     H79606   6.588   9.235   8.147  1.0645 -2.0112  1.4064
  590MOL0     H79607   6.689   9.129   8.043 -0.3017  0.6207 -2.2646
  590MOL0     H79608   6.556   9.120   7.862  2.4368 -2.9390  1.9038
  590MOL0     H79609   6.470   9.267   7.890 -0.7394 -3.3687 -5.0316
  590MOL0     H79610   6.277   9.364   7.902  0.5849  2.8694  1.4730
  590MOL0     H79611   6.124   9.524   7.883  1.0109 -0.2930 -0.0924
  590MOL0     H79612   5.985   9.491   7.983 -0.1510  1.4841 -1.7231
  590MOL0     H79613   6.126   9.600   8.040  0.2012 -0.0480  0.7324
  590MOL0     H79614   5.890   9.395   8.615  0.5641  1.5874 -1.5756
  590MOL0     H79615   5.691   9.509   8.730  1.7435  0.1868  0.4240
  590MOL0     H79616   5.305   9.672   8.596  0.8031  1.6027 -0.2917
  590MOL0     H79617   5.355   9.585   8.452  3.0103 -1.3799 -0.4872
  590MOL0     H79618   5.396   9.380   8.568 -0.4897 -1.5963  0.3455
  590MOL0     H79619   5.386   9.461   8.721 -0.6172 -0.0991  0.0259
  590MOL0     H79620   5.195   9.315   8.676  0.6885 -0.9678 -3.2575
  590MOL0     H79621   5.164   9.414   8.526  3.5573  2.0630 -1.7244
  590MOL0     H79622   5.132   9.506   8.809 -0.3580  0.2579 -0.3270
  590MOL0     H79623   5.077   9.597   8.664 -0.0399  0.1948  0.7149
  590MOL0     H79624   4.964   9.366   8.801  0.3820  0.1067 -0.5150
  590MOL0     H79625   4.953   9.365   8.624  1.9138  0.9702 -0.6133
  590MOL0     H79626   4.862   9.592   8.816 -0.4664 -1.3485 -0.2506
  590MOL0     H79627   4.847   9.609   8.644 -1.2615  0.1990  0.8594
  590MOL0     H79628   4.644   9.519   8.787 -1.5771 -2.0257  0.5412
  590MOL0     H79629   4.705   9.360   8.754 -1.2964  0.7101  0.5541
  590MOL0     H79630   4.706   9.405   8.498  0.6434  0.4188  0.5019
  590MOL0     H79631   4.657   9.575   8.552 -1.6093 -0.2866 -0.1285
  590MOL0     H79632   5.536   9.586   8.328 -0.8105 -0.3531 -1.1781
  590MOL0     H79633   5.719   9.430   8.234 -0.4321  1.8096  0.3795
  590MOL0     H79634   6.126   9.197   8.341  0.0225 -0.3055 -0.0441
  590MOL0     H79635   6.288   9.063   8.226  0.3051 -1.2237 -4.7374
  590MOL0     H79636   5.895  10.469   8.687 -0.2277 -1.0047 -0.8799
  590MOL0     H79637   5.923  10.570   8.898 -0.1260  0.8150 -0.9310
  590MOL0     H79638   6.022  10.505   9.332  0.6775 -1.0707 -1.8313
  590MOL0     H79639   6.060  10.522   9.559 -0.0303 -2.1432  0.1037
  590MOL0     H79640   6.109  10.688   9.782 -0.2705 -1.1846 -2.2284
  590MOL0     H79641   6.152  10.508   9.769  0.7526  0.1505 -2.2724
  590MOL0     H79642   6.263  10.733   9.953 -0.2390  0.7771 -0.8559
  590MOL0     H79643   6.360  10.595   9.921 -0.4229 -0.4638  1.3926
  590MOL0     H79644   6.244  10.565  10.115  0.0278  0.1782  0.3565
  590MOL0     H79645   6.183  10.445  10.001  3.2289  0.5710  0.8352
  590MOL0     H79646   6.007  10.547  10.144  3.6585 -1.8655  2.1708
  590MOL0     H79647   5.977  10.604   9.987 -2.9594  2.8842  2.6396
  590MOL0     H79648   6.077  10.979  10.161 -3.2181  0.1467  1.6948
  590MOL0     H79649   6.457  10.678   9.496 -0.0902  4.2138 -2.9085
  590MOL0     H79650   6.413  10.652   9.241 -0.2127  0.9316  0.0455
  591MOL0     O79651   7.438   2.677   9.570 -0.3658 -0.1796 -0.1765
  591MOL0     C79652   7.461   2.731   9.678 -0.0012  0.0552  0.2929
  591MOL0     O79653   7.371   2.752   9.778  0.2715 -0.2783 -0.4192
  591MOL0     C79654   7.240   2.737   9.784 -0.8387  0.3565  0.0378
  591MOL0     C79655   7.182   2.763   9.908 -1.3065 -0.2080 -0.0480
  591MOL0     C79656   7.047   2.746   9.933 -0.1758 -0.1019 -0.1092
  591MOL0     C79657   6.963   2.706   9.826  0.1325  0.6234 -0.1246
  591MOL0     O79658   6.826   2.696   9.834  0.1996 -0.4428 -0.1593
  591MOL0     C79659   6.768   2.830   9.857  0.8350  0.5425 -0.3997
  591MOL0     C79660   6.637   2.843   9.772  0.1629 -0.3605 -1.5035
  591MOL0     C79661   6.633   2.773   9.638  0.8444  0.5449 -1.0761
  591MOL0     C79662   6.529   2.854   9.562  0.5691  0.1999  0.7408
  591MOL0     C79663   6.478   2.784   9.433 -0.9396  0.1230  0.1487
  591MOL0     C79664   6.395   2.883   9.353 -1.0605  0.1471 -0.2336
  591MOL0     C79665   6.362   2.833   9.208  0.0781 -0.2389 -0.9431
  591MOL0     C79666   6.231   2.747   9.205  0.3144 -0.4564 -0.5137
  591MOL0     N79667   6.198   2.705   9.073  0.5083  0.2776  0.3626
  591MOL0     C79668   6.180   2.576   9.031  0.9761  0.5019 -0.4504
  591MOL0     C79669   6.156   2.588   8.896 -0.2503  0.0365 -0.1401
  591MOL0     C79670   6.117   2.470   8.804  0.7881 -0.3734  0.9645
  591MOL0     C79671   6.153   2.492   8.656  0.8098  0.4424  0.2232
  591MOL0     C79672   6.138   2.354   8.579  0.4378 -0.0886 -0.2946
  591MOL0     C79673   5.984   2.314   8.575  0.6273  0.0912 -0.3684
  591MOL0     O79674   5.949   2.240   8.455 -0.2356 -0.2264  1.0177
  591MOL0     C79675   5.957   2.310   8.332 -1.1308 -0.1470 -1.2634
  591MOL0     C79676   5.947   2.450   8.317  0.2390  0.2169  0.0355
  591MOL0     C79677   5.935   2.516   8.194  0.9112 -0.3450 -0.9117
  591MOL0     C79678   5.923   2.664   8.210  0.3048 -0.6260 -0.2153
  591MOL0     C79679   5.918   2.444   8.074  0.2191 -0.3756  0.7248
  591MOL0     C79680   5.912   2.500   7.933 -0.4072 -0.1007 -0.3093
  591MOL0     O79681   5.856   2.406   7.847 -0.0751  0.3788  0.1902
  591MOL0     C79682   5.817   2.422   7.718 -0.6382  0.0199 -0.0145
  591MOL0     C79683   5.833   2.308   7.638  0.6985 -0.8738 -1.0165
  591MOL0     C79684   5.760   2.303   7.519 -1.0242  0.1904 -0.3577
  591MOL0     C79685   5.673   2.404   7.474  0.4525 -0.0338 -0.6658
  591MOL0     O79686   5.583   2.380   7.372 -0.7728  0.3974 -0.3622
  591MOL0     C79687   5.447   2.355   7.409  0.0128  0.6621  0.2358
  591MOL0     C79688   5.432   2.203   7.436  0.9012  0.7635  0.2271
  591MOL0     C79689   5.293   2.166   7.496  0.3005 -0.0587  0.3354
  591MOL0     C79690   5.263   2.019   7.497 -0.0448  0.1641  1.0473
  591MOL0     C79691   5.119   1.977   7.536 -0.6955  0.6209  0.9876
  591MOL0     C79692   5.105   1.823   7.539 -0.0345  0.0128 -0.0982
  591MOL0     C79693   4.962   1.787   7.569  0.1641  0.5721  0.6568
  591MOL0     C79694   4.954   1.642   7.606  0.0660 -0.1190 -0.5195
  591MOL0    Cl79695   4.990   1.610   7.778 -0.2680 -0.2677 -0.0339
  591MOL0     C79696   5.666   2.522   7.555  1.0278  0.6877  0.2059
  591MOL0     C79697   5.743   2.530   7.669  0.3260  0.0920 -0.7918
  591MOL0     O79698   5.932   2.618   7.906 -1.0626 -0.1690 -0.8850
  591MOL0     C79699   5.926   2.301   8.089  0.4172 -0.6961 -0.2106
  591MOL0     C79700   5.943   2.243   8.212  0.6501  0.6303 -0.2328
  591MOL0     N79701   6.165   2.723   8.864  1.1418 -0.1307 -0.3755
  591MOL0     N79702   6.175   2.796   8.970  0.0554 -0.0433 -0.6933
  591MOL0     C79703   7.028   2.686   9.703  0.5249  0.7757 -0.6198
  591MOL0     C79704   7.161   2.698   9.680  0.0311  0.4739 -0.4638
  591MOL0     C79705   7.602   2.755   9.713  0.0158  0.0215  0.1567
  591MOL0     C79706   7.701   2.762   9.611  0.2724  0.3772 -0.3352
  591MOL0     C79707   7.833   2.750   9.643 -0.2416  0.6060 -0.3666
  591MOL0     C79708   7.874   2.741   9.772 -0.6692 -1.0067 -0.6861
  591MOL0     O79709   8.009   2.713   9.815 -0.1632  0.4450 -0.2078
  591MOL0     C79710   8.101   2.795   9.743 -1.1570  0.8834  0.1776
  591MOL0     C79711   8.193   2.862   9.850  0.7774 -0.2567 -0.5567
  591MOL0     C79712   8.274   2.757   9.924  0.0488 -0.9306 -0.2252
  591MOL0     C79713   8.410   2.796   9.973 -0.3231  0.8124 -0.0581
  591MOL0     C79714   8.409   2.907  10.062  1.0061 -0.1956 -0.1499
  591MOL0     C79715   8.406   3.009  10.128 -0.9973 -0.6056  0.2615
  591MOL0     C79716   7.782   2.748   9.875  0.4127 -1.1541  0.1432
  591MOL0     C79717   7.643   2.756   9.846 -0.2210  0.1896  0.1843
  591MOL0     H79718   7.253   2.781   9.989  1.9383 -1.7062 -2.3392
  591MOL0     H79719   7.010   2.765  10.033 -1.3615 -0.4065 -0.4783
  591MOL0     H79720   6.757   2.838   9.966  3.0050 -1.6543  0.0925
  591MOL0     H79721   6.832   2.908   9.816  0.7846  1.1164  0.5839
  591MOL0     H79722   6.546   2.817   9.826  0.0026 -1.2087 -2.1634
  591MOL0     H79723   6.630   2.951   9.754  4.3767 -0.1385 -3.0893
  591MOL0     H79724   6.729   2.780   9.587  1.3457 -1.1217 -0.4109
  591MOL0     H79725   6.600   2.669   9.644  0.6848  0.6307 -0.3403
  591MOL0     H79726   6.437   2.871   9.618 -1.1566 -1.2990 -1.4339
  591MOL0     H79727   6.571   2.951   9.531 -1.1226 -0.1615 -3.4210
  591MOL0     H79728   6.569   2.754   9.380 -2.5605  0.8084 -3.2653
  591MOL0     H79729   6.419   2.697   9.464  2.2051 -1.3223  2.7247
  591MOL0     H79730   6.314   2.918   9.417  1.3564  1.0999  2.5519
  591MOL0     H79731   6.461   2.968   9.334  0.6363 -1.2656 -0.9919
  591MOL0     H79732   6.350   2.916   9.138 -1.9635 -1.9456 -2.7659
  591MOL0     H79733   6.445   2.776   9.167  0.1113  0.7318 -2.2670
  591MOL0     H79734   6.151   2.807   9.250  1.7582 -0.0779  1.6991
  591MOL0     H79735   6.245   2.656   9.264  0.4855 -0.5748 -0.7362
  591MOL0     H79736   6.189   2.485   9.089 -2.4492  1.2846  1.5893
  591MOL0     H79737   6.162   2.378   8.843  0.9285 -1.2709 -1.1654
  591MOL0     H79738   6.010   2.446   8.806 -1.0462  5.7251 -0.9797
  591MOL0     H79739   6.259   2.520   8.656  0.9441  0.1157  2.1452
  591MOL0     H79740   6.087   2.573   8.624 -1.2271 -0.5583  1.6986
  591MOL0     H79741   6.196   2.272   8.622  2.4768 -0.0139 -2.6790
  591MOL0     H79742   6.157   2.364   8.472 -0.7888 -0.4146 -0.5602
  591MOL0     H79743   5.913   2.397   8.585  0.4999 -0.0486 -0.1129
  591MOL0     H79744   5.979   2.255   8.667  1.7940 -2.2411 -1.7043
  591MOL0     H79745   5.945   2.517   8.403  3.5217  1.1158 -0.4579
  591MOL0     H79746   5.941   2.724   8.120 -1.0535 -0.4337 -0.3799
  591MOL0     H79747   5.819   2.675   8.241  1.5492  1.2570  3.9410
  591MOL0     H79748   5.978   2.706   8.295 -3.5414 -0.9120  2.6624
  591MOL0     H79749   5.877   2.219   7.682 -0.0395  0.1803  2.0759
  591MOL0     H79750   5.756   2.213   7.459 -2.3965  0.2383 -0.3822
  591MOL0     H79751   5.415   2.410   7.498  2.0022  0.8630  0.8686
  591MOL0     H79752   5.386   2.375   7.321 -1.1756 -2.5765  0.1752
  591MOL0     H79753   5.429   2.162   7.335 -2.4217  1.9437 -0.2775
  591MOL0     H79754   5.505   2.163   7.506 -0.0388 -1.7877 -0.1522
  591MOL0     H79755   5.219   2.204   7.425 -1.0365  2.3789  2.8159
  591MOL0     H79756   5.279   2.215   7.593 -1.2186 -0.3036  0.2746
  591MOL0     H79757   5.277   1.988   7.393  1.3814  2.0686  0.6070
  591MOL0     H79758   5.324   1.957   7.564 -0.3632 -1.6674 -0.2861
  591MOL0     H79759   5.046   2.022   7.469  1.4031 -0.6766 -2.4360
  591MOL0     H79760   5.102   2.006   7.640  1.0189 -1.1837  1.8478
  591MOL0     H79761   5.137   1.775   7.446 -0.6898  1.7588 -1.2782
  591MOL0     H79762   5.174   1.781   7.613 -1.4123 -1.7236  0.2787
  591MOL0     H79763   4.906   1.799   7.476 -1.0658 -0.7046  1.1962
  591MOL0     H79764   4.921   1.857   7.643  0.4232  2.5436 -0.9909
  591MOL0     H79765   5.021   1.576   7.551  2.7697  1.6257  0.4441
  591MOL0     H79766   4.849   1.615   7.590 -0.0573 -0.7965  1.1392
  591MOL0     H79767   5.608   2.610   7.527  0.1725 -0.8476 -3.4654
  591MOL0     H79768   5.734   2.617   7.733  0.2999 -0.0907 -0.5439
  591MOL0     H79769   5.913   2.232   8.006  1.4081 -2.7854  1.2848
  591MOL0     H79770   5.968   2.138   8.215  0.9243  0.6936 -0.2694
  591MOL0     H79771   6.952   2.673   9.627 -4.4497  2.5390  3.4949
  591MOL0     H79772   7.202   2.681   9.581 -0.1646  1.4300 -0.7215
  591MOL0     H79773   7.669   2.756   9.508  1.3880 -0.4212 -0.6536
  591MOL0     H79774   7.893   2.731   9.554  0.3244 -2.5320  0.5732
  591MOL0     H79775   8.175   2.748   9.678 -0.7297  3.0271 -0.9627
  591MOL0     H79776   8.057   2.867   9.674 -2.7264  0.4819  0.7153
  591MOL0     H79777   8.131   2.908   9.928  3.6547 -1.0844  2.4401
  591MOL0     H79778   8.258   2.926   9.790 -0.4624 -0.8993 -2.6883
  591MOL0     H79779   8.301   2.680   9.851  1.2126 -1.7254  0.9993
  591MOL0     H79780   8.210   2.719  10.005  1.1993 -3.3432 -0.3647
  591MOL0     H79781   8.476   2.825   9.890 -1.4961  1.4708 -0.7974
  591MOL0     H79782   8.455   2.711  10.025  0.5373  1.7162  0.7193
  591MOL0     H79783   8.405   3.102  10.181  1.1222  0.9040 -2.1578
  591MOL0     H79784   7.814   2.737   9.978 -2.4291  1.5557  1.4833
  591MOL0     H79785   7.574   2.752   9.929 -1.1524  3.7972 -0.2436
  592MOL0     O79786  10.795   4.880   2.974  0.5906 -0.4168 -0.2813
  592MOL0     C79787  10.835   4.939   2.876 -0.0530  0.0041 -0.2809
  592MOL0     O79788  10.760   4.956   2.764  0.7290 -0.6059  0.2792
  592MOL0     C79789  10.642   4.881   2.750 -0.0910 -0.0384 -0.5066
  592MOL0     C79790  10.530   4.959   2.716  0.3011  0.6210 -0.4248
  592MOL0     C79791  10.404   4.901   2.705  0.0396  0.2450 -0.8934
  592MOL0     C79792  10.387   4.765   2.735 -0.1293  0.6275  0.3633
  592MOL0     O79793  10.255   4.730   2.740 -0.2332  0.9582  0.5456
  592MOL0     C79794  10.222   4.602   2.807 -0.2070 -0.6920 -0.4587
  592MOL0     C79795  10.087   4.551   2.766 -0.8913  0.8171 -0.1931
  592MOL0     C79796   9.976   4.643   2.786  0.5426 -0.3489  0.8637
  592MOL0     C79797   9.843   4.583   2.718  0.3417 -0.1341  0.0471
  592MOL0     C79798   9.718   4.637   2.773  0.0715  0.3703 -0.3497
  592MOL0     C79799   9.592   4.540   2.779 -1.1504 -0.4613  0.0555
  592MOL0     C79800   9.561   4.494   2.924 -0.2822  0.4745 -0.1902
  592MOL0     C79801   9.487   4.596   3.002 -0.1341  0.1732 -1.2829
  592MOL0     N79802   9.454   4.548   3.145 -0.3449 -0.3705 -0.1016
  592MOL0     C79803   9.333   4.507   3.185  0.1152  1.1943 -0.2697
  592MOL0     C79804   9.348   4.432   3.294  0.3259 -0.0442  0.5060
  592MOL0     C79805   9.251   4.351   3.370  0.2792  0.3873 -0.7725
  592MOL0     C79806   9.311   4.227   3.453 -0.1956  0.2766  0.3017
  592MOL0     C79807   9.193   4.138   3.513  0.1641  0.2151  0.2403
  592MOL0     C79808   9.129   4.203   3.632 -0.3101 -0.3214  1.1664
  592MOL0     O79809   9.015   4.277   3.578 -1.0576 -0.2239  0.8138
  592MOL0     C79810   8.893   4.235   3.615 -0.9333 -0.1383 -0.1570
  592MOL0     C79811   8.853   4.242   3.745  0.6280  0.6240  0.3516
  592MOL0     C79812   8.727   4.184   3.795 -0.1253  0.7170  0.3541
  592MOL0     C79813   8.707   4.192   3.946  0.8474  0.0768 -0.0920
  592MOL0     C79814   8.628   4.146   3.695  0.4753  0.0325  0.0422
  592MOL0     C79815   8.487   4.113   3.722 -1.1296 -0.4278 -0.0887
  592MOL0     O79816   8.422   4.052   3.623 -0.0034  0.0087  0.6790
  592MOL0     C79817   8.308   3.987   3.652 -0.2760  0.3995  0.6997
  592MOL0     C79818   8.186   4.024   3.598 -0.0526  0.0843  0.1493
  592MOL0     C79819   8.070   3.955   3.635 -0.5634 -0.4919 -0.5998
  592MOL0     C79820   8.075   3.837   3.711 -0.0197 -0.1630  0.5800
  592MOL0     O79821   7.954   3.763   3.725 -0.2957  0.2682  0.1575
  592MOL0     C79822   7.967   3.630   3.772 -0.4243 -0.2325  0.6116
  592MOL0     C79823   7.826   3.572   3.771  0.0622  0.0172  0.3051
  592MOL0     C79824   7.741   3.607   3.896  1.1629  0.2966 -0.6903
  592MOL0     C79825   7.589   3.562   3.883 -0.1158  0.0319  1.0146
  592MOL0     C79826   7.501   3.646   3.968  0.0114 -0.4409 -0.8902
  592MOL0     C79827   7.347   3.594   3.976 -0.4111 -0.2592  1.0876
  592MOL0     C79828   7.328   3.460   4.040 -1.0449 -0.5180  0.6158
  592MOL0     C79829   7.177   3.437   4.061  0.5981  0.5452  0.0938
  592MOL0    Cl79830   7.180   3.263   4.104  0.0866 -0.2584  0.3523
  592MOL0     C79831   8.204   3.797   3.751  0.6091 -0.6912 -0.0402
  592MOL0     C79832   8.315   3.873   3.730 -0.4290  0.9323  0.2742
  592MOL0     O79833   8.435   4.151   3.825 -0.2285 -0.1516 -1.0248
  592MOL0     C79834   8.674   4.144   3.563 -0.6931  0.1664  0.7963
  592MOL0     C79835   8.802   4.183   3.525  0.3298 -0.4496 -0.7061
  592MOL0     N79836   9.479   4.457   3.333 -0.0434  0.4049  0.6145
  592MOL0     N79837   9.542   4.520   3.238 -0.0467  0.1205  0.0254
  592MOL0     C79838  10.496   4.681   2.751 -0.5660 -0.2943  0.9682
  592MOL0     C79839  10.619   4.744   2.773 -0.3182  0.5220  0.4316
  592MOL0     C79840  10.984   4.984   2.870  0.4378 -0.2720 -0.2712
  592MOL0     C79841  11.061   4.971   2.987 -0.2894  0.1178  0.5580
  592MOL0     C79842  11.193   5.029   2.985 -0.3196  0.6837 -0.5909
  592MOL0     C79843  11.241   5.098   2.865 -0.0379  0.4697  0.7589
  592MOL0     O79844  11.363   5.160   2.878  0.9271 -0.6829 -1.0174
  592MOL0     C79845  11.402   5.268   2.785  0.6624 -1.0681  0.1728
  592MOL0     C79846  11.500   5.352   2.851  0.8731 -0.0477 -0.3807
  592MOL0     C79847  11.444   5.427   2.975 -0.0259  0.6323 -0.5178
  592MOL0     C79848  11.553   5.522   3.026  0.7844  0.1516  0.0977
  592MOL0     C79849  11.685   5.458   3.057  0.4502  0.1804  0.2816
  592MOL0     C79850  11.792   5.412   3.103 -0.1471  0.0830 -0.0478
  592MOL0     C79851  11.155   5.112   2.751 -0.4438 -0.0484 -0.5584
  592MOL0     C79852  11.026   5.055   2.757 -0.6587  0.2024  0.1659
  592MOL0     H79853  10.536   5.065   2.692 -0.9529  0.9291  0.5626
  592MOL0     H79854  10.316   4.961   2.686  1.3953  2.6939 -0.0415
  592MOL0     H79855  10.294   4.524   2.780  0.3387  0.4521 -2.5193
  592MOL0     H79856  10.219   4.624   2.915  1.4567 -1.8316 -0.1458
  592MOL0     H79857  10.096   4.531   2.658 -3.5057  0.2772 -0.3899
  592MOL0     H79858  10.053   4.460   2.816 -3.7335  2.6294  1.4053
  592MOL0     H79859   9.957   4.662   2.892 -1.5936  3.3708  0.0107
  592MOL0     H79860   9.993   4.742   2.745  1.5385 -0.1530  1.7159
  592MOL0     H79861   9.849   4.606   2.611  3.3993 -1.7994 -0.2543
  592MOL0     H79862   9.835   4.475   2.733  0.7682  0.1482  2.9506
  592MOL0     H79863   9.740   4.662   2.877 -0.3801 -2.6162  0.5624
  592MOL0     H79864   9.679   4.727   2.724 -1.8502 -0.1819  0.0667
  592MOL0     H79865   9.503   4.586   2.737 -0.3342 -1.7769 -3.4350
  592MOL0     H79866   9.608   4.459   2.708 -1.3113 -1.2973  0.9658
  592MOL0     H79867   9.510   4.398   2.931 -1.3606  1.1400  4.2029
  592MOL0     H79868   9.652   4.475   2.983  0.1190  2.2965 -0.1487
  592MOL0     H79869   9.391   4.614   2.952 -0.6239  0.7841 -0.1856
  592MOL0     H79870   9.553   4.684   3.003  0.8184 -0.4956 -2.7005
  592MOL0     H79871   9.236   4.509   3.138 -0.2490  0.7735  0.4458
  592MOL0     H79872   9.202   4.411   3.448 -0.2089 -2.5026  1.3260
  592MOL0     H79873   9.170   4.317   3.305 -0.5984 -2.0265  1.4091
  592MOL0     H79874   9.375   4.261   3.535  1.8928  1.9659 -1.8915
  592MOL0     H79875   9.371   4.170   3.382  0.5364 -0.6391  1.6124
  592MOL0     H79876   9.240   4.047   3.551  0.5164 -0.7851 -2.3375
  592MOL0     H79877   9.119   4.115   3.435  0.7435  0.4502 -0.3938
  592MOL0     H79878   9.201   4.272   3.678  0.3616  0.6830 -1.2369
  592MOL0     H79879   9.105   4.127   3.707 -0.5617 -1.4634 -0.0348
  592MOL0     H79880   8.919   4.281   3.822  0.3581  0.3737  0.7156
  592MOL0     H79881   8.799   4.184   4.004 -0.7854 -1.1479  2.5421
  592MOL0     H79882   8.646   4.280   3.972 -0.9977  0.0993 -3.8156
  592MOL0     H79883   8.661   4.099   3.981 -3.1499  1.5896 -0.8240
  592MOL0     H79884   8.186   4.119   3.545  2.1693 -0.5814 -1.1915
  592MOL0     H79885   7.979   4.004   3.602  1.7801  4.4368 -0.6825
  592MOL0     H79886   8.024   3.579   3.694 -0.2535  2.3384 -1.0622
  592MOL0     H79887   8.014   3.618   3.871  2.4940  0.4567 -0.5818
  592MOL0     H79888   7.772   3.612   3.685  1.1458 -0.3273 -0.5537
  592MOL0     H79889   7.829   3.464   3.755 -1.2230 -0.0478  0.3524
  592MOL0     H79890   7.739   3.712   3.927 -0.1303 -0.2277  1.2305
  592MOL0     H79891   7.781   3.562   3.987 -1.2636  0.6099  0.6255
  592MOL0     H79892   7.567   3.562   3.776  0.1395  2.4991  0.9125
  592MOL0     H79893   7.578   3.455   3.904  1.9381 -0.1206  1.4806
  592MOL0     H79894   7.522   3.753   3.954  1.4260 -0.0940  2.6322
  592MOL0     H79895   7.540   3.627   4.069 -0.2778  1.3303 -0.4082
  592MOL0     H79896   7.284   3.676   4.013  1.4492  1.5454  0.4212
  592MOL0     H79897   7.312   3.571   3.876 -2.0844  0.2544  1.5212
  592MOL0     H79898   7.371   3.470   4.139  0.0441 -2.1144  0.3317
  592MOL0     H79899   7.386   3.386   3.984  1.3751 -1.9580  4.6814
  592MOL0     H79900   7.115   3.472   3.978  1.0711  1.9375  0.3099
  592MOL0     H79901   7.138   3.484   4.152 -1.1735  0.3195 -0.5152
  592MOL0     H79902   8.208   3.705   3.809 -1.2222 -0.5614  0.3712
  592MOL0     H79903   8.405   3.840   3.781 -1.0862 -1.4815  0.0037
  592MOL0     H79904   8.606   4.119   3.482  0.4799 -1.6957  0.3335
  592MOL0     H79905   8.833   4.177   3.421  0.8044 -0.0483 -0.5925
  592MOL0     H79906  10.493   4.577   2.781  1.3810 -0.6361  0.1114
  592MOL0     H79907  10.696   4.669   2.790 -0.5821  0.3684  0.9614
  592MOL0     H79908  11.026   4.913   3.071 -0.1545 -1.4290 -0.4136
  592MOL0     H79909  11.259   5.012   3.069 -1.4057  1.1761  0.3981
  592MOL0     H79910  11.462   5.221   2.706  4.1653  0.9839  1.3626
  592MOL0     H79911  11.323   5.324   2.735  0.9767 -0.5603  0.2387
  592MOL0     H79912  11.529   5.436   2.787 -0.0754  2.0185  1.7258
  592MOL0     H79913  11.577   5.281   2.883 -1.1924 -0.7548  3.5781
  592MOL0     H79914  11.434   5.349   3.051  2.3073  0.4221 -0.3453
  592MOL0     H79915  11.348   5.477   2.962 -0.9299 -1.1595 -1.0098
  592MOL0     H79916  11.510   5.569   3.115  0.1474  0.1263 -0.1897
  592MOL0     H79917  11.573   5.592   2.944  0.0869  1.2594  0.8519
  592MOL0     H79918  11.890   5.393   3.143 -0.1307 -0.1928 -0.2158
  592MOL0     H79919  11.189   5.156   2.658 -0.5807  1.1686 -0.0534
  592MOL0     H79920  10.958   5.068   2.674 -2.4262 -2.7865  1.0000
  593MOL0     O79921   9.914   5.194   8.516  0.3813 -0.8178  0.7430
  593MOL0     C79922   9.883   5.077   8.529 -0.6003  0.3436 -0.1059
  593MOL0     O79923   9.789   5.025   8.612  0.8170 -0.0112  0.1168
  593MOL0     C79924   9.700   5.113   8.671 -0.0525  0.7160  0.8029
  593MOL0     C79925   9.691   5.127   8.810 -0.2396  0.2040  0.0553
  593MOL0     C79926   9.597   5.212   8.871 -0.1873  0.1293 -0.7122
  593MOL0     C79927   9.525   5.302   8.792 -0.1877  0.8848  0.0595
  593MOL0     O79928   9.444   5.377   8.858 -0.1917 -0.1368 -0.6570
  593MOL0     C79929   9.504   5.462   8.960  0.1369  0.0777  0.4030
  593MOL0     C79930   9.412   5.481   9.079 -0.2015 -0.4187  0.3094
  593MOL0     C79931   9.399   5.360   9.161  0.3398  0.9998 -1.3067
  593MOL0     C79932   9.356   5.382   9.304 -0.1252  1.2479  0.1587
  593MOL0     C79933   9.214   5.448   9.311 -0.7248  0.2120 -0.4780
  593MOL0     C79934   9.170   5.461   9.461  0.5050  0.1442  0.7500
  593MOL0     C79935   9.029   5.519   9.451  0.3914  0.2423 -0.0891
  593MOL0     C79936   8.961   5.474   9.583  0.4180  0.1067 -0.0275
  593MOL0     N79937   8.820   5.517   9.593  0.6354 -0.1915  0.1472
  593MOL0     C79938   8.722   5.468   9.518 -0.2623 -0.2424 -0.2652
  593MOL0     C79939   8.607   5.539   9.544  0.5314  0.8395  0.3022
  593MOL0     C79940   8.468   5.493   9.520  0.2872  0.7807  0.5404
  593MOL0     C79941   8.367   5.585   9.591  1.2160  0.3690 -0.4687
  593MOL0     C79942   8.222   5.530   9.598 -0.0216 -0.2672 -0.0952
  593MOL0     C79943   8.131   5.622   9.684 -0.2693  0.7792 -0.1947
  593MOL0     O79944   8.038   5.535   9.747  0.3106 -0.1043 -0.7671
  593MOL0     C79945   7.912   5.581   9.762 -0.2069 -0.3817 -0.5558
  593MOL0     C79946   7.805   5.515   9.703 -0.0767 -0.3847  0.0352
  593MOL0     C79947   7.672   5.549   9.746  1.0178  0.2619  0.0865
  593MOL0     C79948   7.566   5.468   9.692  0.6931  0.1539  0.5115
  593MOL0     C79949   7.651   5.650   9.843  0.9575  0.0909 -0.1387
  593MOL0     C79950   7.514   5.701   9.890 -0.0124  0.5348 -1.0598
  593MOL0     O79951   7.408   5.700   9.800 -0.4434  0.3971  0.5164
  593MOL0     C79952   7.286   5.751   9.831  0.7493  0.3178  0.2995
  593MOL0     C79953   7.258   5.888   9.849 -0.2065 -0.1716  0.4183
  593MOL0     C79954   7.129   5.937   9.873 -0.1551 -0.0717  0.0843
  593MOL0     C79955   7.021   5.851   9.892 -0.2151 -0.8574 -0.7119
  593MOL0     O79956   6.891   5.898   9.924 -0.3360  0.3303  0.3330
  593MOL0     C79957   6.857   6.036   9.883 -0.1962  1.3950  0.0067
  593MOL0     C79958   6.716   6.064   9.921  0.0232  0.0508 -0.1191
  593MOL0     C79959   6.680   6.002  10.058 -0.4232 -0.0017 -0.6749
  593MOL0     C79960   6.546   6.058  10.105  0.3278  0.8182  0.5553
  593MOL0     C79961   6.540   6.048  10.256  0.5041  0.0623  0.0816
  593MOL0     C79962   6.409   6.080  10.318  0.5299  0.0579 -0.1245
  593MOL0     C79963   6.408   6.122  10.467 -0.9552 -0.4099 -0.0276
  593MOL0     C79964   6.273   6.160  10.511  0.1553 -0.3125 -1.7691
  593MOL0    Cl79965   6.277   6.233  10.678  0.2247  0.2285  0.1060
  593MOL0     C79966   7.052   5.714   9.899  0.0175  0.2453 -0.4978
  593MOL0     C79967   7.184   5.661   9.869  1.0392  0.4072  0.3606
  593MOL0     O79968   7.504   5.744  10.003  0.4499  0.2526 -0.1720
  593MOL0     C79969   7.761   5.724   9.887 -0.5708  0.7599 -0.3795
  593MOL0     C79970   7.884   5.683   9.857  0.4924 -0.4183  0.2667
  593MOL0     N79971   8.654   5.646   9.622  0.0325  0.3386 -0.2290
  593MOL0     N79972   8.779   5.638   9.653 -0.3286 -0.3212 -0.0705
  593MOL0     C79973   9.540   5.294   8.657  0.1447 -0.5525  0.5897
  593MOL0     C79974   9.611   5.192   8.600 -0.6031  0.2068  0.4220
  593MOL0     C79975   9.975   4.986   8.451  0.0637 -0.5154 -0.0701
  593MOL0     C79976  10.069   5.034   8.359  0.9038  0.2735  0.5790
  593MOL0     C79977  10.159   4.950   8.299 -0.1564  0.1909  0.4757
  593MOL0     C79978  10.179   4.824   8.350 -0.0864 -0.4202 -0.1865
  593MOL0     O79979  10.289   4.755   8.299  0.1921 -0.0946 -0.2251
  593MOL0     C79980  10.312   4.617   8.313 -0.1662 -0.6308 -0.2927
  593MOL0     C79981  10.446   4.580   8.241  0.1985  0.7687 -0.9550
  593MOL0     C79982  10.472   4.426   8.229 -0.2608  0.3266  0.0260
  593MOL0     C79983  10.622   4.394   8.186  0.7221 -0.4002  0.7369
  593MOL0     C79984  10.660   4.403   8.048 -0.5844  0.1724  0.4006
  593MOL0     C79985  10.694   4.403   7.936 -0.5042  0.1506  0.8266
  593MOL0     C79986  10.099   4.776   8.450 -0.9947 -1.2667 -1.0335
  593MOL0     C79987   9.988   4.853   8.496 -0.0925  0.1717  0.0642
  593MOL0     H79988   9.745   5.053   8.868  0.3639  1.5262  1.2527
  593MOL0     H79989   9.577   5.207   8.977 -0.6690 -0.3861 -0.8255
  593MOL0     H79990   9.598   5.422   8.999 -0.0984 -1.0304 -0.1358
  593MOL0     H79991   9.526   5.554   8.905  0.1029  0.1112  0.4445
  593MOL0     H79992   9.468   5.560   9.131  1.5442  0.0623 -2.1050
  593MOL0     H79993   9.317   5.521   9.040 -1.4655 -3.1191  0.4188
  593MOL0     H79994   9.329   5.287   9.118  0.9967  0.4623 -1.4767
  593MOL0     H79995   9.494   5.307   9.163  1.1818  2.4437  0.8620
  593MOL0     H79996   9.356   5.284   9.352 -0.7989 -0.0524 -2.3389
  593MOL0     H79997   9.419   5.448   9.364  1.4309 -1.0835  1.2181
  593MOL0     H79998   9.211   5.548   9.267 -0.8857 -0.1973 -1.4132
  593MOL0     H79999   9.152   5.374   9.259  0.4193 -1.6163  0.6198
  593MOL0     H80000   9.173   5.362   9.507  1.1971 -1.2088 -2.0052
  593MOL0     H80001   9.233   5.528   9.520 -0.6349 -0.4509  2.7565
  593MOL0     H80002   9.010   5.625   9.436  0.3030  0.2522  0.0827
  593MOL0     H80003   8.966   5.478   9.371 -3.4143  0.9365  2.2633
  593MOL0     H80004   9.020   5.518   9.664  2.2113 -0.0511 -1.1898
  593MOL0     H80005   8.967   5.365   9.594  1.0110  0.1734  0.3470
  593MOL0     H80006   8.728   5.384   9.450 -0.2306 -1.2069  0.9021
  593MOL0     H80007   8.444   5.499   9.413 -2.0287 -1.6354  0.8296
  593MOL0     H80008   8.445   5.392   9.554  1.2799 -0.3952 -2.0063
  593MOL0     H80009   8.365   5.684   9.545 -2.5773  1.2958  1.3096
  593MOL0     H80010   8.401   5.601   9.694  3.7936  1.5009 -1.4273
  593MOL0     H80011   8.227   5.435   9.651  0.8352 -1.3587 -2.0559
  593MOL0     H80012   8.186   5.528   9.495  0.0980 -2.7833 -0.1351
  593MOL0     H80013   8.071   5.694   9.629 -1.0871  1.5372  1.6063
  593MOL0     H80014   8.192   5.682   9.753  1.2166 -2.5476  1.6440
  593MOL0     H80015   7.824   5.436   9.631  1.0567 -0.4037  0.3309
  593MOL0     H80016   7.593   5.389   9.621 -0.9923  0.2625 -0.3029
  593MOL0     H80017   7.524   5.407   9.772 -1.2943  2.0885  1.0294
  593MOL0     H80018   7.484   5.526   9.649  1.5119  0.1555 -1.1541
  593MOL0     H80019   7.334   5.965   9.838  1.9090 -2.3295 -1.1324
  593MOL0     H80020   7.113   6.044   9.878  0.8080  0.0964 -0.1808
  593MOL0     H80021   6.928   6.099   9.937 -0.8677 -0.3948  3.2489
  593MOL0     H80022   6.863   6.044   9.774 -0.8069  2.4427  0.0389
  593MOL0     H80023   6.694   6.170   9.936  0.3400  0.1129 -0.0880
  593MOL0     H80024   6.642   6.032   9.847 -0.7825  2.3499 -0.4132
  593MOL0     H80025   6.750   6.045  10.131 -0.0085  4.3810 -3.2588
  593MOL0     H80026   6.689   5.893  10.063  2.7865  0.1548 -0.6700
  593MOL0     H80027   6.538   6.166  10.088 -0.8150  0.4496 -1.7060
  593MOL0     H80028   6.457   6.004  10.073  0.8399  0.0110  0.4655
  593MOL0     H80029   6.612   6.122  10.292 -0.8102  0.9426  0.9957
  593MOL0     H80030   6.571   5.950  10.294 -2.5118  0.2090  3.4400
  593MOL0     H80031   6.352   6.148  10.255 -2.9708 -2.7843 -0.3677
  593MOL0     H80032   6.358   5.983  10.315  1.8416 -0.7411  1.6345
  593MOL0     H80033   6.479   6.203  10.487  0.9637 -1.9658 -0.1934
  593MOL0     H80034   6.442   6.037  10.527  0.0061 -2.0006 -2.6590
  593MOL0     H80035   6.198   6.082  10.499 -0.7989  0.2793  0.0166
  593MOL0     H80036   6.240   6.244  10.450  0.7123  0.7991 -0.5907
  593MOL0     H80037   6.967   5.662   9.943  1.4354 -0.0588  2.0188
  593MOL0     H80038   7.194   5.553   9.864  0.6122  0.2631  1.9486
  593MOL0     H80039   7.758   5.818   9.942 -1.4879  0.0227  0.8958
  593MOL0     H80040   7.969   5.743   9.889 -0.1544  1.0732 -0.7145
  593MOL0     H80041   9.489   5.367   8.595  1.2345 -0.9945 -0.8612
  593MOL0     H80042   9.623   5.197   8.493  1.6598  1.7765  0.6859
  593MOL0     H80043  10.077   5.136   8.323  2.1402 -1.1848 -3.9521
  593MOL0     H80044  10.234   4.987   8.230  1.5040 -0.4688  1.8342
  593MOL0     H80045  10.317   4.610   8.422 -0.6701  1.3712 -0.0950
  593MOL0     H80046  10.225   4.566   8.270 -1.6183  1.8310 -0.4552
  593MOL0     H80047  10.527   4.630   8.295 -1.7670  2.0916  0.9518
  593MOL0     H80048  10.435   4.627   8.143 -0.5812  0.0387 -1.2253
  593MOL0     H80049  10.419   4.378   8.146  2.5968 -0.4040 -1.5569
  593MOL0     H80050  10.459   4.389   8.331 -2.0696  0.3346 -0.1804
  593MOL0     H80051  10.645   4.290   8.211 -1.1700 -1.4671 -1.5997
  593MOL0     H80052  10.684   4.461   8.247  0.3972  1.0039 -0.4130
  593MOL0     H80053  10.715   4.392   7.832  0.9139 -2.3250  1.2966
  593MOL0     H80054  10.112   4.674   8.485  0.7389 -0.3816  1.1728
  593MOL0     H80055   9.938   4.813   8.583 -1.5634  0.2033 -0.7359
  594MOL0     O80056   5.845   9.026   9.718  0.0946 -0.0068 -0.4481
  594MOL0     C80057   5.790   9.132   9.696  0.3791 -0.6897  0.4148
  594MOL0     O80058   5.846   9.262   9.715  0.0085  0.7648  0.3193
  594MOL0     C80059   5.980   9.282   9.691  0.0309  0.8426  0.6803
  594MOL0     C80060   6.048   9.352   9.788 -0.1733  0.3526 -0.4157
  594MOL0     C80061   6.190   9.347   9.799  0.0458 -0.1106  0.7139
  594MOL0     C80062   6.255   9.281   9.692 -0.1279 -0.7407 -0.5912
  594MOL0     O80063   6.392   9.276   9.680 -0.0472  0.3317 -0.2376
  594MOL0     C80064   6.468   9.317   9.795 -1.2980  0.2081 -0.0678
  594MOL0     C80065   6.615   9.284   9.775  0.1682  0.5948  0.4618
  594MOL0     C80066   6.676   9.338   9.646 -0.2222  0.3660 -0.1287
  594MOL0     C80067   6.829   9.335   9.665  0.2455 -0.6520  0.3930
  594MOL0     C80068   6.899   9.396   9.540  0.3301  0.7001 -0.2318
  594MOL0     C80069   7.040   9.429   9.570  0.3671 -0.5505 -0.6463
  594MOL0     C80070   7.097   9.474   9.423 -0.7730  0.1073 -0.9745
  594MOL0     C80071   7.235   9.523   9.446  0.7014 -0.3391 -0.3379
  594MOL0     N80072   7.271   9.602   9.329  0.3257  0.5663  0.3121
  594MOL0     C80073   7.359   9.574   9.221 -0.4994  0.8595 -0.2556
  594MOL0     C80074   7.366   9.682   9.146 -0.2002  0.2459  0.0884
  594MOL0     C80075   7.447   9.689   9.020 -0.1612 -0.0836  0.1688
  594MOL0     C80076   7.377   9.662   8.894  1.2388 -0.6262 -0.1334
  594MOL0     C80077   7.471   9.650   8.770  1.2171  0.5494 -0.2255
  594MOL0     C80078   7.390   9.607   8.639 -0.5231  0.0777 -0.1362
  594MOL0     O80079   7.459   9.653   8.528 -0.2746 -0.9018 -0.0867
  594MOL0     C80080   7.429   9.615   8.406 -1.0892 -0.0613  0.8932
  594MOL0     C80081   7.317   9.544   8.369 -0.5577 -0.1560  0.6570
  594MOL0     C80082   7.283   9.515   8.237  1.5383  1.4049  0.0421
  594MOL0     C80083   7.151   9.455   8.211 -0.4183 -0.8498 -0.0417
  594MOL0     C80084   7.376   9.543   8.132 -0.2502  0.3996 -0.3775
  594MOL0     C80085   7.354   9.499   7.990  1.4432  0.9819  0.3976
  594MOL0     O80086   7.437   9.559   7.898 -0.7251 -0.2882 -0.1468
  594MOL0     C80087   7.442   9.555   7.756  0.2345  0.9253 -0.1007
  594MOL0     C80088   7.533   9.642   7.696  0.0869 -0.1778  0.5663
  594MOL0     C80089   7.538   9.646   7.556  0.2115  0.4559  0.1633
  594MOL0     C80090   7.460   9.563   7.481  1.4290 -0.6456  0.4664
  594MOL0     O80091   7.469   9.575   7.346 -0.2485 -0.8581  0.0102
  594MOL0     C80092   7.429   9.703   7.293 -0.2311  0.0634 -0.4294
  594MOL0     C80093   7.411   9.691   7.142 -0.0974 -0.3656 -0.0410
  594MOL0     C80094   7.539   9.651   7.076  0.5698  0.2677 -0.0138
  594MOL0     C80095   7.645   9.763   7.059 -0.1947 -0.3772  0.2761
  594MOL0     C80096   7.767   9.720   6.973 -0.0182 -0.4570  0.1365
  594MOL0     C80097   7.879   9.826   6.974  0.1395 -0.4517 -0.1633
  594MOL0     C80098   7.993   9.794   7.067 -0.7372 -0.4651  0.1193
  594MOL0     C80099   8.095   9.909   7.075  0.3746 -0.0750 -0.3838
  594MOL0    Cl80100   8.030  10.057   7.151 -0.5133 -0.0759 -0.1615
  594MOL0     C80101   7.362   9.468   7.535  0.2672 -0.6181 -0.5140
  594MOL0     C80102   7.363   9.461   7.678 -0.2799 -1.3152 -0.2729
  594MOL0     O80103   7.288   9.398   7.967 -0.5260  0.2810 -0.6250
  594MOL0     C80104   7.499   9.604   8.178 -0.0800 -0.5651 -0.4263
  594MOL0     C80105   7.519   9.648   8.307  0.3539  0.7210 -0.3426
  594MOL0     N80106   7.285   9.777   9.197  0.2819 -0.7026 -0.5937
  594MOL0     N80107   7.214   9.723   9.301  0.0022 -0.5483  0.9339
  594MOL0     C80108   6.180   9.222   9.589 -0.0961  0.6299  0.6805
  594MOL0     C80109   6.048   9.219   9.587  0.4220 -1.1186 -0.3744
  594MOL0     C80110   5.644   9.129   9.679 -0.9838 -0.5287 -0.3831
  594MOL0     C80111   5.571   9.246   9.677  0.7251  0.6751  0.5470
  594MOL0     C80112   5.429   9.249   9.675 -0.1149  0.6589 -0.0808
  594MOL0     C80113   5.361   9.123   9.675 -0.7272 -0.3726 -1.1118
  594MOL0     O80114   5.228   9.124   9.684 -0.6001  0.2120  0.5824
  594MOL0     C80115   5.152   9.006   9.654  0.3731  0.3661 -0.1012
  594MOL0     C80116   5.004   9.034   9.657  0.2848  0.5232 -0.5619
  594MOL0     C80117   4.925   8.904   9.673  0.4751 -0.3031 -0.9225
  594MOL0     C80118   4.771   8.920   9.669 -0.4937  0.3174 -0.4090
  594MOL0     C80119   4.714   8.992   9.781 -0.1422 -0.4101 -0.1688
  594MOL0     C80120   4.693   9.058   9.878  0.6271 -0.4640  0.4522
  594MOL0     C80121   5.441   9.006   9.670 -0.0262  0.2461 -0.3161
  594MOL0     C80122   5.574   9.007   9.678  0.0204  0.2850 -0.3481
  594MOL0     H80123   5.991   9.411   9.859  0.2079  2.6337 -1.8908
  594MOL0     H80124   6.240   9.399   9.880  1.5538 -0.6710  0.1807
  594MOL0     H80125   6.458   9.418   9.835 -1.0406 -0.5085  1.9131
  594MOL0     H80126   6.444   9.251   9.879  1.6000 -0.8238  0.0330
  594MOL0     H80127   6.674   9.328   9.856 -0.5322  0.8344  0.8481
  594MOL0     H80128   6.622   9.176   9.790 -0.0886  0.7963  2.3322
  594MOL0     H80129   6.648   9.275   9.561  2.0688 -1.3953  0.3383
  594MOL0     H80130   6.647   9.442   9.625 -1.0581  0.6411  2.1027
  594MOL0     H80131   6.855   9.392   9.754 -1.1946  3.5804 -1.6422
  594MOL0     H80132   6.852   9.230   9.688  0.0403 -0.6578  0.5659
  594MOL0     H80133   6.905   9.314   9.469  0.8997 -2.7527  3.4531
  594MOL0     H80134   6.843   9.484   9.506 -1.3234  0.4106  1.5322
  594MOL0     H80135   7.038   9.515   9.637 -4.1270 -1.5092  0.7978
  594MOL0     H80136   7.087   9.343   9.618 -0.0620  0.6505  2.0779
  594MOL0     H80137   7.101   9.387   9.357  1.2699 -1.0150  0.4919
  594MOL0     H80138   7.026   9.550   9.390 -3.1330 -1.1991  0.7554
  594MOL0     H80139   7.298   9.439   9.477 -0.8579  0.0560  4.9825
  594MOL0     H80140   7.229   9.601   9.523 -0.6870 -0.3483 -0.4154
  594MOL0     H80141   7.419   9.487   9.196  2.2483  2.7266 -0.5751
  594MOL0     H80142   7.493   9.785   8.999  1.5093 -1.3604 -2.3526
  594MOL0     H80143   7.527   9.618   9.040  3.3830  4.2591  3.5480
  594MOL0     H80144   7.300   9.737   8.874  0.2053 -1.5349  0.3473
  594MOL0     H80145   7.341   9.560   8.907  3.1182 -0.9866  3.8540
  594MOL0     H80146   7.563   9.592   8.786  2.0681  2.1834  1.1319
  594MOL0     H80147   7.507   9.751   8.750  2.9559 -0.0740 -0.3901
  594MOL0     H80148   7.291   9.653   8.635 -0.7267 -0.1064  1.8100
  594MOL0     H80149   7.376   9.499   8.632 -0.3646  0.0612 -0.2016
  594MOL0     H80150   7.258   9.504   8.451  0.2381  1.1834  1.9372
  594MOL0     H80151   7.108   9.490   8.117 -1.7132 -0.6867  0.5934
  594MOL0     H80152   7.154   9.347   8.196  4.5069 -0.9325 -0.1399
  594MOL0     H80153   7.077   9.486   8.285  0.1911  1.0498 -0.1741
  594MOL0     H80154   7.592   9.708   7.758 -0.4449  0.4743  0.3807
  594MOL0     H80155   7.604   9.724   7.518 -0.5245  3.3105  4.1666
  594MOL0     H80156   7.342   9.751   7.339  0.7105  3.3210 -1.7629
  594MOL0     H80157   7.511   9.776   7.299  0.1006 -0.2132 -1.3817
  594MOL0     H80158   7.324   9.626   7.125 -1.1934  0.2954  2.6256
  594MOL0     H80159   7.369   9.789   7.117  0.7152 -0.0098 -0.0368
  594MOL0     H80160   7.522   9.632   6.970  0.4973  1.3452 -0.1981
  594MOL0     H80161   7.571   9.559   7.126  1.1589  1.4177  1.8418
  594MOL0     H80162   7.601   9.856   7.021  0.0312  1.1077  3.3545
  594MOL0     H80163   7.680   9.792   7.159  0.1518  0.9884 -0.2128
  594MOL0     H80164   7.738   9.702   6.869  0.3896  0.1591 -0.0866
  594MOL0     H80165   7.792   9.625   7.020 -0.1992 -0.7220 -0.2919
  594MOL0     H80166   7.913   9.850   6.873 -0.7696 -0.3498 -0.4498
  594MOL0     H80167   7.835   9.921   7.006 -0.5814 -0.7887 -0.1278
  594MOL0     H80168   8.047   9.702   7.042 -0.3208  0.4851 -2.8623
  594MOL0     H80169   7.952   9.797   7.168  0.1975 -1.6151  0.5576
  594MOL0     H80170   8.131   9.931   6.974  0.4820 -1.5049 -0.6786
  594MOL0     H80171   8.175   9.871   7.139  0.2269  2.2209  1.2926
  594MOL0     H80172   7.290   9.418   7.471 -1.2652 -0.2129  0.8248
  594MOL0     H80173   7.292   9.395   7.726  0.3396  0.1153  2.9015
  594MOL0     H80174   7.586   9.605   8.113  0.7794 -0.6124  0.6992
  594MOL0     H80175   7.616   9.695   8.325  0.9806 -1.6463  3.9585
  594MOL0     H80176   6.238   9.168   9.515 -0.2956  1.2013  0.0980
  594MOL0     H80177   5.995   9.171   9.506 -0.3514 -1.9405  0.5845
  594MOL0     H80178   5.627   9.339   9.677 -1.4382  2.0518  1.5242
  594MOL0     H80179   5.374   9.342   9.689 -0.0078  0.8779 -1.0533
  594MOL0     H80180   5.178   8.963   9.557 -0.8756  0.2188 -0.3847
  594MOL0     H80181   5.180   8.932   9.730  0.2285  0.0767 -0.3281
  594MOL0     H80182   4.964   9.077   9.565 -1.9243 -0.8656 -0.3218
  594MOL0     H80183   4.989   9.105   9.739 -0.7253  1.4540 -1.5238
  594MOL0     H80184   4.958   8.873   9.772  1.5159  0.9749 -0.8329
  594MOL0     H80185   4.953   8.822   9.607  1.2429 -0.1645 -0.7730
  594MOL0     H80186   4.748   8.814   9.679  2.4942 -0.3139  0.7595
  594MOL0     H80187   4.724   8.952   9.575  2.2127  2.3082 -1.2393
  594MOL0     H80188   4.677   9.123   9.961 -0.9442 -0.9699  0.5769
  594MOL0     H80189   5.392   8.910   9.654 -0.7751  0.8173 -1.5380
  594MOL0     H80190   5.620   8.909   9.682  2.7375  1.4837  0.4094
  595MOL0     O80191   4.185   4.426   6.246 -0.4533  0.3408 -0.2216
  595MOL0     C80192   4.196   4.441   6.123  0.7917  0.0451 -0.2125
  595MOL0     O80193   4.094   4.425   6.031  0.0039  0.3147 -0.1470
  595MOL0     C80194   3.979   4.350   6.064 -0.2831 -0.1901  0.7547
  595MOL0     C80195   3.970   4.234   6.142  0.0899  0.8654  0.1849
  595MOL0     C80196   3.852   4.161   6.176  1.0741 -0.5327  0.6173
  595MOL0     C80197   3.730   4.204   6.119  0.8579 -0.4272 -0.5045
  595MOL0     O80198   3.621   4.125   6.149  0.0949  1.1297  0.2903
  595MOL0     C80199   3.497   4.171   6.098  0.7824 -0.2378 -0.0116
  595MOL0     C80200   3.401   4.048   6.104  0.2195  0.5581 -0.2018
  595MOL0     C80201   3.463   3.917   6.055  0.4237 -0.4027 -0.2733
  595MOL0     C80202   3.360   3.808   6.065 -0.1738  0.6733  0.3821
  595MOL0     C80203   3.368   3.696   5.956 -0.3792  0.0650  0.9119
  595MOL0     C80204   3.257   3.589   5.973 -0.0268 -0.4844  0.1718
  595MOL0     C80205   3.259   3.473   5.864  1.8103  0.4963 -0.1757
  595MOL0     C80206   3.386   3.383   5.845 -0.4779 -0.7765  0.8108
  595MOL0     N80207   3.444   3.310   5.954 -0.0663  0.3898  0.1016
  595MOL0     C80208   3.526   3.359   6.051  0.0176  0.7144  1.4092
  595MOL0     C80209   3.550   3.261   6.128 -0.1875 -0.4477  0.4771
  595MOL0     C80210   3.639   3.286   6.247  0.8494 -0.0526  0.5730
  595MOL0     C80211   3.795   3.270   6.203 -0.3234 -0.2970 -0.7047
  595MOL0     C80212   3.879   3.298   6.338  0.3913 -0.4181 -0.5897
  595MOL0     C80213   4.028   3.291   6.320  0.2031 -0.1989  0.7118
  595MOL0     O80214   4.070   3.411   6.253 -0.1767 -0.7853 -0.5941
  595MOL0     C80215   4.200   3.437   6.241  0.6961 -0.1534  0.2084
  595MOL0     C80216   4.299   3.342   6.238 -0.5933  0.2436 -0.5901
  595MOL0     C80217   4.434   3.384   6.250  0.2502 -0.2954  0.0805
  595MOL0     C80218   4.530   3.268   6.249 -0.0087  0.4850  0.0226
  595MOL0     C80219   4.479   3.524   6.239 -0.2938  0.3302 -0.6042
  595MOL0     C80220   4.619   3.562   6.228 -0.9623 -0.7705 -0.6537
  595MOL0     O80221   4.636   3.690   6.190  0.1427 -0.3014  0.4519
  595MOL0     C80222   4.766   3.740   6.173 -0.7761 -0.1140 -0.1726
  595MOL0     C80223   4.824   3.838   6.257  0.4907  0.1357  0.6812
  595MOL0     C80224   4.941   3.902   6.225 -0.0470 -0.1923 -0.3420
  595MOL0     C80225   5.014   3.870   6.108 -0.7184 -0.5684  0.1066
  595MOL0     O80226   5.141   3.925   6.079  0.0125 -0.8006  0.4837
  595MOL0     C80227   5.215   3.992   6.178 -0.8741 -0.0099  0.4586
  595MOL0     C80228   5.343   4.053   6.118  0.3610  0.2372  0.2955
  595MOL0     C80229   5.311   4.159   6.016  0.0881 -0.1408 -0.0318
  595MOL0     C80230   5.302   4.291   6.085  0.0161 -0.3433 -0.0981
  595MOL0     C80231   5.265   4.401   5.982  0.2811  0.5443 -1.9607
  595MOL0     C80232   5.256   4.538   6.049  0.5507  0.2620  0.6728
  595MOL0     C80233   5.178   4.642   5.959  0.0837  0.8073 -0.8905
  595MOL0     C80234   5.207   4.787   6.019  0.8169  0.1307 -0.5949
  595MOL0    Cl80235   5.138   4.803   6.170  0.2529  0.4438 -0.5822
  595MOL0     C80236   4.970   3.765   6.029  0.1271 -0.4896 -0.6540
  595MOL0     C80237   4.850   3.698   6.059 -0.6569 -0.4833  0.5223
  595MOL0     O80238   4.706   3.477   6.245 -0.2682 -0.1671 -0.3418
  595MOL0     C80239   4.376   3.620   6.230 -0.1450  0.9185 -0.5856
  595MOL0     C80240   4.244   3.574   6.244 -0.3323 -1.2264  0.2783
  595MOL0     N80241   3.483   3.146   6.079  0.4234  0.0746 -0.8833
  595MOL0     N80242   3.419   3.179   5.975  0.6557  0.3934  0.6239
  595MOL0     C80243   3.732   4.318   6.032 -0.5028 -0.2944 -0.4571
  595MOL0     C80244   3.860   4.392   6.009  0.1756  1.0301  0.1956
  595MOL0     C80245   4.322   4.467   6.065 -0.4776 -0.5287  0.2542
  595MOL0     C80246   4.417   4.555   6.120  0.4168  0.3236  0.8895
  595MOL0     C80247   4.539   4.561   6.043 -0.0079 -0.5801  0.2549
  595MOL0     C80248   4.576   4.482   5.935 -0.0070 -0.7653 -0.7868
  595MOL0     O80249   4.690   4.521   5.871 -0.1855 -0.4886  0.4015
  595MOL0     C80250   4.763   4.411   5.797  0.7552 -0.9712  0.3295
  595MOL0     C80251   4.756   4.456   5.648  0.7597 -0.2059 -0.0186
  595MOL0     C80252   4.791   4.350   5.548  0.4474  0.7580 -0.0384
  595MOL0     C80253   4.929   4.285   5.564  0.5080  0.7100 -0.5625
  595MOL0     C80254   4.951   4.220   5.441 -0.4823  0.7109  0.6879
  595MOL0     C80255   4.978   4.165   5.337  0.1385  0.6525  0.4934
  595MOL0     C80256   4.475   4.394   5.894  0.1588 -0.1267 -0.4416
  595MOL0     C80257   4.350   4.382   5.957  0.0669 -0.1154  0.6007
  595MOL0     H80258   4.062   4.193   6.183 -0.8009 -1.8314 -0.3549
  595MOL0     H80259   3.848   4.063   6.222  1.9315 -1.1255 -0.5131
  595MOL0     H80260   3.465   4.263   6.148  1.8431  0.2305 -0.1844
  595MOL0     H80261   3.504   4.194   5.991 -0.9626 -2.4443 -0.6874
  595MOL0     H80262   3.372   4.027   6.208  1.0947  0.6850  0.0831
  595MOL0     H80263   3.313   4.081   6.049  0.5751  2.3709  0.2522
  595MOL0     H80264   3.493   3.932   5.951 -0.4227  0.4283 -0.4118
  595MOL0     H80265   3.549   3.893   6.118  0.1399  3.3267  1.8262
  595MOL0     H80266   3.370   3.764   6.165 -1.0817  0.0249  0.2028
  595MOL0     H80267   3.263   3.856   6.051 -0.0840  0.5267 -0.7977
  595MOL0     H80268   3.366   3.731   5.852 -0.3360 -0.8598  0.5954
  595MOL0     H80269   3.464   3.646   5.972  0.0764  1.4774  3.0262
  595MOL0     H80270   3.257   3.539   6.070 -0.6350 -3.2591 -1.1594
  595MOL0     H80271   3.159   3.636   5.958  0.8242  1.0400 -0.8694
  595MOL0     H80272   3.176   3.404   5.879  1.1488  1.7368  2.7449
  595MOL0     H80273   3.237   3.523   5.769  0.3946 -0.7773 -0.5559
  595MOL0     H80274   3.462   3.441   5.791 -2.6647  0.8931 -0.6854
  595MOL0     H80275   3.367   3.318   5.759  1.4841  1.1152 -1.2212
  595MOL0     H80276   3.566   3.460   6.058  0.2637  0.9173 -1.7215
  595MOL0     H80277   3.611   3.378   6.299  0.4972  0.7051 -0.9175
  595MOL0     H80278   3.606   3.212   6.321  0.8673 -2.0764 -1.3516
  595MOL0     H80279   3.813   3.351   6.132  0.7619  2.7636  2.7330
  595MOL0     H80280   3.817   3.166   6.175 -0.8125 -1.5772  3.0574
  595MOL0     H80281   3.850   3.224   6.412 -0.2511 -0.9624 -1.3631
  595MOL0     H80282   3.849   3.397   6.376 -0.6584 -0.7854 -0.4216
  595MOL0     H80283   4.043   3.212   6.246  0.2103 -1.6834  2.2344
  595MOL0     H80284   4.082   3.273   6.413  1.5815 -0.8473 -0.1709
  595MOL0     H80285   4.285   3.235   6.241  1.5301 -0.2190 -3.3219
  595MOL0     H80286   4.602   3.284   6.167  0.1852 -1.7172 -0.2972
  595MOL0     H80287   4.593   3.262   6.339 -3.4165  0.4807  2.5922
  595MOL0     H80288   4.486   3.171   6.224 -1.6619  0.7544  1.6815
  595MOL0     H80289   4.761   3.874   6.338 -0.2991  2.8121 -0.9880
  595MOL0     H80290   4.968   3.987   6.287 -2.6114 -0.0184  0.6639
  595MOL0     H80291   5.156   4.072   6.225 -0.9961 -0.8646  1.8133
  595MOL0     H80292   5.250   3.925   6.256 -1.3359  1.3100  1.8566
  595MOL0     H80293   5.394   4.097   6.204  1.0233  1.9640 -0.9318
  595MOL0     H80294   5.395   3.969   6.072  2.7393  1.0155  1.4160
  595MOL0     H80295   5.226   4.136   5.951 -0.3551 -1.0690  0.8563
  595MOL0     H80296   5.401   4.172   5.955  0.3067  1.8907  0.6572
  595MOL0     H80297   5.216   4.273   6.150 -2.2794  0.7033 -2.6380
  595MOL0     H80298   5.389   4.313   6.147 -0.2728  2.0155 -0.4151
  595MOL0     H80299   5.170   4.380   5.933  0.8314  1.6482 -3.5773
  595MOL0     H80300   5.343   4.401   5.906  3.2024 -3.2036  0.5941
  595MOL0     H80301   5.202   4.543   6.144 -0.7964  2.2690 -0.1273
  595MOL0     H80302   5.359   4.568   6.070 -0.6964  3.4466  3.1994
  595MOL0     H80303   5.071   4.625   5.977 -0.6875  5.1446 -0.2450
  595MOL0     H80304   5.191   4.644   5.851  0.4826  0.6181 -0.8449
  595MOL0     H80305   5.160   4.867   5.961 -1.1047  0.7512  1.6548
  595MOL0     H80306   5.315   4.807   6.015  0.5365  1.7490 -3.7493
  595MOL0     H80307   5.041   3.725   5.957  0.6194  0.3942 -0.6718
  595MOL0     H80308   4.834   3.622   5.983 -1.6045  2.4191 -2.4308
  595MOL0     H80309   4.391   3.727   6.215  0.4020  0.6210 -2.4121
  595MOL0     H80310   4.175   3.657   6.253  1.3985  0.1734  1.1715
  595MOL0     H80311   3.638   4.352   5.989 -1.9933 -1.4823  1.6609
  595MOL0     H80312   3.863   4.460   5.925 -2.1335  2.2168  0.9883
  595MOL0     H80313   4.397   4.625   6.201 -0.3789  3.3116 -1.6624
  595MOL0     H80314   4.621   4.628   6.071 -0.8193  2.1416 -3.1498
  595MOL0     H80315   4.865   4.395   5.833  0.7008 -0.2079  0.8709
  595MOL0     H80316   4.717   4.312   5.808  3.8182 -2.3984  1.3358
  595MOL0     H80317   4.834   4.532   5.638  0.9813 -0.5188 -0.7446
  595MOL0     H80318   4.656   4.498   5.638  0.5595 -0.5227  0.6113
  595MOL0     H80319   4.785   4.402   5.452  0.3198 -1.5100 -1.3390
  595MOL0     H80320   4.715   4.272   5.554 -0.6550  1.9014  2.1250
  595MOL0     H80321   4.921   4.213   5.646 -1.6794 -0.3345 -1.6179
  595MOL0     H80322   5.008   4.356   5.590  1.4662 -0.2364 -0.8338
  595MOL0     H80323   5.003   4.123   5.242 -1.1455 -1.5655  1.0643
  595MOL0     H80324   4.485   4.336   5.803 -3.1399 -1.6885  0.0516
  595MOL0     H80325   4.283   4.310   5.910  0.5598  0.9178 -1.8395
  596MOL0     O80326   3.301   0.374   8.808 -0.1741  0.6850 -0.1427
  596MOL0     C80327   3.248   0.406   8.705  0.2735  0.0794 -0.7055
  596MOL0     O80328   3.304   0.468   8.604 -0.4309 -0.0555  0.3512
  596MOL0     C80329   3.434   0.511   8.610 -0.6432  0.2612 -0.4566
  596MOL0     C80330   3.539   0.447   8.674  0.1861  0.7803 -0.2153
  596MOL0     C80331   3.668   0.495   8.669  0.2044  0.5775  0.1483
  596MOL0     C80332   3.707   0.595   8.585 -0.6870  0.0569 -0.1712
  596MOL0     O80333   3.834   0.631   8.557  0.2881 -0.4604 -0.3532
  596MOL0     C80334   3.926   0.684   8.658 -0.1130  0.0553  0.2152
  596MOL0     C80335   4.011   0.578   8.725 -0.3342 -0.4091 -1.6696
  596MOL0     C80336   4.059   0.472   8.630 -0.2763  0.7178  0.0934
  596MOL0     C80337   4.166   0.394   8.705 -0.1274 -0.2126 -0.6805
  596MOL0     C80338   4.234   0.291   8.612 -0.9372 -0.4778 -0.6845
  596MOL0     C80339   4.329   0.362   8.514 -0.0382  0.5725 -0.0288
  596MOL0     C80340   4.429   0.256   8.464 -0.8824 -0.1217 -0.7864
  596MOL0     C80341   4.560   0.257   8.549  0.4543  0.0627 -0.4577
  596MOL0     N80342   4.529   0.217   8.684 -0.3314  0.0543 -0.2441
  596MOL0     C80343   4.503   0.085   8.734  0.2022  0.6674 -0.2063
  596MOL0     C80344   4.501   0.092   8.871 -0.1311 -0.2604  0.7620
  596MOL0     C80345   4.470  -0.015   8.970 -0.4327 -0.2578 -0.7072
  596MOL0     C80346   4.459  -0.159   8.910 -0.5585 -0.6208  0.6070
  596MOL0     C80347   4.434  -0.276   9.006  0.2383 -0.2517  0.5534
  596MOL0     C80348   4.564  -0.339   9.053 -0.3687  0.1262 -0.2471
  596MOL0     O80349   4.627  -0.421   8.954 -0.6271  0.7109  0.6387
  596MOL0     C80350   4.765  -0.440   8.970  1.1676  0.0319 -0.0505
  596MOL0     C80351   4.842  -0.430   9.087 -0.1923 -0.1006 -0.2426
  596MOL0     C80352   4.971  -0.464   9.085  0.0919 -0.6169  0.2288
  596MOL0     C80353   5.048  -0.470   9.218 -0.1869 -0.3991  0.2003
  596MOL0     C80354   5.050  -0.499   8.970 -0.0268  0.1939 -0.3736
  596MOL0     C80355   5.193  -0.505   8.963 -0.3259 -0.4726 -0.5085
  596MOL0     O80356   5.249  -0.620   8.909 -0.4239 -0.5206  0.0374
  596MOL0     C80357   5.385  -0.613   8.897 -0.0521 -0.4101 -0.3611
  596MOL0     C80358   5.454  -0.518   8.824  0.0097  0.3985 -0.0158
  596MOL0     C80359   5.595  -0.497   8.823  0.2643  0.6324  0.1027
  596MOL0     C80360   5.667  -0.572   8.918 -0.0073 -0.0273  0.2090
  596MOL0     O80361   5.804  -0.556   8.931  0.2589  0.6275  0.3602
  596MOL0     C80362   5.885  -0.525   8.819  0.6415 -0.5047  0.1214
  596MOL0     C80363   5.921  -0.376   8.841 -0.2926 -0.3294  0.5984
  596MOL0     C80364   6.029  -0.344   8.740 -0.3702 -0.1323 -0.6752
  596MOL0     C80365   6.084  -0.200   8.767  0.0271 -0.0017  0.7644
  596MOL0     C80366   6.197  -0.149   8.669  0.0719 -1.0468 -0.3958
  596MOL0     C80367   6.233  -0.002   8.702 -0.0668 -1.0772  0.2264
  596MOL0     C80368   6.364   0.036   8.623  0.8528 -0.0489 -0.0602
  596MOL0     C80369   6.436   0.159   8.669  1.0855 -1.0183  0.5507
  596MOL0    Cl80370   6.341   0.308   8.641  0.5285 -0.3921  0.4401
  596MOL0     C80371   5.601  -0.664   8.999  0.4001 -0.9195  0.5586
  596MOL0     C80372   5.468  -0.685   8.987  1.1218  0.6105  0.0676
  596MOL0     O80373   5.252  -0.411   9.019 -0.0827 -0.2301  0.2671
  596MOL0     C80374   4.972  -0.524   8.866  0.6528 -0.7640  0.0657
  596MOL0     C80375   4.831  -0.498   8.861 -1.2160 -0.2039 -0.3033
  596MOL0     N80376   4.527   0.229   8.897  0.8325 -0.4249 -0.1562
  596MOL0     N80377   4.539   0.298   8.794  0.3751  0.3691 -0.3272
  596MOL0     C80378   3.603   0.657   8.521  0.1439 -0.3490  0.4305
  596MOL0     C80379   3.468   0.622   8.532 -0.5897 -0.3772 -0.3149
  596MOL0     C80380   3.099   0.364   8.691 -0.2275  0.3341  0.4863
  596MOL0     C80381   3.025   0.320   8.803 -0.0971  0.1151 -0.2296
  596MOL0     C80382   2.887   0.289   8.794 -0.1657 -0.7395  0.0095
  596MOL0     C80383   2.820   0.283   8.668  0.0404  0.6889  0.2900
  596MOL0     O80384   2.688   0.250   8.640 -0.2068 -0.3114  0.1205
  596MOL0     C80385   2.607   0.199   8.740  0.8234  0.2549 -0.9516
  596MOL0     C80386   2.490   0.136   8.665 -0.0103  0.1535 -0.0070
  596MOL0     C80387   2.384   0.060   8.761 -0.6481 -0.6623 -0.0981
  596MOL0     C80388   2.253  -0.002   8.694 -0.3507 -0.9814 -1.1946
  596MOL0     C80389   2.182  -0.075   8.798  0.0856 -0.1653 -0.6282
  596MOL0     C80390   2.124  -0.148   8.876  0.5092  0.0617  0.2155
  596MOL0     C80391   2.895   0.318   8.555  0.3042  0.1076  0.1488
  596MOL0     C80392   3.032   0.353   8.566 -0.6173 -0.4357 -0.0989
  596MOL0     H80393   3.514   0.357   8.730 -1.8803  2.3117  1.4616
  596MOL0     H80394   3.748   0.439   8.716  0.2944  0.3107 -0.3212
  596MOL0     H80395   3.999   0.747   8.605 -0.0654  0.3157  0.5915
  596MOL0     H80396   3.877   0.746   8.734 -1.6655 -1.1176  0.2162
  596MOL0     H80397   4.093   0.624   8.781 -0.7247 -0.0429 -1.3872
  596MOL0     H80398   3.948   0.524   8.797 -2.1562  2.4433 -0.9595
  596MOL0     H80399   3.971   0.412   8.604 -0.1070  1.1865 -1.6748
  596MOL0     H80400   4.105   0.530   8.549  2.4320  1.7284  2.1629
  596MOL0     H80401   4.236   0.461   8.756  0.4681 -0.9593 -0.5056
  596MOL0     H80402   4.125   0.339   8.790  0.1843 -2.0019 -1.6400
  596MOL0     H80403   4.287   0.215   8.670 -1.6933 -1.5019 -1.3041
  596MOL0     H80404   4.157   0.246   8.549 -0.9018  1.9852 -2.6733
  596MOL0     H80405   4.266   0.393   8.431 -0.6007 -0.7762 -0.1446
  596MOL0     H80406   4.370   0.448   8.567 -0.4499  0.9532 -0.3260
  596MOL0     H80407   4.379   0.159   8.472 -2.5234  0.7251 -0.3290
  596MOL0     H80408   4.453   0.274   8.359 -1.6516 -3.0545 -1.5670
  596MOL0     H80409   4.598   0.359   8.556 -2.4322  1.1469  1.7820
  596MOL0     H80410   4.626   0.184   8.502 -0.6377 -0.6381 -0.9211
  596MOL0     H80411   4.476  -0.003   8.677 -0.1157  0.6057  0.0378
  596MOL0     H80412   4.554  -0.011   9.040 -2.1592  1.2819  1.4079
  596MOL0     H80413   4.387   0.016   9.034  0.7584  1.0274  0.3010
  596MOL0     H80414   4.547  -0.180   8.849 -0.7297 -0.7303  0.3968
  596MOL0     H80415   4.371  -0.148   8.846  0.7682  1.0613 -1.0439
  596MOL0     H80416   4.379  -0.357   8.957 -1.1779  0.0315  1.6211
  596MOL0     H80417   4.368  -0.240   9.085 -1.3009 -1.9399  0.0859
  596MOL0     H80418   4.543  -0.415   9.129 -2.0783 -0.0741 -0.8830
  596MOL0     H80419   4.638  -0.262   9.078  1.8011 -2.0094  0.2649
  596MOL0     H80420   4.793  -0.394   9.177 -2.1832 -1.2503 -0.8004
  596MOL0     H80421   5.124  -0.547   9.231 -2.8570 -3.1827  0.4713
  596MOL0     H80422   5.089  -0.368   9.218 -0.2084 -0.3733 -1.3625
  596MOL0     H80423   4.978  -0.476   9.302  0.1889  1.5759  0.7154
  596MOL0     H80424   5.407  -0.443   8.761  0.1918  1.2034  0.7823
  596MOL0     H80425   5.627  -0.415   8.761 -0.6324 -0.2767 -1.6329
  596MOL0     H80426   5.977  -0.583   8.828  1.2683  0.3654 -0.5130
  596MOL0     H80427   5.830  -0.547   8.727  0.3568 -2.5089  0.7064
  596MOL0     H80428   5.832  -0.320   8.813  0.9947 -0.1635 -3.9957
  596MOL0     H80429   5.960  -0.347   8.939  3.3462  0.4602 -0.9313
  596MOL0     H80430   6.001  -0.352   8.634  0.5085  0.3224 -0.9594
  596MOL0     H80431   6.105  -0.420   8.762  0.4931  0.7473 -0.5466
  596MOL0     H80432   5.998  -0.133   8.753 -1.7851 -2.3068  0.3095
  596MOL0     H80433   6.115  -0.182   8.870 -0.1440  2.4190  0.4655
  596MOL0     H80434   6.168  -0.158   8.563 -2.4621 -0.8814  0.2178
  596MOL0     H80435   6.283  -0.214   8.687 -0.3394 -1.1284  1.4635
  596MOL0     H80436   6.162   0.073   8.667  0.8387 -1.3263 -2.4209
  596MOL0     H80437   6.249   0.014   8.809 -1.2486 -2.1940  0.6009
  596MOL0     H80438   6.335   0.049   8.519 -3.4008 -2.8960  0.5353
  596MOL0     H80439   6.429  -0.052   8.625 -1.0640 -1.6461 -2.5415
  596MOL0     H80440   6.525   0.179   8.607 -0.1042  2.9019 -0.2334
  596MOL0     H80441   6.452   0.144   8.776 -0.3020  0.0509  0.9388
  596MOL0     H80442   5.658  -0.717   9.075  0.0447 -2.3041 -0.1046
  596MOL0     H80443   5.413  -0.744   9.059 -1.4175  2.4256 -0.2573
  596MOL0     H80444   5.018  -0.563   8.776 -0.7366 -2.3944 -0.0030
  596MOL0     H80445   4.769  -0.500   8.772 -0.2186 -0.1698 -1.0092
  596MOL0     H80446   3.632   0.747   8.468  0.5475 -0.8978 -0.3084
  596MOL0     H80447   3.395   0.686   8.485  0.7289  1.6815  0.2735
  596MOL0     H80448   3.061   0.315   8.905  0.6358  2.7921 -0.2666
  596MOL0     H80449   2.820   0.266   8.875  2.6403  1.7673  3.3277
  596MOL0     H80450   2.665   0.122   8.791 -0.8005 -1.7154 -1.9132
  596MOL0     H80451   2.580   0.280   8.808  1.6626  2.3189 -2.9408
  596MOL0     H80452   2.540   0.060   8.605  0.3321  0.2346  0.1750
  596MOL0     H80453   2.433   0.214   8.613 -1.5883  0.0744  1.4877
  596MOL0     H80454   2.346   0.122   8.842  1.0274 -0.4729  0.5949
  596MOL0     H80455   2.430  -0.028   8.807 -1.4135 -1.6391 -1.1591
  596MOL0     H80456   2.286  -0.066   8.612  0.1302 -0.5855 -1.3170
  596MOL0     H80457   2.201   0.088   8.660 -0.5079 -0.2801  0.7298
  596MOL0     H80458   2.065  -0.209   8.942  1.7968  1.0894  2.4237
  596MOL0     H80459   2.853   0.310   8.455  0.4945 -1.9542  0.1860
  596MOL0     H80460   3.090   0.380   8.478 -1.2237  0.3655 -0.2715
  597MOL0     O80461  10.845  10.125   7.451  0.3176  0.3568  0.0037
  597MOL0     C80462  10.797  10.034   7.515 -0.7210 -0.8607  0.3706
  597MOL0     O80463  10.691   9.949   7.480  0.0092 -0.5981  0.2775
  597MOL0     C80464  10.604   9.965   7.378 -0.2851 -0.1749  1.0597
  597MOL0     C80465  10.521   9.857   7.344  0.3045 -0.8161  0.1661
  597MOL0     C80466  10.426   9.872   7.236  0.3805  0.0744 -0.7989
  597MOL0     C80467  10.424   9.989   7.154  0.6695  0.0348  0.0175
  597MOL0     O80468  10.339  10.015   7.046 -0.0052 -0.1455 -0.2077
  597MOL0     C80469  10.206   9.948   7.057 -0.7999 -0.6829  0.0511
  597MOL0     C80470  10.116  10.046   6.984  0.0934 -0.3265  0.0082
  597MOL0     C80471  10.114  10.173   7.069  0.1452  0.3440  0.0746
  597MOL0     C80472  10.019  10.277   7.024  0.1081  0.4149 -0.8132
  597MOL0     C80473  10.004  10.399   7.124  0.0182 -0.4950 -0.1401
  597MOL0     C80474  10.138  10.484   7.136  0.0775  0.3769 -0.6538
  597MOL0     C80475  10.121  10.595   7.242  0.6492  0.1342 -1.0936
  597MOL0     C80476  10.226  10.701   7.249 -0.1817 -0.3584  0.3165
  597MOL0     N80477  10.346  10.632   7.305 -0.0092  0.1478  0.4393
  597MOL0     C80478  10.369  10.595   7.432  0.2525 -1.1408 -0.9524
  597MOL0     C80479  10.494  10.540   7.434  0.1301  0.5820 -0.5570
  597MOL0     C80480  10.578  10.476   7.538  0.1648 -0.1522  0.0670
  597MOL0     C80481  10.732  10.491   7.513  0.8450 -0.8080  0.3039
  597MOL0     C80482  10.815  10.437   7.627 -0.3009 -0.6881 -0.3231
  597MOL0     C80483  10.954  10.488   7.608 -0.4775  0.3906 -0.1857
  597MOL0     O80484  11.044  10.447   7.722  0.4229 -0.1594  0.0409
  597MOL0     C80485  11.182  10.455   7.704  0.0489  0.3718 -0.7436
  597MOL0     C80486  11.247  10.516   7.602 -0.2253  0.4322  0.5068
  597MOL0     C80487  11.390  10.521   7.605 -1.0008 -0.6204  0.1955
  597MOL0     C80488  11.463  10.597   7.484  0.9321  0.8332  0.5914
  597MOL0     C80489  11.465  10.452   7.712 -0.7401  0.9441 -0.1387
  597MOL0     C80490  11.613  10.441   7.727  0.1523  0.0178  1.0003
  597MOL0     O80491  11.661  10.364   7.827  0.5165  0.1931  0.1723
  597MOL0     C80492  11.794  10.347   7.849  0.7031 -0.4253  0.3340
  597MOL0     C80493  11.851  10.223   7.837 -0.0711  0.2472  0.1995
  597MOL0     C80494  11.994  10.210   7.867 -0.7053  0.1762  0.2005
  597MOL0     C80495  12.065  10.320   7.902  1.1008  0.2316 -1.3428
  597MOL0     O80496  12.194  10.303   7.937 -0.3285 -0.0283  0.3950
  597MOL0     C80497  12.282  10.418   7.942 -0.1242 -1.1637  0.0978
  597MOL0     C80498  12.435  10.366   7.942  0.5462 -0.2311  0.0033
  597MOL0     C80499  12.533  10.489   7.948 -0.3039 -0.3183  0.0692
  597MOL0     C80500  12.665  10.447   7.874  0.2297 -0.0949  0.6833
  597MOL0     C80501  12.786  10.529   7.892  0.8318  0.0222  0.1583
  597MOL0     C80502  12.911  10.461   7.844 -0.1765  0.6390 -0.0542
  597MOL0     C80503  12.913  10.461   7.695 -0.0778 -0.9582  0.6082
  597MOL0     C80504  13.060  10.436   7.643  0.4185  0.0422  0.5721
  597MOL0    Cl80505  13.157  10.578   7.666  0.3239  0.2279 -0.6680
  597MOL0     C80506  12.001  10.448   7.919 -0.4793 -0.1285  0.1302
  597MOL0     C80507  11.864  10.460   7.884 -0.4168  0.0358  0.7199
  597MOL0     O80508  11.684  10.503   7.646 -0.4154  0.1273 -0.2380
  597MOL0     C80509  11.390  10.376   7.805  1.0201 -1.5314  0.4550
  597MOL0     C80510  11.258  10.384   7.804  0.2766 -0.1648 -0.1369
  597MOL0     N80511  10.535  10.539   7.308 -1.1852 -1.3068 -0.1345
  597MOL0     N80512  10.458  10.610   7.232 -0.8092 -0.3484  0.0442
  597MOL0     C80513  10.500  10.098   7.193 -0.5965 -0.9496 -0.0365
  597MOL0     C80514  10.586  10.086   7.300 -0.1495  0.6194  1.5671
  597MOL0     C80515  10.876   9.993   7.636  0.2980  0.7152 -1.7894
  597MOL0     C80516  10.859   9.864   7.692 -0.0380  0.1002  0.1294
  597MOL0     C80517  10.932   9.826   7.799  0.6386 -0.0603  0.0952
  597MOL0     C80518  11.028   9.903   7.852  0.3424  0.2421  0.8300
  597MOL0     O80519  11.095   9.834   7.960  0.5660  0.1021 -0.6281
  597MOL0     C80520  11.230   9.882   7.990 -0.1716  0.0708  0.7614
  597MOL0     C80521  11.321   9.853   7.866  1.2991  0.4241 -0.5404
  597MOL0     C80522  11.468   9.849   7.901 -0.0605  0.8270 -0.5437
  597MOL0     C80523  11.532   9.972   7.953 -1.1627  0.6376  0.3586
  597MOL0     C80524  11.662   9.927   8.009  0.1692  0.1231 -0.3185
  597MOL0     C80525  11.762   9.888   8.071 -0.0357  0.3561  0.6972
  597MOL0     C80526  11.064  10.025   7.789 -0.3836  0.2118  0.3228
  597MOL0     C80527  10.978  10.078   7.689 -0.2477  0.5818  0.3517
  597MOL0     H80528  10.540   9.768   7.403 -0.7464 -0.2788  1.3713
  597MOL0     H80529  10.366   9.788   7.202 -1.1025  0.3232  1.0647
  597MOL0     H80530  10.199   9.848   7.013 -1.3473 -0.6771  0.1159
  597MOL0     H80531  10.172   9.949   7.161 -0.2863  0.1209  0.2231
  597MOL0     H80532  10.158  10.064   6.885  4.9599 -0.7251  1.7143
  597MOL0     H80533  10.020   9.994   6.990  0.5496 -1.3527 -1.1832
  597MOL0     H80534  10.080  10.132   7.164 -1.1555 -2.9560 -1.6094
  597MOL0     H80535  10.215  10.208   7.091 -0.1960 -0.5681  3.7250
  597MOL0     H80536  10.069  10.316   6.935  0.1301  1.8686 -0.1943
  597MOL0     H80537   9.920  10.236   7.003  0.0586 -0.1581  0.4768
  597MOL0     H80538   9.923  10.467   7.097 -2.8761 -3.1693  1.0948
  597MOL0     H80539   9.974  10.370   7.225  0.5297 -0.9833 -0.1204
  597MOL0     H80540  10.223  10.420   7.161 -0.6723 -0.9215 -1.3177
  597MOL0     H80541  10.170  10.541   7.049 -0.5300  2.2350  0.2714
  597MOL0     H80542  10.029  10.653   7.235  0.9068  0.5946 -0.6675
  597MOL0     H80543  10.113  10.543   7.337  3.1020  0.7579 -0.4825
  597MOL0     H80544  10.197  10.781   7.319  1.7472  2.4876 -1.8986
  597MOL0     H80545  10.258  10.746   7.155  1.7459 -1.0465  0.5816
  597MOL0     H80546  10.307  10.604   7.521  1.8216 -1.2398  0.1918
  597MOL0     H80547  10.553  10.516   7.637 -0.7385  0.6831 -0.4787
  597MOL0     H80548  10.551  10.373   7.514 -2.5335  0.9125 -1.8801
  597MOL0     H80549  10.731  10.601   7.508  1.0931 -0.8668 -2.2030
  597MOL0     H80550  10.766  10.451   7.417  2.1730  0.7575  0.0682
  597MOL0     H80551  10.833  10.329   7.625  2.1224 -0.3441  0.1167
  597MOL0     H80552  10.780  10.464   7.727 -1.0654  1.0830 -1.0318
  597MOL0     H80553  10.950  10.597   7.608 -2.4588  0.3558 -1.1908
  597MOL0     H80554  10.992  10.454   7.511  4.4351 -0.6066  1.7620
  597MOL0     H80555  11.193  10.572   7.527  1.0319  2.1856  0.8482
  597MOL0     H80556  11.544  10.654   7.530 -1.8873  1.7490  4.9999
  597MOL0     H80557  11.498  10.526   7.408  1.2547  1.5650  0.0419
  597MOL0     H80558  11.399  10.672   7.436 -0.1466  1.3036  2.6661
  597MOL0     H80559  11.787  10.140   7.809  0.2037  0.5212 -1.3132
  597MOL0     H80560  12.054  10.120   7.852  2.8120  1.7611  3.1263
  597MOL0     H80561  12.265  10.472   7.849 -1.0268  2.1214  1.9914
  597MOL0     H80562  12.260  10.495   8.018  0.9968 -0.7407  0.0142
  597MOL0     H80563  12.443  10.302   8.030 -2.0059 -2.7980 -1.4654
  597MOL0     H80564  12.446  10.307   7.850 -1.7781  0.0993 -0.5361
  597MOL0     H80565  12.551  10.512   8.053 -1.3801 -0.2445  0.2482
  597MOL0     H80566  12.493  10.574   7.892  2.2273  1.4393  0.7280
  597MOL0     H80567  12.684  10.343   7.903 -1.5085  0.1994  3.1454
  597MOL0     H80568  12.639  10.440   7.768 -0.4537 -1.5222  0.9164
  597MOL0     H80569  12.798  10.560   7.996  1.2027 -1.2419  0.5089
  597MOL0     H80570  12.767  10.624   7.840  0.6550  0.4343  0.9553
  597MOL0     H80571  13.001  10.508   7.885  1.0851 -1.8190  0.1734
  597MOL0     H80572  12.910  10.361   7.887  3.2349 -0.0085 -1.1570
  597MOL0     H80573  12.884  10.559   7.658 -0.1194 -2.1417 -2.7719
  597MOL0     H80574  12.850  10.389   7.643  1.3668  0.0373 -2.8177
  597MOL0     H80575  13.050  10.427   7.535  1.4794  1.8486  0.2822
  597MOL0     H80576  13.098  10.347   7.695  0.5588  0.0867  0.5452
  597MOL0     H80577  12.042  10.542   7.953 -1.3234  0.1510  0.4076
  597MOL0     H80578  11.806  10.549   7.904 -1.7964 -0.8589  0.8511
  597MOL0     H80579  11.430  10.302   7.874  1.5081 -2.4137 -0.7388
  597MOL0     H80580  11.199  10.327   7.875 -1.4282  2.3351  0.5845
  597MOL0     H80581  10.492  10.194   7.144  1.4475 -0.4332  0.5371
  597MOL0     H80582  10.645  10.175   7.320  1.8219  0.4479 -2.3609
  597MOL0     H80583  10.781   9.799   7.656 -1.2057  0.9713  0.9951
  597MOL0     H80584  10.912   9.727   7.838  3.5633 -1.2999 -1.2187
  597MOL0     H80585  11.225   9.988   8.018 -0.9941  0.5062 -0.8838
  597MOL0     H80586  11.267   9.828   8.077 -1.1064  1.2171  1.9123
  597MOL0     H80587  11.294   9.919   7.784 -0.2305  0.1197 -0.3069
  597MOL0     H80588  11.291   9.750   7.843  0.1703  0.7899 -0.7308
  597MOL0     H80589  11.521   9.812   7.813  0.7954 -1.5147  0.8564
  597MOL0     H80590  11.488   9.770   7.973  1.8747  0.1192 -1.7823
  597MOL0     H80591  11.479  10.020   8.036  1.1677 -0.2502  2.4961
  597MOL0     H80592  11.546  10.052   7.880 -1.4966  4.7802  4.3105
  597MOL0     H80593  11.852   9.859   8.120  1.3102  2.5072 -0.3533
  597MOL0     H80594  11.151  10.084   7.817  1.0226 -2.2391  1.3993
  597MOL0     H80595  10.987  10.179   7.650 -1.5272  1.1917  1.5530
  598MOL0     O80596   3.182   7.698   5.142  0.7767  0.1408  0.4408
  598MOL0     C80597   3.123   7.591   5.124  0.5367  0.0417  0.4154
  598MOL0     O80598   2.989   7.567   5.120  0.0969  0.1030 -0.0387
  598MOL0     C80599   2.899   7.661   5.163 -0.4048  0.3702  1.1261
  598MOL0     C80600   2.769   7.665   5.105  0.3696 -0.0481  0.5313
  598MOL0     C80601   2.672   7.759   5.141 -0.1685  0.0932 -0.5144
  598MOL0     C80602   2.699   7.868   5.232 -0.8904 -0.3808 -0.3030
  598MOL0     O80603   2.605   7.957   5.271 -0.2687  0.2838  0.5492
  598MOL0     C80604   2.525   8.036   5.168  0.5328  0.7872 -0.2939
  598MOL0     C80605   2.434   8.137   5.234 -1.5822 -0.2735 -1.0761
  598MOL0     C80606   2.295   8.092   5.234 -1.3770 -0.3159  0.9622
  598MOL0     C80607   2.196   8.174   5.311 -0.7073  0.0408 -0.0523
  598MOL0     C80608   2.231   8.173   5.459 -0.4937  0.1290 -0.0943
  598MOL0     C80609   2.122   8.258   5.540  0.2500  0.7596  0.2337
  598MOL0     C80610   2.140   8.282   5.686 -0.2318 -0.9738 -0.8832
  598MOL0     C80611   2.037   8.183   5.753  0.9806 -0.6349 -0.9530
  598MOL0     N80612   1.904   8.241   5.778  0.0013 -0.0140 -0.2461
  598MOL0     C80613   1.869   8.367   5.816  0.6152  0.0268  0.6055
  598MOL0     C80614   1.734   8.373   5.800 -0.5864  0.4468 -0.1315
  598MOL0     C80615   1.652   8.491   5.835  0.3469 -0.1383 -0.2739
  598MOL0     C80616   1.508   8.459   5.884  0.8744 -0.5454  0.1099
  598MOL0     C80617   1.426   8.590   5.848 -0.0181 -0.3210  0.2884
  598MOL0     C80618   1.282   8.577   5.888  0.4058 -0.2535  0.0070
  598MOL0     O80619   1.201   8.496   5.803  0.0794  0.4816  0.0119
  598MOL0     C80620   1.065   8.515   5.804  0.1389 -0.5877  0.3829
  598MOL0     C80621   0.994   8.622   5.859 -0.6903  0.2915 -0.4770
  598MOL0     C80622   0.858   8.653   5.846  0.1425  0.1267  0.6986
  598MOL0     C80623   0.800   8.777   5.928  0.3259 -1.5344 -0.0144
  598MOL0     C80624   0.781   8.571   5.753 -0.6988 -0.2920 -0.6550
  598MOL0     C80625   0.637   8.569   5.723  0.2086 -0.8467 -0.4728
  598MOL0     O80626   0.590   8.486   5.630 -0.0634  0.0931 -0.2054
  598MOL0     C80627   0.453   8.484   5.616 -0.0537 -0.1565  0.1440
  598MOL0     C80628   0.367   8.444   5.714  0.0985  0.6625  0.8644
  598MOL0     C80629   0.232   8.438   5.697  0.1990 -0.4415 -0.1030
  598MOL0     C80630   0.174   8.466   5.569 -0.4858 -0.5265 -0.2090
  598MOL0     O80631   0.047   8.428   5.562 -0.3134  0.5785 -0.4111
  598MOL0     C80632  -0.039   8.500   5.471  0.6905  0.3656  0.6222
  598MOL0     C80633  -0.178   8.504   5.555  0.1497 -0.1921  0.2330
  598MOL0     C80634  -0.160   8.563   5.694  0.5195  0.6003  0.3072
  598MOL0     C80635  -0.294   8.590   5.762 -0.7530 -0.4113 -0.6524
  598MOL0     C80636  -0.288   8.675   5.886  0.5156 -0.4735  0.2788
  598MOL0     C80637  -0.304   8.828   5.850 -0.1247  0.2923  0.7214
  598MOL0     C80638  -0.304   8.920   5.973  0.0186  0.0541  0.0661
  598MOL0     C80639  -0.294   9.070   5.952 -0.4087 -0.4921  0.6323
  598MOL0    Cl80640  -0.129   9.109   5.873  0.4137 -0.3636  0.0198
  598MOL0     C80641   0.262   8.509   5.465 -0.4329 -0.5141  0.4897
  598MOL0     C80642   0.403   8.514   5.491  0.1607 -0.7490  0.4736
  598MOL0     O80643   0.570   8.667   5.765  0.6179  0.2608  0.0754
  598MOL0     C80644   0.856   8.465   5.699 -0.9479 -0.7515 -0.1859
  598MOL0     C80645   0.992   8.436   5.723 -0.4624  0.4583 -0.6725
  598MOL0     N80646   1.687   8.250   5.773  0.3515  0.5489 -0.5045
  598MOL0     N80647   1.790   8.178   5.740  1.0113 -0.4902 -0.1147
  598MOL0     C80648   2.818   7.855   5.300  0.0714  0.2335  0.2600
  598MOL0     C80649   2.911   7.751   5.267 -0.6858 -0.4298  0.0326
  598MOL0     C80650   3.210   7.479   5.092  0.8026  0.1820  0.0264
  598MOL0     C80651   3.182   7.414   4.975  0.9496  0.1543 -0.4525
  598MOL0     C80652   3.263   7.312   4.929 -0.3040 -0.2879 -0.0405
  598MOL0     C80653   3.373   7.273   5.004 -0.5784  0.0772 -0.4842
  598MOL0     O80654   3.455   7.183   4.946 -0.2491 -0.0326 -0.3702
  598MOL0     C80655   3.564   7.117   5.019 -0.6914 -0.1171 -0.3559
  598MOL0     C80656   3.528   7.003   5.121  0.2368 -0.7235  0.1112
  598MOL0     C80657   3.622   7.003   5.240  0.0244  0.2377 -0.0560
  598MOL0     C80658   3.584   6.905   5.361 -0.5580 -0.3701 -0.5576
  598MOL0     C80659   3.445   6.926   5.413  0.2288  0.6634 -0.5610
  598MOL0     C80660   3.332   6.942   5.459 -0.5273  0.4333  0.4175
  598MOL0     C80661   3.391   7.327   5.134 -0.5202  0.5637  0.2571
  598MOL0     C80662   3.318   7.439   5.167  0.8247  0.3946  0.1928
  598MOL0     H80663   2.740   7.592   5.030  1.4124  0.6084 -0.5400
  598MOL0     H80664   2.573   7.760   5.098 -0.2862  3.8002 -0.5048
  598MOL0     H80665   2.588   8.095   5.101  0.1919  3.0676  1.2985
  598MOL0     H80666   2.468   7.968   5.103 -0.1260  0.2611  0.8025
  598MOL0     H80667   2.481   8.151   5.332  0.2938 -3.5321 -1.3718
  598MOL0     H80668   2.452   8.234   5.186 -0.1560  0.0094 -0.0536
  598MOL0     H80669   2.263   8.083   5.129  0.3279  1.1324  0.2558
  598MOL0     H80670   2.294   7.995   5.284 -1.0730  0.1620  1.9069
  598MOL0     H80671   2.206   8.276   5.271 -0.0450 -1.0265 -2.8322
  598MOL0     H80672   2.094   8.141   5.290  0.6391 -3.2081 -2.2951
  598MOL0     H80673   2.216   8.068   5.488 -1.7979 -0.3987 -2.4417
  598MOL0     H80674   2.331   8.200   5.492 -1.2323 -0.8634  3.4158
  598MOL0     H80675   2.120   8.357   5.494  2.2035  0.7830  0.0930
  598MOL0     H80676   2.027   8.209   5.516 -1.2355  1.3679  4.1834
  598MOL0     H80677   2.243   8.259   5.716  1.2109  3.5762 -1.5721
  598MOL0     H80678   2.114   8.387   5.704 -0.3673 -1.2126  0.3557
  598MOL0     H80679   2.067   8.146   5.851 -1.1120 -0.3505 -0.1423
  598MOL0     H80680   2.026   8.090   5.696  4.2854 -1.8918  0.2269
  598MOL0     H80681   1.934   8.449   5.845 -0.5704  1.7445 -1.3404
  598MOL0     H80682   1.699   8.545   5.917  0.0780  2.1215 -1.5478
  598MOL0     H80683   1.644   8.557   5.748 -1.4504 -0.6544 -0.5396
  598MOL0     H80684   1.491   8.445   5.991 -0.7974 -3.5597 -0.4181
  598MOL0     H80685   1.458   8.383   5.823 -0.0867  0.1971 -0.0552
  598MOL0     H80686   1.416   8.614   5.742 -0.0925  2.3298  0.8319
  598MOL0     H80687   1.473   8.680   5.889 -0.5807  0.3634 -0.5222
  598MOL0     H80688   1.245   8.680   5.891  0.7270  0.1119 -3.7023
  598MOL0     H80689   1.279   8.542   5.992  0.4832  0.2095  0.1701
  598MOL0     H80690   1.041   8.706   5.910 -0.0412  1.4828 -2.8725
  598MOL0     H80691   0.880   8.844   5.961 -2.6722  2.4789 -0.3211
  598MOL0     H80692   0.742   8.845   5.866 -0.9393 -0.9674  1.7397
  598MOL0     H80693   0.755   8.752   6.025 -3.7101  2.4966 -0.5247
  598MOL0     H80694   0.401   8.404   5.809  0.0685 -1.9221 -0.1357
  598MOL0     H80695   0.173   8.405   5.782  1.2610 -0.4644  0.6425
  598MOL0     H80696  -0.012   8.604   5.448  0.4018  0.0323 -1.3213
  598MOL0     H80697  -0.053   8.460   5.370  1.4368  0.1110  0.6152
  598MOL0     H80698  -0.246   8.566   5.496  0.6268 -0.6332 -0.8174
  598MOL0     H80699  -0.222   8.404   5.562 -0.5951  0.1526  0.5500
  598MOL0     H80700  -0.106   8.658   5.684 -0.3102  1.3063  2.1063
  598MOL0     H80701  -0.093   8.503   5.756  2.1949  1.8203 -0.2514
  598MOL0     H80702  -0.359   8.643   5.692  1.8533  2.8156 -0.8622
  598MOL0     H80703  -0.317   8.494   5.809  3.1685 -0.4011  1.6653
  598MOL0     H80704  -0.188   8.661   5.928  1.2661 -0.9095 -1.5456
  598MOL0     H80705  -0.366   8.655   5.960  1.3255 -0.0766  1.2620
  598MOL0     H80706  -0.223   8.851   5.780 -1.6305 -1.0092 -1.5603
  598MOL0     H80707  -0.397   8.844   5.795  0.8494 -2.1287 -1.8169
  598MOL0     H80708  -0.215   8.893   6.031  0.9151 -1.0985 -1.7461
  598MOL0     H80709  -0.399   8.902   6.022 -0.9130 -1.5472 -2.1542
  598MOL0     H80710  -0.303   9.117   6.050 -1.2079 -0.8548  0.7399
  598MOL0     H80711  -0.371   9.108   5.883 -0.9581 -0.5036  1.2333
  598MOL0     H80712   0.224   8.540   5.368 -2.5836 -1.7169  0.8937
  598MOL0     H80713   0.472   8.560   5.421 -1.3783  0.0779 -0.5808
  598MOL0     H80714   0.813   8.400   5.623  0.0125  0.1246 -1.5209
  598MOL0     H80715   1.049   8.352   5.683 -0.9362 -0.3751  0.3312
  598MOL0     H80716   2.851   7.930   5.371  0.7745 -0.0845  0.2832
  598MOL0     H80717   3.001   7.740   5.327 -2.0068 -5.0944  1.5210
  598MOL0     H80718   3.091   7.441   4.922  0.5770  0.6016  0.3933
  598MOL0     H80719   3.258   7.257   4.835  2.4030 -3.2011  1.3503
  598MOL0     H80720   3.641   7.089   4.947  0.5936  1.2876  0.4080
  598MOL0     H80721   3.620   7.188   5.079  0.2027  0.3436 -1.6998
  598MOL0     H80722   3.541   6.909   5.067 -0.5539 -1.3787  1.0328
  598MOL0     H80723   3.421   7.002   5.143 -0.8905  2.4429 -4.0268
  598MOL0     H80724   3.621   7.105   5.280 -0.6993  0.4843 -0.6803
  598MOL0     H80725   3.724   6.990   5.203  0.8579 -0.4123  2.2974
  598MOL0     H80726   3.659   6.900   5.441 -0.2051  1.3134 -0.7384
  598MOL0     H80727   3.585   6.809   5.310 -0.1639 -0.0146 -1.2331
  598MOL0     H80728   3.229   6.970   5.470 -0.9256 -0.6673 -0.3015
  598MOL0     H80729   3.473   7.306   5.201  0.8623 -1.1710 -1.8371
  598MOL0     H80730   3.342   7.490   5.261  1.0581 -0.8135  0.8019
  599MOL0     O80731  10.253  10.825  10.693  0.5623 -0.3077 -0.1153
  599MOL0     C80732  10.323  10.911  10.725 -0.5388 -0.1250  0.3174
  599MOL0     O80733  10.291  11.026  10.785  0.1083 -0.5675  0.1439
  599MOL0     C80734  10.161  11.037  10.823 -0.7798 -0.1907  0.9168
  599MOL0     C80735  10.111  10.996  10.947  0.8711 -0.8557 -0.3192
  599MOL0     C80736   9.977  11.037  10.966 -0.9580 -0.9684 -0.4316
  599MOL0     C80737   9.881  11.082  10.864 -0.1203  0.9735 -0.2409
  599MOL0     O80738   9.742  11.096  10.870 -0.2683  0.8454  0.5717
  599MOL0     C80739   9.679  11.170  10.765 -0.4326 -0.1508 -0.1118
  599MOL0     C80740   9.530  11.186  10.780  1.4971  0.2251 -0.1225
  599MOL0     C80741   9.510  11.286  10.891  0.5286  0.2742 -0.8002
  599MOL0     C80742   9.373  11.346  10.871 -0.4061  0.1424 -0.2228
  599MOL0     C80743   9.325  11.425  11.003 -0.4449 -0.1702  0.2792
  599MOL0     C80744   9.428  11.532  11.036  0.3829 -0.0308 -0.5733
  599MOL0     C80745   9.358  11.638  11.112  0.1145  0.0049  0.0919
  599MOL0     C80746   9.434  11.768  11.107  0.5831 -1.2567 -1.0846
  599MOL0     N80747   9.391  11.855  11.214  0.3309 -0.2036  1.6415
  599MOL0     C80748   9.259  11.879  11.245 -0.2396 -0.1561 -0.0383
  599MOL0     C80749   9.268  11.947  11.358  0.0280 -0.2489  0.2147
  599MOL0     C80750   9.160  12.017  11.441 -0.8776  0.4150  0.3627
  599MOL0     C80751   9.035  12.041  11.364 -0.4560 -0.4157 -0.9960
  599MOL0     C80752   8.945  12.138  11.450  0.2166  0.2521  0.6602
  599MOL0     C80753   8.797  12.116  11.432 -1.1239  0.3427  0.2174
  599MOL0     O80754   8.761  12.163  11.294 -0.5634 -0.2146 -0.9417
  599MOL0     C80755   8.630  12.174  11.258 -0.1373 -0.0703  0.3555
  599MOL0     C80756   8.604  12.196  11.127 -0.5362 -0.3334 -0.0436
  599MOL0     C80757   8.472  12.182  11.072 -1.4473 -1.1380  0.4191
  599MOL0     C80758   8.472  12.214  10.923 -0.1243  0.7327  0.3785
  599MOL0     C80759   8.376  12.137  11.155  0.2614 -0.5943 -0.5879
  599MOL0     C80760   8.238  12.119  11.122 -0.3390 -1.3890  0.5051
  599MOL0     O80761   8.146  12.135  11.219 -0.3522 -0.2583 -0.2923
  599MOL0     C80762   8.011  12.109  11.185  0.2454  0.3371  0.5329
  599MOL0     C80763   7.952  12.178  11.074  0.2196 -0.2658 -0.9447
  599MOL0     C80764   7.815  12.163  11.042  1.5868  0.1996  0.2524
  599MOL0     C80765   7.734  12.068  11.117 -0.6795  0.3406  0.4023
  599MOL0     O80766   7.599  12.032  11.104 -0.5745 -0.0098  0.0529
  599MOL0     C80767   7.514  12.107  11.014  0.0524 -0.1733  0.7433
  599MOL0     C80768   7.387  12.019  10.988 -0.3706 -0.2888 -0.3533
  599MOL0     C80769   7.271  12.109  10.929  0.2169 -0.6001  0.5705
  599MOL0     C80770   7.133  12.038  10.908 -0.5714 -0.0082  0.2531
  599MOL0     C80771   7.023  12.130  10.875  0.5270 -0.5502  0.4235
  599MOL0     C80772   6.875  12.077  10.856  0.7877 -0.2518 -0.0363
  599MOL0     C80773   6.762  12.190  10.873 -0.2357  0.4275  0.3207
  599MOL0     C80774   6.699  12.182  11.014  0.0851  0.1153 -0.7725
  599MOL0    Cl80775   6.821  12.179  11.143  0.3948 -0.0619  0.4591
  599MOL0     C80776   7.794  11.996  11.223 -0.7088 -0.4342 -0.2681
  599MOL0     C80777   7.933  12.020  11.256  0.7303  0.9689  1.2384
  599MOL0     O80778   8.219  12.071  11.011  0.2909 -0.3832 -0.6258
  599MOL0     C80779   8.400  12.113  11.292 -0.2351 -0.2253 -0.0903
  599MOL0     C80780   8.527  12.129  11.335  0.0623 -0.2257 -0.0106
  599MOL0     N80781   9.404  11.970  11.392  0.1732 -0.0493 -0.5774
  599MOL0     N80782   9.477  11.924  11.289 -0.1709 -0.1931  0.4055
  599MOL0     C80783   9.945  11.113  10.742  1.1442 -0.7299 -0.0100
  599MOL0     C80784  10.082  11.102  10.727 -0.5352 -0.0030 -0.3967
  599MOL0     C80785  10.465  10.887  10.705  0.0463 -0.1919 -0.8523
  599MOL0     C80786  10.514  10.757  10.672  0.3697  0.1121 -0.7305
  599MOL0     C80787  10.645  10.747  10.634 -0.2794  1.1479  0.8427
  599MOL0     C80788  10.743  10.843  10.649 -0.2683 -0.6233 -0.0556
  599MOL0     O80789  10.871  10.821  10.602 -0.2591 -0.6554 -0.3965
  599MOL0     C80790  10.974  10.828  10.706  0.0557 -0.5472 -0.3515
  599MOL0     C80791  11.039  10.686  10.729  0.2683  0.3577 -0.2023
  599MOL0     C80792  11.128  10.652  10.611  0.6224  0.6255 -0.1520
  599MOL0     C80793  11.194  10.508  10.627 -0.6287 -0.0129  0.9186
  599MOL0     C80794  11.091  10.411  10.593  0.1706  0.4372  0.0773
  599MOL0     C80795  11.002  10.335  10.545 -0.4887 -0.3249  0.9007
  599MOL0     C80796  10.705  10.964  10.704 -0.5748  0.2401  0.2363
  599MOL0     C80797  10.569  10.987  10.732  0.8169 -0.3195 -0.3958
  599MOL0     H80798  10.163  10.954  11.032 -0.7722 -0.7398  0.7818
  599MOL0     H80799   9.952  11.032  11.071  0.9027 -2.8955 -0.0151
  599MOL0     H80800   9.732  11.265  10.758 -0.3596 -0.1436  0.5199
  599MOL0     H80801   9.687  11.117  10.669 -0.3950  1.9683 -1.3412
  599MOL0     H80802   9.482  11.225  10.689 -0.6861 -0.7863  0.5214
  599MOL0     H80803   9.485  11.087  10.789  0.3166  0.2876 -3.6268
  599MOL0     H80804   9.515  11.234  10.987 -0.7601 -0.3593 -1.0525
  599MOL0     H80805   9.576  11.373  10.891 -0.2355  0.9938 -4.1069
  599MOL0     H80806   9.379  11.410  10.782 -0.3590 -0.8003 -0.9076
  599MOL0     H80807   9.300  11.267  10.853  0.1333 -0.6230  0.8379
  599MOL0     H80808   9.233  11.482  10.984 -0.1734  0.6382  1.2774
  599MOL0     H80809   9.318  11.347  11.080  1.1627  1.4031  2.1279
  599MOL0     H80810   9.505  11.485  11.099  0.0003  1.2321  0.8996
  599MOL0     H80811   9.471  11.579  10.947  0.4187 -0.5299 -0.8222
  599MOL0     H80812   9.261  11.661  11.066  1.3217  2.1385 -1.5634
  599MOL0     H80813   9.346  11.615  11.219 -0.6369 -1.0173 -0.2001
  599MOL0     H80814   9.416  11.817  11.010 -1.3920 -0.2756 -0.2809
  599MOL0     H80815   9.540  11.747  11.123 -0.0891 -3.6877  0.5909
  599MOL0     H80816   9.162  11.853  11.202  0.3323 -2.0320 -0.2597
  599MOL0     H80817   9.138  11.955  11.529  2.8166  0.4880  1.4814
  599MOL0     H80818   9.209  12.109  11.472 -0.1739 -0.1948  1.1041
  599MOL0     H80819   8.988  11.944  11.347  0.6242 -0.7570 -2.2960
  599MOL0     H80820   9.057  12.074  11.261  5.4901 -4.5421 -1.5228
  599MOL0     H80821   8.969  12.241  11.421  0.8707  0.2706  1.2419
  599MOL0     H80822   8.945  12.128  11.559 -3.1181  2.1796  0.9567
  599MOL0     H80823   8.742  12.175  11.506 -0.8715  1.8501 -0.7563
  599MOL0     H80824   8.779  12.010  11.454  0.8770 -0.3300 -1.1292
  599MOL0     H80825   8.682  12.224  11.057  0.3352 -1.2960  0.5017
  599MOL0     H80826   8.376  12.224  10.871  0.7785 -1.6791 -1.9870
  599MOL0     H80827   8.523  12.307  10.897 -1.6750  1.0131 -1.9448
  599MOL0     H80828   8.531  12.142  10.866  0.2337  1.2749  0.0545
  599MOL0     H80829   8.005  12.254  11.017  1.0560 -1.9856 -2.5916
  599MOL0     H80830   7.770  12.217  10.959  1.0392 -0.3749  0.1663
  599MOL0     H80831   7.472  12.196  11.062 -0.0959  0.8657 -1.2170
  599MOL0     H80832   7.555  12.130  10.916  0.0139 -0.8447  0.5652
  599MOL0     H80833   7.404  11.941  10.913 -0.6890  0.8123 -1.6138
  599MOL0     H80834   7.355  11.975  11.083 -1.9649  0.1824 -0.6264
  599MOL0     H80835   7.312  12.150  10.836  0.2414  0.3701  0.9987
  599MOL0     H80836   7.251  12.183  11.007 -2.6209 -0.2816 -0.3400
  599MOL0     H80837   7.142  11.946  10.850 -2.4599 -0.7541  1.0913
  599MOL0     H80838   7.109  11.994  11.005  4.1004 -0.2535  1.5634
  599MOL0     H80839   7.035  12.169  10.774 -0.1400 -2.5335 -0.4760
  599MOL0     H80840   7.019  12.207  10.953  0.6254  1.7902 -1.7474
  599MOL0     H80841   6.884  12.039  10.754  5.3411 -2.2894  0.8620
  599MOL0     H80842   6.871  11.993  10.926 -0.4049  0.4715  0.8096
  599MOL0     H80843   6.680  12.174  10.801 -0.8700  1.3336  0.8165
  599MOL0     H80844   6.812  12.286  10.859  0.1451  0.6419  2.7441
  599MOL0     H80845   6.630  12.098  11.011  1.2217 -0.9154  0.7475
  599MOL0     H80846   6.627  12.264  11.023 -1.1257 -1.0155  0.0819
  599MOL0     H80847   7.729  11.924  11.270 -2.3595  0.1478 -1.5763
  599MOL0     H80848   7.978  11.962  11.336  1.1317 -3.1982 -1.7113
  599MOL0     H80849   8.328  12.072  11.362  0.5122  3.1283  2.9208
  599MOL0     H80850   8.547  12.091  11.434 -0.4413 -1.2590 -0.2890
  599MOL0     H80851   9.881  11.141  10.659 -2.8196 -3.3712  1.8704
  599MOL0     H80852  10.123  11.136  10.633 -0.0013  0.0227 -0.1576
  599MOL0     H80853  10.454  10.668  10.652  1.5054 -0.8178 -0.1592
  599MOL0     H80854  10.680  10.655  10.588 -1.3274  1.2853 -0.2684
  599MOL0     H80855  11.050  10.898  10.670 -0.8449  0.9279  0.4844
  599MOL0     H80856  10.939  10.870  10.801  0.7541 -1.1062  0.1630
  599MOL0     H80857  10.966  10.604  10.726  0.0230  0.4174  2.4490
  599MOL0     H80858  11.106  10.690  10.816  3.8817 -2.7108 -2.4996
  599MOL0     H80859  11.200  10.735  10.610  0.1198  1.0662 -0.1221
  599MOL0     H80860  11.065  10.646  10.522 -0.3142 -1.5226  0.6026
  599MOL0     H80861  11.233  10.487  10.727  1.0677 -0.7461  0.1440
  599MOL0     H80862  11.281  10.507  10.560 -1.4639  0.0043 -0.2041
  599MOL0     H80863  10.919  10.289  10.495 -0.4075  2.6978 -2.4125
  599MOL0     H80864  10.784  11.037  10.722 -1.9413  1.4114  1.8241
  599MOL0     H80865  10.550  11.080  10.785  0.2755 -0.4165 -0.4113
  600MOL0     O80866   0.589  10.336   4.763  0.0497 -0.7364 -1.3718
  600MOL0     C80867   0.480  10.377   4.730 -0.1918  0.2667 -0.1038
  600MOL0     O80868   0.439  10.506   4.735 -0.0783  0.0026 -0.1655
  600MOL0     C80869   0.544  10.592   4.751  0.1013 -0.0794  0.7689
  600MOL0     C80870   0.579  10.662   4.631 -0.1350  0.2543  0.4505
  600MOL0     C80871   0.687  10.758   4.631 -0.2169  0.1086 -0.5197
  600MOL0     C80872   0.747  10.791   4.751 -0.9610 -0.3852 -0.4724
  600MOL0     O80873   0.843  10.899   4.748  0.6876 -0.3278  0.0440
  600MOL0     C80874   0.843  10.986   4.866  0.2578 -0.0284  0.0363
  600MOL0     C80875   0.890  11.128   4.842 -0.5281 -0.7694  0.0149
  600MOL0     C80876   1.031  11.160   4.787  0.9026 -0.0122  0.5490
  600MOL0     C80877   1.130  11.049   4.821 -1.2945 -1.1592 -0.1083
  600MOL0     C80878   1.281  11.099   4.783 -0.2215  0.1812  0.0843
  600MOL0     C80879   1.325  11.200   4.885 -0.0531  1.0954  0.3097
  600MOL0     C80880   1.473  11.209   4.843 -0.6166 -0.1250 -1.1930
  600MOL0     C80881   1.568  11.094   4.906  0.5426 -0.0236 -0.0638
  600MOL0     N80882   1.716  11.118   4.907  0.2763 -0.4462 -0.2965
  600MOL0     C80883   1.802  11.110   4.800 -0.4593  0.9319  0.4621
  600MOL0     C80884   1.925  11.145   4.839 -0.7356 -0.4672  0.1583
  600MOL0     C80885   2.055  11.143   4.760 -0.2864 -0.0486 -0.1451
  600MOL0     C80886   2.175  11.100   4.844 -0.6346 -0.4313 -0.8111
  600MOL0     C80887   2.302  11.084   4.758 -0.5088 -0.6179 -0.6979
  600MOL0     C80888   2.412  11.047   4.857  0.1142 -0.2986  0.4593
  600MOL0     O80889   2.527  11.004   4.782 -1.0586  0.0025 -0.5603
  600MOL0     C80890   2.643  11.011   4.848 -0.0425 -0.2675 -0.1111
  600MOL0     C80891   2.659  11.022   4.984 -0.0760  0.7715 -0.0013
  600MOL0     C80892   2.786  11.032   5.046  0.4402  0.2200  0.1659
  600MOL0     C80893   2.782  11.057   5.196 -0.3657 -0.2824  0.0777
  600MOL0     C80894   2.904  11.028   4.963  0.6263 -0.2940  0.0909
  600MOL0     C80895   3.031  11.049   5.017 -0.2129 -0.3081 -0.1084
  600MOL0     O80896   3.124  11.109   4.940  0.0423  0.3290 -0.0974
  600MOL0     C80897   3.250  11.137   4.988 -0.5130 -0.1718 -0.7046
  600MOL0     C80898   3.279  11.271   5.019 -0.1176 -0.2880  0.0527
  600MOL0     C80899   3.411  11.304   5.061  1.2024  0.6369 -0.4789
  600MOL0     C80900   3.509  11.206   5.088  0.2156 -0.3593  0.5318
  600MOL0     O80901   3.629  11.249   5.132  0.5579 -0.2871  0.4147
  600MOL0     C80902   3.730  11.154   5.140 -0.2334 -0.1064  0.3010
  600MOL0     C80903   3.858  11.220   5.183 -0.7872 -0.2050 -0.0745
  600MOL0     C80904   3.863  11.287   5.324 -1.4956 -0.4830  0.1198
  600MOL0     C80905   3.866  11.188   5.437 -0.7099 -0.9041 -0.9314
  600MOL0     C80906   3.887  11.257   5.567  0.7285 -0.7807 -0.2069
  600MOL0     C80907   3.902  11.161   5.686 -0.6608 -0.0993 -0.0956
  600MOL0     C80908   3.776  11.081   5.708  0.0457  0.5633  0.1854
  600MOL0     C80909   3.787  11.032   5.853 -0.4159 -0.5637  1.4714
  600MOL0    Cl80910   3.755  11.158   5.979 -0.5774  0.4644 -0.0200
  600MOL0     C80911   3.469  11.072   5.067 -0.3258 -1.1666  1.0275
  600MOL0     C80912   3.350  11.034   5.014  0.6568 -0.4737 -0.4824
  600MOL0     O80913   3.056  11.009   5.134 -0.8278  0.5607  0.1439
  600MOL0     C80914   2.886  11.013   4.828  0.2088  0.1921 -0.0087
  600MOL0     C80915   2.756  11.012   4.768 -1.5395 -0.0139 -0.5300
  600MOL0     N80916   1.910  11.205   4.965 -0.0937  0.5557  0.5125
  600MOL0     N80917   1.785  11.190   5.004 -0.5577  0.5411  0.6087
  600MOL0     C80918   0.718  10.715   4.872  1.0685  0.4712 -0.8009
  600MOL0     C80919   0.614  10.615   4.866 -0.6246  0.0672 -0.0326
  600MOL0     C80920   0.385  10.281   4.668  0.0783 -0.2375  0.5136
  600MOL0     C80921   0.257  10.322   4.627 -0.1882 -0.6564  0.5404
  600MOL0     C80922   0.164  10.230   4.584 -0.7327  0.8167  0.5491
  600MOL0     C80923   0.198  10.094   4.576  0.7954 -0.2251  0.5368
  600MOL0     O80924   0.089  10.017   4.543  0.0073 -0.3242 -0.8237
  600MOL0     C80925   0.120   9.882   4.490 -0.0105 -0.4405  0.9393
  600MOL0     C80926  -0.019   9.808   4.458 -0.4331 -0.1601  1.4247
  600MOL0     C80927  -0.101   9.896   4.365 -0.2402  0.0463 -0.3311
  600MOL0     C80928  -0.235   9.837   4.330 -0.1722  0.1140  0.0500
  600MOL0     C80929  -0.264   9.838   4.189  0.2909  0.7198  0.1298
  600MOL0     C80930  -0.313   9.837   4.076 -1.2518 -0.9166  0.1894
  600MOL0     C80931   0.324  10.048   4.600  1.0169 -0.1254  1.0724
  600MOL0     C80932   0.421  10.146   4.641 -0.5353  0.4007 -0.2593
  600MOL0     H80933   0.522  10.637   4.542 -2.6526  1.6149  1.5881
  600MOL0     H80934   0.698  10.813   4.538  2.1000 -2.5634 -1.9866
  600MOL0     H80935   0.742  10.986   4.907 -0.0769 -1.3555 -0.7141
  600MOL0     H80936   0.897  10.938   4.948 -1.6543 -2.0081  0.2122
  600MOL0     H80937   0.826  11.198   4.788 -0.2340 -0.4347  0.0947
  600MOL0     H80938   0.900  11.165   4.945  0.2031  0.0661 -0.3412
  600MOL0     H80939   1.024  11.152   4.678 -0.9932 -2.1998  0.7531
  600MOL0     H80940   1.059  11.257   4.828 -3.8106  1.7911  0.0654
  600MOL0     H80941   1.135  11.010   4.923  1.1635 -1.3309 -0.2186
  600MOL0     H80942   1.097  10.961   4.764 -0.5996 -1.9982  0.7432
  600MOL0     H80943   1.349  11.014   4.788 -0.6400 -0.2817 -1.5468
  600MOL0     H80944   1.282  11.137   4.681 -1.0082 -1.9140 -0.7551
  600MOL0     H80945   1.280  11.298   4.865 -0.7554  0.3411 -2.0797
  600MOL0     H80946   1.311  11.162   4.987 -0.6267 -1.8994 -0.7897
  600MOL0     H80947   1.492  11.214   4.736  1.4851  4.0571 -0.8494
  600MOL0     H80948   1.516  11.306   4.870 -2.4131  0.5678 -0.6813
  600MOL0     H80949   1.559  11.007   4.841 -0.4745  1.1393 -1.5751
  600MOL0     H80950   1.529  11.068   5.004  2.2720 -0.2260  0.6061
  600MOL0     H80951   1.782  11.071   4.700  0.1264  3.0320 -0.5246
  600MOL0     H80952   2.044  11.064   4.685  0.8799 -1.6176  1.2326
  600MOL0     H80953   2.077  11.243   4.722 -2.3268  1.7011  2.8156
  600MOL0     H80954   2.153  11.005   4.893  0.2533  0.1715  0.8383
  600MOL0     H80955   2.194  11.174   4.922 -2.6789 -0.5175 -0.1500
  600MOL0     H80956   2.333  11.181   4.719  1.1995 -0.1420  1.6565
  600MOL0     H80957   2.303  11.015   4.673 -0.5569 -0.4704 -0.8190
  600MOL0     H80958   2.384  10.963   4.920  0.1422  1.7719  3.4468
  600MOL0     H80959   2.431  11.133   4.922 -2.6227  1.5672 -0.9802
  600MOL0     H80960   2.577  11.026   5.054 -1.1797 -0.5602 -1.1688
  600MOL0     H80961   2.852  11.137   5.222  0.4385 -1.6507  2.4690
  600MOL0     H80962   2.689  11.099   5.234  1.7190  4.1645  0.8634
  600MOL0     H80963   2.805  10.969   5.257 -2.0717  0.6484  2.2006
  600MOL0     H80964   3.205  11.347   5.000 -0.0979 -0.6047 -1.3643
  600MOL0     H80965   3.422  11.411   5.078 -1.4237  0.8137  0.6732
  600MOL0     H80966   3.703  11.078   5.214 -0.0725  1.6385  2.2079
  600MOL0     H80967   3.749  11.111   5.041  3.5544  1.0044  0.3864
  600MOL0     H80968   3.923  11.133   5.176  2.0498  1.8481 -1.2801
  600MOL0     H80969   3.898  11.291   5.109  0.6490  0.8485  1.6469
  600MOL0     H80970   3.784  11.361   5.339 -1.4678 -0.2900 -0.6499
  600MOL0     H80971   3.950  11.352   5.328 -2.7803  1.2398  1.5809
  600MOL0     H80972   3.767  11.140   5.437 -1.5156  0.6925 -0.8385
  600MOL0     H80973   3.947  11.115   5.430  1.0145  0.9933 -1.6878
  600MOL0     H80974   3.807  11.325   5.597  0.4714 -0.7639 -0.9127
  600MOL0     H80975   3.981  11.311   5.561 -0.1990  0.8455 -0.7451
  600MOL0     H80976   3.994  11.109   5.660  0.4530  2.3188 -1.4095
  600MOL0     H80977   3.930  11.220   5.774 -2.4043 -0.3043  0.6368
  600MOL0     H80978   3.757  10.996   5.642 -0.6648  0.5846  0.3546
  600MOL0     H80979   3.688  11.145   5.700  0.3332  1.2086  1.8234
  600MOL0     H80980   3.884  10.989   5.877  0.7678 -0.2086 -2.1151
  600MOL0     H80981   3.702  10.966   5.872 -0.4645 -0.4806  1.5437
  600MOL0     H80982   3.519  10.983   5.104  1.3308 -0.5135  0.4490
  600MOL0     H80983   3.325  10.928   5.009 -1.5581 -0.1631  1.8367
  600MOL0     H80984   2.970  11.018   4.760 -0.2726  2.5894 -0.5166
  600MOL0     H80985   2.757  11.010   4.659  0.3112  1.1671 -0.5857
  600MOL0     H80986   0.766  10.738   4.966 -1.5953  0.0937  0.7718
  600MOL0     H80987   0.592  10.565   4.960  2.2873  2.3111  2.0257
  600MOL0     H80988   0.226  10.426   4.629  0.3392 -0.4601 -0.4516
  600MOL0     H80989   0.065  10.257   4.549  0.3497  3.6177 -0.6407
  600MOL0     H80990   0.168   9.893   4.392 -1.0787 -2.4033  0.1369
  600MOL0     H80991   0.185   9.820   4.553 -0.6468 -3.1270 -0.8675
  600MOL0     H80992  -0.070   9.793   4.554 -0.2248 -0.9800  1.4178
  600MOL0     H80993  -0.002   9.711   4.409 -0.0636 -0.7367  2.6398
  600MOL0     H80994  -0.036   9.907   4.277  1.2044  1.2186  0.8294
  600MOL0     H80995  -0.117   9.996   4.405  0.8954 -1.2274  3.7560
  600MOL0     H80996  -0.317   9.878   4.389  0.7653  1.3208  0.5622
  600MOL0     H80997  -0.233   9.731   4.357 -0.8188 -0.0533 -0.5209
  600MOL0     H80998  -0.345   9.833   3.974  2.1748 -4.4440 -0.9707
  600MOL0     H80999   0.354   9.944   4.590  0.6579 -0.1528  0.1589
  600MOL0     H81000   0.523  10.117   4.665  1.4742  4.9884 -2.0249
  601MOL0     O81001   9.613   4.030  10.791  0.3715 -0.8082 -0.1887
  601MOL0     C81002   9.625   4.048  10.668  0.7828 -0.1956 -0.7026
  601MOL0     O81003   9.531   4.112  10.591  0.3231  0.4476 -0.5051
  601MOL0     C81004   9.402   4.091  10.644  0.7369 -0.3439  0.2933
  601MOL0     C81005   9.328   3.970  10.630  0.1617  0.5557 -0.0703
  601MOL0     C81006   9.196   3.957  10.675  0.5588  0.7242 -0.7004
  601MOL0     C81007   9.119   4.064  10.726 -0.9181  0.5903  0.7551
  601MOL0     O81008   8.986   4.040  10.755 -0.3634  0.3402 -0.4207
  601MOL0     C81009   8.955   4.042  10.889  0.2316 -0.4625 -0.2548
  601MOL0     C81010   8.812   3.992  10.903  0.4929  0.1327 -0.9031
  601MOL0     C81011   8.712   4.068  10.817  0.0292 -0.3498 -0.2565
  601MOL0     C81012   8.567   4.044  10.863  0.2516 -0.8667  0.1412
  601MOL0     C81013   8.463   4.142  10.811  0.0098  0.3130 -0.3528
  601MOL0     C81014   8.476   4.146  10.661  0.6239 -0.4401  0.1749
  601MOL0     C81015   8.356   4.210  10.592 -0.6516 -0.2376 -0.2606
  601MOL0     C81016   8.317   4.356  10.621 -0.1131  0.6316  0.7430
  601MOL0     N81017   8.234   4.370  10.735 -0.1978 -0.6453  0.6737
  601MOL0     C81018   8.097   4.352  10.735 -0.9578 -0.3824 -0.1687
  601MOL0     C81019   8.064   4.389  10.856  1.0780 -0.9212 -0.0478
  601MOL0     C81020   7.912   4.386  10.895 -0.5000  0.4736  0.5097
  601MOL0     C81021   7.851   4.246  10.913 -0.0949  0.2640 -0.1906
  601MOL0     C81022   7.746   4.244  11.024  0.4210  0.3015 -0.5315
  601MOL0     C81023   7.710   4.100  11.055  0.7088 -0.2598  0.7120
  601MOL0     O81024   7.647   4.033  10.942  0.5678  0.1187 -0.0614
  601MOL0     C81025   7.519   4.054  10.910 -0.0832  0.0782  0.7309
  601MOL0     C81026   7.464   3.979  10.796 -0.6007 -0.8286 -0.9484
  601MOL0     C81027   7.334   3.988  10.762  0.2286  0.3322  0.5670
  601MOL0     C81028   7.311   3.908  10.632  0.3634 -0.1593  0.0314
  601MOL0     C81029   7.239   4.058  10.835 -0.3808  0.3016  0.4779
  601MOL0     C81030   7.088   4.070  10.804  0.1962  0.1101 -0.2585
  601MOL0     O81031   7.048   4.032  10.675  0.2013  0.1896  0.0377
  601MOL0     C81032   6.911   4.010  10.654 -0.9102  0.2150 -0.3001
  601MOL0     C81033   6.811   4.098  10.688 -0.5204 -1.0351  0.3822
  601MOL0     C81034   6.680   4.067  10.658 -0.1444  0.2725  0.2083
  601MOL0     C81035   6.649   3.940  10.614 -0.1516 -0.3862 -0.0168
  601MOL0     O81036   6.514   3.918  10.593  0.5991 -0.3784 -0.2897
  601MOL0     C81037   6.469   3.811  10.508 -0.0767  0.4852 -0.4883
  601MOL0     C81038   6.322   3.819  10.480 -0.2446  0.1879 -0.3141
  601MOL0     C81039   6.246   3.686  10.502 -0.1192 -0.8452  1.1717
  601MOL0     C81040   6.132   3.690  10.406  0.8747 -0.2193  0.3776
  601MOL0     C81041   6.037   3.573  10.427 -0.1425  0.0289  0.2167
  601MOL0     C81042   5.935   3.539  10.317 -0.1540 -0.7801  0.1561
  601MOL0     C81043   5.835   3.661  10.294 -0.4822  0.8250  0.7240
  601MOL0     C81044   5.766   3.659  10.161  0.5792  0.3892  0.0971
  601MOL0    Cl81045   5.661   3.516  10.134 -0.3070 -0.0665 -0.2221
  601MOL0     C81046   6.745   3.845  10.593  0.0092  0.6465 -0.2358
  601MOL0     C81047   6.872   3.883  10.600  0.5009  0.3109 -1.1446
  601MOL0     O81048   7.024   4.130  10.888  0.2426  0.0490 -0.3152
  601MOL0     C81049   7.289   4.119  10.957  0.4313 -0.1895  0.9074
  601MOL0     C81050   7.425   4.136  10.983 -0.1999 -0.3195 -0.5473
  601MOL0     N81051   8.168   4.436  10.930  0.0932  0.8742  0.7142
  601MOL0     N81052   8.275   4.426  10.854 -0.3786  0.1219  0.3699
  601MOL0     C81053   9.192   4.176  10.755  1.2617  0.0574 -0.7568
  601MOL0     C81054   9.332   4.193  10.712  0.4439 -0.7214 -0.3759
  601MOL0     C81055   9.751   4.007  10.599 -0.2587 -0.0001 -0.2624
  601MOL0     C81056   9.817   3.895  10.643  0.5151 -0.1658 -0.5390
  601MOL0     C81057   9.927   3.830  10.567 -0.2423 -0.3598 -0.2081
  601MOL0     C81058   9.960   3.892  10.443  0.1234  0.1520 -0.0895
  601MOL0     O81059  10.060   3.825  10.371 -0.2406  0.6144  0.1303
  601MOL0     C81060  10.104   3.876  10.241  0.0357  0.4799 -0.4750
  601MOL0     C81061  10.199   3.774  10.177 -0.1912  0.8135 -0.8211
  601MOL0     C81062  10.130   3.645  10.149 -0.4199  0.3762  0.9827
  601MOL0     C81063  10.228   3.532  10.131 -0.1340  0.4864  0.0306
  601MOL0     C81064  10.295   3.486  10.254  0.1080  0.6222  0.2051
  601MOL0     C81065  10.340   3.452  10.364  0.7786 -0.3455 -0.1183
  601MOL0     C81066   9.894   4.006  10.396 -0.2745 -0.3368 -0.8715
  601MOL0     C81067   9.791   4.063  10.475  0.7386 -0.6034 -0.0598
  601MOL0     H81068   9.383   3.884  10.593 -2.5026  0.1582 -3.5453
  601MOL0     H81069   9.145   3.862  10.671  2.3705 -0.5170  2.3302
  601MOL0     H81070   9.010   3.971  10.951  1.0183  0.6162  0.3115
  601MOL0     H81071   8.966   4.141  10.935 -2.5004 -1.4686  2.9927
  601MOL0     H81072   8.803   3.886  10.879  0.3121 -0.0370 -0.1261
  601MOL0     H81073   8.775   3.997  11.006  2.0326  2.0435 -0.3752
  601MOL0     H81074   8.736   4.173  10.833  0.4115 -0.5661  0.6409
  601MOL0     H81075   8.725   4.059  10.708 -0.8631  1.6205 -0.5603
  601MOL0     H81076   8.539   3.948  10.820  0.6420 -0.0169 -2.1355
  601MOL0     H81077   8.562   4.032  10.972 -1.5926  0.1766  0.2018
  601MOL0     H81078   8.363   4.104  10.833 -1.4527  2.8241 -2.1667
  601MOL0     H81079   8.469   4.248  10.836  1.8997 -0.4816  3.3008
  601MOL0     H81080   8.559   4.211  10.631 -0.1893  0.8210  0.5458
  601MOL0     H81081   8.495   4.049  10.615  1.5247 -1.0302  1.7008
  601MOL0     H81082   8.370   4.206  10.484 -2.3110 -1.1969 -0.4649
  601MOL0     H81083   8.274   4.141  10.610  0.6860 -1.7087  0.4497
  601MOL0     H81084   8.252   4.397  10.543 -1.1956 -2.4943 -0.1799
  601MOL0     H81085   8.407   4.418  10.621  1.9067 -2.0853  2.2006
  601MOL0     H81086   8.041   4.303  10.656  1.0022 -1.7409 -0.7949
  601MOL0     H81087   7.895   4.448  10.983 -2.9802  2.2048 -1.0559
  601MOL0     H81088   7.846   4.424  10.816  1.1669 -1.2075 -1.8343
  601MOL0     H81089   7.934   4.183  10.946  0.0251  1.1964  1.4201
  601MOL0     H81090   7.800   4.202  10.827 -1.8122 -1.2252  1.4807
  601MOL0     H81091   7.659   4.306  10.998 -0.1205 -0.8322 -1.4984
  601MOL0     H81092   7.786   4.298  11.111 -0.7184 -0.4662  0.5000
  601MOL0     H81093   7.637   4.098  11.137  0.1495  0.7099  0.2550
  601MOL0     H81094   7.796   4.036  11.076  4.1030  2.4921 -3.1069
  601MOL0     H81095   7.528   3.899  10.758 -3.1410 -4.1821  1.3044
  601MOL0     H81096   7.373   3.818  10.630 -2.1839 -2.0409  0.8439
  601MOL0     H81097   7.207   3.875  10.624  0.0317  0.8774 -0.1415
  601MOL0     H81098   7.329   3.977  10.549  0.5815  1.8596  1.6648
  601MOL0     H81099   6.834   4.192  10.736 -1.0567 -2.0633  2.7748
  601MOL0     H81100   6.604   4.144  10.665  0.1534  0.5727  0.1985
  601MOL0     H81101   6.531   3.807  10.418  1.0983  2.1521  0.1904
  601MOL0     H81102   6.488   3.728  10.576  0.9567  0.7002 -0.4887
  601MOL0     H81103   6.283   3.902  10.540  2.7101  3.2173 -2.1912
  601MOL0     H81104   6.321   3.852  10.376  2.3974  2.0766  0.1454
  601MOL0     H81105   6.209   3.681  10.605 -0.4077 -1.7349  1.0314
  601MOL0     H81106   6.304   3.596  10.482  2.4506  0.8752  0.3855
  601MOL0     H81107   6.072   3.779  10.422  1.1626 -0.1161  0.8899
  601MOL0     H81108   6.172   3.690  10.304  3.5820 -0.0760  1.3493
  601MOL0     H81109   5.984   3.592  10.521  1.2631  3.2323  0.4612
  601MOL0     H81110   6.098   3.482  10.427  1.3430  0.9922  1.0047
  601MOL0     H81111   5.987   3.518  10.223  2.0372  3.2430  0.2292
  601MOL0     H81112   5.875   3.450  10.338  2.0892 -2.0686  1.5039
  601MOL0     H81113   5.891   3.755  10.292  0.2166  0.4079 -1.0794
  601MOL0     H81114   5.764   3.679  10.375 -1.6170  3.4009 -0.6968
  601MOL0     H81115   5.832   3.665  10.074  2.3712  1.7275  1.4576
  601MOL0     H81116   5.701   3.747  10.163 -1.0765 -0.6806  4.2888
  601MOL0     H81117   6.728   3.746  10.552  0.4877 -0.6199  2.3523
  601MOL0     H81118   6.951   3.814  10.572 -0.7085 -2.3657  1.5075
  601MOL0     H81119   7.227   4.171  11.029 -0.9989 -2.0329  1.0647
  601MOL0     H81120   7.451   4.204  11.064 -3.3926  0.9578 -0.4700
  601MOL0     H81121   9.139   4.264  10.790  0.9241 -0.3315 -0.2890
  601MOL0     H81122   9.389   4.281  10.740 -1.0372  0.6221 -1.3772
  601MOL0     H81123   9.797   3.843  10.736  1.4783  2.3818  1.2224
  601MOL0     H81124   9.989   3.748  10.603  2.2128  2.7561  3.4600
  601MOL0     H81125  10.013   3.901  10.187 -3.0718  0.5131  4.1689
  601MOL0     H81126  10.160   3.969  10.255 -0.5582  0.6248  1.1368
  601MOL0     H81127  10.289   3.765  10.240  0.1521 -0.3030 -1.4398
  601MOL0     H81128  10.231   3.825  10.085  1.6687  2.2459  0.5316
  601MOL0     H81129  10.063   3.649  10.063 -0.6866  1.6191  1.2224
  601MOL0     H81130  10.067   3.614  10.233 -1.9432 -0.5066 -0.4290
  601MOL0     H81131  10.300   3.558  10.052 -0.2159  0.0663 -0.1861
  601MOL0     H81132  10.172   3.443  10.103  1.3007 -0.3319 -0.3338
  601MOL0     H81133  10.378   3.421  10.459  1.1187 -0.6071 -0.3372
  601MOL0     H81134   9.913   4.068  10.310 -2.0477  1.7069  0.0972
  601MOL0     H81135   9.738   4.151  10.441  0.6423 -0.8734 -0.6208
  602MOL0     O81136   9.365   7.351   7.439 -0.4587 -0.0832 -0.0733
  602MOL0     C81137   9.360   7.242   7.386 -0.5887 -0.6250 -0.5935
  602MOL0     O81138   9.275   7.142   7.410  0.7201 -0.7267 -0.3237
  602MOL0     C81139   9.173   7.166   7.502  0.5828 -0.8106  0.3748
  602MOL0     C81140   9.046   7.146   7.453 -0.1736  0.0163  0.2315
  602MOL0     C81141   8.934   7.142   7.539 -0.1645 -0.1476 -0.1784
  602MOL0     C81142   8.956   7.180   7.674 -0.1895 -0.0892  0.5244
  602MOL0     O81143   8.839   7.193   7.742 -0.9643 -0.1479  0.2068
  602MOL0     C81144   8.849   7.236   7.880 -0.3566 -0.2902  0.2237
  602MOL0     C81145   8.878   7.387   7.887 -0.0537  0.3703 -0.4228
  602MOL0     C81146   8.904   7.419   8.034 -0.4641  0.1070  0.3550
  602MOL0     C81147   8.930   7.575   8.047 -0.4148 -0.7139  0.0384
  602MOL0     C81148   8.965   7.617   8.197  0.2183 -0.0618 -1.0025
  602MOL0     C81149   8.853   7.596   8.299  0.8983  0.4086  0.4076
  602MOL0     C81150   8.900   7.626   8.447 -0.2706  0.2000  1.0493
  602MOL0     C81151   8.936   7.778   8.457  0.8573 -0.5045  0.5461
  602MOL0     N81152   8.845   7.842   8.555  0.1918  0.2790 -0.3930
  602MOL0     C81153   8.880   7.932   8.651 -0.2686 -0.0199 -0.0376
  602MOL0     C81154   8.766   7.948   8.720  0.1522 -0.5945 -0.8786
  602MOL0     C81155   8.749   8.036   8.834  0.6518 -0.0046  0.1654
  602MOL0     C81156   8.792   7.959   8.957 -0.5761 -0.6009  0.1975
  602MOL0     C81157   8.679   7.880   9.036 -0.7806  0.6037  0.5248
  602MOL0     C81158   8.614   7.954   9.150 -0.3686 -0.0270 -0.2899
  602MOL0     O81159   8.640   8.098   9.145 -0.2263 -0.0208 -0.4310
  602MOL0     C81160   8.592   8.185   9.235  0.1239  0.7533  0.9608
  602MOL0     C81161   8.542   8.137   9.360  0.2598 -0.0596  0.1619
  602MOL0     C81162   8.481   8.225   9.451  0.4591  1.2411 -0.6105
  602MOL0     C81163   8.412   8.171   9.575  0.4481  0.6279  0.8500
  602MOL0     C81164   8.471   8.364   9.421 -1.1276  0.6954 -0.2115
  602MOL0     C81165   8.373   8.456   9.488  0.0741 -0.1532 -0.3609
  602MOL0     O81166   8.235   8.433   9.459 -0.6976 -1.0133  0.0247
  602MOL0     C81167   8.142   8.525   9.513 -0.5173  0.6938 -0.3685
  602MOL0     C81168   8.123   8.542   9.648  0.2968 -0.1548 -0.0255
  602MOL0     C81169   8.035   8.630   9.706  0.3236  0.4510  0.2069
  602MOL0     C81170   7.955   8.709   9.623  0.0257  0.5423 -0.4158
  602MOL0     O81171   7.889   8.816   9.680  0.4939  0.0353  0.1873
  602MOL0     C81172   7.888   8.949   9.615  0.2643 -0.5354 -0.0751
  602MOL0     C81173   7.779   9.042   9.648  0.4791 -0.9262  0.9707
  602MOL0     C81174   7.638   8.978   9.651  0.2028 -0.5197  0.4707
  602MOL0     C81175   7.598   8.915   9.517  0.0075 -0.5832  0.4651
  602MOL0     C81176   7.469   8.824   9.499 -0.3728 -0.1535 -0.4802
  602MOL0     C81177   7.454   8.723   9.614  0.4161 -0.4721 -0.2213
  602MOL0     C81178   7.303   8.672   9.623 -0.3235 -0.5396 -0.2008
  602MOL0     C81179   7.292   8.546   9.698 -0.4827 -0.1598 -0.5388
  602MOL0    Cl81180   7.109   8.523   9.719  0.3873 -0.2935 -0.5654
  602MOL0     C81181   7.965   8.688   9.482  0.6503  0.6285  0.0152
  602MOL0     C81182   8.056   8.594   9.425  0.1514 -0.0758 -0.8200
  602MOL0     O81183   8.419   8.554   9.552  0.2763 -0.8628  0.3249
  602MOL0     C81184   8.545   8.412   9.308  0.2521  0.0770  0.0201
  602MOL0     C81185   8.601   8.326   9.216  0.0534 -0.6095  1.1108
  602MOL0     N81186   8.667   7.867   8.678 -0.4955  0.1329  0.0918
  602MOL0     N81187   8.712   7.806   8.581 -0.2789 -0.3327 -0.8573
  602MOL0     C81188   9.087   7.210   7.721  1.3397  0.4386  0.4842
  602MOL0     C81189   9.197   7.206   7.634 -0.5422  0.0446  0.1355
  602MOL0     C81190   9.451   7.209   7.270  0.0562  0.3480  0.9003
  602MOL0     C81191   9.534   7.309   7.216  0.4094 -0.1016  0.6885
  602MOL0     C81192   9.614   7.285   7.104 -0.6187 -0.3962 -0.8194
  602MOL0     C81193   9.628   7.154   7.051  0.5829 -0.7013  0.1613
  602MOL0     O81194   9.714   7.138   6.942  0.6019  0.0790  0.3120
  602MOL0     C81195   9.831   7.063   6.975  0.8990 -0.4653 -0.1463
  602MOL0     C81196   9.861   6.968   6.862  0.2809 -0.0447  0.3347
  602MOL0     C81197   9.738   6.885   6.820  0.2546  0.2229  0.7132
  602MOL0     C81198   9.771   6.774   6.719 -0.1169 -0.4032 -0.0536
  602MOL0     C81199   9.813   6.838   6.593 -0.0992 -0.5643 -0.6343
  602MOL0     C81200   9.870   6.897   6.511 -0.0190  0.6159 -0.0552
  602MOL0     C81201   9.555   7.052   7.109 -0.1411  0.2485  0.0871
  602MOL0     C81202   9.457   7.079   7.209 -0.0576 -0.2314  0.3304
  602MOL0     H81203   9.046   7.125   7.347  2.2140 -0.9494  0.3458
  602MOL0     H81204   8.834   7.108   7.511  0.7528 -2.2151 -1.2276
  602MOL0     H81205   8.747   7.217   7.914 -0.2361 -4.1325 -1.1103
  602MOL0     H81206   8.917   7.174   7.939 -0.4850  0.2606  0.9807
  602MOL0     H81207   8.959   7.426   7.826  0.4451  0.8177  0.4956
  602MOL0     H81208   8.784   7.438   7.863 -1.6967 -1.8331  0.8807
  602MOL0     H81209   8.816   7.393   8.094  1.6142 -2.8633  2.4494
  602MOL0     H81210   8.991   7.364   8.073  2.1572  3.5897 -0.1056
  602MOL0     H81211   9.016   7.597   7.983 -1.6933  0.5100 -1.3432
  602MOL0     H81212   8.846   7.632   8.006  2.4724  2.2616 -2.3194
  602MOL0     H81213   9.051   7.560   8.233  1.1163  1.4826 -0.5817
  602MOL0     H81214   8.988   7.724   8.192  2.1374 -0.4606 -1.1891
  602MOL0     H81215   8.765   7.649   8.262  1.4169  0.0853 -1.3999
  602MOL0     H81216   8.832   7.489   8.297  2.3720  0.0930  0.2324
  602MOL0     H81217   8.816   7.601   8.512  0.2106  2.1543  2.5108
  602MOL0     H81218   8.972   7.551   8.481 -0.9598 -1.5232 -1.0264
  602MOL0     H81219   8.920   7.843   8.371 -0.7419 -2.4817 -0.7558
  602MOL0     H81220   9.042   7.776   8.485  1.1028 -3.6735 -0.2075
  602MOL0     H81221   8.970   7.990   8.672 -0.8222  0.5905  0.7173
  602MOL0     H81222   8.813   8.126   8.833 -0.8984  1.1799  1.6638
  602MOL0     H81223   8.648   8.074   8.853  0.5061  0.0454 -0.7029
  602MOL0     H81224   8.833   8.034   9.026 -0.3500  1.2704 -1.8208
  602MOL0     H81225   8.877   7.897   8.926 -1.3128 -0.0832 -3.2580
  602MOL0     H81226   8.715   7.780   9.064 -2.7668 -0.6706 -1.1100
  602MOL0     H81227   8.590   7.864   8.974  0.8179  0.9783 -1.9854
  602MOL0     H81228   8.660   7.912   9.240 -0.6999 -1.0205 -0.5753
  602MOL0     H81229   8.508   7.930   9.156 -0.5861  1.2907  2.4992
  602MOL0     H81230   8.527   8.034   9.390 -5.4906  0.5265  0.3755
  602MOL0     H81231   8.314   8.138   9.539  1.0391  1.0347 -1.3361
  602MOL0     H81232   8.469   8.093   9.625 -1.9304 -0.1988  2.4595
  602MOL0     H81233   8.405   8.258   9.641  5.1815  0.8503  1.3758
  602MOL0     H81234   8.189   8.483   9.711  1.7270  1.8727  0.4938
  602MOL0     H81235   8.033   8.644   9.813  0.6343  1.4472  0.0984
  602MOL0     H81236   7.980   8.997   9.650  0.0426  1.5572 -2.0656
  602MOL0     H81237   7.880   8.947   9.506 -1.5243  0.4255 -0.0004
  602MOL0     H81238   7.807   9.073   9.750  2.7351 -1.6315  0.6242
  602MOL0     H81239   7.773   9.123   9.575 -0.9103 -2.4253 -0.6531
  602MOL0     H81240   7.566   9.053   9.686  1.0896  0.0876  1.0499
  602MOL0     H81241   7.633   8.902   9.728  0.4981 -0.8311  0.1835
  602MOL0     H81242   7.601   8.996   9.444  3.5887 -2.4812 -1.7692
  602MOL0     H81243   7.683   8.854   9.486 -0.2268 -1.3330  1.2460
  602MOL0     H81244   7.481   8.767   9.406 -3.9289 -4.2104  1.2454
  602MOL0     H81245   7.379   8.884   9.483  0.8985  0.9019 -5.9477
  602MOL0     H81246   7.524   8.642   9.597  1.6408  0.8615 -1.9728
  602MOL0     H81247   7.480   8.771   9.709 -0.3398 -0.6213  0.0720
  602MOL0     H81248   7.263   8.639   9.527 -3.3302  0.8047  0.4651
  602MOL0     H81249   7.239   8.749   9.667  2.7196  1.7969  0.4806
  602MOL0     H81250   7.345   8.558   9.793  1.5883 -0.9332 -1.5454
  602MOL0     H81251   7.345   8.465   9.648  0.1461  2.3135 -4.2705
  602MOL0     H81252   7.921   8.742   9.399 -0.4580 -1.1354 -0.6120
  602MOL0     H81253   8.065   8.608   9.318  0.2059  1.7180 -0.6266
  602MOL0     H81254   8.550   8.515   9.275 -1.5286 -0.0534 -0.7826
  602MOL0     H81255   8.644   8.364   9.124  0.1772 -0.3833  1.2618
  602MOL0     H81256   9.087   7.247   7.823 -0.5858  0.3630  0.5581
  602MOL0     H81257   9.298   7.228   7.665 -1.3223  1.1548  2.0636
  602MOL0     H81258   9.530   7.409   7.259  0.5579  1.4149 -2.5227
  602MOL0     H81259   9.669   7.373   7.075 -1.5881  0.8123  0.8320
  602MOL0     H81260   9.917   7.129   6.992 -0.4315  1.1958  0.3778
  602MOL0     H81261   9.809   7.007   7.066 -0.5062  1.1075  0.5235
  602MOL0     H81262   9.949   6.912   6.894  3.0932  3.2787 -0.9386
  602MOL0     H81263   9.878   7.030   6.773 -0.1888 -0.0262  0.2522
  602MOL0     H81264   9.656   6.941   6.772  1.5913  0.4330 -1.4931
  602MOL0     H81265   9.689   6.830   6.900 -3.9235  2.1493 -0.2204
  602MOL0     H81266   9.682   6.711   6.713  0.8699 -1.7785 -0.7872
  602MOL0     H81267   9.858   6.713   6.746  1.1260  0.2553 -2.3329
  602MOL0     H81268   9.931   6.947   6.438 -1.1024 -0.3213 -1.6819
  602MOL0     H81269   9.568   6.948   7.082  0.3998 -0.8966  4.0451
  602MOL0     H81270   9.393   7.009   7.262 -1.7947  1.5703  0.7399
  603MOL0     O81271   4.166  11.346   1.661 -0.7151  0.1240  0.3308
  603MOL0     C81272   4.224  11.373   1.764  0.6717  0.0025 -0.2571
  603MOL0     O81273   4.192  11.318   1.883  0.4396  0.8043 -1.2725
  603MOL0     C81274   4.099  11.220   1.898 -0.0931 -0.1930  0.5076
  603MOL0     C81275   4.094  11.110   1.804  0.7147 -0.7478  0.0264
  603MOL0     C81276   4.004  11.001   1.821  0.8941 -0.2851  0.3163
  603MOL0     C81277   3.910  10.999   1.927  0.4215  0.7475  0.8510
  603MOL0     O81278   3.824  10.895   1.937 -0.1637  0.1738  0.3329
  603MOL0     C81279   3.712  10.905   2.026 -0.0931  0.6362  0.0884
  603MOL0     C81280   3.612  11.002   1.979  0.4186 -0.2299  0.3410
  603MOL0     C81281   3.487  10.982   2.064 -0.8399  0.2795 -0.2922
  603MOL0     C81282   3.367  11.073   2.039 -0.2149  0.7930  0.2126
  603MOL0     C81283   3.385  11.206   2.116  0.3871 -0.3589 -0.6641
  603MOL0     C81284   3.377  11.189   2.268  0.7266 -0.4204  0.6488
  603MOL0     C81285   3.229  11.154   2.304 -0.2402  0.0952  0.4292
  603MOL0     C81286   3.211  11.141   2.463  1.0347 -0.3125  0.2570
  603MOL0     N81287   3.079  11.099   2.510 -0.7643 -0.7135  0.6109
  603MOL0     C81288   2.974  11.167   2.493  1.1075 -0.4379  0.5904
  603MOL0     C81289   2.878  11.101   2.565  0.4362  0.3445  0.0124
  603MOL0     C81290   2.727  11.148   2.582 -0.5184  0.7810  1.0414
  603MOL0     C81291   2.722  11.268   2.679  0.2093  0.1904  0.8230
  603MOL0     C81292   2.753  11.225   2.824  0.2392  0.1960 -0.7972
  603MOL0     C81293   2.779  11.342   2.913 -0.1688 -0.2832  0.3912
  603MOL0     O81294   2.658  11.417   2.910  0.3537 -0.0242  0.8700
  603MOL0     C81295   2.643  11.554   2.930  0.0864  0.1368 -0.0713
  603MOL0     C81296   2.751  11.645   2.927  0.5936 -1.1215  0.3305
  603MOL0     C81297   2.734  11.787   2.938 -0.3298 -0.5977  0.4881
  603MOL0     C81298   2.848  11.878   2.918 -0.3528  0.0371  0.3324
  603MOL0     C81299   2.597  11.838   2.943  0.2336  0.0225  0.7255
  603MOL0     C81300   2.559  11.987   2.944  1.2908 -0.5206 -0.6214
  603MOL0     O81301   2.425  12.025   2.961  0.5414  0.5500  0.7107
  603MOL0     C81302   2.402  12.159   2.961 -0.7193  0.2156 -0.4876
  603MOL0     C81303   2.295  12.204   2.889  0.2750  0.3922  0.7635
  603MOL0     C81304   2.246  12.339   2.896 -0.1197  0.1036  0.1830
  603MOL0     C81305   2.319  12.434   2.974  0.6029  0.5096 -0.5098
  603MOL0     O81306   2.292  12.569   2.986  0.2468  0.2266 -0.0955
  603MOL0     C81307   2.179  12.612   2.909  0.3599 -0.0732 -0.2087
  603MOL0     C81308   2.143  12.756   2.954  0.4200 -0.7300  1.7913
  603MOL0     C81309   2.084  12.765   3.090  0.4344 -1.3553  0.2531
  603MOL0     C81310   2.038  12.914   3.125 -0.4706  0.0428 -0.5461
  603MOL0     C81311   1.921  12.960   3.041 -0.2369 -0.1651 -0.2198
  603MOL0     C81312   1.886  13.107   3.087  0.0280  0.3660 -0.4594
  603MOL0     C81313   1.776  13.162   2.995 -0.4117  1.0452  0.6141
  603MOL0     C81314   1.701  13.286   3.037 -0.7811 -0.2131  0.6595
  603MOL0    Cl81315   1.814  13.419   3.047  0.0528 -0.2556 -0.1615
  603MOL0     C81316   2.415  12.383   3.062  0.6243 -0.1532  0.7417
  603MOL0     C81317   2.457  12.254   3.049 -0.8733 -0.4942 -0.4802
  603MOL0     O81318   2.641  12.059   2.919 -1.1107 -1.0445  0.6319
  603MOL0     C81319   2.499  11.745   2.946  0.3809 -0.2914 -0.4666
  603MOL0     C81320   2.515  11.609   2.945  0.4399 -0.2041 -0.8326
  603MOL0     N81321   2.939  11.003   2.637 -0.4503 -0.3259  0.0509
  603MOL0     N81322   3.059  10.999   2.598  0.7868  0.2028  0.6996
  603MOL0     C81323   3.926  11.102   2.025  0.1602 -0.5818  0.8037
  603MOL0     C81324   4.008  11.214   2.004  0.1716  0.2981 -0.3838
  603MOL0     C81325   4.344  11.451   1.748  0.9538 -0.4900  0.3102
  603MOL0     C81326   4.357  11.537   1.638  0.7920  0.4578  0.0624
  603MOL0     C81327   4.467  11.617   1.627 -1.1854  0.3126 -0.0312
  603MOL0     C81328   4.573  11.609   1.717 -0.1884 -0.0328 -0.0006
  603MOL0     O81329   4.684  11.693   1.724 -0.3166  0.0751  0.2475
  603MOL0     C81330   4.663  11.818   1.661  0.3116 -0.0699 -0.4414
  603MOL0     C81331   4.762  11.910   1.719 -0.6978 -0.0578  0.1445
  603MOL0     C81332   4.901  11.893   1.654 -0.4642 -0.1351 -0.4911
  603MOL0     C81333   4.998  11.977   1.749 -0.4534  0.5102  1.5066
  603MOL0     C81334   5.118  12.036   1.692 -0.0844  0.2482  0.9305
  603MOL0     C81335   5.224  12.075   1.642 -0.4957 -0.5835 -0.6292
  603MOL0     C81336   4.559  11.519   1.824 -0.2753  0.2806 -0.1742
  603MOL0     C81337   4.446  11.440   1.845  0.3257 -0.1554 -0.9448
  603MOL0     H81338   4.169  11.095   1.727  0.4800  1.1579 -0.6252
  603MOL0     H81339   4.002  10.926   1.743 -0.3870  1.2422 -1.1786
  603MOL0     H81340   3.663  10.807   2.035  0.6311  0.4074  2.0171
  603MOL0     H81341   3.757  10.927   2.123 -0.3025 -2.0395  0.8762
  603MOL0     H81342   3.648  11.105   1.989  0.9644 -0.4277  0.4178
  603MOL0     H81343   3.599  10.997   1.870 -3.5378 -0.5501  0.6537
  603MOL0     H81344   3.457  10.879   2.044 -0.5299  0.2743 -0.7472
  603MOL0     H81345   3.509  10.968   2.171 -0.7396  0.2890 -0.3109
  603MOL0     H81346   3.359  11.100   1.934 -2.0928 -1.5327 -0.3555
  603MOL0     H81347   3.272  11.024   2.067  0.7119 -1.3504 -0.1661
  603MOL0     H81348   3.481  11.249   2.088  0.3897 -0.8602 -1.4696
  603MOL0     H81349   3.314  11.277   2.072  2.4250  1.2758 -1.4672
  603MOL0     H81350   3.454  11.119   2.302  3.3402  1.8020 -0.3021
  603MOL0     H81351   3.385  11.281   2.326 -2.7985  0.6936 -0.3947
  603MOL0     H81352   3.164  11.233   2.267  0.6275  0.2635 -0.7754
  603MOL0     H81353   3.203  11.052   2.272  0.0811  0.1457  0.0050
  603MOL0     H81354   3.221  11.244   2.499  1.9851  0.9340 -3.1638
  603MOL0     H81355   3.289  11.082   2.512  1.4354  1.5022  1.9683
  603MOL0     H81356   2.944  11.247   2.426 -1.7642 -1.0516  1.0313
  603MOL0     H81357   2.684  11.186   2.489 -0.3330  0.7666  0.9491
  603MOL0     H81358   2.659  11.064   2.599 -0.4937 -0.2349 -2.9781
  603MOL0     H81359   2.619  11.304   2.675  0.1986  0.1479  0.7014
  603MOL0     H81360   2.788  11.351   2.650  0.1558  0.6595  1.9809
  603MOL0     H81361   2.841  11.161   2.829 -0.1279 -0.2860 -0.4422
  603MOL0     H81362   2.666  11.170   2.861  3.1257 -1.5356  4.3317
  603MOL0     H81363   2.865  11.392   2.867  0.9780 -1.3019  1.4006
  603MOL0     H81364   2.814  11.316   3.013  0.7359  1.9893  0.7289
  603MOL0     H81365   2.853  11.612   2.917  1.3877  0.9763  0.9111
  603MOL0     H81366   2.883  11.923   3.011 -1.4166  2.0783 -0.2048
  603MOL0     H81367   2.931  11.818   2.880 -1.2012 -1.9718  1.5055
  603MOL0     H81368   2.829  11.958   2.845  0.3102 -0.0531  0.0558
  603MOL0     H81369   2.259  12.124   2.824  2.1669 -0.0983  0.2326
  603MOL0     H81370   2.162  12.365   2.832  1.9725  0.8466 -2.4378
  603MOL0     H81371   2.186  12.605   2.800 -6.1188 -1.6851 -0.9788
  603MOL0     H81372   2.093  12.552   2.942  0.0993 -1.3062 -2.8689
  603MOL0     H81373   2.229  12.824   2.944  1.4116 -1.9108  2.0754
  603MOL0     H81374   2.072  12.799   2.883  3.1167 -1.5455 -1.6634
  603MOL0     H81375   2.158  12.732   3.163  0.3214 -0.1128  0.9639
  603MOL0     H81376   2.000  12.695   3.093  0.2509 -1.1158  0.9078
  603MOL0     H81377   2.033  12.928   3.234  0.6198  0.6141 -0.5537
  603MOL0     H81378   2.108  12.983   3.077 -2.4312  0.8753 -2.3682
  603MOL0     H81379   1.839  12.888   3.043  0.7045 -1.3876 -2.4961
  603MOL0     H81380   1.957  12.963   2.938  2.6278  0.8232  0.7099
  603MOL0     H81381   1.846  13.099   3.189 -1.1307  3.1423 -0.5924
  603MOL0     H81382   1.968  13.178   3.098 -0.7919  1.0168  2.3758
  603MOL0     H81383   1.698  13.085   2.985  0.9580 -0.6223  2.0580
  603MOL0     H81384   1.825  13.175   2.898 -1.4325  1.6709  0.1655
  603MOL0     H81385   1.650  13.268   3.133 -2.3284 -2.0936 -0.4496
  603MOL0     H81386   1.620  13.315   2.969 -0.6697  0.8074  0.9338
  603MOL0     H81387   2.467  12.447   3.133 -1.2361  1.0362  1.0838
  603MOL0     H81388   2.533  12.216   3.117  0.4122 -0.5450 -1.8815
  603MOL0     H81389   2.395  11.774   2.947  0.5801  0.5734  1.6766
  603MOL0     H81390   2.424  11.549   2.939  0.2594  0.0334 -0.4662
  603MOL0     H81391   3.868  11.106   2.117 -1.3680 -1.7475 -0.0582
  603MOL0     H81392   4.014  11.300   2.070  0.0753  0.0236 -0.0138
  603MOL0     H81393   4.276  11.551   1.566  0.7858  4.2091  0.5952
  603MOL0     H81394   4.469  11.688   1.546  0.1272  0.5991  0.2247
  603MOL0     H81395   4.676  11.806   1.553  0.9273  1.1098 -0.5150
  603MOL0     H81396   4.563  11.858   1.682 -0.7750 -2.3241 -1.0184
  603MOL0     H81397   4.764  11.900   1.828 -0.5516  0.7569  0.2214
  603MOL0     H81398   4.725  12.011   1.700 -1.6024  0.2441  3.0356
  603MOL0     H81399   4.901  11.933   1.553 -1.3450 -0.8475 -0.7825
  603MOL0     H81400   4.912  11.785   1.645 -2.0381 -0.3441 -0.2130
  603MOL0     H81401   5.024  11.900   1.822  0.3703 -1.5631 -0.8236
  603MOL0     H81402   4.939  12.062   1.785 -2.2499 -0.8240  1.8234
  603MOL0     H81403   5.320  12.099   1.601 -1.5624  1.6499 -1.9816
  603MOL0     H81404   4.635  11.514   1.901 -1.8683 -2.6839  1.3456
  603MOL0     H81405   4.424  11.379   1.932 -3.4146  1.4052 -0.6351
  604MOL0     O81406   2.182   1.432   1.186 -0.4512  0.5645 -0.0843
  604MOL0     C81407   2.169   1.370   1.294  0.3613  0.9306 -0.8467
  604MOL0     O81408   2.051   1.353   1.374 -0.3575 -0.8022  1.0149
  604MOL0     C81409   1.935   1.407   1.319 -0.7709  0.4549 -0.2142
  604MOL0     C81410   1.882   1.376   1.195  0.3556 -0.1744  0.0257
  604MOL0     C81411   1.753   1.421   1.159 -0.4361 -0.6533  0.0175
  604MOL0     C81412   1.680   1.499   1.251  0.4880 -0.0706  0.6156
  604MOL0     O81413   1.559   1.530   1.210  0.7329 -0.5967 -0.2518
  604MOL0     C81414   1.485   1.637   1.252 -0.3961  0.2639 -0.7010
  604MOL0     C81415   1.391   1.663   1.138 -0.1112 -0.0432  0.0429
  604MOL0     C81416   1.283   1.766   1.161  0.8346 -0.4372 -0.7774
  604MOL0     C81417   1.196   1.776   1.034  0.2063  0.3542  0.2350
  604MOL0     C81418   1.111   1.897   1.058 -0.5792  0.2255 -0.5246
  604MOL0     C81419   1.011   1.908   0.939 -0.0323 -0.3090  0.2174
  604MOL0     C81420   0.951   2.053   0.932 -1.2006  0.3198 -0.1529
  604MOL0     C81421   0.808   2.056   0.884 -0.4255 -0.5571  0.2303
  604MOL0     N81422   0.791   1.997   0.748 -0.1530 -0.3514 -0.0369
  604MOL0     C81423   0.674   2.005   0.685 -0.3075 -0.1031  0.9421
  604MOL0     C81424   0.700   1.949   0.568 -1.3869  1.1949 -1.3136
  604MOL0     C81425   0.602   1.937   0.456  0.3207  0.4689 -0.0406
  604MOL0     C81426   0.599   1.793   0.411  0.8265  0.3246 -0.4714
  604MOL0     C81427   0.511   1.763   0.286  0.3999  0.6023  0.0955
  604MOL0     C81428   0.549   1.648   0.203 -0.2024 -0.1637 -1.0867
  604MOL0     O81429   0.587   1.526   0.267  0.7567  0.2754 -0.3931
  604MOL0     C81430   0.498   1.450   0.351  0.0548  0.3301  0.2720
  604MOL0     C81431   0.549   1.338   0.423  0.2543  0.5402 -0.0226
  604MOL0     C81432   0.476   1.263   0.514  0.5466  0.9516 -0.2304
  604MOL0     C81433   0.529   1.143   0.576 -1.2481  0.4919  0.5912
  604MOL0     C81434   0.342   1.305   0.540  0.5340  0.4320  1.0073
  604MOL0     C81435   0.263   1.254   0.651 -0.0755 -0.3684  0.3507
  604MOL0     O81436   0.315   1.165   0.742 -0.4126 -0.2045 -0.1552
  604MOL0     C81437   0.254   1.159   0.867  0.5751 -0.4234  0.8756
  604MOL0     C81438   0.304   1.222   0.986  0.0844 -0.5623  1.3206
  604MOL0     C81439   0.228   1.221   1.106  0.0946  0.1046 -0.1599
  604MOL0     C81440   0.124   1.133   1.122  0.7715 -0.0696 -0.4662
  604MOL0     O81441   0.083   1.120   1.258 -0.2073  1.2548  0.5224
  604MOL0     C81442  -0.013   1.022   1.301  0.2497 -0.1536 -0.8744
  604MOL0     C81443  -0.050   1.047   1.449  0.9668 -0.0978 -0.3068
  604MOL0     C81444  -0.091   1.185   1.485 -0.7485 -0.5064  1.2199
  604MOL0     C81445  -0.193   1.257   1.384 -0.1775 -0.7609 -0.0801
  604MOL0     C81446  -0.325   1.186   1.380  0.0471 -0.6146  1.2100
  604MOL0     C81447  -0.412   1.222   1.495  0.1901  0.7544  0.3530
  604MOL0     C81448  -0.520   1.114   1.500  0.7745  0.1872  1.3089
  604MOL0     C81449  -0.597   1.116   1.632 -0.3947 -0.3733 -0.8203
  604MOL0    Cl81450  -0.653   1.268   1.691 -0.7469 -0.0471 -0.5801
  604MOL0     C81451   0.079   1.062   1.013 -0.9909  0.1848  1.2947
  604MOL0     C81452   0.137   1.083   0.889 -0.0947  0.3639 -0.3268
  604MOL0     O81453   0.149   1.295   0.653  0.7645  0.4348 -0.6918
  604MOL0     C81454   0.292   1.416   0.465 -0.3449 -0.7199  0.5769
  604MOL0     C81455   0.367   1.481   0.371 -0.1674  0.6626 -0.4358
  604MOL0     N81456   0.835   1.923   0.554  0.2624 -0.4011  0.8534
  604MOL0     N81457   0.890   1.959   0.666 -0.8814 -0.1857 -0.4978
  604MOL0     C81458   1.736   1.543   1.373 -0.2394  0.5974 -0.9698
  604MOL0     C81459   1.867   1.485   1.407  0.0767  0.8252 -0.4344
  604MOL0     C81460   2.296   1.306   1.356 -0.2640  0.2174  1.1673
  604MOL0     C81461   2.419   1.375   1.343 -0.4866 -0.5226 -0.2085
  604MOL0     C81462   2.530   1.320   1.405 -0.6641 -0.6001 -0.3232
  604MOL0     C81463   2.518   1.210   1.494 -0.8229 -0.2921 -0.0965
  604MOL0     O81464   2.638   1.170   1.552 -0.2742  0.0651  0.4431
  604MOL0     C81465   2.654   1.063   1.649 -0.1109  0.2540  0.0224
  604MOL0     C81466   2.624   1.125   1.788 -0.1049 -0.1381  0.7858
  604MOL0     C81467   2.632   1.010   1.891  0.4953 -0.8486  0.1024
  604MOL0     C81468   2.694   1.053   2.024  0.8163  1.4714  0.2241
  604MOL0     C81469   2.835   1.017   2.010  0.2711 -0.6677  0.1887
  604MOL0     C81470   2.951   0.990   1.995  0.0505 -0.2114 -0.2978
  604MOL0     C81471   2.401   1.135   1.498  0.6523 -0.5046 -0.9299
  604MOL0     C81472   2.291   1.186   1.428  0.1073  0.8322  0.1374
  604MOL0     H81473   1.951   1.317   1.135  3.8019  3.2988  0.1653
  604MOL0     H81474   1.708   1.382   1.068  0.0990 -1.3527  0.0466
  604MOL0     H81475   1.432   1.617   1.346  5.8024  1.6906  3.7304
  604MOL0     H81476   1.558   1.718   1.266  0.4648 -0.2645 -1.9545
  604MOL0     H81477   1.454   1.707   1.060 -0.6701  2.9066  1.1333
  604MOL0     H81478   1.343   1.567   1.117  0.5042 -0.1541 -0.9218
  604MOL0     H81479   1.218   1.736   1.243 -0.2043  0.3106 -1.3102
  604MOL0     H81480   1.347   1.854   1.175  2.2775 -0.8349 -4.0272
  604MOL0     H81481   1.261   1.796   0.948 -0.1426 -0.4051 -0.2072
  604MOL0     H81482   1.134   1.688   1.015  0.3830  0.1153  0.7496
  604MOL0     H81483   1.055   1.899   1.152 -2.0361 -1.7715 -1.2865
  604MOL0     H81484   1.178   1.984   1.062 -1.9265  1.3945  4.4055
  604MOL0     H81485   1.062   1.883   0.846 -2.0690 -0.0561 -1.0422
  604MOL0     H81486   0.936   1.828   0.944 -0.0253 -0.6148 -2.8702
  604MOL0     H81487   0.962   2.089   1.034 -1.5709  0.4437 -0.1552
  604MOL0     H81488   1.018   2.123   0.879  2.4651  0.6334  4.2743
  604MOL0     H81489   0.779   2.161   0.893 -0.3608 -0.6376  1.8022
  604MOL0     H81490   0.742   2.007   0.956 -0.3013  0.4201  1.0305
  604MOL0     H81491   0.583   2.052   0.719  0.3448  2.4025 -0.4983
  604MOL0     H81492   0.505   1.950   0.505 -0.3315  1.6052 -1.5657
  604MOL0     H81493   0.634   2.010   0.381  2.4344 -0.1507  0.1857
  604MOL0     H81494   0.545   1.734   0.486 -1.3929  0.9716 -1.4692
  604MOL0     H81495   0.701   1.756   0.402  1.8550  3.0475 -1.1882
  604MOL0     H81496   0.539   1.846   0.221  2.9088 -2.2385 -2.7812
  604MOL0     H81497   0.406   1.779   0.313  1.2004  2.1509  2.6805
  604MOL0     H81498   0.640   1.666   0.145  0.4934 -0.7852 -0.2244
  604MOL0     H81499   0.472   1.615   0.133  0.5930  0.5114 -2.3152
  604MOL0     H81500   0.652   1.307   0.407  0.5382  0.8930  0.9988
  604MOL0     H81501   0.550   1.175   0.678 -0.1860  2.1182 -0.1015
  604MOL0     H81502   0.454   1.064   0.569 -1.0216  0.1449  1.9155
  604MOL0     H81503   0.622   1.105   0.532 -1.7502  1.6405 -1.6488
  604MOL0     H81504   0.398   1.276   0.981  0.7426 -1.7986 -0.4760
  604MOL0     H81505   0.277   1.275   1.186  1.0387  2.2936 -2.0998
  604MOL0     H81506  -0.104   1.027   1.240 -0.9798  0.7353  0.9633
  604MOL0     H81507   0.022   0.919   1.289  2.2174  0.1247  1.6953
  604MOL0     H81508  -0.133   0.983   1.480  0.2480  0.2467 -1.5056
  604MOL0     H81509   0.031   1.023   1.519 -0.1482  1.5048  1.6385
  604MOL0     H81510   0.006   1.235   1.486  0.3159 -2.3244 -0.8537
  604MOL0     H81511  -0.121   1.197   1.589 -0.9350 -0.5340  1.1702
  604MOL0     H81512  -0.205   1.363   1.406  3.9576 -0.4475  1.5759
  604MOL0     H81513  -0.142   1.244   1.288  2.2612 -2.2362  1.2874
  604MOL0     H81514  -0.306   1.078   1.380  0.6022 -0.5976  4.2457
  604MOL0     H81515  -0.368   1.218   1.284  2.4133 -3.2587 -0.8914
  604MOL0     H81516  -0.353   1.226   1.587  2.2927  3.5760 -0.9534
  604MOL0     H81517  -0.445   1.324   1.477  2.6025  1.1491 -2.5716
  604MOL0     H81518  -0.478   1.015   1.484  2.7741  1.1361  0.3933
  604MOL0     H81519  -0.605   1.130   1.432  0.2546 -0.4442  1.7914
  604MOL0     H81520  -0.532   1.084   1.714 -0.9899  1.1309  0.2905
  604MOL0     H81521  -0.691   1.061   1.629 -1.8437  1.6983  1.9588
  604MOL0     H81522   0.004   0.984   1.007  0.3118 -1.0116 -0.7168
  604MOL0     H81523   0.096   1.028   0.804  1.9112 -2.2683  0.3020
  604MOL0     H81524   0.196   1.466   0.468  0.5648  1.0848  0.8266
  604MOL0     H81525   0.313   1.558   0.317 -1.6487 -0.1019 -0.1118
  604MOL0     H81526   1.678   1.604   1.441 -1.2743  1.3557 -2.4847
  604MOL0     H81527   1.914   1.503   1.504  0.0359  0.4786 -0.3486
  604MOL0     H81528   2.422   1.473   1.296 -0.2441 -0.1778  0.5046
  604MOL0     H81529   2.625   1.372   1.397  0.6808 -2.5259  1.9999
  604MOL0     H81530   2.572   0.992   1.632  1.5197 -1.3814 -1.4447
  604MOL0     H81531   2.753   1.018   1.637  0.8785  1.9014  1.5403
  604MOL0     H81532   2.520   1.153   1.808 -0.0519  1.2528 -0.6815
  604MOL0     H81533   2.697   1.205   1.803  4.8788 -2.4327 -6.1029
  604MOL0     H81534   2.670   0.920   1.843 -0.3622 -1.5616  0.7298
  604MOL0     H81535   2.530   0.980   1.918 -0.2182  1.5502  0.3298
  604MOL0     H81536   2.659   0.994   2.109  0.9800  0.0655 -0.6415
  604MOL0     H81537   2.676   1.159   2.042 -2.0882  0.6453  3.1526
  604MOL0     H81538   3.058   0.976   1.994  0.5017  2.5802 -0.4958
  604MOL0     H81539   2.386   1.043   1.554  0.4160 -0.0029 -0.1525
  604MOL0     H81540   2.199   1.128   1.423 -0.9147  2.5558 -2.8951
  605MOL0     O81541   6.143  10.106  10.270 -0.3025  0.1116 -0.4353
  605MOL0     C81542   6.243  10.170  10.294 -0.0570  0.0516  0.8736
  605MOL0     O81543   6.248  10.284  10.361 -0.2910  0.2427  0.1268
  605MOL0     C81544   6.146  10.347  10.427 -0.2129  0.3034  0.2913
  605MOL0     C81545   6.026  10.293  10.461  0.8490  0.3201 -1.3539
  605MOL0     C81546   5.944  10.362  10.555 -0.2569 -0.8519 -0.1606
  605MOL0     C81547   5.972  10.491  10.604  0.9504 -0.1110 -0.2313
  605MOL0     O81548   5.885  10.569  10.674  0.7967 -0.7615  0.1708
  605MOL0     C81549   5.741  10.550  10.679 -0.2881  0.4441 -0.3294
  605MOL0     C81550   5.667  10.577  10.543 -0.7585 -0.2278 -0.2482
  605MOL0     C81551   5.691  10.723  10.503 -0.6714  0.3835  0.2584
  605MOL0     C81552   5.580  10.786  10.413 -0.3795 -0.5566 -0.1851
  605MOL0     C81553   5.632  10.776  10.256 -0.4872 -0.4750 -0.4239
  605MOL0     C81554   5.548  10.872  10.162 -0.6656 -0.2837 -0.5618
  605MOL0     C81555   5.559  10.826  10.014  0.2483  0.4456  0.3314
  605MOL0     C81556   5.679  10.915   9.955 -1.7246  1.1552  0.3806
  605MOL0     N81557   5.722  10.869   9.822 -0.5029 -0.9118 -0.2669
  605MOL0     C81558   5.678  10.901   9.694  0.8559  1.2101  0.2003
  605MOL0     C81559   5.743  10.812   9.610  0.1125 -0.3231  0.9447
  605MOL0     C81560   5.742  10.826   9.461  0.0854  0.1615  1.3196
  605MOL0     C81561   5.879  10.809   9.394 -0.0061  0.1590 -0.4471
  605MOL0     C81562   5.877  10.860   9.251  0.0060 -0.1421  0.3581
  605MOL0     C81563   6.034  10.888   9.223 -0.6625 -0.6980 -0.1632
  605MOL0     O81564   6.058  11.030   9.242 -0.1246  0.1257 -0.0201
  605MOL0     C81565   6.171  11.093   9.184  0.1777 -0.2359 -0.6465
  605MOL0     C81566   6.269  11.040   9.102  0.4125 -0.8188  0.7985
  605MOL0     C81567   6.377  11.123   9.059 -0.2789 -0.4172  0.2491
  605MOL0     C81568   6.476  11.055   8.955 -0.0745 -0.5489 -0.8687
  605MOL0     C81569   6.386  11.262   9.098  0.7493  0.3013 -0.1713
  605MOL0     C81570   6.499  11.347   9.071 -0.8069  0.0338 -0.2815
  605MOL0     O81571   6.498  11.465   9.131  0.2641  0.1455 -0.6714
  605MOL0     C81572   6.614  11.534   9.154  1.3086  0.5548 -0.4107
  605MOL0     C81573   6.618  11.607   9.276 -0.4274  0.1109  0.5815
  605MOL0     C81574   6.730  11.679   9.298 -0.5694 -0.3156  0.6651
  605MOL0     C81575   6.847  11.685   9.216 -0.3992  0.1092  0.3122
  605MOL0     O81576   6.949  11.772   9.249  0.8431  0.0837  0.5359
  605MOL0     C81577   7.068  11.763   9.169  0.3035 -0.2481 -0.7589
  605MOL0     C81578   7.179  11.834   9.246  0.4388  0.1854  1.3326
  605MOL0     C81579   7.247  11.744   9.354 -0.1974 -0.4356  0.3357
  605MOL0     C81580   7.350  11.639   9.299  0.2102 -0.2929  0.2114
  605MOL0     C81581   7.414  11.565   9.409 -0.0185  0.0475 -0.2824
  605MOL0     C81582   7.508  11.452   9.371 -0.1428 -0.5029 -0.1466
  605MOL0     C81583   7.604  11.419   9.478 -0.1314 -0.4982  0.6538
  605MOL0     C81584   7.725  11.517   9.481 -0.2745 -1.0652  0.9612
  605MOL0    Cl81585   7.837  11.465   9.360 -0.2023 -0.2724  0.4315
  605MOL0     C81586   6.841  11.612   9.098 -0.2768  0.3879 -0.4966
  605MOL0     C81587   6.729  11.539   9.072  0.0262 -0.6767  0.5541
  605MOL0     O81588   6.599  11.297   9.019 -0.4232  0.5865  0.0090
  605MOL0     C81589   6.286  11.309   9.185 -0.1373 -0.0627 -0.2353
  605MOL0     C81590   6.179  11.227   9.228  0.5037 -0.2308  0.4718
  605MOL0     N81591   5.824  10.730   9.681  0.1673 -0.4248 -0.4646
  605MOL0     N81592   5.809  10.760   9.805  0.4127  0.1311  0.9107
  605MOL0     C81593   6.099  10.531  10.564 -0.5178  0.4722 -0.2295
  605MOL0     C81594   6.187  10.466  10.485  0.2448 -0.4755  0.1185
  605MOL0     C81595   6.378  10.124  10.249  0.1348  1.0378 -0.0785
  605MOL0     C81596   6.497  10.181  10.299  0.2280 -0.2198  0.4973
  605MOL0     C81597   6.622  10.135  10.262  0.0969 -0.3801 -0.2800
  605MOL0     C81598   6.638  10.036  10.161  0.0854 -0.3136  0.1810
  605MOL0     O81599   6.760  10.008  10.107  0.7499  0.8162  0.1049
  605MOL0     C81600   6.797  10.122  10.018 -0.6899  0.9979  0.5943
  605MOL0     C81601   6.932  10.177  10.070  0.4248  0.0212  0.0563
  605MOL0     C81602   6.982  10.310  10.009 -0.6407  0.0727  0.3533
  605MOL0     C81603   6.944  10.429  10.095 -0.0118 -0.1068 -0.8460
  605MOL0     C81604   6.797  10.461  10.082 -0.5810  0.1847 -0.3962
  605MOL0     C81605   6.692  10.523  10.072 -0.3338  0.0918 -0.7902
  605MOL0     C81606   6.528   9.961  10.120 -0.5717 -0.7030  0.1827
  605MOL0     C81607   6.396  10.002  10.170 -0.7086 -0.2932 -0.2849
  605MOL0     H81608   5.988  10.195  10.434 -0.8047  1.3883 -3.1980
  605MOL0     H81609   5.842  10.328  10.562 -1.4071  0.8664 -4.8162
  605MOL0     H81610   5.726  10.445  10.705  0.1698  0.3882 -0.2948
  605MOL0     H81611   5.695  10.598  10.766 -1.3258 -0.8588 -0.1258
  605MOL0     H81612   5.706  10.503  10.472 -1.0374 -3.8335  3.0337
  605MOL0     H81613   5.561  10.554  10.558 -0.6374 -3.7731 -3.4184
  605MOL0     H81614   5.701  10.774  10.599  1.0641  0.0105  0.3110
  605MOL0     H81615   5.792  10.738  10.464 -0.4540 -2.7219 -0.6482
  605MOL0     H81616   5.480  10.742  10.424  0.5115 -2.9534 -0.8977
  605MOL0     H81617   5.569  10.885  10.457 -0.1285  0.2742 -1.9166
  605MOL0     H81618   5.737  10.803  10.245 -0.7854  0.7727 -0.3620
  605MOL0     H81619   5.632  10.674  10.216  2.7737 -2.0844  3.0521
  605MOL0     H81620   5.440  10.861  10.180 -0.6742 -2.5141 -1.5591
  605MOL0     H81621   5.563  10.979  10.176 -2.8842  0.0459 -0.2166
  605MOL0     H81622   5.591  10.721  10.018 -1.2247 -0.0186  0.6373
  605MOL0     H81623   5.468  10.846   9.957 -0.2525 -1.1250  0.5263
  605MOL0     H81624   5.762  10.920  10.027 -3.8502  0.4822  3.0580
  605MOL0     H81625   5.647  11.020   9.949  0.5727  2.2525  4.1182
  605MOL0     H81626   5.612  10.982   9.664  0.8344  1.0792 -0.1170
  605MOL0     H81627   5.663  10.769   9.412 -1.7750  4.1919 -0.8971
  605MOL0     H81628   5.720  10.931   9.437  0.6312  0.3489  1.6167
  605MOL0     H81629   5.909  10.704   9.390 -1.3168 -0.5916  3.7915
  605MOL0     H81630   5.953  10.858   9.458  0.8980 -0.2563 -1.1471
  605MOL0     H81631   5.820  10.951   9.233 -1.6927 -1.4776 -1.4854
  605MOL0     H81632   5.842  10.784   9.180  0.0893  2.8248 -3.1338
  605MOL0     H81633   6.074  10.867   9.123  1.3369 -0.0426  0.4500
  605MOL0     H81634   6.092  10.830   9.296  0.5048 -0.0599 -0.5592
  605MOL0     H81635   6.260  10.951   9.041 -0.6853 -0.6362  0.6574
  605MOL0     H81636   6.575  11.052   9.003  0.7974  1.5546 -2.3870
  605MOL0     H81637   6.453  10.953   8.922  0.6704 -0.9437 -0.2047
  605MOL0     H81638   6.489  11.119   8.868  1.5273  0.5849  0.1486
  605MOL0     H81639   6.531  11.618   9.340 -1.9065  1.2270 -1.4737
  605MOL0     H81640   6.722  11.757   9.374 -2.4074  0.5592 -0.3470
  605MOL0     H81641   7.102  11.660   9.153 -0.7740 -0.6393 -0.6691
  605MOL0     H81642   7.064  11.815   9.073 -1.2096  2.4586  0.6498
  605MOL0     H81643   7.255  11.877   9.179 -0.6427  0.0909 -0.0090
  605MOL0     H81644   7.143  11.928   9.288 -0.2798  2.0162 -2.8515
  605MOL0     H81645   7.171  11.692   9.412  1.1516 -5.5547 -1.9062
  605MOL0     H81646   7.305  11.805   9.424  0.9826 -1.1313 -0.0089
  605MOL0     H81647   7.298  11.570   9.232 -0.6394  1.6100 -1.2068
  605MOL0     H81648   7.423  11.680   9.229  1.8450 -2.2656  0.6766
  605MOL0     H81649   7.333  11.517   9.465  0.3103 -2.3320 -1.7271
  605MOL0     H81650   7.464  11.624   9.486 -0.5088 -2.2395  1.9201
  605MOL0     H81651   7.459  11.356   9.351 -0.3541  0.0087 -2.3974
  605MOL0     H81652   7.553  11.487   9.277 -2.4581  1.6614 -0.5686
  605MOL0     H81653   7.647  11.322   9.453  2.7690  0.9542 -0.4190
  605MOL0     H81654   7.546  11.411   9.571 -0.3360 -2.6744  0.3724
  605MOL0     H81655   7.786  11.514   9.572  1.7420  0.3539 -0.2618
  605MOL0     H81656   7.701  11.623   9.475  1.0435 -0.8259 -1.3198
  605MOL0     H81657   6.916  11.602   9.020  0.1019 -3.8960  0.1604
  605MOL0     H81658   6.731  11.491   8.974  0.7255  0.8185 -0.1968
  605MOL0     H81659   6.296  11.403   9.239  0.6724  1.4191 -2.7928
  605MOL0     H81660   6.093  11.277   9.272  1.0844  4.2829 -2.7933
  605MOL0     H81661   6.125  10.633  10.589 -1.8463  0.4810  1.2458
  605MOL0     H81662   6.278  10.512  10.448 -1.7962  2.1919 -1.9368
  605MOL0     H81663   6.482  10.275  10.351 -3.3975 -0.4522  0.1239
  605MOL0     H81664   6.706  10.197  10.290 -1.3527  1.4231  0.3046
  605MOL0     H81665   6.819  10.087   9.918 -0.9783  0.7769  0.6068
  605MOL0     H81666   6.728  10.207  10.013 -3.0816 -0.9001 -1.1177
  605MOL0     H81667   7.011  10.109  10.038  0.3483  0.3119 -0.7838
  605MOL0     H81668   6.926  10.184  10.179  0.4530  2.6909 -0.0376
  605MOL0     H81669   6.939  10.319   9.909 -1.3056  1.5214  0.7500
  605MOL0     H81670   7.087  10.315   9.979 -1.5666 -0.6578 -3.6595
  605MOL0     H81671   7.003  10.519  10.075 -0.0567  0.7967  2.5309
  605MOL0     H81672   6.951  10.407  10.202  0.2667  0.3072 -0.7774
  605MOL0     H81673   6.597  10.571  10.056 -1.2157 -1.6001 -0.8947
  605MOL0     H81674   6.544   9.886  10.044 -0.0564  0.7714 -1.2213
  605MOL0     H81675   6.308   9.946  10.141 -1.6477  1.3004 -0.6553
  606MOL0     O81676   9.845   9.306   6.641 -0.0327 -0.5228  0.2962
  606MOL0     C81677   9.859   9.225   6.550  0.2302  0.9390  0.7120
  606MOL0     O81678   9.772   9.203   6.442  0.8108 -0.3482  0.2006
  606MOL0     C81679   9.652   9.273   6.415  0.0625  1.1491 -0.8308
  606MOL0     C81680   9.604   9.277   6.283  0.2690 -0.7635  0.4046
  606MOL0     C81681   9.475   9.331   6.263 -0.7776  0.2001 -0.6839
  606MOL0     C81682   9.389   9.387   6.376  0.1846  0.6174  1.1288
  606MOL0     O81683   9.266   9.444   6.365  0.1550  0.6561  0.1428
  606MOL0     C81684   9.212   9.470   6.229 -0.3386  0.4978  0.8229
  606MOL0     C81685   9.160   9.608   6.212 -0.3465  0.1771 -0.4712
  606MOL0     C81686   9.089   9.628   6.075  0.2267  0.9893 -1.0063
  606MOL0     C81687   9.045   9.772   6.057  0.2583 -0.0628  0.4277
  606MOL0     C81688   9.014   9.801   5.912  0.4724  0.5632 -0.7154
  606MOL0     C81689   8.988   9.949   5.891  0.0666  0.3170  0.2558
  606MOL0     C81690   8.925   9.971   5.758 -0.0024  0.4674 -0.1717
  606MOL0     C81691   8.907  10.115   5.738  0.6892 -1.1744  0.6877
  606MOL0     N81692   8.842  10.148   5.611 -0.1614  0.0565  0.7722
  606MOL0     C81693   8.708  10.178   5.598  0.3313  0.5034 -0.8223
  606MOL0     C81694   8.679  10.166   5.470  1.1888 -0.1767  0.1155
  606MOL0     C81695   8.542  10.175   5.408 -0.4873 -0.4602  0.6268
  606MOL0     C81696   8.532  10.252   5.279 -0.2237  0.0973 -0.0921
  606MOL0     C81697   8.570  10.392   5.295  0.4937  0.2190  0.7619
  606MOL0     C81698   8.605  10.466   5.166  0.6185  0.8211  0.1166
  606MOL0     O81699   8.493  10.450   5.069  0.1292 -0.5287 -0.7763
  606MOL0     C81700   8.386  10.543   5.071  0.9967  1.1322 -0.9288
  606MOL0     C81701   8.382  10.661   5.142 -0.0296  0.7905 -1.1571
  606MOL0     C81702   8.277  10.752   5.125 -0.2503 -0.2083  0.0573
  606MOL0     C81703   8.288  10.880   5.214  0.4371  0.9893  0.1842
  606MOL0     C81704   8.174  10.714   5.034 -0.0814  0.3758 -0.1287
  606MOL0     C81705   8.066  10.804   5.003 -0.4596 -0.1025 -0.7102
  606MOL0     O81706   7.944  10.754   4.989 -0.5164 -0.2617 -0.2769
  606MOL0     C81707   7.843  10.840   4.946  0.0607 -0.8114  0.5472
  606MOL0     C81708   7.721  10.833   5.016 -0.4777 -0.4226 -0.2961
  606MOL0     C81709   7.619  10.918   4.967 -0.1444 -0.5382 -0.6563
  606MOL0     C81710   7.629  10.993   4.846  0.5140  0.3219 -0.2757
  606MOL0     O81711   7.540  11.083   4.801  0.4369 -0.3018  0.0704
  606MOL0     C81712   7.404  11.044   4.768 -0.1768 -0.4746  0.2891
  606MOL0     C81713   7.338  11.125   4.654 -0.2432 -1.0371 -0.4053
  606MOL0     C81714   7.335  11.278   4.677  0.1533  0.1384 -0.3445
  606MOL0     C81715   7.205  11.324   4.740  0.4510 -0.5435 -0.5036
  606MOL0     C81716   7.167  11.468   4.693 -0.1716 -0.4311  0.7558
  606MOL0     C81717   7.246  11.580   4.741 -0.5781  0.6738 -0.1448
  606MOL0     C81718   7.156  11.705   4.733 -0.9073  0.5255 -0.4382
  606MOL0     C81719   7.239  11.822   4.739 -0.4954  0.4940 -0.4408
  606MOL0    Cl81720   7.125  11.951   4.770  0.2694  0.0072 -0.1159
  606MOL0     C81721   7.745  10.978   4.778 -0.9318 -0.5521  0.0033
  606MOL0     C81722   7.857  10.908   4.832  0.2624 -0.2741 -0.2150
  606MOL0     O81723   8.103  10.924   4.989 -0.7010 -0.5226 -0.4083
  606MOL0     C81724   8.185  10.593   4.970  0.1434  0.9939  0.3401
  606MOL0     C81725   8.285  10.508   4.983 -0.0925  0.4031  0.0533
  606MOL0     N81726   8.795  10.116   5.408 -0.5378 -0.9817  0.2590
  606MOL0     N81727   8.897  10.135   5.482  0.9770 -0.1086 -0.2163
  606MOL0     C81728   9.445   9.370   6.504  0.3462  0.1384  0.3981
  606MOL0     C81729   9.564   9.301   6.520  0.0811 -0.4168  0.2834
  606MOL0     C81730  10.003   9.160   6.532  0.7614  0.2710  0.5030
  606MOL0     C81731  10.043   9.096   6.411 -0.0649 -0.3676  0.2261
  606MOL0     C81732  10.174   9.050   6.406 -1.0993  0.0882  0.6389
  606MOL0     C81733  10.271   9.061   6.505  0.7336 -0.0325  0.3055
  606MOL0     O81734  10.389   9.006   6.482  0.0987  1.0703  0.6951
  606MOL0     C81735  10.458   8.935   6.581 -0.1614 -0.1690  0.1720
  606MOL0     C81736  10.540   8.840   6.509  1.0895 -1.2153  0.6562
  606MOL0     C81737  10.612   8.750   6.601  0.1937  0.0301 -0.2785
  606MOL0     C81738  10.736   8.797   6.672 -0.3224 -0.2102 -0.7649
  606MOL0     C81739  10.852   8.782   6.586  0.4442  1.5732  0.0537
  606MOL0     C81740  10.946   8.784   6.500  0.1219 -1.2524 -0.4455
  606MOL0     C81741  10.228   9.124   6.622  0.7595  0.0567 -0.6928
  606MOL0     C81742  10.102   9.170   6.638 -0.2017 -0.0719 -0.7439
  606MOL0     H81743   9.668   9.247   6.201 -0.9627  0.0050 -0.8947
  606MOL0     H81744   9.443   9.331   6.159 -0.1012  1.5821 -0.9190
  606MOL0     H81745   9.282   9.451   6.148 -1.2688 -0.5439  0.2352
  606MOL0     H81746   9.127   9.402   6.219  0.4797 -0.7535  2.0591
  606MOL0     H81747   9.088   9.623   6.293  0.2790  0.0800  0.1001
  606MOL0     H81748   9.236   9.685   6.228  1.1065 -1.2102 -0.5505
  606MOL0     H81749   9.167   9.602   6.003 -0.1923 -0.4239 -0.9849
  606MOL0     H81750   9.005   9.558   6.079  1.8390 -0.9856  0.9234
  606MOL0     H81751   8.951   9.795   6.108 -1.3294 -0.7410 -2.0035
  606MOL0     H81752   9.133   9.832   6.081  0.7075 -1.4893  2.5620
  606MOL0     H81753   9.093   9.775   5.842  2.2013  1.0211  0.9980
  606MOL0     H81754   8.923   9.744   5.888  0.5065 -0.7529  1.8588
  606MOL0     H81755   8.926   9.995   5.969  1.1426  1.7618  0.3109
  606MOL0     H81756   9.086   9.997   5.891  0.4747 -0.4978  0.4512
  606MOL0     H81757   9.002   9.948   5.684 -0.1110 -0.2492 -0.0702
  606MOL0     H81758   8.835   9.912   5.744  0.0209  0.4036 -0.0580
  606MOL0     H81759   9.003  10.168   5.733 -0.7477  1.9052  3.0257
  606MOL0     H81760   8.843  10.163   5.812  0.4788  2.9248 -1.8640
  606MOL0     H81761   8.636  10.198   5.677 -0.5357  1.4740 -1.8121
  606MOL0     H81762   8.512  10.073   5.383 -1.7696 -0.1393  0.7704
  606MOL0     H81763   8.481  10.210   5.492 -0.9307  1.4718 -0.4296
  606MOL0     H81764   8.436  10.248   5.227 -1.3837  2.6481  1.6460
  606MOL0     H81765   8.597  10.195   5.212 -0.6368 -0.1191 -0.3172
  606MOL0     H81766   8.658  10.405   5.359 -0.7136  0.6424  2.3995
  606MOL0     H81767   8.487  10.435   5.352 -1.4821 -1.9179 -0.3402
  606MOL0     H81768   8.685  10.402   5.128  2.7435  2.4667  1.5933
  606MOL0     H81769   8.643  10.568   5.174  1.0074  0.6767  0.1070
  606MOL0     H81770   8.467  10.680   5.206 -0.3427  3.3673 -1.3637
  606MOL0     H81771   8.279  10.863   5.322 -0.9411 -2.1376 -0.2875
  606MOL0     H81772   8.380  10.930   5.183 -0.0758  1.2542 -0.9524
  606MOL0     H81773   8.200  10.943   5.198 -0.6919 -0.7484 -0.8413
  606MOL0     H81774   7.695  10.771   5.101 -1.2415 -0.1449 -0.3214
  606MOL0     H81775   7.527  10.920   5.025 -1.1136 -2.8840 -1.9668
  606MOL0     H81776   7.410  10.940   4.733 -1.5648 -0.1259 -1.0800
  606MOL0     H81777   7.338  11.065   4.853  3.2962  0.9526  2.9052
  606MOL0     H81778   7.400  11.097   4.567 -0.6132 -1.9070 -0.4022
  606MOL0     H81779   7.241  11.076   4.639  0.0282 -1.6313 -0.2741
  606MOL0     H81780   7.351  11.311   4.574  0.7877  3.7311  0.7667
  606MOL0     H81781   7.422  11.300   4.739 -0.4335  2.5710 -0.2775
  606MOL0     H81782   7.114  11.279   4.701  0.1909  0.9785 -1.7551
  606MOL0     H81783   7.219  11.321   4.848  0.0745 -2.9844 -0.4653
  606MOL0     H81784   7.064  11.478   4.728 -1.2061 -2.0720 -1.5534
  606MOL0     H81785   7.165  11.468   4.583 -1.6162 -1.1143  0.7620
  606MOL0     H81786   7.257  11.564   4.848  0.4286 -0.2975 -0.3676
  606MOL0     H81787   7.339  11.597   4.685  0.0514 -2.2534 -0.1613
  606MOL0     H81788   7.082  11.694   4.813  1.5829 -1.0547  1.8134
  606MOL0     H81789   7.100  11.701   4.639  0.6991 -0.7138 -1.3846
  606MOL0     H81790   7.283  11.853   4.644 -0.6421  0.7712 -0.4188
  606MOL0     H81791   7.320  11.822   4.812 -0.0171 -1.0422 -0.9309
  606MOL0     H81792   7.749  11.031   4.683  2.0067 -0.3849  0.1076
  606MOL0     H81793   7.955  10.892   4.789  0.7975 -0.5741  1.0746
  606MOL0     H81794   8.120  10.562   4.890  2.4441  0.2382 -1.3281
  606MOL0     H81795   8.281  10.412   4.933 -1.9716  0.6126 -0.2832
  606MOL0     H81796   9.396   9.409   6.593 -3.2903 -0.7801 -1.0009
  606MOL0     H81797   9.594   9.283   6.623 -0.1633 -1.0098  0.2554
  606MOL0     H81798   9.974   9.091   6.327  0.9164  1.2217 -0.7384
  606MOL0     H81799  10.212   9.013   6.312 -1.6118 -0.5453  0.6747
  606MOL0     H81800  10.522   9.005   6.634 -0.4490  1.8351 -1.9471
  606MOL0     H81801  10.393   8.871   6.642  1.6930 -2.7345 -0.3689
  606MOL0     H81802  10.599   8.893   6.434 -2.8947  1.0036 -1.2627
  606MOL0     H81803  10.465   8.783   6.453  0.4640  1.5510 -1.5648
  606MOL0     H81804  10.640   8.660   6.546 -0.0369  2.8722 -5.7109
  606MOL0     H81805  10.545   8.718   6.681 -0.2943 -0.8686 -1.0299
  606MOL0     H81806  10.739   8.754   6.773  0.3084  0.7399 -0.3718
  606MOL0     H81807  10.710   8.899   6.701 -0.4681 -0.2205 -0.8580
  606MOL0     H81808  11.022   8.808   6.428 -0.3057  0.4735 -0.3658
  606MOL0     H81809  10.288   9.132   6.712 -2.0414  0.9052  1.2379
  606MOL0     H81810  10.055   9.216   6.724 -2.9364 -3.0296 -0.4511
  607MOL0     O81811   1.557   2.428   0.892 -0.8110  0.4827  0.3644
  607MOL0     C81812   1.570   2.381   0.776  0.6708  0.1159  0.5145
  607MOL0     O81813   1.691   2.364   0.717  0.1135 -0.0467  0.4762
  607MOL0     C81814   1.809   2.405   0.771  0.6424 -0.0911 -0.3810
  607MOL0     C81815   1.832   2.541   0.770 -0.1239  0.5773  0.0489
  607MOL0     C81816   1.945   2.593   0.844 -0.4072  0.2555 -0.3008
  607MOL0     C81817   2.039   2.505   0.912 -1.5128 -0.3362  0.4576
  607MOL0     O81818   2.174   2.534   0.942  0.3766 -0.2210  0.1335
  607MOL0     C81819   2.209   2.673   0.932 -0.0378 -0.1344  0.1965
  607MOL0     C81820   2.357   2.702   0.940  0.0148  0.4493  0.5237
  607MOL0     C81821   2.399   2.686   1.087 -0.0190  0.1320  0.2612
  607MOL0     C81822   2.532   2.759   1.115  0.1717  0.2903  0.1338
  607MOL0     C81823   2.541   2.795   1.266  0.6030 -0.1266 -0.1681
  607MOL0     C81824   2.548   2.684   1.370 -0.6466  0.5872 -0.2309
  607MOL0     C81825   2.523   2.743   1.515 -0.3155  0.1730  0.2013
  607MOL0     C81826   2.559   2.653   1.637  1.0072 -0.5119  0.1133
  607MOL0     N81827   2.443   2.579   1.685 -0.7912 -0.2628 -0.4813
  607MOL0     C81828   2.358   2.624   1.785 -0.6171  0.5109  0.9894
  607MOL0     C81829   2.280   2.517   1.806  0.6886 -0.2555 -0.3207
  607MOL0     C81830   2.159   2.517   1.898 -0.4188  0.4994  0.4512
  607MOL0     C81831   2.037   2.450   1.840 -0.3194  0.3725 -0.8126
  607MOL0     C81832   1.944   2.558   1.766  0.0489  0.2433 -0.1368
  607MOL0     C81833   2.015   2.643   1.662 -0.3498 -0.4980  0.3468
  607MOL0     O81834   2.077   2.759   1.727 -0.6414  0.1766  0.3617
  607MOL0     C81835   2.143   2.844   1.647 -0.1133 -0.1285  0.9554
  607MOL0     C81836   2.206   2.950   1.709 -0.1134 -0.3298 -0.5456
  607MOL0     C81837   2.261   3.054   1.636 -0.3231 -0.1158 -0.2229
  607MOL0     C81838   2.327   3.160   1.715 -0.4492 -0.8404  0.1111
  607MOL0     C81839   2.266   3.048   1.494  0.0889 -0.2786 -0.4440
  607MOL0     C81840   2.316   3.161   1.405  0.2022  0.9683  0.2857
  607MOL0     O81841   2.291   3.162   1.268 -0.1434 -0.2388  0.2549
  607MOL0     C81842   2.174   3.122   1.224  0.7550 -0.9837  0.6407
  607MOL0     C81843   2.161   3.031   1.122  0.3365 -0.1242 -0.5503
  607MOL0     C81844   2.037   2.982   1.078 -0.0120  0.7937 -0.0443
  607MOL0     C81845   1.919   3.046   1.122 -0.0553 -0.2513 -0.3051
  607MOL0     O81846   1.807   2.998   1.061  1.0562  0.0751  0.5845
  607MOL0     C81847   1.675   3.041   1.104  0.0827 -0.3539  0.0887
  607MOL0     C81848   1.577   2.936   1.050 -0.7197  0.3169  0.1206
  607MOL0     C81849   1.441   2.976   1.108  0.0156 -0.0442 -0.3218
  607MOL0     C81850   1.325   2.912   1.040  0.0356  0.6239  0.6358
  607MOL0     C81851   1.307   2.766   1.064 -0.1536  0.3660  0.6455
  607MOL0     C81852   1.192   2.704   0.973 -0.4158  0.3465  0.5486
  607MOL0     C81853   1.048   2.741   1.023  0.3262 -0.6906  0.1128
  607MOL0     C81854   0.950   2.709   0.914 -0.2326  0.5570 -0.5155
  607MOL0    Cl81855   0.960   2.541   0.879  0.2980  0.0806  0.2111
  607MOL0     C81856   1.935   3.149   1.221 -1.3387 -0.3619  0.5129
  607MOL0     C81857   2.057   3.186   1.272  0.3310  0.9618  0.3229
  607MOL0     O81858   2.400   3.223   1.458  0.2003  0.0645  0.7654
  607MOL0     C81859   2.217   2.932   1.435  1.0785 -0.4851 -0.5937
  607MOL0     C81860   2.166   2.828   1.512  0.2243  0.1358  0.4942
  607MOL0     N81861   2.305   2.416   1.708 -0.2196  0.2340 -0.0294
  607MOL0     N81862   2.404   2.456   1.636 -0.1204  0.0742 -0.8698
  607MOL0     C81863   2.006   2.371   0.903  0.0151  0.2987 -0.3417
  607MOL0     C81864   1.894   2.317   0.834  0.7644 -0.4145 -0.4432
  607MOL0     C81865   1.454   2.375   0.687  0.8479  0.7939  0.0933
  607MOL0     C81866   1.472   2.351   0.549 -0.6847  0.2482  0.1217
  607MOL0     C81867   1.355   2.354   0.460 -0.2754  0.0484  0.2583
  607MOL0     C81868   1.228   2.367   0.509 -0.1891 -0.5800  0.1509
  607MOL0     O81869   1.126   2.377   0.418  0.2150 -0.1501  0.9820
  607MOL0     C81870   0.990   2.383   0.464 -0.2851  0.0114  0.1136
  607MOL0     C81871   0.884   2.393   0.362 -0.6033  0.5815  0.4514
  607MOL0     C81872   0.826   2.247   0.303 -0.1440 -0.4033 -0.0542
  607MOL0     C81873   0.733   2.256   0.188 -0.2910 -0.4179 -0.1155
  607MOL0     C81874   0.618   2.351   0.211 -1.6003 -0.1544  0.6585
  607MOL0     C81875   0.525   2.430   0.231 -0.6955 -0.0514  0.2446
  607MOL0     C81876   1.205   2.387   0.652 -0.7441 -0.2016  0.2283
  607MOL0     C81877   1.323   2.395   0.741  0.1135 -0.4338 -0.6632
  607MOL0     H81878   1.759   2.602   0.717 -2.5879 -1.2083  1.1766
  607MOL0     H81879   1.945   2.701   0.840  1.9308  0.3823  1.0806
  607MOL0     H81880   2.185   2.697   0.829 -1.2695 -1.6948  0.0712
  607MOL0     H81881   2.167   2.740   1.008  0.3934 -1.3590  1.5680
  607MOL0     H81882   2.411   2.634   0.873  0.2170  1.7229 -0.6343
  607MOL0     H81883   2.377   2.804   0.906 -1.0483  0.8772  1.1519
  607MOL0     H81884   2.317   2.716   1.153 -2.0407  1.7807 -2.7703
  607MOL0     H81885   2.417   2.582   1.114 -0.3579  0.0569  0.1942
  607MOL0     H81886   2.625   2.708   1.087  0.1441  0.3417 -0.0468
  607MOL0     H81887   2.526   2.857   1.068  0.3650 -0.1929 -0.9339
  607MOL0     H81888   2.631   2.853   1.290 -0.3618  0.3539  2.7175
  607MOL0     H81889   2.459   2.861   1.297  0.8988 -0.4305  1.3439
  607MOL0     H81890   2.469   2.613   1.343  1.0649 -0.2967 -3.3111
  607MOL0     H81891   2.644   2.632   1.368 -1.9909 -2.0329 -1.1443
  607MOL0     H81892   2.583   2.835   1.518  1.3555 -0.8178 -1.1913
  607MOL0     H81893   2.417   2.766   1.524 -0.4683 -1.0435  2.0798
  607MOL0     H81894   2.590   2.719   1.719 -1.3545 -1.5211  1.9266
  607MOL0     H81895   2.640   2.590   1.600  0.9826 -0.4558 -0.0383
  607MOL0     H81896   2.353   2.716   1.842 -1.6275 -0.2748  2.2347
  607MOL0     H81897   2.174   2.458   1.989 -4.5639 -0.3300  0.7758
  607MOL0     H81898   2.138   2.621   1.926  1.6381  0.6991  1.4669
  607MOL0     H81899   1.978   2.395   1.914 -1.6757 -1.0520 -2.8621
  607MOL0     H81900   2.060   2.364   1.777  0.3193 -0.9547  1.1274
  607MOL0     H81901   1.910   2.632   1.840  2.9602  1.1499  0.4178
  607MOL0     H81902   1.858   2.498   1.735  0.4954  0.1340 -1.2076
  607MOL0     H81903   1.948   2.689   1.588 -0.3973  2.2561  1.9800
  607MOL0     H81904   2.092   2.585   1.612 -0.4272  0.8639 -1.4620
  607MOL0     H81905   2.204   2.956   1.818  0.9394  1.9683 -0.6042
  607MOL0     H81906   2.321   3.262   1.678 -2.1319 -1.0375 -0.2622
  607MOL0     H81907   2.277   3.163   1.813 -0.2763 -0.5556  0.1924
  607MOL0     H81908   2.430   3.130   1.735  0.0140  1.0811  0.8022
  607MOL0     H81909   2.253   2.987   1.083  0.3298  0.0703 -0.7830
  607MOL0     H81910   2.034   2.902   1.005 -2.2506  2.4864 -1.9693
  607MOL0     H81911   1.663   3.044   1.213 -3.4130  1.6678 -0.1855
  607MOL0     H81912   1.645   3.143   1.075  2.0227  0.7673  1.7599
  607MOL0     H81913   1.568   2.935   0.940 -0.1903 -3.1497  0.0015
  607MOL0     H81914   1.605   2.836   1.083 -0.7181  0.3148  0.1129
  607MOL0     H81915   1.423   3.082   1.091 -4.6044 -0.6736 -0.5046
  607MOL0     H81916   1.442   2.958   1.216  0.4611  3.6417  0.4123
  607MOL0     H81917   1.238   2.969   1.075  1.4839  2.9713  0.6040
  607MOL0     H81918   1.343   2.928   0.933 -0.0723  0.3227  0.5725
  607MOL0     H81919   1.296   2.753   1.172  1.7760  1.3135  1.0136
  607MOL0     H81920   1.401   2.717   1.035 -1.7014 -1.4815 -1.6588
  607MOL0     H81921   1.208   2.741   0.871  2.8371 -1.1438  0.3962
  607MOL0     H81922   1.198   2.596   0.960  0.2833  0.2663  1.4121
  607MOL0     H81923   1.029   2.846   1.046  3.5961  0.0587 -0.1199
  607MOL0     H81924   1.038   2.682   1.115  1.2571  0.8095  1.2139
  607MOL0     H81925   0.968   2.766   0.822 -3.7845  1.8891 -0.5451
  607MOL0     H81926   0.850   2.736   0.951  0.3768  0.0178  1.6459
  607MOL0     H81927   1.843   3.195   1.255 -0.0719  0.7060  2.7115
  607MOL0     H81928   2.070   3.268   1.343  5.2159  1.1557 -0.4056
  607MOL0     H81929   2.222   2.905   1.330 -1.6523 -0.4859 -0.7968
  607MOL0     H81930   2.144   2.731   1.468  2.2796 -1.4437  2.6614
  607MOL0     H81931   2.079   2.301   0.944  2.3455  0.7057 -3.4351
  607MOL0     H81932   1.873   2.210   0.842 -0.9524 -0.0178  0.9123
  607MOL0     H81933   1.569   2.321   0.511 -0.5647  1.3125 -0.4679
  607MOL0     H81934   1.379   2.342   0.355 -3.8789  0.3889 -0.7479
  607MOL0     H81935   0.949   2.305   0.530 -2.4530 -0.4263 -1.5856
  607MOL0     H81936   0.986   2.475   0.522  0.2350  0.8905 -1.1930
  607MOL0     H81937   0.925   2.448   0.277  2.4627 -0.0763  1.3972
  607MOL0     H81938   0.799   2.447   0.403 -3.0536 -3.5425  1.3771
  607MOL0     H81939   0.770   2.198   0.383  0.0321 -1.0825 -0.3318
  607MOL0     H81940   0.913   2.188   0.272  0.3191  0.2095  0.0814
  607MOL0     H81941   0.711   2.164   0.133  1.6119 -1.0368  0.0632
  607MOL0     H81942   0.799   2.313   0.122 -0.1423  0.1630  0.5159
  607MOL0     H81943   0.444   2.496   0.256 -0.5381  0.7683 -1.3489
  607MOL0     H81944   1.105   2.413   0.686 -1.4695 -1.8454 -0.5633
  607MOL0     H81945   1.314   2.423   0.845  0.6217 -1.4867 -0.3256
  608MOL0     O81946   0.671   0.184   4.037 -0.1487  0.0449 -0.0872
  608MOL0     C81947   0.628   0.130   4.141 -0.4494  0.3603  0.4027
  608MOL0     O81948   0.701   0.093   4.246  0.6693 -0.0369  0.0250
  608MOL0     C81949   0.823   0.146   4.249 -0.0500 -1.2314 -0.5273
  608MOL0     C81950   0.862   0.220   4.366  0.0977  0.6141 -0.2050
  608MOL0     C81951   0.980   0.290   4.369  0.4899 -0.4980  0.0653
  608MOL0     C81952   1.065   0.296   4.262  0.3880  0.1624  0.4938
  608MOL0     O81953   1.172   0.382   4.254 -0.3732  0.4458  0.0757
  608MOL0     C81954   1.233   0.424   4.377 -0.3153  0.0933  0.1743
  608MOL0     C81955   1.366   0.490   4.336 -0.0575  0.2778 -0.3546
  608MOL0     C81956   1.330   0.626   4.267  0.3121 -0.3310 -0.2008
  608MOL0     C81957   1.443   0.662   4.173  0.7203  0.0386  0.0304
  608MOL0     C81958   1.436   0.806   4.127 -0.4521  0.1242  0.4172
  608MOL0     C81959   1.454   0.914   4.231  0.1412  0.0851 -0.1613
  608MOL0     C81960   1.597   0.919   4.280  0.2615  0.8383 -1.1953
  608MOL0     C81961   1.612   1.041   4.379  0.2856 -0.9587  0.5371
  608MOL0     N81962   1.523   1.042   4.499 -0.3458  0.1405 -0.2218
  608MOL0     C81963   1.477   0.940   4.573 -0.6080 -0.4934  0.8981
  608MOL0     C81964   1.373   0.991   4.651  0.3795  0.3639 -0.1131
  608MOL0     C81965   1.286   0.908   4.749 -0.3821  0.0051 -0.3913
  608MOL0     C81966   1.288   0.753   4.739  0.0017 -0.6611  0.1921
  608MOL0     C81967   1.227   0.708   4.602  0.8750  0.2327 -0.3055
  608MOL0     C81968   1.079   0.719   4.598 -0.8464 -0.6161 -0.1152
  608MOL0     O81969   1.022   0.706   4.470 -0.1773  0.0423  0.2018
  608MOL0     C81970   0.884   0.663   4.455  0.6513  0.0341 -0.4935
  608MOL0     C81971   0.843   0.602   4.340  0.1465  0.1035  0.3169
  608MOL0     C81972   0.708   0.562   4.317  0.4153  0.5971 -0.3003
  608MOL0     C81973   0.689   0.478   4.196 -0.2416 -0.8354  0.4494
  608MOL0     C81974   0.610   0.576   4.420 -0.3675 -0.3817 -0.2423
  608MOL0     C81975   0.476   0.522   4.411  0.8902  0.0658 -0.4108
  608MOL0     O81976   0.440   0.427   4.507 -0.2496 -0.1442  0.6296
  608MOL0     C81977   0.326   0.353   4.487  0.2743  0.4677  0.0244
  608MOL0     C81978   0.259   0.319   4.605  0.6141 -0.3990  0.6467
  608MOL0     C81979   0.146   0.239   4.591 -0.8621 -0.9195 -0.5069
  608MOL0     C81980   0.095   0.196   4.470 -0.6797 -0.8121  0.5802
  608MOL0     O81981  -0.015   0.120   4.464 -0.5198 -0.3228 -0.2702
  608MOL0     C81982  -0.038   0.020   4.365  0.1129  0.0325  0.2904
  608MOL0     C81983  -0.172  -0.033   4.405  0.2783  0.0021  0.9015
  608MOL0     C81984  -0.212  -0.168   4.333  0.8262 -0.3321  0.1689
  608MOL0     C81985  -0.367  -0.200   4.342  0.1227  1.6078 -0.4463
  608MOL0     C81986  -0.388  -0.349   4.302 -0.2024  0.5035  0.0828
  608MOL0     C81987  -0.530  -0.408   4.308 -0.7655  0.1888  0.5754
  608MOL0     C81988  -0.536  -0.540   4.218 -0.0062  0.4251 -0.1351
  608MOL0     C81989  -0.431  -0.644   4.268  0.1080 -0.0274  0.4601
  608MOL0    Cl81990  -0.482  -0.810   4.220  0.2680  0.2070 -0.0778
  608MOL0     C81991   0.165   0.228   4.353  0.5375  0.2433  0.8435
  608MOL0     C81992   0.277   0.312   4.362 -0.3007  0.0209 -0.4455
  608MOL0     O81993   0.406   0.557   4.316 -0.6726  0.4979  0.1294
  608MOL0     C81994   0.653   0.633   4.541 -0.5475 -0.0231  0.2761
  608MOL0     C81995   0.786   0.683   4.555  0.2182 -0.4317  1.0789
  608MOL0     N81996   1.377   1.125   4.639 -0.6131 -0.5351 -0.0092
  608MOL0     N81997   1.453   1.153   4.536  0.8347  0.6374 -0.6464
  608MOL0     C81998   1.039   0.211   4.152 -0.5049  0.8329 -0.6222
  608MOL0     C81999   0.918   0.148   4.141 -0.2081  0.0662 -0.0404
  608MOL0     C82000   0.501   0.068   4.118  1.2709 -1.2739  0.0521
  608MOL0     C82001   0.444  -0.035   4.196 -0.3108 -0.2186  0.7614
  608MOL0     C82002   0.312  -0.075   4.193 -1.0098 -0.6628  0.1017
  608MOL0     C82003   0.228   0.002   4.115  0.2851 -0.7880 -1.0086
  608MOL0     O82004   0.094  -0.028   4.106  0.0792 -0.9824  0.1354
  608MOL0     C82005   0.025  -0.048   3.977 -0.3822 -0.4027  0.1214
  608MOL0     C82006  -0.116   0.009   3.978  0.3853  0.2280  0.5012
  608MOL0     C82007  -0.184  -0.003   3.842  0.6512 -0.5725  0.2035
  608MOL0     C82008  -0.114   0.086   3.733 -0.4534 -1.0133  0.2073
  608MOL0     C82009  -0.013   0.010   3.660 -0.8623 -0.8381  0.9368
  608MOL0     C82010   0.079  -0.053   3.621 -0.1542 -0.1759  0.3688
  608MOL0     C82011   0.268   0.106   4.037  0.1151 -0.1895  0.6208
  608MOL0     C82012   0.408   0.138   4.027 -0.9425 -0.1018 -0.2090
  608MOL0     H82013   0.794   0.223   4.450 -0.5934 -1.2908 -0.6528
  608MOL0     H82014   0.990   0.360   4.452 -0.1044 -1.8018  1.2818
  608MOL0     H82015   1.169   0.498   4.425 -0.9953 -2.3633  3.4150
  608MOL0     H82016   1.262   0.338   4.438  0.0013  0.7515  0.9790
  608MOL0     H82017   1.435   0.503   4.419 -0.7830 -0.5829  0.4135
  608MOL0     H82018   1.426   0.430   4.266  0.3121  2.9814 -2.5457
  608MOL0     H82019   1.236   0.626   4.212  0.7083  1.5671 -0.9500
  608MOL0     H82020   1.323   0.704   4.344  1.8704 -2.0459  1.8151
  608MOL0     H82021   1.539   0.639   4.219 -0.7733 -2.6422  2.1116
  608MOL0     H82022   1.434   0.587   4.093 -0.1909  0.4340 -0.2527
  608MOL0     H82023   1.508   0.825   4.047 -1.6822  2.2925 -0.2717
  608MOL0     H82024   1.338   0.826   4.083 -1.4141 -0.3270  2.2331
  608MOL0     H82025   1.431   1.009   4.183 -2.3139 -1.3061 -1.9425
  608MOL0     H82026   1.383   0.901   4.314  0.6446 -0.3184  0.2155
  608MOL0     H82027   1.620   0.830   4.338 -0.5102 -1.0008 -3.5572
  608MOL0     H82028   1.669   0.940   4.201  2.1257  0.1203  0.2326
  608MOL0     H82029   1.590   1.128   4.317  0.7794  0.2952  2.0501
  608MOL0     H82030   1.717   1.058   4.404  0.3142  1.1312 -0.8017
  608MOL0     H82031   1.511   0.838   4.559 -1.8897 -1.2990  3.1357
  608MOL0     H82032   1.308   0.944   4.850 -0.7305  0.9838 -0.6522
  608MOL0     H82033   1.182   0.931   4.726 -0.1028  1.9370  0.0993
  608MOL0     H82034   1.228   0.728   4.827  0.7215  2.2307  1.6231
  608MOL0     H82035   1.389   0.715   4.756  1.1614  2.1479  0.2084
  608MOL0     H82036   1.241   0.601   4.584 -0.9201 -0.1432  0.2586
  608MOL0     H82037   1.270   0.772   4.524 -0.0305 -0.8296 -1.7339
  608MOL0     H82038   1.058   0.820   4.634  0.4121  0.0931 -1.2585
  608MOL0     H82039   1.044   0.645   4.670 -0.1680 -1.4472 -0.6362
  608MOL0     H82040   0.919   0.587   4.265  0.6090  1.1704  0.5594
  608MOL0     H82041   0.604   0.410   4.194 -1.3199  0.4387 -2.8408
  608MOL0     H82042   0.672   0.547   4.113  2.4170  1.4305  1.6192
  608MOL0     H82043   0.781   0.420   4.187 -1.1154 -2.0151 -1.3042
  608MOL0     H82044   0.289   0.377   4.692  2.4142  1.7832 -1.2947
  608MOL0     H82045   0.078   0.238   4.676 -0.4040 -0.6509 -0.1292
  608MOL0     H82046  -0.050   0.065   4.266  1.0046  2.9227  1.3870
  608MOL0     H82047   0.034  -0.062   4.369  0.0287 -0.0780 -0.3048
  608MOL0     H82048  -0.153  -0.051   4.511  4.5178  0.5032  0.3889
  608MOL0     H82049  -0.246   0.046   4.389 -0.6436 -0.6335  1.8591
  608MOL0     H82050  -0.163  -0.255   4.378 -2.3034 -1.9665  0.7051
  608MOL0     H82051  -0.166  -0.173   4.234 -0.1055 -0.2238 -0.2795
  608MOL0     H82052  -0.397  -0.196   4.447  2.8458 -0.0099  0.5174
  608MOL0     H82053  -0.425  -0.147   4.266  2.8754  2.5205 -2.0776
  608MOL0     H82054  -0.325  -0.402   4.374  1.6927  4.6091  1.7714
  608MOL0     H82055  -0.341  -0.360   4.203 -2.4478 -1.5272 -0.8637
  608MOL0     H82056  -0.547  -0.435   4.412  0.3600 -0.4405  0.6112
  608MOL0     H82057  -0.605  -0.334   4.276 -0.5186 -0.2625 -1.1915
  608MOL0     H82058  -0.512  -0.522   4.112 -0.8620  1.8880 -0.1099
  608MOL0     H82059  -0.629  -0.597   4.221  1.2899 -1.7756  2.2933
  608MOL0     H82060  -0.407  -0.645   4.374  0.2341 -2.2841  0.4476
  608MOL0     H82061  -0.338  -0.607   4.224 -1.4489  0.8256 -2.4011
  608MOL0     H82062   0.141   0.193   4.253  0.3989  0.9160  0.6370
  608MOL0     H82063   0.340   0.330   4.276 -1.6660  0.9513 -1.2870
  608MOL0     H82064   0.582   0.639   4.622 -1.4576 -0.1457 -0.4997
  608MOL0     H82065   0.820   0.738   4.643 -2.4646 -0.7647  2.4240
  608MOL0     H82066   1.104   0.209   4.065  0.0015  0.2585 -0.2384
  608MOL0     H82067   0.893   0.092   4.051  1.6707 -2.7312  1.0507
  608MOL0     H82068   0.509  -0.085   4.267  0.1231 -0.0917  0.4605
  608MOL0     H82069   0.270  -0.151   4.259 -0.8225  0.6644  1.8393
  608MOL0     H82070   0.082   0.001   3.897  2.3704 -3.3719  0.0367
  608MOL0     H82071   0.019  -0.155   3.954 -3.1462  0.0902 -1.9236
  608MOL0     H82072  -0.106   0.114   4.008  0.2398 -0.0407  1.5159
  608MOL0     H82073  -0.181  -0.031   4.056  0.2910  1.0170  0.8351
  608MOL0     H82074  -0.289   0.025   3.851 -0.7003 -3.1632 -4.3983
  608MOL0     H82075  -0.188  -0.108   3.812 -0.0068 -0.7048  0.7069
  608MOL0     H82076  -0.067   0.173   3.779 -0.7328 -0.5256 -0.3959
  608MOL0     H82077  -0.181   0.134   3.660 -0.8521  2.5182  2.6560
  608MOL0     H82078   0.153  -0.115   3.574 -0.9230  1.4886 -3.4540
  608MOL0     H82079   0.203   0.166   3.973  1.9821  0.0379 -1.1705
  608MOL0     H82080   0.445   0.219   3.966  0.2904 -1.6129 -1.5706
  609MOL0     O82081   6.587   3.940   4.761 -0.1217  0.7403  0.2184
  609MOL0     C82082   6.578   3.895   4.642 -1.0918 -0.8297 -0.5999
  609MOL0     O82083   6.462   3.865   4.574  0.0463 -0.5894  0.4803
  609MOL0     C82084   6.336   3.907   4.628 -0.3852  0.2209 -0.3486
  609MOL0     C82085   6.309   4.036   4.685  0.4797 -1.3071  1.4920
  609MOL0     C82086   6.176   4.065   4.724 -0.5949  0.3533 -0.1250
  609MOL0     C82087   6.069   3.974   4.693 -0.3092 -1.2587  0.9926
  609MOL0     O82088   5.938   4.014   4.730 -0.5766  0.1773  0.2472
  609MOL0     C82089   5.836   3.914   4.705 -0.4030  0.5893 -0.8312
  609MOL0     C82090   5.703   4.000   4.722  0.1212 -0.0580  0.8590
  609MOL0     C82091   5.571   3.921   4.711 -0.1979 -1.2025  0.2037
  609MOL0     C82092   5.527   3.864   4.849  0.1227 -0.2598 -0.2538
  609MOL0     C82093   5.415   3.956   4.917  0.1705  0.9757  0.1685
  609MOL0     C82094   5.294   3.881   4.912  0.3643 -0.0772 -0.3378
  609MOL0     C82095   5.186   3.921   5.013  0.5313 -1.2502  0.0158
  609MOL0     C82096   5.063   3.837   4.965  0.2189 -0.5895  0.7806
  609MOL0     N82097   4.942   3.858   5.043 -0.5627  0.5606 -0.6695
  609MOL0     C82098   4.916   3.793   5.163  0.1514  0.1281  0.1979
  609MOL0     C82099   4.792   3.827   5.183  0.6648  0.0645  0.2777
  609MOL0     C82100   4.718   3.801   5.302 -0.5152 -0.4086  0.0751
  609MOL0     C82101   4.597   3.717   5.273  0.2698 -0.8458  0.6331
  609MOL0     C82102   4.481   3.800   5.221 -0.5115 -0.6189  0.3589
  609MOL0     C82103   4.356   3.719   5.206  0.1915 -0.4736 -0.6749
  609MOL0     O82104   4.273   3.707   5.330 -0.0744 -0.8667  0.3077
  609MOL0     C82105   4.137   3.670   5.315 -0.6305 -0.1825  0.9700
  609MOL0     C82106   4.041   3.689   5.417 -0.2235 -0.5867 -0.9609
  609MOL0     C82107   3.906   3.640   5.402  0.3810  0.0254  0.0629
  609MOL0     C82108   3.804   3.670   5.510  0.2440  0.6258  0.1912
  609MOL0     C82109   3.867   3.568   5.280  0.1825  0.4426  0.5992
  609MOL0     C82110   3.729   3.518   5.262 -0.6024 -0.1722  0.5493
  609MOL0     O82111   3.727   3.411   5.176 -0.4316  0.3729 -0.4458
  609MOL0     C82112   3.608   3.380   5.114  0.5903  0.6363  1.3777
  609MOL0     C82113   3.534   3.471   5.043  0.5297  0.8098 -0.2795
  609MOL0     C82114   3.405   3.442   4.994  0.5141  0.9516  0.2991
  609MOL0     C82115   3.354   3.307   4.998 -0.5839  0.4338 -0.2537
  609MOL0     O82116   3.236   3.271   4.947 -0.0277  0.8923  0.5502
  609MOL0     C82117   3.162   3.367   4.873  0.0311 -0.0117 -0.5982
  609MOL0     C82118   3.070   3.450   4.963 -0.7460  0.3216 -0.2186
  609MOL0     C82119   2.974   3.359   5.032 -0.7969  0.0175 -0.5595
  609MOL0     C82120   2.899   3.449   5.125  0.4166 -0.7750  0.2030
  609MOL0     C82121   2.792   3.371   5.202 -0.2366 -0.0688  0.0941
  609MOL0     C82122   2.728   3.451   5.315  0.3220 -0.2540  0.1137
  609MOL0     C82123   2.822   3.477   5.433 -0.6013  0.3484 -0.0098
  609MOL0     C82124   2.762   3.572   5.533  0.1940  0.5712  0.0375
  609MOL0    Cl82125   2.871   3.564   5.682  0.2709 -0.1235  0.3438
  609MOL0     C82126   3.439   3.212   5.059 -0.5515  0.8964 -0.0356
  609MOL0     C82127   3.561   3.251   5.119  0.0040 -0.8743  0.3341
  609MOL0     O82128   3.631   3.580   5.294  0.2495 -0.1774 -0.1190
  609MOL0     C82129   3.969   3.546   5.186 -0.3138  0.0381 -0.1185
  609MOL0     C82130   4.103   3.587   5.205  0.0448  0.4770 -0.3004
  609MOL0     N82131   4.740   3.913   5.087 -0.0961  0.0327  0.6023
  609MOL0     N82132   4.832   3.923   4.998  0.2724  0.0062 -0.1152
  609MOL0     C82133   6.104   3.847   4.641  0.4777  0.3823  0.3298
  609MOL0     C82134   6.229   3.821   4.609  0.2975 -0.0455  0.7098
  609MOL0     C82135   6.705   3.859   4.578 -0.8421 -0.4440  0.2600
  609MOL0     C82136   6.828   3.913   4.633 -0.0179 -0.0436 -0.4623
  609MOL0     C82137   6.951   3.891   4.575 -0.0295  0.5324 -0.0094
  609MOL0     C82138   6.954   3.817   4.454  0.6326  0.3152  0.3831
  609MOL0     O82139   7.074   3.792   4.393 -0.6895 -0.4319 -0.8627
  609MOL0     C82140   7.189   3.867   4.440  0.4881 -0.4017  0.4889
  609MOL0     C82141   7.310   3.802   4.373  0.9680 -0.2093  0.1739
  609MOL0     C82142   7.445   3.841   4.408 -0.9775 -0.0152 -0.6179
  609MOL0     C82143   7.477   3.986   4.380 -0.6708  0.0478 -0.5280
  609MOL0     C82144   7.620   4.020   4.409  0.3145  0.1945  0.1742
  609MOL0     C82145   7.738   4.041   4.423  0.0160  0.1268 -0.4520
  609MOL0     C82146   6.843   3.763   4.400 -0.2911  0.0788  0.7206
  609MOL0     C82147   6.719   3.786   4.462  0.1046  0.0496  0.1618
  609MOL0     H82148   6.383   4.115   4.699 -2.9760  3.4247 -2.9128
  609MOL0     H82149   6.145   4.157   4.773 -0.5974  0.6996 -0.7652
  609MOL0     H82150   5.842   3.865   4.607 -1.1427  0.9599 -1.0680
  609MOL0     H82151   5.835   3.836   4.781 -1.4186 -0.0934 -1.5223
  609MOL0     H82152   5.716   4.069   4.806 -1.3855  3.6516 -1.7155
  609MOL0     H82153   5.702   4.062   4.632 -2.8443 -0.3874  0.5692
  609MOL0     H82154   5.488   3.986   4.682 -2.0714 -1.4997  4.2481
  609MOL0     H82155   5.572   3.840   4.637 -0.6686 -3.4248  2.4910
  609MOL0     H82156   5.506   3.757   4.846  0.5629 -0.3433 -3.0502
  609MOL0     H82157   5.620   3.873   4.907  1.7640 -1.8028 -2.4757
  609MOL0     H82158   5.430   3.981   5.023  2.0827  0.8635 -0.0405
  609MOL0     H82159   5.414   4.054   4.869 -0.5468  2.1483  2.4219
  609MOL0     H82160   5.253   3.906   4.814 -0.3945  2.6579  0.6041
  609MOL0     H82161   5.303   3.772   4.910 -2.6867 -0.4333  0.0140
  609MOL0     H82162   5.203   3.903   5.120 -0.8242  2.1811  0.9507
  609MOL0     H82163   5.165   4.028   5.003  3.3549 -0.7298 -1.2603
  609MOL0     H82164   5.100   3.736   4.986  1.2705 -0.0841  1.4969
  609MOL0     H82165   5.036   3.861   4.862 -1.4440  2.8935  1.8806
  609MOL0     H82166   4.982   3.742   5.231 -0.5623  0.1749  0.9471
  609MOL0     H82167   4.770   3.741   5.378 -2.0535 -0.9205  0.7462
  609MOL0     H82168   4.681   3.895   5.344  0.4919 -0.9095  2.1937
  609MOL0     H82169   4.572   3.656   5.361  2.1358 -0.7482  1.2823
  609MOL0     H82170   4.619   3.641   5.198 -1.2243 -2.0061  1.3131
  609MOL0     H82171   4.497   3.837   5.120 -0.0628  0.2931  0.7534
  609MOL0     H82172   4.484   3.887   5.287  2.2048 -1.5573  1.6112
  609MOL0     H82173   4.377   3.618   5.169  0.5925 -1.2065  1.4486
  609MOL0     H82174   4.294   3.773   5.134 -0.6313  0.3652  0.6107
  609MOL0     H82175   4.067   3.749   5.504  0.4197 -1.7148 -0.3518
  609MOL0     H82176   3.720   3.734   5.483  0.4278 -0.2463 -2.8175
  609MOL0     H82177   3.755   3.579   5.547 -1.3034  1.1330 -0.5304
  609MOL0     H82178   3.843   3.712   5.603  0.5679  2.7984 -0.8707
  609MOL0     H82179   3.571   3.573   5.047 -0.4937  1.1686  0.3884
  609MOL0     H82180   3.348   3.524   4.952 -1.2879 -0.3218  0.1222
  609MOL0     H82181   3.218   3.445   4.821 -0.0402  1.8907  1.9749
  609MOL0     H82182   3.096   3.320   4.799 -0.0330 -1.4701  0.3440
  609MOL0     H82183   3.131   3.507   5.034  0.3192  0.0381 -0.8787
  609MOL0     H82184   3.011   3.522   4.905  0.3931  4.5166  3.2888
  609MOL0     H82185   3.008   3.269   5.085 -2.2666 -0.5248 -0.4909
  609MOL0     H82186   2.898   3.323   4.962 -0.9568  0.7243 -0.7543
  609MOL0     H82187   2.966   3.497   5.197  1.3450 -1.2298 -0.3339
  609MOL0     H82188   2.853   3.535   5.076  0.0714 -1.5739 -0.9209
  609MOL0     H82189   2.835   3.276   5.236 -2.0154 -0.9956 -0.1421
  609MOL0     H82190   2.711   3.337   5.138 -1.8451  1.2943  1.3184
  609MOL0     H82191   2.676   3.542   5.282  1.2013  0.1579 -0.1449
  609MOL0     H82192   2.647   3.387   5.351 -2.4023  3.0964  0.5001
  609MOL0     H82193   2.913   3.526   5.397  0.3325 -1.6659 -0.5198
  609MOL0     H82194   2.842   3.380   5.479 -0.0620  0.2712 -0.3888
  609MOL0     H82195   2.658   3.552   5.561  0.0131  0.4920 -0.6681
  609MOL0     H82196   2.774   3.672   5.490 -2.3236  0.6189 -0.6916
  609MOL0     H82197   3.414   3.107   5.056  0.2809  0.6027  2.0128
  609MOL0     H82198   3.625   3.173   5.160  2.7182  0.8499 -0.3313
  609MOL0     H82199   3.949   3.486   5.098  1.9723 -1.7596  0.4677
  609MOL0     H82200   4.173   3.557   5.128 -0.8238 -1.5482 -0.3733
  609MOL0     H82201   6.034   3.764   4.632  1.8310 -0.8280  0.5475
  609MOL0     H82202   6.255   3.726   4.564  1.5339 -0.3777  2.0400
  609MOL0     H82203   6.835   3.984   4.716 -2.9896 -1.4091  1.1276
  609MOL0     H82204   7.035   3.955   4.599  1.0952 -0.1256 -1.9702
  609MOL0     H82205   7.177   3.972   4.414  1.1197 -0.1228  1.2893
  609MOL0     H82206   7.210   3.852   4.547  5.2906 -0.1649 -0.1793
  609MOL0     H82207   7.300   3.815   4.265  0.9473  0.2855  0.2305
  609MOL0     H82208   7.302   3.694   4.380 -0.0036 -0.1000  0.9253
  609MOL0     H82209   7.517   3.790   4.344  1.2127  1.6222  0.4025
  609MOL0     H82210   7.460   3.828   4.516 -1.2805  1.9749 -0.3011
  609MOL0     H82211   7.404   4.034   4.445 -0.3643  1.0091 -0.8676
  609MOL0     H82212   7.462   4.016   4.276  0.1982  0.9786 -0.4112
  609MOL0     H82213   7.842   4.066   4.431 -0.4696  2.4951 -0.6756
  609MOL0     H82214   6.850   3.701   4.311 -1.3845  1.7444 -0.5841
  609MOL0     H82215   6.638   3.746   4.402 -0.7695 -1.2539  2.1277
  610MOL0     O82216   0.036   2.093  10.781  0.4105  0.7869 -0.2451
  610MOL0     C82217   0.078   2.209  10.784  1.0377  0.2469 -0.0347
  610MOL0     O82218  -0.006   2.323  10.782 -0.2936  0.2048 -0.4372
  610MOL0     C82219  -0.143   2.298  10.782 -0.0760 -0.9896  0.2615
  610MOL0     C82220  -0.218   2.350  10.675  0.3484 -0.2038  0.4241
  610MOL0     C82221  -0.349   2.305  10.661 -0.4230 -0.2770 -0.0883
  610MOL0     C82222  -0.412   2.243  10.768  0.9075  0.6350 -0.6774
  610MOL0     O82223  -0.547   2.212  10.776 -0.1171 -0.2090  0.0543
  610MOL0     C82224  -0.634   2.323  10.744 -0.8554  0.4180 -0.7754
  610MOL0     C82225  -0.630   2.446  10.835  0.4175  0.4393  0.1202
  610MOL0     C82226  -0.694   2.425  10.974  0.0203  1.0835  0.2963
  610MOL0     C82227  -0.712   2.539  11.071  0.5836 -0.9443  0.2204
  610MOL0     C82228  -0.816   2.636  11.023  0.5258 -0.3332 -0.8749
  610MOL0     C82229  -0.856   2.740  11.134  0.1741 -1.0836 -0.2728
  610MOL0     C82230  -0.956   2.843  11.083 -0.6833 -0.3534  0.8851
  610MOL0     C82231  -1.107   2.807  11.097  0.8153 -0.7303 -0.5512
  610MOL0     N82232  -1.172   2.844  11.223  0.4203  0.4273 -0.5522
  610MOL0     C82233  -1.185   2.962  11.277  0.3540 -0.2305 -0.4095
  610MOL0     C82234  -1.232   2.947  11.406 -0.2014  0.5294 -0.2043
  610MOL0     C82235  -1.236   3.042  11.522  0.0778  0.3776  0.6634
  610MOL0     C82236  -1.365   3.031  11.617  0.4495  1.1029 -0.2311
  610MOL0     C82237  -1.482   3.102  11.551 -0.3529  0.1865  0.0081
  610MOL0     C82238  -1.597   3.140  11.652  0.6244  0.4287  0.2928
  610MOL0     O82239  -1.626   3.028  11.736  0.7001  0.3816 -0.0997
  610MOL0     C82240  -1.735   3.038  11.833 -0.8356 -0.0507 -0.9316
  610MOL0     C82241  -1.833   3.147  11.828 -0.4465 -0.6540  0.6251
  610MOL0     C82242  -1.921   3.149  11.935  0.3967 -0.6086 -0.7419
  610MOL0     C82243  -2.034   3.252  11.912  0.8490  0.3511  0.8962
  610MOL0     C82244  -1.917   3.053  12.046 -0.4211 -0.3293 -0.0096
  610MOL0     C82245  -2.013   3.069  12.167 -0.0748  0.0708  0.3988
  610MOL0     O82246  -2.009   2.964  12.251  0.4624 -0.1465  0.2383
  610MOL0     C82247  -2.114   2.960  12.343 -0.6466  0.4003  0.4474
  610MOL0     C82248  -2.219   2.874  12.310 -0.4578 -0.0340 -0.3297
  610MOL0     C82249  -2.331   2.878  12.396 -0.1365  0.5539 -0.2933
  610MOL0     C82250  -2.339   2.962  12.503  0.3576 -0.1345 -0.7550
  610MOL0     O82251  -2.455   2.971  12.586  0.0632  0.1493 -0.4189
  610MOL0     C82252  -2.582   2.906  12.550  0.9988  0.1757  0.3633
  610MOL0     C82253  -2.687   2.948  12.657 -0.9692  0.2069 -0.5642
  610MOL0     C82254  -2.828   2.927  12.612  0.7834 -0.8802  0.1310
  610MOL0     C82255  -2.862   2.782  12.571 -0.2673  0.5782 -0.6475
  610MOL0     C82256  -2.993   2.779  12.498 -0.4651 -0.0259 -0.7823
  610MOL0     C82257  -3.068   2.644  12.501 -0.9026  0.5294 -0.0714
  610MOL0     C82258  -2.987   2.542  12.418  0.0168  1.2455  0.4264
  610MOL0     C82259  -3.081   2.420  12.405  0.0092 -0.1269 -0.4145
  610MOL0    Cl82260  -2.977   2.306  12.329 -0.0201 -0.0602 -0.0973
  610MOL0     C82261  -2.227   3.041  12.539  0.6578 -0.5179  0.1826
  610MOL0     C82262  -2.111   3.036  12.461  0.1624 -0.1808  0.5766
  610MOL0     O82263  -2.078   3.168  12.179 -0.0683  0.3341 -1.3171
  610MOL0     C82264  -1.823   2.956  12.036 -0.0479 -0.2008  0.4981
  610MOL0     C82265  -1.730   2.945  11.937  0.0272 -0.4382  0.7995
  610MOL0     N82266  -1.263   2.816  11.415 -0.5369  0.7007  0.5399
  610MOL0     N82267  -1.223   2.754  11.314  0.1683  0.4416  0.1011
  610MOL0     C82268  -0.344   2.195  10.875  0.1998 -0.2271 -0.5350
  610MOL0     C82269  -0.207   2.214  10.878 -0.0283  1.0450 -0.4584
  610MOL0     C82270   0.216   2.221  10.793 -0.0246  0.4498  0.0315
  610MOL0     C82271   0.300   2.114  10.786 -0.6520  0.2069  0.6150
  610MOL0     C82272   0.434   2.142  10.783  0.1542  0.0766  0.3330
  610MOL0     C82273   0.486   2.273  10.794 -0.9181  0.1605 -1.0841
  610MOL0     O82274   0.619   2.308  10.789 -1.1586  0.0222  0.1838
  610MOL0     C82275   0.714   2.203  10.743 -0.1794  0.3722  0.4246
  610MOL0     C82276   0.857   2.261  10.752  0.5622 -0.0254 -0.4458
  610MOL0     C82277   0.947   2.196  10.645 -0.0894 -0.3100  0.3784
  610MOL0     C82278   1.050   2.094  10.708  0.2222  0.2264  0.0549
  610MOL0     C82279   1.162   2.074  10.616  0.0057 -1.2469 -0.0858
  610MOL0     C82280   1.259   2.050  10.557  0.2617 -0.1217  0.1316
  610MOL0     C82281   0.401   2.385  10.799  1.3125  0.7359 -0.1929
  610MOL0     C82282   0.264   2.355  10.810 -0.1978 -0.0987  0.2260
  610MOL0     H82283  -0.177   2.418  10.601 -0.6491 -3.0406 -3.0070
  610MOL0     H82284  -0.387   2.343  10.567  0.7915  0.6051 -0.2400
  610MOL0     H82285  -0.604   2.354  10.644 -0.2104  0.9428 -0.4267
  610MOL0     H82286  -0.736   2.285  10.747 -0.5441 -0.4697 -1.2049
  610MOL0     H82287  -0.528   2.480  10.854  1.2341 -1.3998 -0.7245
  610MOL0     H82288  -0.692   2.526  10.794  0.0856 -0.3138 -0.8840
  610MOL0     H82289  -0.793   2.380  10.963 -0.0272  1.0225  0.9532
  610MOL0     H82290  -0.626   2.356  11.026  3.2458  2.9184 -1.1930
  610MOL0     H82291  -0.728   2.494  11.169 -2.6000 -2.8363 -1.0088
  610MOL0     H82292  -0.617   2.592  11.082  0.9733 -1.7648  0.9277
  610MOL0     H82293  -0.780   2.694  10.937 -1.0041  1.8127 -0.1462
  610MOL0     H82294  -0.908   2.580  11.007 -1.6595  3.7287 -4.6023
  610MOL0     H82295  -0.901   2.692  11.220  1.8434 -2.2828 -0.0223
  610MOL0     H82296  -0.774   2.799  11.176 -2.1102  3.3650 -1.3854
  610MOL0     H82297  -0.926   2.934  11.136 -0.0729 -1.3263  2.2809
  610MOL0     H82298  -0.933   2.865  10.979  0.3094  0.4314  1.2472
  610MOL0     H82299  -1.120   2.699  11.084  0.5121 -0.8825  0.9331
  610MOL0     H82300  -1.160   2.858  11.016 -1.7287 -3.7619 -0.9490
  610MOL0     H82301  -1.126   3.049  11.252  0.3727  0.8331  2.8931
  610MOL0     H82302  -1.153   3.011  11.586  0.1696 -3.0523 -0.8971
  610MOL0     H82303  -1.210   3.144  11.492 -1.6334 -0.0139 -2.6342
  610MOL0     H82304  -1.335   3.077  11.712 -1.5952  0.3253  0.8437
  610MOL0     H82305  -1.405   2.934  11.646  0.8173  0.2261 -2.4618
  610MOL0     H82306  -1.522   3.036  11.474  2.8507 -1.8777 -0.0899
  610MOL0     H82307  -1.446   3.190  11.496  1.5094 -1.5448 -1.7076
  610MOL0     H82308  -1.690   3.163  11.600  0.6674 -1.5259 -0.7501
  610MOL0     H82309  -1.562   3.231  11.703  2.6871  0.9611 -1.8846
  610MOL0     H82310  -1.833   3.221  11.748  3.0652 -0.4710  0.6468
  610MOL0     H82311  -2.132   3.203  11.903 -0.4235  2.5605  1.9014
  610MOL0     H82312  -2.054   3.330  11.986 -1.6030 -1.2333  2.0399
  610MOL0     H82313  -2.020   3.307  11.819 -2.9359  1.8940  1.0511
  610MOL0     H82314  -2.231   2.822  12.216 -0.3004  1.2136 -1.0582
  610MOL0     H82315  -2.412   2.813  12.362  1.8915 -1.2156 -2.0611
  610MOL0     H82316  -2.604   2.931  12.446  1.2962  1.2772  0.5504
  610MOL0     H82317  -2.571   2.798  12.562 -2.7418 -0.4224 -0.1862
  610MOL0     H82318  -2.669   2.886  12.746 -1.3861 -2.1011 -1.9822
  610MOL0     H82319  -2.664   3.053  12.672 -0.1016  0.1629 -1.4540
  610MOL0     H82320  -2.868   3.002  12.544  1.3724  0.7841  1.5558
  610MOL0     H82321  -2.890   2.949  12.700 -0.1524 -1.6253 -0.3158
  610MOL0     H82322  -2.775   2.740  12.519 -0.1325  0.0840 -0.0333
  610MOL0     H82323  -2.864   2.721  12.662 -1.1956 -0.5107 -1.3735
  610MOL0     H82324  -2.987   2.821  12.397 -3.1501  0.4241 -0.8326
  610MOL0     H82325  -3.053   2.850  12.555  0.0776 -0.0629 -0.1475
  610MOL0     H82326  -3.079   2.613  12.605  1.3623 -3.9689 -0.8954
  610MOL0     H82327  -3.164   2.662  12.451 -0.2676 -2.5909 -2.8270
  610MOL0     H82328  -2.886   2.523  12.456  0.1925  1.0850 -0.1122
  610MOL0     H82329  -2.973   2.567  12.312 -0.7178  0.2137  0.0741
  610MOL0     H82330  -3.167   2.442  12.340  0.7439 -1.1723 -1.7905
  610MOL0     H82331  -3.116   2.374  12.497  2.4363 -3.0728 -0.8221
  610MOL0     H82332  -2.228   3.102  12.629  0.0450  2.0501 -1.4572
  610MOL0     H82333  -2.021   3.093  12.481 -0.8247  1.3851  0.7351
  610MOL0     H82334  -1.792   2.913  12.131 -1.6674  2.2772  2.2357
  610MOL0     H82335  -1.657   2.865  11.930 -0.8072 -1.0599 -2.0001
  610MOL0     H82336  -0.394   2.142  10.956  1.0326  1.1195  0.9076
  610MOL0     H82337  -0.139   2.166  10.947 -1.3420  1.1829  0.9714
  610MOL0     H82338   0.261   2.013  10.785 -0.3904  0.0908 -1.1101
  610MOL0     H82339   0.492   2.050  10.779  1.9621  1.2093 -0.3831
  610MOL0     H82340   0.710   2.113  10.804 -0.8144 -0.1202 -0.3384
  610MOL0     H82341   0.700   2.181  10.637  0.5497 -1.5127  0.6802
  610MOL0     H82342   0.893   2.249  10.854 -1.6419 -2.2357  0.1850
  610MOL0     H82343   0.837   2.368  10.746 -0.8965 -0.1872  0.7432
  610MOL0     H82344   0.996   2.283  10.600  0.3743 -0.7990 -0.0815
  610MOL0     H82345   0.892   2.143  10.567  1.7751 -1.8787  0.0573
  610MOL0     H82346   1.005   2.000  10.742  1.5940 -0.1489  0.9246
  610MOL0     H82347   1.091   2.141  10.798 -0.1444 -0.0949  0.3973
  610MOL0     H82348   1.338   2.034  10.486 -2.2887 -0.1451 -2.9636
  610MOL0     H82349   0.435   2.488  10.801  0.2676  1.1404 -1.5803
  610MOL0     H82350   0.187   2.431  10.822 -1.2234 -1.2521  1.1994
  611MOL0     O82351   7.693   2.656   5.731 -0.2333 -0.4867 -0.5477
  611MOL0     C82352   7.812   2.646   5.723 -0.1416  0.7874 -0.7195
  611MOL0     O82353   7.884   2.533   5.723  0.1046  0.3212 -0.9892
  611MOL0     C82354   7.802   2.420   5.754 -0.3109  0.0527 -0.8864
  611MOL0     C82355   7.780   2.386   5.888 -0.1554 -0.8575 -0.4393
  611MOL0     C82356   7.698   2.271   5.915 -0.0097 -0.1440  0.0870
  611MOL0     C82357   7.633   2.196   5.815 -0.6610  0.1106  0.0428
  611MOL0     O82358   7.571   2.081   5.848  0.7345  0.2567 -0.0252
  611MOL0     C82359   7.527   2.060   5.987 -0.4523  0.4844  0.0056
  611MOL0     C82360   7.492   1.908   6.008  0.3845  0.7315  0.1088
  611MOL0     C82361   7.481   1.868   6.157  0.1833 -0.3217  0.2163
  611MOL0     C82362   7.607   1.801   6.221  0.2482 -0.1977  0.4865
  611MOL0     C82363   7.578   1.762   6.370  0.3374  0.4088  0.6031
  611MOL0     C82364   7.582   1.884   6.466 -0.2193  0.3528 -0.7101
  611MOL0     C82365   7.541   1.856   6.614 -0.2758  0.2819  0.6271
  611MOL0     C82366   7.388   1.830   6.628  0.2149  0.2072  0.0565
  611MOL0     N82367   7.348   1.810   6.774 -0.3935  0.2908  0.4625
  611MOL0     C82368   7.391   1.866   6.891  0.9645  0.0923  0.2655
  611MOL0     C82369   7.308   1.823   6.991 -0.2553 -0.1121  0.3045
  611MOL0     C82370   7.323   1.849   7.137 -0.6373  0.2639  0.0343
  611MOL0     C82371   7.364   1.719   7.204  0.7547  0.2639  1.0887
  611MOL0     C82372   7.498   1.657   7.142 -0.6127 -0.1643  0.2913
  611MOL0     C82373   7.541   1.537   7.227  0.3260  0.1183  0.8924
  611MOL0     O82374   7.567   1.564   7.366  0.1869  0.2366  0.2849
  611MOL0     C82375   7.630   1.452   7.425 -0.0469  0.1972 -0.3888
  611MOL0     C82376   7.651   1.321   7.378 -0.6198 -0.6562  0.3584
  611MOL0     C82377   7.703   1.221   7.449 -0.3892 -0.9917 -0.0396
  611MOL0     C82378   7.737   1.098   7.376  0.4299 -0.6696  0.0203
  611MOL0     C82379   7.726   1.243   7.586 -0.4534 -0.5613  0.3397
  611MOL0     C82380   7.776   1.139   7.678 -0.7187 -1.0876 -0.3227
  611MOL0     O82381   7.733   1.007   7.664 -0.7166 -0.1517  0.6591
  611MOL0     C82382   7.802   0.919   7.744  0.2305  0.8227 -0.1968
  611MOL0     C82383   7.923   0.858   7.716 -0.7042  0.0932 -0.1539
  611MOL0     C82384   7.990   0.784   7.813  0.8660  0.6255  0.3532
  611MOL0     C82385   7.936   0.760   7.941  0.1272 -0.5062  0.5485
  611MOL0     O82386   7.993   0.683   8.035  0.2241 -0.2135 -0.5495
  611MOL0     C82387   8.125   0.619   8.010 -0.4598  0.6723  0.6365
  611MOL0     C82388   8.184   0.562   8.136  0.6044  0.0554  0.6476
  611MOL0     C82389   8.221   0.687   8.221 -0.2182 -0.3391 -0.4491
  611MOL0     C82390   8.337   0.655   8.314  0.3853  0.8393  0.0714
  611MOL0     C82391   8.376   0.763   8.409 -0.5358 -0.1724 -0.0811
  611MOL0     C82392   8.419   0.887   8.324  0.3340  0.8726 -0.2214
  611MOL0     C82393   8.529   0.859   8.215 -1.4102 -0.7136 -0.0546
  611MOL0     C82394   8.583   0.995   8.167 -0.7313 -0.6141 -0.6283
  611MOL0    Cl82395   8.645   1.102   8.300  0.1086  0.2181  0.2677
  611MOL0     C82396   7.808   0.805   7.961  1.1576 -0.2094 -0.1667
  611MOL0     C82397   7.744   0.887   7.865 -0.4849 -0.3634  0.5321
  611MOL0     O82398   7.863   1.174   7.752 -0.2995  0.6836 -0.0341
  611MOL0     C82399   7.696   1.362   7.651  0.3515 -1.1137 -0.3198
  611MOL0     C82400   7.654   1.466   7.562 -0.5931  0.0167 -0.5070
  611MOL0     N82401   7.226   1.732   6.931  1.0419 -0.1761  0.6737
  611MOL0     N82402   7.240   1.735   6.802 -0.6763 -0.3197  0.5935
  611MOL0     C82403   7.663   2.240   5.685  0.1477  0.2499 -0.0212
  611MOL0     C82404   7.740   2.356   5.650 -0.1762  0.2374 -0.2160
  611MOL0     C82405   7.888   2.769   5.707 -0.1319  0.0897  0.3407
  611MOL0     C82406   8.030   2.765   5.670  0.8597 -0.6917  0.0802
  611MOL0     C82407   8.096   2.882   5.637 -0.5841 -0.5708 -0.6233
  611MOL0     C82408   8.029   2.998   5.635  0.9983 -0.8190  0.4196
  611MOL0     O82409   8.082   3.120   5.593 -0.4239  0.1744  0.2043
  611MOL0     C82410   8.227   3.112   5.551  0.2950 -1.3761 -0.7200
  611MOL0     C82411   8.265   3.264   5.512  0.6432  0.1502  0.1817
  611MOL0     C82412   8.189   3.335   5.401 -0.6164 -0.6047  0.4067
  611MOL0     C82413   8.274   3.449   5.344 -0.3065  0.2271  0.3137
  611MOL0     C82414   8.205   3.522   5.233  0.6469 -0.1631 -1.4021
  611MOL0     C82415   8.147   3.588   5.143  0.5890 -0.2781 -0.2103
  611MOL0     C82416   7.893   3.012   5.656 -0.1200 -0.4430  0.4698
  611MOL0     C82417   7.819   2.901   5.705  0.1531  0.2351  1.7119
  611MOL0     H82418   7.817   2.451   5.966 -0.2188 -0.7053 -0.5343
  611MOL0     H82419   7.680   2.251   6.020 -1.1787  2.3832  0.4498
  611MOL0     H82420   7.600   2.079   6.066 -0.6307  0.2972  0.2157
  611MOL0     H82421   7.440   2.124   6.003 -1.2603 -0.5715 -0.0552
  611MOL0     H82422   7.403   1.873   5.954 -0.7839  1.4206  1.5115
  611MOL0     H82423   7.571   1.842   5.972  0.4849 -0.0093  1.6111
  611MOL0     H82424   7.464   1.952   6.226 -1.3981  0.1826 -0.7264
  611MOL0     H82425   7.394   1.802   6.167  0.4958 -0.5875  1.3379
  611MOL0     H82426   7.641   1.715   6.162  1.5708  1.7637 -1.7732
  611MOL0     H82427   7.689   1.874   6.226  1.9330 -2.0509  1.2990
  611MOL0     H82428   7.483   1.711   6.391  1.4288 -1.5104  1.1162
  611MOL0     H82429   7.656   1.692   6.399  0.7203  0.6529  0.1711
  611MOL0     H82430   7.680   1.932   6.472 -2.0092  4.2578  1.0999
  611MOL0     H82431   7.516   1.969   6.444  1.4737  3.0068  3.2219
  611MOL0     H82432   7.581   1.761   6.652 -0.5824 -0.6415 -1.2276
  611MOL0     H82433   7.571   1.944   6.670  1.2179 -1.5635  2.9203
  611MOL0     H82434   7.358   1.738   6.577  2.0635 -0.7943  0.6966
  611MOL0     H82435   7.338   1.920   6.592 -1.4882 -0.9584 -0.6218
  611MOL0     H82436   7.464   1.946   6.904 -1.7081  2.3577  2.6417
  611MOL0     H82437   7.390   1.932   7.162 -0.5737  0.8404 -1.9009
  611MOL0     H82438   7.221   1.872   7.170 -1.1658 -1.6504 -0.1376
  611MOL0     H82439   7.290   1.639   7.207  0.1238  0.6760 -1.5133
  611MOL0     H82440   7.372   1.750   7.309 -3.5554 -1.0777  2.0236
  611MOL0     H82441   7.580   1.730   7.140 -0.4706 -0.2986 -2.5722
  611MOL0     H82442   7.476   1.635   7.038 -0.7648  1.9379 -0.1788
  611MOL0     H82443   7.641   1.536   7.182  0.1422  0.5968  0.4636
  611MOL0     H82444   7.479   1.450   7.201  0.1756  0.9379 -1.8546
  611MOL0     H82445   7.628   1.302   7.273 -2.0569 -0.3548  0.6005
  611MOL0     H82446   7.766   1.122   7.273 -0.5419  0.4149 -0.0183
  611MOL0     H82447   7.825   1.054   7.425  0.9162  0.0514 -0.1897
  611MOL0     H82448   7.650   1.032   7.381  0.4013 -0.5486  1.8641
  611MOL0     H82449   7.966   0.880   7.619  4.4369  1.6887  2.1013
  611MOL0     H82450   8.084   0.745   7.774 -0.3290  0.9215 -3.1557
  611MOL0     H82451   8.114   0.540   7.935  2.8673  0.0563  0.6497
  611MOL0     H82452   8.197   0.694   7.977 -2.3120  2.4731  0.4905
  611MOL0     H82453   8.103   0.501   8.179  0.0068 -0.6920 -1.3735
  611MOL0     H82454   8.270   0.500   8.107 -0.1272 -0.1931 -1.1800
  611MOL0     H82455   8.134   0.726   8.274 -1.0862  1.7990 -3.2360
  611MOL0     H82456   8.253   0.768   8.156  2.7963 -1.9146 -1.1133
  611MOL0     H82457   8.293   0.572   8.370  0.3245  0.6706 -0.2260
  611MOL0     H82458   8.421   0.614   8.257  0.8092  2.4313 -0.5218
  611MOL0     H82459   8.456   0.733   8.477 -0.0438  0.1812 -0.4947
  611MOL0     H82460   8.290   0.780   8.474  0.3092  2.7908  0.4197
  611MOL0     H82461   8.334   0.927   8.268  1.0791 -0.2586 -2.2677
  611MOL0     H82462   8.449   0.962   8.398  0.2332  0.8244 -0.1300
  611MOL0     H82463   8.490   0.805   8.128  3.6271 -1.4331 -2.1923
  611MOL0     H82464   8.616   0.808   8.258  0.0459  1.5666 -0.0860
  611MOL0     H82465   8.503   1.053   8.119  0.6076  1.9574  0.0592
  611MOL0     H82466   8.661   0.987   8.091 -0.4249 -0.7926 -0.2953
  611MOL0     H82467   7.761   0.806   8.059  0.8731  1.9371 -0.2719
  611MOL0     H82468   7.649   0.936   7.885 -0.3254 -0.3925  1.4042
  611MOL0     H82469   7.713   1.393   7.753 -1.6030  4.2979 -1.2820
  611MOL0     H82470   7.622   1.555   7.615 -1.5741 -0.1935 -0.7267
  611MOL0     H82471   7.627   2.174   5.608 -0.3736 -0.6325  0.9532
  611MOL0     H82472   7.757   2.392   5.549  1.3629 -0.8298 -0.3648
  611MOL0     H82473   8.086   2.672   5.665 -0.0667 -1.2818  0.2574
  611MOL0     H82474   8.202   2.868   5.620 -0.2401 -0.6359  1.3422
  611MOL0     H82475   8.295   3.089   5.633  0.8038 -0.8123 -0.9795
  611MOL0     H82476   8.231   3.047   5.463  0.7365 -0.0112 -1.7496
  611MOL0     H82477   8.372   3.268   5.487  0.7952 -1.7406  0.3161
  611MOL0     H82478   8.248   3.321   5.603 -0.5503 -0.1061  0.1286
  611MOL0     H82479   8.095   3.375   5.442 -0.4144  2.0589 -1.4726
  611MOL0     H82480   8.151   3.269   5.323  1.6817  0.0100 -1.3402
  611MOL0     H82481   8.374   3.421   5.308  0.1298  2.0977 -0.0085
  611MOL0     H82482   8.296   3.520   5.424  2.9791  0.5551 -0.7407
  611MOL0     H82483   8.096   3.634   5.061 -0.4946 -0.0883  0.5429
  611MOL0     H82484   7.845   3.105   5.626  0.1509 -1.1003 -2.2100
  611MOL0     H82485   7.713   2.921   5.719  0.0717  0.5824  0.6780
  612MOL0     O82486   4.787   9.959   3.370  0.0373 -0.6203 -0.6030
  612MOL0     C82487   4.708  10.052   3.342  0.0344  0.9063  0.0529
  612MOL0     O82488   4.571  10.050   3.355 -0.2899  0.5472  0.1067
  612MOL0     C82489   4.510   9.935   3.400  0.4031 -0.0437 -0.5912
  612MOL0     C82490   4.425   9.860   3.321 -0.0006  0.3069 -0.2924
  612MOL0     C82491   4.361   9.737   3.364 -0.6788 -0.8332 -0.1854
  612MOL0     C82492   4.365   9.707   3.500 -0.6474  0.4918 -0.1024
  612MOL0     O82493   4.285   9.603   3.546  0.2197  0.1475 -1.0351
  612MOL0     C82494   4.137   9.609   3.524  0.2585 -0.5174 -0.0512
  612MOL0     C82495   4.078   9.509   3.616 -0.9944  0.4970 -0.3419
  612MOL0     C82496   4.096   9.540   3.764 -0.3037 -1.0719  0.2566
  612MOL0     C82497   4.093   9.408   3.838  0.3474 -0.3473  0.5488
  612MOL0     C82498   4.153   9.429   3.970 -0.0412 -0.0203  0.5879
  612MOL0     C82499   4.097   9.540   4.062  0.3749  0.1353  0.4913
  612MOL0     C82500   4.129   9.527   4.212 -0.5492  0.1807  0.1710
  612MOL0     C82501   4.015   9.444   4.283  0.4251  0.5262  0.9224
  612MOL0     N82502   4.064   9.339   4.366 -0.0244  0.5437  0.9266
  612MOL0     C82503   4.130   9.228   4.316 -0.1514 -0.5695  0.3567
  612MOL0     C82504   4.207   9.182   4.411  0.2639 -0.0376  0.4159
  612MOL0     C82505   4.288   9.059   4.390 -0.3521  0.2577  0.2338
  612MOL0     C82506   4.441   9.101   4.368 -0.9111  0.4087 -0.2627
  612MOL0     C82507   4.521   8.981   4.307 -0.5495  0.2040 -0.1206
  612MOL0     C82508   4.660   9.030   4.279  0.7555 -0.3146 -0.7564
  612MOL0     O82509   4.718   9.055   4.403  0.3391  0.0938  0.6940
  612MOL0     C82510   4.825   9.139   4.419 -0.0036  0.3813 -0.2354
  612MOL0     C82511   4.859   9.183   4.545  0.2843  0.6179 -0.3686
  612MOL0     C82512   4.983   9.255   4.558 -0.2982 -0.2562 -0.8274
  612MOL0     C82513   5.013   9.307   4.699  0.1145  0.2412 -0.3689
  612MOL0     C82514   5.070   9.285   4.450  0.4626  1.5063  0.7075
  612MOL0     C82515   5.207   9.366   4.459 -0.4272  0.0056 -0.1909
  612MOL0     O82516   5.252   9.405   4.338  0.4380 -0.0410  0.6593
  612MOL0     C82517   5.377   9.442   4.302 -0.5608 -0.4040  0.4701
  612MOL0     C82518   5.383   9.523   4.186  0.0246 -0.0132  0.9164
  612MOL0     C82519   5.509   9.554   4.129  0.2652  0.9171  0.2037
  612MOL0     C82520   5.627   9.502   4.187  0.4036  0.0386 -0.6868
  612MOL0     O82521   5.752   9.530   4.146 -0.4379 -0.1028  0.3139
  612MOL0     C82522   5.772   9.668   4.129 -0.8885  0.0223 -0.0070
  612MOL0     C82523   5.909   9.712   4.190 -0.2845 -0.6068 -0.3202
  612MOL0     C82524   5.921   9.668   4.332 -1.4596  0.7290 -0.5924
  612MOL0     C82525   6.048   9.713   4.400 -0.3937  0.4299  0.0666
  612MOL0     C82526   6.039   9.659   4.545  0.2394  0.0342  0.3540
  612MOL0     C82527   6.176   9.642   4.607 -0.3328  0.0926 -0.1591
  612MOL0     C82528   6.160   9.642   4.755 -0.4522  0.1084 -0.1407
  612MOL0     C82529   6.273   9.681   4.846 -1.1477  0.1877 -0.7032
  612MOL0    Cl82530   6.426   9.574   4.814 -0.3477 -0.1493 -0.0324
  612MOL0     C82531   5.628   9.432   4.306 -0.1863  0.4857 -1.1776
  612MOL0     C82532   5.501   9.398   4.362 -0.1051 -0.3284  0.6875
  612MOL0     O82533   5.271   9.376   4.564  0.6521  0.4230  0.5716
  612MOL0     C82534   5.021   9.249   4.322  0.4001  0.1935  0.2774
  612MOL0     C82535   4.909   9.177   4.309  0.3357 -0.6001 -0.1506
  612MOL0     N82536   4.184   9.255   4.519 -0.0636  0.1220 -0.3497
  612MOL0     N82537   4.101   9.354   4.491  0.0472 -0.9033 -0.2904
  612MOL0     C82538   4.446   9.773   3.586  0.3488 -0.2915 -0.1095
  612MOL0     C82539   4.519   9.887   3.534 -0.1097 -0.0159 -0.9948
  612MOL0     C82540   4.773  10.178   3.286  0.1265  0.1861  0.8578
  612MOL0     C82541   4.903  10.220   3.296 -0.0602  0.0153  0.5561
  612MOL0     C82542   4.952  10.332   3.227  1.1447 -1.5492 -0.0747
  612MOL0     C82543   4.868  10.421   3.159 -0.1110  0.6627 -0.5800
  612MOL0     O82544   4.913  10.545   3.110 -0.4622  0.1039  0.3292
  612MOL0     C82545   5.054  10.566   3.084 -0.5632  0.0078  0.2657
  612MOL0     C82546   5.048  10.709   3.018  0.2203  1.0591  0.6570
  612MOL0     C82547   5.194  10.743   2.999  0.1707 -0.5456  0.1240
  612MOL0     C82548   5.201  10.837   2.876 -0.6886  0.3211 -0.1058
  612MOL0     C82549   5.326  10.914   2.877 -0.4380  0.7666 -0.5992
  612MOL0     C82550   5.436  10.961   2.894  0.7232  0.0413 -0.5209
  612MOL0     C82551   4.731  10.395   3.174  0.1038 -0.2737 -0.0143
  612MOL0     C82552   4.694  10.273   3.213  0.4768 -0.2535  0.3983
  612MOL0     H82553   4.412   9.875   3.214 -1.2728 -2.4927 -0.6273
  612MOL0     H82554   4.306   9.677   3.293 -0.9797 -0.7049 -0.0671
  612MOL0     H82555   4.102   9.706   3.561  0.3330 -0.0757 -1.1188
  612MOL0     H82556   4.103   9.590   3.422 -2.4619 -0.0878  0.7146
  612MOL0     H82557   3.971   9.492   3.601 -1.1001  1.4096 -0.7028
  612MOL0     H82558   4.139   9.420   3.597  0.0318  0.8771  1.0012
  612MOL0     H82559   4.193   9.582   3.792 -1.3395 -1.0645  4.6699
  612MOL0     H82560   4.022   9.613   3.799 -1.7835 -0.1635 -4.1802
  612MOL0     H82561   3.992   9.370   3.860  0.0410  0.8409  1.3244
  612MOL0     H82562   4.155   9.337   3.784  0.7352  0.4005 -0.0058
  612MOL0     H82563   4.148   9.337   4.028  2.8985 -2.7034 -2.9690
  612MOL0     H82564   4.261   9.445   3.959 -0.2364  0.8974 -0.1865
  612MOL0     H82565   4.145   9.630   4.021 -0.2391  0.1191 -0.2962
  612MOL0     H82566   3.991   9.555   4.040 -0.0253  0.0955  2.3020
  612MOL0     H82567   4.220   9.468   4.199  0.0785  1.2378 -0.3527
  612MOL0     H82568   4.152   9.621   4.263 -0.0051  0.8896 -1.3063
  612MOL0     H82569   3.971   9.404   4.192  0.3292  2.7167 -0.0671
  612MOL0     H82570   3.940   9.502   4.338  1.8518 -0.5661  4.3392
  612MOL0     H82571   4.127   9.189   4.214  0.1696 -3.0276  1.2216
  612MOL0     H82572   4.277   8.989   4.474  1.9564  0.6874  0.9687
  612MOL0     H82573   4.252   9.005   4.302  0.8431 -0.0590 -0.0796
  612MOL0     H82574   4.492   9.142   4.456  0.0123 -0.4653 -0.3737
  612MOL0     H82575   4.461   9.177   4.291  0.8411 -0.3314 -0.5949
  612MOL0     H82576   4.481   8.944   4.212  0.0016 -0.6892 -0.0116
  612MOL0     H82577   4.529   8.900   4.380  0.3687  0.9020  0.5859
  612MOL0     H82578   4.659   9.118   4.214  3.0341 -0.7299 -1.4423
  612MOL0     H82579   4.715   8.949   4.231 -0.8975 -0.2862 -2.8217
  612MOL0     H82580   4.809   9.145   4.633  0.4686 -1.7094 -1.1974
  612MOL0     H82581   4.988   9.412   4.681  0.5855  0.5358  0.6156
  612MOL0     H82582   4.943   9.266   4.773  1.9028 -1.6123  0.3774
  612MOL0     H82583   5.116   9.292   4.733 -0.3621 -2.0563  0.2107
  612MOL0     H82584   5.295   9.565   4.138  0.1388 -1.5003 -0.7021
  612MOL0     H82585   5.523   9.609   4.036  1.4625 -0.6607 -0.6070
  612MOL0     H82586   5.758   9.704   4.027 -3.9761 -0.1017  0.2738
  612MOL0     H82587   5.704   9.729   4.189 -2.2392 -0.6960 -0.7356
  612MOL0     H82588   5.985   9.673   4.122 -0.2411 -0.9513 -0.0797
  612MOL0     H82589   5.913   9.820   4.201  2.4302 -0.6483 -0.2530
  612MOL0     H82590   5.913   9.559   4.334 -2.0532  0.7226 -1.9539
  612MOL0     H82591   5.835   9.702   4.391 -4.8155 -4.8922 -1.5312
  612MOL0     H82592   6.143   9.674   4.363  0.4791  1.3137  1.2821
  612MOL0     H82593   6.052   9.823   4.402 -4.0401  0.6749 -0.0253
  612MOL0     H82594   5.986   9.564   4.532  0.3653 -0.0239  0.2664
  612MOL0     H82595   5.968   9.726   4.595  0.7277  0.3589  0.6136
  612MOL0     H82596   6.221   9.552   4.563 -0.6899 -1.0786  1.7413
  612MOL0     H82597   6.229   9.731   4.572  0.1695  0.0753  0.5355
  612MOL0     H82598   6.122   9.546   4.792  0.7070 -0.4272 -0.3056
  612MOL0     H82599   6.079   9.714   4.772 -1.8165 -1.5915  0.9886
  612MOL0     H82600   6.249   9.691   4.952  0.9141 -1.5387  0.0015
  612MOL0     H82601   6.294   9.784   4.817 -0.4865 -1.0116 -5.2661
  612MOL0     H82602   5.729   9.403   4.334 -0.6537  2.2473  3.0051
  612MOL0     H82603   5.500   9.318   4.435 -1.2457 -0.1583  0.8793
  612MOL0     H82604   5.075   9.282   4.234  4.7725  0.7145  2.8505
  612MOL0     H82605   4.874   9.132   4.217 -2.2441 -2.0926  1.4272
  612MOL0     H82606   4.423   9.756   3.691 -1.1107 -2.1352 -0.6885
  612MOL0     H82607   4.569   9.944   3.611 -3.0224  1.0897  0.2148
  612MOL0     H82608   4.975  10.157   3.346 -0.2605 -1.0384 -0.4396
  612MOL0     H82609   5.057  10.354   3.236  0.8027  0.3078 -0.3212
  612MOL0     H82610   5.101  10.566   3.183 -0.5002  1.4905  0.2572
  612MOL0     H82611   5.098  10.492   3.016 -1.5472  0.2601 -0.6543
  612MOL0     H82612   5.010  10.786   3.086  2.2598  1.4845  1.3977
  612MOL0     H82613   4.993  10.700   2.924 -0.3380 -0.8840  1.1123
  612MOL0     H82614   5.268  10.664   2.990 -0.0864 -0.8735  0.8156
  612MOL0     H82615   5.229  10.796   3.088 -0.1562  0.6985 -0.4553
  612MOL0     H82616   5.118  10.909   2.882  0.5037  1.8670 -1.3385
  612MOL0     H82617   5.187  10.775   2.787 -3.7686 -0.1534  0.5728
  612MOL0     H82618   5.532  11.000   2.924 -0.2971  1.8273  0.6000
  612MOL0     H82619   4.675  10.473   3.124  1.2832  0.2307 -0.5813
  612MOL0     H82620   4.589  10.254   3.190  0.0836  1.6307  0.4493
  613MOL0     O82621   0.649   9.620   7.361 -0.0058  0.4950 -0.1010
  613MOL0     C82622   0.752   9.678   7.320  0.2288  0.1888 -0.7640
  613MOL0     O82623   0.738   9.794   7.251 -1.4142  0.9832 -0.1617
  613MOL0     C82624   0.618   9.826   7.196 -0.1826 -0.1915 -0.6434
  613MOL0     C82625   0.566   9.957   7.218  0.1342 -0.5304  0.2296
  613MOL0     C82626   0.450   9.998   7.153  0.2086  0.4882  0.4088
  613MOL0     C82627   0.383   9.914   7.068 -0.2024 -0.8103  0.2983
  613MOL0     O82628   0.286   9.955   6.976 -0.3032  0.2567 -0.0673
  613MOL0     C82629   0.289  10.086   6.931 -0.7076  0.0401 -0.5895
  613MOL0     C82630   0.264  10.088   6.777  0.0177  0.1628 -0.3755
  613MOL0     C82631   0.272  10.222   6.712 -1.1081  0.4384 -0.2180
  613MOL0     C82632   0.195  10.341   6.777 -0.0690  0.5909  0.1170
  613MOL0     C82633   0.133  10.427   6.665  0.1213 -0.2659  0.0263
  613MOL0     C82634   0.211  10.543   6.602 -0.3549 -0.6545  0.5323
  613MOL0     C82635   0.118  10.637   6.515 -0.3933 -0.6200  0.0800
  613MOL0     C82636   0.202  10.732   6.442 -0.1206 -0.4019 -0.3048
  613MOL0     N82637   0.297  10.817   6.518  0.1354  0.0751 -0.3028
  613MOL0     C82638   0.414  10.775   6.573  0.7080  0.3184  0.1479
  613MOL0     C82639   0.446  10.858   6.667 -0.9262 -0.8706 -0.1320
  613MOL0     C82640   0.573  10.856   6.758 -0.2195 -0.2531  0.4778
  613MOL0     C82641   0.632  10.710   6.780 -0.2253  0.1816  0.4047
  613MOL0     C82642   0.737  10.698   6.887 -0.5869  0.2149 -0.2820
  613MOL0     C82643   0.861  10.783   6.877  0.8163 -0.4730  0.4125
  613MOL0     O82644   0.846  10.922   6.912  0.0453  0.2419  0.3648
  613MOL0     C82645   0.955  11.009   6.889 -0.3577  0.2598 -0.7821
  613MOL0     C82646   0.946  11.137   6.946  0.7254  0.4216 -0.0824
  613MOL0     C82647   1.044  11.227   6.931  0.0166 -0.6766  0.1467
  613MOL0     C82648   1.017  11.352   7.007  0.0142  0.4157 -0.7254
  613MOL0     C82649   1.160  11.204   6.849 -0.7371  0.5433  0.3527
  613MOL0     C82650   1.288  11.286   6.851  0.2612  0.6075 -0.4217
  613MOL0     O82651   1.374  11.247   6.753 -0.4226 -1.0146 -0.4274
  613MOL0     C82652   1.499  11.306   6.754  0.4311 -0.9509  1.4356
  613MOL0     C82653   1.561  11.340   6.633 -0.0979  0.5066  0.3116
  613MOL0     C82654   1.684  11.405   6.627  0.3277  0.1912  0.0089
  613MOL0     C82655   1.738  11.439   6.758  0.1216  0.3045 -0.7421
  613MOL0     O82656   1.859  11.496   6.786  0.0438  0.3922  0.0168
  613MOL0     C82657   1.906  11.591   6.693  0.4718 -0.4231 -1.1564
  613MOL0     C82658   2.031  11.659   6.724  0.2585  0.4223 -0.1656
  613MOL0     C82659   2.151  11.566   6.711  0.3295 -0.6155 -0.3369
  613MOL0     C82660   2.271  11.608   6.809 -0.0802  1.0011 -0.1909
  613MOL0     C82661   2.375  11.500   6.810  0.1726  0.0921 -0.1115
  613MOL0     C82662   2.484  11.536   6.903  0.8190 -0.7650  0.1764
  613MOL0     C82663   2.574  11.417   6.942  0.5835  0.1115 -0.1040
  613MOL0     C82664   2.632  11.340   6.827 -0.5675 -0.2575  0.5511
  613MOL0    Cl82665   2.763  11.250   6.906  0.3164  0.0738 -0.1373
  613MOL0     C82666   1.691  11.374   6.876 -0.0828  0.2685  0.8290
  613MOL0     C82667   1.571  11.314   6.867  0.3286  0.2443 -0.5888
  613MOL0     O82668   1.296  11.382   6.924  0.1907 -0.6563 -0.0958
  613MOL0     C82669   1.168  11.073   6.798  0.1763 -0.3923  0.1083
  613MOL0     C82670   1.068  10.982   6.813 -0.5590 -0.4008 -0.2307
  613MOL0     N82671   0.352  10.966   6.669 -0.3262 -0.9384 -0.3684
  613MOL0     N82672   0.255  10.934   6.589  0.6972  0.3718  0.2387
  613MOL0     C82673   0.422   9.781   7.056  0.3912  0.7383  0.3628
  613MOL0     C82674   0.547   9.739   7.111 -0.4038  0.4995 -0.6023
  613MOL0     C82675   0.882   9.632   7.369  0.4537 -0.3607 -0.4139
  613MOL0     C82676   0.893   9.567   7.491 -0.5094  0.8706 -0.4037
  613MOL0     C82677   1.017   9.517   7.531  0.0254  0.5511  0.1441
  613MOL0     C82678   1.129   9.536   7.451 -0.5916  0.6644 -0.2660
  613MOL0     O82679   1.254   9.490   7.483  0.0070 -0.3871 -0.3330
  613MOL0     C82680   1.290   9.469   7.627  1.5458  0.3421  0.6763
  613MOL0     C82681   1.257   9.322   7.673 -0.5327 -0.0298  0.7643
  613MOL0     C82682   1.326   9.293   7.803 -0.5806 -0.1959  0.2952
  613MOL0     C82683   1.356   9.405   7.901  0.0900  0.0981  0.0351
  613MOL0     C82684   1.446   9.366   8.009 -0.5635  0.2664  0.5095
  613MOL0     C82685   1.514   9.336   8.103 -0.0265  0.1583 -0.5480
  613MOL0     C82686   1.117   9.605   7.332 -0.4974 -1.0100 -0.0094
  613MOL0     C82687   1.000   9.651   7.293 -0.8520 -0.0487  0.3484
  613MOL0     H82688   0.614  10.026   7.287  2.1022 -0.4548 -1.1185
  613MOL0     H82689   0.402  10.096   7.156 -2.4795 -0.5978 -2.2365
  613MOL0     H82690   0.206  10.148   6.967 -0.2311 -0.4019  1.3955
  613MOL0     H82691   0.383  10.139   6.951 -0.1573 -0.7252 -1.0767
  613MOL0     H82692   0.333  10.021   6.724 -1.7775 -2.2301  0.1234
  613MOL0     H82693   0.164  10.050   6.753 -1.1778  3.2003 -0.6429
  613MOL0     H82694   0.377  10.231   6.680 -1.1478 -0.9245 -0.8389
  613MOL0     H82695   0.231  10.199   6.613 -0.0420 -2.5002 -0.0776
  613MOL0     H82696   0.124  10.304   6.852  0.9024 -0.4553  0.5579
  613MOL0     H82697   0.274  10.397   6.829 -1.1011  1.5871  0.6417
  613MOL0     H82698   0.098  10.370   6.578  0.2528 -0.1955 -0.0741
  613MOL0     H82699   0.043  10.478   6.701 -0.5927  0.3888 -2.4638
  613MOL0     H82700   0.251  10.609   6.679 -1.3340  4.1564 -2.6535
  613MOL0     H82701   0.303  10.505   6.557 -0.3117  0.9039 -0.8018
  613MOL0     H82702   0.068  10.582   6.434  0.7898  0.7747 -1.6794
  613MOL0     H82703   0.049  10.690   6.581 -0.0282 -1.8899  1.5325
  613MOL0     H82704   0.139  10.799   6.382 -0.5809 -1.8717 -1.5372
  613MOL0     H82705   0.273  10.688   6.371 -2.4623  0.5862 -3.4973
  613MOL0     H82706   0.471  10.692   6.532 -0.4972  1.4157 -4.2547
  613MOL0     H82707   0.647  10.926   6.719 -2.8571  1.4418 -1.9133
  613MOL0     H82708   0.546  10.887   6.860 -3.0374 -1.1428  0.0914
  613MOL0     H82709   0.676  10.668   6.689 -0.1826  0.4576  0.2957
  613MOL0     H82710   0.549  10.650   6.816 -2.3579  2.3191 -0.6287
  613MOL0     H82711   0.763  10.593   6.869 -0.6122  0.2306 -0.4180
  613MOL0     H82712   0.691  10.714   6.985  0.6311  1.8190  0.0705
  613MOL0     H82713   0.904  10.776   6.776 -0.4883  2.8104 -0.4865
  613MOL0     H82714   0.938  10.734   6.938  0.5021  0.9340  2.0144
  613MOL0     H82715   0.847  11.164   6.980  0.3847 -1.6420  0.6794
  613MOL0     H82716   0.910  11.368   7.020  0.1538  0.3213  0.7348
  613MOL0     H82717   1.070  11.351   7.103 -0.4964 -2.0182 -0.3889
  613MOL0     H82718   1.052  11.442   6.957 -0.7672  1.7847  1.0962
  613MOL0     H82719   1.503  11.341   6.542 -0.7375  0.5139  0.7132
  613MOL0     H82720   1.735  11.437   6.537 -0.8913  0.9751 -0.4247
  613MOL0     H82721   1.919  11.538   6.598  1.0949 -1.9745 -0.2578
  613MOL0     H82722   1.833  11.671   6.682 -1.1609 -1.8409 -1.1412
  613MOL0     H82723   2.025  11.730   6.641  1.1564  1.5672  0.7141
  613MOL0     H82724   2.025  11.705   6.823 -0.5014  1.2039 -0.5670
  613MOL0     H82725   2.190  11.566   6.609 -0.0584  1.7074 -0.5607
  613MOL0     H82726   2.121  11.465   6.741  0.6933 -0.6179  0.0286
  613MOL0     H82727   2.323  11.696   6.771  0.8620  0.6457  0.2577
  613MOL0     H82728   2.236  11.629   6.911 -2.5804  2.0869 -1.1850
  613MOL0     H82729   2.417  11.482   6.711  2.7423  0.0802  0.9003
  613MOL0     H82730   2.332  11.405   6.840 -1.8169  0.8773 -0.3433
  613MOL0     H82731   2.546  11.617   6.864 -3.0044  1.1198 -2.7575
  613MOL0     H82732   2.440  11.577   6.994  2.2623  0.3868  0.3960
  613MOL0     H82733   2.522  11.343   7.003  0.6020 -3.0475 -3.5095
  613MOL0     H82734   2.659  11.452   7.001 -1.4913  3.4115  1.2116
  613MOL0     H82735   2.684  11.406   6.757 -0.0948  0.2836  1.4013
  613MOL0     H82736   2.571  11.269   6.769  0.1734 -2.3609  2.2133
  613MOL0     H82737   1.754  11.376   6.964  2.7809  2.9626 -1.0371
  613MOL0     H82738   1.543  11.271   6.963 -0.4948 -1.0897 -1.3856
  613MOL0     H82739   1.253  11.035   6.742  0.5866 -0.9055  1.0498
  613MOL0     H82740   1.091  10.883   6.775  0.6695 -0.4621  0.6310
  613MOL0     H82741   0.373   9.717   6.984  0.4818  0.2441  0.7300
  613MOL0     H82742   0.589   9.643   7.085  0.8584  0.9832 -0.4168
  613MOL0     H82743   0.802   9.560   7.549 -1.9200  4.4895 -1.9123
  613MOL0     H82744   1.022   9.467   7.627 -0.0695  0.1386 -0.0675
  613MOL0     H82745   1.397   9.490   7.633  1.7083 -0.7840  3.1266
  613MOL0     H82746   1.239   9.540   7.692  1.3646  2.6394 -1.8044
  613MOL0     H82747   1.295   9.261   7.590 -0.1314  0.4016  0.6278
  613MOL0     H82748   1.150   9.308   7.692 -1.2085  2.6546 -0.5408
  613MOL0     H82749   1.421   9.251   7.767 -1.1582 -1.1859 -0.1077
  613MOL0     H82750   1.264   9.216   7.850 -0.4552  0.5630  1.7555
  613MOL0     H82751   1.265   9.451   7.941  0.8716  1.6930  0.0439
  613MOL0     H82752   1.402   9.487   7.845 -1.1313 -1.3073 -3.2287
  613MOL0     H82753   1.575   9.314   8.189  3.6551  1.6102 -2.5443
  613MOL0     H82754   1.205   9.644   7.281 -0.9164  1.9034  1.3218
  613MOL0     H82755   0.990   9.683   7.190 -3.0535 -1.0894  0.1690
  614MOL0     O82756   1.465   5.736   2.021  0.3889 -0.2217  0.4885
  614MOL0     C82757   1.502   5.750   1.903 -0.0980 -0.2170 -0.5090
  614MOL0     O82758   1.451   5.676   1.800  0.1387  0.0251  0.8140
  614MOL0     C82759   1.342   5.595   1.809 -0.2710 -0.0199 -0.0150
  614MOL0     C82760   1.234   5.613   1.895 -0.3504 -0.1171 -0.1402
  614MOL0     C82761   1.139   5.512   1.912  0.1534 -0.9826  0.1141
  614MOL0     C82762   1.124   5.415   1.822 -0.2645  0.1383  0.6406
  614MOL0     O82763   1.007   5.347   1.832 -0.2483 -0.4216 -0.4507
  614MOL0     C82764   0.974   5.226   1.762  0.5475 -0.2251 -0.7774
  614MOL0     C82765   0.843   5.155   1.813  0.2246 -0.0781  0.3136
  614MOL0     C82766   0.707   5.233   1.803 -0.2270 -0.0026  0.2742
  614MOL0     C82767   0.650   5.247   1.655  0.2240  0.3484  0.6604
  614MOL0     C82768   0.505   5.297   1.679  0.1853  0.3192 -0.4841
  614MOL0     C82769   0.413   5.254   1.573  0.3681 -0.0234 -0.1053
  614MOL0     C82770   0.271   5.269   1.620 -0.8338 -0.0950  0.2426
  614MOL0     C82771   0.176   5.232   1.510 -0.0220 -1.2724 -0.0468
  614MOL0     N82772   0.040   5.281   1.544  0.0558 -0.6458  0.0216
  614MOL0     C82773  -0.015   5.393   1.498  0.3925  0.1681  0.1490
  614MOL0     C82774  -0.127   5.421   1.575 -0.4699  0.7406 -0.0056
  614MOL0     C82775  -0.225   5.531   1.560 -0.2515 -0.3894  0.2117
  614MOL0     C82776  -0.178   5.667   1.506 -0.5920 -0.3740  0.6282
  614MOL0     C82777  -0.100   5.753   1.612  0.5522 -0.0144 -0.5459
  614MOL0     C82778  -0.169   5.904   1.648  0.7477  0.4834 -0.7237
  614MOL0     O82779  -0.105   5.980   1.752  0.2011 -0.4093 -0.4647
  614MOL0     C82780   0.025   6.032   1.735 -0.0737  0.3828  0.2552
  614MOL0     C82781   0.069   6.112   1.624  0.1133 -0.0040 -0.2083
  614MOL0     C82782   0.195   6.164   1.609  0.7243  0.1409  0.1123
  614MOL0     C82783   0.209   6.251   1.488 -0.5238  0.6007 -0.0834
  614MOL0     C82784   0.289   6.141   1.717 -0.0002  0.2088 -0.7207
  614MOL0     C82785   0.432   6.193   1.729 -0.6142 -0.6903  0.9238
  614MOL0     O82786   0.503   6.197   1.843  0.3061 -0.3800 -0.8858
  614MOL0     C82787   0.615   6.276   1.847  1.0384 -0.9218 -0.5429
  614MOL0     C82788   0.740   6.244   1.799  0.5392  0.1342  0.4635
  614MOL0     C82789   0.851   6.328   1.819 -0.4730 -0.3464  0.1116
  614MOL0     C82790   0.837   6.452   1.880  0.4745  0.0865 -0.0170
  614MOL0     O82791   0.945   6.533   1.905  0.0587  0.6715 -0.3157
  614MOL0     C82792   1.035   6.551   1.795 -0.1886  0.9862 -0.4705
  614MOL0     C82793   1.105   6.685   1.778  0.0290 -0.1739  0.7624
  614MOL0     C82794   0.994   6.795   1.769  0.1789 -0.4757 -1.0664
  614MOL0     C82795   0.919   6.809   1.633 -0.4629 -0.4160 -0.0632
  614MOL0     C82796   0.994   6.892   1.537  0.3532 -0.2340 -0.0875
  614MOL0     C82797   0.914   6.903   1.408 -0.3010 -0.7941  0.2256
  614MOL0     C82798   1.008   6.942   1.284  0.2995  0.6935  0.4205
  614MOL0     C82799   0.974   6.865   1.159  0.2904 -0.0173  0.3561
  614MOL0    Cl82800   0.817   6.914   1.098 -0.2632  0.0464 -0.6658
  614MOL0     C82801   0.713   6.486   1.936 -0.0202 -0.4139 -0.0046
  614MOL0     C82802   0.603   6.403   1.921 -0.0239  0.5128  0.3118
  614MOL0     O82803   0.472   6.254   1.632  0.3963  0.5104  0.0473
  614MOL0     C82804   0.241   6.070   1.833 -0.3946 -0.2851 -0.6568
  614MOL0     C82805   0.114   6.008   1.840  0.2083  0.3281 -0.2115
  614MOL0     N82806  -0.136   5.312   1.657 -0.5129 -0.2409 -0.2462
  614MOL0     N82807  -0.047   5.231   1.642 -0.4022  1.3626  0.0465
  614MOL0     C82808   1.223   5.403   1.722 -0.5058  0.4792 -0.0397
  614MOL0     C82809   1.338   5.481   1.724  0.3496 -0.1851  1.2553
  614MOL0     C82810   1.601   5.854   1.873 -1.6237 -0.4279 -0.7748
  614MOL0     C82811   1.636   5.897   1.748  0.5294  0.2614 -0.3149
  614MOL0     C82812   1.739   5.999   1.729 -0.7933  0.3055 -0.6631
  614MOL0     C82813   1.801   6.051   1.841 -0.1010  0.0124 -0.1656
  614MOL0     O82814   1.914   6.130   1.818  0.2938 -0.3575  0.4688
  614MOL0     C82815   2.041   6.076   1.862 -1.1708  0.1922  0.6776
  614MOL0     C82816   2.130   6.114   1.745  0.5573 -0.4789 -0.1572
  614MOL0     C82817   2.187   6.253   1.754 -0.8128  0.3809 -0.5763
  614MOL0     C82818   2.334   6.252   1.817 -0.4774  0.7902 -0.7935
  614MOL0     C82819   2.374   6.387   1.851  0.2476  0.0745  0.3669
  614MOL0     C82820   2.412   6.495   1.871 -0.6137  0.3940 -0.1097
  614MOL0     C82821   1.769   6.008   1.965  0.1949 -0.7615  0.3502
  614MOL0     C82822   1.674   5.907   1.983 -0.3718 -0.7367 -0.1196
  614MOL0     H82823   1.233   5.699   1.960  0.7641  0.6554 -1.1029
  614MOL0     H82824   1.062   5.535   1.984  1.1779 -1.5233  1.4187
  614MOL0     H82825   0.950   5.248   1.658 -0.0532  1.0834 -0.3903
  614MOL0     H82826   1.061   5.162   1.778  1.2822  1.2443  1.8225
  614MOL0     H82827   0.833   5.060   1.761 -2.0679 -1.2656  2.7115
  614MOL0     H82828   0.864   5.119   1.914  2.3664  1.1180  0.3717
  614MOL0     H82829   0.630   5.188   1.867 -2.3193  4.9967  1.8429
  614MOL0     H82830   0.705   5.335   1.844 -0.2349  0.0976  0.0294
  614MOL0     H82831   0.693   5.302   1.571 -3.2772 -1.1124 -2.3631
  614MOL0     H82832   0.650   5.148   1.608  0.1576  1.3690 -1.6087
  614MOL0     H82833   0.453   5.276   1.773 -2.8616  2.9235 -1.4194
  614MOL0     H82834   0.516   5.404   1.662  0.6840  0.3593  0.0539
  614MOL0     H82835   0.432   5.319   1.487  1.7216  3.6721  2.7065
  614MOL0     H82836   0.417   5.149   1.545 -1.5853 -0.1172 -0.2267
  614MOL0     H82837   0.252   5.209   1.709 -0.4528  1.1045  1.1500
  614MOL0     H82838   0.264   5.376   1.639  3.1849  0.3120  0.4150
  614MOL0     H82839   0.172   5.124   1.491 -0.5165 -1.6263  1.9039
  614MOL0     H82840   0.204   5.284   1.418 -0.7406 -0.1246  0.3735
  614MOL0     H82841   0.018   5.460   1.419 -3.4951  0.2733 -1.6561
  614MOL0     H82842  -0.303   5.497   1.491  0.0400  0.9458 -0.8261
  614MOL0     H82843  -0.288   5.551   1.647 -1.2116 -1.5470 -0.1893
  614MOL0     H82844  -0.271   5.721   1.486 -0.4795  0.3773  1.9919
  614MOL0     H82845  -0.119   5.651   1.415 -3.5752 -1.7884 -1.2258
  614MOL0     H82846  -0.000   5.775   1.573  1.2689 -1.4967  0.3643
  614MOL0     H82847  -0.090   5.688   1.699  0.0643  0.2365 -0.3002
  614MOL0     H82848  -0.274   5.890   1.675  1.1673  0.3555  0.9552
  614MOL0     H82849  -0.162   5.965   1.557  2.1327  0.7319 -0.4731
  614MOL0     H82850   0.005   6.139   1.540  0.3069 -2.0741 -1.0740
  614MOL0     H82851   0.309   6.234   1.448  0.6114  2.2605  1.9042
  614MOL0     H82852   0.137   6.227   1.409 -0.6037  1.2150 -0.2017
  614MOL0     H82853   0.203   6.358   1.507  2.4885  0.6329  1.1270
  614MOL0     H82854   0.759   6.147   1.754 -1.1151  0.0546 -0.1286
  614MOL0     H82855   0.950   6.302   1.783 -0.8662 -0.9687 -0.5457
  614MOL0     H82856   1.113   6.477   1.813  1.2098  2.4219 -0.3809
  614MOL0     H82857   0.978   6.528   1.704 -2.6303 -1.8868  1.5982
  614MOL0     H82858   1.170   6.714   1.860 -1.2354  1.3495  1.2822
  614MOL0     H82859   1.164   6.687   1.686 -0.4791 -1.8599  0.3628
  614MOL0     H82860   1.034   6.891   1.804 -0.2314 -1.1834  1.6354
  614MOL0     H82861   0.915   6.778   1.843  0.4815 -3.4172 -1.2820
  614MOL0     H82862   0.890   6.713   1.588  0.4853 -1.7271  1.9653
  614MOL0     H82863   0.833   6.875   1.647  2.4153  3.7370 -0.1146
  614MOL0     H82864   1.097   6.858   1.525  1.3807  2.3469  0.7023
  614MOL0     H82865   1.007   6.994   1.575 -1.4775 -0.3542  0.9707
  614MOL0     H82866   0.855   6.814   1.384 -0.3498 -0.4725 -0.9135
  614MOL0     H82867   0.840   6.984   1.416  1.6917  0.9925  1.8090
  614MOL0     H82868   1.112   6.917   1.310  0.4557 -3.3509 -2.9619
  614MOL0     H82869   1.000   7.049   1.261  1.8906  0.9542  0.9128
  614MOL0     H82870   0.981   6.758   1.183  1.0825  0.2640  1.4511
  614MOL0     H82871   1.054   6.879   1.086  0.9147  1.6271  1.2994
  614MOL0     H82872   0.706   6.586   1.978 -1.6864 -0.4977  0.0035
  614MOL0     H82873   0.504   6.431   1.956 -0.5360 -1.6480  0.7534
  614MOL0     H82874   0.295   6.056   1.926  1.8041  0.3418 -1.7794
  614MOL0     H82875   0.066   5.957   1.923 -1.3232 -0.8613 -1.7342
  614MOL0     H82876   1.236   5.320   1.653  2.2712  2.4279 -2.0441
  614MOL0     H82877   1.422   5.452   1.661 -0.2036  1.1926 -0.1719
  614MOL0     H82878   1.592   5.864   1.655 -1.2143  1.8475 -0.1212
  614MOL0     H82879   1.759   6.032   1.627 -4.1368  0.7732 -1.2821
  614MOL0     H82880   2.094   6.124   1.945 -2.2431  0.4726  1.2272
  614MOL0     H82881   2.037   5.969   1.885  1.4815  0.9111  6.2073
  614MOL0     H82882   2.070   6.117   1.654 -1.0794  1.1605  0.8998
  614MOL0     H82883   2.212   6.045   1.726  1.7258  0.1267  2.3090
  614MOL0     H82884   2.131   6.321   1.819 -0.2932  1.7954 -1.5637
  614MOL0     H82885   2.211   6.288   1.653  2.0889  3.5658  1.0237
  614MOL0     H82886   2.397   6.200   1.744  0.1690 -0.0648  0.3451
  614MOL0     H82887   2.343   6.189   1.905  1.4688 -0.2470 -1.6744
  614MOL0     H82888   2.453   6.589   1.900  1.0934 -0.6253  0.9676
  614MOL0     H82889   1.820   6.053   2.049  0.8625 -2.6527  1.0033
  614MOL0     H82890   1.650   5.877   2.085 -1.8814  0.5814 -0.0466
  615MOL0     O82891   3.435   4.965   5.947 -0.0398  0.4127  0.7548
  615MOL0     C82892   3.336   4.897   5.937  0.1456  0.9744  0.2981
  615MOL0     O82893   3.296   4.827   5.824 -0.3583 -0.3103  0.5469
  615MOL0     C82894   3.349   4.860   5.701 -0.0886  0.7238 -0.3808
  615MOL0     C82895   3.274   4.911   5.593  0.1725  1.0078  0.8108
  615MOL0     C82896   3.335   4.928   5.468  0.7521  0.0549 -0.1962
  615MOL0     C82897   3.475   4.899   5.466  1.0700 -0.3502  0.6976
  615MOL0     O82898   3.539   4.904   5.342  0.4965 -0.5995  0.1180
  615MOL0     C82899   3.670   4.852   5.312  1.0434  0.4019 -0.4140
  615MOL0     C82900   3.689   4.846   5.155  0.0006  0.0866  0.9249
  615MOL0     C82901   3.586   4.753   5.096  0.6110  0.2324  0.5855
  615MOL0     C82902   3.652   4.699   4.961  0.0082 -0.5138 -0.6542
  615MOL0     C82903   3.555   4.634   4.863  0.0420 -0.9563 -0.0675
  615MOL0     C82904   3.554   4.487   4.875 -0.8096 -0.5593 -0.5781
  615MOL0     C82905   3.441   4.409   4.812  0.6311 -0.3178 -0.0062
  615MOL0     C82906   3.430   4.253   4.815 -0.5437  0.4174 -0.2196
  615MOL0     N82907   3.310   4.197   4.764  0.2996 -0.6764  0.0557
  615MOL0     C82908   3.283   4.152   4.638  0.4999 -0.2709 -0.2438
  615MOL0     C82909   3.161   4.091   4.641 -0.5787  0.4411  0.8493
  615MOL0     C82910   3.094   4.026   4.530  0.3439  0.1541  0.2387
  615MOL0     C82911   2.988   4.108   4.446  0.1147  0.0257  0.4678
  615MOL0     C82912   2.863   4.129   4.535 -0.0290  0.7270 -1.1153
  615MOL0     C82913   2.746   4.186   4.452 -0.1237 -0.5344 -0.1147
  615MOL0     O82914   2.789   4.314   4.403 -0.0764 -0.0868 -0.1510
  615MOL0     C82915   2.705   4.388   4.320  0.3141 -0.6288 -0.4634
  615MOL0     C82916   2.765   4.510   4.281  0.4439  0.8136  1.1580
  615MOL0     C82917   2.712   4.579   4.170 -1.4477  0.5775  0.0978
  615MOL0     C82918   2.801   4.702   4.127 -0.0724 -0.3307 -0.5398
  615MOL0     C82919   2.585   4.546   4.128  0.1739  0.7729  0.8821
  615MOL0     C82920   2.508   4.627   4.028 -0.0631  0.4203  1.0731
  615MOL0     O82921   2.376   4.599   4.018  0.0175  0.0988  0.0115
  615MOL0     C82922   2.314   4.627   3.898  0.1319 -0.0297 -0.0985
  615MOL0     C82923   2.359   4.601   3.769 -0.5601  0.3120 -0.1648
  615MOL0     C82924   2.279   4.621   3.652 -0.3549 -0.5181 -0.8201
  615MOL0     C82925   2.155   4.678   3.660 -0.5147  0.1235 -0.1819
  615MOL0     O82926   2.081   4.692   3.542 -0.3154 -0.3573  0.8956
  615MOL0     C82927   1.956   4.762   3.549  0.5713  0.0250 -0.8979
  615MOL0     C82928   1.878   4.745   3.411 -0.1308  0.4147  0.5010
  615MOL0     C82929   1.736   4.806   3.426  0.3343 -0.4109  0.4863
  615MOL0     C82930   1.649   4.797   3.302 -0.5432 -0.4274 -0.5590
  615MOL0     C82931   1.506   4.854   3.320 -0.4567  0.2731 -0.6046
  615MOL0     C82932   1.415   4.805   3.205  0.0095  0.8183 -0.4767
  615MOL0     C82933   1.260   4.827   3.227 -0.0839  0.7395  0.9097
  615MOL0     C82934   1.179   4.762   3.105 -0.1848 -0.1496 -0.6205
  615MOL0    Cl82935   1.033   4.863   3.064 -0.4488  0.2157 -0.4575
  615MOL0     C82936   2.108   4.701   3.797 -0.2036 -0.0525  0.5511
  615MOL0     C82937   2.184   4.674   3.911  1.0444  0.4900  0.0375
  615MOL0     O82938   2.565   4.704   3.950 -0.5698  0.5344  0.3305
  615MOL0     C82939   2.514   4.430   4.183  0.4262  0.1839 -0.2412
  615MOL0     C82940   2.585   4.345   4.269 -0.0655 -0.4466 -0.9292
  615MOL0     N82941   3.108   4.116   4.767  0.2295  0.2994  0.3220
  615MOL0     N82942   3.196   4.171   4.836  0.1645 -0.2831 -0.2396
  615MOL0     C82943   3.546   4.859   5.577 -0.3603 -0.3401  0.0021
  615MOL0     C82944   3.487   4.837   5.693  0.8432  0.0673  0.9295
  615MOL0     C82945   3.252   4.894   6.053  1.4034 -0.1313  0.1736
  615MOL0     C82946   3.111   4.875   6.038 -0.8244  0.0951 -0.0166
  615MOL0     C82947   3.021   4.890   6.145  0.3964  0.3187  0.5278
  615MOL0     C82948   3.071   4.929   6.269  0.2723 -0.2310  0.0387
  615MOL0     O82949   2.972   4.959   6.363 -0.1813 -0.0557  0.6949
  615MOL0     C82950   3.011   5.029   6.486 -0.6868  0.2930  0.0377
  615MOL0     C82951   3.071   4.930   6.582 -0.0448  1.1046 -0.2521
  615MOL0     C82952   2.967   4.875   6.679  0.1569  0.5780  0.2769
  615MOL0     C82953   3.000   4.735   6.726 -0.3331  0.4502  0.5408
  615MOL0     C82954   2.890   4.694   6.824  0.4002  0.8829 -0.7726
  615MOL0     C82955   2.803   4.643   6.891 -0.0177  0.3558  0.5144
  615MOL0     C82956   3.214   4.943   6.283  1.2680  0.6107 -0.2821
  615MOL0     C82957   3.311   4.923   6.174 -0.7865 -0.2128 -0.2680
  615MOL0     H82958   3.166   4.921   5.602 -0.2698 -3.0894  2.2706
  615MOL0     H82959   3.281   4.951   5.377  3.5713  1.8407 -1.5468
  615MOL0     H82960   3.751   4.915   5.352  1.1269 -1.0703  1.9337
  615MOL0     H82961   3.688   4.750   5.347 -2.6530 -0.2491 -0.0216
  615MOL0     H82962   3.673   4.945   5.110  5.0143  1.4403  1.5887
  615MOL0     H82963   3.792   4.813   5.142 -0.4498 -0.4942 -1.8902
  615MOL0     H82964   3.581   4.663   5.158  4.1158  0.0515  0.7957
  615MOL0     H82965   3.489   4.801   5.076  1.8096  2.0778 -1.1397
  615MOL0     H82966   3.692   4.783   4.902  1.0056 -1.4529 -1.3610
  615MOL0     H82967   3.739   4.638   4.987 -0.2031 -0.5163  0.0513
  615MOL0     H82968   3.455   4.676   4.880  0.4873 -0.7778  2.5577
  615MOL0     H82969   3.597   4.654   4.764  3.0598 -2.8038  0.7175
  615MOL0     H82970   3.642   4.459   4.817 -0.5096  2.9791 -2.0780
  615MOL0     H82971   3.555   4.459   4.980  0.0457  1.9418  0.1459
  615MOL0     H82972   3.344   4.443   4.851  1.2497 -0.7836  2.0971
  615MOL0     H82973   3.432   4.441   4.708 -2.5737 -2.7571 -0.6515
  615MOL0     H82974   3.436   4.217   4.918  1.8976 -3.9458 -1.6180
  615MOL0     H82975   3.521   4.213   4.769 -0.4610  1.0255 -0.5880
  615MOL0     H82976   3.334   4.165   4.543 -2.4115  0.7279 -1.7871
  615MOL0     H82977   3.168   3.990   4.458 -1.3183 -1.1729 -0.8917
  615MOL0     H82978   3.045   3.934   4.565  0.8481  0.3897  1.5868
  615MOL0     H82979   2.964   4.055   4.354  0.7756  2.0701 -0.9547
  615MOL0     H82980   3.044   4.200   4.425 -3.5753  3.0477  2.6213
  615MOL0     H82981   2.894   4.193   4.618  1.1836 -2.2447  0.8861
  615MOL0     H82982   2.839   4.028   4.569 -1.0740 -0.5847 -5.1265
  615MOL0     H82983   2.661   4.218   4.513  0.0243  1.8695 -1.0651
  615MOL0     H82984   2.712   4.116   4.375 -2.4703  0.0984  0.2582
  615MOL0     H82985   2.858   4.538   4.329  0.3522 -0.3509  2.0390
  615MOL0     H82986   2.737   4.784   4.161 -1.3332 -2.0467  1.4593
  615MOL0     H82987   2.899   4.704   4.175  0.2558  0.2417 -1.2155
  615MOL0     H82988   2.808   4.703   4.018 -2.8050 -1.0099 -0.7951
  615MOL0     H82989   2.455   4.554   3.748 -0.4578 -0.1166  1.1780
  615MOL0     H82990   2.316   4.585   3.556 -0.3541 -2.5195 -0.1231
  615MOL0     H82991   1.892   4.721   3.628  2.1222  1.9940  1.5462
  615MOL0     H82992   1.958   4.869   3.572  1.6029 -0.1134 -0.2650
  615MOL0     H82993   1.932   4.796   3.331 -1.4961  0.3718 -0.4912
  615MOL0     H82994   1.878   4.643   3.373  2.8923  0.9171 -1.1769
  615MOL0     H82995   1.737   4.907   3.469  0.2946 -1.5278  3.2869
  615MOL0     H82996   1.689   4.740   3.500 -1.0211  0.8383  0.8019
  615MOL0     H82997   1.695   4.832   3.209 -1.6186 -2.5046 -1.9519
  615MOL0     H82998   1.631   4.691   3.283 -1.5528 -0.2740 -0.5479
  615MOL0     H82999   1.512   4.963   3.318  1.0619  0.2227  0.0541
  615MOL0     H83000   1.463   4.831   3.418 -1.3986  0.3257 -0.9882
  615MOL0     H83001   1.441   4.857   3.113 -2.0180  2.2264 -0.3227
  615MOL0     H83002   1.420   4.697   3.192 -1.7018 -0.2677  5.0456
  615MOL0     H83003   1.245   4.935   3.223 -0.5598  0.8921  4.2078
  615MOL0     H83004   1.216   4.788   3.319 -2.7702  2.0019  0.2596
  615MOL0     H83005   1.133   4.665   3.126 -3.6186  1.4717  0.1591
  615MOL0     H83006   1.226   4.754   3.007 -1.6505  0.0680 -1.3721
  615MOL0     H83007   2.012   4.750   3.815 -0.5420 -0.4562 -0.1631
  615MOL0     H83008   2.129   4.699   4.001 -0.9666  3.0957 -1.7455
  615MOL0     H83009   2.410   4.419   4.157  0.2150  2.2785 -0.4695
  615MOL0     H83010   2.543   4.249   4.299  0.5957 -0.5441 -0.2747
  615MOL0     H83011   3.651   4.835   5.565 -0.1467  1.7051 -3.5484
  615MOL0     H83012   3.538   4.797   5.780 -1.0053 -1.3131  1.4601
  615MOL0     H83013   3.073   4.843   5.941  1.2976 -0.9947 -0.5783
  615MOL0     H83014   2.913   4.880   6.133  0.6842 -1.3003 -1.1440
  615MOL0     H83015   3.088   5.102   6.461 -1.6356  0.9878 -0.9380
  615MOL0     H83016   2.927   5.072   6.542 -1.5460 -2.0631  0.6777
  615MOL0     H83017   3.137   4.980   6.653  0.5957 -3.5679  2.9009
  615MOL0     H83018   3.137   4.853   6.541 -1.0826 -0.0951  0.2840
  615MOL0     H83019   2.866   4.881   6.638 -0.4136 -2.7758  0.9320
  615MOL0     H83020   2.974   4.939   6.768  2.8031 -0.1878  0.6803
  615MOL0     H83021   3.094   4.739   6.783  1.0965  0.6371 -1.6998
  615MOL0     H83022   2.998   4.669   6.639  2.2118  1.3711 -0.3315
  615MOL0     H83023   2.714   4.610   6.941 -1.2150  1.3399 -0.8862
  615MOL0     H83024   3.264   4.984   6.370 -0.2049  1.1033  0.3672
  615MOL0     H83025   3.418   4.942   6.184 -1.4600  3.4213  1.5669
  616MOL0     O83026   5.833   6.322   8.772 -0.2133 -0.3872  0.3784
  616MOL0     C83027   5.906   6.275   8.683 -0.3858  0.3141 -0.4223
  616MOL0     O83028   5.863   6.246   8.556 -0.6279  1.1562  0.3495
  616MOL0     C83029   5.731   6.256   8.528  0.1452  0.0935 -0.6396
  616MOL0     C83030   5.695   6.357   8.439 -0.4828 -0.5560 -1.1559
  616MOL0     C83031   5.564   6.385   8.410  0.7930  0.5690 -0.0515
  616MOL0     C83032   5.461   6.308   8.472 -0.2807 -0.5192 -0.6161
  616MOL0     O83033   5.328   6.328   8.459 -0.1624  0.4054 -0.2595
  616MOL0     C83034   5.276   6.454   8.409  0.4238 -0.8446 -0.3638
  616MOL0     C83035   5.138   6.483   8.459 -0.1493 -0.0066  0.8985
  616MOL0     C83036   5.065   6.597   8.389 -0.1004  0.0361  0.3102
  616MOL0     C83037   4.929   6.610   8.444  0.0200 -0.3694 -0.4602
  616MOL0     C83038   4.823   6.678   8.359 -0.4623 -0.3800 -1.0991
  616MOL0     C83039   4.850   6.817   8.289  0.1871 -0.2404 -0.7396
  616MOL0     C83040   4.718   6.863   8.238  0.9433 -1.0362 -0.0512
  616MOL0     C83041   4.722   7.013   8.197 -0.1386 -1.1095  0.1782
  616MOL0     N83042   4.591   7.073   8.219 -0.2993  0.4742  0.5723
  616MOL0     C83043   4.552   7.155   8.328  0.3681  0.1465  0.1372
  616MOL0     C83044   4.419   7.181   8.307 -0.1992  0.9995  0.3673
  616MOL0     C83045   4.334   7.258   8.413  0.3861 -0.0265 -0.3581
  616MOL0     C83046   4.187   7.243   8.412  0.4406 -0.0305  0.8809
  616MOL0     C83047   4.112   7.285   8.275 -0.4429 -0.5142 -0.4405
  616MOL0     C83048   3.959   7.312   8.317  0.1346 -0.3222  0.1678
  616MOL0     O83049   3.907   7.193   8.375 -0.4342 -1.2093 -0.4313
  616MOL0     C83050   3.772   7.158   8.344  0.5115  0.0168  0.4171
  616MOL0     C83051   3.673   7.243   8.300  0.5618  0.2272  0.2684
  616MOL0     C83052   3.543   7.208   8.270  0.5367 -0.7285  0.5554
  616MOL0     C83053   3.438   7.318   8.233 -0.3189 -0.1394  0.5444
  616MOL0     C83054   3.502   7.070   8.293 -1.0169 -0.6178  0.1728
  616MOL0     C83055   3.363   7.028   8.274  0.4619  0.4286  0.6921
  616MOL0     O83056   3.263   7.114   8.284 -0.5852 -0.0254 -0.0045
  616MOL0     C83057   3.138   7.086   8.340 -0.3702  0.5775  0.3757
  616MOL0     C83058   3.049   7.196   8.363  0.1379  0.0312 -0.3256
  616MOL0     C83059   2.916   7.186   8.421  0.5092 -0.9236  0.0224
  616MOL0     C83060   2.864   7.068   8.463  0.8637  0.1804 -0.7570
  616MOL0     O83061   2.738   7.045   8.518 -0.9338  0.3158 -0.1157
  616MOL0     C83062   2.644   7.145   8.485  0.0466  0.7607  0.6440
  616MOL0     C83063   2.511   7.078   8.548 -0.7274 -0.4834  0.6066
  616MOL0     C83064   2.389   7.165   8.518 -0.1579  0.0274  0.5172
  616MOL0     C83065   2.259   7.112   8.574  0.3049  0.4988 -0.0358
  616MOL0     C83066   2.253   7.087   8.726  0.0473 -0.2779 -0.0740
  616MOL0     C83067   2.270   7.223   8.808  0.7205  0.8939 -0.1844
  616MOL0     C83068   2.235   7.209   8.961  0.5498 -0.6351  0.1852
  616MOL0     C83069   2.344   7.136   9.036  0.1965 -0.0721  0.1988
  616MOL0    Cl83070   2.509   7.134   8.993  0.2155 -0.1767  0.1894
  616MOL0     C83071   2.954   6.957   8.443  1.6521 -0.6172  0.1646
  616MOL0     C83072   3.080   6.963   8.384 -0.5703 -0.3529  0.2524
  616MOL0     O83073   3.351   6.907   8.253 -0.1907  0.3126 -0.3395
  616MOL0     C83074   3.608   6.977   8.313  1.0641  1.2223 -0.6377
  616MOL0     C83075   3.740   7.016   8.343 -0.3581  0.3731 -0.4810
  616MOL0     N83076   4.377   7.111   8.194  0.7674 -0.0153  0.0702
  616MOL0     N83077   4.478   7.046   8.145 -0.5122  0.0378 -0.5395
  616MOL0     C83078   5.492   6.195   8.550 -0.7322 -0.4530  1.0652
  616MOL0     C83079   5.632   6.177   8.577 -0.2366  0.1863  0.4349
  616MOL0     C83080   6.051   6.254   8.710 -0.4527  1.2599  0.3123
  616MOL0     C83081   6.085   6.183   8.820  0.4547 -0.1286  0.3186
  616MOL0     C83082   6.222   6.154   8.847  1.2945  1.1118  0.1562
  616MOL0     C83083   6.320   6.186   8.755 -0.0156 -0.6846 -0.1315
  616MOL0     O83084   6.447   6.156   8.779  0.2599  0.3457  0.2655
  616MOL0     C83085   6.483   6.059   8.879  0.1135  0.4072 -0.5314
  616MOL0     C83086   6.618   6.020   8.862 -0.3076  0.3174  0.2133
  616MOL0     C83087   6.656   5.912   8.964  0.0238 -0.2908  0.5582
  616MOL0     C83088   6.794   5.854   8.932 -0.1127  0.9359 -0.2911
  616MOL0     C83089   6.831   5.762   9.041  0.3172  0.0021  0.0525
  616MOL0     C83090   6.844   5.663   9.109 -0.8885 -0.4257 -0.7587
  616MOL0     C83091   6.279   6.249   8.639  0.1354  0.9086  0.8339
  616MOL0     C83092   6.147   6.286   8.612 -0.1781 -0.3582 -1.0579
  616MOL0     H83093   5.782   6.410   8.402 -0.8573  2.5925  1.9511
  616MOL0     H83094   5.535   6.472   8.352  0.5382  1.1185  0.8813
  616MOL0     H83095   5.336   6.541   8.435 -1.3651  1.0974 -2.3059
  616MOL0     H83096   5.271   6.452   8.299  1.3726 -2.0936 -0.4126
  616MOL0     H83097   5.076   6.394   8.446 -1.1096  0.9498 -1.9828
  616MOL0     H83098   5.144   6.499   8.567  1.5098  3.8761  0.4115
  616MOL0     H83099   5.122   6.690   8.401  0.5005  0.0195 -2.1066
  616MOL0     H83100   5.049   6.572   8.284  0.5012  0.6907  0.0559
  616MOL0     H83101   4.884   6.512   8.461 -1.4780  0.5826  1.3925
  616MOL0     H83102   4.931   6.660   8.541  0.6771 -0.7799 -0.2589
  616MOL0     H83103   4.790   6.606   8.283  3.9388 -3.4979 -0.4843
  616MOL0     H83104   4.742   6.684   8.432  1.6298  1.3130  1.2590
  616MOL0     H83105   4.888   6.888   8.362  0.9959 -0.4186 -0.9821
  616MOL0     H83106   4.920   6.789   8.209 -0.0584 -1.3996 -0.5762
  616MOL0     H83107   4.703   6.812   8.142  0.7396  0.2702 -0.7493
  616MOL0     H83108   4.634   6.842   8.304 -1.4102  2.8723 -1.4369
  616MOL0     H83109   4.751   7.021   8.092 -0.1171  0.4091  0.2896
  616MOL0     H83110   4.784   7.072   8.265  0.6482 -1.8702  0.1489
  616MOL0     H83111   4.608   7.201   8.409 -0.7016  0.5735  0.6567
  616MOL0     H83112   4.375   7.238   8.513  0.5766 -2.5715 -0.8992
  616MOL0     H83113   4.343   7.364   8.388 -1.4393  1.0748  3.0057
  616MOL0     H83114   4.146   7.299   8.496  0.7199 -0.2031  1.1352
  616MOL0     H83115   4.158   7.143   8.445 -1.2018  1.4312  4.2905
  616MOL0     H83116   4.121   7.207   8.198  0.4599 -0.1141 -0.7472
  616MOL0     H83117   4.146   7.378   8.228 -1.6712  1.2445  1.9509
  616MOL0     H83118   3.902   7.318   8.224  0.2953 -3.1380 -0.1773
  616MOL0     H83119   3.948   7.405   8.374  0.8082 -0.2811  0.2390
  616MOL0     H83120   3.684   7.351   8.287  3.3542 -0.0170 -0.1220
  616MOL0     H83121   3.376   7.351   8.317 -1.2266  4.6968 -1.6544
  616MOL0     H83122   3.492   7.408   8.202 -0.4748 -0.5887 -1.1688
  616MOL0     H83123   3.386   7.276   8.146  0.3983  2.3823 -1.2301
  616MOL0     H83124   3.090   7.296   8.350  3.2515 -1.1180 -0.0590
  616MOL0     H83125   2.869   7.282   8.440  2.9254  0.1882  0.7584
  616MOL0     H83126   2.684   7.230   8.540 -0.9330 -0.9032  4.2638
  616MOL0     H83127   2.646   7.167   8.378  2.1463 -4.4946 -0.7482
  616MOL0     H83128   2.504   6.984   8.492  0.4671  0.9274 -2.0628
  616MOL0     H83129   2.530   7.058   8.654  0.9467  2.0754  0.8817
  616MOL0     H83130   2.363   7.159   8.412 -3.8741 -3.1361  1.3961
  616MOL0     H83131   2.422   7.264   8.552  4.1871 -0.6093 -1.2805
  616MOL0     H83132   2.191   7.195   8.553 -1.0437 -1.0033 -1.9465
  616MOL0     H83133   2.248   7.012   8.531  0.0777  0.4969  0.0267
  616MOL0     H83134   2.324   7.011   8.759  2.0572  1.7401  0.4961
  616MOL0     H83135   2.151   7.049   8.742  0.2092 -0.8986 -0.4920
  616MOL0     H83136   2.371   7.263   8.794  0.5543  2.7785  2.8979
  616MOL0     H83137   2.207   7.299   8.761  1.8383  2.2716  0.4513
  616MOL0     H83138   2.133   7.174   8.978  0.1397  1.2451  1.9176
  616MOL0     H83139   2.226   7.310   9.001  2.0420 -0.2642 -0.3416
  616MOL0     H83140   2.315   7.031   9.025 -2.5142  0.4253  1.6102
  616MOL0     H83141   2.345   7.147   9.145 -2.7195 -0.4469  0.3432
  616MOL0     H83142   2.912   6.859   8.464  0.3863 -0.2420 -0.5047
  616MOL0     H83143   3.122   6.864   8.368 -1.3309 -0.3992 -1.7285
  616MOL0     H83144   3.595   6.871   8.331  0.3434  1.4921  0.5563
  616MOL0     H83145   3.820   6.947   8.368  0.2585  0.7016 -1.4673
  616MOL0     H83146   5.412   6.138   8.596  1.4713 -1.6593  3.6757
  616MOL0     H83147   5.667   6.098   8.643  0.0274 -2.4064 -2.5621
  616MOL0     H83148   6.002   6.164   8.888 -0.8102 -0.8599 -1.3653
  616MOL0     H83149   6.235   6.091   8.935 -2.4194  0.9246  0.7147
  616MOL0     H83150   6.483   6.097   8.981 -0.8868  1.0379 -0.7436
  616MOL0     H83151   6.416   5.972   8.874  1.0120 -0.2593 -1.7030
  616MOL0     H83152   6.677   6.112   8.862 -1.8624  1.3754 -1.2149
  616MOL0     H83153   6.643   5.981   8.763  1.3511  0.8421  0.4070
  616MOL0     H83154   6.580   5.833   8.969  0.4468 -0.8557 -1.2819
  616MOL0     H83155   6.674   5.951   9.065  3.3194 -1.1187  0.3776
  616MOL0     H83156   6.867   5.930   8.903 -0.6104  1.0811 -1.1805
  616MOL0     H83157   6.774   5.785   8.849  0.0376 -3.7651  3.1210
  616MOL0     H83158   6.842   5.576   9.172  0.9733  0.0635  0.0504
  616MOL0     H83159   6.359   6.268   8.568 -1.9213 -1.9978 -2.6057
  616MOL0     H83160   6.122   6.339   8.521 -1.2299 -0.3701 -0.7967
  617MOL0     O83161   0.895   8.917   6.257 -0.3490  0.2487 -0.0210
  617MOL0     C83162   0.973   8.969   6.184 -0.0943 -0.7600 -0.3571
  617MOL0     O83163   0.947   9.081   6.098  0.0378  0.2330 -0.2489
  617MOL0     C83164   0.831   9.152   6.084  0.8065  0.2503  0.2083
  617MOL0     C83165   0.703   9.131   6.147 -0.3542 -0.2139  0.9891
  617MOL0     C83166   0.589   9.192   6.099 -0.0274 -0.6757 -0.2770
  617MOL0     C83167   0.592   9.275   5.987  0.6331  0.5430 -0.4325
  617MOL0     O83168   0.486   9.343   5.933  0.3378  0.5486  0.6978
  617MOL0     C83169   0.403   9.426   6.014  0.9632  0.3828  0.3587
  617MOL0     C83170   0.261   9.364   6.035  0.0436 -0.5949  0.3903
  617MOL0     C83171   0.171   9.379   5.912 -0.6315  0.8976 -0.3650
  617MOL0     C83172   0.136   9.523   5.884  0.8284 -0.0619  0.0029
  617MOL0     C83173   0.022   9.529   5.776 -0.5908 -0.0728 -0.5517
  617MOL0     C83174   0.024   9.665   5.705  0.4504  0.3253  0.0527
  617MOL0     C83175  -0.012   9.656   5.559 -0.5320  0.1516  0.2813
  617MOL0     C83176  -0.160   9.651   5.542  0.7763  0.5448  0.0873
  617MOL0     N83177  -0.206   9.663   5.402  0.2084 -0.4318 -0.5513
  617MOL0     C83178  -0.267   9.780   5.346  0.3016  0.0502 -0.2919
  617MOL0     C83179  -0.280   9.744   5.213 -0.3454 -0.3414 -0.5354
  617MOL0     C83180  -0.343   9.842   5.111  0.5477  0.0849  1.2847
  617MOL0     C83181  -0.490   9.788   5.063 -0.4054 -0.1713  0.2204
  617MOL0     C83182  -0.532   9.861   4.926 -0.3760 -0.2884  0.1988
  617MOL0     C83183  -0.680   9.830   4.897  0.0688 -0.5914  0.1386
  617MOL0     O83184  -0.728   9.912   4.789 -0.1876 -1.1739 -0.8700
  617MOL0     C83185  -0.863   9.937   4.765  0.5428  0.0839 -0.2209
  617MOL0     C83186  -0.891  10.046   4.679  0.0293  0.0670  0.3806
  617MOL0     C83187  -1.026  10.087   4.652  0.0244  0.2904  0.5329
  617MOL0     C83188  -1.035  10.202   4.557 -0.0384 -0.2909  0.0294
  617MOL0     C83189  -1.135  10.011   4.698  0.4795 -0.5172  0.1941
  617MOL0     C83190  -1.283  10.044   4.675  0.0173  0.3808  0.9381
  617MOL0     O83191  -1.372   9.988   4.754  0.0410  0.3874  0.4016
  617MOL0     C83192  -1.505   9.987   4.720  0.0206 -0.2447 -0.7692
  617MOL0     C83193  -1.590  10.061   4.809 -0.2290  0.7005  0.1642
  617MOL0     C83194  -1.724  10.070   4.770 -0.9919  0.3402 -0.0710
  617MOL0     C83195  -1.773  10.017   4.653 -0.7271  0.9583  0.5964
  617MOL0     O83196  -1.899  10.018   4.611  0.3480 -0.0945 -0.7215
  617MOL0     C83197  -2.000  10.076   4.696 -0.3087 -0.0311 -0.0162
  617MOL0     C83198  -2.131  10.059   4.625 -0.4692  0.0650  0.5925
  617MOL0     C83199  -2.137  10.134   4.494  0.1751  0.2152  0.0268
  617MOL0     C83200  -2.277  10.134   4.437  0.2358 -0.1094  0.1058
  617MOL0     C83201  -2.286  10.216   4.304 -0.4080  0.5287  1.1030
  617MOL0     C83202  -2.420  10.190   4.225  0.3646  0.2780 -0.4045
  617MOL0     C83203  -2.394  10.247   4.088  0.3796  0.4543  0.0758
  617MOL0     C83204  -2.519  10.241   3.995 -0.4014 -0.6965 -0.8155
  617MOL0    Cl83205  -2.566  10.074   3.973 -0.1796  0.1366 -0.0415
  617MOL0     C83206  -1.682   9.956   4.563  0.0202  0.7650  0.3944
  617MOL0     C83207  -1.550   9.927   4.607 -0.1022  0.2095  0.1539
  617MOL0     O83208  -1.311  10.113   4.578  0.3600 -0.2456 -0.1215
  617MOL0     C83209  -1.103   9.902   4.791 -0.2932 -0.2008  0.2066
  617MOL0     C83210  -0.975   9.872   4.827 -0.6321  1.5597 -0.1466
  617MOL0     N83211  -0.227   9.617   5.182  0.5626 -0.2110 -0.4949
  617MOL0     N83212  -0.182   9.574   5.297 -0.2960 -0.1667  0.4350
  617MOL0     C83213   0.713   9.296   5.925 -0.2014 -0.0291 -0.1512
  617MOL0     C83214   0.833   9.236   5.965  0.1682 -0.2272 -0.8573
  617MOL0     C83215   1.102   8.908   6.172  0.2959  0.4839 -0.0057
  617MOL0     C83216   1.207   8.966   6.094  0.3476  0.6662  1.6114
  617MOL0     C83217   1.333   8.905   6.089 -0.4704  0.2973  0.7523
  617MOL0     C83218   1.366   8.790   6.154  0.5287 -0.2474  0.1533
  617MOL0     O83219   1.494   8.740   6.155  0.6375  0.5001 -0.6093
  617MOL0     C83220   1.567   8.766   6.282 -0.0006  0.6253 -0.2671
  617MOL0     C83221   1.634   8.905   6.277  0.1006  0.4798 -0.5694
  617MOL0     C83222   1.722   8.942   6.161 -0.0936  0.4175 -0.1497
  617MOL0     C83223   1.763   9.083   6.140  0.7715  0.5041 -0.0119
  617MOL0     C83224   1.880   9.111   6.228  1.1354  0.2435  0.0730
  617MOL0     C83225   1.978   9.132   6.291 -0.1582 -1.0655 -0.0683
  617MOL0     C83226   1.258   8.721   6.227 -0.3955 -0.7502 -0.4351
  617MOL0     C83227   1.131   8.792   6.243  0.4725  0.7684 -0.2443
  617MOL0     H83228   0.703   9.061   6.230  0.0288 -2.2650 -0.6649
  617MOL0     H83229   0.489   9.179   6.140 -1.9090  1.4683 -3.7005
  617MOL0     H83230   0.449   9.442   6.112 -1.2992  5.3307  0.9240
  617MOL0     H83231   0.392   9.530   5.982 -1.0114 -0.1739 -0.9819
  617MOL0     H83232   0.260   9.256   6.054  2.1107 -1.5237 -3.5951
  617MOL0     H83233   0.213   9.424   6.113  3.0000  2.6506 -0.0474
  617MOL0     H83234   0.230   9.332   5.833 -0.4530 -1.4438  1.0850
  617MOL0     H83235   0.079   9.323   5.934 -0.4349  0.6439 -0.1809
  617MOL0     H83236   0.102   9.581   5.970  1.0410 -1.2195  0.8970
  617MOL0     H83237   0.220   9.581   5.844  0.3088  0.3275 -0.5233
  617MOL0     H83238   0.041   9.443   5.711  3.0265  1.7416 -2.1502
  617MOL0     H83239  -0.076   9.500   5.816  0.6882 -2.4031  1.1505
  617MOL0     H83240  -0.043   9.732   5.760  1.0113 -0.0022  1.1655
  617MOL0     H83241   0.123   9.713   5.707 -0.3337  2.0148  0.1184
  617MOL0     H83242   0.007   9.749   5.505  0.2644  0.5205  1.1809
  617MOL0     H83243   0.046   9.578   5.509  1.6710  0.5546  2.0785
  617MOL0     H83244  -0.201   9.741   5.589 -1.3243  0.6068 -1.7162
  617MOL0     H83245  -0.208   9.559   5.575  1.3673 -0.1361 -0.8834
  617MOL0     H83246  -0.309   9.863   5.401 -1.1210 -0.7600 -0.1120
  617MOL0     H83247  -0.350   9.937   5.165  2.0291  1.4944 -0.8514
  617MOL0     H83248  -0.284   9.856   5.020 -1.3425  0.6868  0.0642
  617MOL0     H83249  -0.547   9.829   5.146  2.9715  5.8753  0.1598
  617MOL0     H83250  -0.498   9.679   5.057  0.5437 -0.2004 -4.2849
  617MOL0     H83251  -0.472   9.828   4.841  0.8375 -0.7954  1.2105
  617MOL0     H83252  -0.531   9.968   4.945 -0.0217 -0.4297  1.0089
  617MOL0     H83253  -0.724   9.855   4.994  0.7665  2.5782 -0.2463
  617MOL0     H83254  -0.678   9.724   4.868  3.4468  0.1033 -2.9444
  617MOL0     H83255  -0.812  10.110   4.640 -1.8529  1.4249 -1.4388
  617MOL0     H83256  -0.950  10.270   4.547  1.7607 -2.0405  2.3373
  617MOL0     H83257  -1.038  10.171   4.452 -0.5781 -0.5774  0.1219
  617MOL0     H83258  -1.122  10.266   4.574  0.6707  0.5013  0.7394
  617MOL0     H83259  -1.550  10.087   4.906  1.1766 -0.4864 -0.0710
  617MOL0     H83260  -1.784  10.123   4.843  1.2999  1.5096  1.0851
  617MOL0     H83261  -1.998  10.029   4.795  0.9262  1.5081  0.7376
  617MOL0     H83262  -1.985  10.184   4.710  0.2734 -0.0616 -0.3533
  617MOL0     H83263  -2.159   9.954   4.612 -0.4582  0.1351 -0.0077
  617MOL0     H83264  -2.212  10.092   4.691  0.8922 -1.1735  3.0023
  617MOL0     H83265  -2.072  10.078   4.426 -1.4990  0.1090 -1.5401
  617MOL0     H83266  -2.111  10.237   4.518 -1.3669 -0.0008  3.0823
  617MOL0     H83267  -2.317  10.033   4.425 -1.7944  0.7592 -1.0241
  617MOL0     H83268  -2.337  10.176   4.518 -1.7342 -1.9913 -0.2633
  617MOL0     H83269  -2.200  10.179   4.249 -0.9279  0.7511  0.1188
  617MOL0     H83270  -2.271  10.323   4.322  1.5814  0.1192  2.1141
  617MOL0     H83271  -2.468  10.092   4.215 -4.3824  1.9303  2.5065
  617MOL0     H83272  -2.492  10.254   4.278 -0.7234 -1.0664 -0.2106
  617MOL0     H83273  -2.320  10.178   4.047 -0.5398 -3.3221  4.0468
  617MOL0     H83274  -2.345  10.344   4.101 -0.2550  0.8210 -0.2126
  617MOL0     H83275  -2.495  10.286   3.899  0.3146  2.6294  0.7798
  617MOL0     H83276  -2.597  10.302   4.041 -1.6852 -0.9236 -2.5981
  617MOL0     H83277  -1.712   9.920   4.465  0.0483  0.5955  0.4468
  617MOL0     H83278  -1.472   9.872   4.554 -1.3278 -0.5819 -0.8821
  617MOL0     H83279  -1.183   9.843   4.834  1.1864 -1.9384  0.6492
  617MOL0     H83280  -0.977   9.784   4.891 -1.9774  2.3328  0.9134
  617MOL0     H83281   0.713   9.351   5.831 -0.8933 -0.6670 -0.5478
  617MOL0     H83282   0.919   9.243   5.899 -0.6579 -1.2832 -2.1085
  617MOL0     H83283   1.199   9.057   6.036  2.0566 -1.1576 -1.7287
  617MOL0     H83284   1.411   8.956   6.034 -0.4498 -0.7240 -0.2056
  617MOL0     H83285   1.505   8.751   6.370  1.3728  0.4654  0.7063
  617MOL0     H83286   1.646   8.690   6.288  0.5634  0.8498 -3.2070
  617MOL0     H83287   1.691   8.908   6.370  1.9918  1.0367 -1.6704
  617MOL0     H83288   1.561   8.986   6.286 -2.9613 -2.2782  1.9824
  617MOL0     H83289   1.674   8.908   6.069 -2.0356  1.5189  0.4016
  617MOL0     H83290   1.814   8.883   6.176 -0.0295  0.7537  0.8274
  617MOL0     H83291   1.679   9.151   6.152 -1.5017 -2.0360 -0.5771
  617MOL0     H83292   1.797   9.083   6.036 -1.6901 -0.4861 -0.8741
  617MOL0     H83293   2.068   9.169   6.338  0.4896  0.2380 -2.1847
  617MOL0     H83294   1.269   8.633   6.290 -1.1605 -0.3344  0.2951
  617MOL0     H83295   1.069   8.734   6.311 -1.5596  2.6255 -0.4094
  618MOL0     O83296   3.724   2.619   2.795 -0.3451  0.1591  0.2497
  618MOL0     C83297   3.645   2.691   2.860 -0.6204 -0.3947  0.2192
  618MOL0     O83298   3.515   2.717   2.832 -0.7172 -0.2536 -0.6877
  618MOL0     C83299   3.452   2.659   2.724  0.6140 -0.2667 -0.0486
  618MOL0     C83300   3.446   2.733   2.599 -0.8284  0.0169 -0.5519
  618MOL0     C83301   3.406   2.673   2.477  0.0087  1.3200  0.0627
  618MOL0     C83302   3.356   2.540   2.488  0.2263 -0.2380 -0.0481
  618MOL0     O83303   3.309   2.460   2.388  0.1999  0.0910  0.1016
  618MOL0     C83304   3.352   2.477   2.253 -0.9245 -0.2133  0.8572
  618MOL0     C83305   3.248   2.428   2.162  0.7493 -0.3355 -0.1182
  618MOL0     C83306   3.115   2.503   2.183  0.3024  0.3162 -0.1365
  618MOL0     C83307   3.049   2.555   2.050 -0.3309 -0.4298  0.2728
  618MOL0     C83308   2.989   2.447   1.970  0.0822  0.2497  0.3044
  618MOL0     C83309   2.907   2.498   1.857  0.0251 -0.0475  0.2444
  618MOL0     C83310   2.802   2.402   1.795  0.1706  0.6337 -0.7183
  618MOL0     C83311   2.700   2.358   1.906  0.7828 -0.2734  0.3305
  618MOL0     N83312   2.680   2.212   1.885  0.5108  0.1404 -0.7605
  618MOL0     C83313   2.570   2.163   1.821 -0.4847  0.4569  0.2417
  618MOL0     C83314   2.580   2.025   1.831  1.5505  0.0004  0.9800
  618MOL0     C83315   2.489   1.915   1.777 -0.3182 -0.5960  0.8732
  618MOL0     C83316   2.372   1.906   1.873  0.2791  0.6119  0.0031
  618MOL0     C83317   2.265   1.826   1.809  0.5092 -0.0155 -0.5492
  618MOL0     C83318   2.160   1.910   1.759  0.0074  0.5530 -0.2934
  618MOL0     O83319   2.051   1.835   1.708  0.0195 -0.8679  0.7405
  618MOL0     C83320   1.953   1.899   1.634  0.2645  0.1003  0.2250
  618MOL0     C83321   1.933   2.036   1.637  0.4655 -0.7675 -0.0792
  618MOL0     C83322   1.829   2.092   1.552 -0.5738 -1.5190 -0.5159
  618MOL0     C83323   1.804   2.244   1.562  0.0408  0.3407 -0.4361
  618MOL0     C83324   1.767   2.005   1.466 -0.1406  0.1604 -0.2095
  618MOL0     C83325   1.660   2.040   1.376 -0.1088  1.0780 -0.1418
  618MOL0     O83326   1.698   2.040   1.242 -0.3420 -0.2002 -0.4584
  618MOL0     C83327   1.603   2.047   1.146  0.0742  0.7844 -0.1240
  618MOL0     C83328   1.619   1.959   1.036 -0.2887  1.4203  0.7063
  618MOL0     C83329   1.534   1.959   0.925  0.3047 -1.0638 -0.0266
  618MOL0     C83330   1.421   2.048   0.927  0.5932 -0.0810  0.2878
  618MOL0     O83331   1.331   2.060   0.825  0.6217  0.0277  0.5500
  618MOL0     C83332   1.347   1.983   0.705 -0.1092  0.4562 -0.0290
  618MOL0     C83333   1.226   2.023   0.615  0.4830 -0.5873 -0.7494
  618MOL0     C83334   1.243   1.979   0.470 -0.8347 -0.3753 -0.3282
  618MOL0     C83335   1.111   1.966   0.379 -0.5035  0.1429 -0.8851
  618MOL0     C83336   1.134   1.923   0.236 -0.2841  0.1824  0.9026
  618MOL0     C83337   1.009   1.851   0.177  0.3736 -0.0820 -0.8154
  618MOL0     C83338   0.993   1.874   0.028  0.3098 -0.1953  0.4332
  618MOL0     C83339   0.877   1.799  -0.049 -0.7935 -0.3103  0.2160
  618MOL0    Cl83340   0.714   1.855   0.001  0.4282  0.0785  0.4050
  618MOL0     C83341   1.406   2.142   1.033  0.6299 -0.8642  0.4139
  618MOL0     C83342   1.499   2.144   1.143  0.6162 -0.1987 -0.1267
  618MOL0     O83343   1.546   2.041   1.423  0.0019 -0.2890 -0.2795
  618MOL0     C83344   1.797   1.869   1.469 -0.3031 -0.1714  1.3410
  618MOL0     C83345   1.882   1.815   1.553  0.3459 -0.4469 -0.4519
  618MOL0     N83346   2.684   1.999   1.919  0.0226 -1.0084  0.7013
  618MOL0     N83347   2.743   2.113   1.947  0.1795  0.3125 -0.5303
  618MOL0     C83348   3.337   2.479   2.606  0.7378 -0.1110  0.0437
  618MOL0     C83349   3.385   2.533   2.723  0.3371 -0.1855 -0.6410
  618MOL0     C83350   3.689   2.737   2.987 -0.2021 -0.4164 -0.5864
  618MOL0     C83351   3.614   2.830   3.059  0.1771  0.0346  0.6023
  618MOL0     C83352   3.648   2.859   3.191 -0.0397  0.9139 -0.6980
  618MOL0     C83353   3.758   2.789   3.252  0.6552  0.5281 -0.6568
  618MOL0     O83354   3.776   2.821   3.384  0.2608  0.2061  0.2103
  618MOL0     C83355   3.881   2.767   3.465 -0.7954 -0.3453 -0.5335
  618MOL0     C83356   4.010   2.832   3.433 -0.2487 -0.4666  0.0243
  618MOL0     C83357   4.011   2.983   3.430 -0.4797  0.7863  0.0913
  618MOL0     C83358   4.153   3.029   3.376  0.6863 -0.1027  0.2741
  618MOL0     C83359   4.159   3.174   3.350  0.2171 -0.0288 -1.0391
  618MOL0     C83360   4.175   3.293   3.327  0.1010 -0.8442  0.0609
  618MOL0     C83361   3.828   2.697   3.183 -0.7943 -1.1113  1.1882
  618MOL0     C83362   3.798   2.674   3.054  0.7260 -0.1280  0.0455
  618MOL0     H83363   3.465   2.840   2.591 -0.4245  0.0362  0.4857
  618MOL0     H83364   3.402   2.711   2.376 -3.1387 -0.9601 -0.8470
  618MOL0     H83365   3.371   2.582   2.231  0.3540 -0.2247  1.7891
  618MOL0     H83366   3.449   2.426   2.246 -1.1482 -0.4849 -0.5807
  618MOL0     H83367   3.292   2.439   2.062 -0.9074  4.1156 -0.5995
  618MOL0     H83368   3.233   2.322   2.185 -0.5627  0.1007  1.1927
  618MOL0     H83369   3.034   2.451   2.233 -1.6587  1.4017 -2.0129
  618MOL0     H83370   3.133   2.593   2.241 -1.4940  0.3873  0.3631
  618MOL0     H83371   2.967   2.623   2.075 -1.6779 -1.7942 -0.2842
  618MOL0     H83372   3.118   2.620   1.994  2.0945  0.3901  3.8807
  618MOL0     H83373   3.070   2.393   1.919  1.2181  4.1286 -2.4513
  618MOL0     H83374   2.940   2.377   2.039  3.0225  0.3652  2.7729
  618MOL0     H83375   2.853   2.592   1.872  2.3305  1.5711 -0.9223
  618MOL0     H83376   2.974   2.527   1.776  1.1690  1.3225  1.6166
  618MOL0     H83377   2.750   2.449   1.711 -0.7948  2.1599  0.6805
  618MOL0     H83378   2.854   2.316   1.751 -2.4192  0.0729 -2.9801
  618MOL0     H83379   2.602   2.400   1.880 -1.2335 -4.7342 -0.2269
  618MOL0     H83380   2.741   2.382   2.004  0.0244 -2.0435  1.1330
  618MOL0     H83381   2.496   2.217   1.763 -0.2604 -1.2451 -1.7503
  618MOL0     H83382   2.462   1.942   1.674 -0.7974 -0.0471  1.1375
  618MOL0     H83383   2.542   1.819   1.769 -0.5824 -0.6374 -0.6809
  618MOL0     H83384   2.338   2.004   1.907 -1.6015  0.9949 -2.6886
  618MOL0     H83385   2.399   1.849   1.963 -2.4732  0.6604  0.9451
  618MOL0     H83386   2.221   1.765   1.888  0.6552  2.0245  1.1882
  618MOL0     H83387   2.306   1.761   1.731  0.0114 -0.1598 -0.6945
  618MOL0     H83388   2.202   1.974   1.680  1.0244  0.9115  0.5138
  618MOL0     H83389   2.123   1.956   1.851 -1.3953 -0.1296 -0.4887
  618MOL0     H83390   1.975   2.104   1.710  0.8845 -0.3120 -0.7285
  618MOL0     H83391   1.746   2.257   1.654  2.8856  2.9844  1.1617
  618MOL0     H83392   1.895   2.302   1.580  1.2670 -2.1494  2.2439
  618MOL0     H83393   1.743   2.270   1.475 -0.4414 -2.7946 -1.1688
  618MOL0     H83394   1.701   1.889   1.045 -2.5341 -1.7144 -1.1629
  618MOL0     H83395   1.535   1.893   0.839  1.6499 -1.4296  0.2413
  618MOL0     H83396   1.441   2.022   0.665  1.6970 -0.0922  3.3035
  618MOL0     H83397   1.333   1.877   0.729  0.7217 -0.0165 -1.5435
  618MOL0     H83398   1.127   1.998   0.653 -0.4642 -0.3673 -2.9403
  618MOL0     H83399   1.226   2.132   0.623 -0.4733 -0.6017 -0.4514
  618MOL0     H83400   1.304   1.888   0.464  0.7828  0.5959  0.7056
  618MOL0     H83401   1.298   2.066   0.433 -1.6218  1.1000  1.7985
  618MOL0     H83402   1.053   1.882   0.419  2.7123 -1.3012  1.2123
  618MOL0     H83403   1.059   2.062   0.386 -1.3296 -0.4184  1.9571
  618MOL0     H83404   1.222   1.858   0.226  0.5854  1.7002 -2.7698
  618MOL0     H83405   1.151   2.017   0.184  1.6502  1.7917  4.0866
  618MOL0     H83406   1.002   1.745   0.204  2.3743  0.3890  2.0385
  618MOL0     H83407   0.920   1.893   0.224 -0.5557 -4.4136  1.8987
  618MOL0     H83408   1.082   1.842  -0.027  2.2811 -1.3138  3.9597
  618MOL0     H83409   0.975   1.981   0.013 -1.3502 -0.7350 -2.0222
  618MOL0     H83410   0.878   1.693  -0.023 -2.5139 -0.8765 -1.7668
  618MOL0     H83411   0.886   1.803  -0.158  0.1386  0.9554  0.3097
  618MOL0     H83412   1.319   2.206   1.043  0.2520 -1.4206  0.7608
  618MOL0     H83413   1.488   2.222   1.217 -1.8688  0.5688 -1.1970
  618MOL0     H83414   1.740   1.797   1.410  0.3593 -0.7365  1.3850
  618MOL0     H83415   1.906   1.709   1.563 -0.7583 -0.5052  2.7974
  618MOL0     H83416   3.278   2.387   2.602  1.3313 -0.4807 -0.5231
  618MOL0     H83417   3.381   2.469   2.810  2.5279 -0.4738 -0.6870
  618MOL0     H83418   3.526   2.872   3.012  1.7740  1.3845 -1.4147
  618MOL0     H83419   3.579   2.918   3.251 -2.9020 -0.6104 -2.2525
  618MOL0     H83420   3.861   2.783   3.571  2.1481 -2.5154  0.4523
  618MOL0     H83421   3.878   2.659   3.452 -1.6523 -0.3297 -0.5190
  618MOL0     H83422   4.043   2.803   3.333 -4.3823  1.9122 -2.3042
  618MOL0     H83423   4.088   2.798   3.503  1.8442  0.1464 -1.9053
  618MOL0     H83424   3.982   3.026   3.526  0.0723  1.9209 -0.2218
  618MOL0     H83425   3.935   3.024   3.363  1.3424  3.6991 -0.3880
  618MOL0     H83426   4.169   2.980   3.279  2.1086  0.0886  0.3837
  618MOL0     H83427   4.235   3.005   3.444  0.3403  1.2815  1.2019
  618MOL0     H83428   4.164   3.397   3.304 -2.4080 -0.4241  2.5351
  618MOL0     H83429   3.918   2.655   3.227  0.6242 -0.2267 -0.7142
  618MOL0     H83430   3.856   2.591   3.016 -1.0881 -0.3587 -2.5259
  619MOL0     O83431   9.366   3.196  11.124  0.8966  0.3409 -0.0027
  619MOL0     C83432   9.276   3.278  11.155 -0.5181 -0.2576 -0.1376
  619MOL0     O83433   9.295   3.383  11.240  0.4096  0.0035 -0.2729
  619MOL0     C83434   9.405   3.401  11.312 -0.9672 -0.2239  0.2738
  619MOL0     C83435   9.395   3.422  11.447  0.0085  0.2036 -0.1424
  619MOL0     C83436   9.506   3.446  11.530 -0.1928  0.0310 -0.2307
  619MOL0     C83437   9.631   3.450  11.476 -0.4413 -0.1198  0.1421
  619MOL0     O83438   9.747   3.476  11.552 -0.4576 -0.3681  0.5050
  619MOL0     C83439   9.818   3.598  11.528 -0.2982  0.0798 -0.5836
  619MOL0     C83440   9.970   3.570  11.518  0.1648 -0.8655  0.4835
  619MOL0     C83441  10.054   3.700  11.490 -0.9328 -0.4756 -0.5808
  619MOL0     C83442  10.205   3.659  11.474  0.2553 -0.1926  0.2558
  619MOL0     C83443  10.311   3.765  11.448 -0.2042  0.2909 -0.8199
  619MOL0     C83444  10.311   3.815  11.301  0.5158 -0.2714 -0.0990
  619MOL0     C83445  10.378   3.950  11.297 -0.0387  0.0565  0.4280
  619MOL0     C83446  10.428   4.007  11.170  0.4587 -0.4336 -0.4091
  619MOL0     N83447  10.324   4.011  11.076 -0.0950 -0.0004  0.6591
  619MOL0     C83448  10.219   4.100  11.073  1.2755 -0.0619  0.0018
  619MOL0     C83449  10.123   4.048  10.992 -1.6223 -0.4642 -0.1208
  619MOL0     C83450   9.986   4.101  10.963  0.4411 -0.2869 -0.1705
  619MOL0     C83451   9.889   4.092  11.085 -1.3147 -0.2678 -0.6417
  619MOL0     C83452   9.853   4.233  11.130  0.2036 -0.0698 -0.5380
  619MOL0     C83453   9.751   4.238  11.249 -0.1042 -0.0557 -0.2935
  619MOL0     O83454   9.752   4.356  11.326  0.6669  0.2917  0.2389
  619MOL0     C83455   9.633   4.379  11.401 -0.0142  0.1768 -0.4751
  619MOL0     C83456   9.653   4.441  11.527  0.7150 -0.8467  0.1778
  619MOL0     C83457   9.546   4.469  11.611 -0.1257 -0.9086 -0.0908
  619MOL0     C83458   9.582   4.511  11.750  0.4268 -0.1131  0.7915
  619MOL0     C83459   9.417   4.442  11.584  0.1429 -0.7441  0.2315
  619MOL0     C83460   9.295   4.475  11.660  0.4709  0.0796  0.2376
  619MOL0     O83461   9.310   4.553  11.775 -0.0658  0.5567 -0.3300
  619MOL0     C83462   9.193   4.594  11.837  0.4811  0.7947  0.7600
  619MOL0     C83463   9.118   4.512  11.924 -0.1482  0.2237 -0.0810
  619MOL0     C83464   8.996   4.553  11.972  0.6863 -0.8142  0.7294
  619MOL0     C83465   8.936   4.670  11.915 -0.3521  0.0574  0.0351
  619MOL0     O83466   8.805   4.709  11.944  0.1463  0.2384  0.0342
  619MOL0     C83467   8.701   4.619  11.899  0.8086  0.6556 -0.3378
  619MOL0     C83468   8.585   4.647  11.993 -0.2891 -0.3776 -0.5805
  619MOL0     C83469   8.455   4.590  11.947  0.0049  0.2318  0.4387
  619MOL0     C83470   8.337   4.675  12.007 -1.3926  1.4468  0.7648
  619MOL0     C83471   8.204   4.638  11.939 -0.6858 -0.4020  0.1139
  619MOL0     C83472   8.206   4.670  11.780  0.1988 -0.3381  0.5653
  619MOL0     C83473   8.226   4.820  11.742 -0.5436  0.2951  0.3545
  619MOL0     C83474   8.139   4.853  11.620  0.1571  0.2058 -0.8374
  619MOL0    Cl83475   8.172   5.026  11.590  0.3454  0.0816  0.0004
  619MOL0     C83476   9.020   4.749  11.841  0.8109 -1.0941 -0.3729
  619MOL0     C83477   9.152   4.722  11.807  0.1260  0.4382 -0.6813
  619MOL0     O83478   9.195   4.428  11.622 -0.0327 -0.3656 -0.3314
  619MOL0     C83479   9.398   4.373  11.458  0.3111  0.4188  0.8499
  619MOL0     C83480   9.502   4.332  11.371 -0.1999  0.3826 -1.2296
  619MOL0     N83481  10.165   3.923  10.939 -0.0223 -0.6002 -0.2025
  619MOL0     N83482  10.287   3.909  10.992 -0.3451 -0.3698  0.0450
  619MOL0     C83483   9.645   3.431  11.330  0.1364 -1.1322 -0.2154
  619MOL0     C83484   9.531   3.409  11.255  0.5759 -0.4944 -0.0347
  619MOL0     C83485   9.143   3.256  11.094 -0.5413 -0.0508  0.2228
  619MOL0     C83486   9.030   3.328  11.143 -0.0464  0.1201 -0.3140
  619MOL0     C83487   8.904   3.322  11.082  1.0455 -1.3116  0.6265
  619MOL0     C83488   8.891   3.253  10.959  0.2771  0.7305  0.2942
  619MOL0     O83489   8.776   3.260  10.892  0.0621 -0.3932  0.1639
  619MOL0     C83490   8.772   3.206  10.756  0.2541  0.4504  0.5241
  619MOL0     C83491   8.623   3.183  10.717  0.1620  0.8698 -0.2930
  619MOL0     C83492   8.550   3.106  10.819  0.0726  0.2851 -0.6853
  619MOL0     C83493   8.403   3.086  10.784  0.4055  0.6425  0.5976
  619MOL0     C83494   8.335   3.217  10.769 -0.4486 -0.7728  0.0552
  619MOL0     C83495   8.263   3.313  10.757  0.6661  0.8043 -0.1737
  619MOL0     C83496   9.003   3.187  10.917  0.2385 -0.2589 -0.2826
  619MOL0     C83497   9.128   3.183  10.981  0.1844 -0.0577  0.2595
  619MOL0     H83498   9.294   3.421  11.489  0.2385  0.0269  0.4099
  619MOL0     H83499   9.478   3.479  11.630  0.8662 -2.5101  0.9910
  619MOL0     H83500   9.793   3.663  11.443 -1.0506  0.4218 -0.1069
  619MOL0     H83501   9.807   3.656  11.620 -1.0515  1.2352 -1.3587
  619MOL0     H83502  10.007   3.526  11.611  0.9254  0.6702  0.9395
  619MOL0     H83503   9.987   3.500  11.436  3.3024  0.4883 -0.1844
  619MOL0     H83504  10.016   3.755  11.404  0.4453 -0.6344 -1.3113
  619MOL0     H83505  10.055   3.773  11.572  3.8897  1.4153 -2.0069
  619MOL0     H83506  10.226   3.612  11.571 -0.6234  2.1323  1.6591
  619MOL0     H83507  10.216   3.592  11.388 -0.2480 -0.0497  0.0801
  619MOL0     H83508  10.298   3.855  11.509 -0.2700 -0.2956  0.0506
  619MOL0     H83509  10.410   3.724  11.467 -1.2774 -1.6534  1.1547
  619MOL0     H83510  10.369   3.742  11.243 -1.3521 -2.7122  0.9091
  619MOL0     H83511  10.212   3.817  11.254  0.2988 -3.4551 -0.0090
  619MOL0     H83512  10.304   4.019  11.339 -0.8622 -1.1098  0.9627
  619MOL0     H83513  10.469   3.941  11.357 -0.4440 -0.0186  1.0492
  619MOL0     H83514  10.504   3.946  11.120  1.5977  1.3538 -0.9493
  619MOL0     H83515  10.463   4.108  11.193 -2.2537  0.5700 -0.3390
  619MOL0     H83516  10.221   4.192  11.132  0.6991 -0.1244  0.1344
  619MOL0     H83517  10.009   4.205  10.940  0.5458 -0.7052 -2.0642
  619MOL0     H83518   9.951   4.045  10.876 -3.3637 -2.2084  2.3045
  619MOL0     H83519   9.937   4.032  11.163 -0.3040 -0.4623 -1.3864
  619MOL0     H83520   9.796   4.047  11.050 -1.7369  1.1300 -1.4109
  619MOL0     H83521   9.825   4.291  11.042  2.6841  0.7928 -0.8303
  619MOL0     H83522   9.947   4.284  11.149 -0.0694  1.2182 -2.4033
  619MOL0     H83523   9.770   4.160  11.324 -1.1936  0.1767  0.2433
  619MOL0     H83524   9.655   4.199  11.214  0.4755 -2.5970  0.6934
  619MOL0     H83525   9.756   4.459  11.558  1.0593  1.8686 -2.1337
  619MOL0     H83526   9.681   4.474  11.776  0.3705  0.5540  2.0284
  619MOL0     H83527   9.581   4.620  11.750 -0.0990 -0.1143 -0.2417
  619MOL0     H83528   9.518   4.469  11.829  2.6025 -1.8998  1.7018
  619MOL0     H83529   9.141   4.416  11.969  0.2367  0.3116 -0.0778
  619MOL0     H83530   8.934   4.495  12.041  0.5915 -0.6450  0.7875
  619MOL0     H83531   8.668   4.652  11.800 -3.0064  0.6037  0.7304
  619MOL0     H83532   8.725   4.513  11.889 -0.9657  0.0748  0.8418
  619MOL0     H83533   8.615   4.608  12.091 -1.0378  0.9660  0.2289
  619MOL0     H83534   8.575   4.755  12.007  1.6020 -0.2622  0.3360
  619MOL0     H83535   8.442   4.486  11.977  0.1278 -0.1739 -0.8772
  619MOL0     H83536   8.458   4.589  11.838 -3.6645 -3.1169  0.1449
  619MOL0     H83537   8.326   4.644  12.112  1.3171 -3.7280 -0.1441
  619MOL0     H83538   8.353   4.781  11.988  0.8039  0.8446 -1.2481
  619MOL0     H83539   8.128   4.700  11.988 -1.7502 -1.7068  0.1582
  619MOL0     H83540   8.173   4.535  11.957 -0.9251 -0.2473  0.5828
  619MOL0     H83541   8.277   4.606  11.728  0.8136  0.0785  0.8919
  619MOL0     H83542   8.107   4.647  11.739  0.9690  1.3805 -2.5772
  619MOL0     H83543   8.330   4.841  11.716 -0.8288  1.0591 -0.1945
  619MOL0     H83544   8.200   4.887  11.825  0.3542 -0.0059  0.8886
  619MOL0     H83545   8.034   4.826  11.631  0.2624  0.6237  1.8381
  619MOL0     H83546   8.160   4.794  11.530  1.1851 -1.0115  0.1580
  619MOL0     H83547   8.969   4.838  11.804  0.4086 -1.6209 -1.0892
  619MOL0     H83548   9.211   4.799  11.757 -1.0415  1.3712 -0.6705
  619MOL0     H83549   9.297   4.339  11.438 -0.5823  2.5793  1.4557
  619MOL0     H83550   9.481   4.267  11.287 -2.2138 -1.1191  0.3341
  619MOL0     H83551   9.745   3.420  11.290  0.7195  2.6772 -0.1007
  619MOL0     H83552   9.541   3.403  11.147 -2.9549  0.1729 -0.4987
  619MOL0     H83553   9.039   3.394  11.229  4.7282  2.4912 -2.2503
  619MOL0     H83554   8.827   3.390  11.119  4.0653  3.0308 -0.2610
  619MOL0     H83555   8.827   3.275  10.691 -0.4906  2.6423  2.1025
  619MOL0     H83556   8.804   3.102  10.746 -1.4095  0.1276 -3.5253
  619MOL0     H83557   8.609   3.123  10.626 -0.9788 -1.7716  1.4797
  619MOL0     H83558   8.578   3.283  10.713  1.0846  1.3488  0.9247
  619MOL0     H83559   8.558   3.151  10.919  1.8944 -1.8481  0.2135
  619MOL0     H83560   8.598   3.008  10.825 -2.4401 -0.9445  1.7108
  619MOL0     H83561   8.367   3.028  10.870  2.0850 -0.2028  0.7728
  619MOL0     H83562   8.390   3.020  10.698 -1.8859  0.9293  0.6541
  619MOL0     H83563   8.221   3.410  10.739  2.3664  1.8850  1.3541
  619MOL0     H83564   8.993   3.137  10.821 -1.4254  1.9690 -1.3743
  619MOL0     H83565   9.210   3.134  10.930  0.6724  0.7477  0.2612
  620MOL0     O83566   3.193   0.845  11.355  0.6416 -0.7268  1.2067
  620MOL0     C83567   3.263   0.948  11.356 -0.6737  0.0540 -0.0017
  620MOL0     O83568   3.268   1.045  11.258 -0.2634  1.1160 -0.2555
  620MOL0     C83569   3.223   1.017  11.127  0.0768 -1.0981 -0.9165
  620MOL0     C83570   3.169   1.130  11.055  0.4194  0.7126 -0.5831
  620MOL0     C83571   3.122   1.118  10.920 -0.0332  0.0975  0.3485
  620MOL0     C83572   3.115   0.994  10.864 -0.7364  0.3631  0.2941
  620MOL0     O83573   3.065   0.974  10.739 -0.1271  0.1806 -0.2460
  620MOL0     C83574   2.926   0.990  10.724  0.2625 -0.6493 -0.1023
  620MOL0     C83575   2.908   1.005  10.570  0.0542  0.3218 -0.2831
  620MOL0     C83576   2.767   1.047  10.543 -0.1111  0.7698 -0.7427
  620MOL0     C83577   2.745   1.064  10.391  0.7061  0.0313  0.7909
  620MOL0     C83578   2.598   1.052  10.358  0.1335 -0.4363  0.2214
  620MOL0     C83579   2.492   1.118  10.460 -0.4719 -0.4166 -0.2322
  620MOL0     C83580   2.343   1.096  10.429  1.0915 -0.0857  0.9250
  620MOL0     C83581   2.289   1.201  10.340  1.0386  0.5063 -0.2931
  620MOL0     N83582   2.140   1.198  10.342  0.6253  0.1209  0.4149
  620MOL0     C83583   2.055   1.085  10.361 -0.6205 -0.2889 -0.0201
  620MOL0     C83584   1.934   1.124  10.327  1.0858  0.1693 -0.4451
  620MOL0     C83585   1.800   1.054  10.345 -0.1704 -0.1890 -0.5758
  620MOL0     C83586   1.717   1.054  10.208 -0.1209 -0.2209 -0.3515
  620MOL0     C83587   1.620   1.169  10.204 -0.2034 -0.1522  0.4697
  620MOL0     C83588   1.551   1.188  10.070  0.2524  0.1225 -0.5426
  620MOL0     O83589   1.465   1.310  10.064  0.4604 -0.0245  0.6147
  620MOL0     C83590   1.334   1.306  10.102  0.9529  0.1740  0.9046
  620MOL0     C83591   1.257   1.411  10.053  0.2493 -0.0873 -0.1418
  620MOL0     C83592   1.116   1.420  10.066 -0.9385 -0.3728 -0.2116
  620MOL0     C83593   1.045   1.541  10.017 -0.5627 -0.4572  0.0588
  620MOL0     C83594   1.053   1.326  10.147  0.8764 -0.0089  0.5346
  620MOL0     C83595   0.911   1.331  10.195 -0.2106 -0.5132 -0.2985
  620MOL0     O83596   0.846   1.446  10.172  0.4520 -0.7173  0.6336
  620MOL0     C83597   0.707   1.456  10.175 -0.7640  0.8067  0.7547
  620MOL0     C83598   0.648   1.560  10.096 -0.9378 -0.3458  0.1882
  620MOL0     C83599   0.506   1.569  10.073 -0.2961  0.5729 -0.3840
  620MOL0     C83600   0.419   1.484  10.141 -0.6594 -0.6759  0.1452
  620MOL0     O83601   0.287   1.503  10.124 -0.0268  0.1567  0.2627
  620MOL0     C83602   0.199   1.429  10.206 -1.1471 -0.3861 -0.2564
  620MOL0     C83603   0.055   1.473  10.187 -0.5060  0.0148 -0.4250
  620MOL0     C83604  -0.058   1.379  10.219  0.5398  0.5321  0.3285
  620MOL0     C83605  -0.059   1.359  10.376 -0.0479  0.7663 -0.5892
  620MOL0     C83606  -0.146   1.243  10.433 -0.9536  0.6201  0.3829
  620MOL0     C83607  -0.286   1.274  10.403 -0.5717 -0.6097  0.0628
  620MOL0     C83608  -0.377   1.147  10.421 -0.1468  0.2560  0.0354
  620MOL0     C83609  -0.512   1.182  10.357 -0.3153 -0.3895  0.8236
  620MOL0    Cl83610  -0.589   1.322  10.446 -0.3807  0.3742  0.1458
  620MOL0     C83611   0.477   1.390  10.225 -0.3909 -0.6381 -0.5124
  620MOL0     C83612   0.619   1.369  10.239 -0.3947 -0.4335 -0.4080
  620MOL0     O83613   0.866   1.224  10.229 -0.1319 -0.2247  1.0822
  620MOL0     C83614   1.135   1.215  10.196  1.0291  0.0961  0.0188
  620MOL0     C83615   1.267   1.210  10.163 -0.1464 -0.3144 -0.3763
  620MOL0     N83616   1.932   1.253  10.304 -0.3070 -0.6098 -0.0341
  620MOL0     N83617   2.054   1.304  10.322 -0.5578  0.4851  0.0783
  620MOL0     C83618   3.168   0.882  10.928 -0.4078 -0.1255 -0.2271
  620MOL0     C83619   3.220   0.898  11.061  1.1364 -0.1050 -0.1629
  620MOL0     C83620   3.351   0.966  11.476 -0.0868 -0.1484  0.6615
  620MOL0     C83621   3.429   1.073  11.494  0.7202 -0.5032  0.3138
  620MOL0     C83622   3.489   1.098  11.610 -0.1113 -1.3193  0.6277
  620MOL0     C83623   3.490   1.012  11.718 -0.0675 -0.3052  0.1387
  620MOL0     O83624   3.578   1.048  11.812  0.3426  0.6710  0.2205
  620MOL0     C83625   3.607   0.952  11.923  0.5104 -0.1339 -0.2139
  620MOL0     C83626   3.720   0.995  12.015 -0.1364  0.6942 -0.5925
  620MOL0     C83627   3.858   0.973  11.957 -0.1645  0.1581  0.5269
  620MOL0     C83628   3.871   1.027  11.808  0.2498 -0.2545  0.2434
  620MOL0     C83629   4.011   1.040  11.772 -0.0929  0.1216 -0.5303
  620MOL0     C83630   4.129   1.059  11.750  0.2515 -0.3880  0.1507
  620MOL0     C83631   3.404   0.903  11.715 -0.0389 -0.2614  0.1820
  620MOL0     C83632   3.343   0.883  11.589 -1.0088 -0.8289  0.5238
  620MOL0     H83633   3.182   1.224  11.107  2.3387 -0.6837  1.7219
  620MOL0     H83634   3.083   1.201  10.861  0.1850  0.9039  1.3145
  620MOL0     H83635   2.866   0.910  10.766  0.4513 -0.7071  0.0596
  620MOL0     H83636   2.903   1.083  10.776  2.7833  0.2814 -0.4986
  620MOL0     H83637   2.985   1.074  10.534 -1.2105  1.2537 -1.2634
  620MOL0     H83638   2.922   0.904  10.529 -1.9117 -0.2647  0.3622
  620MOL0     H83639   2.705   0.963  10.574 -0.4456  1.2053 -0.2174
  620MOL0     H83640   2.735   1.126  10.612  0.7916 -0.9967  1.8314
  620MOL0     H83641   2.782   1.157  10.347  1.5773 -1.2436 -1.3089
  620MOL0     H83642   2.794   0.992  10.325  0.5180  2.1754 -1.8876
  620MOL0     H83643   2.578   1.087  10.256 -2.2712  0.9589  1.0634
  620MOL0     H83644   2.568   0.947  10.354  1.9200 -1.0000  0.7250
  620MOL0     H83645   2.515   1.081  10.560  1.1864  0.1180 -0.3930
  620MOL0     H83646   2.522   1.223  10.459  0.3655 -0.5542  2.5374
  620MOL0     H83647   2.319   1.007  10.370 -2.3894  1.4818 -0.3276
  620MOL0     H83648   2.291   1.097  10.525 -0.4750 -1.8366  0.1662
  620MOL0     H83649   2.325   1.192  10.237 -0.5702 -0.5122 -0.8181
  620MOL0     H83650   2.323   1.297  10.378  0.4763 -0.3845  2.7235
  620MOL0     H83651   2.078   0.981  10.378 -0.8892 -0.3571 -0.0808
  620MOL0     H83652   1.826   0.952  10.374  0.0386 -0.3171 -1.1955
  620MOL0     H83653   1.746   1.105  10.425 -2.0862  0.2334 -2.0501
  620MOL0     H83654   1.668   0.957  10.192  1.2114 -0.8940 -0.5070
  620MOL0     H83655   1.777   1.087  10.122 -1.4857  1.3846 -0.7406
  620MOL0     H83656   1.662   1.268  10.222  1.5095 -0.4429 -1.5353
  620MOL0     H83657   1.547   1.164  10.285 -0.7982  0.1098 -0.0332
  620MOL0     H83658   1.483   1.103  10.071 -0.8732  1.0023  0.2439
  620MOL0     H83659   1.627   1.184   9.991  1.0772  1.2065  0.1585
  620MOL0     H83660   1.301   1.496  10.003 -1.1118  1.0192  0.4654
  620MOL0     H83661   1.102   1.592   9.939 -0.6042  1.7591  1.3834
  620MOL0     H83662   0.952   1.506   9.970  0.1132 -1.4512 -0.5939
  620MOL0     H83663   1.014   1.612  10.094  0.4198 -2.0624  2.0316
  620MOL0     H83664   0.710   1.626  10.037 -1.3957  0.3606  0.4812
  620MOL0     H83665   0.477   1.654  10.011  0.9380  0.4066 -1.2144
  620MOL0     H83666   0.204   1.323  10.177  0.8795 -1.3077  2.9153
  620MOL0     H83667   0.222   1.423  10.313 -1.2967  0.8055 -0.1475
  620MOL0     H83668   0.037   1.563  10.247 -0.6383  0.0306 -0.4895
  620MOL0     H83669   0.042   1.498  10.082 -1.5395  0.7866 -0.1230
  620MOL0     H83670  -0.039   1.285  10.167 -0.4932  0.6448 -0.2814
  620MOL0     H83671  -0.152   1.404  10.169  1.4015  2.9733 -0.2031
  620MOL0     H83672   0.041   1.335  10.411 -0.3160  1.1389  0.4836
  620MOL0     H83673  -0.092   1.451  10.425  0.2765  0.0379  1.0572
  620MOL0     H83674  -0.137   1.242  10.542 -3.0028  0.2340  0.5941
  620MOL0     H83675  -0.116   1.147  10.390  1.0061  1.7534 -0.9097
  620MOL0     H83676  -0.304   1.364  10.462  2.3991 -0.8303  1.4471
  620MOL0     H83677  -0.293   1.300  10.297 -1.7523  0.0497  0.2871
  620MOL0     H83678  -0.391   1.137  10.529 -0.5108 -1.6733 -0.1461
  620MOL0     H83679  -0.331   1.055  10.383  1.3017 -0.7097  3.6583
  620MOL0     H83680  -0.566   1.087  10.358  1.9612 -1.7987 -0.6722
  620MOL0     H83681  -0.491   1.226  10.259  1.9694 -0.0366  1.4053
  620MOL0     H83682   0.413   1.317  10.274 -1.2283 -0.0842 -0.7527
  620MOL0     H83683   0.647   1.284  10.301 -0.9690  1.7149  3.1244
  620MOL0     H83684   1.093   1.131  10.251  2.3592 -1.2447 -0.9506
  620MOL0     H83685   1.323   1.140  10.225 -1.3205 -0.7732  0.1976
  620MOL0     H83686   3.172   0.785  10.878  3.1400 -0.8690  1.2145
  620MOL0     H83687   3.268   0.815  11.111  3.4450  1.5946  0.6683
  620MOL0     H83688   3.431   1.149  11.416  0.3655 -2.2135 -1.4563
  620MOL0     H83689   3.558   1.182  11.612  3.1486 -3.2684 -5.3335
  620MOL0     H83690   3.517   0.956  11.985  2.2686  3.5127  2.4842
  620MOL0     H83691   3.631   0.860  11.869  1.6976 -1.0138  1.7275
  620MOL0     H83692   3.714   0.944  12.111  1.4758  0.5678 -0.5226
  620MOL0     H83693   3.705   1.099  12.046 -2.5103  0.1725  0.1508
  620MOL0     H83694   3.892   0.869  11.964 -1.3584 -0.3317 -0.5932
  620MOL0     H83695   3.930   1.030  12.016  0.0472  1.1452 -0.6359
  620MOL0     H83696   3.813   1.119  11.794 -0.0606 -0.7993 -2.5477
  620MOL0     H83697   3.825   0.956  11.739 -1.2275  0.1061  0.8143
  620MOL0     H83698   4.234   1.069  11.737  0.8631 -2.6597  2.5842
  620MOL0     H83699   3.386   0.835  11.797 -0.1079 -0.0372  0.3518
  620MOL0     H83700   3.267   0.806  11.581 -1.6268 -0.0547 -1.8124
  621MOL0     O83701   6.586   5.812   5.368 -0.2258 -0.4764  0.5863
  621MOL0     C83702   6.556   5.834   5.490  0.4852  0.4748  0.4793
  621MOL0     O83703   6.426   5.859   5.524 -1.2772 -0.1952  0.5674
  621MOL0     C83704   6.328   5.855   5.430  0.5906 -1.3293  0.5414
  621MOL0     C83705   6.270   5.739   5.398 -0.9874  0.3879 -0.3718
  621MOL0     C83706   6.177   5.726   5.303 -0.8672 -0.8183  0.8170
  621MOL0     C83707   6.123   5.842   5.227 -0.3320  0.3179 -0.1785
  621MOL0     O83708   6.040   5.844   5.121 -0.0795  0.5460 -0.4252
  621MOL0     C83709   6.001   5.721   5.066 -0.6532  0.3522 -0.1467
  621MOL0     C83710   5.911   5.741   4.940  0.1946  0.1757  0.1495
  621MOL0     C83711   5.886   5.602   4.878 -0.8684 -0.2870  0.0948
  621MOL0     C83712   5.738   5.579   4.824 -0.2620  0.4281  0.7427
  621MOL0     C83713   5.712   5.671   4.702 -0.5827  0.0072 -0.2302
  621MOL0     C83714   5.578   5.657   4.630  0.4722  0.0221 -0.1515
  621MOL0     C83715   5.542   5.770   4.537 -0.1529 -0.2161  0.1854
  621MOL0     C83716   5.584   5.755   4.396  0.4948  0.7212 -0.1358
  621MOL0     N83717   5.540   5.620   4.345  0.1963 -0.7760  0.0137
  621MOL0     C83718   5.413   5.557   4.318 -0.4619  0.5311 -0.0081
  621MOL0     C83719   5.457   5.430   4.278  0.6305  1.6930  0.5561
  621MOL0     C83720   5.356   5.328   4.241  0.6888  0.6132  0.0419
  621MOL0     C83721   5.267   5.359   4.117 -0.0781 -0.0552  0.2833
  621MOL0     C83722   5.174   5.251   4.091  0.2813 -0.2089  0.6284
  621MOL0     C83723   5.093   5.294   3.972  1.0075 -0.2311  0.0856
  621MOL0     O83724   4.990   5.197   3.950  0.5572 -0.2532 -0.1489
  621MOL0     C83725   5.016   5.073   3.890 -0.1336 -0.8772 -0.4127
  621MOL0     C83726   4.901   4.997   3.878  0.4802  0.0979 -0.2007
  621MOL0     C83727   4.909   4.864   3.838  0.3999 -0.2618 -0.3183
  621MOL0     C83728   4.779   4.781   3.857  0.1225  0.2780 -1.2278
  621MOL0     C83729   5.028   4.811   3.783 -1.0241 -0.5374 -0.0849
  621MOL0     C83730   5.034   4.684   3.717  0.3704 -0.2088 -0.5418
  621MOL0     O83731   4.925   4.652   3.640 -0.1575 -0.2414  0.5810
  621MOL0     C83732   4.939   4.542   3.562  0.7927 -0.6447 -0.3997
  621MOL0     C83733   4.951   4.540   3.426 -0.0199  0.7559 -0.7626
  621MOL0     C83734   4.967   4.417   3.363  0.5211 -0.5046 -0.5748
  621MOL0     C83735   4.950   4.301   3.444  0.8683 -0.2450  0.4465
  621MOL0     O83736   4.951   4.191   3.369 -0.2862  0.1413 -0.0074
  621MOL0     C83737   4.906   4.069   3.422 -0.7502  0.2877  0.0197
  621MOL0     C83738   5.021   4.012   3.495 -0.4405 -0.6020  1.0434
  621MOL0     C83739   4.981   3.877   3.560  0.2134 -0.5559 -1.1490
  621MOL0     C83740   5.090   3.823   3.661 -0.8861 -0.2894  0.1237
  621MOL0     C83741   5.049   3.680   3.694  1.4170 -0.0766 -0.5840
  621MOL0     C83742   5.173   3.611   3.757  0.2021 -1.9416 -0.9114
  621MOL0     C83743   5.155   3.476   3.831  0.4086  0.1080 -0.9413
  621MOL0     C83744   5.245   3.466   3.964  0.5948  1.0477 -0.5516
  621MOL0    Cl83745   5.177   3.338   4.068 -0.0964  0.5913 -0.3194
  621MOL0     C83746   4.912   4.309   3.575  0.0725 -0.5810  0.7179
  621MOL0     C83747   4.924   4.428   3.632 -0.2491  0.2224 -0.1799
  621MOL0     O83748   5.138   4.627   3.717 -0.5087 -0.3719  0.1386
  621MOL0     C83749   5.144   4.894   3.784 -0.7574  0.0138 -0.7281
  621MOL0     C83750   5.150   5.028   3.850 -0.2230  0.2402  0.1918
  621MOL0     N83751   5.590   5.410   4.295 -0.6328  0.8268  0.4736
  621MOL0     N83752   5.633   5.528   4.323  0.1770  0.4035  0.0435
  621MOL0     C83753   6.182   5.967   5.263 -0.2306  0.4022 -1.1270
  621MOL0     C83754   6.281   5.974   5.367  0.0709 -0.0082 -0.2772
  621MOL0     C83755   6.669   5.845   5.591  0.1764 -0.2667  0.5586
  621MOL0     C83756   6.642   5.868   5.728 -0.3159 -0.3964 -0.6646
  621MOL0     C83757   6.745   5.898   5.822  0.1465  0.3856 -0.6914
  621MOL0     C83758   6.878   5.886   5.794  0.5353  0.0718  0.5004
  621MOL0     O83759   6.968   5.917   5.892 -0.0748 -0.3750 -0.3869
  621MOL0     C83760   7.091   5.845   5.895  0.0026  0.4062  0.5379
  621MOL0     C83761   7.198   5.929   5.957  0.6954 -0.3702 -0.0629
  621MOL0     C83762   7.204   5.913   6.106  0.4965  1.0951 -0.3037
  621MOL0     C83763   7.310   5.813   6.148 -0.4449  0.9495  0.0387
  621MOL0     C83764   7.275   5.677   6.111 -0.4925 -0.5507  0.0836
  621MOL0     C83765   7.240   5.563   6.075  0.3998  0.2942  0.1535
  621MOL0     C83766   6.910   5.878   5.651 -0.1449  0.4002 -0.0069
  621MOL0     C83767   6.802   5.862   5.557 -0.4502  0.0741 -1.1848
  621MOL0     H83768   6.284   5.645   5.450 -0.8609 -0.2758 -1.5857
  621MOL0     H83769   6.143   5.625   5.283 -1.4663 -0.2604 -1.3803
  621MOL0     H83770   6.091   5.671   5.028 -1.0811 -0.2367 -0.4100
  621MOL0     H83771   5.955   5.662   5.146  0.6400  0.4036  0.6600
  621MOL0     H83772   5.818   5.787   4.975 -1.2266 -2.6546  0.4012
  621MOL0     H83773   5.953   5.804   4.861  0.8677  2.2419  2.0638
  621MOL0     H83774   5.950   5.573   4.794 -2.0203 -1.8756 -0.2985
  621MOL0     H83775   5.903   5.523   4.952 -0.0268  0.5701  0.8402
  621MOL0     H83776   5.735   5.471   4.812  0.3906  0.6285 -1.8632
  621MOL0     H83777   5.665   5.613   4.898 -1.0187 -1.5798  0.9658
  621MOL0     H83778   5.715   5.771   4.746  0.7555 -0.2452  0.2948
  621MOL0     H83779   5.784   5.662   4.620 -1.4191 -1.0597 -0.8818
  621MOL0     H83780   5.558   5.561   4.582 -0.5741  1.8798 -3.8114
  621MOL0     H83781   5.501   5.656   4.708  0.2460  2.1486 -0.2931
  621MOL0     H83782   5.434   5.786   4.547  0.0466  0.4125  1.4918
  621MOL0     H83783   5.579   5.863   4.580  3.9690 -0.7367 -1.7256
  621MOL0     H83784   5.693   5.759   4.392  0.4839  0.5929 -4.4471
  621MOL0     H83785   5.550   5.838   4.334 -0.0105 -0.2623 -1.2080
  621MOL0     H83786   5.310   5.588   4.333 -1.2608 -2.2301  0.9003
  621MOL0     H83787   5.406   5.233   4.219  0.3057  0.1435  1.1251
  621MOL0     H83788   5.297   5.294   4.326  3.9177 -1.4308  1.6520
  621MOL0     H83789   5.342   5.387   4.041  2.3148  0.9065  2.8204
  621MOL0     H83790   5.210   5.452   4.130  0.0092  0.0366  0.0275
  621MOL0     H83791   5.107   5.225   4.173  1.1824 -0.7937  1.1969
  621MOL0     H83792   5.235   5.167   4.057  0.9683  0.1017  1.0717
  621MOL0     H83793   5.150   5.308   3.879  0.4111 -0.5129 -0.3307
  621MOL0     H83794   5.045   5.387   4.005  1.9069  0.6690 -1.0406
  621MOL0     H83795   4.808   5.032   3.923  1.7308 -0.1578  2.8071
  621MOL0     H83796   4.701   4.828   3.796  1.4862  1.0352 -2.4424
  621MOL0     H83797   4.792   4.680   3.819  1.3267  1.3957 -4.0859
  621MOL0     H83798   4.754   4.777   3.963  1.7580  2.0250 -0.7117
  621MOL0     H83799   4.955   4.625   3.359  2.3247  3.7317  2.7027
  621MOL0     H83800   4.963   4.411   3.255  1.9348  3.0290 -0.9437
  621MOL0     H83801   4.824   4.084   3.492 -1.6415 -1.7656 -0.5172
  621MOL0     H83802   4.878   4.005   3.338 -0.8673  2.1236 -1.4334
  621MOL0     H83803   5.099   4.003   3.419 -1.3610 -0.1075  0.0227
  621MOL0     H83804   5.055   4.081   3.573  0.7559 -0.5415  0.4933
  621MOL0     H83805   4.973   3.799   3.483  1.4745 -1.8006 -0.0629
  621MOL0     H83806   4.894   3.874   3.626  1.6210  0.6745  0.8551
  621MOL0     H83807   5.189   3.820   3.614  2.0593  1.4417  5.3821
  621MOL0     H83808   5.103   3.890   3.747  0.3632 -2.8394  2.0575
  621MOL0     H83809   5.025   3.619   3.607 -1.9506 -0.1494  0.2739
  621MOL0     H83810   4.966   3.680   3.765 -0.1990 -1.6445 -2.3780
  621MOL0     H83811   5.246   3.596   3.677  0.1565 -1.7534 -0.9884
  621MOL0     H83812   5.218   3.682   3.827  3.3183 -1.6572 -3.0132
  621MOL0     H83813   5.177   3.390   3.767 -0.1075  0.5707 -1.7584
  621MOL0     H83814   5.048   3.479   3.854  0.0312  0.6905 -2.6228
  621MOL0     H83815   5.216   3.560   4.012 -0.4153  0.7475 -0.5389
  621MOL0     H83816   5.354   3.464   3.956  0.8828 -2.4558  2.1193
  621MOL0     H83817   4.901   4.222   3.639 -1.1308 -0.5607  0.5547
  621MOL0     H83818   4.906   4.444   3.738 -1.5256 -1.4202 -0.1157
  621MOL0     H83819   5.239   4.851   3.754 -0.5025 -1.9810  2.4869
  621MOL0     H83820   5.242   5.084   3.861  0.0213  0.3363 -1.8472
  621MOL0     H83821   6.156   6.059   5.213 -0.7809  1.7300  1.4272
  621MOL0     H83822   6.317   6.069   5.406  0.6877 -0.8460  1.2766
  621MOL0     H83823   6.547   5.858   5.779  1.3777 -1.9666  2.4862
  621MOL0     H83824   6.724   5.912   5.928 -0.8879 -1.6621 -0.5648
  621MOL0     H83825   7.074   5.751   5.947  1.9260  0.2617  0.9704
  621MOL0     H83826   7.122   5.831   5.791 -0.7761  2.8272 -0.0940
  621MOL0     H83827   7.181   6.035   5.937 -2.7266 -0.6411  0.7979
  621MOL0     H83828   7.294   5.894   5.917  0.9474 -0.1034  0.3054
  621MOL0     H83829   7.109   5.891   6.156  0.9466  0.5583  0.3402
  621MOL0     H83830   7.236   6.006   6.154 -1.9801  0.3830  3.1259
  621MOL0     H83831   7.328   5.805   6.256 -0.7018 -0.4164 -0.0048
  621MOL0     H83832   7.404   5.827   6.093  1.0327  1.0994  2.4203
  621MOL0     H83833   7.210   5.463   6.051 -0.3236  0.5138  0.1056
  621MOL0     H83834   7.008   5.896   5.608  0.7538 -0.0468  1.7501
  621MOL0     H83835   6.831   5.856   5.452  5.5875  0.9168  0.1055
  622MOL0     O83836  11.072  11.345   1.814  0.2470  0.3482  0.3143
  622MOL0     C83837  11.085  11.235   1.873  1.0251  0.0812 -0.3900
  622MOL0     O83838  10.995  11.191   1.973 -0.4645 -0.4386  0.0062
  622MOL0     C83839  10.866  11.241   1.978  0.3370  0.2248  0.8940
  622MOL0     C83840  10.799  11.286   1.864  0.3420 -0.0818  0.9990
  622MOL0     C83841  10.666  11.330   1.872 -0.2797 -0.1102  0.0871
  622MOL0     C83842  10.582  11.311   1.989 -1.0010  0.1795 -0.2120
  622MOL0     O83843  10.456  11.364   1.993 -0.7746  0.2867 -0.5458
  622MOL0     C83844  10.362  11.339   2.095 -0.4107  0.0735  0.7107
  622MOL0     C83845  10.318  11.195   2.113 -0.4451 -0.4599 -0.8052
  622MOL0     C83846  10.218  11.181   2.228 -0.1236 -0.0876  0.0189
  622MOL0     C83847  10.170  11.032   2.232 -0.6002  0.4638  0.7522
  622MOL0     C83848  10.056  11.030   2.350  0.4322  0.0270 -0.0779
  622MOL0     C83849   9.912  11.082   2.303  0.2623 -0.6602  0.1817
  622MOL0     C83850   9.821  11.146   2.406 -0.3933  0.3621  0.6152
  622MOL0     C83851   9.692  11.203   2.358  0.2882  0.3715  0.1178
  622MOL0     N83852   9.616  11.104   2.288  0.1227  1.1547 -0.8922
  622MOL0     C83853   9.530  11.010   2.349 -0.1455  0.0527  0.1676
  622MOL0     C83854   9.500  10.927   2.246  0.2075 -0.7719 -1.0826
  622MOL0     C83855   9.404  10.820   2.267 -0.0438  0.4302 -0.1297
  622MOL0     C83856   9.432  10.719   2.374 -0.0742 -0.0202 -0.2764
  622MOL0     C83857   9.305  10.624   2.386 -1.0386 -0.1945  0.2195
  622MOL0     C83858   9.309  10.516   2.503 -0.3544 -0.5953  1.0826
  622MOL0     O83859   9.343  10.568   2.639  0.0416  0.9694 -0.5965
  622MOL0     C83860   9.361  10.472   2.737 -0.0780 -0.7010  0.8420
  622MOL0     C83861   9.468  10.379   2.726 -0.3440  0.6698 -0.5995
  622MOL0     C83862   9.495  10.283   2.823  0.7434  0.0457 -0.1129
  622MOL0     C83863   9.626  10.203   2.805 -0.1432  0.6366  0.8706
  622MOL0     C83864   9.425  10.292   2.949 -0.8709  0.6478 -0.0661
  622MOL0     C83865   9.475  10.222   3.084  0.3122  0.0262  1.3536
  622MOL0     O83866   9.570  10.115   3.070 -0.5385  0.1851  0.4898
  622MOL0     C83867   9.645  10.082   3.185 -0.6760  0.7889 -1.0382
  622MOL0     C83868   9.692   9.945   3.209  0.6053  1.0128  0.0579
  622MOL0     C83869   9.775   9.917   3.324  0.0850  0.4413 -0.1533
  622MOL0     C83870   9.826  10.024   3.402  0.8487 -0.1580  1.3322
  622MOL0     O83871   9.900  10.012   3.513  0.5757 -0.1895  0.2177
  622MOL0     C83872   9.971   9.885   3.517 -0.4901 -0.2656 -0.4997
  622MOL0     C83873  10.039   9.877   3.654 -0.2932 -0.2362 -1.0457
  622MOL0     C83874  10.136   9.989   3.670 -0.1817  0.0408 -0.8278
  622MOL0     C83875  10.194   9.975   3.809 -1.0265  0.1601 -1.3070
  622MOL0     C83876  10.298  10.075   3.839  0.1036 -1.0137 -0.2936
  622MOL0     C83877  10.332  10.094   3.992 -0.3952 -0.1131  0.6736
  622MOL0     C83878  10.481  10.145   4.007 -0.3525  0.5880 -0.5975
  622MOL0     C83879  10.504  10.179   4.155  0.1062  0.7724 -0.7699
  622MOL0    Cl83880  10.659  10.280   4.181 -0.0080 -0.0008  0.0528
  622MOL0     C83881   9.774  10.154   3.389 -1.0736 -0.3683 -0.1548
  622MOL0     C83882   9.677  10.178   3.286  0.1341  0.0669 -1.0864
  622MOL0     O83883   9.414  10.246   3.185  0.4720  0.1680 -0.0222
  622MOL0     C83884   9.332  10.397   2.958  0.8347  1.0259 -1.2430
  622MOL0     C83885   9.297  10.480   2.859 -0.7244  0.6012 -0.8568
  622MOL0     N83886   9.556  10.974   2.131 -0.1398 -0.0676  0.7209
  622MOL0     N83887   9.623  11.072   2.153  0.2143 -0.0330 -0.9843
  622MOL0     C83888  10.650  11.236   2.094 -0.4374  0.0853 -0.3064
  622MOL0     C83889  10.787  11.210   2.089  0.3562 -0.4439 -0.1938
  622MOL0     C83890  11.211  11.161   1.867  0.2473  0.8979  1.3852
  622MOL0     C83891  11.224  11.026   1.907 -0.5013 -0.1917 -0.5209
  622MOL0     C83892  11.354  10.969   1.913 -1.0714 -0.2047 -0.4488
  622MOL0     C83893  11.473  11.032   1.866 -0.3388  0.1080 -0.0744
  622MOL0     O83894  11.596  10.960   1.858  0.3000  0.3738 -0.0323
  622MOL0     C83895  11.682  11.005   1.752 -0.1581  0.5457 -0.0018
  622MOL0     C83896  11.772  10.884   1.696 -0.0901 -0.5776 -2.2715
  622MOL0     C83897  11.840  10.806   1.810 -0.2239 -0.0333 -0.2191
  622MOL0     C83898  11.918  10.900   1.906 -1.2721  0.3370 -0.1980
  622MOL0     C83899  12.038  10.963   1.850 -0.0560  0.0896  1.0282
  622MOL0     C83900  12.130  11.038   1.819 -0.4718  0.3924 -0.6007
  622MOL0     C83901  11.456  11.160   1.808  0.6144 -0.1074 -1.4533
  622MOL0     C83902  11.329  11.226   1.817  0.1407 -0.4800 -0.1012
  622MOL0     H83903  10.847  11.291   1.767 -0.1093 -3.0370  0.5496
  622MOL0     H83904  10.624  11.377   1.784  5.1183  1.6222 -1.9550
  622MOL0     H83905  10.412  11.384   2.182  0.1119  0.5256  0.1868
  622MOL0     H83906  10.270  11.384   2.056 -1.3912 -1.5792  1.0227
  622MOL0     H83907  10.261  11.156   2.028 -3.0140 -1.9958  1.4368
  622MOL0     H83908  10.401  11.125   2.127 -0.6479 -0.3361  1.2867
  622MOL0     H83909  10.271  11.192   2.323  0.5528 -3.7008  0.2120
  622MOL0     H83910  10.127  11.236   2.203  0.1519 -0.0615 -0.9978
  622MOL0     H83911  10.121  11.010   2.137  1.2483 -0.9756  0.0959
  622MOL0     H83912  10.258  10.968   2.236 -0.8296  0.0664 -0.3895
  622MOL0     H83913  10.044  10.922   2.363  1.3389 -0.1562 -0.6330
  622MOL0     H83914  10.081  11.085   2.441 -0.4831 -1.2211  0.9695
  622MOL0     H83915   9.925  11.150   2.218  0.8711  2.1819  2.3805
  622MOL0     H83916   9.872  10.995   2.250  0.4903 -0.1637 -0.8205
  622MOL0     H83917   9.805  11.069   2.482 -0.0607 -1.5968 -1.1794
  622MOL0     H83918   9.867  11.234   2.452 -1.3151  1.6127 -0.7389
  622MOL0     H83919   9.716  11.284   2.289 -1.2793 -0.4291 -1.4671
  622MOL0     H83920   9.637  11.235   2.447  1.4509 -0.1649  1.0491
  622MOL0     H83921   9.501  11.007   2.454 -2.1220  0.1906 -0.3308
  622MOL0     H83922   9.318  10.879   2.298 -0.7239 -1.3116  1.5027
  622MOL0     H83923   9.382  10.768   2.173 -1.6186 -1.4448  1.2008
  622MOL0     H83924   9.456  10.771   2.467 -2.3115 -0.0345  0.3694
  622MOL0     H83925   9.516  10.654   2.347  0.4129 -0.1036  1.3150
  622MOL0     H83926   9.290  10.563   2.297  0.0937  1.9875 -1.5739
  622MOL0     H83927   9.215  10.686   2.392 -0.1283  1.1066  1.1094
  622MOL0     H83928   9.390  10.446   2.482  1.0801  1.2689  0.0818
  622MOL0     H83929   9.214  10.463   2.503 -0.9998  0.4843  2.5169
  622MOL0     H83930   9.547  10.392   2.653  0.8675 -1.7236  0.2088
  622MOL0     H83931   9.684  10.213   2.713  1.3046 -1.5293  1.4632
  622MOL0     H83932   9.698  10.223   2.885  2.8183  1.0107 -1.6686
  622MOL0     H83933   9.602  10.096   2.810  1.2194  0.1608 -1.3121
  622MOL0     H83934   9.656   9.869   3.140  3.6360 -1.0627  0.6003
  622MOL0     H83935   9.804   9.813   3.333 -1.5985  0.0529  1.2821
  622MOL0     H83936   9.916   9.790   3.521  2.0931 -1.8135  0.1115
  622MOL0     H83937  10.046   9.875   3.438  1.6147 -2.3394  1.6174
  622MOL0     H83938   9.970   9.885   3.738  2.7120 -3.7483  2.1658
  622MOL0     H83939  10.092   9.782   3.671  3.1480  1.8606  1.1242
  622MOL0     H83940  10.085  10.085   3.656  1.0838  0.8642 -0.1042
  622MOL0     H83941  10.213   9.981   3.593  3.3923  4.8638  1.6356
  622MOL0     H83942  10.118   9.977   3.887  0.6154  2.0112  0.3246
  622MOL0     H83943  10.238   9.874   3.813  0.2726  0.7599  0.9217
  622MOL0     H83944  10.269  10.173   3.801 -2.9763 -1.4351  0.6890
  622MOL0     H83945  10.384  10.042   3.780  2.0572 -0.3135  2.0030
  622MOL0     H83946  10.273  10.180   4.026  2.4702  1.2326  2.7466
  622MOL0     H83947  10.316  10.003   4.050 -2.9830  1.8951  3.4236
  622MOL0     H83948  10.515  10.217   3.932 -0.7247  1.0228 -0.3502
  622MOL0     H83949  10.532  10.053   3.976 -2.0014  0.3736 -2.9909
  622MOL0     H83950  10.510  10.090   4.218 -0.5180  1.9204  1.0009
  622MOL0     H83951  10.425  10.247   4.190 -1.9592 -1.7487 -0.1986
  622MOL0     H83952   9.792  10.238   3.454 -0.1121 -1.8748  1.6143
  622MOL0     H83953   9.647  10.283   3.286  0.9548  0.3330  1.0228
  622MOL0     H83954   9.273  10.405   3.049  0.2454  0.0493 -1.5234
  622MOL0     H83955   9.236  10.566   2.882  0.2425  1.4028 -1.1941
  622MOL0     H83956  10.595  11.200   2.180 -0.6061  0.1704 -0.3781
  622MOL0     H83957  10.839  11.169   2.175  1.6670  2.6112  0.5764
  622MOL0     H83958  11.146  10.963   1.949  1.2413 -1.0188  1.7016
  622MOL0     H83959  11.369  10.870   1.956 -0.5529  0.1237  0.1549
  622MOL0     H83960  11.613  11.036   1.674 -1.1470  0.2793  0.7483
  622MOL0     H83961  11.756  11.080   1.784  0.3037 -0.0548  0.3682
  622MOL0     H83962  11.857  10.928   1.644  0.3874  3.8194  1.6027
  622MOL0     H83963  11.714  10.822   1.627 -0.8367 -0.4466 -1.7781
  622MOL0     H83964  11.902  10.730   1.761  0.3846 -0.9437  1.8602
  622MOL0     H83965  11.761  10.750   1.860 -1.0650 -0.7695 -2.2486
  622MOL0     H83966  11.957  10.843   1.991 -1.6019  2.0592  1.1638
  622MOL0     H83967  11.842  10.969   1.943 -0.8608  0.8217 -0.2454
  622MOL0     H83968  12.213  11.099   1.789 -0.7659  0.6710 -0.8529
  622MOL0     H83969  11.536  11.223   1.773 -0.5715  2.4700  0.1229
  622MOL0     H83970  11.326  11.329   1.783 -0.0657  0.2358  1.9505
  623MOL0     O83971  10.578   4.323   2.522 -0.0937 -0.7051 -0.4341
  623MOL0     C83972  10.678   4.281   2.466 -0.4381  0.1280 -0.1565
  623MOL0     O83973  10.684   4.166   2.394 -0.8854 -0.1127  0.7531
  623MOL0     C83974  10.571   4.088   2.401  0.2472  0.2021  0.3735
  623MOL0     C83975  10.522   4.035   2.518 -0.9165 -0.6708  0.0603
  623MOL0     C83976  10.409   3.951   2.528 -0.1884 -0.0050 -0.5501
  623MOL0     C83977  10.342   3.923   2.406 -0.7587  0.6131  0.6390
  623MOL0     O83978  10.236   3.841   2.397 -0.4431 -0.0947 -0.7417
  623MOL0     C83979  10.155   3.831   2.509  0.4747 -0.7489  0.1256
  623MOL0     C83980  10.023   3.762   2.474 -0.6064  0.4000 -0.3936
  623MOL0     C83981   9.948   3.846   2.376 -0.6622  0.0561  0.2382
  623MOL0     C83982   9.797   3.820   2.385 -0.0915  0.4949 -0.7298
  623MOL0     C83983   9.763   3.679   2.361  0.0615  0.4891  0.0250
  623MOL0     C83984   9.628   3.647   2.410  0.3711 -0.5695  0.1683
  623MOL0     C83985   9.597   3.496   2.364  0.2189  0.1821  0.4058
  623MOL0     C83986   9.454   3.446   2.389 -0.7713 -0.5890 -0.1796
  623MOL0     N83987   9.344   3.497   2.303 -0.4728 -0.3185  0.5754
  623MOL0     C83988   9.341   3.479   2.162  0.2510 -0.0378  0.2623
  623MOL0     C83989   9.269   3.587   2.117 -0.2945  1.2052 -0.7373
  623MOL0     C83990   9.281   3.637   1.972 -0.2896 -0.3593  0.0148
  623MOL0     C83991   9.403   3.730   1.967  0.7938  0.6105 -0.1324
  623MOL0     C83992   9.535   3.665   1.952 -0.0468  0.2909 -0.6139
  623MOL0     C83993   9.640   3.768   1.914  0.2545  0.0470 -0.5856
  623MOL0     O83994   9.723   3.790   2.020 -0.0735  0.4968 -0.0735
  623MOL0     C83995   9.856   3.801   1.995 -0.4137  0.7392  1.5721
  623MOL0     C83996   9.937   3.916   2.013  0.1215  1.0674  0.3582
  623MOL0     C83997  10.070   3.928   1.968 -0.1434 -0.2510  1.0814
  623MOL0     C83998  10.143   4.055   1.961  0.2377 -0.7009  0.3638
  623MOL0     C83999  10.124   3.817   1.905  0.2616  0.1179 -0.1642
  623MOL0     C84000  10.263   3.822   1.852 -0.2758 -0.1341  0.4061
  623MOL0     O84001  10.360   3.784   1.941  0.1515  0.1717  0.6147
  623MOL0     C84002  10.490   3.800   1.894  0.6715  0.1386 -0.9987
  623MOL0     C84003  10.568   3.687   1.861 -0.1977  0.6141  0.4626
  623MOL0     C84004  10.703   3.701   1.820 -0.3618 -0.4828 -0.0159
  623MOL0     C84005  10.765   3.822   1.814  0.5418 -0.6046  0.1260
  623MOL0     O84006  10.895   3.826   1.777  0.0080  0.1013  0.1741
  623MOL0     C84007  10.967   3.940   1.817 -0.6709 -0.4298  0.2670
  623MOL0     C84008  11.116   3.921   1.763  0.1785 -0.3658 -0.9845
  623MOL0     C84009  11.207   4.043   1.805 -0.9679  0.6342 -1.3468
  623MOL0     C84010  11.350   4.031   1.735  0.7489  0.1442  0.3368
  623MOL0     C84011  11.448   3.920   1.787  0.1793  0.1501  0.2888
  623MOL0     C84012  11.583   3.929   1.709  0.3969  0.1669  0.2193
  623MOL0     C84013  11.654   4.058   1.737 -0.5745 -0.5893  0.0996
  623MOL0     C84014  11.803   4.043   1.718  0.2854 -0.2090  0.4372
  623MOL0    Cl84015  11.861   3.955   1.861 -0.2053  0.1040 -0.4623
  623MOL0     C84016  10.690   3.937   1.867 -0.1989 -0.3004 -0.9763
  623MOL0     C84017  10.550   3.928   1.896  0.3468  0.1819  0.0248
  623MOL0     O84018  10.281   3.875   1.744  0.0401  0.1504  0.4885
  623MOL0     C84019  10.056   3.698   1.898 -0.2091  0.3996 -0.4473
  623MOL0     C84020   9.926   3.689   1.945 -0.2812 -0.5845  1.2833
  623MOL0     N84021   9.220   3.651   2.223 -0.2313  0.4712 -0.2718
  623MOL0     N84022   9.281   3.615   2.330  0.2885  1.0273 -0.3286
  623MOL0     C84023  10.400   3.970   2.287  0.8621  0.3847 -0.0600
  623MOL0     C84024  10.506   4.058   2.289 -0.1514 -0.4434 -0.1258
  623MOL0     C84025  10.803   4.363   2.485  0.2253 -0.0840  0.1422
  623MOL0     C84026  10.933   4.332   2.455 -0.8271  0.0245  0.3023
  623MOL0     C84027  11.049   4.412   2.478  0.6247  0.1112  0.2597
  623MOL0     C84028  11.025   4.546   2.515 -1.9457  0.1306  0.1697
  623MOL0     O84029  11.124   4.637   2.537  0.4844 -0.0331  0.1055
  623MOL0     C84030  11.260   4.616   2.492 -0.1357  0.0911 -0.1516
  623MOL0     C84031  11.358   4.724   2.532  0.2869 -0.5315  0.2540
  623MOL0     C84032  11.372   4.766   2.690 -0.6965  0.3455 -0.1627
  623MOL0     C84033  11.481   4.882   2.701  0.2830 -0.2139  0.2142
  623MOL0     C84034  11.619   4.841   2.665  0.6083 -1.1353 -0.5144
  623MOL0     C84035  11.729   4.802   2.647 -0.8354 -0.0444  0.2757
  623MOL0     C84036  10.905   4.577   2.548  0.5193 -0.3126 -0.7589
  623MOL0     C84037  10.798   4.487   2.543  1.4094 -0.3417  0.4299
  623MOL0     H84038  10.570   4.068   2.610 -0.1239  3.6779 -1.6734
  623MOL0     H84039  10.393   3.903   2.624  1.8877 -1.1895 -0.7421
  623MOL0     H84040  10.212   3.776   2.585  2.1127  0.8244  0.1303
  623MOL0     H84041  10.139   3.932   2.548  2.0278 -0.4688  0.1171
  623MOL0     H84042  10.055   3.675   2.417  3.8696  1.2883  0.4231
  623MOL0     H84043   9.964   3.734   2.562  0.8308 -0.9374  0.1922
  623MOL0     H84044   9.968   3.953   2.385  0.6306  0.1929 -2.8409
  623MOL0     H84045   9.978   3.826   2.272  0.0478  5.0321 -0.7988
  623MOL0     H84046   9.783   3.849   2.490 -1.8458 -0.2160 -0.7210
  623MOL0     H84047   9.746   3.891   2.318 -2.3250 -1.5026 -1.2860
  623MOL0     H84048   9.768   3.652   2.255  0.3836 -3.6718  0.9180
  623MOL0     H84049   9.831   3.613   2.414 -0.4026  0.4107  0.5336
  623MOL0     H84050   9.629   3.645   2.519 -0.7337 -1.2043  0.1829
  623MOL0     H84051   9.548   3.714   2.378  0.4309 -1.1653 -1.3185
  623MOL0     H84052   9.621   3.480   2.258  4.0146  0.3618  1.1294
  623MOL0     H84053   9.659   3.426   2.421 -0.8274  1.7318  3.6969
  623MOL0     H84054   9.428   3.459   2.495 -3.6743  2.3018 -1.0791
  623MOL0     H84055   9.454   3.338   2.371 -0.5339 -0.5457 -0.4279
  623MOL0     H84056   9.395   3.414   2.094  0.4725 -1.3697  1.6564
  623MOL0     H84057   9.297   3.565   1.890  1.8132  2.5333 -2.3520
  623MOL0     H84058   9.193   3.693   1.941  0.5834  1.2101  0.2783
  623MOL0     H84059   9.409   3.787   2.060  1.9675  0.3332 -0.0276
  623MOL0     H84060   9.390   3.793   1.879  0.1357 -1.8710 -1.9179
  623MOL0     H84061   9.533   3.580   1.883  1.8903 -0.8336  0.6404
  623MOL0     H84062   9.564   3.618   2.046  0.7007  1.3378 -0.3037
  623MOL0     H84063   9.611   3.861   1.864  2.6430 -0.6154 -3.5331
  623MOL0     H84064   9.692   3.718   1.831 -0.4426 -0.4320 -0.7510
  623MOL0     H84065   9.890   4.000   2.065 -0.7065 -0.4080  2.1036
  623MOL0     H84066  10.149   4.093   1.859 -0.7168 -1.2658  0.0867
  623MOL0     H84067  10.089   4.133   2.015 -4.6012 -3.3258 -0.0782
  623MOL0     H84068  10.244   4.044   2.002  0.9462 -1.1732 -1.4028
  623MOL0     H84069  10.519   3.590   1.862 -2.2537  1.5921  2.3167
  623MOL0     H84070  10.761   3.614   1.792  1.8159  0.7904  0.3295
  623MOL0     H84071  10.938   4.035   1.771  0.0225 -0.0473  0.5989
  623MOL0     H84072  10.956   3.954   1.925 -3.6315  2.1467 -0.2230
  623MOL0     H84073  11.155   3.831   1.813  0.8393  0.0712 -0.6976
  623MOL0     H84074  11.121   3.903   1.656 -1.9167 -3.0078 -0.7424
  623MOL0     H84075  11.234   4.045   1.911 -0.0501 -3.4453 -1.3473
  623MOL0     H84076  11.141   4.128   1.786 -2.9140  0.5475  3.7108
  623MOL0     H84077  11.347   4.029   1.625  4.1403  0.2867  0.1417
  623MOL0     H84078  11.394   4.129   1.759 -0.8273  0.8428  0.5047
  623MOL0     H84079  11.411   3.818   1.774 -0.8721  0.0226  3.4133
  623MOL0     H84080  11.465   3.924   1.895 -3.1782 -2.2527  1.0452
  623MOL0     H84081  11.643   3.842   1.738 -1.6772 -1.1832  0.7078
  623MOL0     H84082  11.559   3.920   1.602 -0.2755  1.1106  0.2823
  623MOL0     H84083  11.636   4.093   1.839  0.1852 -4.6229  1.8212
  623MOL0     H84084  11.625   4.135   1.665 -0.3078  0.2587  0.8751
  623MOL0     H84085  11.846   4.143   1.720 -1.4391  0.5849  2.4201
  623MOL0     H84086  11.831   3.990   1.627  0.2884 -1.2943  1.0429
  623MOL0     H84087  10.735   4.034   1.884 -0.6248 -0.2205 -0.2227
  623MOL0     H84088  10.505   4.025   1.911 -1.0480  0.5826 -4.9952
  623MOL0     H84089  10.108   3.609   1.865 -1.9558 -1.2913  1.0559
  623MOL0     H84090   9.867   3.598   1.941  1.5126 -1.8647  2.7360
  623MOL0     H84091  10.363   3.936   2.191 -0.5172  3.0202 -0.5844
  623MOL0     H84092  10.552   4.101   2.201 -0.3450  0.1104  0.0392
  623MOL0     H84093  10.968   4.231   2.434  3.7290  1.6682 -1.3333
  623MOL0     H84094  11.150   4.381   2.449  0.3199 -0.4305 -0.2477
  623MOL0     H84095  11.296   4.521   2.532  0.8896  1.5172  2.6669
  623MOL0     H84096  11.257   4.612   2.383 -0.6057 -5.1080 -0.1712
  623MOL0     H84097  11.327   4.807   2.468 -2.3438 -2.4160 -1.1059
  623MOL0     H84098  11.458   4.699   2.495  0.1757  1.3078 -1.4069
  623MOL0     H84099  11.396   4.680   2.754 -2.8642  0.5804  1.0712
  623MOL0     H84100  11.271   4.801   2.710 -1.6892 -0.4268 -3.3165
  623MOL0     H84101  11.473   4.905   2.807 -0.0654 -1.4623  0.4717
  623MOL0     H84102  11.460   4.977   2.650 -3.4760  0.2875  2.3581
  623MOL0     H84103  11.825   4.756   2.635 -1.8375 -2.3246  0.4555
  623MOL0     H84104  10.892   4.676   2.591  2.2245 -0.7231  0.8412
  623MOL0     H84105  10.698   4.529   2.556  1.4833 -0.7844  2.7394
  624MOL0     O84106   0.860   8.900   9.543 -0.2800 -0.3093  0.9077
  624MOL0     C84107   0.973   8.851   9.524  0.0159  1.0012 -0.2427
  624MOL0     O84108   0.984   8.718   9.477 -0.4410 -0.5837 -0.7470
  624MOL0     C84109   0.868   8.648   9.482 -0.1486  0.2583 -0.1003
  624MOL0     C84110   0.820   8.586   9.597 -0.8360  0.2856  0.2611
  624MOL0     C84111   0.714   8.506   9.600  0.4157 -0.3914 -0.6405
  624MOL0     C84112   0.646   8.480   9.479 -0.2182  0.6504  0.1751
  624MOL0     O84113   0.535   8.398   9.486  0.0921 -0.1382 -0.3835
  624MOL0     C84114   0.414   8.431   9.416 -0.9290 -0.1108  0.1468
  624MOL0     C84115   0.338   8.543   9.487  0.8262 -1.1435  0.4605
  624MOL0     C84116   0.407   8.681   9.474  0.2607 -0.1591 -0.1768
  624MOL0     C84117   0.305   8.792   9.508  0.2698 -0.4490 -0.0601
  624MOL0     C84118   0.363   8.922   9.534 -0.5190 -0.7519 -0.3250
  624MOL0     C84119   0.489   8.972   9.455 -0.1130  0.8818  0.3083
  624MOL0     C84120   0.530   9.120   9.480 -0.3243  0.0841 -0.3610
  624MOL0     C84121   0.660   9.146   9.399 -0.2446 -0.7750  0.1066
  624MOL0     N84122   0.685   9.274   9.340  0.5722 -0.1287  0.5714
  624MOL0     C84123   0.589   9.360   9.288  0.5044 -0.2543  0.2000
  624MOL0     C84124   0.652   9.481   9.303 -0.2026 -1.4750  0.2739
  624MOL0     C84125   0.628   9.610   9.248 -0.2996  0.0829  0.2816
  624MOL0     C84126   0.483   9.678   9.273 -1.1738 -0.7624  0.0817
  624MOL0     C84127   0.434   9.685   9.421  0.1025 -0.2313 -0.6443
  624MOL0     C84128   0.400   9.552   9.493 -0.5437  0.0622  0.5366
  624MOL0     O84129   0.314   9.465   9.419  0.6046 -0.6703 -0.6857
  624MOL0     C84130   0.186   9.463   9.456 -0.0543  0.1549  0.8154
  624MOL0     C84131   0.115   9.575   9.492 -0.0338 -0.1131  0.5141
  624MOL0     C84132  -0.020   9.578   9.517  0.4240 -0.4409 -0.7925
  624MOL0     C84133  -0.080   9.710   9.564  0.2368  0.8009 -0.2664
  624MOL0     C84134  -0.095   9.461   9.487  0.4160 -0.6971  1.7510
  624MOL0     C84135  -0.241   9.454   9.484 -0.0394  0.4340  0.6073
  624MOL0     O84136  -0.283   9.331   9.471 -0.2234 -0.3474  0.0739
  624MOL0     C84137  -0.417   9.306   9.482  0.3744 -0.4068 -0.3441
  624MOL0     C84138  -0.489   9.331   9.601 -0.0306 -0.8831  0.0358
  624MOL0     C84139  -0.625   9.307   9.599  0.6640  0.2188  0.1848
  624MOL0     C84140  -0.688   9.251   9.490  0.2357 -0.2861  0.2198
  624MOL0     O84141  -0.823   9.221   9.492 -0.6353 -0.8279 -0.6122
  624MOL0     C84142  -0.872   9.121   9.584  0.5316 -0.9309  0.2950
  624MOL0     C84143  -0.997   9.053   9.528 -0.1311  0.3139  0.7013
  624MOL0     C84144  -1.080   8.971   9.626 -0.2398 -0.4178  0.5636
  624MOL0     C84145  -1.183   9.055   9.703  0.3587 -0.4488  1.2009
  624MOL0     C84146  -1.297   8.960   9.739 -0.4382 -0.3680  0.0882
  624MOL0     C84147  -1.383   9.025   9.851 -0.0975  0.3421  0.3528
  624MOL0     C84148  -1.442   9.164   9.813  0.9305 -0.1656  0.1625
  624MOL0     C84149  -1.545   9.175   9.926  0.0235  0.4127 -0.0649
  624MOL0    Cl84150  -1.628   9.334   9.927 -0.0469  0.3863  0.0844
  624MOL0     C84151  -0.618   9.235   9.369  0.0026  0.0892  0.0551
  624MOL0     C84152  -0.482   9.262   9.363  0.4609  0.5837 -0.3763
  624MOL0     O84153  -0.314   9.552   9.495 -0.0764 -0.5075  0.0430
  624MOL0     C84154  -0.020   9.352   9.446 -0.3857  0.8548 -0.1225
  624MOL0     C84155   0.113   9.352   9.430  1.0433  0.1848 -0.0496
  624MOL0     N84156   0.777   9.459   9.359 -0.2405  0.4368 -0.2622
  624MOL0     N84157   0.793   9.336   9.379 -1.0251  1.0080  0.7414
  624MOL0     C84158   0.687   8.547   9.360  0.5036  0.8107 -1.9005
  624MOL0     C84159   0.801   8.625   9.358  0.6730 -0.0252  0.1301
  624MOL0     C84160   1.096   8.912   9.557  0.3568  0.3182  0.2263
  624MOL0     C84161   1.096   9.048   9.598  0.7938  0.8757  0.6387
  624MOL0     C84162   1.222   9.108   9.624  0.3869  0.4109 -0.4976
  624MOL0     C84163   1.338   9.034   9.620  0.1409 -0.0614  0.2865
  624MOL0     O84164   1.467   9.084   9.632 -0.8203  0.2819  0.0987
  624MOL0     C84165   1.487   9.227   9.614  0.0937 -0.4049 -0.2590
  624MOL0     C84166   1.638   9.263   9.615 -0.0656 -0.7088  0.9033
  624MOL0     C84167   1.721   9.173   9.514 -0.9788  0.4421  0.3188
  624MOL0     C84168   1.673   9.195   9.371 -0.6854 -0.3335  0.0057
  624MOL0     C84169   1.722   9.326   9.324  0.1501  0.4817 -0.8711
  624MOL0     C84170   1.739   9.439   9.289 -0.7425 -0.3830  1.3465
  624MOL0     C84171   1.332   8.895   9.595  0.9977  0.6459  0.2420
  624MOL0     C84172   1.213   8.837   9.553 -0.3518 -0.5500 -0.3897
  624MOL0     H84173   0.873   8.597   9.691  0.1516  1.8539 -0.4372
  624MOL0     H84174   0.689   8.460   9.695  0.5763 -1.8469 -1.2849
  624MOL0     H84175   0.427   8.453   9.310 -0.9515 -4.1705 -0.8784
  624MOL0     H84176   0.355   8.339   9.411  3.2045 -3.1470  1.0986
  624MOL0     H84177   0.235   8.552   9.451  0.6516 -1.5819  0.8338
  624MOL0     H84178   0.335   8.520   9.594  0.2882 -1.3373  0.4084
  624MOL0     H84179   0.492   8.678   9.544  2.8415 -1.7844 -3.1200
  624MOL0     H84180   0.450   8.693   9.374 -1.0570 -1.1717 -0.8870
  624MOL0     H84181   0.238   8.796   9.422  0.3139 -0.9219 -0.1207
  624MOL0     H84182   0.249   8.757   9.596 -1.9909 -2.4538 -2.1257
  624MOL0     H84183   0.287   8.998   9.515 -0.3859 -0.5812 -0.1774
  624MOL0     H84184   0.383   8.943   9.639 -2.4256  1.7840 -0.3824
  624MOL0     H84185   0.572   8.905   9.477  1.2481  1.9509 -1.3358
  624MOL0     H84186   0.452   8.972   9.352 -3.5370  0.8970  1.3943
  624MOL0     H84187   0.452   9.187   9.444  1.6033  2.0030 -1.2151
  624MOL0     H84188   0.549   9.143   9.585  1.3041 -1.6455 -0.2260
  624MOL0     H84189   0.668   9.071   9.319 -0.9204 -0.0054 -0.7007
  624MOL0     H84190   0.743   9.132   9.469 -0.0951  4.9732  1.5245
  624MOL0     H84191   0.492   9.337   9.247  1.4751 -0.0365 -2.4431
  624MOL0     H84192   0.700   9.679   9.294 -0.7571 -0.0170  1.1812
  624MOL0     H84193   0.646   9.608   9.140 -0.1282 -0.1855  0.3166
  624MOL0     H84194   0.411   9.632   9.204  0.1442 -2.6573 -0.1213
  624MOL0     H84195   0.506   9.779   9.238  0.6153 -0.4381  1.9975
  624MOL0     H84196   0.349   9.754   9.427  1.7557  1.8539  0.2777
  624MOL0     H84197   0.506   9.729   9.490 -0.8474 -0.9608  0.8837
  624MOL0     H84198   0.367   9.564   9.597  2.1971  1.0664  1.3776
  624MOL0     H84199   0.485   9.487   9.517  1.9609  1.3251 -3.7418
  624MOL0     H84200   0.172   9.666   9.508  0.6116 -0.0598 -1.7259
  624MOL0     H84201  -0.000   9.777   9.599  0.6680 -0.2175  0.7888
  624MOL0     H84202  -0.133   9.760   9.483  0.9037  2.4140  0.2287
  624MOL0     H84203  -0.157   9.695   9.640 -0.1987  0.4716 -0.7699
  624MOL0     H84204  -0.449   9.372   9.694  0.6286  2.4975 -1.5739
  624MOL0     H84205  -0.683   9.328   9.688  1.7274  1.9141  0.5176
  624MOL0     H84206  -0.791   9.052   9.611  2.4853  1.2330  0.2413
  624MOL0     H84207  -0.893   9.166   9.682 -1.2522  3.1488 -1.7084
  624MOL0     H84208  -1.061   9.131   9.486  1.1166  0.0053 -1.9611
  624MOL0     H84209  -0.955   8.988   9.451 -1.4335 -0.0035  0.2201
  624MOL0     H84210  -1.014   8.913   9.690  1.1262  1.1375  0.6575
  624MOL0     H84211  -1.128   8.903   9.556 -5.7359  3.2237  0.1720
  624MOL0     H84212  -1.133   9.109   9.783  0.6103  1.7267 -0.3415
  624MOL0     H84213  -1.230   9.129   9.637 -0.4354 -0.6159  1.5726
  624MOL0     H84214  -1.253   8.866   9.772  1.5929  0.5234  0.1028
  624MOL0     H84215  -1.366   8.957   9.654 -0.8606 -0.7074  0.4391
  624MOL0     H84216  -1.463   8.952   9.861  0.8555 -0.9527 -0.9325
  624MOL0     H84217  -1.320   9.024   9.940  2.0290  0.7336 -1.0569
  624MOL0     H84218  -1.492   9.153   9.716 -0.0093  0.5559  0.5474
  624MOL0     H84219  -1.362   9.238   9.809  0.8361 -0.0695  0.0328
  624MOL0     H84220  -1.488   9.172  10.020 -2.7590 -1.5613  1.7096
  624MOL0     H84221  -1.609   9.087   9.921  0.1378  0.2667  0.7972
  624MOL0     H84222  -0.674   9.192   9.286  0.4431  1.9530 -1.2729
  624MOL0     H84223  -0.431   9.244   9.269 -1.7122 -1.1607 -1.3263
  624MOL0     H84224  -0.072   9.263   9.412  0.5543  0.0650  0.4684
  624MOL0     H84225   0.160   9.256   9.412  0.8892 -0.0588  0.7822
  624MOL0     H84226   0.624   8.523   9.274 -4.7314  2.2401  1.1210
  624MOL0     H84227   0.835   8.664   9.263 -0.8488 -0.4147 -0.6041
  624MOL0     H84228   1.003   9.104   9.594 -0.1358 -0.6046  0.4879
  624MOL0     H84229   1.225   9.215   9.640  2.4298  0.7057 -2.3074
  624MOL0     H84230   1.446   9.252   9.515  4.2032 -0.6566 -2.2505
  624MOL0     H84231   1.433   9.286   9.689 -0.1119  1.8760 -2.0597
  624MOL0     H84232   1.687   9.247   9.711  0.1696  3.0832  1.5363
  624MOL0     H84233   1.647   9.371   9.601  0.1223 -0.4839  2.5431
  624MOL0     H84234   1.712   9.068   9.544  3.4971 -0.3354 -0.4137
  624MOL0     H84235   1.823   9.210   9.520 -0.9669  0.1694  2.0869
  624MOL0     H84236   1.565   9.184   9.364 -1.0574  0.7164  2.7836
  624MOL0     H84237   1.721   9.126   9.301  0.2183 -1.6271  1.7848
  624MOL0     H84238   1.753   9.544   9.275  1.1407 -0.5494  1.7263
  624MOL0     H84239   1.426   8.842   9.605  1.0453  0.3013 -1.6937
  624MOL0     H84240   1.218   8.729   9.552 -3.5294 -0.7879 -0.5186
  625MOL0     O84241   5.176  11.143   5.130 -0.4001  0.3208 -0.0376
  625MOL0     C84242   5.292  11.128   5.169  0.4566  1.3472  0.2027
  625MOL0     O84243   5.327  11.048   5.281  0.0483 -0.0308  0.1237
  625MOL0     C84244   5.242  11.037   5.384 -0.2410  0.7605  0.0857
  625MOL0     C84245   5.154  11.137   5.430 -0.6411  0.3124 -0.0086
  625MOL0     C84246   5.073  11.116   5.538 -0.3073 -0.2623  0.1312
  625MOL0     C84247   5.067  10.993   5.600 -0.7386 -0.1212  0.0935
  625MOL0     O84248   4.997  10.960   5.714  0.7602 -0.0077 -0.1224
  625MOL0     C84249   4.893  11.052   5.746  0.0437  0.0483  0.1439
  625MOL0     C84250   4.817  11.024   5.874  0.2979 -0.0275  0.3063
  625MOL0     C84251   4.913  11.016   5.991  0.4685 -0.4114 -0.4007
  625MOL0     C84252   4.830  11.024   6.125 -0.2945 -0.3049 -0.0674
  625MOL0     C84253   4.920  10.982   6.249  0.0450 -0.0608  0.3369
  625MOL0     C84254   4.843  10.959   6.389 -0.0063  0.3919  0.1116
  625MOL0     C84255   4.770  11.087   6.434 -0.6159 -1.0038 -0.8583
  625MOL0     C84256   4.876  11.203   6.461  0.8020 -0.6130  0.8064
  625MOL0     N84257   4.986  11.159   6.547  0.4761  0.2119 -0.2590
  625MOL0     C84258   4.985  11.146   6.688  0.1499 -0.0883 -0.2916
  625MOL0     C84259   5.113  11.134   6.716  0.7280  0.1556  0.4432
  625MOL0     C84260   5.162  11.103   6.856  0.2560 -1.0719 -0.0272
  625MOL0     C84261   5.255  10.984   6.856  0.1679 -0.3695  0.3583
  625MOL0     C84262   5.171  10.861   6.823  0.0601 -0.1381  0.2109
  625MOL0     C84263   5.266  10.745   6.766  0.5794 -0.1959 -0.2054
  625MOL0     O84264   5.193  10.620   6.752 -0.2426 -0.4472  0.3863
  625MOL0     C84265   5.263  10.506   6.742 -1.0808  0.4563 -0.2748
  625MOL0     C84266   5.276  10.426   6.851  0.4981 -1.6486 -0.1151
  625MOL0     C84267   5.337  10.301   6.850 -0.0203  0.8655  0.3372
  625MOL0     C84268   5.326  10.216   6.975 -0.1871  0.5956  0.3914
  625MOL0     C84269   5.407  10.262   6.729 -0.1489 -0.3951 -0.1499
  625MOL0     C84270   5.479  10.134   6.712  0.3172 -0.0868  0.1480
  625MOL0     O84271   5.457  10.033   6.799 -0.6264  0.2563 -0.2867
  625MOL0     C84272   5.535   9.916   6.768  0.6767 -0.0767  0.0413
  625MOL0     C84273   5.641   9.872   6.851 -0.1775 -0.7857  0.5945
  625MOL0     C84274   5.716   9.753   6.840 -0.0186 -1.4552 -0.0663
  625MOL0     C84275   5.684   9.677   6.724  0.3144  0.0029 -0.6101
  625MOL0     O84276   5.756   9.559   6.714  0.2000  0.1879 -0.6608
  625MOL0     C84277   5.755   9.481   6.596 -0.0974 -0.2040  1.3572
  625MOL0     C84278   5.798   9.336   6.638 -0.0225 -0.4569  0.1988
  625MOL0     C84279   5.836   9.252   6.514  0.0244 -0.3429 -0.2994
  625MOL0     C84280   5.850   9.106   6.551 -0.0850  0.2892  0.4768
  625MOL0     C84281   5.937   9.028   6.448  0.3009 -0.0299  0.5215
  625MOL0     C84282   5.913   8.879   6.480  0.4421 -0.1242 -0.3994
  625MOL0     C84283   5.997   8.806   6.378  0.7271 -0.9294  0.1669
  625MOL0     C84284   5.972   8.660   6.361  0.3351 -0.3582 -1.3268
  625MOL0    Cl84285   5.821   8.635   6.277 -0.0748  0.2349  0.1350
  625MOL0     C84286   5.589   9.724   6.629  0.1827 -0.2529  1.2947
  625MOL0     C84287   5.508   9.836   6.655  0.1489 -0.9470 -0.5770
  625MOL0     O84288   5.532  10.120   6.595 -0.1685 -0.1341  0.0303
  625MOL0     C84289   5.397  10.350   6.613  0.5764  0.0764 -0.5115
  625MOL0     C84290   5.325  10.474   6.623  0.3681  0.6363  0.2624
  625MOL0     N84291   5.198  11.158   6.605  1.0628 -0.0712  0.5664
  625MOL0     N84292   5.111  11.167   6.509  0.2667 -0.4816 -0.1512
  625MOL0     C84293   5.153  10.884   5.553 -0.2773  0.5798  0.4148
  625MOL0     C84294   5.241  10.915   5.452 -0.5060  0.1395  0.6319
  625MOL0     C84295   5.399  11.166   5.078  0.3215  0.6189 -0.4779
  625MOL0     C84296   5.365  11.190   4.943  0.2161  0.4462  0.4709
  625MOL0     C84297   5.466  11.220   4.859  0.3966 -0.0285  0.3492
  625MOL0     C84298   5.599  11.239   4.901  0.3525 -0.2457  0.3552
  625MOL0     O84299   5.690  11.258   4.798 -0.0270  0.2107 -0.0078
  625MOL0     C84300   5.834  11.237   4.821  0.8508  0.1442 -0.0658
  625MOL0     C84301   5.910  11.219   4.696 -0.8007 -0.0645  0.6105
  625MOL0     C84302   6.056  11.168   4.708  0.7493 -0.8892 -0.3546
  625MOL0     C84303   6.127  11.150   4.573 -0.0441  0.8038 -0.5078
  625MOL0     C84304   6.060  11.045   4.494 -0.3153  0.5818  0.6072
  625MOL0     C84305   6.012  10.954   4.423  0.7329 -0.3411 -1.6646
  625MOL0     C84306   5.637  11.215   5.034  0.1747  0.0411 -0.5848
  625MOL0     C84307   5.531  11.177   5.121  0.3952  0.9347  0.2656
  625MOL0     H84308   5.140  11.233   5.383 -2.6865 -0.7767 -1.8066
  625MOL0     H84309   4.998  11.188   5.569 -2.7857 -2.0711 -1.2981
  625MOL0     H84310   4.923  11.156   5.764 -1.8791  0.3465  2.0838
  625MOL0     H84311   4.815  11.067   5.671 -0.7489 -3.4531  0.0912
  625MOL0     H84312   4.749  11.108   5.888  1.9018  1.4332 -0.3777
  625MOL0     H84313   4.765  10.928   5.873 -0.8565  0.5774 -1.3070
  625MOL0     H84314   4.979  10.929   5.989 -1.5593 -2.2407  3.2846
  625MOL0     H84315   4.984  11.100   5.993 -1.6382  1.4555 -0.3122
  625MOL0     H84316   4.787  11.124   6.119  1.9995  0.6906 -3.9161
  625MOL0     H84317   4.747  10.954   6.111 -0.2853 -0.1022 -1.3132
  625MOL0     H84318   4.973  10.891   6.220 -0.2459 -0.4623  1.0467
  625MOL0     H84319   4.999  11.057   6.259 -0.4938  0.2166  4.1659
  625MOL0     H84320   4.759  10.890   6.382  0.1130  0.3567 -1.4327
  625MOL0     H84321   4.921  10.921   6.457 -1.5900  1.1759  2.4778
  625MOL0     H84322   4.696  11.131   6.366 -3.8183 -1.9923  1.7160
  625MOL0     H84323   4.716  11.066   6.527 -0.4210  0.5739 -0.3713
  625MOL0     H84324   4.824  11.291   6.498 -0.0468 -0.6028 -0.3490
  625MOL0     H84325   4.925  11.227   6.366  1.5769 -1.5870  0.9372
  625MOL0     H84326   4.901  11.165   6.754 -1.2534  0.3515 -2.1266
  625MOL0     H84327   5.205  11.197   6.892  0.6203 -1.0726 -0.4603
  625MOL0     H84328   5.084  11.081   6.930  1.8670 -3.6018  1.0620
  625MOL0     H84329   5.313  10.963   6.946  0.9915 -2.8302 -0.6650
  625MOL0     H84330   5.332  11.001   6.780 -0.4116  1.3002  0.1002
  625MOL0     H84331   5.100  10.881   6.742  0.1524 -1.1812 -0.1372
  625MOL0     H84332   5.128  10.829   6.918 -0.5910  1.9598  0.6766
  625MOL0     H84333   5.357  10.745   6.826 -1.1081  2.6472  2.6767
  625MOL0     H84334   5.286  10.783   6.665 -1.6082 -2.2264 -1.5007
  625MOL0     H84335   5.201  10.453   6.924 -0.8287 -0.6495 -1.7600
  625MOL0     H84336   5.426  10.193   7.014 -1.7488 -3.2778  2.6867
  625MOL0     H84337   5.271  10.269   7.054  2.0737  1.1124  1.7296
  625MOL0     H84338   5.269  10.125   6.953 -0.6086  1.2574 -1.4308
  625MOL0     H84339   5.655   9.943   6.931  3.1973  2.2463 -2.3617
  625MOL0     H84340   5.790   9.739   6.918 -1.4935 -0.5063  1.5919
  625MOL0     H84341   5.654   9.467   6.555  0.9477 -1.0598 -1.0780
  625MOL0     H84342   5.814   9.509   6.509 -0.9696  0.5285  0.9796
  625MOL0     H84343   5.890   9.345   6.696  0.3158 -2.3864  0.0288
  625MOL0     H84344   5.713   9.297   6.695 -1.6496 -0.0655 -1.8370
  625MOL0     H84345   5.941   9.272   6.488  1.0158  1.5653  4.1484
  625MOL0     H84346   5.765   9.268   6.433 -0.9010 -0.7509  0.4213
  625MOL0     H84347   5.878   9.081   6.654  0.4895  4.3914  1.4907
  625MOL0     H84348   5.747   9.075   6.534  0.0776  0.0115 -0.0271
  625MOL0     H84349   6.042   9.054   6.464  0.8150  0.8252 -3.2475
  625MOL0     H84350   5.907   9.053   6.346 -0.2816  1.0111  0.9301
  625MOL0     H84351   5.955   8.856   6.578 -0.9205  0.9627  0.4627
  625MOL0     H84352   5.807   8.855   6.473  1.1239 -3.2670 -1.9052
  625MOL0     H84353   6.102   8.829   6.396  0.9060  0.3217 -2.0904
  625MOL0     H84354   5.978   8.850   6.279  0.8259  1.5070  1.1573
  625MOL0     H84355   5.974   8.607   6.457  1.7996 -0.4780 -1.3963
  625MOL0     H84356   6.057   8.623   6.302  2.3094  3.1218 -0.9245
  625MOL0     H84357   5.570   9.663   6.541  0.8034  0.0177  0.9656
  625MOL0     H84358   5.433   9.874   6.586 -0.5376 -0.7047  0.2957
  625MOL0     H84359   5.446  10.320   6.521 -0.3247 -0.9940 -0.6622
  625MOL0     H84360   5.331  10.543   6.540  0.3556 -1.3975 -1.5367
  625MOL0     H84361   5.156  10.788   5.602 -0.3067  0.2888 -0.1479
  625MOL0     H84362   5.310  10.840   5.417 -1.5125 -0.0928 -0.9742
  625MOL0     H84363   5.261  11.183   4.912 -0.4265  2.3747  1.9691
  625MOL0     H84364   5.445  11.233   4.753 -1.1410  1.5538  0.7842
  625MOL0     H84365   5.876  11.324   4.872  0.5512 -0.6874  1.6744
  625MOL0     H84366   5.854  11.158   4.894 -1.0033  1.0460  1.4999
  625MOL0     H84367   5.925  11.319   4.654  0.3578 -1.1572 -1.7926
  625MOL0     H84368   5.838  11.175   4.626 -0.0176  0.1927 -0.3907
  625MOL0     H84369   6.033  11.064   4.735 -2.8862  0.0524  0.8538
  625MOL0     H84370   6.115  11.221   4.783 -0.9645 -0.7643  0.9659
  625MOL0     H84371   6.223  11.103   4.596 -0.9336 -0.5025  0.6882
  625MOL0     H84372   6.128  11.249   4.526 -0.5747  1.8914  1.6554
  625MOL0     H84373   5.951  10.888   4.364 -0.1741 -1.9676  0.9373
  625MOL0     H84374   5.728  11.223   5.091 -0.6098  0.6711  0.6199
  625MOL0     H84375   5.555  11.160   5.226  3.5608 -1.7397 -0.7159
  626MOL0     O84376   2.559  11.320   8.339 -0.2006 -0.9298  0.0845
  626MOL0     C84377   2.581  11.441   8.313 -0.2613 -0.2721  0.2948
  626MOL0     O84378   2.485  11.539   8.295  0.3580 -1.0043 -0.0059
  626MOL0     C84379   2.351  11.518   8.327  0.5855  0.1778  0.3700
  626MOL0     C84380   2.278  11.401   8.323  0.6129  0.5264  0.2179
  626MOL0     C84381   2.142  11.386   8.358 -0.2378 -1.4828 -0.0288
  626MOL0     C84382   2.069  11.503   8.378  0.2830 -0.4646 -1.3045
  626MOL0     O84383   1.931  11.513   8.414 -0.4017 -0.7620 -0.6234
  626MOL0     C84384   1.842  11.399   8.423  0.2169  0.0957  0.5511
  626MOL0     C84385   1.851  11.353   8.569 -0.2690 -0.3789 -0.8305
  626MOL0     C84386   1.817  11.473   8.661 -0.1945 -0.3659 -0.4064
  626MOL0     C84387   1.787  11.429   8.804 -0.6664  0.6977 -0.4967
  626MOL0     C84388   1.819  11.529   8.925  0.5025 -1.2115  0.3549
  626MOL0     C84389   1.806  11.474   9.071  0.1233  0.7174 -0.8360
  626MOL0     C84390   1.672  11.392   9.088  0.3243 -0.2659 -0.2528
  626MOL0     C84391   1.545  11.473   9.089  0.7261  0.4345 -0.5003
  626MOL0     N84392   1.429  11.391   9.115  0.6687 -0.6237  0.0004
  626MOL0     C84393   1.392  11.286   9.035  0.1221 -0.1579  0.8413
  626MOL0     C84394   1.304  11.221   9.106  0.2354  0.2685 -0.7335
  626MOL0     C84395   1.239  11.092   9.080  0.1005  0.2508 -0.9825
  626MOL0     C84396   1.324  10.988   8.998 -0.3466  0.7074  0.0131
  626MOL0     C84397   1.429  10.918   9.081 -0.9383  0.9055  0.0035
  626MOL0     C84398   1.543  11.006   9.135  0.6252  0.7119 -0.1444
  626MOL0     O84399   1.656  10.940   9.183 -0.1986  0.8284 -0.0278
  626MOL0     C84400   1.758  10.912   9.096  0.0740 -0.5185 -0.2878
  626MOL0     C84401   1.868  10.824   9.134 -0.2067 -0.0187  0.3577
  626MOL0     C84402   1.976  10.790   9.044  0.0481  0.3561 -1.2521
  626MOL0     C84403   2.082  10.692   9.104 -1.0451 -0.4378  0.6044
  626MOL0     C84404   1.978  10.845   8.917  0.2271  0.1793  0.4769
  626MOL0     C84405   2.083  10.826   8.823 -0.6893  0.0423  0.0229
  626MOL0     O84406   2.212  10.828   8.884 -0.6833  0.8539  0.0715
  626MOL0     C84407   2.314  10.849   8.796 -0.3596 -0.4662  0.0067
  626MOL0     C84408   2.395  10.748   8.759  0.0992  0.8160  0.5591
  626MOL0     C84409   2.496  10.760   8.655  0.5800 -0.3643  0.6107
  626MOL0     C84410   2.504  10.881   8.595 -0.3223  0.6660 -0.7867
  626MOL0     O84411   2.592  10.882   8.494  0.2162 -0.7542  0.6053
  626MOL0     C84412   2.641  10.999   8.425 -0.3100  1.0296 -0.5816
  626MOL0     C84413   2.773  10.966   8.348 -0.6355  0.3193 -0.3201
  626MOL0     C84414   2.800  11.069   8.235  0.2275  0.1687 -0.5959
  626MOL0     C84415   2.943  11.044   8.180  0.4633 -0.4831 -0.2942
  626MOL0     C84416   2.972  11.137   8.064 -1.1447 -0.1226  0.9769
  626MOL0     C84417   3.121  11.111   8.017  0.3977 -0.1201 -0.0708
  626MOL0     C84418   3.188  11.209   7.910  1.0196  0.9033 -0.2759
  626MOL0     C84419   3.099  11.212   7.778  0.4761  0.3026  1.2764
  626MOL0    Cl84420   3.151  11.320   7.641 -0.4069 -0.1386  0.0184
  626MOL0     C84421   2.433  10.987   8.641  0.3437  0.9720  0.6129
  626MOL0     C84422   2.333  10.973   8.743  0.2131 -0.5961  0.2695
  626MOL0     O84423   2.059  10.844   8.704 -0.2628 -0.4542  0.4477
  626MOL0     C84424   1.867  10.933   8.881  0.7852 -0.1299  0.6200
  626MOL0     C84425   1.767  10.959   8.970  0.8224  0.6833  0.5205
  626MOL0     N84426   1.279  11.295   9.231  0.5641 -0.5292 -0.0241
  626MOL0     N84427   1.355  11.399   9.234  0.3999  0.3571  0.3016
  626MOL0     C84428   2.141  11.628   8.382 -0.2627  0.5880 -0.1738
  626MOL0     C84429   2.274  11.634   8.351  0.5172  0.2145 -0.0972
  626MOL0     C84430   2.717  11.488   8.286 -0.6441  0.0241 -0.6606
  626MOL0     C84431   2.814  11.417   8.350  0.7907  0.4562  0.2238
  626MOL0     C84432   2.943  11.452   8.344  0.2904  0.8013 -0.7517
  626MOL0     C84433   2.993  11.560   8.267  0.6261  0.4408 -1.1869
  626MOL0     O84434   3.127  11.588   8.238  0.6584  0.2539 -0.1043
  626MOL0     C84435   3.229  11.520   8.307  0.6284 -0.0414  0.6399
  626MOL0     C84436   3.366  11.557   8.270 -0.1943  0.4809 -0.6085
  626MOL0     C84437   3.400  11.538   8.125 -0.4178  1.2824 -0.6937
  626MOL0     C84438   3.463  11.395   8.117 -0.2204 -0.3528  0.4342
  626MOL0     C84439   3.525  11.371   7.984  0.1128  0.3821 -0.6317
  626MOL0     C84440   3.571  11.363   7.875 -0.1478 -0.2933  0.5022
  626MOL0     C84441   2.892  11.645   8.216 -0.0269 -1.2509 -0.0755
  626MOL0     C84442   2.757  11.613   8.232  0.5528  0.0254  0.2033
  626MOL0     H84443   2.326  11.317   8.275 -1.0682 -1.0036  1.0925
  626MOL0     H84444   2.093  11.289   8.362 -0.0640 -1.7241 -2.3589
  626MOL0     H84445   1.737  11.420   8.400  0.1805  2.7023  2.6371
  626MOL0     H84446   1.874  11.319   8.355  2.9537  2.1605 -0.7512
  626MOL0     H84447   1.787  11.266   8.589 -1.5505  0.4796 -1.0657
  626MOL0     H84448   1.951  11.322   8.600 -1.0386 -1.5442  0.6543
  626MOL0     H84449   1.910  11.530   8.674 -0.3322 -0.5012  1.5580
  626MOL0     H84450   1.730  11.528   8.624  0.4175  0.3672 -0.7714
  626MOL0     H84451   1.682  11.397   8.803 -0.7946  1.0517 -2.6658
  626MOL0     H84452   1.845  11.338   8.822  0.8311  1.7499  0.0922
  626MOL0     H84453   1.917  11.569   8.897 -0.9890  2.0171 -0.7722
  626MOL0     H84454   1.757  11.619   8.924 -1.4252 -2.4393 -1.8515
  626MOL0     H84455   1.886  11.401   9.088  0.3274  1.6710  3.0721
  626MOL0     H84456   1.824  11.558   9.138  2.2122  3.2881 -4.2675
  626MOL0     H84457   1.673  11.317   9.008  2.0062 -3.7864  2.7375
  626MOL0     H84458   1.666  11.338   9.183 -1.2350  1.0533  0.4259
  626MOL0     H84459   1.531  11.516   8.989  0.5763 -0.0059 -0.6712
  626MOL0     H84460   1.547  11.550   9.166 -3.4690 -0.6795  0.9758
  626MOL0     H84461   1.449  11.260   8.947  1.5233  0.4524  1.5325
  626MOL0     H84462   1.209  11.044   9.173  0.2924 -1.5115 -1.7755
  626MOL0     H84463   1.150  11.116   9.021 -2.2573  2.0703  2.9677
  626MOL0     H84464   1.386  11.031   8.919  0.0898 -3.4850 -2.2252
  626MOL0     H84465   1.254  10.912   8.964  0.6637 -0.3813  0.3053
  626MOL0     H84466   1.468  10.832   9.025  0.8603  1.2577  0.6667
  626MOL0     H84467   1.378  10.884   9.172  0.9029  2.9377  1.8875
  626MOL0     H84468   1.499  11.052   9.224 -1.2126  1.1840 -1.2424
  626MOL0     H84469   1.568  11.092   9.071 -1.7405  2.0944  0.6423
  626MOL0     H84470   1.871  10.788   9.237  1.4464 -2.0896 -0.3471
  626MOL0     H84471   2.164  10.731   9.164  0.3534 -1.2194 -0.7143
  626MOL0     H84472   2.029  10.611   9.155 -2.1342 -0.7075 -0.8620
  626MOL0     H84473   2.134  10.640   9.022 -1.4154  0.3996 -0.1849
  626MOL0     H84474   2.385  10.656   8.815  1.5255 -1.0688 -2.0787
  626MOL0     H84475   2.558  10.681   8.615  0.3957  0.1044 -0.6792
  626MOL0     H84476   2.579  11.017   8.337  1.2884 -1.6675 -2.4078
  626MOL0     H84477   2.650  11.082   8.496 -4.5000  2.6895 -1.6783
  626MOL0     H84478   2.848  10.969   8.428  0.9315 -0.3866 -1.7202
  626MOL0     H84479   2.780  10.868   8.302  5.5387  1.0757 -1.9877
  626MOL0     H84480   2.804  11.168   8.282 -0.3665 -0.8873  1.8306
  626MOL0     H84481   2.722  11.070   8.160 -0.1281  0.8280 -0.2331
  626MOL0     H84482   3.015  11.058   8.261  0.6134  2.3137 -0.8183
  626MOL0     H84483   2.959  10.937   8.162 -0.1321 -1.1993  2.8435
  626MOL0     H84484   2.951  11.243   8.082 -3.0389 -0.6377  2.0868
  626MOL0     H84485   2.909  11.102   7.982 -0.3799 -1.0539  0.7772
  626MOL0     H84486   3.192  11.112   8.099  1.2907 -0.4004 -0.8266
  626MOL0     H84487   3.123  11.011   7.972 -1.7400  1.7804 -5.2542
  626MOL0     H84488   3.286  11.164   7.890  0.2726 -1.5639  1.2271
  626MOL0     H84489   3.198  11.308   7.956  1.6856 -0.6736  3.2880
  626MOL0     H84490   2.995  11.243   7.793 -0.2852 -1.5898  0.1835
  626MOL0     H84491   3.094  11.108   7.746  0.5939  0.3660  1.0506
  626MOL0     H84492   2.445  11.077   8.581  3.5288  0.1685 -0.1145
  626MOL0     H84493   2.264  11.055   8.759  0.3013  0.2513 -3.0294
  626MOL0     H84494   1.863  10.964   8.777 -0.8267 -4.3912 -0.8161
  626MOL0     H84495   1.689  11.023   8.928  0.3078 -0.4205 -0.2395
  626MOL0     H84496   2.091  11.723   8.395  0.7446  1.5321 -2.5473
  626MOL0     H84497   2.320  11.731   8.344 -0.0187  0.4361 -0.7410
  626MOL0     H84498   2.784  11.329   8.405 -2.8728  2.9099  2.6040
  626MOL0     H84499   3.010  11.386   8.398  0.3764  2.0282  0.7400
  626MOL0     H84500   3.215  11.536   8.414 -0.3329 -2.2127  0.8819
  626MOL0     H84501   3.215  11.412   8.294 -1.0053  0.2990 -0.7891
  626MOL0     H84502   3.436  11.513   8.342 -2.8903 -4.8991 -0.7146
  626MOL0     H84503   3.371  11.665   8.278  1.2709  0.3855  0.1170
  626MOL0     H84504   3.466  11.621   8.098  0.8422  0.3336 -0.5898
  626MOL0     H84505   3.323  11.553   8.049  0.8234  3.6300 -1.6023
  626MOL0     H84506   3.387  11.318   8.133 -0.0544 -1.0843 -1.8782
  626MOL0     H84507   3.543  11.381   8.191 -1.0079 -0.9114  1.1958
  626MOL0     H84508   3.587  11.367   7.769 -0.3916  1.4646  0.5077
  626MOL0     H84509   2.925  11.739   8.173  0.2813 -0.6373  1.4304
  626MOL0     H84510   2.689  11.684   8.186 -0.0971  1.5302  3.2631
  627MOL0     O84511   4.364   6.351   2.598  0.2690  0.6920  0.6276
  627MOL0     C84512   4.338   6.342   2.475 -0.5554  0.6010 -0.4051
  627MOL0     O84513   4.218   6.334   2.411 -0.3241  0.5903  0.5325
  627MOL0     C84514   4.094   6.321   2.477 -0.3687 -0.6325 -0.4630
  627MOL0     C84515   3.981   6.346   2.404 -0.0188 -0.6345  0.6150
  627MOL0     C84516   3.859   6.332   2.457  0.9560  0.1381 -0.6875
  627MOL0     C84517   3.844   6.301   2.590  0.1299  0.2701 -0.1806
  627MOL0     O84518   3.717   6.299   2.643 -0.6277 -0.2212  1.6723
  627MOL0     C84519   3.700   6.255   2.777 -0.6671 -0.6674  0.2921
  627MOL0     C84520   3.555   6.266   2.811  0.0080 -0.7511  1.0697
  627MOL0     C84521   3.456   6.192   2.709 -0.6206 -0.6689 -0.1856
  627MOL0     C84522   3.317   6.226   2.751 -0.4915  0.4619  0.1312
  627MOL0     C84523   3.204   6.163   2.661 -0.4918 -0.1181 -0.8994
  627MOL0     C84524   3.159   6.259   2.552 -0.9255 -0.5877 -0.3965
  627MOL0     C84525   3.069   6.182   2.454 -1.0371  0.6522  0.1202
  627MOL0     C84526   2.931   6.240   2.435  0.6004 -0.1510  0.3400
  627MOL0     N84527   2.859   6.166   2.325  0.1118 -0.5050 -0.8063
  627MOL0     C84528   2.751   6.232   2.271  1.0970 -0.0355 -1.1812
  627MOL0     C84529   2.686   6.133   2.197  0.8286 -0.6442  0.6317
  627MOL0     C84530   2.563   6.161   2.118  0.7178  0.0085 -0.3866
  627MOL0     C84531   2.452   6.053   2.136  0.4414 -0.0920  0.2850
  627MOL0     C84532   2.474   5.908   2.085 -0.4259 -0.5374 -0.6010
  627MOL0     C84533   2.355   5.820   2.119  0.4523 -0.2157  0.8195
  627MOL0     O84534   2.247   5.859   2.036  0.3032 -0.6727  0.4198
  627MOL0     C84535   2.130   5.797   2.057  0.9021  0.2502 -0.0574
  627MOL0     C84536   2.065   5.713   1.959  0.1513 -0.0212 -0.1957
  627MOL0     C84537   1.943   5.653   1.997  0.1685  0.4115 -0.1480
  627MOL0     C84538   1.885   5.572   1.880 -0.0907  0.5353 -0.3183
  627MOL0     C84539   1.895   5.645   2.130 -0.1761  0.3147  0.7846
  627MOL0     C84540   1.775   5.568   2.173 -0.2740  0.5099 -0.7757
  627MOL0     O84541   1.694   5.616   2.274  0.5124 -0.7196  0.3704
  627MOL0     C84542   1.616   5.529   2.340 -0.3123  0.2264 -0.0661
  627MOL0     C84543   1.474   5.529   2.323 -0.2731  0.4005 -0.6130
  627MOL0     C84544   1.407   5.423   2.392  0.1134 -0.3719  0.3639
  627MOL0     C84545   1.466   5.336   2.476 -0.1073  0.4952 -0.3334
  627MOL0     O84546   1.399   5.227   2.535 -0.1214  0.2733 -0.0789
  627MOL0     C84547   1.256   5.235   2.556  0.3701  0.1244 -0.2023
  627MOL0     C84548   1.170   5.183   2.446 -0.0498 -0.0798 -0.0658
  627MOL0     C84549   1.191   5.029   2.417 -1.0210 -0.0375  0.6083
  627MOL0     C84550   1.105   4.971   2.315 -0.1578  0.2387  0.0958
  627MOL0     C84551   1.105   4.827   2.304 -1.1565  0.4151  0.2294
  627MOL0     C84552   1.012   4.772   2.204  0.2796 -0.1328  0.5325
  627MOL0     C84553   1.025   4.629   2.184 -0.5925  0.5991  0.6685
  627MOL0     C84554   1.061   4.590   2.038 -0.0291 -0.7530 -0.7122
  627MOL0    Cl84555   1.036   4.415   1.999 -0.3469 -0.2629 -0.2991
  627MOL0     C84556   1.603   5.347   2.506 -0.1610  1.4307 -0.3309
  627MOL0     C84557   1.671   5.438   2.435 -0.5177  1.0011 -0.3200
  627MOL0     O84558   1.761   5.460   2.111 -0.0414  0.1256 -0.2879
  627MOL0     C84559   1.954   5.732   2.214  0.4626 -1.5291 -0.6336
  627MOL0     C84560   2.064   5.809   2.180  0.1756  0.1912  0.4196
  627MOL0     N84561   2.750   6.011   2.213  0.2125 -0.4081 -0.5612
  627MOL0     N84562   2.853   6.034   2.288 -0.0157  0.3458 -0.5136
  627MOL0     C84563   3.957   6.271   2.672 -0.1998  0.8493 -0.0387
  627MOL0     C84564   4.083   6.270   2.608  0.6740 -0.0164 -0.5170
  627MOL0     C84565   4.460   6.340   2.385 -0.8729 -0.3053 -0.7313
  627MOL0     C84566   4.595   6.347   2.428  0.0013 -0.0958 -1.0239
  627MOL0     C84567   4.699   6.370   2.336  0.0368 -0.3372 -0.1106
  627MOL0     C84568   4.666   6.370   2.202 -0.4282  0.9473  0.0809
  627MOL0     O84569   4.758   6.386   2.100  0.3592  0.0966 -0.0803
  627MOL0     C84570   4.823   6.517   2.101  0.1644  1.2559 -0.1296
  627MOL0     C84571   4.976   6.499   2.104 -0.0198 -0.2120 -0.9339
  627MOL0     C84572   5.005   6.395   1.994  0.3167  0.1503 -0.5034
  627MOL0     C84573   5.141   6.419   1.934 -0.7655 -0.0122 -0.1845
  627MOL0     C84574   5.186   6.288   1.879  0.1224  0.0198 -1.1587
  627MOL0     C84575   5.204   6.175   1.839  0.8222 -1.2642  0.0110
  627MOL0     C84576   4.533   6.363   2.162  0.2288 -0.7380 -0.4934
  627MOL0     C84577   4.437   6.340   2.250  0.3696  0.2697  1.2552
  627MOL0     H84578   3.987   6.380   2.301 -1.6885  1.7597  1.2157
  627MOL0     H84579   3.773   6.344   2.393  1.6303  0.0463 -1.6421
  627MOL0     H84580   3.740   6.153   2.775 -1.2510 -0.8962 -0.9081
  627MOL0     H84581   3.764   6.315   2.842 -0.1024  0.8477 -1.5412
  627MOL0     H84582   3.558   6.211   2.905  2.5353 -2.4242  0.1291
  627MOL0     H84583   3.528   6.371   2.825  1.5591 -0.2088  0.2267
  627MOL0     H84584   3.470   6.232   2.608  2.7606 -0.2144  0.3481
  627MOL0     H84585   3.477   6.085   2.709 -2.2560 -1.0253  0.9143
  627MOL0     H84586   3.308   6.178   2.849  3.7459 -2.7853 -0.8124
  627MOL0     H84587   3.295   6.332   2.767 -2.1474  0.4662 -1.7801
  627MOL0     H84588   3.228   6.061   2.627 -0.9752 -0.2822 -0.7530
  627MOL0     H84589   3.119   6.160   2.730 -1.1040  2.4678 -1.4480
  627MOL0     H84590   3.104   6.344   2.594  2.3438  0.8566  1.3560
  627MOL0     H84591   3.242   6.307   2.499 -0.8566 -1.5199 -1.1610
  627MOL0     H84592   3.118   6.199   2.357  0.8085  1.6328  1.1631
  627MOL0     H84593   3.070   6.073   2.469  3.1818  0.5520  0.3673
  627MOL0     H84594   2.927   6.347   2.411  2.7810 -0.4194 -1.5522
  627MOL0     H84595   2.872   6.206   2.520 -0.0183 -3.6319 -1.3046
  627MOL0     H84596   2.713   6.332   2.287  0.6643 -0.2130 -1.0937
  627MOL0     H84597   2.513   6.250   2.157 -1.0734 -0.4453 -1.5621
  627MOL0     H84598   2.583   6.187   2.014 -1.3868 -0.5874 -0.9917
  627MOL0     H84599   2.364   6.099   2.091  0.3737  0.5725  1.0842
  627MOL0     H84600   2.446   6.039   2.244  1.3016 -1.1498  0.2168
  627MOL0     H84601   2.559   5.870   2.142  0.5416  0.8369 -1.0657
  627MOL0     H84602   2.499   5.904   1.978 -0.3551  0.6786 -0.6483
  627MOL0     H84603   2.335   5.812   2.226 -5.0312 -0.6588  0.0563
  627MOL0     H84604   2.363   5.714   2.093 -1.5144 -0.1133 -0.4290
  627MOL0     H84605   2.109   5.709   1.860 -0.0818  0.0250 -0.3030
  627MOL0     H84606   1.913   5.618   1.785  4.2704 -0.1067  0.4175
  627MOL0     H84607   1.928   5.474   1.903 -0.6453  0.1321 -0.9621
  627MOL0     H84608   1.776   5.570   1.878 -0.1743  0.7245  1.7484
  627MOL0     H84609   1.432   5.593   2.246 -0.4270 -0.5819 -1.3669
  627MOL0     H84610   1.301   5.411   2.374  0.0145 -0.6792  1.1557
  627MOL0     H84611   1.238   5.178   2.648  2.0741  0.8581  0.6129
  627MOL0     H84612   1.235   5.341   2.576  2.0073  0.1445  1.6378
  627MOL0     H84613   1.067   5.192   2.481 -0.0736 -1.7627  0.3771
  627MOL0     H84614   1.173   5.236   2.351 -1.4950 -2.3064 -1.4398
  627MOL0     H84615   1.178   4.961   2.503  2.0770 -2.3447 -0.5552
  627MOL0     H84616   1.292   5.015   2.377 -2.1877 -1.2118 -2.1374
  627MOL0     H84617   1.003   4.998   2.343 -0.2244 -0.9514  1.1356
  627MOL0     H84618   1.118   5.008   2.213 -2.8628 -1.2556 -0.8845
  627MOL0     H84619   1.077   4.790   2.403 -0.0510  1.7545  1.0774
  627MOL0     H84620   1.209   4.801   2.281 -1.1571 -0.9379  1.6061
  627MOL0     H84621   0.907   4.776   2.237 -0.7295 -2.3071 -2.0192
  627MOL0     H84622   1.017   4.837   2.116  1.0591 -0.6034  0.2190
  627MOL0     H84623   0.939   4.570   2.220  0.3543 -3.2581 -2.6274
  627MOL0     H84624   1.108   4.591   2.244  0.1579 -0.3056 -0.8796
  627MOL0     H84625   1.164   4.613   2.007  0.7996 -1.3534  1.4533
  627MOL0     H84626   0.996   4.650   1.973  1.4687  1.7745 -0.0461
  627MOL0     H84627   1.657   5.288   2.579  0.8221  1.2206 -1.2043
  627MOL0     H84628   1.775   5.431   2.463 -0.6549 -0.8931 -0.1561
  627MOL0     H84629   1.917   5.717   2.315 -1.1770 -1.1219 -1.1306
  627MOL0     H84630   2.109   5.866   2.260  1.9602  0.2536 -0.5833
  627MOL0     H84631   3.951   6.242   2.776  2.7217 -0.7227 -0.2144
  627MOL0     H84632   4.169   6.256   2.673 -0.6102 -2.2300  0.7859
  627MOL0     H84633   4.602   6.325   2.534 -0.0573 -4.1830 -1.7300
  627MOL0     H84634   4.798   6.384   2.379 -0.2237 -2.0904  1.1810
  627MOL0     H84635   4.781   6.580   2.022 -1.3445  1.2504  0.6411
  627MOL0     H84636   4.793   6.573   2.191  0.1801 -0.2785  0.8762
  627MOL0     H84637   5.020   6.449   2.191 -0.1886  0.5893 -0.3803
  627MOL0     H84638   5.039   6.581   2.067  2.5471 -2.7158 -2.5673
  627MOL0     H84639   4.939   6.411   1.908  0.9948  3.1430 -0.5748
  627MOL0     H84640   4.989   6.292   2.028 -1.3504  0.2727 -0.8452
  627MOL0     H84641   5.214   6.471   1.996  0.9437 -0.5113 -1.6837
  627MOL0     H84642   5.129   6.493   1.855 -1.2046  0.6662  0.5157
  627MOL0     H84643   5.219   6.088   1.778 -2.4485  0.4856 -3.7132
  627MOL0     H84644   4.512   6.372   2.056  0.6520 -0.5682 -0.5666
  627MOL0     H84645   4.338   6.339   2.205  0.6416 -0.9409  0.6705
  628MOL0     O84646  11.091   2.612   3.062  0.0380 -0.0911  0.1783
  628MOL0     C84647  11.044   2.505   3.034 -0.1857 -0.4599 -0.2864
  628MOL0     O84648  11.098   2.426   2.936 -0.0225  0.1374 -0.2590
  628MOL0     C84649  11.212   2.455   2.867  0.4444  0.2556  0.9215
  628MOL0     C84650  11.277   2.334   2.821  0.2550  0.6970 -0.2980
  628MOL0     C84651  11.394   2.346   2.743 -0.3922  0.4865 -0.0949
  628MOL0     C84652  11.464   2.458   2.726  1.0753  0.1845  0.5257
  628MOL0     O84653  11.586   2.480   2.668 -0.6317 -0.7599 -0.2760
  628MOL0     C84654  11.641   2.384   2.577  1.1530  0.3373  1.5103
  628MOL0     C84655  11.735   2.450   2.480 -0.3372  1.0239  0.0753
  628MOL0     C84656  11.836   2.536   2.561 -0.1183  0.4052 -0.5734
  628MOL0     C84657  11.936   2.611   2.472 -1.3695  0.3126 -0.8302
  628MOL0     C84658  12.057   2.652   2.575 -0.3222 -0.2346 -0.0800
  628MOL0     C84659  12.139   2.768   2.537  0.3863 -0.2262  0.3399
  628MOL0     C84660  12.192   2.755   2.401 -0.2236  0.1146  0.5951
  628MOL0     C84661  12.242   2.882   2.324 -0.2440  0.2996 -0.7026
  628MOL0     N84662  12.357   2.937   2.402  0.5204 -0.0712  0.4997
  628MOL0     C84663  12.339   3.035   2.499 -0.6166 -1.0220  0.1357
  628MOL0     C84664  12.468   3.071   2.519 -0.1724 -0.6335  0.7168
  628MOL0     C84665  12.499   3.191   2.609  0.2009 -0.8575  0.8889
  628MOL0     C84666  12.596   3.285   2.537  0.0426  0.2148 -0.7323
  628MOL0     C84667  12.537   3.355   2.412 -0.5651  0.8008  0.0618
  628MOL0     C84668  12.452   3.478   2.456 -0.0648  0.0605 -0.3718
  628MOL0     O84669  12.330   3.454   2.531 -0.0366 -0.2070  0.3418
  628MOL0     C84670  12.223   3.388   2.464  0.3677 -0.9748 -0.4440
  628MOL0     C84671  12.132   3.323   2.554 -0.6576  0.6172 -0.3662
  628MOL0     C84672  12.028   3.242   2.507 -0.5353  0.8663 -0.5384
  628MOL0     C84673  11.934   3.182   2.609 -0.4627  0.5845  0.1359
  628MOL0     C84674  12.006   3.232   2.366  0.2405 -0.1342 -1.0854
  628MOL0     C84675  11.903   3.152   2.293  0.5360 -0.1067 -0.4223
  628MOL0     O84676  11.898   3.165   2.159 -0.5624  0.8068 -0.3673
  628MOL0     C84677  11.796   3.102   2.085 -0.2274  0.0608 -0.0979
  628MOL0     C84678  11.821   2.988   2.009  0.1332 -0.5418  0.5716
  628MOL0     C84679  11.724   2.928   1.933  0.1385  0.1705  0.0970
  628MOL0     C84680  11.595   2.975   1.926 -0.2927  0.2754 -0.4943
  628MOL0     O84681  11.490   2.913   1.859 -0.0721 -0.4553  0.4414
  628MOL0     C84682  11.528   2.848   1.736  0.3076  0.1077  0.4922
  628MOL0     C84683  11.401   2.832   1.648  0.6650  0.2714 -0.7528
  628MOL0     C84684  11.293   2.727   1.692 -0.1918  0.2715  0.2113
  628MOL0     C84685  11.176   2.735   1.585 -0.5488 -0.0094  0.9400
  628MOL0     C84686  11.097   2.601   1.592 -0.0070  0.6729  0.1986
  628MOL0     C84687  10.966   2.614   1.515  0.0813  0.2530  0.1642
  628MOL0     C84688  10.889   2.483   1.522 -0.5227 -0.5087 -0.1005
  628MOL0     C84689  10.755   2.475   1.447 -0.0322  0.2774  0.9171
  628MOL0    Cl84690  10.788   2.477   1.272  0.0842  0.2953 -0.5448
  628MOL0     C84691  11.561   3.069   2.022 -0.9784 -0.1250  0.9093
  628MOL0     C84692  11.656   3.129   2.096  0.4623  0.0985  0.5495
  628MOL0     O84693  11.831   3.075   2.359  0.0140 -0.2399  0.2448
  628MOL0     C84694  12.099   3.291   2.280 -0.4077 -1.1282 -0.3920
  628MOL0     C84695  12.204   3.377   2.330  0.7750  0.0663  0.1146
  628MOL0     N84696  12.545   3.000   2.435 -0.1350 -0.1323 -0.1730
  628MOL0     N84697  12.481   2.913   2.366 -0.0716  0.9653  0.2389
  628MOL0     C84698  11.410   2.562   2.784 -0.2409 -0.0685 -0.4902
  628MOL0     C84699  11.281   2.569   2.839 -0.5624 -0.5052 -0.3410
  628MOL0     C84700  10.919   2.456   3.098 -0.5174  0.6477 -0.1277
  628MOL0     C84701  10.845   2.354   3.028 -0.4912  0.1329 -0.8226
  628MOL0     C84702  10.726   2.309   3.088  0.8858 -0.3350 -0.5661
  628MOL0     C84703  10.688   2.360   3.214  1.2176 -0.0062 -0.1695
  628MOL0     O84704  10.573   2.307   3.274 -0.6183 -0.8918  0.3874
  628MOL0     C84705  10.539   2.345   3.408  0.3763 -0.2712  0.0324
  628MOL0     C84706  10.395   2.304   3.448  0.3408 -0.7366  0.8415
  628MOL0     C84707  10.326   2.399   3.548 -0.2753 -0.0577 -0.8119
  628MOL0     C84708  10.197   2.338   3.594 -1.3932  0.2052 -0.0863
  628MOL0     C84709  10.141   2.403   3.713 -0.7804 -0.3383 -0.0691
  628MOL0     C84710  10.110   2.442   3.821  0.8437  0.9154  0.0212
  628MOL0     C84711  10.762   2.458   3.277  0.7962 -0.2996 -0.1729
  628MOL0     C84712  10.871   2.508   3.211 -0.1991  0.1028  0.0395
  628MOL0     H84713  11.237   2.236   2.845  1.1075  0.0547 -1.3900
  628MOL0     H84714  11.446   2.255   2.713  1.0619  0.1540  3.0334
  628MOL0     H84715  11.701   2.314   2.637 -0.4161 -1.3805  1.1460
  628MOL0     H84716  11.558   2.346   2.517  1.3359  2.5172 -0.2517
  628MOL0     H84717  11.802   2.378   2.432 -2.0176  0.7768 -1.9925
  628MOL0     H84718  11.673   2.501   2.405 -2.7024  0.8938  1.8196
  628MOL0     H84719  11.767   2.599   2.618 -0.7384  0.1656 -1.0461
  628MOL0     H84720  11.889   2.468   2.629  1.8985  1.6503 -0.8340
  628MOL0     H84721  11.985   2.546   2.399 -1.4035 -2.6048  1.5742
  628MOL0     H84722  11.887   2.693   2.418 -2.8198  0.8315  1.1687
  628MOL0     H84723  12.025   2.673   2.677 -2.0061  0.0449 -0.6255
  628MOL0     H84724  12.118   2.566   2.602  0.1339 -0.1218 -0.7222
  628MOL0     H84725  12.080   2.859   2.550 -0.3806 -0.4375 -1.3593
  628MOL0     H84726  12.221   2.778   2.609  0.5035  1.9508 -0.0273
  628MOL0     H84727  12.278   2.687   2.402  0.6423  1.1651 -0.0554
  628MOL0     H84728  12.113   2.718   2.335  0.7437 -3.6839  1.3603
  628MOL0     H84729  12.160   2.952   2.308  0.3257  1.2056  0.2493
  628MOL0     H84730  12.256   2.829   2.229 -1.3776 -0.8091 -0.2806
  628MOL0     H84731  12.249   3.080   2.538  0.9931  1.3271  1.3962
  628MOL0     H84732  12.408   3.242   2.639  1.0035  1.0105  0.2966
  628MOL0     H84733  12.542   3.146   2.699 -1.5384 -0.1604  2.1220
  628MOL0     H84734  12.680   3.225   2.500 -0.2017  1.3746 -3.4417
  628MOL0     H84735  12.639   3.356   2.608 -1.0435 -1.3368  1.5889
  628MOL0     H84736  12.475   3.282   2.358 -2.0483  3.0241 -1.4400
  628MOL0     H84737  12.618   3.389   2.347  1.8846 -2.2124  1.3022
  628MOL0     H84738  12.432   3.546   2.373  0.0558 -0.5828 -0.9279
  628MOL0     H84739  12.514   3.539   2.523 -1.9357  0.8312  0.7549
  628MOL0     H84740  12.150   3.326   2.661 -1.6683 -0.7223 -0.1317
  628MOL0     H84741  11.924   3.075   2.588 -0.9892  1.0184 -2.1057
  628MOL0     H84742  11.981   3.185   2.708  2.9854 -2.8648 -1.1486
  628MOL0     H84743  11.832   3.223   2.606 -1.0796 -0.9498 -2.0669
  628MOL0     H84744  11.924   2.955   2.015  0.7109  1.2672  1.3163
  628MOL0     H84745  11.757   2.844   1.872 -1.1879  0.6518 -1.3343
  628MOL0     H84746  11.590   2.910   1.671 -1.5984  1.3254 -0.2588
  628MOL0     H84747  11.581   2.754   1.755  1.0241  0.5279  0.6380
  628MOL0     H84748  11.355   2.931   1.649 -1.8117 -0.7989 -1.1066
  628MOL0     H84749  11.432   2.809   1.545 -0.2737  2.6613 -1.6343
  628MOL0     H84750  11.259   2.751   1.793 -0.5729 -0.6731  0.3174
  628MOL0     H84751  11.341   2.629   1.687  0.3864  0.5456  0.3228
  628MOL0     H84752  11.118   2.826   1.607 -1.8236 -0.9311  1.5262
  628MOL0     H84753  11.211   2.742   1.481 -0.0557  0.7646  1.1452
  628MOL0     H84754  11.079   2.577   1.697  0.2217 -0.8743 -0.0845
  628MOL0     H84755  11.157   2.519   1.550  0.8318  1.9969 -1.2993
  628MOL0     H84756  10.904   2.699   1.546  0.8010  1.4308 -1.5326
  628MOL0     H84757  10.997   2.630   1.412 -1.6789 -0.4700 -0.5100
  628MOL0     H84758  10.870   2.466   1.628  1.2741  5.5214  1.5795
  628MOL0     H84759  10.952   2.404   1.480 -1.0748 -2.6890  2.8912
  628MOL0     H84760  10.702   2.569   1.465 -1.3271 -0.8434  3.6505
  628MOL0     H84761  10.699   2.390   1.488 -3.3872  0.9537 -1.8095
  628MOL0     H84762  11.459   3.107   2.017 -0.6040  0.8034  0.1062
  628MOL0     H84763  11.640   3.203   2.173  1.2858  0.1971  0.6338
  628MOL0     H84764  12.099   3.280   2.172 -0.6403  3.3630 -1.0362
  628MOL0     H84765  12.276   3.406   2.254  0.8230 -3.4823 -1.3823
  628MOL0     H84766  11.469   2.652   2.775 -1.3326  1.3633  4.0290
  628MOL0     H84767  11.241   2.662   2.877 -1.2970 -0.8012 -0.3641
  628MOL0     H84768  10.874   2.319   2.929 -0.5480  1.0126 -1.1562
  628MOL0     H84769  10.661   2.240   3.036 -2.6839  1.0897  1.6400
  628MOL0     H84770  10.607   2.304   3.484 -2.5900  2.7980  4.9381
  628MOL0     H84771  10.541   2.453   3.420 -3.1099 -0.0261 -0.6114
  628MOL0     H84772  10.401   2.200   3.480 -2.0680 -0.6837  1.6712
  628MOL0     H84773  10.322   2.304   3.367 -0.7308  0.5035  1.7518
  628MOL0     H84774  10.317   2.487   3.484  1.6413  0.5434 -0.3424
  628MOL0     H84775  10.393   2.407   3.634 -4.0931 -0.7129  2.5265
  628MOL0     H84776  10.204   2.233   3.625 -3.5070 -0.4752 -1.6650
  628MOL0     H84777  10.129   2.340   3.508  0.2565 -0.6869 -1.4831
  628MOL0     H84778  10.082   2.473   3.919  0.8883  1.4887 -0.1455
  628MOL0     H84779  10.737   2.520   3.362 -0.5443  0.0289 -0.7805
  628MOL0     H84780  10.929   2.588   3.258 -2.6454  2.5506 -0.8232
  629MOL0     O84781   7.648   7.854   8.589 -0.4440  0.0186  0.0116
  629MOL0     C84782   7.729   7.903   8.668  0.0558 -0.2047 -1.4390
  629MOL0     O84783   7.719   7.878   8.796 -0.2935 -0.8463  0.2086
  629MOL0     C84784   7.623   7.791   8.837  0.4810  0.9943  0.2009
  629MOL0     C84785   7.647   7.663   8.890  0.4936 -0.1581  0.3204
  629MOL0     C84786   7.546   7.563   8.914  0.2172 -0.0073  0.6436
  629MOL0     C84787   7.415   7.600   8.884  0.3133  0.1330 -0.3988
  629MOL0     O84788   7.308   7.513   8.892 -0.5206 -0.0595 -0.5786
  629MOL0     C84789   7.211   7.510   8.784 -0.3318  0.3172  0.0685
  629MOL0     C84790   7.251   7.399   8.683 -0.1231 -0.3051 -0.2351
  629MOL0     C84791   7.219   7.426   8.534  0.2985  0.5267 -0.1207
  629MOL0     C84792   7.165   7.302   8.455  0.9548 -0.0797 -0.2691
  629MOL0     C84793   7.281   7.212   8.426 -0.0221 -0.6859  0.0396
  629MOL0     C84794   7.236   7.088   8.348  0.1487 -0.4077 -0.6495
  629MOL0     C84795   7.351   7.007   8.309 -0.4873  0.8364  0.0267
  629MOL0     C84796   7.308   6.891   8.208 -0.1621  0.5282  0.7011
  629MOL0     N84797   7.221   6.790   8.276 -0.3586 -0.8716  0.2196
  629MOL0     C84798   7.235   6.740   8.404  0.1055 -0.8847 -0.5174
  629MOL0     C84799   7.148   6.640   8.421  0.2821 -0.7109  0.3946
  629MOL0     C84800   7.137   6.548   8.544  0.4072  0.2093  0.2993
  629MOL0     C84801   7.280   6.538   8.612  0.5932  0.0431 -0.2952
  629MOL0     C84802   7.307   6.418   8.700  0.8245  0.0895  0.7455
  629MOL0     C84803   7.191   6.392   8.803  0.2029 -0.1299  0.7702
  629MOL0     O84804   7.084   6.315   8.750  0.4332 -0.5024 -0.4211
  629MOL0     C84805   7.109   6.181   8.731  0.0983  0.1621 -1.1995
  629MOL0     C84806   7.204   6.098   8.799 -0.1998  0.2380  0.1208
  629MOL0     C84807   7.196   5.960   8.791 -0.1921 -0.5103 -0.1383
  629MOL0     C84808   7.305   5.878   8.858  0.7089 -0.3601 -0.2617
  629MOL0     C84809   7.103   5.899   8.702 -0.3676 -0.2403 -0.9027
  629MOL0     C84810   7.079   5.751   8.693 -0.5556  0.0192 -0.0722
  629MOL0     O84811   7.106   5.676   8.807  0.0079  0.3969  0.9393
  629MOL0     C84812   7.083   5.539   8.795  0.5670  0.5413 -0.0451
  629MOL0     C84813   7.097   5.443   8.681  0.0093  0.2629  0.2376
  629MOL0     C84814   7.069   5.305   8.702  0.1082  0.2873  0.5407
  629MOL0     C84815   7.028   5.258   8.828 -1.0387 -0.8622 -0.3596
  629MOL0     O84816   7.009   5.124   8.856  0.8430 -0.5822  0.2829
  629MOL0     C84817   6.892   5.068   8.807 -0.0835  0.0881  0.0059
  629MOL0     C84818   6.883   4.919   8.795 -1.0070  0.7468 -0.5287
  629MOL0     C84819   6.966   4.849   8.683  0.0420  0.0792 -0.9171
  629MOL0     C84820   7.114   4.871   8.715  1.0212  0.1065  0.3887
  629MOL0     C84821   7.205   4.800   8.617  0.1561 -0.3308 -0.6461
  629MOL0     C84822   7.198   4.858   8.476 -0.3174 -0.0736  0.0964
  629MOL0     C84823   7.270   4.765   8.380 -0.3827 -0.6156  0.2788
  629MOL0     C84824   7.309   4.830   8.247 -0.3708  0.9868 -0.4271
  629MOL0    Cl84825   7.350   4.700   8.146 -0.2246  0.2831 -0.0017
  629MOL0     C84826   7.021   5.347   8.933 -0.7668  0.7429 -0.1877
  629MOL0     C84827   7.054   5.477   8.918  0.3338 -0.7913 -0.4823
  629MOL0     O84828   7.022   5.706   8.592 -0.6849 -0.1534 -0.0593
  629MOL0     C84829   7.020   5.982   8.632  0.2594  1.0142 -0.4732
  629MOL0     C84830   7.019   6.113   8.647  0.0246  0.0478  1.1652
  629MOL0     N84831   7.072   6.619   8.308 -0.4297 -0.6355 -0.3866
  629MOL0     N84832   7.120   6.708   8.227 -0.9589  0.4224 -0.9314
  629MOL0     C84833   7.383   7.739   8.855 -0.7458  0.5215  0.0238
  629MOL0     C84834   7.488   7.830   8.835  0.0530 -0.1488 -0.0880
  629MOL0     C84835   7.838   8.000   8.634  1.0927  0.0168 -0.3019
  629MOL0     C84836   7.932   8.046   8.728  0.2623  0.3688  0.4938
  629MOL0     C84837   8.040   8.129   8.687  1.3018 -0.3203  0.6317
  629MOL0     C84838   8.044   8.190   8.564  0.3156 -0.1846 -0.2815
  629MOL0     O84839   8.146   8.266   8.523  0.9337 -1.1203  0.0431
  629MOL0     C84840   8.125   8.356   8.412  0.3626  0.6139  1.5031
  629MOL0     C84841   8.184   8.301   8.285 -0.3726  0.0966  0.7721
  629MOL0     C84842   8.198   8.414   8.177 -0.3075 -0.3937 -0.3975
  629MOL0     C84843   8.303   8.526   8.209  0.2959 -0.2025 -0.6053
  629MOL0     C84844   8.330   8.620   8.098  0.3028 -0.2197  0.1152
  629MOL0     C84845   8.345   8.699   8.009 -1.0610 -0.7608  0.7236
  629MOL0     C84846   7.952   8.128   8.476  0.8492 -1.5109  0.2385
  629MOL0     C84847   7.846   8.048   8.510  0.4179  0.3715  0.9121
  629MOL0     H84848   7.748   7.645   8.926  0.2094  1.0340  1.8082
  629MOL0     H84849   7.572   7.463   8.949  0.9212  0.1471  0.5828
  629MOL0     H84850   7.116   7.481   8.828  0.5129 -0.8662  1.1716
  629MOL0     H84851   7.194   7.605   8.731  2.1076 -0.7680 -2.9929
  629MOL0     H84852   7.359   7.391   8.667  0.0011  3.0337 -2.1348
  629MOL0     H84853   7.225   7.302   8.726  1.1667 -1.5385 -2.0705
  629MOL0     H84854   7.132   7.491   8.546  0.1360  0.2356  0.3148
  629MOL0     H84855   7.307   7.467   8.484 -0.0260  0.9264 -0.3671
  629MOL0     H84856   7.089   7.244   8.509  2.1529 -1.8049 -0.3299
  629MOL0     H84857   7.132   7.344   8.360  1.5296  1.4302  0.1642
  629MOL0     H84858   7.354   7.271   8.371 -1.2557  2.9067  1.9239
  629MOL0     H84859   7.314   7.182   8.526 -0.7025 -2.0047 -0.1089
  629MOL0     H84860   7.154   7.032   8.396 -1.4421  1.6217 -0.8734
  629MOL0     H84861   7.189   7.131   8.259 -2.5718 -1.7655 -0.0045
  629MOL0     H84862   7.425   7.062   8.251 -1.8762 -0.5938 -3.3894
  629MOL0     H84863   7.400   6.963   8.396 -0.0453 -3.7434 -2.2091
  629MOL0     H84864   7.392   6.825   8.182 -1.4997 -1.1383  0.4582
  629MOL0     H84865   7.261   6.932   8.118  0.5077 -3.1914 -1.5278
  629MOL0     H84866   7.309   6.779   8.473  1.0658 -0.2619 -1.8527
  629MOL0     H84867   7.058   6.579   8.612 -0.6176  0.4593 -0.9826
  629MOL0     H84868   7.105   6.451   8.504 -2.5305  1.3149 -0.2551
  629MOL0     H84869   7.294   6.630   8.670 -2.0232 -0.1164  0.7200
  629MOL0     H84870   7.357   6.540   8.534  1.0217  0.4517  0.1317
  629MOL0     H84871   7.405   6.419   8.749  0.1693 -0.5126  2.1048
  629MOL0     H84872   7.318   6.336   8.627 -1.5208  0.4319 -0.0818
  629MOL0     H84873   7.151   6.486   8.840 -2.2741 -1.0836  0.7296
  629MOL0     H84874   7.234   6.358   8.898 -2.0973  3.1222  3.1686
  629MOL0     H84875   7.295   6.128   8.851  0.2259 -1.9524  0.7509
  629MOL0     H84876   7.332   5.789   8.801 -0.0255 -0.9149  0.2333
  629MOL0     H84877   7.398   5.930   8.885  0.8316 -1.5781  1.9394
  629MOL0     H84878   7.262   5.838   8.951  0.1527 -0.6775 -0.6532
  629MOL0     H84879   7.130   5.469   8.581 -1.2965  0.6185 -0.1263
  629MOL0     H84880   7.073   5.232   8.622  0.5789 -0.8975  1.5925
  629MOL0     H84881   6.809   5.103   8.869 -0.4375 -1.5289  0.5068
  629MOL0     H84882   6.875   5.103   8.705  0.0716  1.2086  0.3583
  629MOL0     H84883   6.902   4.877   8.894  0.4794  4.6991  1.0425
  629MOL0     H84884   6.778   4.897   8.771 -0.6798  1.8413 -3.4955
  629MOL0     H84885   6.941   4.895   8.586 -1.6217  1.4502  0.0980
  629MOL0     H84886   6.945   4.742   8.675  1.6645 -0.1704 -2.4329
  629MOL0     H84887   7.126   4.977   8.691 -0.1841 -0.3030 -2.4998
  629MOL0     H84888   7.147   4.849   8.817 -2.2330  2.2529  2.0765
  629MOL0     H84889   7.171   4.697   8.627 -2.0578  0.4368  0.3596
  629MOL0     H84890   7.301   4.807   8.669 -0.9811 -2.2067  1.9409
  629MOL0     H84891   7.096   4.873   8.440  1.0236  3.7104 -2.8423
  629MOL0     H84892   7.244   4.957   8.469  0.5151 -0.4028  0.8305
  629MOL0     H84893   7.209   4.676   8.364  1.2379 -1.8419  0.6164
  629MOL0     H84894   7.356   4.728   8.437 -1.9413  1.1361  4.0727
  629MOL0     H84895   7.389   4.905   8.248 -0.4880  1.1144  0.9477
  629MOL0     H84896   7.223   4.884   8.207 -0.8247  0.7290  0.1840
  629MOL0     H84897   7.005   5.298   9.029  0.1177 -1.5219 -1.1371
  629MOL0     H84898   7.072   5.548   8.998 -4.2271 -1.1610  1.1574
  629MOL0     H84899   6.954   5.928   8.564  0.6242 -1.3354  0.9097
  629MOL0     H84900   6.951   6.180   8.595  1.9904  0.4426 -1.0828
  629MOL0     H84901   7.278   7.768   8.851 -1.5354 -1.4215  3.1318
  629MOL0     H84902   7.474   7.935   8.811 -3.3928 -0.0245  1.9050
  629MOL0     H84903   7.940   8.012   8.831  0.9173  4.4179  1.9745
  629MOL0     H84904   8.109   8.176   8.757  0.2647  0.6093  1.0701
  629MOL0     H84905   8.017   8.363   8.399  0.1129 -0.6057  2.7371
  629MOL0     H84906   8.145   8.462   8.431 -3.5301  1.5070  1.3970
  629MOL0     H84907   8.138   8.211   8.245  1.9890 -1.2162  0.7865
  629MOL0     H84908   8.282   8.258   8.311 -1.3086 -1.0026  2.6665
  629MOL0     H84909   8.103   8.463   8.155  0.3207  1.6962  1.2146
  629MOL0     H84910   8.229   8.360   8.087  0.2976 -1.5826  0.4924
  629MOL0     H84911   8.400   8.481   8.236  2.7930  4.6055 -0.4464
  629MOL0     H84912   8.264   8.595   8.285  0.6120  0.9247 -1.4452
  629MOL0     H84913   8.370   8.765   7.929 -0.2481 -0.6806  1.0298
  629MOL0     H84914   7.952   8.151   8.370 -0.6572  2.9961  0.9788
  629MOL0     H84915   7.768   8.018   8.440  1.0907 -0.4201  0.4822
  630MOL0     O84916   1.261   8.904   6.899  0.0667 -0.0051  0.4479
  630MOL0     C84917   1.253   9.025   6.880  0.1447  0.2291  0.2757
  630MOL0     O84918   1.342   9.119   6.932  0.0719 -0.0122 -0.4280
  630MOL0     C84919   1.455   9.090   7.002 -0.4945  0.1495 -0.1970
  630MOL0     C84920   1.466   8.986   7.097  0.4776 -0.0302  1.2198
  630MOL0     C84921   1.592   8.966   7.160  0.3084  0.2024 -0.2407
  630MOL0     C84922   1.702   9.048   7.135  0.0664  0.3215  0.5826
  630MOL0     O84923   1.807   9.045   7.223  0.8374 -0.3622  0.0080
  630MOL0     C84924   1.865   9.169   7.265  0.2839  0.3346 -0.1472
  630MOL0     C84925   1.935   9.151   7.396 -0.7546 -0.1949  0.0532
  630MOL0     C84926   2.058   9.056   7.392  0.0952 -0.7529  0.7120
  630MOL0     C84927   2.090   9.005   7.531  0.4630 -0.5673 -0.4279
  630MOL0     C84928   2.206   8.914   7.529  0.0657  0.5966 -0.0254
  630MOL0     C84929   2.207   8.850   7.670 -0.2057 -0.4386 -0.0504
  630MOL0     C84930   2.339   8.784   7.713  0.1676  0.3279 -0.0718
  630MOL0     C84931   2.372   8.660   7.631  0.9864 -0.1604  0.6966
  630MOL0     N84932   2.294   8.549   7.689  0.2919 -0.5480  0.4404
  630MOL0     C84933   2.330   8.491   7.807 -0.3145 -0.4646  0.6026
  630MOL0     C84934   2.219   8.424   7.854  0.2782 -0.7148  0.1705
  630MOL0     C84935   2.219   8.358   7.984  0.2493 -0.1776 -0.3399
  630MOL0     C84936   2.215   8.210   7.982 -0.7409 -0.0900  0.0602
  630MOL0     C84937   2.126   8.137   7.883  0.6735  0.3728  0.1690
  630MOL0     C84938   1.979   8.142   7.936 -0.5940  0.6631  0.1050
  630MOL0     O84939   1.901   8.025   7.903 -0.6620  0.5030  0.0340
  630MOL0     C84940   1.841   8.026   7.781 -0.0689  0.7983  0.2249
  630MOL0     C84941   1.873   8.101   7.666 -0.3826  0.7628  0.6746
  630MOL0     C84942   1.798   8.097   7.551  0.7427  0.3696 -0.8849
  630MOL0     C84943   1.855   8.166   7.435  0.2821 -0.3476  1.1770
  630MOL0     C84944   1.687   8.002   7.539 -0.0476 -1.0420  0.1249
  630MOL0     C84945   1.586   8.002   7.427 -0.0093  0.0612  0.0862
  630MOL0     O84946   1.601   8.102   7.326  0.7460 -0.2359  0.0443
  630MOL0     C84947   1.530   8.075   7.209  0.1333 -0.1108  0.0986
  630MOL0     C84948   1.392   8.056   7.201 -0.1190 -0.1359 -0.0669
  630MOL0     C84949   1.329   8.045   7.072  0.3143 -0.3199 -1.1901
  630MOL0     C84950   1.407   8.021   6.958 -0.0313  0.0428 -0.0170
  630MOL0     O84951   1.361   8.012   6.832  0.7128 -0.4827 -0.6957
  630MOL0     C84952   1.224   8.023   6.796 -0.0032 -0.1024 -0.8412
  630MOL0     C84953   1.213   8.010   6.644  0.0385 -0.7392 -0.7904
  630MOL0     C84954   1.071   8.005   6.609  0.0223 -0.2956 -0.2702
  630MOL0     C84955   1.044   7.953   6.465 -0.2633 -0.5123  0.3942
  630MOL0     C84956   0.898   7.968   6.403  0.2206  0.3946  0.5551
  630MOL0     C84957   0.884   7.916   6.261  0.3013 -0.1339 -0.2989
  630MOL0     C84958   0.738   7.908   6.215  1.0347  0.2591  1.1641
  630MOL0     C84959   0.721   7.806   6.101  0.8039 -0.6655  0.1233
  630MOL0    Cl84960   0.845   7.836   5.964 -0.1657 -0.0091 -0.3031
  630MOL0     C84961   1.547   8.022   6.981  0.3347  0.6280  0.4684
  630MOL0     C84962   1.609   8.047   7.103 -0.3134 -0.0863  0.9419
  630MOL0     O84963   1.498   7.914   7.422 -0.2416  0.4209 -0.1559
  630MOL0     C84964   1.660   7.932   7.661 -0.2424 -0.1802  0.3071
  630MOL0     C84965   1.735   7.941   7.777 -0.4299  0.7546  0.4659
  630MOL0     N84966   2.114   8.442   7.760  0.3806  0.4860  0.6634
  630MOL0     N84967   2.164   8.516   7.654 -0.0147  1.0473 -0.2432
  630MOL0     C84968   1.691   9.146   7.044  0.7472  0.5008  0.4189
  630MOL0     C84969   1.570   9.166   6.976  0.8459  0.5092  0.8485
  630MOL0     C84970   1.147   9.077   6.791  0.0117  0.5542  0.0110
  630MOL0     C84971   1.087   8.993   6.697  0.4192 -1.2984  0.2772
  630MOL0     C84972   0.977   9.036   6.621  0.1800 -0.6437  0.2162
  630MOL0     C84973   0.928   9.171   6.633  0.1677 -1.3238 -0.0198
  630MOL0     O84974   0.817   9.196   6.554 -0.8329 -0.7398  0.2535
  630MOL0     C84975   0.723   9.292   6.593  0.3313  0.0356  0.2044
  630MOL0     C84976   0.642   9.267   6.721  1.1811  0.0689  0.3316
  630MOL0     C84977   0.573   9.385   6.789 -0.3504 -0.2125  0.5577
  630MOL0     C84978   0.677   9.475   6.859  0.2326 -0.4162 -0.7194
  630MOL0     C84979   0.724   9.421   6.988  0.3947 -0.1698  0.3379
  630MOL0     C84980   0.763   9.380   7.094  0.4803  0.2342 -0.1750
  630MOL0     C84981   0.998   9.260   6.720  0.0190  0.3659  1.5594
  630MOL0     C84982   1.104   9.214   6.799  0.7529  0.0179  0.8277
  630MOL0     H84983   1.380   8.921   7.108 -0.7600  0.5639 -3.1399
  630MOL0     H84984   1.601   8.893   7.240  1.1396  0.4748 -0.0773
  630MOL0     H84985   1.943   9.195   7.192 -1.7890  4.4499 -1.1939
  630MOL0     H84986   1.796   9.252   7.281  0.0270  0.4312 -1.6074
  630MOL0     H84987   1.964   9.249   7.435 -2.3281 -0.0597  0.9396
  630MOL0     H84988   1.868   9.101   7.467  2.9280 -1.0786  3.3262
  630MOL0     H84989   2.032   8.965   7.337  0.8011 -2.5314  3.1522
  630MOL0     H84990   2.133   9.114   7.337 -2.4738 -0.2057 -2.5488
  630MOL0     H84991   2.107   9.094   7.593 -0.6648  0.5716 -1.6753
  630MOL0     H84992   2.002   8.949   7.564  0.7325  0.1753  1.7040
  630MOL0     H84993   2.195   8.857   7.436  0.0161  3.4914 -1.9019
  630MOL0     H84994   2.293   8.977   7.509 -0.5544  0.9346 -1.8233
  630MOL0     H84995   2.196   8.926   7.748  0.0890  2.7944 -2.9261
  630MOL0     H84996   2.125   8.778   7.685  1.6736 -2.6861  0.0415
  630MOL0     H84997   2.421   8.852   7.689 -0.7438  0.8108 -2.1060
  630MOL0     H84998   2.338   8.772   7.821 -0.9372 -0.3851 -0.1386
  630MOL0     H84999   2.479   8.635   7.636  0.4903 -2.1767  2.7871
  630MOL0     H85000   2.344   8.682   7.528  2.4178  1.2256  0.5478
  630MOL0     H85001   2.419   8.522   7.861 -0.5105  5.5387 -1.7030
  630MOL0     H85002   2.294   8.400   8.052 -1.7709 -0.5199  2.2180
  630MOL0     H85003   2.126   8.386   8.034  1.4784 -0.3733  2.1920
  630MOL0     H85004   2.191   8.171   8.081 -1.7659 -1.5744 -0.7337
  630MOL0     H85005   2.319   8.177   7.968 -1.3837 -1.2596 -2.6145
  630MOL0     H85006   2.164   8.035   7.868 -0.6017  0.2560 -2.9725
  630MOL0     H85007   2.138   8.175   7.782  0.6429 -0.3981 -0.1363
  630MOL0     H85008   1.932   8.235   7.904  1.2763  1.5212 -0.2610
  630MOL0     H85009   1.972   8.144   8.045 -3.4534 -2.5158  0.1401
  630MOL0     H85010   1.955   8.172   7.665  0.8116 -0.5984  0.5357
  630MOL0     H85011   1.868   8.088   7.359  0.7044 -1.4659  2.3497
  630MOL0     H85012   1.808   8.258   7.398  0.9414 -0.6673 -0.5762
  630MOL0     H85013   1.959   8.195   7.455  1.6717 -2.4452 -2.0409
  630MOL0     H85014   1.326   8.074   7.286 -1.7913 -2.8584 -0.6604
  630MOL0     H85015   1.224   8.073   7.070  0.2274 -0.4597  0.4757
  630MOL0     H85016   1.153   7.960   6.851  2.3977 -1.5699  0.7246
  630MOL0     H85017   1.176   8.119   6.817  0.4179 -0.5216  2.6363
  630MOL0     H85018   1.249   8.108   6.611 -1.0552 -0.1146 -0.2127
  630MOL0     H85019   1.275   7.926   6.614  2.9556  0.4641  1.3312
  630MOL0     H85020   1.024   8.103   6.621 -2.4736 -1.2695 -1.2627
  630MOL0     H85021   1.019   7.938   6.679  2.4674 -0.7375  1.2457
  630MOL0     H85022   1.124   7.988   6.400  2.3840  0.4837  3.8708
  630MOL0     H85023   1.057   7.844   6.471 -0.8459 -0.5671  0.6716
  630MOL0     H85024   0.874   8.074   6.407 -0.1962  0.3683 -0.6585
  630MOL0     H85025   0.834   7.907   6.468  0.4407  0.7146  1.0735
  630MOL0     H85026   0.954   7.965   6.193  2.2255 -3.3340 -0.8227
  630MOL0     H85027   0.933   7.818   6.261 -0.0134 -0.2954 -0.3556
  630MOL0     H85028   0.708   8.006   6.177  2.3163  0.8196  1.5132
  630MOL0     H85029   0.673   7.865   6.292  0.4046 -1.7265 -0.4038
  630MOL0     H85030   0.620   7.827   6.066  1.0068  2.4420  1.0399
  630MOL0     H85031   0.732   7.700   6.126  0.1796 -1.1574 -1.5355
  630MOL0     H85032   1.613   8.011   6.895 -0.9619 -0.4203 -0.4347
  630MOL0     H85033   1.716   8.059   7.110 -0.0504 -0.4247 -1.6098
  630MOL0     H85034   1.568   7.875   7.666 -0.0863 -0.7441 -1.9372
  630MOL0     H85035   1.704   7.891   7.868  0.5594 -0.0349  0.3927
  630MOL0     H85036   1.773   9.215   7.025  1.3687 -0.7538 -1.7450
  630MOL0     H85037   1.573   9.247   6.904 -1.2525  0.0816  0.2230
  630MOL0     H85038   1.113   8.889   6.680 -1.9200 -2.3294  2.3085
  630MOL0     H85039   0.926   8.966   6.556  1.9275  0.9392 -3.1818
  630MOL0     H85040   0.768   9.391   6.602 -0.6345  0.4700  0.2772
  630MOL0     H85041   0.653   9.304   6.511  1.3693 -0.3761 -0.7760
  630MOL0     H85042   0.709   9.226   6.797  0.9887  4.2169  3.0428
  630MOL0     H85043   0.565   9.194   6.695  1.3215  0.6091 -1.7657
  630MOL0     H85044   0.501   9.354   6.865 -1.9396  0.4116 -0.6316
  630MOL0     H85045   0.523   9.455   6.721 -1.3787  0.4845  1.9902
  630MOL0     H85046   0.646   9.578   6.877  2.1689  0.1203 -0.1734
  630MOL0     H85047   0.773   9.487   6.808  1.3832  1.1929  1.6340
  630MOL0     H85048   0.792   9.331   7.185  4.3931 -0.0333 -1.3853
  630MOL0     H85049   0.964   9.362   6.729  1.1182  0.8098  0.9030
  630MOL0     H85050   1.155   9.281   6.868  1.9706 -0.5435  0.4962
  631MOL0     O85051   0.009   7.753   2.928  0.0595  0.1950 -0.5635
  631MOL0     C85052   0.001   7.864   2.877 -0.2801  0.5946 -0.3520
  631MOL0     O85053  -0.086   7.897   2.780  0.6745 -0.3077  0.2253
  631MOL0     C85054  -0.183   7.808   2.742  0.3191 -0.0812 -0.2391
  631MOL0     C85055  -0.151   7.692   2.675 -0.0583  0.0513  1.1761
  631MOL0     C85056  -0.244   7.596   2.643  0.9373  0.7538 -0.5162
  631MOL0     C85057  -0.373   7.603   2.697 -0.1856 -0.1163 -0.1526
  631MOL0     O85058  -0.461   7.496   2.680 -0.0253  0.1514 -0.2735
  631MOL0     C85059  -0.501   7.453   2.547 -0.0500  0.5458 -0.0976
  631MOL0     C85060  -0.581   7.321   2.552 -0.1453  0.1260 -0.9129
  631MOL0     C85061  -0.508   7.214   2.635  0.2141 -0.2350  0.2008
  631MOL0     C85062  -0.557   7.075   2.598  0.2752  0.5439  0.0226
  631MOL0     C85063  -0.477   6.965   2.660  0.4778 -0.0432 -0.8252
  631MOL0     C85064  -0.541   6.821   2.657 -0.1246  0.2522  0.2284
  631MOL0     C85065  -0.532   6.757   2.517  0.0094  0.8217  0.4344
  631MOL0     C85066  -0.577   6.608   2.528 -0.9514  0.2797  0.0596
  631MOL0     N85067  -0.540   6.534   2.403 -0.2334  0.4111  0.1303
  631MOL0     C85068  -0.618   6.535   2.290  0.8739 -0.2662 -0.6226
  631MOL0     C85069  -0.551   6.468   2.195  1.0167  0.7011 -1.1305
  631MOL0     C85070  -0.586   6.441   2.055 -0.3458  0.6479 -0.4655
  631MOL0     C85071  -0.644   6.302   2.030  0.5453 -0.6651 -0.3847
  631MOL0     C85072  -0.777   6.283   2.110  0.1280 -0.2862  0.1490
  631MOL0     C85073  -0.815   6.135   2.093 -0.6000  0.5093 -0.6980
  631MOL0     O85074  -0.841   6.080   1.957 -0.5350 -0.1822  0.2902
  631MOL0     C85075  -0.961   6.109   1.901 -0.2918  0.3901 -1.4283
  631MOL0     C85076  -1.084   6.050   1.951  0.0900 -0.0925  0.0285
  631MOL0     C85077  -1.204   6.096   1.889 -0.4712  1.0838  0.4186
  631MOL0     C85078  -1.324   6.016   1.922  0.5111 -0.0990 -0.1503
  631MOL0     C85079  -1.212   6.199   1.794 -0.1698 -0.4927  0.1714
  631MOL0     C85080  -1.337   6.265   1.741  0.0305 -0.1987 -0.9761
  631MOL0     O85081  -1.454   6.227   1.796 -0.2127  0.6444  0.5337
  631MOL0     C85082  -1.570   6.284   1.758  0.6233 -0.4233 -0.0038
  631MOL0     C85083  -1.590   6.417   1.718 -0.2939  0.2025 -0.3151
  631MOL0     C85084  -1.713   6.470   1.681  0.0370  0.8322 -0.5783
  631MOL0     C85085  -1.831   6.383   1.692  0.9377  0.2189  0.6290
  631MOL0     O85086  -1.956   6.448   1.661 -0.2107  0.0282 -0.4528
  631MOL0     C85087  -2.085   6.385   1.692  0.2402 -0.2225  0.2196
  631MOL0     C85088  -2.194   6.479   1.641  0.1740 -0.3787  0.0242
  631MOL0     C85089  -2.330   6.427   1.640 -0.5784 -0.2250  0.4687
  631MOL0     C85090  -2.338   6.294   1.548 -0.1746 -0.1808 -0.2483
  631MOL0     C85091  -2.491   6.244   1.508 -0.0774  0.2025  0.2295
  631MOL0     C85092  -2.558   6.159   1.617 -0.9295 -0.7052 -0.2541
  631MOL0     C85093  -2.697   6.119   1.562 -0.6717  0.4365 -0.5918
  631MOL0     C85094  -2.686   5.994   1.469 -0.1758  0.1653  0.2721
  631MOL0    Cl85095  -2.840   5.927   1.410  0.1630 -0.1343  0.0253
  631MOL0     C85096  -1.816   6.249   1.739 -0.3803  0.0614  0.0780
  631MOL0     C85097  -1.691   6.204   1.777  0.1262  0.2524  0.2198
  631MOL0     O85098  -1.325   6.345   1.650 -0.2168  0.5934  0.6964
  631MOL0     C85099  -1.090   6.254   1.754  0.9452 -0.7874 -0.4724
  631MOL0     C85100  -0.968   6.200   1.797  0.2968  0.5579 -0.1051
  631MOL0     N85101  -0.440   6.431   2.257 -0.3338 -0.0543  0.2536
  631MOL0     N85102  -0.417   6.485   2.371  0.3564 -0.4064 -0.3120
  631MOL0     C85103  -0.409   7.720   2.766 -0.9613  0.0272 -0.2953
  631MOL0     C85104  -0.315   7.822   2.788 -0.0126  0.2063 -0.5225
  631MOL0     C85105   0.095   7.973   2.900  0.2478  0.3273  1.4854
  631MOL0     C85106   0.202   7.944   2.984  0.2129 -0.3300  0.2267
  631MOL0     C85107   0.293   8.043   3.022 -0.2083 -1.1920  0.1721
  631MOL0     C85108   0.280   8.175   2.964 -0.2495 -0.0712  0.5146
  631MOL0     O85109   0.354   8.286   2.994  0.7320  0.4623 -0.2766
  631MOL0     C85110   0.496   8.290   2.992 -0.4286 -0.3180  1.2648
  631MOL0     C85111   0.537   8.329   2.849 -0.6392 -0.6898 -0.9719
  631MOL0     C85112   0.514   8.486   2.827 -0.7020  1.0274 -0.7260
  631MOL0     C85113   0.633   8.575   2.887 -0.2906 -0.9446  0.4432
  631MOL0     C85114   0.657   8.586   3.034  0.7321 -0.7036 -0.3213
  631MOL0     C85115   0.688   8.562   3.150 -0.9754  0.3548  0.8613
  631MOL0     C85116   0.171   8.199   2.881 -0.5021  0.5796 -0.0020
  631MOL0     C85117   0.074   8.108   2.848  0.3076 -0.1727 -0.5778
  631MOL0     H85118  -0.055   7.668   2.631 -1.6759 -1.3307 -1.9736
  631MOL0     H85119  -0.207   7.513   2.584  0.8520 -0.3791  0.9652
  631MOL0     H85120  -0.553   7.535   2.497 -2.1163 -0.3811  0.4232
  631MOL0     H85121  -0.415   7.435   2.482 -0.4415 -1.6781 -0.0757
  631MOL0     H85122  -0.682   7.337   2.592  0.6032 -0.4186  1.3322
  631MOL0     H85123  -0.609   7.289   2.451 -0.3131  2.0654 -1.5282
  631MOL0     H85124  -0.400   7.231   2.620 -0.1494  3.2994  0.7298
  631MOL0     H85125  -0.527   7.223   2.742  1.6763 -0.3294  0.4902
  631MOL0     H85126  -0.662   7.068   2.627  0.9322 -1.1172  2.2151
  631MOL0     H85127  -0.541   7.064   2.490  1.6174  0.1799  0.2483
  631MOL0     H85128  -0.379   6.953   2.612  2.0792 -1.1020  2.3750
  631MOL0     H85129  -0.473   6.993   2.766 -4.2435  1.2710 -0.7946
  631MOL0     H85130  -0.487   6.755   2.726  1.2688  0.0529 -1.0085
  631MOL0     H85131  -0.645   6.830   2.692  0.4834 -0.5976  2.4886
  631MOL0     H85132  -0.608   6.801   2.451 -0.4668 -3.0579 -1.9352
  631MOL0     H85133  -0.433   6.767   2.473  0.2557  1.3286  1.0952
  631MOL0     H85134  -0.685   6.614   2.539 -0.7363 -0.1777  2.9731
  631MOL0     H85135  -0.544   6.549   2.614  1.7543 -0.7615 -1.5485
  631MOL0     H85136  -0.714   6.586   2.288 -0.8140 -3.0281  2.0267
  631MOL0     H85137  -0.655   6.521   2.026 -2.0052 -0.4689  0.2777
  631MOL0     H85138  -0.492   6.453   2.000 -0.7292 -0.4879 -1.3940
  631MOL0     H85139  -0.574   6.225   2.065  0.4890 -0.5087  0.0891
  631MOL0     H85140  -0.672   6.273   1.929 -1.0016 -1.0777  0.1301
  631MOL0     H85141  -0.859   6.350   2.083  0.9252  0.8115  0.4031
  631MOL0     H85142  -0.770   6.291   2.219 -1.3134 -0.0029  0.2380
  631MOL0     H85143  -0.907   6.111   2.147  1.8270  2.0372  4.8405
  631MOL0     H85144  -0.733   6.078   2.138 -1.6897 -0.9210 -0.4635
  631MOL0     H85145  -1.084   5.971   2.026  2.3233 -1.3801 -1.2269
  631MOL0     H85146  -1.369   5.979   1.830  2.2749 -0.1505 -1.0269
  631MOL0     H85147  -1.298   5.933   1.988 -1.6263 -0.3484  0.4781
  631MOL0     H85148  -1.400   6.076   1.975  1.4092  0.6063  0.3694
  631MOL0     H85149  -1.499   6.475   1.711 -0.8709  1.1826  0.0345
  631MOL0     H85150  -1.723   6.570   1.641 -1.1350  1.6599  1.6235
  631MOL0     H85151  -2.093   6.286   1.646  0.5456 -0.0913 -0.1241
  631MOL0     H85152  -2.100   6.363   1.798 -3.4126  0.2536 -0.0668
  631MOL0     H85153  -2.196   6.566   1.708  0.1059 -1.8902  2.0910
  631MOL0     H85154  -2.169   6.503   1.538 -2.2076 -3.1189 -1.3504
  631MOL0     H85155  -2.404   6.494   1.594 -3.3288 -1.4265  2.8012
  631MOL0     H85156  -2.357   6.406   1.744 -0.7450  0.5020  0.5768
  631MOL0     H85157  -2.294   6.323   1.452  1.8173  0.3531  0.7865
  631MOL0     H85158  -2.279   6.211   1.588  1.1550  0.7959 -0.1342
  631MOL0     H85159  -2.473   6.185   1.418  3.8499  0.3678  0.7508
  631MOL0     H85160  -2.555   6.328   1.478 -0.8228  0.3560  2.0842
  631MOL0     H85161  -2.494   6.073   1.641  0.7764  0.7065  0.5569
  631MOL0     H85162  -2.565   6.221   1.707 -4.4631  0.1933 -1.0196
  631MOL0     H85163  -2.743   6.205   1.512 -1.5134 -0.5086 -1.5029
  631MOL0     H85164  -2.764   6.091   1.644  1.4431 -2.4137  0.3449
  631MOL0     H85165  -2.630   5.909   1.510  0.6558 -2.3458 -5.1873
  631MOL0     H85166  -2.623   6.024   1.384 -1.5243  1.1498 -0.4172
  631MOL0     H85167  -1.897   6.179   1.753  0.1754 -0.3057  1.7230
  631MOL0     H85168  -1.684   6.105   1.821 -1.7638 -0.0358 -0.0470
  631MOL0     H85169  -1.089   6.334   1.680  2.5404  0.1714  0.5445
  631MOL0     H85170  -0.876   6.237   1.752  2.4645 -0.5988  3.0214
  631MOL0     H85171  -0.508   7.708   2.810 -0.6154 -2.8461 -0.1284
  631MOL0     H85172  -0.328   7.894   2.869  2.2638 -1.8536  1.8790
  631MOL0     H85173   0.221   7.847   3.029  0.1679 -0.8701 -0.8806
  631MOL0     H85174   0.375   8.011   3.085 -0.7972 -1.0441  1.0313
  631MOL0     H85175   0.530   8.365   3.065  2.5793 -0.7215  0.4258
  631MOL0     H85176   0.538   8.193   3.016  3.0871  1.0451  1.1792
  631MOL0     H85177   0.477   8.268   2.780 -3.2755  2.3304 -1.5801
  631MOL0     H85178   0.644   8.309   2.845 -0.1912 -0.1628  3.2304
  631MOL0     H85179   0.417   8.512   2.871 -1.9115 -2.6327 -0.9409
  631MOL0     H85180   0.497   8.515   2.723 -0.5208  0.5763 -0.8823
  631MOL0     H85181   0.613   8.678   2.856  0.2307 -1.0197 -0.1598
  631MOL0     H85182   0.724   8.543   2.836 -1.8537 -1.9491 -1.9164
  631MOL0     H85183   0.726   8.542   3.248 -1.0787  0.2493  0.8792
  631MOL0     H85184   0.152   8.299   2.843  0.5330  0.1243 -1.8556
  631MOL0     H85185  -0.013   8.132   2.787 -1.6595  1.7065  2.6618
  632MOL0     O85186   7.767   6.886   7.219 -0.2939 -0.5411  1.0286
  632MOL0     C85187   7.758   6.935   7.330 -0.5105  0.1947 -0.5280
  632MOL0     O85188   7.647   6.925   7.410 -0.4191 -0.8038  0.1011
  632MOL0     C85189   7.530   6.892   7.348  0.0300  0.2393 -0.3822
  632MOL0     C85190   7.454   6.793   7.420 -0.0218 -0.2950  0.8518
  632MOL0     C85191   7.328   6.758   7.365 -0.0279 -0.3191 -0.0969
  632MOL0     C85192   7.280   6.818   7.248  0.3977  0.2776  1.1463
  632MOL0     O85193   7.170   6.793   7.186  0.1622 -0.1178  0.4566
  632MOL0     C85194   7.072   6.702   7.239 -0.1325  0.4261 -0.4414
  632MOL0     C85195   6.944   6.702   7.136 -0.3976  0.8656  0.0401
  632MOL0     C85196   6.986   6.677   6.988  0.1504  0.0685  0.4555
  632MOL0     C85197   6.876   6.737   6.895  0.4420 -0.3001  0.3332
  632MOL0     C85198   6.883   6.701   6.748 -0.3427  0.1300  0.2412
  632MOL0     C85199   6.800   6.798   6.654  0.5230  0.2144  0.1254
  632MOL0     C85200   6.646   6.768   6.660 -0.1761 -0.1310  0.9558
  632MOL0     C85201   6.594   6.678   6.539  0.6383  0.2536  0.2505
  632MOL0     N85202   6.661   6.547   6.539 -0.2167 -0.3392  0.9656
  632MOL0     C85203   6.769   6.517   6.455 -0.0501  0.3960 -1.2991
  632MOL0     C85204   6.779   6.379   6.475 -0.0035 -0.0250  0.6912
  632MOL0     C85205   6.886   6.299   6.411  0.4508 -0.1321  0.2613
  632MOL0     C85206   7.013   6.326   6.496 -0.8962 -0.6168  0.2073
  632MOL0     C85207   7.108   6.208   6.507  0.4811  0.1953 -0.1202
  632MOL0     C85208   7.216   6.216   6.616  0.5113 -0.8372 -0.2346
  632MOL0     O85209   7.301   6.324   6.580  0.7354  0.9571 -0.4503
  632MOL0     C85210   7.420   6.352   6.650 -0.3998  0.2261 -0.0475
  632MOL0     C85211   7.486   6.268   6.748  0.7698 -0.1981  0.2439
  632MOL0     C85212   7.621   6.293   6.778 -0.2372  0.1157 -0.0219
  632MOL0     C85213   7.690   6.197   6.875 -0.5941 -0.1919  0.5582
  632MOL0     C85214   7.693   6.395   6.710 -0.1866 -0.3660 -0.3671
  632MOL0     C85215   7.831   6.423   6.726  0.1756  0.0293 -0.0191
  632MOL0     O85216   7.871   6.456   6.854 -0.2346 -0.0708  0.0920
  632MOL0     C85217   8.002   6.479   6.878 -0.1778  0.0219  0.2661
  632MOL0     C85218   8.042   6.609   6.937 -0.3227  0.3168  0.5746
  632MOL0     C85219   8.174   6.642   6.966  0.0871  0.8502 -0.1803
  632MOL0     C85220   8.273   6.543   6.944  0.2971 -0.6568 -0.4222
  632MOL0     O85221   8.400   6.588   6.967  0.6847 -0.6607  0.0829
  632MOL0     C85222   8.508   6.557   6.876  0.0669  0.1407  0.1170
  632MOL0     C85223   8.599   6.473   6.962 -0.8791 -0.1877  0.2538
  632MOL0     C85224   8.741   6.517   6.923 -0.1610  2.1002 -0.6145
  632MOL0     C85225   8.837   6.441   7.025 -0.2914 -0.3950  0.4567
  632MOL0     C85226   8.986   6.433   6.985  0.4625  0.0764 -0.8959
  632MOL0     C85227   9.065   6.399   7.122 -0.0188  0.5659  0.5859
  632MOL0     C85228   9.209   6.370   7.101 -0.0879  0.6543  1.0514
  632MOL0     C85229   9.273   6.293   7.215 -0.0081 -0.8757 -0.4975
  632MOL0    Cl85230   9.445   6.266   7.192 -0.5927 -0.3214  0.2974
  632MOL0     C85231   8.237   6.411   6.904  0.1984 -0.3409  0.2329
  632MOL0     C85232   8.108   6.378   6.873  0.7527  0.2117 -0.2975
  632MOL0     O85233   7.906   6.448   6.628  0.5854  0.1097  0.2743
  632MOL0     C85234   7.627   6.489   6.625  0.2046  0.1174 -0.0566
  632MOL0     C85235   7.490   6.463   6.591 -0.3245  0.1338 -0.1749
  632MOL0     N85236   6.681   6.329   6.552 -0.6101 -0.2097  0.1822
  632MOL0     N85237   6.613   6.426   6.587 -0.2728  0.0432  0.3372
  632MOL0     C85238   7.351   6.916   7.187 -0.5347 -0.4417 -0.4678
  632MOL0     C85239   7.472   6.955   7.236 -0.4451  0.1391  0.5511
  632MOL0     C85240   7.875   7.001   7.381 -0.3577  0.3697 -0.3276
  632MOL0     C85241   7.887   7.003   7.524 -0.0899  0.5902  0.5017
  632MOL0     C85242   7.993   7.055   7.588  0.8306  0.2813 -0.5246
  632MOL0     C85243   8.094   7.114   7.514 -0.8072 -0.1966  0.0172
  632MOL0     O85244   8.215   7.152   7.567  0.2260 -0.8705  0.0136
  632MOL0     C85245   8.220   7.210   7.704  0.0510 -0.0239  0.4789
  632MOL0     C85246   8.359   7.258   7.738 -0.3824 -0.1150  0.0603
  632MOL0     C85247   8.484   7.181   7.686  0.3622 -0.3739 -0.5307
  632MOL0     C85248   8.472   7.037   7.706 -0.5463  0.3065 -0.2296
  632MOL0     C85249   8.606   6.971   7.671 -0.0515  0.3529  0.4604
  632MOL0     C85250   8.704   6.900   7.655 -0.1562  0.2989  0.9971
  632MOL0     C85251   8.083   7.112   7.375  0.0730 -0.1660 -0.9393
  632MOL0     C85252   7.967   7.066   7.311 -0.5157 -0.3171  0.9889
  632MOL0     H85253   7.493   6.740   7.506 -0.9608 -0.0249  1.4578
  632MOL0     H85254   7.267   6.680   7.408  0.9526  0.0828  2.1684
  632MOL0     H85255   7.108   6.599   7.247  1.2346  0.6003 -3.2940
  632MOL0     H85256   7.039   6.741   7.336  1.3871  3.3932 -1.0162
  632MOL0     H85257   6.879   6.619   7.164 -0.7923  0.9784 -0.5276
  632MOL0     H85258   6.900   6.802   7.141  3.9034  2.9882  0.3504
  632MOL0     H85259   7.085   6.721   6.968 -0.3518  0.8335 -0.4353
  632MOL0     H85260   6.982   6.568   6.977 -0.5267 -0.0776  1.9546
  632MOL0     H85261   6.773   6.708   6.918  0.4982  1.6787  3.7621
  632MOL0     H85262   6.903   6.843   6.904  3.0258 -0.9172  0.4374
  632MOL0     H85263   6.987   6.712   6.717 -0.3722  1.2993  0.5284
  632MOL0     H85264   6.861   6.596   6.722  1.3780 -0.6546  1.7549
  632MOL0     H85265   6.808   6.906   6.670  1.0037 -0.1594  2.9336
  632MOL0     H85266   6.826   6.767   6.552 -1.4592 -1.1816 -0.0158
  632MOL0     H85267   6.619   6.708   6.748  1.2124 -2.2132  0.0052
  632MOL0     H85268   6.583   6.858   6.659  1.4954  1.0638  0.2997
  632MOL0     H85269   6.606   6.731   6.445 -0.4097  0.1461  0.0403
  632MOL0     H85270   6.490   6.652   6.562  0.1646  1.2520 -0.6685
  632MOL0     H85271   6.832   6.587   6.401  1.2866  0.1908 -0.0700
  632MOL0     H85272   6.844   6.198   6.421 -1.6123  0.3833 -2.1343
  632MOL0     H85273   6.906   6.323   6.306  0.2096  3.4382  0.9271
  632MOL0     H85274   6.994   6.344   6.602  0.1868 -2.4551  0.7687
  632MOL0     H85275   7.069   6.408   6.451  2.4981 -2.8297  0.0215
  632MOL0     H85276   7.145   6.182   6.408  0.4796  2.2165 -0.6909
  632MOL0     H85277   7.044   6.125   6.536  1.5361 -1.3211 -1.9455
  632MOL0     H85278   7.259   6.115   6.612  0.1576 -0.9437 -1.6985
  632MOL0     H85279   7.172   6.238   6.714  1.3925  0.0208 -0.0179
  632MOL0     H85280   7.439   6.181   6.794  0.3132 -0.0135  0.1354
  632MOL0     H85281   7.723   6.106   6.825  3.6222  0.8322  1.0432
  632MOL0     H85282   7.786   6.231   6.914 -0.6685  1.0774 -0.3022
  632MOL0     H85283   7.617   6.171   6.952 -2.1134 -1.5377 -1.2479
  632MOL0     H85284   7.982   6.697   6.959 -0.7921  0.6605 -1.7647
  632MOL0     H85285   8.189   6.741   7.009 -3.1440  0.9510  0.9557
  632MOL0     H85286   8.477   6.507   6.784 -3.3498 -0.9335  1.7196
  632MOL0     H85287   8.550   6.655   6.850  1.8611  0.3134  3.0983
  632MOL0     H85288   8.578   6.505   7.064  0.2714 -3.1592  1.5580
  632MOL0     H85289   8.581   6.365   6.961  2.2255 -0.8170  0.8215
  632MOL0     H85290   8.755   6.626   6.923  3.2289  1.7877 -0.1478
  632MOL0     H85291   8.771   6.480   6.824  0.8595 -1.8466  1.0107
  632MOL0     H85292   8.819   6.476   7.127 -1.4699  0.0506  0.1188
  632MOL0     H85293   8.803   6.337   7.016 -0.1193 -0.2729 -4.5663
  632MOL0     H85294   9.015   6.533   6.953  2.1133 -0.1059 -0.0818
  632MOL0     H85295   8.998   6.358   6.907 -0.9693 -1.2264  0.0756
  632MOL0     H85296   9.055   6.470   7.204  1.3709  0.3809  0.9372
  632MOL0     H85297   9.024   6.301   7.150 -0.5546 -0.0261 -1.9859
  632MOL0     H85298   9.258   6.465   7.075 -2.3938  1.8908  0.9356
  632MOL0     H85299   9.224   6.326   7.002 -1.4485 -1.1873  1.6174
  632MOL0     H85300   9.224   6.195   7.221  3.9446 -3.0653 -0.3472
  632MOL0     H85301   9.249   6.356   7.300 -3.1936 -0.2670 -1.7369
  632MOL0     H85302   8.309   6.330   6.892 -1.8155 -2.0926 -0.7169
  632MOL0     H85303   8.077   6.281   6.836 -0.9523  0.8030 -0.5251
  632MOL0     H85304   7.674   6.565   6.564  2.0299 -0.5452  0.4337
  632MOL0     H85305   7.434   6.525   6.522 -1.1316 -1.4916 -1.0305
  632MOL0     H85306   7.309   6.974   7.105 -2.3390  2.4075  2.2210
  632MOL0     H85307   7.528   7.034   7.188 -0.4019 -0.8921 -1.1910
  632MOL0     H85308   7.819   6.947   7.587  1.8645 -0.9776  1.3334
  632MOL0     H85309   7.998   7.054   7.697  2.6806  0.6396 -0.5753
  632MOL0     H85310   8.152   7.293   7.726 -0.6451 -0.8833  1.6575
  632MOL0     H85311   8.198   7.134   7.780  4.0526 -0.4156  1.4403
  632MOL0     H85312   8.368   7.264   7.847 -0.8490  0.1007  0.0890
  632MOL0     H85313   8.370   7.361   7.703 -0.6095  0.3625  1.3161
  632MOL0     H85314   8.573   7.208   7.744 -0.0262 -2.2246  1.0259
  632MOL0     H85315   8.510   7.202   7.582  2.5373  0.2197  0.0882
  632MOL0     H85316   8.399   6.990   7.641  0.2675 -2.9965  1.0409
  632MOL0     H85317   8.448   7.013   7.810 -1.1461 -0.9921 -0.6416
  632MOL0     H85318   8.794   6.845   7.638  1.3515  3.5542 -3.6432
  632MOL0     H85319   8.149   7.164   7.307 -0.2858 -2.7281 -3.4411
  632MOL0     H85320   7.964   7.085   7.204 -0.4925  0.2706  1.0879
  633MOL0     O85321   9.731   4.966   3.116 -0.2665  0.5756 -0.0145
  633MOL0     C85322   9.740   5.014   3.002  0.1818  0.6940 -0.2179
  633MOL0     O85323   9.645   4.999   2.897 -0.0415 -0.6517  0.0757
  633MOL0     C85324   9.521   4.950   2.915 -0.4535 -0.6226  0.5131
  633MOL0     C85325   9.458   4.914   2.803 -0.3445 -0.4799 -0.2403
  633MOL0     C85326   9.326   4.855   2.800 -0.0674 -0.6355  0.4650
  633MOL0     C85327   9.256   4.842   2.919  0.5152 -0.5710 -0.1825
  633MOL0     O85328   9.147   4.754   2.912 -0.1237 -0.3555 -0.1226
  633MOL0     C85329   9.048   4.742   3.022 -0.5005  0.3787  1.0060
  633MOL0     C85330   8.939   4.637   2.991  0.0884 -0.7799  0.5663
  633MOL0     C85331   8.865   4.602   3.121  0.0923  0.3883  0.1947
  633MOL0     C85332   8.753   4.510   3.097 -0.3810 -0.0155 -0.1014
  633MOL0     C85333   8.703   4.466   3.236 -0.8973  0.6535 -0.0568
  633MOL0     C85334   8.621   4.334   3.236  0.1513  0.2670 -0.2825
  633MOL0     C85335   8.484   4.354   3.163  0.3942  0.5730  0.5378
  633MOL0     C85336   8.488   4.359   3.004 -0.5663 -0.0119  0.0206
  633MOL0     N85337   8.558   4.246   2.949 -1.2302 -1.1328 -0.7497
  633MOL0     C85338   8.542   4.111   2.984 -0.7874 -0.0920  0.7005
  633MOL0     C85339   8.617   4.043   2.886  0.2828  1.0658  0.2185
  633MOL0     C85340   8.630   3.884   2.888 -0.1777  0.2240 -0.3903
  633MOL0     C85341   8.669   3.807   3.018 -0.5798 -0.2120 -0.0134
  633MOL0     C85342   8.813   3.842   3.073  0.0843 -0.5729  0.1094
  633MOL0     C85343   8.838   3.786   3.204  0.0759  0.3635 -0.8992
  633MOL0     O85344   8.964   3.827   3.235 -0.4591 -0.1481  0.1768
  633MOL0     C85345   9.003   3.807   3.364 -0.0996  0.2144  0.9286
  633MOL0     C85346   8.923   3.840   3.472  0.2865  0.2051  0.2200
  633MOL0     C85347   8.969   3.820   3.607  0.0957  0.3539  0.2274
  633MOL0     C85348   8.872   3.845   3.714 -0.1686 -0.8141  0.6434
  633MOL0     C85349   9.101   3.778   3.622  0.3046  0.2544 -0.0295
  633MOL0     C85350   9.169   3.756   3.760  0.5741 -0.4637 -0.3532
  633MOL0     O85351   9.087   3.743   3.870 -0.5920 -0.0949 -0.1644
  633MOL0     C85352   9.143   3.742   3.992  0.1571  0.3490  0.2308
  633MOL0     C85353   9.108   3.845   4.080  1.5520  0.0564 -0.1882
  633MOL0     C85354   9.142   3.850   4.219 -0.6200  0.2936 -0.1051
  633MOL0     C85355   9.221   3.742   4.268  0.1728 -1.0080  0.6044
  633MOL0     O85356   9.266   3.761   4.393  0.5664  0.6616 -0.5740
  633MOL0     C85357   9.365   3.668   4.442  0.2786 -0.2666  0.3284
  633MOL0     C85358   9.406   3.715   4.581  0.4710  0.2394  0.3690
  633MOL0     C85359   9.531   3.633   4.637 -0.1331  0.3056  0.3011
  633MOL0     C85360   9.605   3.683   4.765  0.0988 -0.4163 -0.0923
  633MOL0     C85361   9.744   3.614   4.785 -0.5682  0.5460 -0.0001
  633MOL0     C85362   9.858   3.662   4.690  0.3291  0.1954  0.7984
  633MOL0     C85363   9.993   3.672   4.757 -0.0167  0.0622 -0.0747
  633MOL0     C85364  10.061   3.548   4.820 -0.0253 -0.0705  0.4679
  633MOL0    Cl85365  10.086   3.410   4.705 -0.2804  0.0105 -0.0207
  633MOL0     C85366   9.251   3.637   4.185  0.5967  0.8977 -0.4699
  633MOL0     C85367   9.210   3.633   4.051  0.1019 -0.9722 -0.7664
  633MOL0     O85368   9.292   3.759   3.763 -0.3035  0.5016 -0.2667
  633MOL0     C85369   9.185   3.770   3.511 -0.4356  0.9093  0.0517
  633MOL0     C85370   9.137   3.770   3.386  0.0198  0.4721  0.1024
  633MOL0     N85371   8.674   4.136   2.798  0.5506 -0.5694 -0.2285
  633MOL0     N85372   8.644   4.253   2.840 -0.3567  0.1581  0.2128
  633MOL0     C85373   9.320   4.872   3.039 -1.4532  0.1116 -0.2983
  633MOL0     C85374   9.452   4.931   3.027 -0.1599  0.5838 -0.4699
  633MOL0     C85375   9.858   5.082   2.954  0.2460  0.0209  0.0528
  633MOL0     C85376   9.968   5.082   3.032 -0.9930  0.1531 -0.7736
  633MOL0     C85377  10.084   5.143   2.981  0.0556 -0.1766  0.4722
  633MOL0     C85378  10.082   5.213   2.861 -0.5877 -0.1613 -0.4451
  633MOL0     O85379  10.195   5.282   2.797  0.0581  0.1748 -0.2414
  633MOL0     C85380  10.324   5.245   2.825 -0.3379 -0.4927  0.2244
  633MOL0     C85381  10.360   5.327   2.948 -0.6527 -0.1854  0.1511
  633MOL0     C85382  10.495   5.387   2.954 -0.4839 -0.2573  0.2691
  633MOL0     C85383  10.606   5.286   2.991 -0.0888 -0.3062  0.2769
  633MOL0     C85384  10.740   5.329   2.961 -0.6186 -0.2016  0.8433
  633MOL0     C85385  10.850   5.352   2.911 -0.2682  0.2123  0.3415
  633MOL0     C85386   9.965   5.218   2.789  0.3132 -0.4001  0.3109
  633MOL0     C85387   9.849   5.155   2.833  0.0975 -0.0529 -0.3270
  633MOL0     H85388   9.503   4.926   2.705 -0.1045 -0.8265 -0.1711
  633MOL0     H85389   9.286   4.826   2.703  0.4569  0.2071 -0.0140
  633MOL0     H85390   9.087   4.713   3.120 -0.6955 -3.6396  0.0514
  633MOL0     H85391   9.000   4.838   3.046 -1.4312 -0.3952  2.3917
  633MOL0     H85392   8.864   4.658   2.914 -0.1192 -0.0118  0.9601
  633MOL0     H85393   8.994   4.550   2.954  0.8895 -0.8501  1.8270
  633MOL0     H85394   8.941   4.557   3.186 -0.3633 -0.4283  0.1775
  633MOL0     H85395   8.833   4.688   3.179  3.9564 -0.6478  4.4719
  633MOL0     H85396   8.680   4.572   3.043 -0.7048 -0.2585  0.0563
  633MOL0     H85397   8.783   4.417   3.048 -0.3018 -0.3245  0.5254
  633MOL0     H85398   8.788   4.458   3.304  0.6669  0.9970 -1.8839
  633MOL0     H85399   8.648   4.557   3.264 -1.1180  1.1200 -1.8621
  633MOL0     H85400   8.676   4.243   3.210  0.2580  0.2426  0.0192
  633MOL0     H85401   8.604   4.308   3.341  1.0673 -2.7844 -0.7802
  633MOL0     H85402   8.419   4.272   3.194 -3.7520  2.2414 -2.7799
  633MOL0     H85403   8.427   4.441   3.197  0.5757  1.2223 -0.7186
  633MOL0     H85404   8.534   4.450   2.965 -3.4022  0.4945 -2.5274
  633MOL0     H85405   8.387   4.341   2.967 -0.1817 -2.7775  0.0440
  633MOL0     H85406   8.467   4.061   3.045 -1.6344 -3.0545 -2.4263
  633MOL0     H85407   8.541   3.835   2.846 -0.5026  0.3545  0.1450
  633MOL0     H85408   8.714   3.870   2.819 -0.2694 -0.6959 -0.3169
  633MOL0     H85409   8.667   3.699   3.001 -3.7677 -0.0906 -1.1375
  633MOL0     H85410   8.593   3.843   3.088 -1.2144 -0.6939 -0.4423
  633MOL0     H85411   8.825   3.950   3.079  1.4588 -0.7525  1.2255
  633MOL0     H85412   8.890   3.799   3.008 -0.4555  0.5919 -1.3619
  633MOL0     H85413   8.831   3.677   3.197 -1.2459  0.4776 -1.8166
  633MOL0     H85414   8.762   3.822   3.274  0.6539  1.1509 -0.6633
  633MOL0     H85415   8.829   3.891   3.452 -0.4528 -2.1057 -3.0405
  633MOL0     H85416   8.770   3.842   3.676  0.5872  0.1086 -1.6278
  633MOL0     H85417   8.871   3.760   3.783 -0.1549  0.7744  2.7159
  633MOL0     H85418   8.885   3.935   3.775  1.0191 -1.6228  1.6455
  633MOL0     H85419   9.048   3.927   4.043  1.2965  0.1165  0.3549
  633MOL0     H85420   9.107   3.927   4.286  0.2185  0.2423  0.4127
  633MOL0     H85421   9.341   3.561   4.441 -0.9636 -0.0865  2.6387
  633MOL0     H85422   9.457   3.668   4.383 -0.0585 -0.8139 -0.2141
  633MOL0     H85423   9.442   3.817   4.564  0.2026 -0.1266 -3.0379
  633MOL0     H85424   9.321   3.709   4.650 -1.6902  0.9424 -2.0869
  633MOL0     H85425   9.595   3.606   4.552 -2.4321 -0.5240 -1.2532
  633MOL0     H85426   9.492   3.536   4.669  3.5119 -1.1845  0.7302
  633MOL0     H85427   9.621   3.791   4.769  0.3198 -0.4361 -0.3536
  633MOL0     H85428   9.536   3.657   4.845 -3.0979  1.4606 -2.0331
  633MOL0     H85429   9.735   3.506   4.777  0.6128  0.4359 -0.0401
  633MOL0     H85430   9.784   3.627   4.886  0.4060 -2.0023 -0.0003
  633MOL0     H85431   9.874   3.590   4.608  2.1881  1.1922  0.2324
  633MOL0     H85432   9.825   3.761   4.656 -1.6699 -0.0164  1.9402
  633MOL0     H85433   9.985   3.746   4.836  2.5963 -0.4654  0.8029
  633MOL0     H85434  10.051   3.710   4.673 -1.9215  1.5774 -0.7713
  633MOL0     H85435   9.992   3.512   4.896 -1.8016 -1.0776 -1.4998
  633MOL0     H85436  10.156   3.581   4.863 -1.3415  0.7682  2.9416
  633MOL0     H85437   9.299   3.549   4.227  2.5107  2.5506  0.9731
  633MOL0     H85438   9.252   3.540   4.012 -0.3785 -0.7496 -1.8501
  633MOL0     H85439   9.286   3.731   3.522  0.5191  2.8413 -1.2504
  633MOL0     H85440   9.211   3.762   3.307  0.7972 -0.3019  0.8796
  633MOL0     H85441   9.266   4.871   3.133 -1.1385 -0.5654 -0.1191
  633MOL0     H85442   9.495   4.972   3.118 -0.2067  0.3598 -0.3474
  633MOL0     H85443   9.972   5.028   3.126 -0.6040  3.5538  1.3216
  633MOL0     H85444  10.171   5.159   3.043  0.2611 -1.1630  0.4590
  633MOL0     H85445  10.344   5.147   2.869 -0.7658  0.2177  2.1070
  633MOL0     H85446  10.393   5.256   2.741  1.1709  1.9983  1.6677
  633MOL0     H85447  10.346   5.266   3.038  4.3557 -0.1287  1.2364
  633MOL0     H85448  10.288   5.409   2.945 -1.8870 -1.2151  0.6857
  633MOL0     H85449  10.491   5.467   3.028 -0.9316  2.8068 -2.8436
  633MOL0     H85450  10.526   5.431   2.859 -0.0982 -1.9144 -0.4219
  633MOL0     H85451  10.599   5.189   2.942  0.2481 -1.1736  1.8602
  633MOL0     H85452  10.598   5.265   3.099 -3.3695  1.4595  0.5091
  633MOL0     H85453  10.944   5.360   2.860  0.4285  0.8795  1.6739
  633MOL0     H85454   9.953   5.269   2.694 -1.4617 -1.9995 -0.3895
  633MOL0     H85455   9.768   5.158   2.761 -1.7993 -0.2062  1.6951
  634MOL0     O85456   9.750   2.542   2.045  0.1510  0.7955  0.2843
  634MOL0     C85457   9.748   2.650   1.995  0.0527 -0.4964 -0.2226
  634MOL0     O85458   9.636   2.725   1.973  0.8095  0.3330 -0.6242
  634MOL0     C85459   9.516   2.664   1.960  0.7413 -0.7792 -0.4353
  634MOL0     C85460   9.446   2.696   1.842  0.1287 -0.5921 -0.1638
  634MOL0     C85461   9.311   2.659   1.829 -0.1356 -0.2932  0.0652
  634MOL0     C85462   9.255   2.574   1.927  0.3634 -0.0178 -0.2000
  634MOL0     O85463   9.134   2.520   1.901  0.5987 -0.0639 -0.4147
  634MOL0     C85464   9.024   2.606   1.852 -0.9070 -0.5287  1.0200
  634MOL0     C85465   8.910   2.513   1.805 -0.3073  0.1688  0.7946
  634MOL0     C85466   8.809   2.492   1.918 -1.1101  0.1277 -0.6357
  634MOL0     C85467   8.715   2.380   1.871 -0.2570  0.0483  0.5409
  634MOL0     C85468   8.608   2.342   1.978 -0.8096 -0.4960  0.8809
  634MOL0     C85469   8.519   2.221   1.927 -0.4667  0.3214  0.4748
  634MOL0     C85470   8.382   2.198   1.997 -0.0222  0.3830  1.0070
  634MOL0     C85471   8.284   2.308   1.966  0.2816  0.1611  0.7489
  634MOL0     N85472   8.197   2.335   2.076  0.7679  0.8142 -0.4569
  634MOL0     C85473   8.076   2.269   2.101 -0.6927  0.1053  1.0400
  634MOL0     C85474   8.047   2.302   2.228  0.5469  0.0777 -0.3600
  634MOL0     C85475   7.942   2.232   2.306 -0.4459 -0.6068  0.8131
  634MOL0     C85476   7.796   2.282   2.279  0.2191  0.5638 -0.7369
  634MOL0     C85477   7.766   2.411   2.364 -0.1974  0.2881  0.1252
  634MOL0     C85478   7.617   2.449   2.356  0.7718  0.9252  0.0916
  634MOL0     O85479   7.530   2.333   2.368  0.0551  0.5548  0.5310
  634MOL0     C85480   7.406   2.346   2.415  0.6943  0.2720  0.2267
  634MOL0     C85481   7.320   2.446   2.368 -0.5100 -0.1939  0.2009
  634MOL0     C85482   7.199   2.464   2.433  0.1956 -0.0125 -0.2015
  634MOL0     C85483   7.102   2.577   2.388  0.3797 -0.3919  0.1953
  634MOL0     C85484   7.153   2.367   2.534  0.0384 -0.3464 -0.0823
  634MOL0     C85485   7.016   2.350   2.598  0.3659  0.2781  0.0040
  634MOL0     O85486   6.976   2.240   2.680 -0.0756  0.9008  0.1256
  634MOL0     C85487   6.846   2.248   2.736  0.8910 -0.0119  0.3691
  634MOL0     C85488   6.822   2.258   2.870 -0.4277  0.0792 -0.6054
  634MOL0     C85489   6.695   2.276   2.921 -0.4798  0.3684 -0.0055
  634MOL0     C85490   6.577   2.281   2.831  0.3596 -0.0479 -0.7601
  634MOL0     O85491   6.450   2.297   2.898 -0.0038  0.8275  0.5973
  634MOL0     C85492   6.338   2.233   2.837 -0.0816  0.1823  0.4895
  634MOL0     C85493   6.209   2.264   2.896 -0.0744  0.3158 -0.7403
  634MOL0     C85494   6.102   2.179   2.839  0.5540  0.2575  0.5172
  634MOL0     C85495   6.072   2.218   2.690  0.1267  0.2980  0.4238
  634MOL0     C85496   5.959   2.137   2.627  0.5654 -0.5276  0.0656
  634MOL0     C85497   5.886   2.217   2.521  0.8045  0.7960  0.1716
  634MOL0     C85498   5.749   2.157   2.505 -0.3530 -1.0495 -0.0730
  634MOL0     C85499   5.676   2.234   2.395  0.9297 -0.2587  0.3080
  634MOL0    Cl85500   5.607   2.399   2.442 -0.0969 -0.2381  0.2520
  634MOL0     C85501   6.608   2.254   2.700  0.2571  0.6103  0.1309
  634MOL0     C85502   6.742   2.241   2.651 -0.3831  0.0764  1.1641
  634MOL0     O85503   6.941   2.435   2.555  0.1129  0.1391  0.5067
  634MOL0     C85504   7.244   2.267   2.562 -1.2536  0.6506  0.3215
  634MOL0     C85505   7.376   2.269   2.515  0.0890 -0.0760 -0.4535
  634MOL0     N85506   8.138   2.397   2.278  0.3257  0.0595 -0.6428
  634MOL0     N85507   8.230   2.413   2.184 -0.4175  0.7011 -0.1443
  634MOL0     C85508   9.326   2.533   2.040 -0.3784 -0.1634  0.5305
  634MOL0     C85509   9.447   2.590   2.058 -1.0002  0.4400 -0.4898
  634MOL0     C85510   9.874   2.721   1.995 -0.7584  0.7163 -0.3205
  634MOL0     C85511  10.002   2.658   2.041  0.1163 -0.0089  0.4770
  634MOL0     C85512  10.121   2.735   2.044 -1.1148 -1.0072 -0.2467
  634MOL0     C85513  10.121   2.874   2.020 -0.3046  0.5461 -0.4548
  634MOL0     O85514  10.242   2.934   2.036 -0.5035 -0.1750  0.0524
  634MOL0     C85515  10.244   3.078   2.012  0.8216 -0.3133  0.4864
  634MOL0     C85516  10.389   3.135   2.018  0.8134  0.0124  0.3296
  634MOL0     C85517  10.484   3.022   1.971 -0.1216  0.2337  1.2634
  634MOL0     C85518  10.446   2.953   1.833  0.6172 -0.4415  0.5173
  634MOL0     C85519  10.386   3.041   1.725  0.6102  0.0668  0.0330
  634MOL0     C85520  10.346   3.110   1.631  0.5023 -0.2251  0.6048
  634MOL0     C85521  10.000   2.933   1.990 -0.1753  0.1621  0.3947
  634MOL0     C85522   9.881   2.862   1.975 -0.6928  1.4411  0.7841
  634MOL0     H85523   9.487   2.765   1.769 -1.3917  0.9083  0.3098
  634MOL0     H85524   9.258   2.692   1.741  0.4220  2.8156  0.7834
  634MOL0     H85525   8.995   2.686   1.921  1.6044  2.6686 -1.3522
  634MOL0     H85526   9.069   2.653   1.764 -0.4062 -0.4698  1.3047
  634MOL0     H85527   8.861   2.550   1.714  0.9738  0.2421  0.1162
  634MOL0     H85528   8.955   2.417   1.776  0.3452 -0.0599  2.4706
  634MOL0     H85529   8.868   2.463   2.005 -0.3624  1.9225 -0.5148
  634MOL0     H85530   8.746   2.579   1.936 -0.3457  0.4416  0.6424
  634MOL0     H85531   8.650   2.420   1.793 -0.5518 -1.1318  0.1539
  634MOL0     H85532   8.776   2.301   1.826  0.1176  0.3696  0.4790
  634MOL0     H85533   8.654   2.311   2.072  1.6674 -0.8297 -0.3778
  634MOL0     H85534   8.545   2.428   2.005 -2.0482 -1.6148  1.6666
  634MOL0     H85535   8.503   2.221   1.819 -1.1461 -2.9071  0.4579
  634MOL0     H85536   8.566   2.126   1.955 -3.0533 -0.3300  3.0851
  634MOL0     H85537   8.335   2.103   1.969  1.4899 -0.4754  1.2957
  634MOL0     H85538   8.394   2.192   2.105  0.7818  1.5766  0.9990
  634MOL0     H85539   8.223   2.286   1.878  3.2944  1.8493 -1.9942
  634MOL0     H85540   8.333   2.404   1.946  1.8931 -0.4855  1.3826
  634MOL0     H85541   8.037   2.194   2.033  0.4681  1.3295 -1.0804
  634MOL0     H85542   7.957   2.124   2.296 -2.9926 -0.8470 -1.7711
  634MOL0     H85543   7.969   2.252   2.410  0.0288 -0.8931  0.7442
  634MOL0     H85544   7.715   2.211   2.299  1.5955 -0.2976  2.2315
  634MOL0     H85545   7.792   2.311   2.173  0.6150  0.7513 -0.7008
  634MOL0     H85546   7.827   2.493   2.326 -1.0434 -0.4342 -3.1208
  634MOL0     H85547   7.793   2.383   2.466 -0.1752 -0.4805 -0.0870
  634MOL0     H85548   7.585   2.497   2.264  2.0192 -0.8768 -1.3528
  634MOL0     H85549   7.599   2.510   2.445 -0.1985 -1.6050  1.7678
  634MOL0     H85550   7.352   2.514   2.290 -1.3712 -0.4494 -0.3890
  634MOL0     H85551   7.151   2.659   2.335 -1.1117  1.1783  1.1249
  634MOL0     H85552   7.022   2.541   2.323  0.9790 -1.2502 -0.0892
  634MOL0     H85553   7.063   2.622   2.480  1.1262 -0.0791  0.3667
  634MOL0     H85554   6.912   2.256   2.930 -0.0142 -0.4044 -1.2261
  634MOL0     H85555   6.680   2.280   3.028  1.3302  0.6509  0.2699
  634MOL0     H85556   6.335   2.251   2.729  2.1047  1.8938  0.6462
  634MOL0     H85557   6.355   2.127   2.860 -1.2338  0.7003  4.4123
  634MOL0     H85558   6.210   2.227   2.999 -0.0889 -0.8297 -1.1396
  634MOL0     H85559   6.187   2.371   2.897 -3.3921 -0.0958  3.9745
  634MOL0     H85560   6.009   2.197   2.894 -1.9848 -0.4642 -3.1945
  634MOL0     H85561   6.122   2.071   2.844  1.3782  0.4159  0.6781
  634MOL0     H85562   6.042   2.324   2.686 -0.6728  0.0682  0.0336
  634MOL0     H85563   6.159   2.218   2.625  0.7999  1.2831  1.2921
  634MOL0     H85564   5.889   2.105   2.705  0.3727 -0.2994 -0.0131
  634MOL0     H85565   6.000   2.041   2.593 -0.1470 -0.4022 -1.2200
  634MOL0     H85566   5.872   2.322   2.547  1.8013  1.4412 -1.6873
  634MOL0     H85567   5.955   2.216   2.436  2.3614 -1.2435  1.3444
  634MOL0     H85568   5.696   2.170   2.600 -1.7360 -0.5435 -0.8797
  634MOL0     H85569   5.740   2.051   2.479 -3.3556 -0.2748 -2.8670
  634MOL0     H85570   5.587   2.176   2.368 -2.1087  2.5354  3.4105
  634MOL0     H85571   5.746   2.237   2.311 -1.5596 -1.8725 -2.0458
  634MOL0     H85572   6.526   2.233   2.633 -0.6224  1.6227  0.8466
  634MOL0     H85573   6.749   2.199   2.551  0.1591 -1.6248  1.8667
  634MOL0     H85574   7.220   2.189   2.634  0.4549  0.0144  0.2413
  634MOL0     H85575   7.436   2.188   2.555 -1.1500 -0.9507 -0.3359
  634MOL0     H85576   9.285   2.462   2.112  0.2860 -1.3449 -0.2181
  634MOL0     H85577   9.494   2.568   2.153 -0.5423  2.2328 -0.2629
  634MOL0     H85578  10.004   2.554   2.069  0.7328 -0.0967  0.1063
  634MOL0     H85579  10.220   2.698   2.070  0.5019  1.9921 -1.5923
  634MOL0     H85580  10.199   3.103   1.915  0.1806  0.3709  0.9537
  634MOL0     H85581  10.183   3.117   2.094 -1.4609 -3.4770  0.5087
  634MOL0     H85582  10.414   3.160   2.121 -1.0080 -0.2119  0.8663
  634MOL0     H85583  10.390   3.227   1.958 -1.8452 -0.2447 -0.2684
  634MOL0     H85584  10.508   2.959   2.057 -2.3184  1.7304  3.1064
  634MOL0     H85585  10.576   3.079   1.951 -0.3226  1.1005  2.6696
  634MOL0     H85586  10.385   2.863   1.845 -1.8328  0.8821 -1.1670
  634MOL0     H85587  10.543   2.911   1.802  2.3164  1.4948  2.8120
  634MOL0     H85588  10.332   3.182   1.553  3.1172 -3.7048 -3.5597
  634MOL0     H85589  10.002   3.041   1.981  0.5261  0.3096  1.8866
  634MOL0     H85590   9.787   2.914   1.960 -0.4664  1.4238 -0.8053
  635MOL0     O85591  11.149   6.827   6.930 -0.8153  0.2043  0.0800
  635MOL0     C85592  11.202   6.930   6.902 -0.5493  0.0727  0.4157
  635MOL0     O85593  11.140   7.039   6.849  0.4672 -0.3714  1.1244
  635MOL0     C85594  11.007   7.026   6.821  0.5122  0.3507  0.2302
  635MOL0     C85595  10.962   6.972   6.700 -0.2108  0.5511  0.1240
  635MOL0     C85596  10.830   6.935   6.683 -0.7936  0.3987  0.0799
  635MOL0     C85597  10.732   6.954   6.783  0.4937 -0.5664 -0.3272
  635MOL0     O85598  10.605   6.923   6.782  0.3918  0.4833  0.3295
  635MOL0     C85599  10.557   6.812   6.698 -0.2900  0.0470  1.3713
  635MOL0     C85600  10.401   6.793   6.710 -0.3866  0.1387 -0.0866
  635MOL0     C85601  10.320   6.929   6.716 -0.6101  0.4542 -0.0822
  635MOL0     C85602  10.285   6.983   6.578  0.7008 -0.3650 -0.5505
  635MOL0     C85603  10.206   7.122   6.584 -0.0320 -0.1347  0.5597
  635MOL0     C85604  10.179   7.167   6.443 -0.6124  0.2945  0.1281
  635MOL0     C85605  10.100   7.293   6.447  0.1191  0.8738 -1.0392
  635MOL0     C85606  10.064   7.334   6.299  0.3297 -0.7759  0.6050
  635MOL0     N85607   9.990   7.228   6.233 -0.3485  0.1369  0.3745
  635MOL0     C85608   9.865   7.185   6.264  0.0559 -0.5907 -1.1693
  635MOL0     C85609   9.842   7.082   6.178  0.3044  0.5428  1.1213
  635MOL0     C85610   9.714   6.999   6.180  0.3391 -0.3469 -0.5152
  635MOL0     C85611   9.624   7.019   6.297  0.2961  0.2058 -1.0871
  635MOL0     C85612   9.541   6.884   6.307  0.7899 -0.6561 -0.1333
  635MOL0     C85613   9.444   6.881   6.424  0.6480 -0.0206  0.1222
  635MOL0     O85614   9.374   6.755   6.438  0.4224  0.8272 -0.0975
  635MOL0     C85615   9.248   6.748   6.385 -0.0201  0.9544 -0.7399
  635MOL0     C85616   9.217   6.723   6.257 -0.3411  0.1928 -0.3114
  635MOL0     C85617   9.086   6.725   6.204  0.9004  0.0057 -0.5182
  635MOL0     C85618   9.079   6.688   6.054  0.4222 -0.3761  0.6551
  635MOL0     C85619   8.974   6.756   6.290 -0.5160  0.9686  0.5152
  635MOL0     C85620   8.838   6.771   6.253 -0.0324  0.3183 -1.0068
  635MOL0     O85621   8.758   6.731   6.361 -0.2195 -0.3477  0.4815
  635MOL0     C85622   8.622   6.737   6.352  0.3640  0.1045 -0.4190
  635MOL0     C85623   8.548   6.833   6.280  0.6094  0.7167  0.1353
  635MOL0     C85624   8.408   6.819   6.273 -0.6542  0.4870  0.3233
  635MOL0     C85625   8.343   6.733   6.351 -0.2305 -0.2052 -0.2883
  635MOL0     O85626   8.212   6.736   6.321 -0.8547 -0.5842  0.8402
  635MOL0     C85627   8.113   6.674   6.411  0.1993  0.5634 -0.3743
  635MOL0     C85628   7.972   6.731   6.382 -0.5115  0.4959 -0.7670
  635MOL0     C85629   7.979   6.883   6.363  0.1464 -0.3907 -0.1383
  635MOL0     C85630   8.031   6.960   6.495 -1.0629 -0.5441 -0.2850
  635MOL0     C85631   7.934   6.955   6.611 -0.2357 -0.0659 -0.8313
  635MOL0     C85632   7.981   7.058   6.721  0.5539 -0.2364  0.3492
  635MOL0     C85633   8.128   7.050   6.763  0.3975 -0.0496 -0.6745
  635MOL0     C85634   8.148   7.057   6.917  0.3043  0.8452 -0.4017
  635MOL0    Cl85635   8.312   7.018   6.962  0.1903 -0.2429 -0.3506
  635MOL0     C85636   8.415   6.634   6.430 -1.6411  0.8380  0.6512
  635MOL0     C85637   8.558   6.636   6.425  0.9878  0.2835 -0.9845
  635MOL0     O85638   8.801   6.796   6.138  0.7279  0.2046  0.5361
  635MOL0     C85639   9.015   6.774   6.430  0.5627  0.0256  0.0356
  635MOL0     C85640   9.145   6.777   6.478  1.0584  0.5211  0.3491
  635MOL0     N85641   9.949   7.064   6.089 -0.3514 -0.7888 -0.5500
  635MOL0     N85642  10.029   7.163   6.114  0.2173  0.3995  0.2619
  635MOL0     C85643  10.774   7.021   6.895  0.0854 -0.2803 -0.3371
  635MOL0     C85644  10.910   7.051   6.919  0.7107 -0.2397 -1.2156
  635MOL0     C85645  11.349   6.945   6.925 -0.8185 -0.5370 -0.5170
  635MOL0     C85646  11.433   6.854   6.990 -0.0677 -0.2980 -0.3740
  635MOL0     C85647  11.575   6.882   6.997 -0.5339 -0.1965 -0.2265
  635MOL0     C85648  11.635   6.988   6.926 -0.6726  0.5633  0.8472
  635MOL0     O85649  11.768   7.008   6.902 -0.1591 -0.6991  0.3156
  635MOL0     C85650  11.876   6.917   6.950 -0.0768 -0.8485 -0.5792
  635MOL0     C85651  11.896   6.927   7.095 -0.8154 -0.2134 -0.0516
  635MOL0     C85652  11.854   7.061   7.163  0.2399 -0.4620  0.7477
  635MOL0     C85653  11.888   7.078   7.319  0.5320  1.3819  0.2107
  635MOL0     C85654  11.811   6.981   7.400 -0.3451  0.0820  0.2516
  635MOL0     C85655  11.731   6.923   7.472 -0.4799 -0.2174  0.5255
  635MOL0     C85656  11.542   7.078   6.867 -0.5316 -0.5946 -0.1013
  635MOL0     C85657  11.403   7.064   6.874 -0.6621 -0.2094 -0.0693
  635MOL0     H85658  11.051   6.955   6.641  1.7275  3.0694  2.0855
  635MOL0     H85659  10.805   6.868   6.602  1.4839 -0.0878 -0.3060
  635MOL0     H85660  10.574   6.826   6.591  0.6544 -1.4647  1.3021
  635MOL0     H85661  10.613   6.722   6.722 -0.7261 -0.2351  1.3561
  635MOL0     H85662  10.375   6.732   6.622  2.0965 -0.4428 -0.4867
  635MOL0     H85663  10.389   6.730   6.798  1.3575  3.0551  2.4222
  635MOL0     H85664  10.222   6.906   6.759 -0.0578 -2.7831 -0.3134
  635MOL0     H85665  10.375   7.007   6.769  1.3294  0.5052 -2.0417
  635MOL0     H85666  10.382   6.994   6.529  1.7400 -1.6200  1.0909
  635MOL0     H85667  10.227   6.910   6.520  3.4646 -3.3077  0.0904
  635MOL0     H85668  10.114   7.093   6.635 -1.2828 -2.2760 -2.6224
  635MOL0     H85669  10.263   7.202   6.634  0.0587  1.0818 -1.4049
  635MOL0     H85670  10.273   7.182   6.389 -1.0169 -1.8590 -1.3051
  635MOL0     H85671  10.121   7.094   6.386 -1.1742  2.4209 -2.1964
  635MOL0     H85672  10.011   7.283   6.509 -0.6407  2.0421 -1.9189
  635MOL0     H85673  10.162   7.371   6.492 -2.1930  2.0888  0.1757
  635MOL0     H85674  10.158   7.352   6.246 -0.8738  5.5745 -0.2197
  635MOL0     H85675  10.011   7.430   6.289  1.0871 -0.4796 -0.9905
  635MOL0     H85676   9.803   7.217   6.347 -0.7452 -1.5522 -1.3752
  635MOL0     H85677   9.667   7.025   6.084 -2.3479  1.2516  1.0960
  635MOL0     H85678   9.742   6.894   6.181 -0.1915 -0.4916 -0.0434
  635MOL0     H85679   9.545   7.093   6.284  1.0805  1.7362  1.9636
  635MOL0     H85680   9.677   7.040   6.391 -0.4666  1.1577 -0.8622
  635MOL0     H85681   9.594   6.790   6.327  0.3149 -0.4494  2.5414
  635MOL0     H85682   9.490   6.869   6.212 -1.7766 -0.9062  1.1906
  635MOL0     H85683   9.370   6.960   6.412 -0.5910 -1.0536  0.7483
  635MOL0     H85684   9.494   6.897   6.521 -0.9702  0.5459  0.8994
  635MOL0     H85685   9.296   6.688   6.191 -0.3242  2.5036 -1.6036
  635MOL0     H85686   9.121   6.776   6.005  2.3034 -1.1506  0.8082
  635MOL0     H85687   9.145   6.606   6.027 -1.0815 -0.4181 -3.5103
  635MOL0     H85688   8.975   6.671   6.025  0.1029 -0.6040  1.8690
  635MOL0     H85689   8.601   6.913   6.228  2.6711 -0.4539  0.3630
  635MOL0     H85690   8.343   6.878   6.209 -2.5098 -1.3926  0.3633
  635MOL0     H85691   8.096   6.567   6.397 -2.3604  0.7223  0.9407
  635MOL0     H85692   8.140   6.693   6.515  0.2116  0.1583 -0.3012
  635MOL0     H85693   7.936   6.681   6.292 -2.5535  1.6440 -0.6308
  635MOL0     H85694   7.902   6.720   6.466  0.9422  0.5468  0.5090
  635MOL0     H85695   7.879   6.922   6.345  0.3371  0.6632  0.9303
  635MOL0     H85696   8.047   6.907   6.281  0.4005 -3.4076 -0.9220
  635MOL0     H85697   8.127   6.914   6.523 -0.3531  0.3585 -1.1574
  635MOL0     H85698   8.056   7.060   6.460  0.4244 -1.4002 -1.8365
  635MOL0     H85699   7.944   6.860   6.665  0.5086  1.2422  1.4461
  635MOL0     H85700   7.833   6.970   6.571 -1.4377 -0.2070  1.9652
  635MOL0     H85701   7.967   7.155   6.673  2.0124 -0.9127 -1.5471
  635MOL0     H85702   7.930   7.034   6.815 -1.5698 -1.2171 -0.9827
  635MOL0     H85703   8.190   7.124   6.711  0.5906 -0.6878 -1.3822
  635MOL0     H85704   8.163   6.947   6.746  3.9155  0.5565  1.7742
  635MOL0     H85705   8.106   6.975   6.976  2.4328 -0.8295 -1.0714
  635MOL0     H85706   8.127   7.159   6.950 -0.9397  0.4785 -0.0274
  635MOL0     H85707   8.354   6.566   6.488 -0.3160  0.8205  2.1058
  635MOL0     H85708   8.631   6.585   6.487 -1.7465 -0.8193  1.6092
  635MOL0     H85709   8.940   6.784   6.508  1.6374 -0.2336  1.1292
  635MOL0     H85710   9.172   6.788   6.582  2.6200 -1.4344  0.2254
  635MOL0     H85711  10.702   7.043   6.973  0.9241  2.5659 -0.2656
  635MOL0     H85712  10.941   7.090   7.016 -2.4115  1.1256 -0.6625
  635MOL0     H85713  11.407   6.758   7.034  2.3538 -0.0375  1.8906
  635MOL0     H85714  11.645   6.811   7.042  2.2357  0.3296 -3.3275
  635MOL0     H85715  11.854   6.812   6.927  0.1776 -1.3524  1.3561
  635MOL0     H85716  11.973   6.944   6.905  0.1779 -0.2417  0.3026
  635MOL0     H85717  12.005   6.935   7.108 -0.8739  0.6416  0.0063
  635MOL0     H85718  11.854   6.847   7.155 -0.3779 -1.1683 -0.9851
  635MOL0     H85719  11.746   7.067   7.147  0.3997 -0.0184 -0.2498
  635MOL0     H85720  11.898   7.143   7.105  1.9469 -2.8448 -1.5673
  635MOL0     H85721  11.878   7.183   7.346  2.6083  1.9566 -1.0387
  635MOL0     H85722  11.993   7.048   7.327  0.5603  1.3409 -0.3052
  635MOL0     H85723  11.664   6.870   7.537  0.4041 -1.7767  0.2092
  635MOL0     H85724  11.582   7.173   6.833 -2.3578  0.3152  0.1619
  635MOL0     H85725  11.358   7.147   6.820 -1.8696 -0.3334  0.7218
  636MOL0     O85726   5.218   5.243   5.143 -0.1978  0.6659 -0.1607
  636MOL0     C85727   5.133   5.298   5.068 -0.7024  0.3998  0.2127
  636MOL0     O85728   5.150   5.430   5.021  0.0794 -0.3278 -0.7040
  636MOL0     C85729   5.247   5.513   5.068  0.3729  0.8452  0.5526
  636MOL0     C85730   5.186   5.632   5.118 -0.1880 -0.2068 -0.2639
  636MOL0     C85731   5.275   5.725   5.186  0.3832  0.2934  0.5704
  636MOL0     C85732   5.410   5.706   5.185 -0.6826 -0.1104  0.3739
  636MOL0     O85733   5.500   5.794   5.233 -0.8333 -0.5421 -0.5865
  636MOL0     C85734   5.477   5.845   5.365  0.6920  0.1231 -1.1046
  636MOL0     C85735   5.612   5.871   5.437  0.4581 -0.9573 -0.0707
  636MOL0     C85736   5.584   5.874   5.583  0.5120 -0.7181 -0.2935
  636MOL0     C85737   5.688   5.954   5.669  1.2283  0.8417  0.4487
  636MOL0     C85738   5.813   5.867   5.693 -0.4341 -0.0457  0.0340
  636MOL0     C85739   5.901   5.907   5.819  0.0888  0.4504  0.6472
  636MOL0     C85740   6.027   5.823   5.857  0.1324  0.5647  0.2047
  636MOL0     C85741   6.115   5.894   5.961  0.4834 -0.3099 -0.3080
  636MOL0     N85742   6.044   5.918   6.094 -0.2210  0.3600  0.1013
  636MOL0     C85743   5.985   5.819   6.176 -0.7040  0.9062 -0.0843
  636MOL0     C85744   5.954   5.884   6.292  0.5079 -0.2049  0.2284
  636MOL0     C85745   5.901   5.822   6.419 -0.5243 -0.4222 -0.2721
  636MOL0     C85746   5.778   5.904   6.468 -0.6391 -0.0842  0.5358
  636MOL0     C85747   5.718   5.840   6.579 -1.1548 -0.8119  0.3876
  636MOL0     C85748   5.770   5.879   6.714 -0.0956 -0.3011  0.2145
  636MOL0     O85749   5.746   5.785   6.823 -0.5506 -0.0869  0.7169
  636MOL0     C85750   5.799   5.660   6.811 -0.2458  0.4011  0.2011
  636MOL0     C85751   5.729   5.546   6.856 -0.5588 -0.7871  0.6665
  636MOL0     C85752   5.775   5.419   6.832  0.6865 -0.9354 -0.3976
  636MOL0     C85753   5.689   5.318   6.901  0.2279  1.0192 -0.2722
  636MOL0     C85754   5.893   5.401   6.754 -0.3582 -0.5102  0.0288
  636MOL0     C85755   5.959   5.267   6.739  0.1826 -0.1662 -0.3439
  636MOL0     O85756   5.870   5.169   6.739  0.4058 -0.0641 -0.6642
  636MOL0     C85757   5.919   5.047   6.691  0.3070 -0.0256 -0.5945
  636MOL0     C85758   5.966   4.943   6.773 -0.6610 -0.4575  0.1477
  636MOL0     C85759   6.031   4.831   6.713  0.3174 -0.7743 -0.6815
  636MOL0     C85760   6.038   4.810   6.578  0.4254  0.8026 -0.0296
  636MOL0     O85761   6.072   4.686   6.535  0.2291 -0.1874 -0.4806
  636MOL0     C85762   6.116   4.662   6.404  0.4979 -0.3511 -0.3305
  636MOL0     C85763   6.183   4.527   6.394 -0.1059  0.7428 -0.0082
  636MOL0     C85764   6.331   4.526   6.421 -0.3693  0.1519  0.5517
  636MOL0     C85765   6.411   4.609   6.322 -0.4235  0.6426 -0.7691
  636MOL0     C85766   6.557   4.553   6.328 -0.3541 -0.8906  0.4707
  636MOL0     C85767   6.590   4.424   6.256 -0.2343 -0.1521  0.1168
  636MOL0     C85768   6.647   4.315   6.347 -0.5375 -0.3361 -1.0785
  636MOL0     C85769   6.772   4.358   6.409 -0.5219 -0.8981 -0.3417
  636MOL0    Cl85770   6.859   4.221   6.483  0.0263  0.4873 -0.1210
  636MOL0     C85771   5.982   4.914   6.498  0.1238 -0.4814  0.2359
  636MOL0     C85772   5.926   5.028   6.557 -0.7439 -0.1287 -0.8616
  636MOL0     O85773   6.082   5.249   6.723 -0.1260 -0.2141 -0.5815
  636MOL0     C85774   5.966   5.514   6.713  0.1365 -0.1649  0.1054
  636MOL0     C85775   5.924   5.637   6.741 -0.1845 -0.2224  0.1381
  636MOL0     N85776   5.999   6.014   6.279  0.5410  0.1864  0.1576
  636MOL0     N85777   6.057   6.032   6.166  0.1064 -0.6147  1.0551
  636MOL0     C85778   5.459   5.591   5.120 -0.5365  0.0552 -0.1163
  636MOL0     C85779   5.375   5.490   5.069 -0.5314  0.6048  0.6169
  636MOL0     C85780   5.039   5.209   4.996  0.2240 -0.0612  0.0778
  636MOL0     C85781   5.036   5.071   5.016 -0.5978 -1.1511 -0.2562
  636MOL0     C85782   4.941   4.990   4.954 -0.3654 -0.2095 -0.0789
  636MOL0     C85783   4.847   5.043   4.865 -0.0036 -0.0162 -0.4897
  636MOL0     O85784   4.764   4.952   4.801 -0.1049 -0.9913 -0.1480
  636MOL0     C85785   4.669   5.005   4.707  0.2232  0.2905  0.3568
  636MOL0     C85786   4.572   4.894   4.661 -0.2088 -0.8114  0.5913
  636MOL0     C85787   4.479   4.862   4.780 -0.5592 -0.1161 -0.0669
  636MOL0     C85788   4.408   4.726   4.752  1.0840 -0.4407  0.1815
  636MOL0     C85789   4.283   4.747   4.689  0.5888  0.0414 -0.0664
  636MOL0     C85790   4.170   4.749   4.643  0.0314  0.0876  0.0935
  636MOL0     C85791   4.848   5.191   4.852  0.0623 -0.1103  0.7346
  636MOL0     C85792   4.943   5.270   4.916  0.2998  0.4852  1.8023
  636MOL0     H85793   5.079   5.649   5.117 -0.0891  0.5469  0.5370
  636MOL0     H85794   5.234   5.816   5.229  0.4439  0.1567  0.9208
  636MOL0     H85795   5.435   5.945   5.376  0.5470 -0.1864  2.8382
  636MOL0     H85796   5.410   5.781   5.423 -1.4559  1.9926 -1.3994
  636MOL0     H85797   5.680   5.790   5.411  0.9240 -1.6847  3.0478
  636MOL0     H85798   5.653   5.968   5.408 -2.8014  0.8940  0.9611
  636MOL0     H85799   5.495   5.937   5.598  0.2689 -0.8402 -1.1545
  636MOL0     H85800   5.566   5.773   5.620  0.6787 -0.6498 -0.0262
  636MOL0     H85801   5.712   6.043   5.611 -2.4391  2.7427  1.5363
  636MOL0     H85802   5.628   5.978   5.758 -2.0489  1.7205 -1.8284
  636MOL0     H85803   5.779   5.765   5.713  1.0420 -0.2505  1.7327
  636MOL0     H85804   5.884   5.850   5.612 -0.1867  0.4500  0.1391
  636MOL0     H85805   5.944   6.004   5.793  1.3071  0.0944  1.2478
  636MOL0     H85806   5.832   5.919   5.903 -2.1851  3.5090 -1.4585
  636MOL0     H85807   5.997   5.726   5.899 -1.1315  1.4902  1.5450
  636MOL0     H85808   6.090   5.810   5.769 -2.3951 -0.2323 -1.5914
  636MOL0     H85809   6.159   5.990   5.933  2.4748 -0.6497  1.3997
  636MOL0     H85810   6.199   5.827   5.976 -1.6167 -2.4374  3.6051
  636MOL0     H85811   5.968   5.716   6.147  1.9470 -0.0448  1.4725
  636MOL0     H85812   5.900   5.713   6.415  0.9404 -0.4120 -2.2495
  636MOL0     H85813   5.974   5.834   6.500 -3.9072  1.8926  2.7517
  636MOL0     H85814   5.702   5.897   6.390  0.2358  2.2847 -0.6381
  636MOL0     H85815   5.811   6.007   6.482 -0.5425 -0.1148  0.5352
  636MOL0     H85816   5.724   5.731   6.568 -1.3766 -0.9280  1.3597
  636MOL0     H85817   5.610   5.856   6.577 -1.3195 -1.1039  3.1269
  636MOL0     H85818   5.725   5.976   6.736  0.9453  0.4857 -1.0018
  636MOL0     H85819   5.878   5.896   6.705 -0.1540 -0.2388 -0.3974
  636MOL0     H85820   5.634   5.561   6.905  0.6063 -1.1141  3.1608
  636MOL0     H85821   5.602   5.351   6.959  1.7450  0.9975  2.1755
  636MOL0     H85822   5.658   5.248   6.824 -0.8243  0.7822  0.3495
  636MOL0     H85823   5.747   5.257   6.971 -0.8300  1.4683  1.0430
  636MOL0     H85824   5.951   4.945   6.881 -2.6065  0.9880 -0.0972
  636MOL0     H85825   6.065   4.754   6.782  1.3158 -0.7002 -1.0846
  636MOL0     H85826   6.033   4.663   6.332  1.0598  0.5855 -1.0041
  636MOL0     H85827   6.180   4.744   6.371  0.6866  0.4010  1.7421
  636MOL0     H85828   6.130   4.455   6.457  2.1281 -1.5660 -0.5867
  636MOL0     H85829   6.181   4.496   6.289  2.0038  4.6704 -1.4072
  636MOL0     H85830   6.369   4.425   6.403  0.3310  0.2954  1.1792
  636MOL0     H85831   6.355   4.556   6.523 -1.7819  8.6610 -0.8714
  636MOL0     H85832   6.371   4.598   6.221 -2.8084 -3.3299  0.3648
  636MOL0     H85833   6.412   4.717   6.340 -0.3363  0.6231 -0.6509
  636MOL0     H85834   6.595   4.547   6.431 -0.4190 -0.6033  0.5125
  636MOL0     H85835   6.614   4.628   6.273 -0.2653 -1.4380 -0.1879
  636MOL0     H85836   6.496   4.381   6.220 -1.0164  2.4202 -1.1504
  636MOL0     H85837   6.662   4.436   6.175 -0.7264 -2.9690 -0.8421
  636MOL0     H85838   6.667   4.220   6.296 -1.3822 -0.5013 -1.1101
  636MOL0     H85839   6.572   4.300   6.425 -0.4059  2.0334 -0.4155
  636MOL0     H85840   6.774   4.433   6.489  1.9213  0.2083 -1.3333
  636MOL0     H85841   6.835   4.395   6.327  0.8990 -1.3072  0.5274
  636MOL0     H85842   5.985   4.914   6.389 -3.6728  0.6046 -0.0423
  636MOL0     H85843   5.915   5.116   6.494  1.7378  1.0263  0.1624
  636MOL0     H85844   6.050   5.492   6.648  0.6023 -0.8869  0.9211
  636MOL0     H85845   5.979   5.722   6.701 -0.3349 -0.8206 -1.4416
  636MOL0     H85846   5.568   5.591   5.118 -0.5391  0.7359 -1.6871
  636MOL0     H85847   5.419   5.408   5.013 -1.1349  0.2354  0.6767
  636MOL0     H85848   5.110   5.028   5.083 -0.4335  0.6420  0.7858
  636MOL0     H85849   4.936   4.884   4.978  1.7704 -1.1409 -3.1405
  636MOL0     H85850   4.614   5.094   4.738 -2.0542 -0.6629 -0.7691
  636MOL0     H85851   4.724   5.045   4.621 -0.8206 -2.1972 -1.5953
  636MOL0     H85852   4.636   4.811   4.632  1.3569  0.2605  0.8244
  636MOL0     H85853   4.500   4.925   4.585  0.0025 -2.4522 -0.3133
  636MOL0     H85854   4.407   4.937   4.812 -0.5107  0.4135 -1.1495
  636MOL0     H85855   4.546   4.837   4.862  1.2164 -0.7228 -1.6223
  636MOL0     H85856   4.376   4.676   4.843 -0.1182  1.0262  0.5997
  636MOL0     H85857   4.465   4.653   4.693  0.5975 -0.6438 -0.0394
  636MOL0     H85858   4.076   4.748   4.591 -1.3970 -0.5258  2.5496
  636MOL0     H85859   4.778   5.241   4.787 -0.3254 -0.5343  0.8233
  636MOL0     H85860   4.933   5.377   4.897 -4.5200  0.0666  0.7222
  637MOL0     O85861   9.594   4.532  10.696  0.3022 -0.0675 -0.3244
  637MOL0     C85862   9.688   4.467  10.738 -0.1225  0.8426  0.1837
  637MOL0     O85863   9.702   4.428  10.872 -0.1043 -0.0897  1.0312
  637MOL0     C85864   9.586   4.451  10.949 -0.0080 -0.1397  1.0718
  637MOL0     C85865   9.505   4.343  10.986 -0.9340 -0.0819 -0.3966
  637MOL0     C85866   9.396   4.356  11.073 -0.5226  0.6363  0.0209
  637MOL0     C85867   9.374   4.495  11.122  0.2180 -0.2558 -1.0792
  637MOL0     O85868   9.277   4.526  11.213  0.3354  0.0170 -0.5227
  637MOL0     C85869   9.142   4.488  11.197  0.0231 -0.1992 -0.1213
  637MOL0     C85870   9.087   4.525  11.056 -1.4811  0.1008 -1.2435
  637MOL0     C85871   8.944   4.496  11.032  1.1535  0.0367 -0.6748
  637MOL0     C85872   8.880   4.381  11.117  0.0593 -0.4786  0.7074
  637MOL0     C85873   8.732   4.373  11.077  0.2258  0.2242  0.1920
  637MOL0     C85874   8.654   4.493  11.124 -0.6022 -0.1681  0.0018
  637MOL0     C85875   8.512   4.456  11.128  0.0841  0.0393 -0.0311
  637MOL0     C85876   8.433   4.588  11.133 -0.9608 -0.0122 -0.8331
  637MOL0     N85877   8.448   4.640  11.270  0.2705 -0.4182 -0.5030
  637MOL0     C85878   8.529   4.753  11.288 -0.5803  0.0690  0.2531
  637MOL0     C85879   8.504   4.793  11.412  0.4449  0.2244  0.3065
  637MOL0     C85880   8.553   4.924  11.471 -0.6392 -0.6522 -0.6332
  637MOL0     C85881   8.710   4.932  11.464  0.1008  0.0956  0.1259
  637MOL0     C85882   8.793   4.828  11.547  0.3335 -0.8538 -0.0288
  637MOL0     C85883   8.943   4.827  11.497 -0.5808 -0.0014  0.1413
  637MOL0     O85884   8.995   4.958  11.488 -0.4363 -0.0966  0.4402
  637MOL0     C85885   9.127   4.976  11.476 -0.7864 -1.1744 -0.0388
  637MOL0     C85886   9.224   4.890  11.422 -0.5867 -0.9112 -0.0340
  637MOL0     C85887   9.365   4.929  11.418 -0.9634 -0.0189 -0.9705
  637MOL0     C85888   9.473   4.837  11.390 -0.8211 -0.2690  0.2565
  637MOL0     C85889   9.399   5.059  11.462  0.1609  0.2518 -0.0813
  637MOL0     C85890   9.533   5.129  11.441  0.8689  0.1094  0.2030
  637MOL0     O85891   9.543   5.268  11.450  0.1721  0.2162 -0.1798
  637MOL0     C85892   9.669   5.325  11.423  0.2173 -0.3833  0.7479
  637MOL0     C85893   9.782   5.280  11.482  0.2632  0.0720 -0.2020
  637MOL0     C85894   9.902   5.350  11.457 -0.3832  0.5580 -0.3148
  637MOL0     C85895   9.903   5.443  11.353 -0.1189  0.0085  0.7752
  637MOL0     O85896  10.023   5.511  11.328  0.2307 -0.3641 -0.4554
  637MOL0     C85897  10.071   5.506  11.199  0.2764  0.1439  0.2983
  637MOL0     C85898  10.116   5.363  11.167 -0.6965 -0.0613  1.1710
  637MOL0     C85899  10.209   5.355  11.037  0.2442 -0.4042 -0.1398
  637MOL0     C85900  10.261   5.219  11.009 -0.1882 -0.6672 -0.1438
  637MOL0     C85901  10.358   5.230  10.884 -0.0378  0.5018  0.0563
  637MOL0     C85902  10.418   5.099  10.829 -0.1367 -0.8285 -0.0821
  637MOL0     C85903  10.510   5.025  10.922  0.7106 -0.0084  0.5244
  637MOL0     C85904  10.533   4.882  10.873  0.1346  0.7420  0.6623
  637MOL0    Cl85905  10.659   4.804  10.975  0.7191  0.0342 -0.3426
  637MOL0     C85906   9.790   5.474  11.282 -0.1900 -0.6169  0.5705
  637MOL0     C85907   9.672   5.426  11.322  0.5263 -0.4646 -0.3746
  637MOL0     O85908   9.620   5.057  11.396 -0.2543  0.1792 -0.1872
  637MOL0     C85909   9.291   5.144  11.513 -0.2272  1.2120  0.0965
  637MOL0     C85910   9.157   5.110  11.515 -0.1677 -0.6081  0.4270
  637MOL0     N85911   8.427   4.697  11.469  0.5778  1.3303  0.4984
  637MOL0     N85912   8.398   4.599  11.390 -0.6147  0.3569  0.4195
  637MOL0     C85913   9.451   4.604  11.085 -0.3671  0.5472  0.1383
  637MOL0     C85914   9.550   4.583  10.986  0.3331 -0.0706 -0.3896
  637MOL0     C85915   9.788   4.434  10.633  0.1676  0.8819  0.3300
  637MOL0     C85916   9.892   4.340  10.661  1.3540 -0.7535 -0.2785
  637MOL0     C85917   9.990   4.312  10.568  0.6239 -0.2169  0.1789
  637MOL0     C85918   9.994   4.375  10.445  0.2986  0.4373 -0.2407
  637MOL0     O85919  10.105   4.340  10.368 -0.0976 -0.1073 -0.1292
  637MOL0     C85920  10.131   4.422  10.252 -0.3632 -0.4277 -0.6645
  637MOL0     C85921  10.251   4.386  10.180 -0.5278 -0.1078  0.6226
  637MOL0     C85922  10.375   4.365  10.262  0.5736 -0.5428 -0.0346
  637MOL0     C85923  10.491   4.345  10.169 -0.8071  0.1185  0.2185
  637MOL0     C85924  10.606   4.297  10.245  0.7048  0.7845  0.7588
  637MOL0     C85925  10.701   4.250  10.303  0.4729  0.2866  0.0962
  637MOL0     C85926   9.888   4.459  10.416  0.0290 -0.8628 -0.7980
  637MOL0     C85927   9.787   4.501  10.507  1.2753 -0.4474 -0.2726
  637MOL0     H85928   9.537   4.246  10.949  2.9636  0.9399 -0.0986
  637MOL0     H85929   9.337   4.272  11.107  2.3737 -3.2218 -3.4907
  637MOL0     H85930   9.134   4.384  11.227 -0.7725 -0.3638 -0.8743
  637MOL0     H85931   9.087   4.549  11.269  2.8117  1.2541  0.9173
  637MOL0     H85932   9.111   4.632  11.047 -0.0555  0.0261  0.7142
  637MOL0     H85933   9.136   4.461  10.982 -0.4175  0.9990 -1.3601
  637MOL0     H85934   8.899   4.595  11.040 -1.8666 -1.2381 -0.5669
  637MOL0     H85935   8.927   4.452  10.933 -0.6453 -0.4730 -0.1669
  637MOL0     H85936   8.931   4.286  11.095 -0.8727 -0.5257 -1.4285
  637MOL0     H85937   8.879   4.405  11.224  3.9363  1.6799  0.4367
  637MOL0     H85938   8.731   4.362  10.968  0.0805  1.8458 -0.0060
  637MOL0     H85939   8.688   4.284  11.123  2.1264 -0.4702  0.7630
  637MOL0     H85940   8.694   4.516  11.223 -0.1865  2.9523 -0.7831
  637MOL0     H85941   8.678   4.584  11.067 -1.4379  0.2344  0.2733
  637MOL0     H85942   8.474   4.400  11.042 -1.7564  0.8371  0.2194
  637MOL0     H85943   8.495   4.401  11.220 -0.0994  3.0862  1.8808
  637MOL0     H85944   8.328   4.574  11.107 -1.7064  0.3328  1.7394
  637MOL0     H85945   8.476   4.654  11.057 -0.5886  1.9266  0.9664
  637MOL0     H85946   8.597   4.803  11.220  0.6043  0.7100  1.8390
  637MOL0     H85947   8.508   5.004  11.412 -3.1542  0.1089  2.0482
  637MOL0     H85948   8.528   4.941  11.577  1.2314  0.6773 -0.3510
  637MOL0     H85949   8.736   5.031  11.502  3.2204  0.1252 -1.7019
  637MOL0     H85950   8.744   4.920  11.360  0.3387  0.9383  0.1047
  637MOL0     H85951   8.767   4.723  11.531  0.3235 -0.4901 -2.9613
  637MOL0     H85952   8.779   4.849  11.653  2.7329 -1.3428  0.4433
  637MOL0     H85953   8.934   4.790  11.395 -0.9123 -0.8366  0.4624
  637MOL0     H85954   9.002   4.765  11.565 -0.2329  1.7438  1.5111
  637MOL0     H85955   9.189   4.789  11.401 -0.2642 -0.6234 -2.1691
  637MOL0     H85956   9.521   4.863  11.295  1.7167 -2.6762  0.7235
  637MOL0     H85957   9.549   4.824  11.468 -0.0105 -1.4556 -0.6941
  637MOL0     H85958   9.440   4.736  11.365 -0.1173 -1.1940  2.7658
  637MOL0     H85959   9.786   5.191  11.545 -2.8119 -2.1437 -2.7733
  637MOL0     H85960   9.991   5.308  11.503  0.4363  1.4535 -1.0413
  637MOL0     H85961  10.001   5.540  11.122  2.5675 -1.1836 -2.5987
  637MOL0     H85962  10.156   5.575  11.188 -0.0711  0.6795  0.9158
  637MOL0     H85963  10.170   5.307  11.244  4.2578  1.1364 -1.0346
  637MOL0     H85964  10.026   5.305  11.144  0.2767 -0.7619 -1.2058
  637MOL0     H85965  10.294   5.424  11.038  0.1174 -0.2497 -0.0282
  637MOL0     H85966  10.143   5.382  10.953  1.2971  1.9854 -0.2806
  637MOL0     H85967  10.309   5.181  11.099  0.2852 -1.7145 -0.8097
  637MOL0     H85968  10.180   5.147  11.002 -1.8034  0.6800  2.9503
  637MOL0     H85969  10.443   5.298  10.883  0.4989 -0.1619 -1.0975
  637MOL0     H85970  10.289   5.273  10.811 -2.7260 -1.8336  0.9893
  637MOL0     H85971  10.331   5.039  10.801 -1.7539  1.5486 -0.4372
  637MOL0     H85972  10.472   5.142  10.743  3.9158 -1.1904  2.0147
  637MOL0     H85973  10.480   5.026  11.027  0.1587 -1.0831  0.3916
  637MOL0     H85974  10.606   5.074  10.908  0.6509  0.0232  0.2058
  637MOL0     H85975  10.560   4.887  10.767  1.4114  0.4408  0.9558
  637MOL0     H85976  10.442   4.824  10.891  1.1064 -1.4890 -1.0657
  637MOL0     H85977   9.792   5.538  11.195  2.5013 -1.3265  0.0074
  637MOL0     H85978   9.578   5.450  11.272  1.0831  0.7814 -0.8662
  637MOL0     H85979   9.312   5.247  11.539 -0.2792  1.4546 -0.7669
  637MOL0     H85980   9.076   5.173  11.549 -1.4445 -1.2145 -1.3440
  637MOL0     H85981   9.423   4.702  11.122 -2.6953 -0.1275  0.3554
  637MOL0     H85982   9.597   4.673  10.948 -0.9874  1.7446  1.9749
  637MOL0     H85983   9.889   4.289  10.757  1.6662  0.3628  0.3388
  637MOL0     H85984  10.066   4.234  10.573 -3.4645 -4.7735 -1.3600
  637MOL0     H85985  10.054   4.416  10.174  3.8254 -2.2203 -5.1345
  637MOL0     H85986  10.151   4.525  10.283  3.1738 -1.5201  1.2457
  637MOL0     H85987  10.278   4.469  10.113 -0.0377 -0.8477 -0.1182
  637MOL0     H85988  10.222   4.298  10.121  0.3978 -1.1735  1.7131
  637MOL0     H85989  10.373   4.268  10.313  1.4782  0.4444  1.9613
  637MOL0     H85990  10.400   4.441  10.336  2.5218 -0.1737 -1.0090
  637MOL0     H85991  10.517   4.440  10.121 -2.4329  1.7583  2.4144
  637MOL0     H85992  10.473   4.272  10.089  2.1280  0.4388 -0.8706
  637MOL0     H85993  10.780   4.203  10.359  1.0412  1.5508  0.4013
  637MOL0     H85994   9.878   4.512  10.322  0.8022  1.9399  0.5890
  637MOL0     H85995   9.712   4.577  10.491 -0.2233 -2.0624 -1.3063
  638MOL0     O85996   2.170   2.321   4.132 -0.3568 -0.1158  0.0081
  638MOL0     C85997   2.298   2.317   4.140  0.5518 -0.3882 -0.6264
  638MOL0     O85998   2.385   2.376   4.061 -0.0628 -0.4383  1.1822
  638MOL0     C85999   2.347   2.441   3.940  0.6649  0.0964 -0.1534
  638MOL0     C86000   2.222   2.492   3.911 -0.0944 -0.0289 -0.4751
  638MOL0     C86001   2.194   2.553   3.787  0.3343 -0.0007  0.1005
  638MOL0     C86002   2.288   2.556   3.689 -0.1287 -0.5256  0.5991
  638MOL0     O86003   2.250   2.617   3.577 -1.0407 -0.3826  0.0813
  638MOL0     C86004   2.312   2.572   3.453  0.0112  0.0556 -0.6235
  638MOL0     C86005   2.221   2.643   3.348 -0.9262 -0.3269  0.3994
  638MOL0     C86006   2.214   2.781   3.365 -1.1467  0.0094 -0.1758
  638MOL0     C86007   2.155   2.861   3.249  0.0125  0.8783 -0.1511
  638MOL0     C86008   2.122   3.007   3.280 -0.4348 -1.0445 -0.4798
  638MOL0     C86009   2.068   3.083   3.161  0.4636  0.3454  0.2026
  638MOL0     C86010   2.159   3.087   3.039  0.2578  0.1387 -0.2760
  638MOL0     C86011   2.119   3.208   2.952  0.0137 -0.1094  0.5590
  638MOL0     N86012   1.992   3.204   2.879 -0.2233  0.2999 -0.1967
  638MOL0     C86013   1.866   3.237   2.926 -0.4197 -0.3865 -0.0134
  638MOL0     C86014   1.803   3.270   2.811 -0.1033  0.6750 -0.0951
  638MOL0     C86015   1.680   3.353   2.826 -0.8579  0.2177 -0.3967
  638MOL0     C86016   1.566   3.286   2.898  0.3758 -0.4807 -0.9273
  638MOL0     C86017   1.466   3.393   2.951  0.8840  1.1433  0.1398
  638MOL0     C86018   1.324   3.331   2.959 -0.9686 -0.0277  0.0753
  638MOL0     O86019   1.226   3.433   2.974 -0.3800 -0.6000  0.0225
  638MOL0     C86020   1.107   3.385   3.022 -0.8412  0.1233 -0.5499
  638MOL0     C86021   1.083   3.341   3.148  0.2549  0.4536 -1.3762
  638MOL0     C86022   0.963   3.284   3.182 -0.0862 -0.2031  0.4444
  638MOL0     C86023   0.957   3.203   3.309  0.3045  0.2553  0.0849
  638MOL0     C86024   0.856   3.282   3.082  0.1050  0.5121 -0.0252
  638MOL0     C86025   0.729   3.210   3.104  1.0204  0.5828 -0.5583
  638MOL0     O86026   0.666   3.193   2.986  0.0935  0.5194  0.5482
  638MOL0     C86027   0.558   3.111   2.982  0.8112 -0.3249 -0.0228
  638MOL0     C86028   0.427   3.155   3.010 -0.4841 -0.5245 -0.6196
  638MOL0     C86029   0.313   3.066   3.008 -0.0668  0.1998  0.9031
  638MOL0     C86030   0.328   2.932   2.980 -0.2153  0.2845  0.5790
  638MOL0     O86031   0.209   2.854   2.990 -0.8515 -0.3369  0.2537
  638MOL0     C86032   0.216   2.717   3.007  0.0380  0.5871  0.1205
  638MOL0     C86033   0.094   2.670   3.090  0.3574  0.0137 -0.7398
  638MOL0     C86034   0.086   2.519   3.126  0.1333 -0.2451 -0.6668
  638MOL0     C86035  -0.027   2.471   3.221  0.8869 -0.2925 -0.6028
  638MOL0     C86036  -0.044   2.313   3.222 -0.1884 -0.2444 -0.1873
  638MOL0     C86037  -0.144   2.284   3.336 -1.1115 -0.3491 -0.3257
  638MOL0     C86038  -0.152   2.135   3.379 -0.1507  0.7695 -1.1287
  638MOL0     C86039  -0.204   2.042   3.270 -0.4157 -0.5373 -0.1176
  638MOL0    Cl86040  -0.366   2.091   3.226  0.4898  0.0168 -0.0990
  638MOL0     C86041   0.450   2.885   2.954  0.1507  0.1803  0.3214
  638MOL0     C86042   0.554   2.969   2.949  0.5593 -0.8923 -0.0740
  638MOL0     O86043   0.684   3.170   3.216  0.2310  1.1768  0.0006
  638MOL0     C86044   0.879   3.331   2.947  0.2935  0.4436 -0.2056
  638MOL0     C86045   1.008   3.381   2.922  0.5296  0.5747 -0.0418
  638MOL0     N86046   1.884   3.230   2.704  0.4099 -0.0310 -0.6122
  638MOL0     N86047   1.992   3.179   2.748 -0.5557 -0.0161 -0.1567
  638MOL0     C86048   2.422   2.513   3.717  0.6342  0.6398 -0.8342
  638MOL0     C86049   2.451   2.462   3.849  0.7931  0.1694  0.8026
  638MOL0     C86050   2.352   2.247   4.260 -0.2560  0.2806 -0.0477
  638MOL0     C86051   2.477   2.286   4.312  0.5035 -0.6659  0.4411
  638MOL0     C86052   2.530   2.222   4.418  0.3981 -0.4261 -0.3115
  638MOL0     C86053   2.465   2.126   4.490 -0.7352 -0.5982 -0.6741
  638MOL0     O86054   2.534   2.077   4.604 -0.9497  0.0531  0.7593
  638MOL0     C86055   2.532   1.942   4.638  0.0140  0.1510  0.7482
  638MOL0     C86056   2.504   1.950   4.784 -0.0223 -0.6796 -0.1752
  638MOL0     C86057   2.600   2.028   4.879 -0.2280 -0.1452  0.7700
  638MOL0     C86058   2.578   1.985   5.028  0.2340  0.1632 -0.2231
  638MOL0     C86059   2.653   1.868   5.067 -0.7894  0.5047 -0.2099
  638MOL0     C86060   2.723   1.776   5.113 -0.6120 -0.2187 -0.4367
  638MOL0     C86061   2.327   2.089   4.458  0.3012 -0.3635 -0.3443
  638MOL0     C86062   2.284   2.150   4.337 -0.4467 -0.1617  0.1569
  638MOL0     H86063   2.144   2.490   3.986 -1.5352  1.2876 -1.8634
  638MOL0     H86064   2.094   2.592   3.776  1.0461  3.5800  3.7775
  638MOL0     H86065   2.417   2.604   3.445  0.3700 -1.3982 -2.5068
  638MOL0     H86066   2.296   2.465   3.442 -2.9691  0.4647 -1.1262
  638MOL0     H86067   2.252   2.610   3.248 -0.2873 -2.4949  1.2566
  638MOL0     H86068   2.123   2.598   3.332 -1.2565  1.0132 -1.9025
  638MOL0     H86069   2.159   2.816   3.453  2.3655  2.2033  1.3513
  638MOL0     H86070   2.318   2.814   3.369  0.0588 -3.3453 -1.0598
  638MOL0     H86071   2.228   2.862   3.167  0.4876 -1.0571  0.2070
  638MOL0     H86072   2.074   2.794   3.219  1.2459 -1.3502  1.2320
  638MOL0     H86073   2.043   3.014   3.355 -0.2489 -0.7109 -0.3124
  638MOL0     H86074   2.215   3.056   3.312  0.3053 -1.8241 -1.3394
  638MOL0     H86075   1.973   3.042   3.126  1.6260 -0.1968 -2.5869
  638MOL0     H86076   2.042   3.181   3.201  1.6776 -0.3154  2.7930
  638MOL0     H86077   2.263   3.088   3.073  0.7749 -4.5552 -0.9885
  638MOL0     H86078   2.140   2.999   2.976 -2.2735  0.7531 -0.4802
  638MOL0     H86079   2.203   3.217   2.882 -0.5290 -3.5518 -0.7453
  638MOL0     H86080   2.126   3.294   3.019  4.3693  1.4721 -1.5270
  638MOL0     H86081   1.829   3.257   3.026 -1.2721  0.5882 -0.5014
  638MOL0     H86082   1.698   3.448   2.877 -4.3252  0.4003  0.7366
  638MOL0     H86083   1.632   3.373   2.730 -1.5438 -2.1602 -0.6047
  638MOL0     H86084   1.605   3.228   2.983  1.0919  0.7988 -0.3484
  638MOL0     H86085   1.525   3.220   2.822  1.2850 -1.6738 -0.3997
  638MOL0     H86086   1.467   3.474   2.877  1.6430  1.6298  0.6787
  638MOL0     H86087   1.494   3.430   3.049 -0.0513  0.8166  0.5422
  638MOL0     H86088   1.326   3.261   3.044  0.9533 -0.2751 -0.1379
  638MOL0     H86089   1.310   3.274   2.867 -1.1304 -1.8563  1.1636
  638MOL0     H86090   1.165   3.327   3.217 -0.2355  0.3479 -0.8115
  638MOL0     H86091   0.924   3.101   3.288  0.8125 -0.5551  2.8029
  638MOL0     H86092   1.060   3.186   3.341  0.3740  2.6189  1.3309
  638MOL0     H86093   0.894   3.252   3.384  1.9984  2.8149 -0.0453
  638MOL0     H86094   0.417   3.261   3.031  0.2550 -0.0853 -2.2947
  638MOL0     H86095   0.215   3.107   3.031 -0.9848 -0.9124 -0.7885
  638MOL0     H86096   0.214   2.662   2.913 -3.6909  2.6754 -1.2903
  638MOL0     H86097   0.302   2.690   3.068  0.5149  2.3781  0.3195
  638MOL0     H86098   0.097   2.716   3.190 -0.6002  1.1594 -1.2133
  638MOL0     H86099   0.000   2.689   3.037  1.7582 -0.5270 -3.5829
  638MOL0     H86100   0.182   2.485   3.165 -0.3215 -1.8701 -0.8974
  638MOL0     H86101   0.078   2.467   3.030  0.3632  0.3313 -1.0043
  638MOL0     H86102   0.001   2.499   3.323  5.1252 -0.1324 -1.6407
  638MOL0     H86103  -0.124   2.513   3.191  0.1503 -0.9807  0.7179
  638MOL0     H86104   0.050   2.263   3.245 -1.0960 -1.3470  1.3865
  638MOL0     H86105  -0.079   2.265   3.130  1.7540 -4.4255  1.0369
  638MOL0     H86106  -0.114   2.344   3.422  2.5111  2.5429 -3.2609
  638MOL0     H86107  -0.249   2.308   3.314 -1.6045 -0.9749  1.1755
  638MOL0     H86108  -0.219   2.131   3.465  2.2139 -0.0533  0.7923
  638MOL0     H86109  -0.052   2.095   3.399 -1.8699 -1.9205  3.6008
  638MOL0     H86110  -0.205   1.936   3.298  0.0678 -1.0515 -1.8949
  638MOL0     H86111  -0.143   2.039   3.179 -1.2959 -0.0959 -0.7311
  638MOL0     H86112   0.466   2.783   2.922 -1.2285  0.6917 -2.2668
  638MOL0     H86113   0.656   2.941   2.923  1.9431  3.7518 -0.5435
  638MOL0     H86114   0.812   3.304   2.866 -0.4067 -0.4026  0.6261
  638MOL0     H86115   1.049   3.404   2.824 -2.4188 -0.8735 -1.7456
  638MOL0     H86116   2.499   2.518   3.641 -0.3646 -0.7036 -2.0176
  638MOL0     H86117   2.553   2.439   3.878  0.6241 -0.4382  0.9319
  638MOL0     H86118   2.544   2.357   4.264 -0.5574 -0.1547 -0.3211
  638MOL0     H86119   2.622   2.248   4.469 -1.0972  0.1088  2.3302
  638MOL0     H86120   2.456   1.884   4.585 -0.1003 -1.1164  2.2298
  638MOL0     H86121   2.623   1.884   4.615  0.0491  0.9879 -1.4800
  638MOL0     H86122   2.491   1.849   4.825 -2.4426  0.3507  1.9162
  638MOL0     H86123   2.404   1.995   4.775  0.0320 -0.8349 -1.8927
  638MOL0     H86124   2.579   2.136   4.872  0.2282  0.0414  2.0422
  638MOL0     H86125   2.704   2.020   4.847 -0.5707 -1.1215 -0.1613
  638MOL0     H86126   2.473   1.961   5.047  0.1415  0.7969  0.0929
  638MOL0     H86127   2.599   2.071   5.093  0.3581 -1.2813  1.7192
  638MOL0     H86128   2.809   1.729   5.156  1.6632  3.9252  0.0977
  638MOL0     H86129   2.265   2.015   4.509 -1.2308 -0.0765 -1.6973
  638MOL0     H86130   2.189   2.126   4.290 -0.7672 -1.1987  1.3149
  639MOL0     O86131   5.636   0.086   1.319 -0.8435  0.8264  1.1248
  639MOL0     C86132   5.547   0.008   1.359 -0.5537 -0.2914 -0.6758
  639MOL0     O86133   5.426  -0.017   1.307  0.3893  0.3544 -0.4257
  639MOL0     C86134   5.389   0.036   1.186 -0.9690  0.1055  0.1008
  639MOL0     C86135   5.324   0.151   1.184  0.8009  0.4371 -0.1841
  639MOL0     C86136   5.292   0.208   1.057  0.2335 -1.7724  0.8131
  639MOL0     C86137   5.298   0.136   0.932  0.0068 -0.8047 -0.1169
  639MOL0     O86138   5.238   0.184   0.814 -0.2596  0.8504  0.0326
  639MOL0     C86139   5.186   0.075   0.733 -0.0128  0.3012 -0.4229
  639MOL0     C86140   5.118   0.118   0.609  0.0592  0.5386  0.7248
  639MOL0     C86141   4.969   0.079   0.589  0.2480 -0.0796 -1.2671
  639MOL0     C86142   4.932   0.074   0.442 -0.6809  0.2214  0.2064
  639MOL0     C86143   4.784   0.040   0.405 -0.1463  0.3284 -0.7685
  639MOL0     C86144   4.685   0.116   0.491 -0.1581  1.1311  0.0739
  639MOL0     C86145   4.547   0.115   0.423 -0.0127 -0.7718 -0.7542
  639MOL0     C86146   4.453   0.193   0.502  0.1533 -0.2443  0.1815
  639MOL0     N86147   4.317   0.141   0.467  0.2909  0.6699  0.2544
  639MOL0     C86148   4.255   0.171   0.347 -0.7409 -0.5896  0.5546
  639MOL0     C86149   4.165   0.066   0.333 -0.4678  0.0937  0.1336
  639MOL0     C86150   4.076   0.046   0.210 -0.8809  0.1486  0.3899
  639MOL0     C86151   3.942   0.114   0.244 -0.1219  0.1865  0.1637
  639MOL0     C86152   3.962   0.272   0.259  0.9623 -0.3898  0.5414
  639MOL0     C86153   3.821   0.330   0.290  0.2206 -0.6657  0.1384
  639MOL0     O86154   3.829   0.471   0.323  0.1722  0.2021  0.0179
  639MOL0     C86155   3.753   0.514   0.424  0.7871  0.2311  0.6969
  639MOL0     C86156   3.614   0.484   0.427 -0.0629 -0.4768 -0.4616
  639MOL0     C86157   3.529   0.508   0.538 -0.4665  0.1565  0.9172
  639MOL0     C86158   3.389   0.463   0.526  0.4310 -0.0966 -0.8265
  639MOL0     C86159   3.578   0.590   0.640 -0.7385  0.8329  0.2735
  639MOL0     C86160   3.487   0.628   0.750  0.8737 -0.1433 -0.5847
  639MOL0     O86161   3.460   0.757   0.757 -0.6571 -0.4694 -0.4548
  639MOL0     C86162   3.357   0.805   0.827 -0.0502  0.0775 -0.1999
  639MOL0     C86163   3.370   0.822   0.965 -0.6364 -0.2347  0.0697
  639MOL0     C86164   3.261   0.870   1.037 -0.4612 -0.1187  0.9083
  639MOL0     C86165   3.140   0.903   0.980  0.1416  0.1535  0.3338
  639MOL0     O86166   3.040   0.957   1.058  0.1602 -0.0849  0.3466
  639MOL0     C86167   3.046   1.101   1.047 -0.6753  0.1471  0.6513
  639MOL0     C86168   2.988   1.155   1.174  0.2219  0.0394  0.4573
  639MOL0     C86169   3.011   1.302   1.199 -0.2055  0.0637  0.8214
  639MOL0     C86170   2.958   1.332   1.337 -0.4913  0.5769  0.1278
  639MOL0     C86171   2.989   1.476   1.388  0.4755 -0.7980 -0.2573
  639MOL0     C86172   2.901   1.570   1.312  0.3472 -0.6263  0.3475
  639MOL0     C86173   2.885   1.707   1.376  1.5232  1.0493 -0.2221
  639MOL0     C86174   3.007   1.770   1.424  0.0507  0.0394 -0.4426
  639MOL0    Cl86175   3.120   1.812   1.280 -0.0322  0.2496  0.2965
  639MOL0     C86176   3.136   0.895   0.840  0.2210  0.2007 -0.7254
  639MOL0     C86177   3.240   0.848   0.760 -0.7961  0.5527 -1.1729
  639MOL0     O86178   3.439   0.537   0.826 -0.7026 -0.7547  0.4861
  639MOL0     C86179   3.714   0.632   0.638  0.6199 -0.6216  0.2146
  639MOL0     C86180   3.791   0.602   0.530 -1.0490  0.3851  0.8912
  639MOL0     N86181   4.177  -0.018   0.444 -0.3047 -0.7387  1.1785
  639MOL0     N86182   4.276   0.018   0.517  0.0364 -1.3252 -0.4568
  639MOL0     C86183   5.380   0.024   0.941  0.3948 -0.3115 -0.3202
  639MOL0     C86184   5.432  -0.020   1.062 -0.7333 -0.0586 -0.2171
  639MOL0     C86185   5.587  -0.066   1.482  0.4780  0.6108 -0.0440
  639MOL0     C86186   5.487  -0.145   1.545 -0.3398 -0.9698 -0.2785
  639MOL0     C86187   5.515  -0.215   1.667  0.1759 -0.3746  0.7322
  639MOL0     C86188   5.632  -0.187   1.734 -0.1579 -0.2999  0.0054
  639MOL0     O86189   5.640  -0.250   1.852  0.1891  0.6680 -0.1426
  639MOL0     C86190   5.762  -0.251   1.929 -0.5534  0.1977 -0.4228
  639MOL0     C86191   5.745  -0.334   2.052  0.0043 -0.2089 -0.5622
  639MOL0     C86192   5.707  -0.479   2.022 -0.0311  0.4573  0.8547
  639MOL0     C86193   5.717  -0.576   2.144 -0.4149 -0.6638  0.3095
  639MOL0     C86194   5.610  -0.557   2.237 -0.3067  0.1024 -0.3582
  639MOL0     C86195   5.509  -0.553   2.302  0.2742  0.0503 -0.1323
  639MOL0     C86196   5.737  -0.119   1.672  0.2926 -0.7964  1.1880
  639MOL0     C86197   5.718  -0.062   1.543  0.1831  1.5984  0.2220
  639MOL0     H86198   5.316   0.201   1.280  0.4796 -0.9758  0.5492
  639MOL0     H86199   5.239   0.303   1.052 -2.0763 -2.8635  2.5612
  639MOL0     H86200   5.273   0.019   0.699  0.6287  1.4323 -0.7040
  639MOL0     H86201   5.121   0.009   0.791 -2.6440  1.0063 -2.3709
  639MOL0     H86202   5.139   0.224   0.593 -1.4423  1.2023  2.6702
  639MOL0     H86203   5.172   0.067   0.529 -4.0935  1.5790 -3.1966
  639MOL0     H86204   4.958  -0.026   0.617  2.1296 -0.9098 -3.3530
  639MOL0     H86205   4.908   0.144   0.653  0.6775  1.5263 -2.4176
  639MOL0     H86206   4.965   0.169   0.399 -0.7412 -0.4871 -1.4553
  639MOL0     H86207   4.982  -0.006   0.387 -1.1222 -0.3994  0.6994
  639MOL0     H86208   4.782   0.078   0.302  1.3673  1.2283 -0.4973
  639MOL0     H86209   4.756  -0.065   0.401 -1.5424  0.5537  1.3349
  639MOL0     H86210   4.678   0.079   0.594 -0.3138  0.8607 -0.0303
  639MOL0     H86211   4.714   0.221   0.500  1.3185  0.7653 -0.0761
  639MOL0     H86212   4.553   0.156   0.322 -0.3335  2.2190  0.3382
  639MOL0     H86213   4.515   0.011   0.416  1.1177 -1.2142  0.4026
  639MOL0     H86214   4.455   0.299   0.472  0.2275  0.2283  1.7678
  639MOL0     H86215   4.479   0.189   0.608  1.8772 -1.9745 -0.2654
  639MOL0     H86216   4.289   0.249   0.280  0.3980  0.1529  1.9320
  639MOL0     H86217   4.118   0.079   0.115 -4.9205  2.8613 -0.7282
  639MOL0     H86218   4.064  -0.062   0.201  0.0404 -0.2782  3.3074
  639MOL0     H86219   3.899   0.075   0.337  1.6744  2.4031  2.0388
  639MOL0     H86220   3.870   0.096   0.163 -0.3678 -0.0978  0.4414
  639MOL0     H86221   3.991   0.320   0.165 -0.7848 -0.4509 -0.0627
  639MOL0     H86222   4.031   0.295   0.340  1.0258  2.2993 -0.1597
  639MOL0     H86223   3.773   0.281   0.375 -1.8185 -1.6416 -1.5036
  639MOL0     H86224   3.744   0.312   0.214 -0.7128 -2.9916  1.5086
  639MOL0     H86225   3.564   0.432   0.346  0.3040 -2.0761  0.2967
  639MOL0     H86226   3.320   0.546   0.540 -2.7463 -2.7537  0.4065
  639MOL0     H86227   3.374   0.404   0.435 -0.5031  0.1095 -0.8138
  639MOL0     H86228   3.359   0.401   0.610  2.6986  1.6949  1.4751
  639MOL0     H86229   3.462   0.806   1.020 -0.8748 -0.4514  0.4107
  639MOL0     H86230   3.264   0.874   1.145 -4.7791  1.1439  1.1718
  639MOL0     H86231   3.147   1.137   1.025 -0.1293 -0.3488  2.2410
  639MOL0     H86232   2.998   1.128   0.952  0.4550 -0.2053 -0.0419
  639MOL0     H86233   2.882   1.130   1.165  0.3476 -0.4113  0.1802
  639MOL0     H86234   3.041   1.096   1.248  1.0220 -0.3937 -0.4387
  639MOL0     H86235   2.957   1.367   1.130  0.7054  1.8019  1.6826
  639MOL0     H86236   3.112   1.338   1.179 -1.9556  6.6056  1.5397
  639MOL0     H86237   2.853   1.303   1.344 -0.2935 -0.7833 -1.6421
  639MOL0     H86238   3.012   1.265   1.404 -0.9995  0.8887  0.8627
  639MOL0     H86239   3.091   1.514   1.373 -0.3444  1.0658 -1.4646
  639MOL0     H86240   2.962   1.483   1.494 -1.5445 -0.0132 -0.7697
  639MOL0     H86241   2.942   1.575   1.210  0.6833 -3.5679  0.2650
  639MOL0     H86242   2.802   1.526   1.299 -0.6336  2.0888 -3.0221
  639MOL0     H86243   2.811   1.708   1.456  0.9056 -0.7941 -0.7153
  639MOL0     H86244   2.847   1.768   1.293  0.8524  0.7873 -0.1149
  639MOL0     H86245   3.071   1.713   1.491 -0.5168  0.7303  0.7074
  639MOL0     H86246   2.987   1.866   1.472 -1.5817 -0.5535  0.1158
  639MOL0     H86247   3.041   0.923   0.796  0.1131  0.4133 -0.3667
  639MOL0     H86248   3.233   0.846   0.652 -0.0105 -0.1249 -1.2273
  639MOL0     H86249   3.753   0.689   0.722 -1.7176  1.2719  0.1122
  639MOL0     H86250   3.892   0.640   0.524 -0.7313 -0.7447 -2.4085
  639MOL0     H86251   5.400  -0.031   0.850 -1.9136 -3.5790  0.9594
  639MOL0     H86252   5.479  -0.118   1.065 -2.0438 -0.6956  0.3050
  639MOL0     H86253   5.390  -0.166   1.501 -0.7101 -1.0670  0.5772
  639MOL0     H86254   5.440  -0.283   1.706 -1.8244  2.0309  1.3093
  639MOL0     H86255   5.840  -0.302   1.871  0.6067  1.6317 -0.1899
  639MOL0     H86256   5.797  -0.150   1.954  0.1041 -0.5660  1.9813
  639MOL0     H86257   5.674  -0.295   2.126 -1.0690  0.7019 -2.0164
  639MOL0     H86258   5.843  -0.332   2.100  0.1379  1.9995 -0.8291
  639MOL0     H86259   5.779  -0.521   1.951  3.3752  5.1232  1.0947
  639MOL0     H86260   5.619  -0.490   1.957  1.6337  0.3558 -1.5147
  639MOL0     H86261   5.813  -0.558   2.192 -0.4342  2.9202 -0.6531
  639MOL0     H86262   5.710  -0.673   2.094  3.4544 -0.1493 -1.5619
  639MOL0     H86263   5.416  -0.548   2.355 -0.5516  2.4948 -1.6218
  639MOL0     H86264   5.824  -0.107   1.736  1.9350 -3.2945 -0.3887
  639MOL0     H86265   5.807  -0.019   1.498  0.3269 -0.1200 -1.2182
  640MOL0     O86266  10.086   0.555   8.681  0.4778 -0.6488 -0.0519
  640MOL0     C86267  10.133   0.491   8.588 -0.4783 -0.3783  0.1924
  640MOL0     O86268  10.061   0.400   8.511  0.2468 -0.0481  0.6150
  640MOL0     C86269   9.941   0.351   8.561 -0.3053 -1.6158  0.4639
  640MOL0     C86270   9.847   0.315   8.467  0.1084  0.1530  0.4569
  640MOL0     C86271   9.719   0.288   8.510  0.2663 -0.3356  0.0530
  640MOL0     C86272   9.678   0.274   8.647  0.2559 -0.5023  0.1803
  640MOL0     O86273   9.555   0.241   8.695  0.0793 -0.0198  0.4765
  640MOL0     C86274   9.470   0.156   8.606  0.1726 -1.0084 -0.4077
  640MOL0     C86275   9.349   0.094   8.674 -0.7909  0.1447  0.4148
  640MOL0     C86276   9.251   0.193   8.731  0.6614  0.4943 -0.3273
  640MOL0     C86277   9.124   0.133   8.791 -0.1816  0.1866  0.5893
  640MOL0     C86278   9.147   0.057   8.919  0.2745  0.4994  0.0287
  640MOL0     C86279   9.026  -0.027   8.951 -0.3981  0.0345  0.6104
  640MOL0     C86280   9.006  -0.056   9.101 -0.1424 -0.4404 -0.4326
  640MOL0     C86281   8.948  -0.195   9.131 -0.0586 -0.1883 -0.4287
  640MOL0     N86282   8.809  -0.238   9.075 -1.3836  0.6623 -0.4509
  640MOL0     C86283   8.703  -0.161   9.100  1.1374 -0.2695 -0.0064
  640MOL0     C86284   8.613  -0.217   9.023  0.5622  0.0598 -0.4647
  640MOL0     C86285   8.471  -0.167   8.994 -0.4445  0.4233 -0.2961
  640MOL0     C86286   8.384  -0.216   9.110 -0.2160 -0.3080  0.4606
  640MOL0     C86287   8.246  -0.190   9.080  0.5375  0.2947 -0.1057
  640MOL0     C86288   8.160  -0.216   9.208  0.2415 -0.3927 -0.2796
  640MOL0     O86289   8.168  -0.346   9.274  0.5677 -0.6785 -0.2520
  640MOL0     C86290   8.084  -0.372   9.383  0.2782 -1.1701  0.6093
  640MOL0     C86291   8.114  -0.482   9.462  1.0240 -0.2090 -0.2920
  640MOL0     C86292   8.033  -0.509   9.576 -0.1902 -0.7971 -0.1159
  640MOL0     C86293   8.054  -0.642   9.641  0.0128 -0.7889  0.1094
  640MOL0     C86294   7.926  -0.421   9.619  0.0980  0.2859 -0.2110
  640MOL0     C86295   7.834  -0.433   9.745 -0.4294  0.4703 -0.3096
  640MOL0     O86296   7.733  -0.342   9.743  0.2599  1.1967 -0.3193
  640MOL0     C86297   7.620  -0.374   9.826  0.1302  0.5526 -1.1142
  640MOL0     C86298   7.607  -0.310   9.954  0.4596 -0.2319  0.3003
  640MOL0     C86299   7.497  -0.336  10.041  0.3356 -0.0134 -0.2623
  640MOL0     C86300   7.396  -0.419   9.990  0.3023  0.1281 -0.6813
  640MOL0     O86301   7.297  -0.453  10.073  0.2041 -0.2731 -0.4191
  640MOL0     C86302   7.269  -0.592  10.091  0.6167  0.0921  0.3154
  640MOL0     C86303   7.139  -0.603  10.170 -0.2295  0.2232 -0.1609
  640MOL0     C86304   7.005  -0.547  10.109 -0.9282  0.1327 -0.2678
  640MOL0     C86305   6.893  -0.566  10.205  0.7266  0.3993  0.1558
  640MOL0     C86306   6.748  -0.534  10.145 -0.4591 -0.6371 -0.5175
  640MOL0     C86307   6.646  -0.537  10.263 -0.3404 -0.0452  0.2892
  640MOL0     C86308   6.497  -0.496  10.221 -0.2008  0.9931 -0.3631
  640MOL0     C86309   6.403  -0.613  10.256  0.4777 -0.2275 -0.0578
  640MOL0    Cl86310   6.363  -0.614  10.438  0.4066 -0.1923  0.0105
  640MOL0     C86311   7.412  -0.481   9.872  0.2706 -0.7467 -0.2248
  640MOL0     C86312   7.520  -0.457   9.787  0.9594 -0.8685 -0.1668
  640MOL0     O86313   7.846  -0.522   9.828 -0.6420  0.1925  0.4439
  640MOL0     C86314   7.911  -0.311   9.544 -0.0001 -0.2201 -0.9068
  640MOL0     C86315   7.972  -0.294   9.421 -0.0659 -0.0493 -0.1923
  640MOL0     N86316   8.664  -0.329   8.956 -0.1655  0.2356 -0.5124
  640MOL0     N86317   8.790  -0.344   8.993  0.2901 -0.4224 -1.2107
  640MOL0     C86318   9.777   0.307   8.741  1.0885 -0.5090  0.4076
  640MOL0     C86319   9.904   0.345   8.697  0.1712  0.3873  0.1838
  640MOL0     C86320  10.274   0.519   8.535  0.6394 -0.0843 -1.0128
  640MOL0     C86321  10.350   0.622   8.596 -0.1122 -0.3790 -0.9745
  640MOL0     C86322  10.477   0.647   8.550  0.1710  0.3127  0.2516
  640MOL0     C86323  10.535   0.579   8.441 -0.5851  0.4443 -0.1819
  640MOL0     O86324  10.661   0.599   8.399  0.6991  0.2979  0.3694
  640MOL0     C86325  10.755   0.640   8.507  0.0074 -0.3540  0.4985
  640MOL0     C86326  10.875   0.535   8.507 -0.6653  0.2175  0.2314
  640MOL0     C86327  10.935   0.489   8.640  0.3730 -0.9376  0.0014
  640MOL0     C86328  11.073   0.536   8.644 -0.3126  0.6987 -0.0364
  640MOL0     C86329  11.143   0.529   8.778  1.5212  0.4974  0.8755
  640MOL0     C86330  11.209   0.518   8.874  0.1041 -0.8031 -0.3618
  640MOL0     C86331  10.448   0.488   8.380  0.0954 -0.0068 -0.1737
  640MOL0     C86332  10.324   0.463   8.421  0.1428 -0.2407 -0.1698
  640MOL0     H86333   9.876   0.324   8.363  0.8542 -1.8904  0.4327
  640MOL0     H86334   9.643   0.274   8.433  1.4795 -1.9961 -0.9001
  640MOL0     H86335   9.439   0.232   8.534 -1.4287  0.0354  1.2945
  640MOL0     H86336   9.522   0.074   8.556 -0.9965 -1.6428 -0.6196
  640MOL0     H86337   9.295   0.039   8.596  0.2863  0.8549 -0.8490
  640MOL0     H86338   9.394   0.021   8.743  2.9687  1.9488  0.0858
  640MOL0     H86339   9.297   0.269   8.794 -0.0528  1.2871 -0.7241
  640MOL0     H86340   9.226   0.247   8.639  0.0664 -0.2300 -0.6019
  640MOL0     H86341   9.054   0.215   8.809 -0.8879 -0.2640 -0.0681
  640MOL0     H86342   9.083   0.064   8.716  0.1472  1.2956 -0.6293
  640MOL0     H86343   9.241   0.001   8.918  1.7001  2.7353 -1.1334
  640MOL0     H86344   9.157   0.130   9.000 -1.3001 -1.0127  1.6985
  640MOL0     H86345   8.938   0.018   8.904  0.6502  0.3875 -1.1039
  640MOL0     H86346   9.035  -0.124   8.902 -3.1163 -1.2120  2.3219
  640MOL0     H86347   9.099  -0.035   9.154  1.5751  2.9987 -4.2294
  640MOL0     H86348   8.933   0.017   9.138  1.7756  2.4450 -1.9607
  640MOL0     H86349   8.947  -0.197   9.240 -0.9917 -2.2985 -0.4262
  640MOL0     H86350   9.029  -0.262   9.101 -0.1820  0.4616 -2.3322
  640MOL0     H86351   8.675  -0.062   9.134 -1.0193 -0.0591 -2.0929
  640MOL0     H86352   8.478  -0.058   8.987 -0.3931  0.4596  0.3007
  640MOL0     H86353   8.429  -0.210   8.902 -1.8175  2.0319 -0.4772
  640MOL0     H86354   8.411  -0.155   9.197 -0.9761  1.2817 -0.3618
  640MOL0     H86355   8.388  -0.323   9.132 -2.4423 -0.4967  0.1559
  640MOL0     H86356   8.219  -0.264   9.005 -0.1597 -2.1745  2.4491
  640MOL0     H86357   8.233  -0.094   9.028  1.3766 -0.5911 -2.0602
  640MOL0     H86358   8.056  -0.194   9.182 -0.6153  1.0450  3.6703
  640MOL0     H86359   8.183  -0.135   9.279 -2.0053  0.9150 -0.9269
  640MOL0     H86360   8.196  -0.532   9.412  0.1522  0.3071 -2.3418
  640MOL0     H86361   8.128  -0.703   9.589  1.2997  0.6137  0.2629
  640MOL0     H86362   8.093  -0.630   9.743  3.0128 -1.4784 -0.8606
  640MOL0     H86363   7.961  -0.700   9.644 -1.1897  1.0924  1.0218
  640MOL0     H86364   7.691  -0.252   9.990 -0.2512  0.8247  0.3202
  640MOL0     H86365   7.491  -0.279  10.133 -1.3221 -2.0376  0.9587
  640MOL0     H86366   7.258  -0.647   9.997  1.4773  0.7299 -0.1712
  640MOL0     H86367   7.347  -0.647  10.144 -1.4315 -0.9217  2.4303
  640MOL0     H86368   7.133  -0.710  10.193  1.0400 -0.0706 -1.0939
  640MOL0     H86369   7.152  -0.547  10.263  2.8046  2.8733 -1.9828
  640MOL0     H86370   6.979  -0.602  10.018 -3.4299 -1.9528  1.5720
  640MOL0     H86371   7.021  -0.442  10.080  1.0621 -0.1417 -0.2935
  640MOL0     H86372   6.908  -0.670  10.236  2.2679  0.4192 -0.4622
  640MOL0     H86373   6.912  -0.498  10.289 -1.5986  2.6396 -0.9950
  640MOL0     H86374   6.724  -0.611  10.071 -1.4452 -1.5599  0.7203
  640MOL0     H86375   6.758  -0.435  10.099  0.5221 -0.0226  0.9433
  640MOL0     H86376   6.635  -0.628  10.322 -0.4963  0.7872  1.5770
  640MOL0     H86377   6.693  -0.467  10.332  1.0089  2.2874 -2.7378
  640MOL0     H86378   6.497  -0.463  10.117 -3.5220  1.8238 -0.1919
  640MOL0     H86379   6.462  -0.404  10.270 -1.4582  0.8137 -0.8949
  640MOL0     H86380   6.457  -0.704  10.227  2.7205 -0.2910  3.6247
  640MOL0     H86381   6.307  -0.597  10.206  0.6739 -0.7406 -0.6089
  640MOL0     H86382   7.336  -0.551   9.838  0.8804 -2.2950  1.4618
  640MOL0     H86383   7.531  -0.518   9.697 -0.3790  1.2223 -1.8446
  640MOL0     H86384   7.850  -0.228   9.578  0.8427  0.3535 -0.7861
  640MOL0     H86385   7.940  -0.206   9.366 -0.7823 -0.9646 -1.2785
  640MOL0     H86386   9.754   0.305   8.847 -0.6142 -0.1561  0.0802
  640MOL0     H86387   9.983   0.362   8.770  0.1438 -0.4329  0.4110
  640MOL0     H86388  10.323   0.681   8.683 -0.5362  0.1683 -1.4738
  640MOL0     H86389  10.527   0.731   8.597  1.1878  1.6016 -2.8568
  640MOL0     H86390  10.784   0.745   8.495  1.0362 -0.7792 -0.9235
  640MOL0     H86391  10.718   0.632   8.610  1.0240  0.2169  0.9204
  640MOL0     H86392  10.948   0.580   8.438  0.4807 -1.4015  0.3198
  640MOL0     H86393  10.856   0.446   8.446  2.0497 -0.0709 -0.3059
  640MOL0     H86394  10.938   0.380   8.643  2.9402 -0.9220 -0.0658
  640MOL0     H86395  10.874   0.540   8.715  2.7274  0.8521  0.8251
  640MOL0     H86396  11.083   0.636   8.602  1.1272  0.2841 -0.7694
  640MOL0     H86397  11.134   0.471   8.579 -0.3368  2.9354 -2.4441
  640MOL0     H86398  11.286   0.511   8.949 -0.7557 -0.9525  0.5376
  640MOL0     H86399  10.476   0.440   8.287 -0.0945  1.7021 -1.1598
  640MOL0     H86400  10.274   0.391   8.356 -1.8598 -0.9333  2.0066
  641MOL0     O86401   0.499   5.653   1.054 -0.2322 -0.1798 -0.0819
  641MOL0     C86402   0.580   5.589   0.989  0.3549  0.2361 -0.2023
  641MOL0     O86403   0.550   5.527   0.874  0.4039  0.0165  0.8203
  641MOL0     C86404   0.425   5.559   0.813  0.6186 -0.4539 -0.8747
  641MOL0     C86405   0.330   5.456   0.810  0.5202  0.9718 -0.4088
  641MOL0     C86406   0.210   5.471   0.737  0.2281 -0.6175 -0.2915
  641MOL0     C86407   0.167   5.594   0.687 -0.3496  0.3658 -0.1982
  641MOL0     O86408   0.038   5.616   0.640  0.4880  0.0965  0.3142
  641MOL0     C86409  -0.007   5.532   0.532  0.5238  0.0818 -0.7383
  641MOL0     C86410  -0.156   5.544   0.501  0.2368  0.1731  0.4561
  641MOL0     C86411  -0.248   5.576   0.620  1.1278  0.0218  0.0797
  641MOL0     C86412  -0.365   5.473   0.629  0.5298  0.2891  0.3577
  641MOL0     C86413  -0.328   5.324   0.637 -0.3486 -0.0446  0.5731
  641MOL0     C86414  -0.249   5.274   0.754 -0.5541  0.5089 -0.7921
  641MOL0     C86415  -0.334   5.272   0.883 -0.5394 -1.0679  0.1048
  641MOL0     C86416  -0.260   5.206   0.996  0.4677 -0.1192  0.0258
  641MOL0     N86417  -0.149   5.281   1.066  0.2503  0.2090  0.1311
  641MOL0     C86418  -0.142   5.416   1.047 -0.1250 -0.5311  0.1906
  641MOL0     C86419  -0.023   5.460   1.097  0.6432  0.4350 -0.3408
  641MOL0     C86420   0.035   5.592   1.119 -0.2883  0.4177  0.1406
  641MOL0     C86421  -0.027   5.698   1.032  0.1550  0.6423  0.0251
  641MOL0     C86422   0.037   5.827   1.055 -0.3534 -0.2176 -0.3358
  641MOL0     C86423   0.173   5.849   0.995 -0.4743 -0.1892  0.1314
  641MOL0     O86424   0.206   5.967   1.066  0.0642 -0.6559 -0.1735
  641MOL0     C86425   0.251   6.069   0.985  0.5816  0.7051  0.0011
  641MOL0     C86426   0.318   6.065   0.867 -0.3914  0.2567 -0.9489
  641MOL0     C86427   0.338   6.173   0.776  0.0261 -0.3318 -0.3756
  641MOL0     C86428   0.425   6.142   0.660  0.1213 -0.2473  0.5288
  641MOL0     C86429   0.287   6.298   0.823 -0.7913  0.4866  0.1801
  641MOL0     C86430   0.299   6.422   0.740  0.4112 -0.1750 -0.3851
  641MOL0     O86431   0.225   6.533   0.781  0.0213 -0.1566 -1.0716
  641MOL0     C86432   0.236   6.658   0.722 -0.7569  0.7717 -0.5275
  641MOL0     C86433   0.335   6.713   0.641  0.0890  0.3947  0.4078
  641MOL0     C86434   0.319   6.845   0.590  0.0215 -0.1514  0.1528
  641MOL0     C86435   0.209   6.923   0.618 -0.0946  0.3022  0.7002
  641MOL0     O86436   0.215   7.053   0.574 -0.6921 -0.6075 -0.0847
  641MOL0     C86437   0.102   7.144   0.579  0.4688 -0.0090  0.1012
  641MOL0     C86438   0.001   7.089   0.478 -0.2019 -0.2745 -0.3006
  641MOL0     C86439  -0.117   7.176   0.472  0.2880 -0.5104  0.5513
  641MOL0     C86440  -0.090   7.292   0.369 -0.9236  0.1080 -0.2724
  641MOL0     C86441  -0.206   7.400   0.382 -0.7128  0.0389 -0.6608
  641MOL0     C86442  -0.209   7.511   0.274  0.0443 -0.9290 -0.1726
  641MOL0     C86443  -0.338   7.572   0.240  0.0956 -0.5707  1.4986
  641MOL0     C86444  -0.372   7.583   0.089  0.1507  0.3534  0.0521
  641MOL0    Cl86445  -0.261   7.705   0.017  0.1477  0.3046  0.2368
  641MOL0     C86446   0.113   6.871   0.707 -0.1239  0.3812  0.7458
  641MOL0     C86447   0.126   6.737   0.747  0.6043  0.5510  0.9539
  641MOL0     O86448   0.387   6.425   0.655  1.0632 -0.3568  0.4914
  641MOL0     C86449   0.235   6.308   0.950 -0.2752 -1.1799  0.0048
  641MOL0     C86450   0.217   6.194   1.033  0.0892 -0.1836  0.5031
  641MOL0     N86451   0.041   5.341   1.141  0.0094 -0.2553 -0.3544
  641MOL0     N86452  -0.032   5.238   1.122 -0.0713  0.1362  0.4308
  641MOL0     C86453   0.263   5.703   0.695 -0.0122  0.5618 -0.3334
  641MOL0     C86454   0.385   5.680   0.750 -0.5241  0.2565 -0.8440
  641MOL0     C86455   0.713   5.554   1.045  0.0084  0.3029  0.4845
  641MOL0     C86456   0.766   5.599   1.166  0.1679  0.4119 -0.4669
  641MOL0     C86457   0.902   5.591   1.201 -0.3679 -0.2800  0.1140
  641MOL0     C86458   0.993   5.520   1.121  0.4604  0.2316  0.2058
  641MOL0     O86459   1.126   5.486   1.153 -0.7923 -0.3671  0.2092
  641MOL0     C86460   1.176   5.495   1.290 -0.3838  0.2055  0.0266
  641MOL0     C86461   1.231   5.636   1.322  0.5641  0.6960  1.5380
  641MOL0     C86462   1.368   5.627   1.390  0.0447  0.7495  0.1813
  641MOL0     C86463   1.447   5.758   1.410  0.1077 -0.2349 -0.4536
  641MOL0     C86464   1.473   5.827   1.281 -0.5786  0.5625 -0.7434
  641MOL0     C86465   1.508   5.892   1.185  0.2287  0.0425 -0.3712
  641MOL0     C86466   0.939   5.455   1.009  0.3290  1.0816  0.7578
  641MOL0     C86467   0.801   5.477   0.969  0.1741 -0.2639 -0.4534
  641MOL0     H86468   0.352   5.364   0.863 -0.2138  0.0056 -1.7480
  641MOL0     H86469   0.143   5.386   0.736 -0.3925 -0.2219 -3.6875
  641MOL0     H86470   0.053   5.558   0.444  1.8004 -0.3632 -0.0343
  641MOL0     H86471   0.004   5.435   0.582  0.1587  0.8876  0.9717
  641MOL0     H86472  -0.181   5.628   0.435  2.0766  2.3205  2.3646
  641MOL0     H86473  -0.189   5.451   0.454 -0.1932  0.3130  0.4757
  641MOL0     H86474  -0.188   5.567   0.711  2.1334  0.1154 -0.5551
  641MOL0     H86475  -0.304   5.669   0.606 -0.0056 -0.7370 -0.6365
  641MOL0     H86476  -0.415   5.483   0.726  3.3139  1.2883  1.8006
  641MOL0     H86477  -0.440   5.478   0.549  0.7215  0.0597  0.1612
  641MOL0     H86478  -0.425   5.274   0.632 -1.2712  1.5126  1.9383
  641MOL0     H86479  -0.277   5.291   0.546 -2.5388 -2.6183  0.1433
  641MOL0     H86480  -0.216   5.171   0.736  2.2802  1.5785 -2.3179
  641MOL0     H86481  -0.161   5.334   0.775 -1.1706  0.8646  0.9680
  641MOL0     H86482  -0.378   5.367   0.916 -0.0838  0.1962 -2.5877
  641MOL0     H86483  -0.427   5.217   0.864 -0.6794 -0.6530 -0.4331
  641MOL0     H86484  -0.213   5.116   0.956  0.0294 -0.5955  0.5717
  641MOL0     H86485  -0.323   5.167   1.076 -0.1997 -4.5159 -2.3344
  641MOL0     H86486  -0.213   5.483   0.999 -2.1280 -3.7251 -1.6461
  641MOL0     H86487   0.014   5.615   1.224 -1.3945 -1.0119  0.2591
  641MOL0     H86488   0.142   5.594   1.094 -1.0437  4.5150 -4.3269
  641MOL0     H86489  -0.133   5.704   1.059  0.3573  0.7836  0.8312
  641MOL0     H86490  -0.012   5.672   0.927  0.3770  2.0107 -0.3087
  641MOL0     H86491   0.035   5.836   1.164 -0.5216 -2.8363 -0.0617
  641MOL0     H86492  -0.025   5.903   1.006  0.9578  1.2276  0.1511
  641MOL0     H86493   0.181   5.866   0.887 -0.2180 -0.8886  0.0297
  641MOL0     H86494   0.241   5.765   1.013 -1.6114 -1.4184 -1.0056
  641MOL0     H86495   0.370   5.970   0.853 -0.2998 -0.2748  2.2933
  641MOL0     H86496   0.518   6.199   0.671  2.2657 -3.5088  0.6193
  641MOL0     H86497   0.450   6.036   0.654 -2.2048 -0.7501 -1.8907
  641MOL0     H86498   0.382   6.177   0.566 -1.8363  0.5204  1.6483
  641MOL0     H86499   0.431   6.673   0.611 -2.0358 -3.6067 -1.9704
  641MOL0     H86500   0.396   6.903   0.541 -0.9845  0.6913 -0.4907
  641MOL0     H86501   0.051   7.151   0.675  1.1273  2.5642  0.3403
  641MOL0     H86502   0.141   7.240   0.542 -3.2988  1.6770  0.1174
  641MOL0     H86503   0.041   7.072   0.378  0.7339  0.2541 -0.0349
  641MOL0     H86504  -0.035   6.993   0.516  2.3312 -0.7456  1.1678
  641MOL0     H86505  -0.122   7.234   0.564  0.9245  0.9473 -0.3013
  641MOL0     H86506  -0.205   7.116   0.448 -0.2820  0.1131  1.0608
  641MOL0     H86507   0.012   7.328   0.384 -0.1613 -2.7940  2.8071
  641MOL0     H86508  -0.097   7.251   0.268  1.2726  0.1866 -0.4945
  641MOL0     H86509  -0.216   7.453   0.478  2.9484  0.4486 -0.3465
  641MOL0     H86510  -0.289   7.328   0.379  0.2791 -1.1609 -0.2077
  641MOL0     H86511  -0.136   7.590   0.293  1.3270 -1.7422 -1.4345
  641MOL0     H86512  -0.162   7.481   0.180  0.7193  1.1328 -0.5470
  641MOL0     H86513  -0.344   7.673   0.282  0.5317  1.0388 -1.9538
  641MOL0     H86514  -0.422   7.513   0.279 -0.9992 -1.7052 -2.1758
  641MOL0     H86515  -0.477   7.608   0.075  0.5306  2.0042  0.0234
  641MOL0     H86516  -0.357   7.484   0.043 -0.7399 -0.2016  0.9192
  641MOL0     H86517   0.021   6.927   0.719 -1.8920 -0.9451 -4.1457
  641MOL0     H86518   0.051   6.692   0.812  1.7664  0.3336  2.1742
  641MOL0     H86519   0.207   6.400   1.000 -1.5504  0.1076 -2.8623
  641MOL0     H86520   0.158   6.203   1.124 -1.2985 -0.4722 -0.3507
  641MOL0     H86521   0.222   5.788   0.642  1.0870 -0.4239 -2.9511
  641MOL0     H86522   0.459   5.759   0.740 -1.8007  1.7663  1.0377
  641MOL0     H86523   0.701   5.654   1.233  1.2453  2.7157 -1.2087
  641MOL0     H86524   0.934   5.643   1.291  2.0417  0.2806 -0.9932
  641MOL0     H86525   1.103   5.456   1.361 -1.6834 -1.9987 -2.3597
  641MOL0     H86526   1.266   5.433   1.292 -0.2581  0.3933  2.1676
  641MOL0     H86527   1.165   5.691   1.390 -0.6985  4.5712 -2.3711
  641MOL0     H86528   1.253   5.691   1.230 -0.9529  0.1336  0.8028
  641MOL0     H86529   1.433   5.563   1.329 -0.2973  2.1193 -1.6733
  641MOL0     H86530   1.363   5.574   1.486  0.1542  1.0069  0.3301
  641MOL0     H86531   1.541   5.733   1.461 -1.0832 -2.0862  0.9655
  641MOL0     H86532   1.385   5.827   1.467 -0.6765  1.0146 -2.6893
  641MOL0     H86533   1.551   5.944   1.101 -1.0998 -0.6561 -1.5103
  641MOL0     H86534   1.005   5.383   0.962 -1.0323 -1.1251  1.9786
  641MOL0     H86535   0.769   5.449   0.870  2.8568  2.4757 -2.2748
  642MOL0     O86536   9.810  10.503   0.566 -0.1748  0.2477  0.0666
  642MOL0     C86537   9.865  10.580   0.637 -1.3198 -0.4487 -0.4036
  642MOL0     O86538   9.803  10.686   0.698 -0.0521 -0.4117 -0.3681
  642MOL0     C86539   9.666  10.695   0.695  0.3713 -0.5147  0.1985
  642MOL0     C86540   9.569  10.597   0.714 -0.3083  0.7684  0.1343
  642MOL0     C86541   9.434  10.615   0.691 -0.0904 -0.3640  0.5572
  642MOL0     C86542   9.389  10.736   0.644  0.7957  0.1346 -0.2453
  642MOL0     O86543   9.254  10.744   0.632 -0.0743 -1.2565  0.3088
  642MOL0     C86544   9.194  10.868   0.661  0.3960 -0.5321 -0.1688
  642MOL0     C86545   9.045  10.846   0.658  0.6758  0.3825  0.1523
  642MOL0     C86546   8.996  10.814   0.514  0.2957 -0.7502 -0.5081
  642MOL0     C86547   8.842  10.808   0.508 -0.2198 -0.2647 -0.1456
  642MOL0     C86548   8.789  10.728   0.390  0.6437  0.5389 -0.0020
  642MOL0     C86549   8.652  10.787   0.355  0.3263  0.4251 -0.6913
  642MOL0     C86550   8.578  10.717   0.248  1.0880 -0.4988 -0.3076
  642MOL0     C86551   8.527  10.579   0.296 -0.8550 -0.4888  0.1434
  642MOL0     N86552   8.427  10.526   0.207 -0.6360  0.6219 -0.5693
  642MOL0     C86553   8.310  10.586   0.177  0.3156  0.1118  0.2058
  642MOL0     C86554   8.255  10.507   0.083 -0.0731 -0.8474 -0.4953
  642MOL0     C86555   8.115  10.514   0.015 -0.0220 -0.3887  0.0217
  642MOL0     C86556   8.011  10.408   0.072 -0.6911  0.1564  0.4599
  642MOL0     C86557   7.878  10.443   0.018  0.4434 -0.3341 -1.1510
  642MOL0     C86558   7.774  10.336   0.048  0.0931  0.2298 -0.6231
  642MOL0     O86559   7.657  10.364  -0.020 -0.2289 -0.6596  0.3700
  642MOL0     C86560   7.539  10.300   0.007  0.0934  0.4502  0.1999
  642MOL0     C86561   7.515  10.204   0.101  0.8918 -0.3363  0.4483
  642MOL0     C86562   7.390  10.147   0.120 -0.8787  0.5088 -0.4093
  642MOL0     C86563   7.361  10.067   0.241 -0.4748  0.3313  0.2128
  642MOL0     C86564   7.286  10.192   0.036 -0.2031 -1.2799 -0.0896
  642MOL0     C86565   7.150  10.134   0.030 -0.4425 -0.1747  0.3527
  642MOL0     O86566   7.050  10.212  -0.014 -0.7730 -0.8232 -0.0095
  642MOL0     C86567   6.920  10.158  -0.027  0.2184 -0.1321 -0.0655
  642MOL0     C86568   6.852  10.081   0.062  0.1718  0.8505 -0.4208
  642MOL0     C86569   6.716  10.054   0.053 -0.1189  0.2381 -0.3283
  642MOL0     C86570   6.645  10.101  -0.059 -0.6517  0.6068  0.9808
  642MOL0     O86571   6.509  10.102  -0.081  0.0473  0.7059 -0.0033
  642MOL0     C86572   6.426  10.025   0.018 -0.2784  0.1260  0.2459
  642MOL0     C86573   6.336  10.127   0.098  0.5252  1.2051 -0.4548
  642MOL0     C86574   6.228  10.194   0.012  0.2625 -0.2568 -0.0672
  642MOL0     C86575   6.120  10.258   0.109 -0.6576  0.4171  0.4700
  642MOL0     C86576   5.999  10.314   0.025 -1.2493  0.4917  0.1892
  642MOL0     C86577   5.923  10.423   0.098 -0.3305 -0.4430 -0.4480
  642MOL0     C86578   5.796  10.463   0.017 -0.2861 -0.6875 -0.9272
  642MOL0     C86579   5.692  10.533   0.100 -0.2231 -0.5825  0.1318
  642MOL0    Cl86580   5.771  10.684   0.155  0.2757  0.7052  0.0688
  642MOL0     C86581   6.714  10.166  -0.166 -0.4427 -1.0335 -0.7070
  642MOL0     C86582   6.850  10.203  -0.141  0.4243  0.0986  0.3378
  642MOL0     O86583   7.138  10.026   0.071 -0.2418  0.3048  0.5785
  642MOL0     C86584   7.313  10.286  -0.060  0.0296 -0.1992  0.5698
  642MOL0     C86585   7.437  10.354  -0.065  0.0221  0.3084  0.1460
  642MOL0     N86586   8.345  10.401   0.065 -0.5242  0.1897 -0.8864
  642MOL0     N86587   8.441  10.413   0.140 -1.1458  0.5561 -0.3136
  642MOL0     C86588   9.476  10.841   0.628 -0.8924 -0.2817 -0.3113
  642MOL0     C86589   9.612  10.819   0.653 -0.1651 -0.0100 -0.9526
  642MOL0     C86590  10.007  10.583   0.660 -1.2185  0.6074  1.2782
  642MOL0     C86591  10.088  10.495   0.581  0.1139 -0.3310 -1.0020
  642MOL0     C86592  10.220  10.479   0.607  0.9228  0.7102 -0.0855
  642MOL0     C86593  10.287  10.552   0.708  0.9392  0.1826  0.3848
  642MOL0     O86594  10.417  10.529   0.728 -0.1337  0.4298  0.3692
  642MOL0     C86595  10.482  10.609   0.832 -0.3818  0.3680  0.4862
  642MOL0     C86596  10.631  10.602   0.838 -0.2047  0.1642  0.5291
  642MOL0     C86597  10.688  10.701   0.932 -0.5048  0.2732  0.3871
  642MOL0     C86598  10.846  10.689   0.920  0.3863  1.2212 -0.0539
  642MOL0     C86599  10.911  10.743   1.036 -0.2364  0.4559 -0.8714
  642MOL0     C86600  10.987  10.798   1.113 -0.1179  0.6222 -0.2597
  642MOL0     C86601  10.208  10.651   0.775 -0.9257 -0.6489 -0.7896
  642MOL0     C86602  10.071  10.671   0.750 -0.2989 -0.3025 -0.5355
  642MOL0     H86603   9.602  10.494   0.728 -1.3109  0.5248  0.7963
  642MOL0     H86604   9.354  10.541   0.699 -1.0795  0.7349  1.1565
  642MOL0     H86605   9.207  10.917   0.758 -1.0193 -0.9772  0.2713
  642MOL0     H86606   9.212  10.937   0.578 -2.5767 -3.6390 -3.7593
  642MOL0     H86607   9.024  10.755   0.715  3.3544 -1.4168 -1.4656
  642MOL0     H86608   8.991  10.934   0.695 -3.2099 -2.2421  1.3136
  642MOL0     H86609   9.049  10.867   0.435  1.9414 -4.4865 -2.0976
  642MOL0     H86610   9.032  10.714   0.490  0.0856 -0.3955 -2.5006
  642MOL0     H86611   8.804  10.771   0.603 -0.5625  0.9399  0.2072
  642MOL0     H86612   8.805  10.911   0.508  1.8615  0.5458  0.0727
  642MOL0     H86613   8.855  10.730   0.303 -1.9338  2.4110 -2.0554
  642MOL0     H86614   8.792  10.624   0.425 -2.1091  0.9537  1.8326
  642MOL0     H86615   8.589  10.812   0.441  2.4576  2.7613  0.3177
  642MOL0     H86616   8.671  10.886   0.312  2.9630 -0.0218 -0.7039
  642MOL0     H86617   8.487  10.774   0.230  0.0026 -2.5136 -1.5850
  642MOL0     H86618   8.631  10.706   0.153 -0.5437 -2.0817 -1.0973
  642MOL0     H86619   8.477  10.588   0.393 -2.5169  0.0638 -0.7086
  642MOL0     H86620   8.621  10.524   0.290 -0.7009 -0.2379  0.2333
  642MOL0     H86621   8.256  10.672   0.216 -1.4198 -1.2241  0.8505
  642MOL0     H86622   8.074  10.612   0.038  1.5556  1.0108 -2.7146
  642MOL0     H86623   8.118  10.503  -0.094  0.6076 -1.8609  0.1676
  642MOL0     H86624   8.010  10.409   0.181 -1.2122 -0.3453  0.4657
  642MOL0     H86625   8.044  10.310   0.035  2.5622  0.2471  2.7870
  642MOL0     H86626   7.888  10.451  -0.091 -0.0322  1.2301 -1.1080
  642MOL0     H86627   7.839  10.539   0.054  1.5453 -0.9312  1.9307
  642MOL0     H86628   7.759  10.332   0.157 -1.1398 -1.7382 -0.8318
  642MOL0     H86629   7.810  10.235   0.026  0.6135  0.2236  0.1968
  642MOL0     H86630   7.599  10.176   0.164  0.4841 -0.9944  0.7075
  642MOL0     H86631   7.364   9.959   0.220 -2.6768  0.5743 -1.7659
  642MOL0     H86632   7.429  10.092   0.323 -0.4024 -2.2559  1.0630
  642MOL0     H86633   7.261  10.090   0.278  0.0883  0.7601  1.5172
  642MOL0     H86634   6.894  10.039   0.153 -0.3403  1.4973  0.1173
  642MOL0     H86635   6.664  10.008   0.136 -0.4340  2.5279  0.8263
  642MOL0     H86636   6.358   9.955  -0.031 -2.2143  0.1930  2.6552
  642MOL0     H86637   6.482   9.970   0.095 -1.3806  1.4284  2.0495
  642MOL0     H86638   6.288  10.078   0.183  4.0319  0.0606  1.0675
  642MOL0     H86639   6.412  10.198   0.132  1.6680  0.4771 -1.4336
  642MOL0     H86640   6.178  10.126  -0.057  1.8827 -1.1194 -0.4321
  642MOL0     H86641   6.282  10.262  -0.055  1.7646 -2.0898 -0.7811
  642MOL0     H86642   6.079  10.176   0.169 -1.0727  1.4749  1.6738
  642MOL0     H86643   6.174  10.332   0.169  1.3750  0.1478 -0.9211
  642MOL0     H86644   5.932  10.231   0.003 -1.3230 -0.0041  2.0856
  642MOL0     H86645   6.048  10.357  -0.063  1.6237 -0.1161  1.3815
  642MOL0     H86646   5.889  10.386   0.195  0.2138  0.4830  0.1130
  642MOL0     H86647   5.977  10.514   0.124  0.1394 -1.0073  0.6075
  642MOL0     H86648   5.753  10.372  -0.026  1.9934 -1.6771 -1.2619
  642MOL0     H86649   5.834  10.528  -0.062 -0.6074 -0.8497 -1.2211
  642MOL0     H86650   5.673  10.474   0.190  0.1386 -1.5128 -0.3900
  642MOL0     H86651   5.599  10.549   0.045  2.5496  0.3303 -5.0098
  642MOL0     H86652   6.673  10.216  -0.253  0.8948  1.2817 -0.0943
  642MOL0     H86653   6.903  10.249  -0.224  2.3257 -0.6487  1.0911
  642MOL0     H86654   7.238  10.319  -0.131  0.9194 -2.4392 -1.5150
  642MOL0     H86655   7.477  10.427  -0.135  0.1818 -1.2865 -1.5275
  642MOL0     H86656   9.448  10.943   0.605 -1.4433 -1.2745 -4.8505
  642MOL0     H86657   9.678  10.905   0.649  0.6337 -0.4608  1.1438
  642MOL0     H86658  10.034  10.432   0.511 -0.9741 -2.1186  1.3106
  642MOL0     H86659  10.264  10.408   0.539 -0.9287  1.2995 -2.0186
  642MOL0     H86660  10.451  10.710   0.803 -3.0247 -0.2491  0.8831
  642MOL0     H86661  10.434  10.576   0.925 -0.9215  4.0668  1.6871
  642MOL0     H86662  10.676  10.593   0.738  1.2184 -2.3731  1.3195
  642MOL0     H86663  10.659  10.516   0.899 -1.7430  1.2099  2.8218
  642MOL0     H86664  10.657  10.676   1.033  2.4377 -1.2855  1.0279
  642MOL0     H86665  10.655  10.802   0.904  0.1418 -0.3421 -3.1473
  642MOL0     H86666  10.889  10.740   0.833  0.7388 -0.6272 -1.0209
  642MOL0     H86667  10.873  10.583   0.916 -2.2863  0.4910 -1.5011
  642MOL0     H86668  11.064  10.852   1.165 -0.7671  1.3246 -0.0213
  642MOL0     H86669  10.257  10.714   0.849 -1.7811  1.2688 -1.7783
  642MOL0     H86670  10.019  10.749   0.805 -0.5171 -2.3530  2.3854
  643MOL0     O86671   0.905   5.737   3.274 -0.2217  0.1217  0.8640
  643MOL0     C86672   0.908   5.799   3.163 -0.4939  0.7284 -0.4120
  643MOL0     O86673   0.808   5.870   3.114 -0.1080  0.7949  0.0408
  643MOL0     C86674   0.696   5.875   3.198  0.2685 -0.9154 -0.3722
  643MOL0     C86675   0.677   5.992   3.277  0.0651 -0.2669 -0.1141
  643MOL0     C86676   0.567   6.000   3.366  0.5440  0.4633  0.2305
  643MOL0     C86677   0.473   5.898   3.363  0.1867 -0.0599  0.0977
  643MOL0     O86678   0.356   5.913   3.436  0.6734  0.1174 -0.1046
  643MOL0     C86679   0.272   5.792   3.463  0.4932 -0.6423  0.1924
  643MOL0     C86680   0.178   5.842   3.579  0.6016 -0.6529  0.0955
  643MOL0     C86681   0.073   5.731   3.613  0.7975 -0.2234  0.1672
  643MOL0     C86682  -0.037   5.769   3.714 -0.2692 -1.0030  0.5251
  643MOL0     C86683  -0.147   5.678   3.704  0.3959  0.1508  0.3705
  643MOL0     C86684  -0.270   5.738   3.779  0.5227 -0.4247 -0.5717
  643MOL0     C86685  -0.395   5.634   3.756 -0.4671  1.1843  0.0431
  643MOL0     C86686  -0.538   5.669   3.821 -0.8843 -0.0428 -0.4086
  643MOL0     N86687  -0.583   5.786   3.753 -1.1730 -0.1298  0.6734
  643MOL0     C86688  -0.557   5.912   3.786 -0.0231  0.1265 -0.3433
  643MOL0     C86689  -0.581   5.975   3.670  0.9469 -0.2315  0.3164
  643MOL0     C86690  -0.540   6.113   3.639 -0.0840  1.0006 -0.2123
  643MOL0     C86691  -0.600   6.220   3.731  0.9894 -0.2295 -0.8868
  643MOL0     C86692  -0.755   6.211   3.715  0.7743 -1.0343  0.0248
  643MOL0     C86693  -0.808   6.235   3.567 -0.2920 -0.0366  0.5406
  643MOL0     O86694  -0.942   6.267   3.566  1.0597  1.0276  0.3178
  643MOL0     C86695  -1.032   6.164   3.566 -0.4656  0.0993 -0.1466
  643MOL0     C86696  -1.167   6.202   3.581 -0.2097  0.1307 -0.3519
  643MOL0     C86697  -1.269   6.112   3.613  0.2330  0.2782 -0.4331
  643MOL0     C86698  -1.411   6.165   3.621 -0.3531 -0.3191  0.0008
  643MOL0     C86699  -1.232   5.980   3.639 -0.0270  0.1897 -0.7058
  643MOL0     C86700  -1.324   5.861   3.662  0.9782 -0.2710  0.4826
  643MOL0     O86701  -1.272   5.735   3.655 -0.0076  0.1348  0.4084
  643MOL0     C86702  -1.359   5.634   3.682 -0.2798 -0.0815 -0.4108
  643MOL0     C86703  -1.423   5.628   3.810  0.0059 -0.4386  1.3737
  643MOL0     C86704  -1.506   5.528   3.838  1.2555  0.6129 -0.8903
  643MOL0     C86705  -1.536   5.426   3.744  0.1146 -0.2680  0.5100
  643MOL0     O86706  -1.637   5.335   3.766 -0.5920 -0.4204 -0.5230
  643MOL0     C86707  -1.597   5.193   3.764  0.2062  0.9414 -0.5731
  643MOL0     C86708  -1.716   5.099   3.800 -0.1254  0.5147  0.9950
  643MOL0     C86709  -1.761   5.109   3.945  0.4381  0.0735 -0.5950
  643MOL0     C86710  -1.844   4.994   3.997  0.2113 -1.1482  0.3260
  643MOL0     C86711  -1.882   5.008   4.142  0.6694  0.5150 -0.6440
  643MOL0     C86712  -1.998   5.107   4.183  0.1174 -0.0758  0.1444
  643MOL0     C86713  -2.135   5.045   4.136  0.7622 -0.7651  0.5219
  643MOL0     C86714  -2.253   5.092   4.232 -0.0138  1.2000 -0.1448
  643MOL0    Cl86715  -2.236   5.028   4.402 -0.3435  0.1814 -0.3231
  643MOL0     C86716  -1.483   5.439   3.613 -0.3165  0.4520 -0.0926
  643MOL0     C86717  -1.400   5.545   3.576  0.1288 -0.3445 -0.3411
  643MOL0     O86718  -1.439   5.885   3.695  0.0512 -1.5699 -0.4034
  643MOL0     C86719  -1.098   5.943   3.625  0.4837  0.5838 -0.5692
  643MOL0     C86720  -0.992   6.033   3.591  0.0064  0.3196  0.5353
  643MOL0     N86721  -0.640   5.888   3.576 -0.4662 -0.2486  0.2999
  643MOL0     N86722  -0.641   5.780   3.636 -0.6658  0.1376 -0.0409
  643MOL0     C86723   0.483   5.789   3.271  0.3107  0.2843 -0.7260
  643MOL0     C86724   0.602   5.773   3.201  0.2265  0.4800 -1.0558
  643MOL0     C86725   1.036   5.807   3.097 -0.8626  0.4314 -0.4076
  643MOL0     C86726   1.084   5.911   3.014  0.0934 -0.3425 -0.0523
  643MOL0     C86727   1.218   5.926   2.970  0.2523  0.6596  0.3825
  643MOL0     C86728   1.303   5.828   2.995 -0.3618 -0.2973  0.2136
  643MOL0     O86729   1.431   5.824   2.950  0.1826  0.4660  0.2379
  643MOL0     C86730   1.461   5.900   2.836  0.3781  0.5125  0.0234
  643MOL0     C86731   1.600   5.851   2.787 -1.5207 -0.1071 -1.3769
  643MOL0     C86732   1.584   5.715   2.716 -0.2838  0.5315  0.2218
  643MOL0     C86733   1.558   5.597   2.800 -0.1419 -0.4282 -1.5805
  643MOL0     C86734   1.657   5.572   2.904  0.5125  0.4398 -0.7600
  643MOL0     C86735   1.740   5.549   2.993  0.2843 -0.1045  0.3991
  643MOL0     C86736   1.265   5.721   3.076 -0.5279  0.2656 -0.2431
  643MOL0     C86737   1.138   5.710   3.129  0.4498  0.0487  0.1521
  643MOL0     H86738   0.745   6.077   3.276  0.0643 -0.2541 -1.8520
  643MOL0     H86739   0.543   6.083   3.431  2.3697  4.5376 -3.7174
  643MOL0     H86740   0.209   5.766   3.377 -0.3096 -1.2410  0.9465
  643MOL0     H86741   0.333   5.706   3.492  4.2268  1.3365 -1.0818
  643MOL0     H86742   0.235   5.856   3.671 -0.0900 -2.5038  0.8648
  643MOL0     H86743   0.118   5.927   3.546  1.8502  0.7812  1.3753
  643MOL0     H86744   0.019   5.715   3.520 -0.8636  1.2965  0.8282
  643MOL0     H86745   0.111   5.633   3.643 -0.7485 -1.1459 -0.7769
  643MOL0     H86746   0.005   5.777   3.815 -0.0674  0.7327  0.3447
  643MOL0     H86747  -0.070   5.870   3.688  0.1174 -1.2121 -0.8116
  643MOL0     H86748  -0.181   5.671   3.600 -2.0782 -0.1575  1.1373
  643MOL0     H86749  -0.116   5.585   3.752  0.5131  0.5347  1.0547
  643MOL0     H86750  -0.243   5.754   3.883  1.2411  0.0709 -0.8276
  643MOL0     H86751  -0.299   5.830   3.727 -1.0834 -0.7470 -0.2803
  643MOL0     H86752  -0.414   5.622   3.649  0.1404 -1.6074  0.1604
  643MOL0     H86753  -0.366   5.538   3.800 -1.4525  1.5049  1.4321
  643MOL0     H86754  -0.532   5.700   3.926 -0.1759 -2.2013  0.2283
  643MOL0     H86755  -0.605   5.583   3.816  2.7493 -3.3592  1.9307
  643MOL0     H86756  -0.493   5.952   3.864 -0.9156  0.6678  0.1357
  643MOL0     H86757  -0.430   6.114   3.641  0.0256 -2.2325 -0.1162
  643MOL0     H86758  -0.572   6.145   3.539  0.4588  1.7682 -0.1535
  643MOL0     H86759  -0.560   6.318   3.704 -1.8492  1.5797  0.9189
  643MOL0     H86760  -0.580   6.215   3.839 -2.6971 -1.4307 -0.1340
  643MOL0     H86761  -0.810   6.281   3.780  0.2102 -1.9998  0.6035
  643MOL0     H86762  -0.787   6.110   3.740 -1.0332 -0.6061 -0.4433
  643MOL0     H86763  -0.785   6.154   3.497 -1.7038  0.0006  0.0060
  643MOL0     H86764  -0.762   6.329   3.533  0.6774 -0.6063  0.2341
  643MOL0     H86765  -1.185   6.307   3.559  0.1286  0.0846 -0.8722
  643MOL0     H86766  -1.410   6.271   3.595  0.5927 -0.6260 -1.3957
  643MOL0     H86767  -1.481   6.104   3.563  0.2276 -2.6792  1.6299
  643MOL0     H86768  -1.455   6.158   3.720  0.4968  0.8949  0.4973
  643MOL0     H86769  -1.399   5.702   3.886 -0.0509  0.6630  0.3560
  643MOL0     H86770  -1.550   5.517   3.937 -1.2370 -0.2572 -1.9999
  643MOL0     H86771  -1.549   5.177   3.667  1.7074  3.5982 -0.3600
  643MOL0     H86772  -1.521   5.187   3.842  0.0015  0.0982 -0.4197
  643MOL0     H86773  -1.792   5.126   3.726  2.5427 -0.3237 -2.2937
  643MOL0     H86774  -1.681   4.997   3.783 -0.4085  0.7320 -1.0940
  643MOL0     H86775  -1.811   5.206   3.954 -0.2145 -0.0187 -2.6952
  643MOL0     H86776  -1.667   5.120   4.000  1.0703 -0.9601 -1.4416
  643MOL0     H86777  -1.930   5.001   3.929  2.3435  0.8545 -2.3769
  643MOL0     H86778  -1.797   4.898   3.972 -2.1466 -1.6561 -2.9573
  643MOL0     H86779  -1.791   5.029   4.199 -1.7532  1.2966  3.2903
  643MOL0     H86780  -1.914   4.911   4.180 -0.9944  0.7162 -1.4584
  643MOL0     H86781  -2.001   5.100   4.292 -2.2883  1.0807  0.2177
  643MOL0     H86782  -1.982   5.209   4.145 -3.9927  0.5398 -0.3682
  643MOL0     H86783  -2.141   4.937   4.125  0.6639 -0.5980 -1.4256
  643MOL0     H86784  -2.152   5.084   4.035  0.1783  0.5736  1.0957
  643MOL0     H86785  -2.343   5.061   4.178  0.8538 -1.6041 -0.1463
  643MOL0     H86786  -2.263   5.199   4.249 -0.8939  0.7304  3.0487
  643MOL0     H86787  -1.494   5.361   3.539  0.5894 -0.4622  0.6926
  643MOL0     H86788  -1.362   5.561   3.476  3.0823 -0.1657  0.7137
  643MOL0     H86789  -1.064   5.840   3.630  1.0137  0.8055  0.5804
  643MOL0     H86790  -0.889   5.997   3.586  0.0605  0.2732  1.7139
  643MOL0     H86791   0.404   5.715   3.264  0.8409 -0.3450 -0.2155
  643MOL0     H86792   0.619   5.695   3.127 -1.7886 -0.3230 -0.7494
  643MOL0     H86793   1.028   6.001   2.989  2.6177  1.7857  1.4202
  643MOL0     H86794   1.248   6.002   2.898  3.2293 -2.5450 -2.1294
  643MOL0     H86795   1.382   5.891   2.762 -0.9830  0.9628  1.3596
  643MOL0     H86796   1.473   6.008   2.852  2.8910  0.9658 -3.7433
  643MOL0     H86797   1.667   5.849   2.873 -1.2816  0.6793 -1.5367
  643MOL0     H86798   1.631   5.928   2.717  0.5983 -2.6780 -3.4813
  643MOL0     H86799   1.662   5.693   2.642 -2.6473 -1.5533 -1.8120
  643MOL0     H86800   1.502   5.725   2.645  0.3790 -1.4239 -0.9101
  643MOL0     H86801   1.578   5.511   2.736  2.3087 -1.2740  0.1494
  643MOL0     H86802   1.457   5.601   2.841  0.2276  3.5851 -0.6544
  643MOL0     H86803   1.816   5.520   3.063  0.6036  3.3998  1.7123
  643MOL0     H86804   1.333   5.638   3.093  0.5383  1.5322  1.9473
  643MOL0     H86805   1.117   5.615   3.178  0.0345 -0.8672 -1.7128
  644MOL0     O86806   4.250   9.941   3.897 -0.6431 -0.4025  0.9469
  644MOL0     C86807   4.230  10.040   3.963  0.2138 -0.8503 -0.2188
  644MOL0     O86808   4.130  10.064   4.043  0.4250 -0.5289 -0.2264
  644MOL0     C86809   4.023   9.981   4.058 -0.5112  0.5079  0.3939
  644MOL0     C86810   3.964   9.919   3.951  0.1906  0.0812  0.3743
  644MOL0     C86811   3.846   9.834   3.969 -0.1778 -0.7378  0.5969
  644MOL0     C86812   3.797   9.812   4.097 -0.5156 -0.8906 -0.4923
  644MOL0     O86813   3.688   9.741   4.134  0.0287  0.3370  0.1321
  644MOL0     C86814   3.635   9.644   4.043 -0.6608 -1.2764 -0.7373
  644MOL0     C86815   3.510   9.593   4.117 -0.1542 -0.3451 -0.0798
  644MOL0     C86816   3.413   9.712   4.143 -0.4961 -0.1197  0.1735
  644MOL0     C86817   3.269   9.663   4.190 -0.0949  0.3429 -0.3307
  644MOL0     C86818   3.271   9.591   4.326 -0.1550  0.6359 -0.3664
  644MOL0     C86819   3.134   9.543   4.379 -0.9151 -1.2073  0.0451
  644MOL0     C86820   3.154   9.465   4.510  0.3056 -0.5879  0.3489
  644MOL0     C86821   3.151   9.316   4.476 -0.2393 -0.1629  0.6981
  644MOL0     N86822   3.180   9.241   4.606  0.4494 -0.5967  0.3361
  644MOL0     C86823   3.301   9.219   4.661 -0.4229  0.7295  0.4803
  644MOL0     C86824   3.286   9.141   4.772 -0.4586  0.0256 -0.5037
  644MOL0     C86825   3.389   9.109   4.877  0.2732  0.4933 -0.0925
  644MOL0     C86826   3.337   9.107   5.033  0.6160 -0.1525  0.2523
  644MOL0     C86827   3.290   9.242   5.092  0.0514 -0.1977 -0.0953
  644MOL0     C86828   3.170   9.308   5.024 -0.3609 -0.0951  0.4537
  644MOL0     O86829   3.125   9.413   5.109 -0.1878 -1.1354 -0.0013
  644MOL0     C86830   3.001   9.480   5.087  1.1817  0.6268  0.1132
  644MOL0     C86831   2.937   9.554   5.185  0.1448  0.0290  0.3452
  644MOL0     C86832   2.826   9.628   5.163  0.4229 -0.2147 -0.7224
  644MOL0     C86833   2.770   9.708   5.277 -0.0656 -0.2107 -0.6746
  644MOL0     C86834   2.758   9.614   5.041  0.4287  0.8653  0.6604
  644MOL0     C86835   2.641   9.691   5.007  0.5214  0.1902  0.3586
  644MOL0     O86836   2.551   9.618   4.937 -0.5784 -0.1420  0.1675
  644MOL0     C86837   2.427   9.667   4.905 -0.0789  0.3685 -0.1325
  644MOL0     C86838   2.394   9.740   4.795  1.0863  0.0584  0.1080
  644MOL0     C86839   2.256   9.795   4.788 -0.5993 -0.9829  0.3896
  644MOL0     C86840   2.156   9.753   4.870 -0.6733 -0.1754 -0.6377
  644MOL0     O86841   2.030   9.797   4.864 -0.2944 -0.4654 -0.4463
  644MOL0     C86842   1.977   9.854   4.742  0.3359 -0.1244 -0.2666
  644MOL0     C86843   1.833   9.868   4.744  0.3041  0.2638  0.2119
  644MOL0     C86844   1.774   9.955   4.637  0.6922  0.0966  0.5933
  644MOL0     C86845   1.840   9.949   4.497 -0.5269 -0.2631 -0.6629
  644MOL0     C86846   1.799   9.822   4.420  0.3629  0.5412  0.6944
  644MOL0     C86847   1.835   9.844   4.273  0.4343 -0.1008  0.3466
  644MOL0     C86848   1.758   9.745   4.173 -0.6639 -0.2361 -0.0727
  644MOL0     C86849   1.746   9.809   4.037  0.2079 -0.2021 -0.2683
  644MOL0    Cl86850   1.908   9.826   3.996  0.2795  0.2309 -0.2640
  644MOL0     C86851   2.193   9.673   4.973  0.3000  0.7559 -0.5719
  644MOL0     C86852   2.331   9.638   4.996  0.4318  0.5615  0.1498
  644MOL0     O86853   2.634   9.813   5.035 -0.0716 -0.5730 -0.2843
  644MOL0     C86854   2.803   9.523   4.942  0.5359 -0.1843 -0.4968
  644MOL0     C86855   2.920   9.454   4.971 -0.3678  0.2046  0.1981
  644MOL0     N86856   3.148   9.114   4.770  0.6778  0.3415 -0.1072
  644MOL0     N86857   3.088   9.169   4.672 -0.0695 -0.2206  0.6470
  644MOL0     C86858   3.859   9.879   4.199 -0.2716  0.2246 -0.2641
  644MOL0     C86859   3.960   9.973   4.178 -0.0259  0.0865  0.4640
  644MOL0     C86860   4.331  10.147   3.943 -0.7280 -0.4831  0.0291
  644MOL0     C86861   4.311  10.279   3.983  0.1132  0.5140  0.3177
  644MOL0     C86862   4.421  10.366   3.966  0.0279 -0.5685  0.2056
  644MOL0     C86863   4.542  10.342   3.900  0.0999  0.6081  0.3216
  644MOL0     O86864   4.650  10.432   3.902  0.5534  0.2426 -0.2394
  644MOL0     C86865   4.736  10.434   3.791  0.5944 -0.0301  0.2471
  644MOL0     C86866   4.666  10.490   3.671  0.9134  0.2006 -0.1059
  644MOL0     C86867   4.619  10.638   3.674  0.2227 -0.3985  0.3646
  644MOL0     C86868   4.727  10.747   3.635 -0.5617  1.0906  0.3708
  644MOL0     C86869   4.797  10.715   3.510  0.3529 -0.0836  0.3054
  644MOL0     C86870   4.848  10.707   3.401 -0.6133 -0.1054  0.2000
  644MOL0     C86871   4.562  10.213   3.861  0.8786 -0.2816 -0.1679
  644MOL0     C86872   4.461  10.121   3.883  0.1690 -0.2883  0.2286
  644MOL0     H86873   4.000   9.932   3.850 -1.1704 -3.8334 -0.7957
  644MOL0     H86874   3.797   9.779   3.889 -1.5460 -0.6321  1.3271
  644MOL0     H86875   3.614   9.694   3.948  0.8537  0.7052 -0.1104
  644MOL0     H86876   3.706   9.562   4.030  1.2789  0.1935 -0.0016
  644MOL0     H86877   3.471   9.511   4.055  0.1229  1.1335 -2.3130
  644MOL0     H86878   3.534   9.540   4.209 -1.9029 -1.0626  0.0181
  644MOL0     H86879   3.450   9.783   4.218  1.1540 -1.7923  1.0152
  644MOL0     H86880   3.410   9.758   4.044  0.5564  0.0834  0.2254
  644MOL0     H86881   3.198   9.745   4.203 -0.6536 -0.1837 -0.0161
  644MOL0     H86882   3.228   9.609   4.104 -2.5711 -0.6706  1.3684
  644MOL0     H86883   3.327   9.496   4.326  0.7402  1.1208 -2.0244
  644MOL0     H86884   3.316   9.652   4.404  2.0132  2.1866 -2.6846
  644MOL0     H86885   3.073   9.632   4.398 -0.1032 -0.7772  0.7016
  644MOL0     H86886   3.077   9.488   4.304 -0.1102  0.3401 -1.7700
  644MOL0     H86887   3.243   9.493   4.566 -1.5660  1.5483  2.4942
  644MOL0     H86888   3.071   9.485   4.579 -0.4038 -0.2624 -0.5751
  644MOL0     H86889   3.207   9.277   4.391 -0.6711 -3.4510  1.7886
  644MOL0     H86890   3.048   9.311   4.438  0.9866  0.8883 -3.1750
  644MOL0     H86891   3.395   9.261   4.625 -1.9836  3.6325 -0.5357
  644MOL0     H86892   3.437   9.014   4.855 -1.1337 -0.4906  0.9273
  644MOL0     H86893   3.465   9.188   4.874  0.5484  0.2503  0.4739
  644MOL0     H86894   3.408   9.048   5.092 -0.4138 -0.4263  1.2474
  644MOL0     H86895   3.258   9.032   5.026  0.2126  0.2964  0.0205
  644MOL0     H86896   3.383   9.299   5.079  1.2228 -2.0977 -0.5147
  644MOL0     H86897   3.262   9.229   5.197 -2.4385  1.0173 -0.5444
  644MOL0     H86898   3.099   9.226   5.008  1.3651 -1.5879  0.0828
  644MOL0     H86899   3.207   9.339   4.926 -0.3261 -1.6962 -0.0797
  644MOL0     H86900   2.980   9.566   5.284  0.1162  2.4618  0.1226
  644MOL0     H86901   2.808   9.810   5.282  2.8941 -1.2886  1.5684
  644MOL0     H86902   2.661   9.711   5.267  0.1361  1.5075 -3.2832
  644MOL0     H86903   2.786   9.649   5.368  2.2411  0.0910 -0.8463
  644MOL0     H86904   2.468   9.747   4.716  0.4404 -1.6676 -0.7099
  644MOL0     H86905   2.237   9.863   4.705 -2.4228 -0.1524  1.4321
  644MOL0     H86906   2.014   9.957   4.743 -2.0139  0.7835 -0.9298
  644MOL0     H86907   2.013   9.806   4.650  2.5013  2.7318 -1.0416
  644MOL0     H86908   1.780   9.773   4.735  0.0309  0.4960 -0.8085
  644MOL0     H86909   1.807   9.921   4.836 -0.2544  2.6688 -1.2145
  644MOL0     H86910   1.776  10.061   4.662 -1.5821  0.0943  1.0314
  644MOL0     H86911   1.665   9.948   4.629  0.8281 -0.0240 -3.4574
  644MOL0     H86912   1.806  10.043   4.451 -0.7185  0.6415  1.2574
  644MOL0     H86913   1.949   9.948   4.504 -0.6430 -0.9625  1.5110
  644MOL0     H86914   1.693   9.796   4.430  1.1772 -2.4610  3.1444
  644MOL0     H86915   1.834   9.726   4.459 -3.0648 -1.2214 -0.1870
  644MOL0     H86916   1.797   9.944   4.247  0.9789  1.1841  3.9251
  644MOL0     H86917   1.944   9.847   4.262  0.6390 -0.3700  2.1111
  644MOL0     H86918   1.660   9.714   4.211 -0.3025 -1.0172  0.2520
  644MOL0     H86919   1.827   9.661   4.164  0.7426  0.7077  1.3997
  644MOL0     H86920   1.708   9.912   4.043  4.2354  1.5210 -0.7585
  644MOL0     H86921   1.691   9.745   3.968 -1.4898  0.5118  0.3839
  644MOL0     H86922   2.119   9.645   5.046  1.8944  0.5038  1.0183
  644MOL0     H86923   2.355   9.586   5.088 -0.3608 -1.1936 -0.5931
  644MOL0     H86924   2.744   9.504   4.853 -1.0095 -0.1371  0.4785
  644MOL0     H86925   2.961   9.394   4.891 -0.2486  4.8759 -3.6993
  644MOL0     H86926   3.833   9.862   4.303  2.3813 -2.4324  0.0934
  644MOL0     H86927   4.011  10.025   4.258 -2.7851  0.6006  2.0114
  644MOL0     H86928   4.214  10.303   4.025 -0.2741 -2.1435  1.1229
  644MOL0     H86929   4.410  10.468   4.001  0.2439 -1.5137  3.3416
  644MOL0     H86930   4.814  10.506   3.819 -0.0046 -0.8735  5.0399
  644MOL0     H86931   4.774  10.335   3.764 -2.7120 -1.1368 -0.8255
  644MOL0     H86932   4.580  10.425   3.656  2.1251 -0.8876 -3.3745
  644MOL0     H86933   4.723  10.482   3.578 -2.3298  0.8100 -2.3129
  644MOL0     H86934   4.588  10.657   3.777  1.0124 -2.9210  1.1438
  644MOL0     H86935   4.534  10.640   3.605  1.2878  0.3833 -0.9723
  644MOL0     H86936   4.808  10.736   3.709  2.1310  1.7871 -2.2909
  644MOL0     H86937   4.691  10.850   3.635 -1.4492  0.8261 -1.5371
  644MOL0     H86938   4.918  10.706   3.321 -0.6804  1.2708  0.1030
  644MOL0     H86939   4.653  10.181   3.812 -0.1630 -0.0950 -2.3537
  644MOL0     H86940   4.489  10.024   3.844 -1.7554 -0.9306  0.3088
  645MOL0     O86941   1.775   4.894  11.320 -0.3959 -0.0890 -0.0051
  645MOL0     C86942   1.785   4.872  11.437  1.1789 -0.1426 -1.3671
  645MOL0     O86943   1.688   4.828  11.522  0.0112 -0.8350 -0.1451
  645MOL0     C86944   1.560   4.811  11.471 -0.4802 -0.5830  0.2835
  645MOL0     C86945   1.524   4.725  11.366 -0.7045  0.7818  0.3905
  645MOL0     C86946   1.406   4.733  11.300  0.1530  0.8235  0.1729
  645MOL0     C86947   1.310   4.830  11.332 -0.5787 -0.5717 -0.5193
  645MOL0     O86948   1.184   4.837  11.283  0.7249 -0.6986 -0.0172
  645MOL0     C86949   1.104   4.720  11.288 -0.1221  0.7573  0.0240
  645MOL0     C86950   0.974   4.731  11.360  0.3314 -0.8012  1.0261
  645MOL0     C86951   0.877   4.805  11.268  0.2388  0.7191 -0.4725
  645MOL0     C86952   0.739   4.798  11.346 -0.3864  0.2325  0.3612
  645MOL0     C86953   0.631   4.867  11.255  0.6923  0.6688  0.1280
  645MOL0     C86954   0.498   4.878  11.329 -0.5914  0.2948  0.4767
  645MOL0     C86955   0.508   4.990  11.423  0.4834  0.3624 -0.3260
  645MOL0     C86956   0.395   4.964  11.536  0.0509 -0.3709  0.5905
  645MOL0     N86957   0.372   5.092  11.603 -1.0652  0.2246 -0.1403
  645MOL0     C86958   0.268   5.167  11.570  1.2601  0.1905  0.6683
  645MOL0     C86959   0.293   5.280  11.635  0.1743  0.7152 -0.0620
  645MOL0     C86960   0.207   5.399  11.639 -0.7153  0.6095  0.5667
  645MOL0     C86961   0.253   5.520  11.554 -0.1018  1.5360 -0.6095
  645MOL0     C86962   0.400   5.572  11.578 -0.0511  0.0676  0.1297
  645MOL0     C86963   0.426   5.600  11.730  0.4633  1.0764 -0.2325
  645MOL0     O86964   0.503   5.726  11.744  0.5219  0.6041 -0.1624
  645MOL0     C86965   0.639   5.719  11.743 -0.3550 -0.6235  1.1052
  645MOL0     C86966   0.700   5.817  11.794 -0.1089 -0.2185 -0.0715
  645MOL0     C86967   0.837   5.841  11.768  0.3233  0.3427 -0.2009
  645MOL0     C86968   0.879   5.972  11.830 -0.3414 -0.5280 -0.0133
  645MOL0     C86969   0.920   5.746  11.705  0.4228  0.0355  0.2684
  645MOL0     C86970   1.058   5.766  11.670  0.0474 -0.5974  0.5952
  645MOL0     O86971   1.126   5.660  11.617  0.2665  0.2140  0.2125
  645MOL0     C86972   1.246   5.687  11.562 -0.5021  0.8493  0.0168
  645MOL0     C86973   1.345   5.587  11.564 -0.5270  0.3158  0.9792
  645MOL0     C86974   1.484   5.620  11.537 -0.3636 -0.2552  0.0196
  645MOL0     C86975   1.519   5.735  11.480 -1.1007  0.1111  0.1072
  645MOL0     O86976   1.652   5.761  11.469  0.8478 -0.1637  0.6922
  645MOL0     C86977   1.675   5.897  11.489 -0.0665 -1.2099  0.0354
  645MOL0     C86978   1.816   5.932  11.468 -0.6811  0.6503  0.0887
  645MOL0     C86979   1.853   6.075  11.508 -0.0916  0.0086 -0.8947
  645MOL0     C86980   1.990   6.124  11.453  0.0039  0.2639  1.2193
  645MOL0     C86981   2.009   6.278  11.473  0.4275 -1.5910 -0.0399
  645MOL0     C86982   2.142   6.333  11.404  1.5413  0.5178 -0.3171
  645MOL0     C86983   2.176   6.468  11.452  0.6038  0.3827 -0.3381
  645MOL0     C86984   2.292   6.524  11.375 -0.9890  0.2840 -0.4767
  645MOL0    Cl86985   2.244   6.590  11.212 -0.1848 -0.0067  0.4362
  645MOL0     C86986   1.419   5.827  11.451  1.2940  0.2250 -0.6282
  645MOL0     C86987   1.280   5.798  11.495 -0.8534  0.1013 -0.1749
  645MOL0     O86988   1.105   5.878  11.690  0.9490 -0.4333 -0.1688
  645MOL0     C86989   0.851   5.638  11.645 -0.5953 -0.2186 -0.0891
  645MOL0     C86990   0.711   5.625  11.668 -0.9273  0.9647  0.2718
  645MOL0     N86991   0.401   5.265  11.726 -0.3733  0.2031  0.3108
  645MOL0     N86992   0.452   5.156  11.701  0.1648  0.7011 -0.5269
  645MOL0     C86993   1.345   4.917  11.436  0.0985 -0.0231 -0.0173
  645MOL0     C86994   1.473   4.915  11.496 -0.4068  0.4848 -1.0151
  645MOL0     C86995   1.914   4.913  11.503 -0.3835  0.0774  0.4287
  645MOL0     C86996   1.912   4.946  11.644 -0.3839  0.3393  0.5839
  645MOL0     C86997   2.026   4.997  11.699 -0.0510  0.6403  0.5246
  645MOL0     C86998   2.146   5.001  11.628  0.1987  0.9611  0.6219
  645MOL0     O86999   2.259   5.031  11.689  0.2474 -1.3534  0.3414
  645MOL0     C87000   2.315   5.155  11.640  0.3475  1.1389  0.1167
  645MOL0     C87001   2.377   5.225  11.763 -0.2795  0.5470  0.0269
  645MOL0     C87002   2.259   5.287  11.850 -0.6969  0.8800  0.3357
  645MOL0     C87003   2.311   5.347  11.984 -0.0391  0.3326  0.2247
  645MOL0     C87004   2.370   5.482  11.966  1.1080 -0.6137  0.6095
  645MOL0     C87005   2.401   5.599  11.963 -0.0116 -0.3074 -0.7967
  645MOL0     C87006   2.148   4.972  11.490 -0.4751  0.4598 -0.8706
  645MOL0     C87007   2.031   4.929  11.430 -0.3655  0.5671  0.1486
  645MOL0     H87008   1.609   4.661  11.341  0.0879  1.5268  1.1160
  645MOL0     H87009   1.387   4.666  11.217 -0.3619  2.6160 -1.2120
  645MOL0     H87010   1.093   4.674  11.189 -0.9761  2.7682 -0.8866
  645MOL0     H87011   1.151   4.640  11.346  0.4783  0.7339 -0.4764
  645MOL0     H87012   0.939   4.632  11.390  0.2534 -0.1556  3.3277
  645MOL0     H87013   1.001   4.798  11.443  0.3541 -0.8048  1.0215
  645MOL0     H87014   0.905   4.908  11.243  0.8404  0.0985 -2.5435
  645MOL0     H87015   0.860   4.754  11.173 -2.5119  1.3524 -0.4142
  645MOL0     H87016   0.720   4.692  11.367  1.0932 -0.2015 -0.3550
  645MOL0     H87017   0.746   4.848  11.443 -0.3883  1.0461 -0.0451
  645MOL0     H87018   0.675   4.955  11.206 -0.8113  0.7981 -1.0795
  645MOL0     H87019   0.607   4.792  11.179  2.0868 -2.5939  2.6505
  645MOL0     H87020   0.423   4.900  11.253 -1.0841  0.9630  1.1386
  645MOL0     H87021   0.478   4.782  11.379  2.9190 -1.4711 -1.1750
  645MOL0     H87022   0.604   5.001  11.473  0.4590  1.1116 -0.4325
  645MOL0     H87023   0.473   5.075  11.364  1.4265  2.4373  1.9271
  645MOL0     H87024   0.428   4.892  11.611  1.7174 -0.4581 -0.1965
  645MOL0     H87025   0.307   4.923  11.484  0.6590 -1.7163  0.5866
  645MOL0     H87026   0.181   5.145  11.508  2.9473 -0.6508 -1.5463
  645MOL0     H87027   0.104   5.375  11.610  0.7851 -0.3992 -5.1504
  645MOL0     H87028   0.201   5.425  11.745  0.9286  3.2360  0.1102
  645MOL0     H87029   0.181   5.599  11.581 -1.1743  0.3318  0.1467
  645MOL0     H87030   0.238   5.497  11.448 -1.2034 -0.7078 -0.0183
  645MOL0     H87031   0.408   5.660  11.514 -1.7322 -0.0578 -0.2947
  645MOL0     H87032   0.478   5.505  11.539 -0.9816 -1.1811  0.3529
  645MOL0     H87033   0.484   5.518  11.772 -0.0091  1.0729  0.4170
  645MOL0     H87034   0.333   5.610  11.785 -0.7617 -1.2407 -1.7305
  645MOL0     H87035   0.646   5.895  11.847 -1.4724 -1.1068 -0.1039
  645MOL0     H87036   0.802   6.011  11.897 -0.1614 -2.6107  1.4870
  645MOL0     H87037   0.975   5.980  11.882  1.3735 -0.4993 -2.9704
  645MOL0     H87038   0.899   6.040  11.747 -1.0112  1.2041  1.1848
  645MOL0     H87039   1.329   5.486  11.603  0.9721 -1.1447 -1.8692
  645MOL0     H87040   1.562   5.548  11.558  1.1682  1.4905  0.6149
  645MOL0     H87041   1.628   5.960  11.412  2.7989  2.1024  0.7108
  645MOL0     H87042   1.651   5.930  11.591 -1.0858 -0.2168 -0.4988
  645MOL0     H87043   1.887   5.864  11.517 -0.8489 -1.3872 -2.2755
  645MOL0     H87044   1.834   5.918  11.361 -1.8762  2.6492 -0.4306
  645MOL0     H87045   1.844   6.074  11.617 -1.5366  1.9922 -0.9477
  645MOL0     H87046   1.774   6.137  11.465 -0.2750 -0.6516 -1.5326
  645MOL0     H87047   2.068   6.061  11.497 -2.2937 -1.3269  3.3130
  645MOL0     H87048   1.976   6.099  11.347  0.3421 -4.6937  2.1280
  645MOL0     H87049   1.998   6.318  11.575  1.8380  1.8706 -1.1017
  645MOL0     H87050   1.920   6.328  11.434  0.6340  1.7643  3.1437
  645MOL0     H87051   2.221   6.267  11.439  0.6074  0.6985  2.4109
  645MOL0     H87052   2.139   6.324  11.295 -0.1763 -1.5952 -0.1645
  645MOL0     H87053   2.210   6.460  11.556  0.5654  0.1395 -0.3440
  645MOL0     H87054   2.091   6.536  11.444  0.7964  0.5000 -1.6824
  645MOL0     H87055   2.372   6.450  11.366 -1.2652  0.0733 -1.2929
  645MOL0     H87056   2.329   6.606  11.436  0.3494 -0.1467 -0.6816
  645MOL0     H87057   1.426   5.925  11.405 -1.9008  0.0121 -1.8636
  645MOL0     H87058   1.207   5.877  11.482  0.0927  0.9986 -0.1863
  645MOL0     H87059   0.918   5.567  11.597  1.1201  1.9218 -1.0305
  645MOL0     H87060   0.663   5.545  11.612  1.4153 -1.0912  0.9803
  645MOL0     H87061   1.272   4.990  11.468  2.3018  1.4168  2.0833
  645MOL0     H87062   1.512   4.986  11.568  0.4442 -3.1753  2.5022
  645MOL0     H87063   1.815   4.947  11.693 -1.3599 -1.8700 -1.1155
  645MOL0     H87064   2.016   5.041  11.798 -0.5866  3.3816 -0.6735
  645MOL0     H87065   2.392   5.140  11.563  2.2163  0.7320  1.9622
  645MOL0     H87066   2.246   5.230  11.601  1.4871  1.5959 -1.1312
  645MOL0     H87067   2.444   5.301  11.723  0.1770 -0.4341 -1.1289
  645MOL0     H87068   2.431   5.151  11.823 -2.9056 -1.0388  0.5954
  645MOL0     H87069   2.188   5.207  11.874  0.8177 -0.6178  0.0255
  645MOL0     H87070   2.199   5.354  11.787 -0.4656 -0.6672 -1.6574
  645MOL0     H87071   2.382   5.277  12.029 -0.3828  0.2006  0.5661
  645MOL0     H87072   2.222   5.357  12.047 -1.4243 -1.9046 -1.2236
  645MOL0     H87073   2.422   5.702  11.943  0.6364 -0.3175 -0.2115
  645MOL0     H87074   2.239   4.971  11.432  2.3970  3.9701  3.0189
  645MOL0     H87075   2.032   4.896  11.326  1.9216  1.4195 -0.1512
  646MOL0     O87076   7.448   0.310   0.696  0.0718  0.1507  1.0054
  646MOL0     C87077   7.425   0.248   0.590 -0.3922  0.0868  0.7246
  646MOL0     O87078   7.309   0.252   0.518  0.0851  0.5287  0.0464
  646MOL0     C87079   7.225   0.359   0.546  0.5933  1.0678  1.0280
  646MOL0     C87080   7.269   0.490   0.530  0.0318  0.7879  1.3149
  646MOL0     C87081   7.179   0.604   0.542  0.7688  0.0352 -0.3177
  646MOL0     C87082   7.049   0.580   0.590  0.5406 -0.3545 -0.4982
  646MOL0     O87083   6.953   0.677   0.615  0.6718  0.5297  0.7136
  646MOL0     C87084   6.973   0.802   0.547  0.6497  0.3628 -0.8751
  646MOL0     C87085   6.910   0.829   0.411 -0.0626  0.3025 -0.7703
  646MOL0     C87086   6.765   0.811   0.412 -0.5759  0.2908 -0.1600
  646MOL0     C87087   6.701   0.947   0.454 -1.1216  0.2351  0.4927
  646MOL0     C87088   6.554   0.917   0.509 -0.3854 -0.3544  0.2220
  646MOL0     C87089   6.450   0.868   0.411  0.2718 -0.0560  0.1448
  646MOL0     C87090   6.391   0.983   0.318  0.0622 -0.0909  0.1531
  646MOL0     C87091   6.290   1.074   0.372  0.4726  0.6497 -0.1496
  646MOL0     N87092   6.174   1.008   0.425  0.6640  0.0865  1.0872
  646MOL0     C87093   6.123   0.997   0.548 -1.9746  0.0954  0.3823
  646MOL0     C87094   6.012   0.931   0.528 -0.2461 -0.4260 -0.0846
  646MOL0     C87095   5.912   0.896   0.634 -0.1411  0.2472  0.2724
  646MOL0     C87096   5.770   0.918   0.586 -0.5702 -0.6148 -0.2583
  646MOL0     C87097   5.668   0.864   0.690 -0.1912 -1.0423  0.1960
  646MOL0     C87098   5.543   0.953   0.684 -0.7743 -0.7415 -0.5408
  646MOL0     O87099   5.496   0.960   0.551  0.1892  0.2854 -0.3406
  646MOL0     C87100   5.377   1.030   0.531  0.5922 -0.1538 -0.2624
  646MOL0     C87101   5.321   1.109   0.629  0.7377  0.1697 -0.7820
  646MOL0     C87102   5.196   1.177   0.610 -0.9067  1.0025 -0.0069
  646MOL0     C87103   5.148   1.258   0.726  0.0002 -0.6246  0.1530
  646MOL0     C87104   5.134   1.164   0.490  0.0010 -1.1130 -0.6866
  646MOL0     C87105   5.008   1.228   0.473  1.3256 -0.2918  0.7509
  646MOL0     O87106   4.904   1.139   0.455  0.5646  0.6687 -0.1608
  646MOL0     C87107   4.780   1.184   0.410 -0.5825 -0.0079  0.5517
  646MOL0     C87108   4.664   1.181   0.484 -0.6383  0.7922 -0.3161
  646MOL0     C87109   4.543   1.208   0.414  0.2811  0.1260 -0.6536
  646MOL0     C87110   4.540   1.222   0.278  1.0317 -0.8483  0.4736
  646MOL0     O87111   4.416   1.246   0.230  0.9211 -0.3128 -0.0115
  646MOL0     C87112   4.398   1.331   0.120  1.3837 -0.6141  0.7189
  646MOL0     C87113   4.289   1.271   0.031 -0.3538 -0.2454 -0.5350
  646MOL0     C87114   4.349   1.156  -0.045 -0.0754  0.2219  0.3775
  646MOL0     C87115   4.240   1.068  -0.117  0.4222  0.3630  0.1768
  646MOL0     C87116   4.301   0.960  -0.207  0.6133  0.5920 -0.0225
  646MOL0     C87117   4.333   1.004  -0.358 -0.1771  1.1247  0.1306
  646MOL0     C87118   4.202   1.019  -0.439 -0.8620 -0.3496 -0.0555
  646MOL0     C87119   4.227   1.107  -0.563  0.0810 -0.1937  1.0094
  646MOL0    Cl87120   4.101   1.070  -0.686 -0.0613 -0.2847 -0.2287
  646MOL0     C87121   4.659   1.226   0.203  0.4629 -0.0238 -0.3238
  646MOL0     C87122   4.776   1.225   0.273  0.0734  0.5539 -1.0424
  646MOL0     O87123   5.002   1.346   0.452 -0.1692 -0.5379  0.2274
  646MOL0     C87124   5.197   1.099   0.381  0.5194 -0.1296 -0.1482
  646MOL0     C87125   5.320   1.037   0.400  0.5220 -0.1109 -0.5873
  646MOL0     N87126   5.989   0.901   0.394  0.2225  0.6550 -0.6409
  646MOL0     N87127   6.086   0.958   0.332  0.4861 -0.0553 -0.0483
  646MOL0     C87128   7.015   0.451   0.616 -0.6284  0.1466 -0.5708
  646MOL0     C87129   7.089   0.339   0.583 -0.3862  0.7705  0.2766
  646MOL0     C87130   7.537   0.178   0.527  0.3220 -0.1231  0.0476
  646MOL0     C87131   7.669   0.208   0.553  0.7138  0.3527  0.8216
  646MOL0     C87132   7.780   0.139   0.488  0.7520 -0.3833 -0.0177
  646MOL0     C87133   7.754   0.047   0.393  0.4543 -0.4240  0.5055
  646MOL0     O87134   7.854  -0.016   0.327  0.1241 -0.6773 -1.3562
  646MOL0     C87135   7.927  -0.123   0.399  0.4458 -0.3106 -0.1852
  646MOL0     C87136   8.065  -0.137   0.347  0.0589 -0.3682  0.3916
  646MOL0     C87137   8.153  -0.028   0.414 -0.2262 -0.0610  0.6979
  646MOL0     C87138   8.295  -0.069   0.428 -0.6201 -0.0566  0.1569
  646MOL0     C87139   8.376  -0.070   0.304 -0.3982 -0.7178  0.1519
  646MOL0     C87140   8.455  -0.060   0.210 -0.2443  1.1179 -0.1478
  646MOL0     C87141   7.621   0.011   0.364  0.0591  0.5875  0.0451
  646MOL0     C87142   7.514   0.082   0.418 -0.6302  0.5326 -1.1211
  646MOL0     H87143   7.374   0.499   0.503 -0.3910  0.0850 -0.7240
  646MOL0     H87144   7.222   0.700   0.513 -1.7601  1.8035  1.3460
  646MOL0     H87145   6.933   0.884   0.608  1.4050  2.5803 -3.1896
  646MOL0     H87146   7.078   0.834   0.546  0.7391  0.0673 -1.4858
  646MOL0     H87147   6.926   0.935   0.386 -1.5043  0.3984 -1.3628
  646MOL0     H87148   6.958   0.772   0.331  1.2444  2.0216 -1.2816
  646MOL0     H87149   6.749   0.790   0.306  0.6988  3.3377 -1.0614
  646MOL0     H87150   6.734   0.724   0.471  1.9997  1.0335  2.5602
  646MOL0     H87151   6.766   0.988   0.532  2.5188 -2.6847 -0.7759
  646MOL0     H87152   6.700   1.011   0.366  0.1873 -0.4739 -0.0631
  646MOL0     H87153   6.565   0.857   0.599 -0.9149  1.8995  1.8937
  646MOL0     H87154   6.504   1.008   0.544 -0.3784 -0.2761  0.0289
  646MOL0     H87155   6.489   0.795   0.340  0.5940  2.1143 -2.0611
  646MOL0     H87156   6.371   0.825   0.473 -1.1104  1.0808 -0.7423
  646MOL0     H87157   6.476   1.047   0.295  0.5160 -0.5120  0.6372
  646MOL0     H87158   6.357   0.945   0.221 -2.1118  0.9620  0.4281
  646MOL0     H87159   6.263   1.145   0.293 -0.5679  3.8656  2.8474
  646MOL0     H87160   6.328   1.129   0.458 -0.8007 -0.3774  1.1257
  646MOL0     H87161   6.161   1.046   0.637 -1.6144  4.1976 -1.7724
  646MOL0     H87162   5.925   0.792   0.666  1.1642  1.3488  3.8313
  646MOL0     H87163   5.943   0.954   0.721 -0.5574  0.3691  0.3386
  646MOL0     H87164   5.760   0.867   0.489 -1.8112 -0.0130 -0.4567
  646MOL0     H87165   5.749   1.024   0.573  1.8622 -0.0190  0.2174
  646MOL0     H87166   5.708   0.857   0.792  2.2089  1.8956 -0.4142
  646MOL0     H87167   5.634   0.762   0.667 -4.4180  0.4916 -1.4011
  646MOL0     H87168   5.563   1.054   0.722 -2.0604 -0.4218 -0.6425
  646MOL0     H87169   5.459   0.914   0.742 -3.2891  1.5024 -2.4034
  646MOL0     H87170   5.366   1.123   0.727  0.6528 -0.3263 -0.6712
  646MOL0     H87171   5.204   1.232   0.816 -1.7851 -3.3772  0.6187
  646MOL0     H87172   5.162   1.364   0.705  0.5586 -0.2359  2.2074
  646MOL0     H87173   5.041   1.236   0.736 -0.3276 -0.1938 -2.0263
  646MOL0     H87174   4.662   1.135   0.582  0.1777 -2.4761 -1.7079
  646MOL0     H87175   4.449   1.228   0.464  0.4131  2.9119 -1.3109
  646MOL0     H87176   4.367   1.426   0.165  1.0696 -0.7204  0.7304
  646MOL0     H87177   4.479   1.358   0.052  0.1472  1.3617 -0.0597
  646MOL0     H87178   4.202   1.245   0.092 -0.4087 -2.0603 -1.3366
  646MOL0     H87179   4.256   1.344  -0.044 -1.1624 -0.9383 -0.8713
  646MOL0     H87180   4.403   1.090   0.022  0.2054 -0.6087 -0.6454
  646MOL0     H87181   4.424   1.196  -0.114  2.8648 -3.4749  1.1352
  646MOL0     H87182   4.180   1.010  -0.046 -0.7558  0.5825 -0.6049
  646MOL0     H87183   4.168   1.123  -0.179 -0.3772  0.9357  1.5530
  646MOL0     H87184   4.222   0.885  -0.203  1.0312  0.1898  1.3725
  646MOL0     H87185   4.387   0.925  -0.149 -0.7535  2.3100  3.3074
  646MOL0     H87186   4.399   1.091  -0.366 -0.7883  1.4702 -1.4324
  646MOL0     H87187   4.398   0.928  -0.403 -0.9915  0.5406 -0.0800
  646MOL0     H87188   4.117   1.053  -0.379 -0.9082 -0.4342 -0.0728
  646MOL0     H87189   4.170   0.917  -0.461 -0.0230 -1.3826  2.9220
  646MOL0     H87190   4.319   1.083  -0.616  1.0049 -1.6171  3.1504
  646MOL0     H87191   4.215   1.215  -0.548 -0.7139 -0.2573  0.8708
  646MOL0     H87192   4.666   1.237   0.095 -1.6759 -1.0810 -0.6216
  646MOL0     H87193   4.876   1.229   0.232  1.5076 -0.1816  2.1155
  646MOL0     H87194   5.154   1.082   0.282  1.9081  0.2747 -0.8525
  646MOL0     H87195   5.379   0.994   0.320  1.4291 -1.3715  0.7107
  646MOL0     H87196   6.915   0.450   0.660  0.5330 -1.1219  2.3061
  646MOL0     H87197   7.050   0.239   0.600  3.8134 -0.8767  1.3665
  646MOL0     H87198   7.684   0.293   0.619 -2.6057 -0.2932  2.6726
  646MOL0     H87199   7.881   0.158   0.522  2.4142  0.2834 -4.7200
  646MOL0     H87200   7.929  -0.104   0.507  0.2922 -1.0888 -0.0426
  646MOL0     H87201   7.878  -0.216   0.367 -2.0975  1.2107 -1.0961
  646MOL0     H87202   8.053  -0.126   0.239 -3.5017  1.1632  0.8184
  646MOL0     H87203   8.107  -0.232   0.379 -1.0934 -0.4871  1.6254
  646MOL0     H87204   8.108  -0.013   0.513 -1.1517 -1.5735  0.5492
  646MOL0     H87205   8.144   0.058   0.348 -1.9082 -2.7191 -2.8902
  646MOL0     H87206   8.313  -0.166   0.476 -0.1667 -0.1290 -0.1471
  646MOL0     H87207   8.339   0.009   0.490  0.2334 -0.6085  0.2703
  646MOL0     H87208   8.515  -0.043   0.123 -0.1657 -0.1624 -0.3732
  646MOL0     H87209   7.591  -0.079   0.312  3.2778 -1.7377  1.8383
  646MOL0     H87210   7.415   0.050   0.388 -1.2242  0.2629  0.9517
  647MOL0     O87211   7.820   8.275  10.029 -1.1967  1.8682 -0.3613
  647MOL0     C87212   7.914   8.360  10.046  0.3670  0.0667  1.0695
  647MOL0     O87213   7.899   8.495  10.080  0.4615  0.1026  0.8479
  647MOL0     C87214   7.768   8.531  10.105 -0.3637  0.6580  0.0205
  647MOL0     C87215   7.710   8.613  10.016 -0.0896 -0.2550 -0.7313
  647MOL0     C87216   7.581   8.649  10.024 -0.4176  0.0607 -0.0818
  647MOL0     C87217   7.502   8.595  10.124  0.0428 -0.3908 -0.3544
  647MOL0     O87218   7.382   8.650  10.139 -0.0661 -0.4548  0.5498
  647MOL0     C87219   7.282   8.597  10.219  0.0308  0.3600 -1.0376
  647MOL0     C87220   7.210   8.465  10.179  0.8951  0.7979  0.4543
  647MOL0     C87221   7.102   8.476  10.068 -0.5591  0.6904 -0.0118
  647MOL0     C87222   7.031   8.341  10.035  0.8254 -0.2697 -0.3649
  647MOL0     C87223   6.879   8.366  10.015 -0.4162 -0.0011  0.7143
  647MOL0     C87224   6.831   8.422   9.877  0.1576  0.4616  0.8417
  647MOL0     C87225   6.677   8.427   9.874 -0.6183 -0.6725 -1.1991
  647MOL0     C87226   6.628   8.492   9.755 -0.0551  0.5615  1.2841
  647MOL0     N87227   6.614   8.403   9.634  0.3802 -0.3131  0.8702
  647MOL0     C87228   6.572   8.271   9.636 -0.2631 -0.7887 -0.2614
  647MOL0     C87229   6.548   8.245   9.508 -0.3082 -0.0919  0.2307
  647MOL0     C87230   6.485   8.121   9.452 -0.5352 -0.1526  0.0019
  647MOL0     C87231   6.356   8.091   9.531 -0.1863  1.1653 -0.3090
  647MOL0     C87232   6.260   8.219   9.548 -0.4906  0.4949  0.1071
  647MOL0     C87233   6.114   8.180   9.574  0.5053  0.3198 -0.1226
  647MOL0     O87234   6.026   8.294   9.568 -0.5081  0.2361  0.3337
  647MOL0     C87235   5.896   8.252   9.541  0.1671 -0.1003  1.1703
  647MOL0     C87236   5.785   8.258   9.627 -0.2329  0.2917 -0.2978
  647MOL0     C87237   5.655   8.250   9.587  0.3710  0.1142  0.6902
  647MOL0     C87238   5.558   8.285   9.702  0.1800 -0.3892 -0.1882
  647MOL0     C87239   5.626   8.219   9.452  0.8328 -0.0200 -0.5482
  647MOL0     C87240   5.483   8.193   9.404 -0.4494  0.0566  0.2271
  647MOL0     O87241   5.471   8.162   9.272  0.3911  0.0799 -0.0275
  647MOL0     C87242   5.363   8.082   9.243 -0.1999 -1.0040 -0.6050
  647MOL0     C87243   5.278   8.122   9.131  0.1994 -0.4995 -0.1311
  647MOL0     C87244   5.175   8.041   9.093 -0.0786  0.0900 -1.0724
  647MOL0     C87245   5.147   7.919   9.157 -1.4673  0.3939 -0.1540
  647MOL0     O87246   5.045   7.838   9.109  0.4664  0.1508 -0.0674
  647MOL0     C87247   4.922   7.909   9.080 -0.7485 -0.3271 -0.0759
  647MOL0     C87248   4.849   7.969   9.201  0.0741  0.7601  0.1777
  647MOL0     C87249   4.726   8.029   9.147 -0.2470 -0.0459 -0.7468
  647MOL0     C87250   4.641   8.075   9.269 -1.3054 -1.0599  1.0102
  647MOL0     C87251   4.562   8.204   9.241 -0.9468  0.0066  0.3264
  647MOL0     C87252   4.501   8.272   9.363  0.1600 -0.4230 -0.0445
  647MOL0     C87253   4.375   8.202   9.390  0.6218  0.9618 -0.5492
  647MOL0     C87254   4.265   8.260   9.295  0.0342  0.8176 -0.9269
  647MOL0    Cl87255   4.113   8.208   9.370  0.2372  0.0786 -0.2867
  647MOL0     C87256   5.234   7.864   9.252 -0.7338 -0.0406  0.4499
  647MOL0     C87257   5.344   7.949   9.285 -0.0776  0.4716  0.0955
  647MOL0     O87258   5.388   8.184   9.488  0.6104  0.2754  0.7176
  647MOL0     C87259   5.737   8.204   9.364  0.1208 -0.3164  0.2318
  647MOL0     C87260   5.866   8.222   9.407 -0.7335 -0.1427 -0.1506
  647MOL0     N87261   6.586   8.358   9.434  0.2638  0.3887  0.2288
  647MOL0     N87262   6.618   8.454   9.506  0.0803  0.1595 -0.1246
  647MOL0     C87263   7.557   8.511  10.218  0.6549 -1.0205 -0.2664
  647MOL0     C87264   7.682   8.473  10.205  0.1333 -0.1735  1.3192
  647MOL0     C87265   8.060   8.308  10.021 -0.1557 -0.2448  0.5384
  647MOL0     C87266   8.151   8.411  10.013  0.3955 -0.6949 -1.2593
  647MOL0     C87267   8.285   8.378  10.010  1.0692 -0.4357 -0.9937
  647MOL0     C87268   8.334   8.243  10.012  0.1476  0.7332  1.5752
  647MOL0     O87269   8.467   8.204  10.015 -0.0751  0.1350  0.1868
  647MOL0     C87270   8.563   8.308  10.006 -1.4552 -0.0822  0.2405
  647MOL0     C87271   8.712   8.248  10.002 -0.1949 -0.6027 -0.1640
  647MOL0     C87272   8.732   8.170   9.877 -0.3513  0.0452  0.7557
  647MOL0     C87273   8.841   8.056   9.888  0.5839 -0.1393 -0.9778
  647MOL0     C87274   8.972   8.122   9.928  0.0757 -0.4348 -0.0994
  647MOL0     C87275   9.082   8.167   9.934  0.0300  0.0637  0.2563
  647MOL0     C87276   8.242   8.144  10.009 -0.0444  0.3152  0.3578
  647MOL0     C87277   8.100   8.174  10.005  0.7423 -0.8406 -0.2536
  647MOL0     H87278   7.771   8.665   9.944 -2.3083  0.5058 -2.1784
  647MOL0     H87279   7.543   8.731   9.964 -5.4294 -1.7820  0.0480
  647MOL0     H87280   7.317   8.589  10.322 -2.5462  2.7241  0.1612
  647MOL0     H87281   7.205   8.672  10.238 -1.4435 -1.4773  0.7817
  647MOL0     H87282   7.281   8.393  10.138  0.1031 -0.2257  0.8384
  647MOL0     H87283   7.166   8.422  10.269  3.1438 -0.2560  1.1313
  647MOL0     H87284   7.026   8.550  10.095 -0.9149 -0.5977  2.9241
  647MOL0     H87285   7.159   8.505   9.979 -1.4802  1.5464 -0.3475
  647MOL0     H87286   7.061   8.291   9.943 -0.1177  2.1486 -2.1126
  647MOL0     H87287   7.039   8.274  10.121 -2.2863  0.2017  0.4312
  647MOL0     H87288   6.840   8.264  10.020  2.2444 -1.1480 -0.1701
  647MOL0     H87289   6.839   8.423  10.100  1.6418 -0.3397  1.9696
  647MOL0     H87290   6.871   8.523   9.869 -1.6100  1.1678  0.2181
  647MOL0     H87291   6.866   8.349   9.803 -3.4144 -1.0772  0.4631
  647MOL0     H87292   6.635   8.326   9.873  0.5319 -1.2173  0.5683
  647MOL0     H87293   6.638   8.469   9.967 -0.5913 -1.8456 -0.6311
  647MOL0     H87294   6.695   8.569   9.716 -0.6458  0.8411  0.7927
  647MOL0     H87295   6.524   8.524   9.770 -0.6510  0.2873 -1.6568
  647MOL0     H87296   6.555   8.210   9.724 -0.5727 -0.0841  0.1736
  647MOL0     H87297   6.468   8.140   9.346 -0.9399  0.0187  0.0927
  647MOL0     H87298   6.554   8.036   9.461 -1.8789 -1.2268  0.5139
  647MOL0     H87299   6.402   8.046   9.619 -1.8149 -0.4888 -0.2488
  647MOL0     H87300   6.306   8.010   9.477 -0.3050  0.6103  0.6218
  647MOL0     H87301   6.250   8.277   9.456  0.4031 -1.3234 -1.1931
  647MOL0     H87302   6.295   8.291   9.623  0.0584  2.5395 -2.0053
  647MOL0     H87303   6.098   8.124   9.667 -0.0979  1.4264  0.4666
  647MOL0     H87304   6.093   8.120   9.485 -2.1494  2.3000 -0.9707
  647MOL0     H87305   5.797   8.297   9.727 -0.0359 -2.1468  0.6992
  647MOL0     H87306   5.507   8.213   9.766 -1.0064  0.9974  0.4916
  647MOL0     H87307   5.608   8.359   9.766 -1.8541 -0.5608  1.7162
  647MOL0     H87308   5.472   8.340   9.662  1.8497  1.4907 -1.4327
  647MOL0     H87309   5.298   8.215   9.079  2.5730 -1.9003 -1.9295
  647MOL0     H87310   5.128   8.077   9.001  3.2307  1.9102 -2.2293
  647MOL0     H87311   4.942   7.996   9.017  2.4039  0.8914  2.3836
  647MOL0     H87312   4.853   7.838   9.032  0.1926 -2.7098  1.8494
  647MOL0     H87313   4.819   7.896   9.277 -0.1560  2.5385  1.8692
  647MOL0     H87314   4.900   8.053   9.248  1.2937 -0.5905  1.3656
  647MOL0     H87315   4.670   7.955   9.089  1.5414 -0.0007 -2.6461
  647MOL0     H87316   4.752   8.119   9.090  0.4244 -0.4845 -1.1425
  647MOL0     H87317   4.573   7.992   9.292 -2.1467 -0.1582  1.9060
  647MOL0     H87318   4.705   8.104   9.353 -1.0018 -0.1409  0.4770
  647MOL0     H87319   4.499   8.200   9.151 -0.5769  0.7245  0.0299
  647MOL0     H87320   4.647   8.268   9.216 -1.3912  2.4834  4.2227
  647MOL0     H87321   4.576   8.272   9.443 -1.7069  3.7272  2.0444
  647MOL0     H87322   4.488   8.380   9.345 -2.7275 -0.7974 -0.7442
  647MOL0     H87323   4.350   8.225   9.494  0.2510 -2.2616  0.1685
  647MOL0     H87324   4.375   8.093   9.394  0.0055  0.8679 -2.2901
  647MOL0     H87325   4.274   8.224   9.193 -0.5351  1.9312 -1.3904
  647MOL0     H87326   4.263   8.369   9.290 -0.6874  1.1850  3.2100
  647MOL0     H87327   5.215   7.761   9.281  0.7537 -0.3718  0.3130
  647MOL0     H87328   5.416   7.910   9.356 -2.0065 -2.5041  0.5930
  647MOL0     H87329   5.709   8.187   9.261 -2.0154  0.2655  0.6722
  647MOL0     H87330   5.947   8.220   9.335 -0.1828 -0.1150  0.4658
  647MOL0     H87331   7.496   8.467  10.297  0.4668 -2.0334 -0.9648
  647MOL0     H87332   7.714   8.401  10.279 -0.6640 -0.6423  1.2225
  647MOL0     H87333   8.118   8.513  10.028  0.9501 -0.8210  1.2153
  647MOL0     H87334   8.348   8.465  10.024  0.6896  0.2778 -3.2924
  647MOL0     H87335   8.561   8.370   9.916  3.2392  1.8933  1.1588
  647MOL0     H87336   8.554   8.367  10.098  0.5273 -0.2208  0.5808
  647MOL0     H87337   8.736   8.182  10.086  3.3062 -1.5187 -1.7097
  647MOL0     H87338   8.785   8.330  10.004 -0.7525 -0.0988 -0.2164
  647MOL0     H87339   8.754   8.231   9.789 -3.0394  0.0674  0.0348
  647MOL0     H87340   8.636   8.119   9.863 -0.2971 -0.3087  1.6507
  647MOL0     H87341   8.854   8.010   9.789  2.1431 -1.4435 -0.2137
  647MOL0     H87342   8.809   7.986   9.965 -2.1707  0.2559 -1.6613
  647MOL0     H87343   9.184   8.199   9.927 -0.6472  1.9215 -2.8252
  647MOL0     H87344   8.271   8.040   9.999 -0.9942  0.0880 -0.1729
  647MOL0     H87345   8.023   8.097  10.007 -0.0588 -0.0375  0.7056
  648MOL0     O87346   1.037   9.274   8.704 -0.7044 -0.1582 -0.0672
  648MOL0     C87347   0.982   9.174   8.662 -1.3717 -0.1835  0.4247
  648MOL0     O87348   0.850   9.146   8.661 -0.0188  0.0462  0.5485
  648MOL0     C87349   0.762   9.224   8.747 -0.4062  0.2436  0.2804
  648MOL0     C87350   0.631   9.222   8.709  0.0211 -0.2577 -0.2539
  648MOL0     C87351   0.526   9.273   8.795  0.3535 -0.3154  0.0694
  648MOL0     C87352   0.557   9.312   8.920  0.2152  0.2219  0.5231
  648MOL0     O87353   0.465   9.367   9.007 -0.6247  0.2262  0.8736
  648MOL0     C87354   0.325   9.345   8.987  0.7239  0.7935  0.5562
  648MOL0     C87355   0.245   9.416   9.095 -0.3591 -0.6251  0.0061
  648MOL0     C87356   0.091   9.399   9.094  0.6457  0.4638  0.2276
  648MOL0     C87357   0.036   9.415   8.945 -0.5690  0.3479 -0.3283
  648MOL0     C87358  -0.110   9.450   8.936  0.0376 -0.4280  0.5067
  648MOL0     C87359  -0.203   9.351   9.004  0.1413 -0.1281  0.1013
  648MOL0     C87360  -0.350   9.373   8.989  0.9378  0.1957  0.2761
  648MOL0     C87361  -0.397   9.513   9.045 -0.0099 -0.5364  0.4046
  648MOL0     N87362  -0.538   9.504   9.070 -0.3271 -0.5799 -1.0138
  648MOL0     C87363  -0.595   9.515   9.193 -0.1883  0.5399 -0.4717
  648MOL0     C87364  -0.724   9.518   9.173  0.1113  0.6062 -0.8791
  648MOL0     C87365  -0.822   9.502   9.279  0.3335  0.2959  0.0019
  648MOL0     C87366  -0.955   9.582   9.275  0.1240 -0.6642  0.3093
  648MOL0     C87367  -1.055   9.528   9.169 -0.1619 -0.0019 -0.1852
  648MOL0     C87368  -1.195   9.598   9.174 -0.5938  0.0826  0.6051
  648MOL0     O87369  -1.281   9.513   9.101  0.5445 -0.6804  0.3183
  648MOL0     C87370  -1.406   9.554   9.063  0.3497 -0.1856  0.0630
  648MOL0     C87371  -1.482   9.456   8.995  0.7614  0.3013  0.1606
  648MOL0     C87372  -1.619   9.491   8.960 -0.1352 -0.1866  0.7011
  648MOL0     C87373  -1.697   9.381   8.901  0.2819  0.5836  0.5800
  648MOL0     C87374  -1.670   9.625   8.985 -0.8330 -0.0899  0.7468
  648MOL0     C87375  -1.802   9.668   8.938 -0.3042 -0.0875  0.2969
  648MOL0     O87376  -1.899   9.573   8.906 -0.1790 -0.7540  0.2285
  648MOL0     C87377  -2.028   9.623   8.877  0.0208 -0.1872  0.2416
  648MOL0     C87378  -2.137   9.597   8.960  0.4544 -0.7565 -0.0384
  648MOL0     C87379  -2.263   9.633   8.910  0.4774 -0.2279  0.0537
  648MOL0     C87380  -2.280   9.687   8.785  0.2061  0.3850 -0.8220
  648MOL0     O87381  -2.411   9.699   8.745 -0.3373  0.5579  0.8792
  648MOL0     C87382  -2.445   9.717   8.603  0.1733 -0.2282 -0.0680
  648MOL0     C87383  -2.597   9.693   8.577 -0.4294 -0.0303 -0.7462
  648MOL0     C87384  -2.629   9.762   8.447  0.6930  0.1047 -0.1165
  648MOL0     C87385  -2.774   9.743   8.384 -1.0736 -0.3271  0.0292
  648MOL0     C87386  -2.764   9.823   8.253  0.2715 -0.5953  0.0790
  648MOL0     C87387  -2.904   9.866   8.208 -0.4732 -0.8067  0.5818
  648MOL0     C87388  -2.965   9.743   8.132  0.0199  0.7238  0.3112
  648MOL0     C87389  -3.122   9.781   8.126  1.4390  0.6568 -0.6705
  648MOL0    Cl87390  -3.165   9.899   7.999  0.2780 -0.0106 -0.1031
  648MOL0     C87391  -2.175   9.722   8.711 -0.3240 -0.4972  1.3828
  648MOL0     C87392  -2.043   9.697   8.762 -0.1629 -0.0784  0.4268
  648MOL0     O87393  -1.820   9.787   8.943 -0.3322  0.4899 -0.2717
  648MOL0     C87394  -1.581   9.721   9.036  0.1536 -0.4795 -0.5591
  648MOL0     C87395  -1.458   9.685   9.087 -0.3526 -0.0397  0.0077
  648MOL0     N87396  -0.753   9.524   9.040  0.4368  0.3129 -0.9775
  648MOL0     N87397  -0.637   9.516   8.978 -0.2032 -0.1527  0.6168
  648MOL0     C87398   0.693   9.301   8.958  0.9439  0.3927 -0.3735
  648MOL0     C87399   0.793   9.275   8.869  0.0788  0.4783 -0.9290
  648MOL0     C87400   1.066   9.063   8.622  0.4983 -0.1923  0.8816
  648MOL0     C87401   1.011   8.944   8.567  0.1656  0.4290 -0.3067
  648MOL0     C87402   1.088   8.832   8.536 -0.4935  0.6862  0.4223
  648MOL0     C87403   1.225   8.834   8.566 -0.2508 -1.3243 -0.1579
  648MOL0     O87404   1.294   8.724   8.547 -0.3264  0.2811  0.5020
  648MOL0     C87405   1.428   8.747   8.510 -0.1326  0.3527 -0.0809
  648MOL0     C87406   1.533   8.722   8.624 -0.4157 -0.0453 -0.4878
  648MOL0     C87407   1.668   8.668   8.585 -0.9913 -0.9079 -0.2809
  648MOL0     C87408   1.742   8.773   8.492 -0.2912  0.6392 -0.0180
  648MOL0     C87409   1.883   8.729   8.469 -0.7859  0.4032 -0.0639
  648MOL0     C87410   2.003   8.715   8.455 -0.4492 -0.4899 -0.3096
  648MOL0     C87411   1.279   8.945   8.635  0.0514  0.0656  0.2647
  648MOL0     C87412   1.200   9.062   8.660  0.1137  1.0087 -0.2420
  648MOL0     H87413   0.611   9.187   8.609  2.0386 -2.4963  0.0277
  648MOL0     H87414   0.426   9.280   8.755  1.1842 -2.2041 -2.6753
  648MOL0     H87415   0.293   9.376   8.887  0.1001 -2.0346 -0.2075
  648MOL0     H87416   0.302   9.238   8.981  1.1402  0.6913  0.7005
  648MOL0     H87417   0.282   9.381   9.192  1.9581 -1.4948 -1.1264
  648MOL0     H87418   0.269   9.521   9.076  1.4766 -0.9672  0.2403
  648MOL0     H87419   0.082   9.295   9.124 -0.0336  0.3964 -0.1957
  648MOL0     H87420   0.043   9.459   9.171 -0.7629 -2.4103  1.7307
  648MOL0     H87421   0.082   9.500   8.895 -1.3472  0.1896 -1.3339
  648MOL0     H87422   0.051   9.325   8.885 -2.2595 -1.7080  2.1055
  648MOL0     H87423  -0.118   9.547   8.986  3.0455 -0.1909  0.7063
  648MOL0     H87424  -0.147   9.458   8.834 -0.3679  0.4152  0.7105
  648MOL0     H87425  -0.178   9.256   8.955  1.1578 -1.5515  3.0815
  648MOL0     H87426  -0.175   9.333   9.109 -0.8402 -0.1795  0.3624
  648MOL0     H87427  -0.373   9.379   8.883 -0.8938  0.3699  0.6562
  648MOL0     H87428  -0.412   9.294   9.032  0.5540  0.4177  0.1319
  648MOL0     H87429  -0.383   9.577   8.957  0.5045 -0.7928  0.2956
  648MOL0     H87430  -0.340   9.546   9.132  1.4279  0.0172 -0.7033
  648MOL0     H87431  -0.549   9.499   9.290 -0.5837  1.8196 -0.0610
  648MOL0     H87432  -0.843   9.395   9.292  1.0010  0.4695  3.5143
  648MOL0     H87433  -0.767   9.513   9.373  1.1406 -1.0392 -0.2964
  648MOL0     H87434  -0.936   9.685   9.245 -3.2493  0.0951  0.3473
  648MOL0     H87435  -0.998   9.582   9.375 -0.3292 -0.9359  0.1181
  648MOL0     H87436  -1.064   9.423   9.198  0.1511  0.5010  1.9064
  648MOL0     H87437  -1.008   9.536   9.071 -0.8421 -2.0320 -0.7104
  648MOL0     H87438  -1.196   9.703   9.143 -2.6951  0.4152  1.6419
  648MOL0     H87439  -1.221   9.612   9.279  1.9844  4.1451  0.9238
  648MOL0     H87440  -1.447   9.354   8.982  0.9121  0.3255  0.3721
  648MOL0     H87441  -1.633   9.295   8.881 -2.4888 -0.9953 -2.2828
  648MOL0     H87442  -1.771   9.345   8.973 -0.0440 -0.6430 -0.3415
  648MOL0     H87443  -1.749   9.403   8.808  3.6907 -0.7139 -1.7968
  648MOL0     H87444  -2.128   9.522   9.038  0.6756  0.2229  0.8967
  648MOL0     H87445  -2.353   9.607   8.965 -0.1193 -1.9566 -1.6301
  648MOL0     H87446  -2.421   9.815   8.560 -1.9129 -0.4233 -1.8664
  648MOL0     H87447  -2.387   9.644   8.546 -1.7592 -0.6632 -1.6036
  648MOL0     H87448  -2.616   9.585   8.573  1.2293 -0.4346  0.6444
  648MOL0     H87449  -2.655   9.734   8.660  1.5940  1.6506 -0.0711
  648MOL0     H87450  -2.543   9.754   8.380  2.3725  0.4309  1.8998
  648MOL0     H87451  -2.634   9.867   8.477 -2.2715  0.9389 -2.9051
  648MOL0     H87452  -2.785   9.636   8.364  1.2587 -0.8498  1.1163
  648MOL0     H87453  -2.851   9.766   8.458 -0.9485  2.7383 -0.6592
  648MOL0     H87454  -2.718   9.768   8.171 -3.3341 -2.2237 -1.0781
  648MOL0     H87455  -2.704   9.911   8.275 -2.5677  0.9131  2.6806
  648MOL0     H87456  -2.966   9.891   8.294  1.0867  1.4759  1.1634
  648MOL0     H87457  -2.899   9.950   8.138 -3.2101 -1.5451 -0.6292
  648MOL0     H87458  -2.936   9.652   8.186  0.9663  0.2532 -0.9550
  648MOL0     H87459  -2.922   9.732   8.033  1.0622 -1.6810  0.9651
  648MOL0     H87460  -3.155   9.820   8.222  2.9632  0.8907 -0.2111
  648MOL0     H87461  -3.182   9.691   8.111  1.9211  0.4278 -1.2971
  648MOL0     H87462  -2.185   9.753   8.608  1.3508 -1.0845  1.0013
  648MOL0     H87463  -1.958   9.728   8.702  1.6713 -0.9665  2.4272
  648MOL0     H87464  -1.612   9.821   9.065  0.5210 -0.5748  0.2051
  648MOL0     H87465  -1.406   9.761   9.144  1.2651 -0.0866 -1.3215
  648MOL0     H87466   0.713   9.336   9.059 -2.0589  1.2442  0.0278
  648MOL0     H87467   0.899   9.285   8.891  0.2238 -1.2635 -0.7095
  648MOL0     H87468   0.904   8.926   8.570 -0.0700  1.7971  1.0804
  648MOL0     H87469   1.028   8.758   8.484  1.2187  0.6099 -1.6177
  648MOL0     H87470   1.450   8.686   8.422 -3.5861 -0.2678 -0.6560
  648MOL0     H87471   1.441   8.845   8.462 -4.1252  0.6034 -0.9600
  648MOL0     H87472   1.508   8.639   8.691  1.6233  2.7181  4.2642
  648MOL0     H87473   1.548   8.812   8.684  0.9666  0.4291 -1.4963
  648MOL0     H87474   1.675   8.567   8.541 -1.6012 -1.7313  1.4400
  648MOL0     H87475   1.734   8.669   8.672 -0.2409  3.6472 -0.6494
  648MOL0     H87476   1.752   8.871   8.540  1.0863 -0.3774  1.9309
  648MOL0     H87477   1.686   8.780   8.399  0.5062 -3.6442 -1.0114
  648MOL0     H87478   2.110   8.711   8.446 -0.4611  1.8379 -3.2548
  648MOL0     H87479   1.385   8.942   8.660 -0.6419  0.4234  3.7831
  648MOL0     H87480   1.259   9.146   8.696  0.8708  0.5861 -0.4750
  649MOL0     O87481   3.410   7.149   9.886 -0.2938  0.8522 -1.0102
  649MOL0     C87482   3.459   7.055   9.940 -0.2764  0.0335  0.0311
  649MOL0     O87483   3.395   6.961  10.023 -0.3748 -0.7440  0.6307
  649MOL0     C87484   3.266   6.983  10.040  1.3529  0.3716  0.1959
  649MOL0     C87485   3.166   6.963   9.941  0.5710  0.6352 -0.5213
  649MOL0     C87486   3.029   6.962   9.964  0.2789 -0.5739 -1.3053
  649MOL0     C87487   2.976   6.970  10.097 -0.2900  0.2102 -0.5420
  649MOL0     O87488   2.845   6.953  10.134 -0.8253  0.3475 -0.6009
  649MOL0     C87489   2.749   6.952  10.019 -0.5818 -0.1439 -0.0021
  649MOL0     C87490   2.611   6.949  10.068  0.9281 -0.0323 -0.3282
  649MOL0     C87491   2.566   6.804  10.090  0.1029  0.0264 -0.1002
  649MOL0     C87492   2.421   6.799  10.148  0.0830 -0.0171 -0.1049
  649MOL0     C87493   2.320   6.793  10.029 -0.2518  0.6250  0.5593
  649MOL0     C87494   2.299   6.657   9.971  0.1663  0.3997  0.4002
  649MOL0     C87495   2.161   6.655   9.901  1.0448 -0.1915  0.3706
  649MOL0     C87496   2.122   6.523   9.842  0.3966 -0.1863  0.1147
  649MOL0     N87497   1.988   6.513   9.770  0.5808 -0.6482  0.4530
  649MOL0     C87498   1.875   6.444   9.827 -1.0526  0.1985  0.0366
  649MOL0     C87499   1.794   6.421   9.721  0.1314 -0.4595 -0.0312
  649MOL0     C87500   1.673   6.320   9.718 -0.3709  0.0163  0.4292
  649MOL0     C87501   1.542   6.374   9.642  0.1792 -0.3387 -0.0963
  649MOL0     C87502   1.444   6.254   9.612  0.4774 -0.5147  0.0243
  649MOL0     C87503   1.398   6.184   9.743 -0.0394 -0.0836 -0.9546
  649MOL0     O87504   1.303   6.081   9.699  0.2928  0.7395 -0.5071
  649MOL0     C87505   1.218   6.059   9.809 -0.8093 -0.1255 -0.3274
  649MOL0     C87506   1.258   5.982   9.920 -0.1506 -0.0516  0.1524
  649MOL0     C87507   1.174   5.966  10.035 -0.3792  0.2986 -0.5378
  649MOL0     C87508   1.233   5.887  10.150  1.2141  0.4108  0.3765
  649MOL0     C87509   1.048   6.032  10.033 -0.0563  1.0395  0.0204
  649MOL0     C87510   0.957   6.032  10.154  0.1163  0.7604  0.1792
  649MOL0     O87511   0.945   5.906  10.219 -0.4972 -0.0978  0.0333
  649MOL0     C87512   0.840   5.902  10.308  0.8028 -0.1989 -0.2624
  649MOL0     C87513   0.865   5.935  10.439  0.7328  0.0303 -0.0690
  649MOL0     C87514   0.760   5.926  10.542  0.0790  0.0153  0.3432
  649MOL0     C87515   0.627   5.893  10.501 -0.1866 -0.7743 -0.3337
  649MOL0     O87516   0.521   5.903  10.587  0.8365 -0.0539  0.7417
  649MOL0     C87517   0.535   5.847  10.717 -0.6027 -1.8115  0.0317
  649MOL0     C87518   0.406   5.808  10.783 -0.1695 -0.9887 -0.1183
  649MOL0     C87519   0.338   5.688  10.718  0.1958 -0.0919 -0.3056
  649MOL0     C87520   0.217   5.623  10.804  0.3535  0.5476  0.1024
  649MOL0     C87521   0.103   5.720  10.838 -0.4210 -0.1993  0.3611
  649MOL0     C87522  -0.018   5.652  10.903 -0.0096 -0.0906 -0.0107
  649MOL0     C87523  -0.131   5.754  10.949  0.1635 -0.2348 -0.4220
  649MOL0     C87524  -0.232   5.706  11.052 -0.4900  0.3884  0.3737
  649MOL0    Cl87525  -0.236   5.530  11.058  0.1262 -0.7330 -0.2774
  649MOL0     C87526   0.604   5.871  10.358 -0.7139 -0.0216 -0.5487
  649MOL0     C87527   0.709   5.868  10.267  0.5759  0.3162 -0.4147
  649MOL0     O87528   0.895   6.137  10.183 -0.0082 -0.3356 -0.5684
  649MOL0     C87529   1.013   6.107   9.926  1.0045 -0.0877 -0.0415
  649MOL0     C87530   1.096   6.122   9.815  0.0117  0.0406 -0.1846
  649MOL0     N87531   1.856   6.463   9.602  0.1445  0.2383  0.1742
  649MOL0     N87532   1.974   6.522   9.638 -0.1644  0.1195 -0.1369
  649MOL0     C87533   3.071   6.989  10.199  0.3630 -0.1000 -0.4527
  649MOL0     C87534   3.211   7.000  10.168 -0.2363 -0.5334 -1.0592
  649MOL0     C87535   3.610   7.046   9.921  0.1234 -0.2010  0.2248
  649MOL0     C87536   3.679   7.137   9.845 -0.4488 -0.6257  0.5815
  649MOL0     C87537   3.819   7.123   9.826 -0.4309 -0.6135 -0.4143
  649MOL0     C87538   3.886   7.030   9.907  0.8413 -0.1185  0.1526
  649MOL0     O87539   4.023   7.015   9.923 -0.1649  0.2280  0.3517
  649MOL0     C87540   4.099   7.113   9.846 -0.0017 -0.1294 -0.4066
  649MOL0     C87541   4.104   7.256   9.909 -0.0469  0.1825  0.8426
  649MOL0     C87542   4.219   7.269  10.020 -0.7296  0.2645  0.1538
  649MOL0     C87543   4.355   7.263   9.973 -0.1283  0.4555 -0.4522
  649MOL0     C87544   4.385   7.370   9.874 -0.3235 -0.3869 -1.3457
  649MOL0     C87545   4.410   7.442   9.783 -0.4239  0.3810 -0.8180
  649MOL0     C87546   3.822   6.955  10.004 -0.6241 -0.5140 -0.7465
  649MOL0     C87547   3.685   6.962  10.010  0.6485 -0.3021  0.4748
  649MOL0     H87548   3.213   6.953   9.844  3.3481  1.0282  0.6943
  649MOL0     H87549   2.971   6.966   9.873 -0.5071  4.0225 -0.8424
  649MOL0     H87550   2.767   7.037   9.953  1.9194 -2.2129 -2.2305
  649MOL0     H87551   2.770   6.863   9.958  0.9132  0.9230 -1.1338
  649MOL0     H87552   2.597   7.010  10.158  3.1045 -2.2596  1.6514
  649MOL0     H87553   2.549   6.986   9.986  3.2783 -2.0383 -3.2599
  649MOL0     H87554   2.563   6.745   9.998 -0.7965  0.4745 -0.3763
  649MOL0     H87555   2.642   6.753  10.150 -0.2387 -2.2273 -1.4550
  649MOL0     H87556   2.405   6.709  10.207 -0.3075 -0.1282 -0.3764
  649MOL0     H87557   2.405   6.880  10.221  1.8925  2.7179 -2.5200
  649MOL0     H87558   2.223   6.829  10.067 -1.3542 -1.2202 -0.3553
  649MOL0     H87559   2.355   6.854   9.946  1.8393 -3.4381 -1.8091
  649MOL0     H87560   2.380   6.628   9.903  1.2193 -2.6758  2.7413
  649MOL0     H87561   2.295   6.588  10.056 -2.0726  0.8826  0.7402
  649MOL0     H87562   2.086   6.692   9.972  0.4173 -0.0862 -0.3382
  649MOL0     H87563   2.156   6.729   9.821 -0.5429  2.1180  2.4301
  649MOL0     H87564   2.119   6.452   9.926  4.5544  0.5505  1.1158
  649MOL0     H87565   2.209   6.501   9.780 -1.0246 -1.8980 -1.3762
  649MOL0     H87566   1.856   6.414   9.930 -3.3515 -0.0130 -0.3886
  649MOL0     H87567   1.699   6.224   9.673 -1.2063 -2.4144  4.5945
  649MOL0     H87568   1.665   6.299   9.826  2.9868  2.4193  1.2993
  649MOL0     H87569   1.575   6.414   9.545 -3.2933 -1.6276 -1.9946
  649MOL0     H87570   1.500   6.456   9.701 -0.9134 -0.6802 -0.3772
  649MOL0     H87571   1.499   6.179   9.555  1.1778 -0.9174  1.2046
  649MOL0     H87572   1.360   6.293   9.553  0.7528  1.3219  0.7782
  649MOL0     H87573   1.356   6.259   9.810  2.2610 -1.5745  2.3820
  649MOL0     H87574   1.478   6.129   9.793 -1.3573 -0.3502  0.9670
  649MOL0     H87575   1.350   5.925   9.923  0.2181  0.5632  0.7626
  649MOL0     H87576   1.183   5.901  10.246  1.3097 -0.7549  0.6035
  649MOL0     H87577   1.227   5.782  10.122  1.6745 -0.0996  2.0561
  649MOL0     H87578   1.340   5.911  10.144  0.8484  1.7823 -3.4002
  649MOL0     H87579   0.969   5.943  10.467  1.2586 -3.5834 -0.4648
  649MOL0     H87580   0.801   5.940  10.642  0.4396  2.5736 -0.1042
  649MOL0     H87581   0.604   5.762  10.723 -0.9557 -2.1591 -0.6619
  649MOL0     H87582   0.587   5.923  10.776 -0.8636 -0.4647 -1.4067
  649MOL0     H87583   0.430   5.793  10.889  1.1942 -4.0932 -0.7429
  649MOL0     H87584   0.326   5.882  10.783  0.2219 -0.5056 -1.9467
  649MOL0     H87585   0.417   5.618  10.689  0.7169  1.3581 -2.6188
  649MOL0     H87586   0.310   5.723  10.618  3.4485  2.1314 -0.5687
  649MOL0     H87587   0.165   5.545  10.748 -2.2534  3.4934 -1.8884
  649MOL0     H87588   0.263   5.583  10.896 -0.2532 -2.6732 -0.8597
  649MOL0     H87589   0.071   5.779  10.751 -0.0561  3.2686  2.3944
  649MOL0     H87590   0.156   5.791  10.902  1.3563  1.4182 -2.6550
  649MOL0     H87591  -0.044   5.580  10.825 -0.5538 -0.6783  0.7027
  649MOL0     H87592   0.024   5.601  10.990  1.5935 -0.7415 -1.1296
  649MOL0     H87593  -0.169   5.795  10.855  0.3048  0.5790 -0.1256
  649MOL0     H87594  -0.089   5.843  10.996 -0.6216 -0.1702  0.1800
  649MOL0     H87595  -0.332   5.741  11.027  0.8321  1.8899 -3.7617
  649MOL0     H87596  -0.207   5.741  11.153 -2.6557  2.1889  0.3728
  649MOL0     H87597   0.512   5.836  10.312  1.5831 -1.1604 -4.8017
  649MOL0     H87598   0.693   5.831  10.166 -0.5106 -1.7734  0.4475
  649MOL0     H87599   0.929   6.175   9.929  2.6318  1.9937  0.8347
  649MOL0     H87600   1.085   6.187   9.728  1.3853 -1.4001 -1.5001
  649MOL0     H87601   3.031   6.986  10.300 -1.1966  0.2479 -1.0436
  649MOL0     H87602   3.290   7.018  10.240 -1.1979 -0.7897  0.0820
  649MOL0     H87603   3.630   7.199   9.770  1.1413 -3.2909 -2.9636
  649MOL0     H87604   3.875   7.175   9.749  1.6429 -3.0504 -0.6765
  649MOL0     H87605   4.204   7.087   9.830  0.0614  0.0725 -0.3244
  649MOL0     H87606   4.069   7.105   9.741 -2.0608 -1.4026  0.2355
  649MOL0     H87607   4.010   7.269   9.963 -2.1683 -1.4788 -2.1946
  649MOL0     H87608   4.114   7.337   9.836 -1.8898 -1.4298 -1.3660
  649MOL0     H87609   4.207   7.190  10.094 -1.7598 -2.4507 -2.6717
  649MOL0     H87610   4.217   7.371  10.059  1.4479  1.5852 -2.8134
  649MOL0     H87611   4.387   7.166   9.934  2.8087  2.1474 -2.6742
  649MOL0     H87612   4.416   7.276  10.063 -1.6233  2.1912  0.3718
  649MOL0     H87613   4.426   7.508   9.700 -0.4346 -0.2917 -1.3630
  649MOL0     H87614   3.876   6.887  10.070  0.4377 -0.8178 -1.9048
  649MOL0     H87615   3.643   6.911  10.096  3.1499 -0.9268  1.4194
  650MOL0     O87616   3.651   4.364   3.542  0.1625  1.1071 -0.1372
  650MOL0     C87617   3.622   4.418   3.649 -0.4621 -0.5636  0.2005
  650MOL0     O87618   3.496   4.472   3.687  0.3741 -0.1433  0.0036
  650MOL0     C87619   3.390   4.469   3.593 -0.2925  0.7906  0.0864
  650MOL0     C87620   3.394   4.485   3.455 -0.4047  0.0523  0.3093
  650MOL0     C87621   3.281   4.487   3.376 -0.7677  1.1869 -0.3195
  650MOL0     C87622   3.155   4.479   3.442 -0.5506  0.0974 -0.2766
  650MOL0     O87623   3.037   4.462   3.374  0.1197 -0.6761 -0.2019
  650MOL0     C87624   3.016   4.521   3.244 -0.3351  0.1538 -1.1629
  650MOL0     C87625   2.867   4.531   3.210 -0.2793 -0.0260 -0.6128
  650MOL0     C87626   2.846   4.515   3.058 -0.6263 -0.2235 -0.7413
  650MOL0     C87627   2.707   4.536   3.010  0.3494  0.1295 -0.3895
  650MOL0     C87628   2.683   4.485   2.869  0.3050 -0.4108 -0.6963
  650MOL0     C87629   2.527   4.494   2.832 -0.0705  0.2520 -0.0635
  650MOL0     C87630   2.427   4.401   2.909  0.1116 -0.7972 -0.3201
  650MOL0     C87631   2.292   4.417   2.855  0.1916 -0.4166  0.5283
  650MOL0     N87632   2.210   4.308   2.911 -0.5207  0.4762  1.2072
  650MOL0     C87633   2.130   4.218   2.837 -0.2832  0.0311 -0.7121
  650MOL0     C87634   2.061   4.149   2.926 -0.3333 -0.0176  0.3471
  650MOL0     C87635   1.955   4.055   2.901 -0.2304 -0.1769 -0.0059
  650MOL0     C87636   1.856   4.028   3.014 -0.1663  0.7761 -0.1560
  650MOL0     C87637   1.735   4.128   3.026  0.1310 -0.5945  0.2970
  650MOL0     C87638   1.625   4.097   3.124 -1.5425  0.2441  0.1710
  650MOL0     O87639   1.686   4.094   3.257 -0.1425 -0.1108  0.8370
  650MOL0     C87640   1.601   4.052   3.357 -0.3700 -0.6248 -0.1873
  650MOL0     C87641   1.657   4.036   3.486  0.6525 -0.7910  0.5555
  650MOL0     C87642   1.584   3.992   3.597 -0.0434  0.7986  0.1163
  650MOL0     C87643   1.665   3.986   3.725 -0.1534  0.3170  1.9788
  650MOL0     C87644   1.453   3.970   3.580 -0.4931  0.3960  0.0693
  650MOL0     C87645   1.361   3.929   3.690  0.0230  0.1620  0.9365
  650MOL0     O87646   1.253   3.858   3.639  0.2983 -0.1022 -0.4006
  650MOL0     C87647   1.150   3.826   3.719  0.1126  0.1451 -0.9861
  650MOL0     C87648   1.023   3.852   3.676  0.2284  0.2576 -0.0342
  650MOL0     C87649   0.912   3.794   3.735 -0.3918 -0.1774 -0.4645
  650MOL0     C87650   0.925   3.730   3.858 -0.0676 -0.8038  0.1692
  650MOL0     O87651   0.808   3.690   3.902 -0.1300 -0.3892 -0.5441
  650MOL0     C87652   0.794   3.651   4.042 -0.1185  0.9234  0.8745
  650MOL0     C87653   0.644   3.613   4.068  0.1483  0.3604 -1.1918
  650MOL0     C87654   0.549   3.719   4.036  0.6743 -0.9148  1.4915
  650MOL0     C87655   0.399   3.664   4.057  0.4757 -0.4573  0.4276
  650MOL0     C87656   0.297   3.753   3.999 -0.3436 -0.8921 -0.2569
  650MOL0     C87657   0.270   3.712   3.857  0.2207 -0.0499 -0.3124
  650MOL0     C87658   0.191   3.822   3.786 -0.0255 -0.9056 -0.8435
  650MOL0     C87659   0.140   3.783   3.645 -0.3869  0.8568 -0.9442
  650MOL0    Cl87660   0.029   3.901   3.570  0.0248 -0.2161  0.1383
  650MOL0     C87661   1.055   3.714   3.915 -0.0330 -0.8312 -0.0689
  650MOL0     C87662   1.164   3.762   3.839 -0.6630  0.1072  1.1562
  650MOL0     O87663   1.379   3.968   3.801 -0.1287 -0.5727 -0.6203
  650MOL0     C87664   1.391   3.986   3.450  0.0234  0.0882  0.2405
  650MOL0     C87665   1.462   4.036   3.344  0.5621 -0.0231 -0.8104
  650MOL0     N87666   2.090   4.197   3.045 -1.0621  0.0811  0.2821
  650MOL0     N87667   2.182   4.294   3.043 -0.0403  0.8892  0.0661
  650MOL0     C87668   3.150   4.452   3.582 -0.2203 -0.9842  0.5144
  650MOL0     C87669   3.266   4.458   3.653 -1.0019  0.7144  0.3531
  650MOL0     C87670   3.722   4.411   3.759 -0.3629 -0.1672 -0.3339
  650MOL0     C87671   3.695   4.469   3.894 -1.0718  0.3464  0.7286
  650MOL0     C87672   3.783   4.457   3.997  1.1137  0.9652 -0.5463
  650MOL0     C87673   3.901   4.394   3.983  0.0393  0.5629 -0.3215
  650MOL0     O87674   3.985   4.395   4.091  0.2195 -0.5652  0.2498
  650MOL0     C87675   4.125   4.377   4.080  0.4773 -1.4227  0.3843
  650MOL0     C87676   4.204   4.513   4.102  0.4290 -0.3918 -0.4524
  650MOL0     C87677   4.176   4.587   4.235 -0.5113  0.1528  0.1062
  650MOL0     C87678   4.269   4.699   4.285 -0.4977 -0.3444  0.0545
  650MOL0     C87679   4.404   4.649   4.330 -0.3789 -0.6669 -1.6240
  650MOL0     C87680   4.506   4.598   4.369  0.0393 -0.6977  0.5508
  650MOL0     C87681   3.937   4.354   3.852 -0.6038  0.3864 -0.5119
  650MOL0     C87682   3.846   4.355   3.745  0.6579 -1.0452  1.0037
  650MOL0     H87683   3.483   4.483   3.394 -0.2401  0.7932  0.5175
  650MOL0     H87684   3.291   4.484   3.268  1.1681 -0.2658 -0.1580
  650MOL0     H87685   3.068   4.617   3.236  0.3639  0.1904  2.4797
  650MOL0     H87686   3.071   4.460   3.172  1.1229  1.1874 -0.9774
  650MOL0     H87687   2.812   4.457   3.270 -0.8174  1.2358  0.4999
  650MOL0     H87688   2.829   4.630   3.238  0.4322  0.3708 -1.0238
  650MOL0     H87689   2.911   4.591   3.014  0.4945 -0.9668 -0.4151
  650MOL0     H87690   2.884   4.416   3.029  2.6060  0.5300  0.4843
  650MOL0     H87691   2.634   4.484   3.073  1.0592  0.0818  0.4090
  650MOL0     H87692   2.679   4.641   3.021 -1.3136 -0.3169 -0.0195
  650MOL0     H87693   2.742   4.536   2.793  0.0243  2.0107  0.6301
  650MOL0     H87694   2.722   4.383   2.865  2.5105  0.2066  1.9593
  650MOL0     H87695   2.496   4.599   2.827 -0.0290  0.2241 -1.0029
  650MOL0     H87696   2.526   4.460   2.728 -1.6950  1.7000 -0.5834
  650MOL0     H87697   2.451   4.296   2.888 -1.8815 -1.4470  0.3962
  650MOL0     H87698   2.441   4.422   3.015 -0.9234  0.3324 -0.3851
  650MOL0     H87699   2.302   4.416   2.746  1.4445  0.3932  0.6163
  650MOL0     H87700   2.257   4.518   2.879  1.2122 -0.3589  1.9480
  650MOL0     H87701   2.145   4.215   2.730  2.2915  0.5939 -0.4565
  650MOL0     H87702   1.904   4.087   2.810 -1.4076  1.0111  1.0339
  650MOL0     H87703   2.005   3.965   2.862  3.3626  1.7403 -0.3271
  650MOL0     H87704   1.910   4.029   3.109 -3.1783  0.7534  1.6863
  650MOL0     H87705   1.819   3.925   3.007  1.9069 -0.1241  1.0816
  650MOL0     H87706   1.696   4.143   2.925  0.6137  0.4064  0.2514
  650MOL0     H87707   1.776   4.219   3.071  0.9638 -1.4009  1.2254
  650MOL0     H87708   1.589   3.995   3.115 -1.8426 -0.1708  4.3301
  650MOL0     H87709   1.536   4.160   3.114 -0.8372  1.2799  0.2413
  650MOL0     H87710   1.762   4.060   3.485  0.0999  2.4510 -2.3707
  650MOL0     H87711   1.771   3.975   3.703 -1.1519 -3.1284 -2.5906
  650MOL0     H87712   1.653   4.073   3.791  2.7930  1.8210  0.7196
  650MOL0     H87713   1.639   3.896   3.782  1.7525 -1.5285  0.0904
  650MOL0     H87714   1.009   3.915   3.589  0.4246  0.4538  0.0766
  650MOL0     H87715   0.812   3.823   3.704 -0.7461 -0.1947  0.6393
  650MOL0     H87716   0.853   3.563   4.072 -2.1168 -1.0736 -0.7616
  650MOL0     H87717   0.815   3.734   4.110  0.8500  0.3090  1.3501
  650MOL0     H87718   0.627   3.529   3.999  3.2572  0.3997 -2.1951
  650MOL0     H87719   0.650   3.584   4.173  1.4318 -2.1163 -1.8536
  650MOL0     H87720   0.571   3.742   3.932  1.8379 -1.0900  1.6872
  650MOL0     H87721   0.565   3.816   4.083  0.6867 -0.5219  0.6944
  650MOL0     H87722   0.387   3.567   4.008  0.9942 -2.0729  3.2996
  650MOL0     H87723   0.370   3.662   4.162  1.2648 -0.2045  0.6583
  650MOL0     H87724   0.339   3.853   4.007  0.7048 -1.3046 -0.3665
  650MOL0     H87725   0.205   3.745   4.058  0.6093  0.6863  1.5346
  650MOL0     H87726   0.365   3.707   3.802  2.5488 -0.4197  3.4110
  650MOL0     H87727   0.212   3.619   3.859 -1.2812  0.8553 -0.4565
  650MOL0     H87728   0.247   3.916   3.781  1.8276 -2.0053 -2.4050
  650MOL0     H87729   0.101   3.838   3.845 -0.5457 -1.9019 -1.3450
  650MOL0     H87730   0.083   3.690   3.656  0.3791  0.6112  1.9897
  650MOL0     H87731   0.228   3.754   3.587 -1.3427 -2.4773 -0.9281
  650MOL0     H87732   1.071   3.655   4.005  0.8638 -1.3715 -0.5751
  650MOL0     H87733   1.260   3.734   3.880  0.6898  2.5576 -0.1543
  650MOL0     H87734   1.284   3.968   3.441 -0.1534 -0.3402  2.6898
  650MOL0     H87735   1.395   4.052   3.260 -0.3682  0.1388 -0.0509
  650MOL0     H87736   3.054   4.425   3.625 -1.4785 -0.8271 -1.9929
  650MOL0     H87737   3.270   4.437   3.760  3.3388 -2.9641 -0.2426
  650MOL0     H87738   3.599   4.514   3.919  0.4232  2.1217  3.9671
  650MOL0     H87739   3.758   4.490   4.098 -1.3933  1.4621 -1.2574
  650MOL0     H87740   4.167   4.315   4.159  0.6794 -2.3668 -0.4406
  650MOL0     H87741   4.160   4.343   3.982 -2.8197 -0.9107 -1.1236
  650MOL0     H87742   4.174   4.589   4.030 -2.1655 -0.8224  0.0649
  650MOL0     H87743   4.311   4.490   4.097  0.9634  0.9992  2.3101
  650MOL0     H87744   4.164   4.507   4.309  0.9887  0.7667  1.0404
  650MOL0     H87745   4.074   4.627   4.233 -0.5471  0.0718  0.3516
  650MOL0     H87746   4.229   4.766   4.362 -0.3682 -0.1569 -0.0382
  650MOL0     H87747   4.288   4.760   4.196  1.4384 -3.0111 -1.5029
  650MOL0     H87748   4.603   4.570   4.404  0.2162 -2.1729 -0.9961
  650MOL0     H87749   4.037   4.314   3.838 -0.1276  0.7698  1.5065
  650MOL0     H87750   3.871   4.316   3.647  1.6547  2.5627 -0.3268
  651MOL0     O87751   1.609   4.289   5.622 -0.4746 -0.1941  0.1153
  651MOL0     C87752   1.671   4.381   5.677  0.8373  0.2400 -0.4153
  651MOL0     O87753   1.618   4.478   5.751 -0.3844 -0.2188 -0.3416
  651MOL0     C87754   1.485   4.486   5.778 -0.6056 -0.1587  0.3053
  651MOL0     C87755   1.430   4.384   5.862  1.5010 -0.5922 -0.4728
  651MOL0     C87756   1.297   4.384   5.899 -0.8204 -0.3658 -0.6461
  651MOL0     C87757   1.230   4.500   5.879  0.2172  0.8203  0.3332
  651MOL0     O87758   1.101   4.492   5.918 -0.8704 -0.4648 -1.0004
  651MOL0     C87759   1.000   4.584   5.880 -0.8546  0.1660 -0.3145
  651MOL0     C87760   0.870   4.522   5.887 -0.2505  0.0008 -0.7050
  651MOL0     C87761   0.821   4.494   6.034  0.3415 -0.7181 -0.1019
  651MOL0     C87762   0.670   4.467   6.038 -0.2603  0.5448 -0.5390
  651MOL0     C87763   0.626   4.425   6.169  0.7693  0.0098  0.8872
  651MOL0     C87764   0.610   4.550   6.254  0.1025  0.2973  0.0463
  651MOL0     C87765   0.538   4.509   6.381  1.0334  0.1119  0.1901
  651MOL0     C87766   0.480   4.633   6.448  0.3713 -0.3739  0.7961
  651MOL0     N87767   0.398   4.586   6.563  0.5630  0.2832  0.4336
  651MOL0     C87768   0.266   4.531   6.562  0.4022  0.0693 -0.2479
  651MOL0     C87769   0.225   4.529   6.692  0.3213 -0.4495  0.4764
  651MOL0     C87770   0.089   4.477   6.738  0.1596 -0.0802  0.5731
  651MOL0     C87771   0.095   4.413   6.884  0.1815 -0.9353 -0.6753
  651MOL0     C87772  -0.042   4.367   6.932 -0.0942  0.0111 -0.9444
  651MOL0     C87773  -0.129   4.488   6.968  0.0919  0.0856  0.2971
  651MOL0     O87774  -0.103   4.536   7.100 -0.3324 -0.0526 -0.4501
  651MOL0     C87775  -0.162   4.650   7.139  0.1038 -0.9604 -0.0512
  651MOL0     C87776  -0.108   4.722   7.252 -0.8612  0.3500  0.0748
  651MOL0     C87777  -0.146   4.852   7.288 -0.1496 -0.2383 -0.2899
  651MOL0     C87778  -0.095   4.914   7.419 -0.4151 -0.1293  0.3751
  651MOL0     C87779  -0.234   4.925   7.204 -0.7036  0.0907 -0.2963
  651MOL0     C87780  -0.261   5.071   7.211 -0.1472  0.1152  0.4050
  651MOL0     O87781  -0.362   5.116   7.135  0.2663  0.7171 -0.3194
  651MOL0     C87782  -0.400   5.250   7.126  0.6451  0.1546  0.9554
  651MOL0     C87783  -0.531   5.271   7.104 -0.2551  0.6600  0.8879
  651MOL0     C87784  -0.582   5.401   7.105  0.1296 -0.4070 -0.4094
  651MOL0     C87785  -0.494   5.514   7.102  0.3927 -0.5058 -0.0264
  651MOL0     O87786  -0.557   5.634   7.073 -0.3518  0.5804  0.0822
  651MOL0     C87787  -0.475   5.753   7.093 -0.2905 -0.0541  0.9150
  651MOL0     C87788  -0.574   5.871   7.073 -0.8425  0.6409  0.6601
  651MOL0     C87789  -0.619   5.869   6.922 -0.0549  0.7189  0.4033
  651MOL0     C87790  -0.725   5.973   6.888  0.1068  0.1752  0.8344
  651MOL0     C87791  -0.769   5.979   6.748  0.2684 -0.0858  0.1732
  651MOL0     C87792  -0.903   6.051   6.737 -0.2279  1.3512  0.0059
  651MOL0     C87793  -0.900   6.195   6.702  0.4011 -0.6423 -0.8441
  651MOL0     C87794  -1.015   6.277   6.753  0.1700  0.4198  0.5803
  651MOL0    Cl87795  -0.973   6.446   6.732  0.5004  0.3813 -0.0388
  651MOL0     C87796  -0.356   5.483   7.107 -0.6994 -0.2780  0.0049
  651MOL0     C87797  -0.311   5.353   7.116 -0.6831  0.5502 -0.2550
  651MOL0     O87798  -0.188   5.139   7.285 -0.1334 -0.1042 -0.0377
  651MOL0     C87799  -0.306   4.849   7.110 -0.7386  1.0533  0.2715
  651MOL0     C87800  -0.266   4.711   7.073  0.8209 -0.2542  0.5740
  651MOL0     N87801   0.328   4.595   6.766 -0.2170  0.2710  0.5044
  651MOL0     N87802   0.424   4.620   6.690  0.1035 -0.3359 -0.8887
  651MOL0     C87803   1.272   4.600   5.788  0.2293 -0.2076  0.0372
  651MOL0     C87804   1.409   4.597   5.745  0.5830 -0.6615  0.6929
  651MOL0     C87805   1.812   4.390   5.646  0.0757  0.7301 -0.3753
  651MOL0     C87806   1.888   4.497   5.694 -0.6334  0.4760 -1.0262
  651MOL0     C87807   2.026   4.499   5.674  0.2099 -0.5699  0.4665
  651MOL0     C87808   2.091   4.399   5.606  0.2728  0.7233 -0.4840
  651MOL0     O87809   2.223   4.414   5.576  0.4365  0.1518 -0.0145
  651MOL0     C87810   2.287   4.317   5.501 -0.2969 -1.0287  0.0921
  651MOL0     C87811   2.437   4.342   5.497 -0.3309  0.3125 -0.1557
  651MOL0     C87812   2.458   4.479   5.441 -1.1115 -1.4215 -0.1953
  651MOL0     C87813   2.608   4.520   5.460 -0.5415  0.6366  0.1567
  651MOL0     C87814   2.631   4.634   5.376 -0.3305 -0.6642  0.4469
  651MOL0     C87815   2.647   4.731   5.306 -0.1476  0.2510  0.1793
  651MOL0     C87816   2.018   4.288   5.561 -0.8041  0.8057 -0.6314
  651MOL0     C87817   1.883   4.279   5.575 -0.4301 -0.5493 -0.4452
  651MOL0     H87818   1.473   4.290   5.896  0.2091 -1.2550 -0.5788
  651MOL0     H87819   1.242   4.308   5.954  0.4356 -0.6154  0.3205
  651MOL0     H87820   1.016   4.672   5.943  1.0626  1.3310 -2.2880
  651MOL0     H87821   1.003   4.598   5.771 -1.0127 -2.4483 -0.7284
  651MOL0     H87822   0.800   4.596   5.849 -0.8985  1.4539  2.9327
  651MOL0     H87823   0.878   4.424   5.838 -1.5317 -0.4302 -0.1175
  651MOL0     H87824   0.873   4.417   6.091  1.2085  0.3564  0.5873
  651MOL0     H87825   0.842   4.588   6.085 -0.5675 -0.0157 -0.9833
  651MOL0     H87826   0.606   4.545   5.997 -1.5561  0.4610  1.2089
  651MOL0     H87827   0.652   4.375   5.981  1.5839 -2.5810  3.3923
  651MOL0     H87828   0.534   4.370   6.146  1.8020 -0.4047 -2.8190
  651MOL0     H87829   0.693   4.351   6.216  2.7237  1.8605  1.1499
  651MOL0     H87830   0.703   4.602   6.280  0.0780 -0.5280  1.9395
  651MOL0     H87831   0.543   4.616   6.198 -0.3294  2.2297  2.6533
  651MOL0     H87832   0.467   4.430   6.356  2.3591 -0.2558 -2.8234
  651MOL0     H87833   0.600   4.451   6.450 -0.7131  0.2790  1.9564
  651MOL0     H87834   0.410   4.689   6.386  1.8376  0.3502 -0.2649
  651MOL0     H87835   0.565   4.693   6.483  1.1172 -0.8954 -0.0766
  651MOL0     H87836   0.218   4.479   6.480 -1.0001  1.0127 -0.0623
  651MOL0     H87837   0.029   4.568   6.740  0.7342  0.3270  3.1030
  651MOL0     H87838   0.037   4.406   6.672  3.4721 -0.3578 -1.9712
  651MOL0     H87839   0.146   4.484   6.950  1.5411 -1.6224 -0.9498
  651MOL0     H87840   0.163   4.327   6.883 -0.8551 -1.7976  0.2211
  651MOL0     H87841  -0.044   4.298   7.017 -3.3368 -0.1618 -1.0186
  651MOL0     H87842  -0.103   4.319   6.855 -0.6021  0.3704 -0.7740
  651MOL0     H87843  -0.232   4.452   6.956  1.1283 -2.8208 -1.0675
  651MOL0     H87844  -0.100   4.567   6.898  0.5088  0.2096  0.6129
  651MOL0     H87845  -0.028   4.678   7.311 -0.7061 -0.0182 -0.4001
  651MOL0     H87846  -0.186   4.941   7.474 -2.2574 -1.6033 -1.7298
  651MOL0     H87847  -0.045   4.844   7.486  0.1684  0.2899  0.3773
  651MOL0     H87848  -0.037   5.005   7.404  1.8813 -1.6068 -0.1991
  651MOL0     H87849  -0.592   5.183   7.085 -0.4385  1.2497 -1.7358
  651MOL0     H87850  -0.687   5.410   7.081 -0.0466 -0.9595  0.1365
  651MOL0     H87851  -0.426   5.755   7.191 -0.7359 -0.6113  1.1557
  651MOL0     H87852  -0.392   5.754   7.021  0.5975  1.8003  1.9129
  651MOL0     H87853  -0.667   5.866   7.131 -0.4394 -0.9592  1.2261
  651MOL0     H87854  -0.521   5.964   7.092 -0.9019  1.9687 -4.2030
  651MOL0     H87855  -0.646   5.766   6.895  2.7618 -0.7473  2.6505
  651MOL0     H87856  -0.530   5.887   6.860 -1.5668  0.5146 -1.9765
  651MOL0     H87857  -0.808   5.947   6.955 -0.3349  0.7206  0.5051
  651MOL0     H87858  -0.683   6.071   6.914 -1.3141  1.6185 -1.9270
  651MOL0     H87859  -0.796   5.881   6.708 -1.6827  1.6947 -3.2810
  651MOL0     H87860  -0.698   6.036   6.687 -0.2680 -0.8977 -1.2366
  651MOL0     H87861  -0.947   5.999   6.652 -1.3443 -0.3885  1.5852
  651MOL0     H87862  -0.959   6.036   6.829  2.2163 -0.2868  1.3549
  651MOL0     H87863  -0.896   6.190   6.593 -0.9462  0.6441 -0.9926
  651MOL0     H87864  -0.812   6.247   6.741 -1.5966  2.0875  0.3617
  651MOL0     H87865  -1.023   6.265   6.861  1.9374  0.2278  0.7220
  651MOL0     H87866  -1.107   6.253   6.698  0.4593  1.0383 -0.2053
  651MOL0     H87867  -0.272   5.551   7.115 -2.2671  1.6205  1.1809
  651MOL0     H87868  -0.206   5.323   7.120 -1.6608 -3.5750 -0.5635
  651MOL0     H87869  -0.389   4.899   7.062 -0.6763  2.1250  1.2516
  651MOL0     H87870  -0.326   4.660   6.998  0.5681 -2.4249  2.1460
  651MOL0     H87871   1.212   4.678   5.742  0.4053 -0.8894 -1.4131
  651MOL0     H87872   1.460   4.675   5.689  1.3707 -1.6475  0.0130
  651MOL0     H87873   1.840   4.580   5.745 -2.0806 -1.5514  1.0802
  651MOL0     H87874   2.082   4.586   5.708  1.1934 -0.1622 -1.9604
  651MOL0     H87875   2.273   4.220   5.551 -1.1386 -1.9908 -1.9173
  651MOL0     H87876   2.252   4.311   5.398 -1.3246 -1.7794  0.4625
  651MOL0     H87877   2.486   4.265   5.437 -2.6432 -1.0506 -0.3747
  651MOL0     H87878   2.480   4.329   5.596  0.1567  0.7538 -0.3013
  651MOL0     H87879   2.388   4.553   5.481 -1.4548 -2.9985  2.3487
  651MOL0     H87880   2.446   4.465   5.333  2.1526  0.9180 -1.0243
  651MOL0     H87881   2.669   4.433   5.433  0.4405  0.8584  1.5446
  651MOL0     H87882   2.619   4.543   5.566 -0.3464  0.1122  0.2572
  651MOL0     H87883   2.632   4.819   5.246  0.0234  0.8611  1.0015
  651MOL0     H87884   2.064   4.205   5.509  0.2426 -1.3703  3.3280
  651MOL0     H87885   1.818   4.196   5.550 -2.2050  0.5375  0.3024
  652MOL0     O87886   0.927   1.566   8.273 -0.2012 -0.3710 -0.1946
  652MOL0     C87887   1.009   1.486   8.300  0.0494  0.4482  0.9024
  652MOL0     O87888   0.978   1.351   8.327 -0.0324  0.3163 -0.5643
  652MOL0     C87889   0.858   1.312   8.261  1.0402 -0.1019 -0.1031
  652MOL0     C87890   0.836   1.283   8.121  0.1963  0.4722 -0.0906
  652MOL0     C87891   0.707   1.242   8.070 -0.8354 -1.3538 -0.0026
  652MOL0     C87892   0.590   1.244   8.155 -0.3823 -0.8096  0.3300
  652MOL0     O87893   0.465   1.225   8.110 -0.0772 -0.3878  0.3922
  652MOL0     C87894   0.440   1.197   7.966 -0.9767 -0.2612 -1.3510
  652MOL0     C87895   0.300   1.154   7.932 -0.5117 -0.2158 -0.4978
  652MOL0     C87896   0.196   1.262   7.963  0.4367 -0.7681 -0.1579
  652MOL0     C87897   0.143   1.242   8.103 -0.1063 -0.3178 -0.2830
  652MOL0     C87898   0.023   1.155   8.118 -0.1592  0.2329 -0.0114
  652MOL0     C87899  -0.099   1.181   8.035 -0.3123  0.5468 -0.5120
  652MOL0     C87900  -0.193   1.062   8.053 -0.8872 -0.2720  0.4679
  652MOL0     C87901  -0.322   1.091   7.970  0.1322  0.8680  0.2572
  652MOL0     N87902  -0.432   1.003   8.025  0.4954 -0.2545  0.6168
  652MOL0     C87903  -0.445   0.868   8.002 -0.2285 -0.0138  0.1135
  652MOL0     C87904  -0.566   0.833   8.060 -0.5665 -0.4266 -0.2924
  652MOL0     C87905  -0.626   0.697   8.056  0.3536 -0.1312 -0.5011
  652MOL0     C87906  -0.662   0.667   7.911  0.0399  0.1411  0.8902
  652MOL0     C87907  -0.750   0.776   7.847 -0.6659  1.0921 -0.7953
  652MOL0     C87908  -0.878   0.816   7.923 -0.8834 -0.0987 -0.2367
  652MOL0     O87909  -0.971   0.712   7.915  0.0064 -0.1215 -0.3918
  652MOL0     C87910  -1.061   0.709   8.010 -0.0821 -0.7661 -0.2988
  652MOL0     C87911  -1.140   0.605   8.006  0.6491 -0.4842 -0.2986
  652MOL0     C87912  -1.252   0.584   8.094  0.2973  0.0536 -0.6645
  652MOL0     C87913  -1.335   0.461   8.070  0.3267  0.2305 -0.1317
  652MOL0     C87914  -1.287   0.685   8.190  0.2716  0.1679 -0.3662
  652MOL0     C87915  -1.401   0.682   8.284  0.1580  0.2216  0.9697
  652MOL0     O87916  -1.425   0.797   8.358  0.5136 -0.5765  0.1587
  652MOL0     C87917  -1.549   0.835   8.399  0.3119  0.0070 -0.4620
  652MOL0     C87918  -1.621   0.756   8.493 -0.5822 -0.0821  0.1728
  652MOL0     C87919  -1.752   0.787   8.539 -0.2302  0.2628 -1.2361
  652MOL0     C87920  -1.806   0.915   8.516  1.1524 -0.5911 -0.0232
  652MOL0     O87921  -1.927   0.962   8.564  0.1063  0.2935 -0.3119
  652MOL0     C87922  -1.997   0.879   8.661  0.1450  0.4606 -0.0341
  652MOL0     C87923  -2.136   0.933   8.695 -1.1078 -0.2521  0.8368
  652MOL0     C87924  -2.138   1.082   8.743 -0.3194  0.3402  0.2805
  652MOL0     C87925  -2.282   1.143   8.742 -0.0208  0.2906  0.2147
  652MOL0     C87926  -2.368   1.064   8.852 -0.5052 -0.3084  0.6312
  652MOL0     C87927  -2.499   1.142   8.874 -1.0815  0.6782  0.4211
  652MOL0     C87928  -2.578   1.081   8.987  0.2887  0.4360  0.3483
  652MOL0     C87929  -2.732   1.093   8.972 -0.3802 -0.2177  0.8903
  652MOL0    Cl87930  -2.792   0.997   8.828  0.2462 -0.0736 -0.3065
  652MOL0     C87931  -1.722   1.001   8.433  1.0513  0.5428 -0.2192
  652MOL0     C87932  -1.608   0.955   8.369  0.2709  0.5294 -0.0817
  652MOL0     O87933  -1.478   0.588   8.268  0.5927  0.6491 -0.2593
  652MOL0     C87934  -1.193   0.795   8.191  0.2726  0.0923  0.7754
  652MOL0     C87935  -1.084   0.809   8.104 -0.2327 -0.3336  0.1016
  652MOL0     N87936  -0.619   0.935   8.127 -0.5762 -0.2307  0.6126
  652MOL0     N87937  -0.540   1.038   8.100 -0.4722  0.0488 -0.0458
  652MOL0     C87938   0.603   1.285   8.290 -0.1377 -0.3774  0.2762
  652MOL0     C87939   0.736   1.312   8.338  0.1381 -0.6014 -0.3945
  652MOL0     C87940   1.144   1.538   8.304 -0.7404  1.0194  0.1728
  652MOL0     C87941   1.249   1.459   8.360  0.2091 -0.1676 -0.1282
  652MOL0     C87942   1.378   1.507   8.355 -0.3610 -0.8240 -0.6403
  652MOL0     C87943   1.409   1.636   8.313  0.0199 -0.5839 -0.4668
  652MOL0     O87944   1.532   1.704   8.328 -0.1529  0.1347 -0.3899
  652MOL0     C87945   1.636   1.633   8.399 -0.0471 -0.1172 -0.7932
  652MOL0     C87946   1.741   1.739   8.430  0.6576 -0.2474 -0.6061
  652MOL0     C87947   1.822   1.773   8.308  0.3631 -0.5577 -0.4885
  652MOL0     C87948   1.931   1.669   8.287  0.1387 -0.7705  1.1370
  652MOL0     C87949   2.009   1.718   8.176  0.3931  0.1501 -0.0946
  652MOL0     C87950   2.094   1.761   8.100  0.1501  0.7635 -0.5921
  652MOL0     C87951   1.311   1.702   8.246 -0.1477 -0.4240  0.1604
  652MOL0     C87952   1.178   1.650   8.237  0.5485  0.4065  0.8061
  652MOL0     H87953   0.926   1.272   8.060 -0.5774 -0.6089 -1.0913
  652MOL0     H87954   0.703   1.232   7.962 -1.7840 -1.7873  0.0565
  652MOL0     H87955   0.473   1.284   7.909 -1.9642 -0.0233 -1.5825
  652MOL0     H87956   0.512   1.123   7.930 -1.1425 -1.2742  0.3155
  652MOL0     H87957   0.298   1.139   7.824 -1.5347 -3.0015 -0.1725
  652MOL0     H87958   0.277   1.055   7.972 -0.5655 -0.1963 -0.4814
  652MOL0     H87959   0.238   1.363   7.958  3.5398 -1.9540 -0.1775
  652MOL0     H87960   0.114   1.265   7.891 -0.2685  0.2241  0.6486
  652MOL0     H87961   0.225   1.202   8.164  0.5057  3.0074  1.3219
  652MOL0     H87962   0.128   1.346   8.132  1.4492  0.6077 -2.5283
  652MOL0     H87963   0.064   1.058   8.088 -1.6591  0.1007 -1.7313
  652MOL0     H87964  -0.014   1.156   8.221 -0.7695 -2.3249 -0.1348
  652MOL0     H87965  -0.152   1.269   8.072 -1.4605  0.2360 -1.3618
  652MOL0     H87966  -0.079   1.187   7.927 -0.8305  0.7791 -0.5968
  652MOL0     H87967  -0.154   0.964   8.028  0.7549  0.2727  0.7923
  652MOL0     H87968  -0.210   1.049   8.160  1.3379 -1.1148  0.7685
  652MOL0     H87969  -0.308   1.072   7.863 -1.6902  0.2053  0.0937
  652MOL0     H87970  -0.357   1.194   7.971 -2.2077  0.1307  0.9487
  652MOL0     H87971  -0.381   0.802   7.945  0.6381  0.6825  0.2549
  652MOL0     H87972  -0.561   0.617   8.092  2.3129  1.8660  0.6428
  652MOL0     H87973  -0.717   0.699   8.116  0.3632  1.7042 -0.5095
  652MOL0     H87974  -0.704   0.566   7.900  0.4634  0.2364 -2.3283
  652MOL0     H87975  -0.574   0.660   7.846  0.4378 -1.9160  1.5638
  652MOL0     H87976  -0.771   0.752   7.743 -0.1021 -0.4253 -0.5882
  652MOL0     H87977  -0.700   0.872   7.833 -1.9388  1.5264 -2.7508
  652MOL0     H87978  -0.925   0.906   7.883 -1.9155 -0.5450 -0.0622
  652MOL0     H87979  -0.850   0.824   8.028 -3.1970  1.0704  0.3639
  652MOL0     H87980  -1.124   0.526   7.933  1.4807  0.5498 -1.2629
  652MOL0     H87981  -1.346   0.390   8.153 -1.3267  0.4861 -0.0916
  652MOL0     H87982  -1.438   0.490   8.049  0.1989  0.3137  0.5751
  652MOL0     H87983  -1.290   0.400   7.991  0.3523 -1.8199  1.3865
  652MOL0     H87984  -1.584   0.663   8.533 -0.0346 -0.0625 -0.2764
  652MOL0     H87985  -1.802   0.716   8.604  1.4912  0.3149  0.2176
  652MOL0     H87986  -2.020   0.785   8.611  2.7970  1.5592 -3.7725
  652MOL0     H87987  -1.944   0.870   8.756 -1.7445  1.8999  1.2509
  652MOL0     H87988  -2.206   0.919   8.612  2.5446 -0.4570 -2.4698
  652MOL0     H87989  -2.170   0.876   8.782 -2.0144 -2.4876 -0.9039
  652MOL0     H87990  -2.074   1.140   8.675 -0.7556  0.3035 -0.1702
  652MOL0     H87991  -2.095   1.088   8.843  0.7260  3.0055 -0.2511
  652MOL0     H87992  -2.270   1.251   8.761 -1.8129  0.8522 -1.6016
  652MOL0     H87993  -2.328   1.137   8.643 -0.1833 -2.2113  0.3966
  652MOL0     H87994  -2.321   1.060   8.951 -1.1284 -0.7856  0.9082
  652MOL0     H87995  -2.389   0.964   8.813 -0.8730  0.9886 -2.8946
  652MOL0     H87996  -2.465   1.245   8.888  1.5133 -0.2550  1.6277
  652MOL0     H87997  -2.560   1.129   8.784 -2.3590  1.6243  1.1090
  652MOL0     H87998  -2.561   1.137   9.080 -1.2249  2.2340 -0.4063
  652MOL0     H87999  -2.559   0.974   9.004  0.5950  0.3200 -0.6894
  652MOL0     H88000  -2.762   1.198   8.962  1.4092  0.2052 -0.6726
  652MOL0     H88001  -2.783   1.058   9.062 -1.2747 -0.7946  0.1851
  652MOL0     H88002  -1.757   1.100   8.405  1.1027  0.6565  0.1103
  652MOL0     H88003  -1.572   1.033   8.302 -4.3080  1.9693 -1.2605
  652MOL0     H88004  -1.202   0.865   8.273 -0.9189 -0.1493  0.8710
  652MOL0     H88005  -1.023   0.896   8.130 -1.2109  1.1687 -2.2815
  652MOL0     H88006   0.522   1.312   8.358 -0.0484 -1.2876  0.7558
  652MOL0     H88007   0.737   1.341   8.442  0.0023 -3.2867  0.4410
  652MOL0     H88008   1.234   1.360   8.402  0.5200 -1.9186 -3.7667
  652MOL0     H88009   1.449   1.435   8.396 -0.0026 -1.0463 -1.6305
  652MOL0     H88010   1.599   1.595   8.495  1.5368  3.6529  1.5565
  652MOL0     H88011   1.685   1.551   8.347  0.5187  1.5776 -3.0919
  652MOL0     H88012   1.806   1.700   8.510 -0.2878 -1.7369 -0.5376
  652MOL0     H88013   1.693   1.833   8.458  2.3311  2.5370 -5.7566
  652MOL0     H88014   1.867   1.870   8.333 -1.4916  0.0578  0.6697
  652MOL0     H88015   1.769   1.784   8.214  2.1215  1.2099 -1.3473
  652MOL0     H88016   1.889   1.573   8.256 -0.6244  0.1376 -0.8386
  652MOL0     H88017   1.993   1.652   8.376 -1.9245 -3.0041  2.2853
  652MOL0     H88018   2.167   1.779   8.023 -0.4554 -3.9255 -2.6670
  652MOL0     H88019   1.331   1.796   8.195  1.2548 -2.3117 -3.0730
  652MOL0     H88020   1.114   1.705   8.170  2.3621  0.1111 -1.3094
  653MOL0     O88021   1.787  10.240  11.202 -0.4612  1.0318 -0.2027
  653MOL0     C88022   1.854  10.138  11.232 -0.0910 -0.0627 -0.6598
  653MOL0     O88023   1.953  10.132  11.326  0.4386  0.5429 -0.5462
  653MOL0     C88024   1.994  10.236  11.401  0.4596  0.7714 -0.4248
  653MOL0     C88025   2.118  10.225  11.472  0.2126  0.6354  0.3159
  653MOL0     C88026   2.158  10.321  11.567  0.7989  1.0028  0.8654
  653MOL0     C88027   2.088  10.439  11.583 -0.2019  0.3352  0.6468
  653MOL0     O88028   2.136  10.531  11.659  0.6239  0.2695 -0.2429
  653MOL0     C88029   2.049  10.552  11.768  0.1728 -1.2873 -0.8796
  653MOL0     C88030   2.094  10.679  11.843 -0.7808 -0.0250 -0.2192
  653MOL0     C88031   2.174  10.642  11.963  0.3760 -0.1705  0.9113
  653MOL0     C88032   2.192  10.773  12.039  0.3745  0.2586 -0.0502
  653MOL0     C88033   2.274  10.750  12.160 -0.3206  0.1655 -0.4587
  653MOL0     C88034   2.332  10.880  12.220  0.6378  0.1581 -0.2357
  653MOL0     C88035   2.402  10.856  12.350 -0.3056 -0.6997 -0.7112
  653MOL0     C88036   2.466  10.986  12.399  0.3147  0.2338 -0.4695
  653MOL0     N88037   2.365  11.074  12.453 -0.1805  0.5059  0.2854
  653MOL0     C88038   2.302  11.169  12.373  0.1836 -0.6141  0.7935
  653MOL0     C88039   2.185  11.195  12.447 -0.0080  0.2963  0.6067
  653MOL0     C88040   2.069  11.289  12.412 -0.1218 -0.1264 -0.2506
  653MOL0     C88041   1.937  11.267  12.504  0.3961  0.0682  0.8038
  653MOL0     C88042   1.941  11.345  12.632 -0.1807  0.3092 -0.4066
  653MOL0     C88043   1.811  11.424  12.657  0.1790  0.7004  0.2732
  653MOL0     O88044   1.698  11.335  12.636 -0.6605 -0.9810 -0.3852
  653MOL0     C88045   1.586  11.352  12.708  0.5801 -0.1193  0.4742
  653MOL0     C88046   1.509  11.241  12.745  0.3707  0.1405 -0.2681
  653MOL0     C88047   1.393  11.256  12.830 -0.1294 -0.1497  0.2919
  653MOL0     C88048   1.322  11.135  12.879  0.1788  0.8596 -0.8028
  653MOL0     C88049   1.355  11.384  12.873  0.6550 -0.1812 -0.3032
  653MOL0     C88050   1.226  11.401  12.950 -1.3121 -0.1962 -0.9781
  653MOL0     O88051   1.120  11.310  12.934 -0.3344 -0.4147  0.6219
  653MOL0     C88052   1.006  11.340  13.006  0.5696  0.2620 -0.0427
  653MOL0     C88053   1.001  11.336  13.146 -1.0869  0.7599  1.1105
  653MOL0     C88054   0.886  11.364  13.209 -0.2384  0.2810 -0.1752
  653MOL0     C88055   0.765  11.393  13.137 -1.3468 -0.2596  0.8639
  653MOL0     O88056   0.653  11.417  13.213 -0.1838  0.5266  0.2499
  653MOL0     C88057   0.526  11.384  13.153 -0.4708  0.9304 -0.7547
  653MOL0     C88058   0.410  11.400  13.244  0.3937 -1.1079  0.7696
  653MOL0     C88059   0.405  11.313  13.373  0.2582  0.0575 -0.4990
  653MOL0     C88060   0.280  11.355  13.455  0.0114 -0.7418 -0.2953
  653MOL0     C88061   0.296  11.339  13.610  0.3321 -0.1900  0.9236
  653MOL0     C88062   0.281  11.195  13.659 -0.7056  0.2103  0.0951
  653MOL0     C88063   0.293  11.171  13.816  0.3836  0.5409 -0.2321
  653MOL0     C88064   0.221  11.270  13.894 -0.4754  0.5520 -0.7823
  653MOL0    Cl88065   0.188  11.180  14.037 -0.4643 -0.3564 -0.0576
  653MOL0     C88066   0.774  11.393  12.993 -0.1197  1.0871 -1.0276
  653MOL0     C88067   0.901  11.378  12.931  0.4837  0.4155  0.0646
  653MOL0     O88068   1.227  11.496  13.027 -0.5104 -0.1009  0.2144
  653MOL0     C88069   1.430  11.497  12.840  0.6391 -0.2632  0.8689
  653MOL0     C88070   1.544  11.482  12.757  0.6159  0.6144 -0.4631
  653MOL0     N88071   2.204  11.131  12.574  0.9663 -0.0361  0.4001
  653MOL0     N88072   2.316  11.066  12.574  0.2199 -0.5346 -0.2987
  653MOL0     C88073   1.975  10.456  11.512 -0.1919  0.6870  0.7128
  653MOL0     C88074   1.924  10.349  11.434 -0.8943  0.2888 -0.7563
  653MOL0     C88075   1.814  10.014  11.167 -0.8149  0.6810 -0.8752
  653MOL0     C88076   1.883   9.889  11.178 -0.7196 -0.6985  0.1359
  653MOL0     C88077   1.853   9.779  11.100  0.6021  0.0404  0.1932
  653MOL0     C88078   1.737   9.786  11.025 -0.2615  0.3658 -0.9604
  653MOL0     O88079   1.729   9.675  10.948 -0.5662  0.4741 -0.2412
  653MOL0     C88080   1.675   9.683  10.810 -0.1583  0.7075  0.1219
  653MOL0     C88081   1.536   9.625  10.808  0.3794 -0.3528  0.0783
  653MOL0     C88082   1.519   9.464  10.827  0.1120 -0.8761 -0.7222
  653MOL0     C88083   1.574   9.384  10.710 -0.1401  0.4774 -0.2558
  653MOL0     C88084   1.474   9.379  10.608  0.9164  0.3910  0.2556
  653MOL0     C88085   1.394   9.371  10.519 -0.2381 -0.1467  0.9011
  653MOL0     C88086   1.651   9.890  11.018 -0.6690 -1.1453  0.0376
  653MOL0     C88087   1.689  10.001  11.094  0.1246  1.1028  0.3578
  653MOL0     H88088   2.172  10.131  11.457  2.6226  1.8293  1.0734
  653MOL0     H88089   2.246  10.292  11.623 -0.0155 -0.9470  1.2271
  653MOL0     H88090   1.946  10.573  11.735 -0.2836 -1.9598  0.0502
  653MOL0     H88091   2.047  10.465  11.834  2.6546 -1.7215 -1.2989
  653MOL0     H88092   2.145  10.750  11.778  1.8139 -1.3432  0.2298
  653MOL0     H88093   2.005  10.736  11.871 -1.0659  0.1298 -1.4194
  653MOL0     H88094   2.122  10.573  12.030 -0.0500 -0.4305  0.3228
  653MOL0     H88095   2.267  10.595  11.930 -0.0267  0.6910 -1.6518
  653MOL0     H88096   2.232  10.850  11.973  0.2987  1.2848  1.0555
  653MOL0     H88097   2.095  10.814  12.067  1.6796  3.5005  0.1866
  653MOL0     H88098   2.212  10.697  12.233 -0.9091 -0.2278 -1.2295
  653MOL0     H88099   2.364  10.690  12.140 -1.3574 -2.1067  1.3346
  653MOL0     H88100   2.392  10.941  12.151 -2.4696 -0.7373 -4.1689
  653MOL0     H88101   2.240  10.936  12.240  0.7213 -0.2181  1.2737
  653MOL0     H88102   2.339  10.797  12.418  0.1663 -0.6100 -0.1908
  653MOL0     H88103   2.487  10.791  12.327  0.1432 -0.0021 -1.0648
  653MOL0     H88104   2.511  11.029  12.309 -1.7153  1.3115 -1.0177
  653MOL0     H88105   2.540  10.958  12.475  0.1823 -0.4031 -0.5747
  653MOL0     H88106   2.323  11.215  12.277 -0.5475  3.7968  2.5023
  653MOL0     H88107   2.081  11.398  12.406 -0.2057  0.1715  3.2675
  653MOL0     H88108   2.046  11.256  12.310 -0.8934 -1.5824  0.3615
  653MOL0     H88109   1.928  11.159  12.521 -1.1548  0.2605  1.3220
  653MOL0     H88110   1.853  11.290  12.438  2.4865  0.8831 -1.7649
  653MOL0     H88111   2.023  11.417  12.635  0.8714 -0.8572 -0.3825
  653MOL0     H88112   1.962  11.269  12.708  0.4091  0.6582 -0.2213
  653MOL0     H88113   1.806  11.512  12.592  1.7528  2.4826  2.4327
  653MOL0     H88114   1.814  11.463  12.759  0.6978  0.6679  0.2728
  653MOL0     H88115   1.545  11.143  12.715  1.2316  1.0477 -2.4029
  653MOL0     H88116   1.374  11.041  12.856  2.4861  1.3678  1.8108
  653MOL0     H88117   1.307  11.131  12.988  2.9472 -1.7684 -0.3746
  653MOL0     H88118   1.229  11.130  12.822 -0.9103  2.1111  0.7620
  653MOL0     H88119   1.091  11.292  13.187  0.0754  0.1585 -1.8274
  653MOL0     H88120   0.877  11.375  13.317  1.5215  0.3404 -0.0003
  653MOL0     H88121   0.497  11.448  13.068 -3.8400 -1.1825 -1.3680
  653MOL0     H88122   0.528  11.283  13.112 -0.5325  1.5704 -2.4627
  653MOL0     H88123   0.403  11.507  13.262 -1.8582 -0.7725 -1.5776
  653MOL0     H88124   0.321  11.391  13.182 -0.4205 -1.4946  1.9553
  653MOL0     H88125   0.498  11.331  13.429 -0.6963  0.1786  1.1145
  653MOL0     H88126   0.393  11.205  13.356 -1.4103  0.3677 -1.5147
  653MOL0     H88127   0.268  11.462  13.437 -0.6665 -0.5280  1.2336
  653MOL0     H88128   0.188  11.301  13.429 -0.4475  0.6806 -1.8224
  653MOL0     H88129   0.228  11.403  13.666  1.4997  1.0797  0.9589
  653MOL0     H88130   0.399  11.359  13.640 -0.1577 -1.0366  3.3694
  653MOL0     H88131   0.179  11.162  13.634 -0.2615 -0.3214 -1.0702
  653MOL0     H88132   0.350  11.132  13.603 -1.5058  0.4493 -1.2100
  653MOL0     H88133   0.400  11.181  13.836  0.3705  2.6514 -0.9751
  653MOL0     H88134   0.252  11.071  13.836  0.4336  0.5642 -0.0101
  653MOL0     H88135   0.131  11.297  13.838  1.1681 -0.0548 -3.9869
  653MOL0     H88136   0.284  11.359  13.903  1.4876 -0.9648  1.8103
  653MOL0     H88137   0.686  11.420  12.936  0.9526  3.1933 -1.7568
  653MOL0     H88138   0.900  11.385  12.823 -0.4272  1.4667  0.1257
  653MOL0     H88139   1.403  11.594  12.881  2.5626  0.7772 -0.1900
  653MOL0     H88140   1.608  11.563  12.722  0.3001  1.7078  1.3943
  653MOL0     H88141   1.914  10.545  11.522  1.0351  1.4098  2.3321
  653MOL0     H88142   1.825  10.375  11.397 -1.3245  1.0863  0.8481
  653MOL0     H88143   1.980   9.871  11.223 -1.9308  2.0157  4.4382
  653MOL0     H88144   1.918   9.692  11.097  1.4007  0.6325 -0.1793
  653MOL0     H88145   1.669   9.785  10.771  0.5694  1.2304  1.3158
  653MOL0     H88146   1.728   9.624  10.734 -2.3474  1.9214 -2.4968
  653MOL0     H88147   1.496   9.656  10.711  0.4174  0.4250  0.3049
  653MOL0     H88148   1.489   9.694  10.879  0.4216  2.6895 -2.6140
  653MOL0     H88149   1.413   9.436  10.836  0.5865 -2.4934  0.2892
  653MOL0     H88150   1.575   9.437  10.917 -2.4370  0.3588  1.3951
  653MOL0     H88151   1.589   9.282  10.748 -0.0969  0.4851 -0.2517
  653MOL0     H88152   1.669   9.422  10.671  0.2214  0.3574  0.4793
  653MOL0     H88153   1.322   9.356  10.441  0.2011 -1.0948  0.6772
  653MOL0     H88154   1.557   9.895  10.964  0.9207  4.2971 -2.9217
  653MOL0     H88155   1.629  10.091  11.083  0.4653  1.1245 -1.6879
  654MOL0     O88156   2.301   9.236   2.114 -0.8134 -0.3472 -0.2987
  654MOL0     C88157   2.230   9.152   2.064  0.4751  0.0866  0.4232
  654MOL0     O88158   2.098   9.133   2.079  0.7369 -0.0896 -0.3567
  654MOL0     C88159   2.022   9.209   2.170 -0.0705  0.1573 -0.0849
  654MOL0     C88160   2.026   9.344   2.158  1.1784 -1.0420 -0.1550
  654MOL0     C88161   1.943   9.421   2.243 -0.8773  0.7318  0.5955
  654MOL0     C88162   1.841   9.361   2.329 -0.3978  0.7754  0.1477
  654MOL0     O88163   1.750   9.431   2.394 -0.0884 -0.4367 -0.1767
  654MOL0     C88164   1.740   9.566   2.376 -0.2679 -0.8595  0.4190
  654MOL0     C88165   1.598   9.606   2.417  0.0875  0.3771  0.4976
  654MOL0     C88166   1.567   9.582   2.567 -0.7297 -0.2294  0.0586
  654MOL0     C88167   1.418   9.597   2.588 -0.3803  0.5651  0.2579
  654MOL0     C88168   1.388   9.540   2.731 -0.2399 -0.7443  1.1325
  654MOL0     C88169   1.243   9.494   2.736 -0.4265  0.5999 -0.6148
  654MOL0     C88170   1.184   9.521   2.878 -0.6006 -0.0161  0.4709
  654MOL0     C88171   1.037   9.475   2.886 -0.4746  0.0221 -0.0304
  654MOL0     N88172   1.029   9.329   2.878  0.1097 -0.3353  0.2527
  654MOL0     C88173   1.072   9.239   2.978  0.2594  0.3060 -0.2538
  654MOL0     C88174   1.029   9.116   2.937  0.3105 -0.0029 -0.6156
  654MOL0     C88175   1.032   8.994   3.022 -0.1392  0.3156  0.2452
  654MOL0     C88176   0.953   9.013   3.152 -0.6195 -0.1841  0.8118
  654MOL0     C88177   0.814   9.075   3.132  0.0780  0.6363  0.6984
  654MOL0     C88178   0.727   8.993   3.031 -1.4928 -0.4012  0.2838
  654MOL0     O88179   0.628   9.077   2.971  0.5999 -0.0067  0.1540
  654MOL0     C88180   0.542   8.997   2.906 -0.0822 -0.5484 -0.3934
  654MOL0     C88181   0.532   8.989   2.770  0.7719  0.5542  0.5397
  654MOL0     C88182   0.430   8.919   2.702  0.0790  0.2663 -0.1076
  654MOL0     C88183   0.415   8.949   2.551 -0.0448  0.7100 -0.3387
  654MOL0     C88184   0.348   8.839   2.780 -0.3025 -0.4139 -0.1029
  654MOL0     C88185   0.247   8.756   2.721 -0.4930  0.3951  0.2513
  654MOL0     O88186   0.161   8.703   2.802 -0.4838  0.2783  0.4041
  654MOL0     C88187   0.079   8.595   2.763 -0.1500 -0.2683  0.2061
  654MOL0     C88188  -0.045   8.581   2.819 -0.3577  0.2350 -0.6606
  654MOL0     C88189  -0.128   8.477   2.780 -0.3216 -1.3913  0.0374
  654MOL0     C88190  -0.100   8.396   2.675  0.0076  0.0026 -0.6937
  654MOL0     O88191  -0.199   8.301   2.651  0.4700  0.2341  0.1998
  654MOL0     C88192  -0.187   8.232   2.523  0.3590 -0.4228 -0.4724
  654MOL0     C88193  -0.274   8.105   2.530 -0.2428  0.0255  0.1258
  654MOL0     C88194  -0.425   8.136   2.530 -0.8537 -0.4777  0.7777
  654MOL0     C88195  -0.507   8.008   2.549  0.2037  0.0962  0.2625
  654MOL0     C88196  -0.652   8.036   2.569  0.0618 -0.1920  0.5057
  654MOL0     C88197  -0.725   7.914   2.606 -0.2792  0.2126  0.3465
  654MOL0     C88198  -0.746   7.806   2.495  0.6624 -0.6279 -0.5969
  654MOL0     C88199  -0.840   7.706   2.547 -0.3460 -0.0327 -0.0774
  654MOL0    Cl88200  -0.777   7.631   2.707  0.0098  0.0685 -0.2930
  654MOL0     C88201   0.028   8.404   2.618  0.0834 -0.5981  0.5542
  654MOL0     C88202   0.114   8.505   2.662  0.1128  1.4275  0.0728
  654MOL0     O88203   0.249   8.736   2.601  0.7904  0.1599 -0.3704
  654MOL0     C88204   0.360   8.848   2.918  0.3669 -0.5802 -0.3460
  654MOL0     C88205   0.446   8.929   2.978  0.6171 -0.0225  0.4325
  654MOL0     N88206   0.970   9.137   2.812  0.4216  0.9889  0.1360
  654MOL0     N88207   0.972   9.258   2.777 -0.6557  0.2772  0.4001
  654MOL0     C88208   1.833   9.217   2.331  0.5699 -0.5151  0.3635
  654MOL0     C88209   1.927   9.143   2.250  0.4693 -0.4856 -0.3553
  654MOL0     C88210   2.289   9.071   1.965 -0.4313  0.8954 -0.5367
  654MOL0     C88211   2.267   8.934   1.968 -0.7110 -0.1560  0.6742
  654MOL0     C88212   2.349   8.853   1.889 -0.3363  0.1538 -0.9975
  654MOL0     C88213   2.460   8.907   1.823  0.7467  0.5076 -0.0448
  654MOL0     O88214   2.545   8.814   1.763  0.6119  0.8494  0.5072
  654MOL0     C88215   2.688   8.836   1.776  0.6848  0.4493 -0.4109
  654MOL0     C88216   2.743   8.846   1.919  0.9145  0.6525  0.1895
  654MOL0     C88217   2.750   8.711   1.981  0.4905 -0.5228 -0.8577
  654MOL0     C88218   2.815   8.713   2.126 -0.1989 -0.0848  0.0668
  654MOL0     C88219   2.959   8.711   2.095 -0.6515 -0.0565  0.5348
  654MOL0     C88220   3.076   8.700   2.065 -0.3867  0.3366 -0.0891
  654MOL0     C88221   2.481   9.046   1.817  0.0849  0.0708  0.9392
  654MOL0     C88222   2.387   9.125   1.880 -0.8712 -1.1529 -0.4802
  654MOL0     H88223   2.081   9.399   2.082  0.1607  0.8424  0.3850
  654MOL0     H88224   1.968   9.526   2.233  1.1213  0.7809  4.2972
  654MOL0     H88225   1.820   9.612   2.435  0.9926  0.5371 -2.2011
  654MOL0     H88226   1.733   9.591   2.269  2.3687 -1.8253 -0.0595
  654MOL0     H88227   1.581   9.712   2.396 -2.1592 -0.7302 -4.8578
  654MOL0     H88228   1.531   9.540   2.361  2.1219  0.7008 -2.5389
  654MOL0     H88229   1.613   9.489   2.601 -0.5735 -0.2540 -0.2199
  654MOL0     H88230   1.610   9.659   2.631 -3.2869 -2.7028  5.4919
  654MOL0     H88231   1.389   9.700   2.565 -1.2376 -0.3864 -3.7364
  654MOL0     H88232   1.363   9.542   2.511  2.5421  0.8096 -2.1999
  654MOL0     H88233   1.453   9.456   2.752  5.0213  1.7505 -2.8629
  654MOL0     H88234   1.422   9.617   2.802 -0.2793 -0.3262  0.7027
  654MOL0     H88235   1.172   9.543   2.668 -0.8853 -0.0974 -0.6626
  654MOL0     H88236   1.236   9.394   2.691 -1.7724  1.8268 -3.4247
  654MOL0     H88237   1.232   9.461   2.955 -2.3261 -1.2207  0.6687
  654MOL0     H88238   1.197   9.626   2.907  1.3165 -0.3108  0.7950
  654MOL0     H88239   0.976   9.519   2.806 -0.4512  0.0493 -0.0330
  654MOL0     H88240   0.994   9.508   2.981 -1.8207 -1.3275 -0.1258
  654MOL0     H88241   1.118   9.257   3.075  3.1984 -0.1186 -1.4678
  654MOL0     H88242   0.995   8.907   2.967  1.1702 -0.6668  0.8541
  654MOL0     H88243   1.135   8.972   3.051  0.0431 -0.9737 -1.2450
  654MOL0     H88244   1.006   9.070   3.229  0.4528 -2.8308  2.1218
  654MOL0     H88245   0.942   8.913   3.194 -0.2183 -0.4236  0.3524
  654MOL0     H88246   0.826   9.181   3.108  2.2054  0.3609  0.3713
  654MOL0     H88247   0.766   9.065   3.231  0.9831 -2.8713  0.9085
  654MOL0     H88248   0.695   8.905   3.087 -1.9022 -0.4196  0.0281
  654MOL0     H88249   0.790   8.966   2.945 -2.6326 -2.0257 -0.0956
  654MOL0     H88250   0.575   9.073   2.716 -3.9671  0.9512 -3.2060
  654MOL0     H88251   0.313   8.985   2.540 -0.4569 -0.3072  0.0277
  654MOL0     H88252   0.486   9.028   2.523 -1.1241  1.0337 -2.3417
  654MOL0     H88253   0.418   8.857   2.490 -3.6021  1.0074 -1.1441
  654MOL0     H88254  -0.081   8.651   2.893 -1.8666  1.8860 -2.8267
  654MOL0     H88255  -0.224   8.483   2.831  1.4126  1.0691  3.4181
  654MOL0     H88256  -0.212   8.296   2.438 -1.1916 -1.6964 -1.0177
  654MOL0     H88257  -0.089   8.188   2.507  0.7414 -0.1840  1.0192
  654MOL0     H88258  -0.263   8.036   2.446  0.5188  2.9455 -2.3415
  654MOL0     H88259  -0.241   8.050   2.619  1.1994  0.6957  0.0262
  654MOL0     H88260  -0.456   8.189   2.439 -0.2813 -1.1140  0.2021
  654MOL0     H88261  -0.445   8.197   2.619  0.8024  1.6155 -0.1961
  654MOL0     H88262  -0.498   7.928   2.475 -0.4254 -0.5241  0.8366
  654MOL0     H88263  -0.475   7.958   2.641  2.3484 -0.8799 -0.9378
  654MOL0     H88264  -0.697   8.078   2.478  0.5920 -3.6778 -1.5347
  654MOL0     H88265  -0.674   8.100   2.655 -0.0730 -2.3711  2.1806
  654MOL0     H88266  -0.678   7.876   2.697  1.2473  2.9696  0.8354
  654MOL0     H88267  -0.827   7.945   2.633 -0.1622 -0.0337  1.1059
  654MOL0     H88268  -0.647   7.761   2.480  3.5984  5.2065 -1.7100
  654MOL0     H88269  -0.776   7.847   2.399 -0.5291 -0.5066 -0.1871
  654MOL0     H88270  -0.862   7.632   2.470 -0.9888  0.5322 -0.4482
  654MOL0     H88271  -0.934   7.758   2.565 -0.4649  0.9995 -3.1689
  654MOL0     H88272   0.062   8.353   2.529  0.0519  0.9803 -0.3811
  654MOL0     H88273   0.210   8.505   2.612  0.8430  0.3758  1.3901
  654MOL0     H88274   0.296   8.783   2.977  2.6337 -0.4556  2.4068
  654MOL0     H88275   0.443   8.951   3.085 -0.9356 -0.4880  0.5239
  654MOL0     H88276   1.753   9.173   2.390 -1.4442  3.1622  0.6871
  654MOL0     H88277   1.925   9.038   2.225 -2.7676 -0.2797 -1.4222
  654MOL0     H88278   2.190   8.894   2.033  2.3802 -1.6417  3.7487
  654MOL0     H88279   2.328   8.746   1.893  0.5834  0.0013  0.8545
  654MOL0     H88280   2.737   8.748   1.734  0.7371  0.0627  0.4391
  654MOL0     H88281   2.715   8.930   1.727 -0.3419  1.0263  0.1057
  654MOL0     H88282   2.663   8.903   1.967  0.5988  1.0353 -0.7653
  654MOL0     H88283   2.834   8.901   1.945  1.9479 -0.0382 -1.6999
  654MOL0     H88284   2.812   8.641   1.925  4.0324  1.6482  0.0614
  654MOL0     H88285   2.652   8.663   1.998 -0.7593  2.2759  0.4410
  654MOL0     H88286   2.792   8.620   2.179 -3.4925  0.8134  0.4178
  654MOL0     H88287   2.782   8.802   2.180  1.3113  2.0555 -2.2967
  654MOL0     H88288   3.176   8.694   2.026  1.0914  5.0127  2.1955
  654MOL0     H88289   2.571   9.086   1.771 -0.2195  0.0881  0.3429
  654MOL0     H88290   2.413   9.229   1.862 -0.7718 -0.7697  1.6760
  655MOL0     O88291   8.523   0.448   7.942  0.4255  0.1779 -0.0410
  655MOL0     C88292   8.550   0.434   7.824 -1.1022 -0.7094 -0.0356
  655MOL0     O88293   8.507   0.332   7.746  0.5123  0.2844  0.0750
  655MOL0     C88294   8.394   0.255   7.795  0.1178 -0.2540 -0.6260
  655MOL0     C88295   8.267   0.301   7.792 -0.6726  0.4462 -0.4215
  655MOL0     C88296   8.163   0.217   7.825 -0.3717 -0.5940  0.5594
  655MOL0     C88297   8.185   0.086   7.873 -0.0214  0.3210 -0.2953
  655MOL0     O88298   8.084   0.004   7.901  0.6058  0.1196  0.1309
  655MOL0     C88299   7.970   0.061   7.962 -0.0502 -0.1909  0.1758
  655MOL0     C88300   8.006   0.122   8.101  0.9888 -0.1161 -0.0714
  655MOL0     C88301   7.878   0.151   8.192 -0.4126 -0.2001 -0.1155
  655MOL0     C88302   7.904   0.152   8.338  0.8342 -0.3064 -0.0411
  655MOL0     C88303   7.778   0.150   8.426  0.3396  0.3016  0.2236
  655MOL0     C88304   7.660   0.235   8.388 -0.7726 -0.7595 -0.3148
  655MOL0     C88305   7.551   0.218   8.498 -0.5957  0.2086  0.9773
  655MOL0     C88306   7.448   0.335   8.485 -0.5799  0.7148 -0.7466
  655MOL0     N88307   7.373   0.329   8.363 -0.4222 -0.5589  0.4860
  655MOL0     C88308   7.256   0.263   8.355  1.6804 -1.2016 -0.8108
  655MOL0     C88309   7.191   0.309   8.247 -0.4299  0.8117 -0.6593
  655MOL0     C88310   7.043   0.283   8.202  0.1317 -1.4348  1.4916
  655MOL0     C88311   7.065   0.207   8.073 -0.2250  1.0841 -0.7898
  655MOL0     C88312   6.931   0.153   8.012  0.8552  0.7074  0.8029
  655MOL0     C88313   6.919   0.003   8.013  0.4766  0.6780 -0.0633
  655MOL0     O88314   6.811  -0.042   7.936  0.6937 -0.6387  0.4169
  655MOL0     C88315   6.685  -0.004   7.957 -0.3802 -0.1918  0.8297
  655MOL0     C88316   6.631  -0.009   8.086 -0.8976  0.8770 -0.5426
  655MOL0     C88317   6.503   0.027   8.115  0.1850 -0.2198  0.3101
  655MOL0     C88318   6.459   0.004   8.259  0.3297  0.8578 -0.6295
  655MOL0     C88319   6.414   0.065   8.005 -0.1219  0.5293 -0.3738
  655MOL0     C88320   6.282   0.119   8.041 -0.3392  0.0201 -0.1014
  655MOL0     O88321   6.195   0.099   7.942 -0.1573  0.0580  0.1798
  655MOL0     C88322   6.067   0.133   7.966 -0.0160 -0.2614 -0.0074
  655MOL0     C88323   5.974   0.036   7.985  0.6831 -0.3386 -0.0099
  655MOL0     C88324   5.840   0.070   8.029 -0.1099 -0.1580  0.3616
  655MOL0     C88325   5.802   0.204   8.038 -0.2220 -0.4051 -0.7611
  655MOL0     O88326   5.678   0.228   8.078  0.1358  0.6424 -0.8029
  655MOL0     C88327   5.640   0.360   8.103 -0.8426  0.3304  0.1286
  655MOL0     C88328   5.520   0.334   8.195  0.8583  0.5141  0.1058
  655MOL0     C88329   5.405   0.288   8.102  0.2807  0.3210  0.0866
  655MOL0     C88330   5.296   0.206   8.179 -0.1875  0.2618  0.7900
  655MOL0     C88331   5.227   0.280   8.291 -0.6723 -0.3798  0.2467
  655MOL0     C88332   5.098   0.207   8.354 -0.9856 -0.1249  0.4481
  655MOL0     C88333   4.962   0.258   8.304  0.6573 -0.0465 -0.0047
  655MOL0     C88334   4.923   0.193   8.177 -0.3098  0.5487  0.0806
  655MOL0    Cl88335   4.758   0.253   8.144  0.2970 -0.6936 -0.0305
  655MOL0     C88336   5.902   0.302   8.008  0.6018 -1.1529  0.6251
  655MOL0     C88337   6.036   0.267   7.967  0.1274 -0.6998 -0.1540
  655MOL0     O88338   6.269   0.189   8.136 -0.3761 -0.1614 -0.3260
  655MOL0     C88339   6.464   0.069   7.877 -0.7205  0.2646 -0.2798
  655MOL0     C88340   6.596   0.037   7.852  0.3812 -0.4886  0.3535
  655MOL0     N88341   7.281   0.386   8.181  1.0670 -0.9623 -0.0711
  655MOL0     N88342   7.395   0.400   8.249  0.1004 -1.3483  0.3993
  655MOL0     C88343   8.315   0.045   7.886  0.4255 -0.5642 -0.0869
  655MOL0     C88344   8.418   0.127   7.843 -0.3560  0.3928 -0.0405
  655MOL0     C88345   8.643   0.527   7.756  0.3929  0.2698 -1.0209
  655MOL0     C88346   8.709   0.486   7.640 -0.3503 -1.0301 -0.7919
  655MOL0     C88347   8.794   0.573   7.577 -0.0954 -0.6295 -0.0369
  655MOL0     C88348   8.813   0.708   7.620  0.0007 -1.4022  0.7502
  655MOL0     O88349   8.900   0.805   7.563  0.5013  0.7524 -0.2594
  655MOL0     C88350   8.959   0.767   7.434 -0.1578 -0.0753 -0.2620
  655MOL0     C88351   9.036   0.879   7.375  0.1261 -0.3877 -0.8491
  655MOL0     C88352   9.100   0.821   7.250  0.0807  0.1862 -0.2780
  655MOL0     C88353   9.124   0.921   7.146 -0.3915  0.0570  0.4707
  655MOL0     C88354   9.208   0.854   7.046  0.7620 -0.3092 -0.0180
  655MOL0     C88355   9.292   0.809   6.963  0.4607 -0.5922  0.5100
  655MOL0     C88356   8.739   0.745   7.732 -0.0852  0.6496 -0.6644
  655MOL0     C88357   8.655   0.657   7.801 -1.3650 -0.1572  0.1041
  655MOL0     H88358   8.250   0.405   7.765  2.1725  0.5855 -2.1978
  655MOL0     H88359   8.063   0.259   7.817  0.8685  2.6420  0.6261
  655MOL0     H88360   7.927   0.135   7.894  3.7435  2.8670  0.7466
  655MOL0     H88361   7.894  -0.015   7.979 -1.6347  0.9557 -1.4406
  655MOL0     H88362   8.068   0.043   8.146 -0.1496 -2.1960 -1.9303
  655MOL0     H88363   8.068   0.211   8.088  2.7619 -1.5124 -1.6650
  655MOL0     H88364   7.849   0.253   8.164  1.5218  0.3997 -0.1342
  655MOL0     H88365   7.809   0.072   8.164 -1.3302  0.5104  0.1001
  655MOL0     H88366   7.970   0.074   8.378 -0.6459 -1.1328  0.8836
  655MOL0     H88367   7.948   0.250   8.359  1.0271 -0.5322  0.6381
  655MOL0     H88368   7.741   0.048   8.440  0.7801  0.1569  0.3494
  655MOL0     H88369   7.804   0.182   8.528 -1.6202 -0.9834  1.1873
  655MOL0     H88370   7.704   0.335   8.385 -3.9987  0.7576 -0.9883
  655MOL0     H88371   7.624   0.219   8.286  0.3203  0.5905 -0.9473
  655MOL0     H88372   7.505   0.120   8.485 -0.3473 -0.0572  1.9873
  655MOL0     H88373   7.595   0.215   8.598  0.4141 -2.6256  0.5380
  655MOL0     H88374   7.494   0.434   8.494 -0.0056  0.6089 -2.1901
  655MOL0     H88375   7.363   0.324   8.553 -1.1143  0.0990 -1.4861
  655MOL0     H88376   7.222   0.187   8.425  1.5176  0.8244  1.4531
  655MOL0     H88377   6.986   0.228   8.277 -2.6097 -0.5044  0.2039
  655MOL0     H88378   6.994   0.379   8.187  0.9341 -1.2716 -0.5301
  655MOL0     H88379   7.131   0.123   8.094 -1.7434 -0.1048 -0.5613
  655MOL0     H88380   7.109   0.275   7.999  1.7122 -1.5062 -2.1590
  655MOL0     H88381   6.928   0.180   7.906 -0.0078  0.2198  0.6880
  655MOL0     H88382   6.847   0.206   8.060 -0.1022 -0.2407  0.2194
  655MOL0     H88383   6.914  -0.038   8.114 -1.5814 -0.1799 -0.4690
  655MOL0     H88384   7.007  -0.030   7.956 -1.4401 -1.3458 -2.0528
  655MOL0     H88385   6.697  -0.042   8.165 -1.2360 -2.2773 -1.4322
  655MOL0     H88386   6.531  -0.061   8.310 -1.6144 -0.8459  0.0578
  655MOL0     H88387   6.461   0.101   8.311 -0.5453 -0.2600  1.6381
  655MOL0     H88388   6.362  -0.045   8.258  1.1629 -0.8821 -2.0896
  655MOL0     H88389   6.014  -0.064   7.998  0.1808 -0.4209  1.0135
  655MOL0     H88390   5.764  -0.001   8.062 -1.7251  0.6320 -1.4568
  655MOL0     H88391   5.712   0.418   8.161 -1.5772  0.6054  0.8003
  655MOL0     H88392   5.626   0.417   8.011 -0.6650 -0.4752 -0.4087
  655MOL0     H88393   5.529   0.266   8.280 -0.2599  0.4376  0.1785
  655MOL0     H88394   5.495   0.431   8.239  0.7264  0.0739  1.0232
  655MOL0     H88395   5.435   0.221   8.020 -2.3134 -1.3283  0.3586
  655MOL0     H88396   5.356   0.377   8.061  0.2072 -0.1368 -0.8433
  655MOL0     H88397   5.222   0.181   8.103  1.8729 -0.9692 -0.9508
  655MOL0     H88398   5.341   0.119   8.227 -1.4371 -0.6679  0.3301
  655MOL0     H88399   5.193   0.377   8.253 -1.0240 -0.8649 -0.7243
  655MOL0     H88400   5.307   0.296   8.364  1.1321 -0.4744 -1.6263
  655MOL0     H88401   5.110   0.099   8.345  1.2565  0.2124 -1.6801
  655MOL0     H88402   5.103   0.238   8.459  2.1931 -2.9706  1.3121
  655MOL0     H88403   4.971   0.364   8.281 -0.9420  0.2088  0.4761
  655MOL0     H88404   4.881   0.247   8.376 -2.1464 -0.8138 -3.0486
  655MOL0     H88405   4.913   0.084   8.189 -3.7233  0.9161  1.8189
  655MOL0     H88406   4.989   0.219   8.094  0.7401  1.7041  1.2327
  655MOL0     H88407   5.870   0.405   8.004  1.0815 -1.0089 -3.7106
  655MOL0     H88408   6.107   0.340   7.931 -0.9162  0.1877 -0.4747
  655MOL0     H88409   6.397   0.104   7.799  1.0013  1.9318 -1.0940
  655MOL0     H88410   6.627   0.051   7.749 -0.8476  0.7946  0.1167
  655MOL0     H88411   8.341  -0.058   7.910 -0.6385 -1.8015 -3.6585
  655MOL0     H88412   8.518   0.084   7.839  0.9130  3.1546 -0.5844
  655MOL0     H88413   8.690   0.389   7.596 -2.0337 -1.6764  1.1856
  655MOL0     H88414   8.854   0.534   7.496  1.1911 -0.4916  0.8246
  655MOL0     H88415   9.022   0.678   7.440  0.0243  0.1464  2.0638
  655MOL0     H88416   8.883   0.739   7.361  1.5612 -1.7248 -1.5185
  655MOL0     H88417   9.121   0.896   7.442 -0.8630  2.4262 -0.2044
  655MOL0     H88418   8.975   0.970   7.371 -1.5740 -1.2804  1.9734
  655MOL0     H88419   9.048   0.735   7.206  2.7448 -1.6222 -0.1333
  655MOL0     H88420   9.199   0.789   7.283 -0.9957 -0.4783  2.7177
  655MOL0     H88421   9.169   1.016   7.178  2.4083 -0.3388 -1.8086
  655MOL0     H88422   9.030   0.960   7.108 -0.0384  1.1761  0.7118
  655MOL0     H88423   9.358   0.775   6.887  1.8119  1.7162  0.5631
  655MOL0     H88424   8.735   0.848   7.768  0.3714 -0.0466  1.5396
  655MOL0     H88425   8.595   0.693   7.884 -1.7854  1.7596 -0.9540
  656MOL0     O88426   2.438   0.649   1.913  0.1049  0.6455 -0.0512
  656MOL0     C88427   2.483   0.575   1.996  0.1661 -0.1745  0.7962
  656MOL0     O88428   2.420   0.485   2.072  0.0691 -0.0409 -0.2368
  656MOL0     C88429   2.285   0.463   2.070  0.0219 -0.9210 -0.3199
  656MOL0     C88430   2.186   0.503   1.980 -0.4416 -0.7425 -0.1652
  656MOL0     C88431   2.058   0.473   2.001  0.4772  0.1029 -0.2231
  656MOL0     C88432   2.015   0.413   2.117 -0.3927  0.4493 -1.2474
  656MOL0     O88433   1.886   0.407   2.163 -0.2724 -0.1205 -0.3812
  656MOL0     C88434   1.803   0.517   2.123  0.6248 -0.0269 -0.3557
  656MOL0     C88435   1.662   0.482   2.154 -0.4916 -0.9501 -0.5507
  656MOL0     C88436   1.572   0.595   2.085 -0.3987 -0.3480  0.2009
  656MOL0     C88437   1.437   0.550   2.113  0.0766 -0.5327 -0.7102
  656MOL0     C88438   1.339   0.639   2.033  0.3836  0.3213  0.2399
  656MOL0     C88439   1.202   0.578   2.029 -0.1954 -0.4024 -0.0673
  656MOL0     C88440   1.091   0.655   1.960  0.9787 -0.0030 -0.6024
  656MOL0     C88441   0.953   0.585   1.956 -0.4637 -0.3685  0.1702
  656MOL0     N88442   0.853   0.687   1.906 -0.6988  0.8529  0.1272
  656MOL0     C88443   0.759   0.761   1.980 -0.3298 -0.2057 -0.5868
  656MOL0     C88444   0.711   0.847   1.902 -0.7498 -0.3098  1.5790
  656MOL0     C88445   0.594   0.932   1.933  0.4756  0.4122  0.0974
  656MOL0     C88446   0.482   0.864   2.014  0.2023  0.1022  0.8598
  656MOL0     C88447   0.386   0.967   2.075  0.1495  0.4374  0.0397
  656MOL0     C88448   0.285   0.893   2.170 -0.4737  1.3364  0.4265
  656MOL0     O88449   0.195   0.986   2.226 -0.5468  0.6964  0.1026
  656MOL0     C88450   0.088   0.955   2.317  0.2096  0.1452 -0.1047
  656MOL0     C88451   0.093   0.848   2.400 -0.0241  0.7075  0.6606
  656MOL0     C88452  -0.013   0.815   2.485 -1.0939 -0.3538  0.0249
  656MOL0     C88453   0.014   0.692   2.566  0.4834  0.3064  0.6471
  656MOL0     C88454  -0.123   0.907   2.495  0.2497  0.3899  0.5698
  656MOL0     C88455  -0.237   0.903   2.597 -0.9169 -1.0404  0.2357
  656MOL0     O88456  -0.299   1.025   2.617 -1.1831 -0.0652 -0.0760
  656MOL0     C88457  -0.418   1.019   2.689 -1.1446  0.7469 -1.1737
  656MOL0     C88458  -0.433   0.995   2.826 -0.0700 -0.0789  0.4846
  656MOL0     C88459  -0.554   0.970   2.886  0.1420  0.2876  0.6780
  656MOL0     C88460  -0.671   0.978   2.807 -0.5576  0.4419  0.4971
  656MOL0     O88461  -0.794   0.963   2.860  0.4020 -0.0337 -0.6703
  656MOL0     C88462  -0.803   0.913   2.997 -0.7414  0.5448  0.6715
  656MOL0     C88463  -0.795   0.756   2.983 -0.5788 -0.3383  0.6174
  656MOL0     C88464  -0.761   0.702   3.125  0.0615  0.3438 -0.0078
  656MOL0     C88465  -0.836   0.567   3.145 -0.0673  0.0571 -0.4488
  656MOL0     C88466  -0.805   0.507   3.284 -0.0606  0.0607 -0.1855
  656MOL0     C88467  -0.910   0.398   3.320 -0.6970 -0.9581 -0.0164
  656MOL0     C88468  -1.051   0.460   3.357  0.0229  0.9500  0.1878
  656MOL0     C88469  -1.137   0.365   3.448  0.1738 -0.4409 -0.1747
  656MOL0    Cl88470  -1.278   0.446   3.503 -0.1581 -0.2108  0.1371
  656MOL0     C88471  -0.659   1.013   2.673  0.6121 -0.5618  0.0654
  656MOL0     C88472  -0.529   1.032   2.613  0.8210 -0.0892  0.5178
  656MOL0     O88473  -0.256   0.803   2.657 -0.1016  0.7754 -0.2116
  656MOL0     C88474  -0.114   1.023   2.421  0.2332 -0.1292  0.7650
  656MOL0     C88475  -0.019   1.041   2.321  0.4367  0.6798 -0.4410
  656MOL0     N88476   0.771   0.838   1.776 -0.0401 -0.7046 -0.5717
  656MOL0     N88477   0.850   0.740   1.786  0.7328  0.4431  0.8212
  656MOL0     C88478   2.105   0.357   2.199  0.3693 -0.2767 -0.1576
  656MOL0     C88479   2.240   0.381   2.174 -0.3239 -0.0794 -0.3326
  656MOL0     C88480   2.630   0.569   2.034 -0.3534  0.3095  0.1438
  656MOL0     C88481   2.681   0.473   2.125 -0.3494 -0.3705 -0.6968
  656MOL0     C88482   2.804   0.491   2.176 -0.5665  0.0013  1.0346
  656MOL0     C88483   2.894   0.578   2.118 -0.2426 -0.4381  0.3525
  656MOL0     O88484   3.013   0.598   2.174 -0.3487 -0.1939 -0.4838
  656MOL0     C88485   3.123   0.531   2.107  0.0618 -0.3547 -0.1370
  656MOL0     C88486   3.206   0.643   2.046  0.4967 -0.8227  0.8755
  656MOL0     C88487   3.317   0.704   2.132 -0.3610 -0.2856  0.6469
  656MOL0     C88488   3.380   0.822   2.048  0.0670 -0.4045 -0.6057
  656MOL0     C88489   3.497   0.856   2.137  0.7177  1.1512  0.1506
  656MOL0     C88490   3.588   0.882   2.208 -1.0175 -0.3546 -0.1463
  656MOL0     C88491   2.850   0.663   2.014 -0.5922 -0.4917  0.0397
  656MOL0     C88492   2.721   0.658   1.970  0.2962 -0.2277 -0.0537
  656MOL0     H88493   2.199   0.559   1.888  0.1644  1.6703  1.3182
  656MOL0     H88494   1.993   0.517   1.926  1.1739 -1.6292 -1.9258
  656MOL0     H88495   1.820   0.614   2.170 -2.5404 -0.0642  1.1047
  656MOL0     H88496   1.805   0.525   2.014 -0.0617 -1.9349 -0.5471
  656MOL0     H88497   1.650   0.380   2.116 -0.7347 -1.0069 -0.3234
  656MOL0     H88498   1.643   0.495   2.261  0.3195  1.2636 -0.6334
  656MOL0     H88499   1.582   0.687   2.144 -1.0568 -1.4212  2.0626
  656MOL0     H88500   1.585   0.602   1.977 -0.8593 -3.2875 -0.1212
  656MOL0     H88501   1.435   0.444   2.084  1.7689 -0.6866 -0.3629
  656MOL0     H88502   1.409   0.568   2.217 -3.5401  2.1870 -1.9697
  656MOL0     H88503   1.329   0.737   2.081 -1.5237 -0.8728  2.4716
  656MOL0     H88504   1.371   0.656   1.930 -1.5587 -1.7697 -0.7752
  656MOL0     H88505   1.213   0.481   1.979  0.3248  0.1540 -1.0526
  656MOL0     H88506   1.170   0.564   2.133 -1.3866  4.9223  0.5422
  656MOL0     H88507   1.068   0.746   2.017 -0.3513  0.0890 -1.2692
  656MOL0     H88508   1.119   0.692   1.861  0.0861  1.6723 -0.2712
  656MOL0     H88509   0.932   0.550   2.058  0.1320 -3.1916 -0.5939
  656MOL0     H88510   0.948   0.501   1.887 -4.4111  1.7801 -2.5259
  656MOL0     H88511   0.743   0.741   2.086  1.9083  0.4261 -0.0781
  656MOL0     H88512   0.622   1.025   1.983  1.8554  0.7664 -1.2512
  656MOL0     H88513   0.547   0.966   1.841  0.2384  1.5277  0.6123
  656MOL0     H88514   0.536   0.807   2.090  1.8600 -1.3461 -1.2933
  656MOL0     H88515   0.434   0.793   1.945  1.8711  0.7070 -1.0336
  656MOL0     H88516   0.314   1.005   2.002 -0.1560 -0.0362  0.0949
  656MOL0     H88517   0.431   1.056   2.120  2.2787  0.2124 -1.4451
  656MOL0     H88518   0.337   0.831   2.244 -1.8425 -1.3450 -0.7270
  656MOL0     H88519   0.240   0.822   2.100  3.8019  0.3004 -1.6065
  656MOL0     H88520   0.183   0.791   2.384 -0.5123 -0.1575  0.9440
  656MOL0     H88521   0.044   0.610   2.500 -1.2694  0.3999 -0.3271
  656MOL0     H88522   0.096   0.711   2.636  1.4432  0.3873 -0.4696
  656MOL0     H88523  -0.083   0.655   2.601 -1.1828  1.7942 -2.0889
  656MOL0     H88524  -0.341   0.987   2.884 -0.5912 -2.7292  1.0603
  656MOL0     H88525  -0.544   0.944   2.990  1.6348  2.4940  1.1562
  656MOL0     H88526  -0.740   0.958   3.075 -0.0166  1.5530 -0.4666
  656MOL0     H88527  -0.902   0.936   3.040 -0.8820  4.1818 -1.2200
  656MOL0     H88528  -0.896   0.726   2.955 -0.4115  1.0049 -1.6253
  656MOL0     H88529  -0.722   0.729   2.906 -0.2142  0.5872  0.6241
  656MOL0     H88530  -0.797   0.770   3.203 -2.1167 -2.5771  1.6952
  656MOL0     H88531  -0.652   0.694   3.126  0.0779 -1.3728 -3.1209
  656MOL0     H88532  -0.942   0.595   3.138 -0.1708 -0.7719 -3.3211
  656MOL0     H88533  -0.804   0.489   3.076  0.4476  0.3725 -0.5706
  656MOL0     H88534  -0.804   0.587   3.358 -4.2209  2.2793 -2.1896
  656MOL0     H88535  -0.707   0.459   3.290  0.5087  1.0809 -1.1134
  656MOL0     H88536  -0.925   0.329   3.237 -0.7681  0.7283 -1.4660
  656MOL0     H88537  -0.872   0.330   3.396  1.0592 -0.8180 -0.7346
  656MOL0     H88538  -1.110   0.471   3.266 -2.2080 -1.1500  1.2504
  656MOL0     H88539  -1.041   0.564   3.389  1.9140  1.1319 -0.8143
  656MOL0     H88540  -1.083   0.328   3.535  1.2715  1.4253 -0.0144
  656MOL0     H88541  -1.172   0.282   3.386 -2.8910 -0.4528  1.3506
  656MOL0     H88542  -0.753   1.029   2.622  1.9058  2.6058 -1.6368
  656MOL0     H88543  -0.523   1.057   2.507  0.4326  1.7743  0.9053
  656MOL0     H88544  -0.198   1.092   2.427 -1.3845 -2.0729  1.8216
  656MOL0     H88545  -0.024   1.132   2.262  0.4701  1.5798  0.8855
  656MOL0     H88546   2.071   0.291   2.278 -1.7268  0.6984 -0.1885
  656MOL0     H88547   2.310   0.333   2.241  1.4223  0.3251 -1.7801
  656MOL0     H88548   2.621   0.400   2.179  1.1292 -1.7297 -0.8347
  656MOL0     H88549   2.829   0.436   2.266 -1.8260  0.4467  1.6707
  656MOL0     H88550   3.181   0.473   2.179 -1.8084 -1.2112  0.7739
  656MOL0     H88551   3.089   0.461   2.031 -2.5161  0.9458 -0.3076
  656MOL0     H88552   3.152   0.727   2.002  1.3854 -0.6286  0.1184
  656MOL0     H88553   3.254   0.586   1.966 -0.7960  1.4956 -1.7174
  656MOL0     H88554   3.379   0.619   2.161 -1.5598 -1.3259  0.2476
  656MOL0     H88555   3.271   0.747   2.222 -0.0078  0.3682  0.5256
  656MOL0     H88556   3.303   0.901   2.049  0.2693 -0.2060 -0.6204
  656MOL0     H88557   3.402   0.796   1.944  0.1965  2.1818 -1.2938
  656MOL0     H88558   3.676   0.901   2.267  1.9729  0.7442 -4.4378
  656MOL0     H88559   2.919   0.734   1.969 -1.7806  1.2043  0.7723
  656MOL0     H88560   2.666   0.725   1.904  0.2126  2.3648  2.4764
  657MOL0     O88561   8.127   1.135  11.056 -0.2117  0.5387 -0.7636
  657MOL0     C88562   8.217   1.089  10.988  0.7034 -0.6516  0.4312
  657MOL0     O88563   8.205   1.029  10.865  0.1140  0.2270 -0.1152
  657MOL0     C88564   8.078   1.027  10.811 -0.5227  0.6741 -0.7194
  657MOL0     C88565   8.037   0.909  10.750 -0.0028 -0.6202 -0.4499
  657MOL0     C88566   7.908   0.890  10.701 -0.1028  0.0937 -0.7160
  657MOL0     C88567   7.819   0.993  10.709  0.2548  0.9039  0.3656
  657MOL0     O88568   7.702   0.955  10.645 -1.1474  0.0616  0.0474
  657MOL0     C88569   7.601   1.049  10.656  0.5268  0.2883 -0.4300
  657MOL0     C88570   7.480   0.994  10.579 -0.4283 -0.4226 -0.0302
  657MOL0     C88571   7.356   1.033  10.671 -0.4075 -0.4672  0.1840
  657MOL0     C88572   7.218   1.032  10.595 -0.1661 -0.9400 -0.1313
  657MOL0     C88573   7.193   1.172  10.533  0.2741  0.2069 -0.3429
  657MOL0     C88574   7.049   1.183  10.477 -0.8361 -0.0210  0.3452
  657MOL0     C88575   7.036   1.074  10.367 -0.2751  0.2260 -0.1935
  657MOL0     C88576   6.924   1.110  10.265 -0.3347  0.1306  0.4571
  657MOL0     N88577   6.796   1.112  10.322  0.0291 -0.2504 -0.7992
  657MOL0     C88578   6.744   1.014  10.402  0.0661  0.4807 -0.4420
  657MOL0     C88579   6.619   1.045  10.420  0.3911 -0.1487 -0.4312
  657MOL0     C88580   6.517   0.952  10.492 -0.1105  0.3999  0.8329
  657MOL0     C88581   6.371   1.005  10.491 -1.2647  0.0308  1.4367
  657MOL0     C88582   6.321   1.032  10.348  0.0457  0.3498 -0.0750
  657MOL0     C88583   6.178   0.997  10.335 -0.1390  0.3607 -0.0174
  657MOL0     O88584   6.177   0.857  10.345  0.0972  0.4686  0.1860
  657MOL0     C88585   6.064   0.797  10.401  0.0629 -0.1780  0.6678
  657MOL0     C88586   6.057   0.652  10.397  0.8833  0.6079  0.5469
  657MOL0     C88587   5.934   0.580  10.422  0.2457  0.4340 -0.6564
  657MOL0     C88588   5.944   0.429  10.404 -0.4646 -0.0176 -0.0026
  657MOL0     C88589   5.820   0.650  10.470  0.6722 -1.0676 -0.2648
  657MOL0     C88590   5.688   0.598  10.532  0.6602  0.2949 -0.1695
  657MOL0     O88591   5.586   0.689  10.549 -0.0320  0.0366 -0.5826
  657MOL0     C88592   5.463   0.633  10.578 -0.2547 -0.1994  0.0125
  657MOL0     C88593   5.398   0.569  10.475  1.1172 -0.0333 -0.5466
  657MOL0     C88594   5.257   0.532  10.486  0.1346  0.3466  1.1059
  657MOL0     C88595   5.190   0.576  10.599  0.2101 -1.2425  0.1599
  657MOL0     O88596   5.061   0.543  10.632  0.4011  0.3866  0.1693
  657MOL0     C88597   4.986   0.454  10.554  0.1266  0.9900 -1.0931
  657MOL0     C88598   4.836   0.434  10.601 -1.1898  0.2901 -0.1187
  657MOL0     C88599   4.736   0.551  10.565 -0.1854  0.2830  0.0730
  657MOL0     C88600   4.739   0.593  10.419 -1.2202 -0.4165 -0.5675
  657MOL0     C88601   4.610   0.673  10.372 -0.2045  0.9426  0.6375
  657MOL0     C88602   4.478   0.587  10.405 -0.4027 -0.6813  0.3532
  657MOL0     C88603   4.354   0.648  10.329 -0.0355  0.6645 -1.0073
  657MOL0     C88604   4.225   0.601  10.402  0.8692  0.0545  0.4905
  657MOL0    Cl88605   4.173   0.722  10.521 -0.0770 -0.5007  0.0669
  657MOL0     C88606   5.254   0.657  10.693 -0.2020 -0.4658 -0.4631
  657MOL0     C88607   5.391   0.691  10.680  0.0244  0.0277  0.0653
  657MOL0     O88608   5.676   0.482  10.560 -0.1225 -0.2111  0.8314
  657MOL0     C88609   5.823   0.793  10.459  0.0453  0.8035  0.2232
  657MOL0     C88610   5.932   0.859  10.410 -0.5472  0.7815 -0.1580
  657MOL0     N88611   6.602   1.167  10.364 -0.0222 -0.4548 -0.1999
  657MOL0     N88612   6.697   1.207  10.305 -0.6350  0.4518  0.7287
  657MOL0     C88613   7.867   1.120  10.747  1.4262  0.2993 -0.7276
  657MOL0     C88614   7.990   1.137  10.805  0.0084  0.7080 -0.2508
  657MOL0     C88615   8.349   1.130  11.038  0.5397  0.3859 -0.2302
  657MOL0     C88616   8.378   1.144  11.173 -0.5240  0.6672 -1.1553
  657MOL0     C88617   8.511   1.164  11.215  0.3833 -0.5419 -0.0148
  657MOL0     C88618   8.620   1.182  11.127  0.7984 -0.0307 -0.1661
  657MOL0     O88619   8.743   1.215  11.178 -0.1958  0.2709 -0.4695
  657MOL0     C88620   8.851   1.125  11.156 -0.5611 -0.2095  0.0793
  657MOL0     C88621   8.972   1.142  11.251  0.3555  0.0864  0.3697
  657MOL0     C88622   9.070   1.043  11.202  0.4146 -0.4331  0.9024
  657MOL0     C88623   9.183   1.013  11.297  0.5570  1.0811 -0.0996
  657MOL0     C88624   9.282   0.930  11.235  0.0027  0.1406  0.8501
  657MOL0     C88625   9.366   0.843  11.207 -0.1542  0.2061 -0.6586
  657MOL0     C88626   8.586   1.158  10.995  0.3211  0.4526  0.3801
  657MOL0     C88627   8.457   1.147  10.950 -0.2994  0.6603 -0.0040
  657MOL0     H88628   8.095   0.818  10.756 -1.0706 -1.2338  1.8670
  657MOL0     H88629   7.881   0.794  10.657  5.3899 -1.1477 -2.2255
  657MOL0     H88630   7.584   1.058  10.764 -1.9243 -0.3855 -0.7037
  657MOL0     H88631   7.625   1.148  10.617 -1.4743  1.1307  0.3885
  657MOL0     H88632   7.478   1.042  10.481 -1.1391 -1.6292 -0.6335
  657MOL0     H88633   7.493   0.885  10.581  0.1096 -0.4004  3.1417
  657MOL0     H88634   7.360   0.961  10.753  1.3562 -0.9177 -0.2488
  657MOL0     H88635   7.363   1.134  10.714  2.7085  0.4955 -2.1971
  657MOL0     H88636   7.227   0.956  10.517 -2.9232  0.4519 -1.9764
  657MOL0     H88637   7.136   1.021  10.666  1.5872 -1.3819  1.9396
  657MOL0     H88638   7.199   1.253  10.606  0.6162  0.9479 -1.1670
  657MOL0     H88639   7.272   1.189  10.459  1.0134 -3.0295 -0.4631
  657MOL0     H88640   6.973   1.177  10.555 -0.0133  1.5809  1.3296
  657MOL0     H88641   7.035   1.286  10.443 -1.8147  0.3531  1.8166
  657MOL0     H88642   7.128   1.056  10.309  1.4721  2.5300  1.6737
  657MOL0     H88643   7.016   0.988  10.431 -0.1329 -0.4875 -1.0713
  657MOL0     H88644   6.923   1.038  10.183  0.2420 -2.3207  2.4826
  657MOL0     H88645   6.945   1.209  10.224 -1.1762  1.0528  2.1191
  657MOL0     H88646   6.785   0.917  10.426 -1.5669 -0.4775 -1.3411
  657MOL0     H88647   6.531   0.848  10.460  4.0882  0.8383  0.6999
  657MOL0     H88648   6.545   0.958  10.598  0.1428  1.4825  0.7086
  657MOL0     H88649   6.369   1.097  10.552  2.7419  1.0358  0.3149
  657MOL0     H88650   6.312   0.926  10.537 -0.1493 -0.8707  1.3478
  657MOL0     H88651   6.372   0.966  10.278 -0.0466 -0.6295  0.7648
  657MOL0     H88652   6.342   1.136  10.320  1.6650  0.3788  1.0962
  657MOL0     H88653   6.129   1.028  10.243 -0.8526  2.6850  1.0577
  657MOL0     H88654   6.122   1.047  10.415  2.7229  0.6729  1.9457
  657MOL0     H88655   6.141   0.595  10.359 -0.8788 -1.8456  0.0837
  657MOL0     H88656   5.997   0.406  10.311 -2.2796 -1.6562 -0.7025
  657MOL0     H88657   5.987   0.386  10.495 -1.3705  2.1025  1.5147
  657MOL0     H88658   5.849   0.381  10.378  0.7425 -1.0271 -3.0373
  657MOL0     H88659   5.446   0.553  10.379  1.1621 -0.5727 -0.4365
  657MOL0     H88660   5.211   0.490  10.397 -1.8379  0.0262  2.2257
  657MOL0     H88661   4.983   0.477  10.447 -0.3827 -0.9994 -1.5519
  657MOL0     H88662   5.028   0.354  10.567 -1.4521  0.1381 -2.2437
  657MOL0     H88663   4.800   0.350  10.541  0.6622  0.3263 -1.3406
  657MOL0     H88664   4.830   0.410  10.707  0.0175  1.9079  0.3573
  657MOL0     H88665   4.762   0.640  10.623  1.5154 -1.0739  1.5400
  657MOL0     H88666   4.641   0.522  10.610  0.4563  1.5491  2.3674
  657MOL0     H88667   4.827   0.657  10.406  0.0372 -1.8257  0.5835
  657MOL0     H88668   4.759   0.503  10.359  1.9454  1.5534 -2.7942
  657MOL0     H88669   4.623   0.701  10.267  4.2187 -0.0085  0.7392
  657MOL0     H88670   4.605   0.767  10.427  0.8278  1.0990  0.4846
  657MOL0     H88671   4.498   0.485  10.370 -1.1665 -0.1903 -1.6668
  657MOL0     H88672   4.454   0.586  10.511  0.5828  0.8661  0.6242
  657MOL0     H88673   4.357   0.609  10.227  1.5112 -0.3292 -0.6134
  657MOL0     H88674   4.354   0.757  10.335  2.7212  0.6416  1.7075
  657MOL0     H88675   4.236   0.507  10.457  2.4490 -0.1580 -0.1456
  657MOL0     H88676   4.150   0.596  10.323  0.7518  2.1859  0.4168
  657MOL0     H88677   5.199   0.705  10.774  1.9129  0.2112  0.6373
  657MOL0     H88678   5.450   0.753  10.746 -0.2746  0.3194  0.0610
  657MOL0     H88679   5.738   0.854  10.486 -1.7876  0.0862 -3.2639
  657MOL0     H88680   5.927   0.967  10.394  2.3038  1.0606  0.3512
  657MOL0     H88681   7.799   1.204  10.744 -0.9232 -1.5180 -0.7060
  657MOL0     H88682   8.012   1.239  10.834 -1.8483  0.8308  0.8729
  657MOL0     H88683   8.300   1.146  11.249 -0.6878 -2.0255 -1.1596
  657MOL0     H88684   8.531   1.165  11.322 -1.2244 -0.0241  0.3140
  657MOL0     H88685   8.812   1.024  11.172 -1.1472  0.0625  0.3839
  657MOL0     H88686   8.894   1.133  11.056  0.6778  1.7988  0.6994
  657MOL0     H88687   8.935   1.124  11.353 -3.7782 -0.5982 -1.0669
  657MOL0     H88688   9.016   1.241  11.238  3.8420 -1.5645 -1.9018
  657MOL0     H88689   9.114   1.078  11.108  1.0123 -1.1604  0.9030
  657MOL0     H88690   9.014   0.954  11.175 -0.7049  1.0106 -2.0089
  657MOL0     H88691   9.147   0.965  11.388 -1.2817 -0.8324 -1.7556
  657MOL0     H88692   9.226   1.111  11.324 -0.7897  1.5355  0.4531
  657MOL0     H88693   9.441   0.772  11.180  2.1670  2.0484  0.6136
  657MOL0     H88694   8.656   1.164  10.912 -0.9005 -0.3359 -0.7569
  657MOL0     H88695   8.422   1.132  10.848 -1.3283  2.0040  0.1168
  658MOL0     O88696   3.873   5.465   6.082 -0.2651  0.0768 -0.5889
  658MOL0     C88697   3.937   5.380   6.140 -0.4385  0.5589  0.1098
  658MOL0     O88698   3.879   5.274   6.211 -0.6258 -0.3538  0.0293
  658MOL0     C88699   3.746   5.277   6.213  0.0374 -0.4924  0.4695
  658MOL0     C88700   3.683   5.352   6.317 -0.3491  0.6023  0.3413
  658MOL0     C88701   3.545   5.358   6.310 -0.5101  0.1258 -1.1762
  658MOL0     C88702   3.461   5.312   6.208 -0.3184  0.5016 -0.1002
  658MOL0     O88703   3.332   5.344   6.224  0.1590 -0.2889  0.1708
  658MOL0     C88704   3.251   5.315   6.112  0.0989  0.3585  0.5251
  658MOL0     C88705   3.101   5.358   6.132  0.3812 -0.7895  0.1277
  658MOL0     C88706   3.066   5.391   6.272  0.1482  0.3629 -0.3506
  658MOL0     C88707   2.923   5.384   6.299  0.4277 -0.8665 -0.4660
  658MOL0     C88708   2.893   5.398   6.445  0.7067  0.0848 -0.1029
  658MOL0     C88709   2.743   5.425   6.484 -0.4104  0.6991 -0.2092
  658MOL0     C88710   2.644   5.315   6.426 -0.4258 -0.1777 -0.2956
  658MOL0     C88711   2.501   5.344   6.455  0.0595  0.1698  0.1914
  658MOL0     N88712   2.418   5.239   6.404 -0.1134 -0.5347 -0.2885
  658MOL0     C88713   2.385   5.226   6.273  0.1478  0.9066 -0.3309
  658MOL0     C88714   2.273   5.146   6.270 -0.7483  0.5519 -0.7137
  658MOL0     C88715   2.206   5.102   6.142 -0.1372  1.1988  0.4936
  658MOL0     C88716   2.252   4.967   6.099  0.2260  0.2104 -0.3867
  658MOL0     C88717   2.157   4.870   6.182 -0.7186 -0.0879  0.3762
  658MOL0     C88718   2.211   4.733   6.189  0.0052  0.3920 -0.6347
  658MOL0     O88719   2.222   4.679   6.061 -0.5378  0.7790  0.7712
  658MOL0     C88720   2.340   4.622   6.031 -1.0712  0.0004 -0.3717
  658MOL0     C88721   2.422   4.552   6.124  0.0276 -0.5007  0.0071
  658MOL0     C88722   2.522   4.470   6.077  0.6815  0.6279  0.2257
  658MOL0     C88723   2.568   4.374   6.176  0.7119 -0.6391  0.3975
  658MOL0     C88724   2.561   4.461   5.942 -0.2982  0.3171 -0.0302
  658MOL0     C88725   2.680   4.381   5.884 -0.3953 -0.0034  0.0742
  658MOL0     O88726   2.690   4.370   5.755 -0.1490 -0.0746  0.6210
  658MOL0     C88727   2.785   4.292   5.704 -0.1558  0.6313 -0.4449
  658MOL0     C88728   2.908   4.339   5.678  0.3145 -0.7742  0.1821
  658MOL0     C88729   3.003   4.250   5.629  0.4042  0.6290  0.4113
  658MOL0     C88730   2.979   4.114   5.606  0.3124  0.7244 -0.2992
  658MOL0     O88731   3.091   4.038   5.581 -0.2457 -0.0850 -0.2220
  658MOL0     C88732   3.085   3.900   5.579  0.8894 -0.1883 -0.6616
  658MOL0     C88733   3.215   3.840   5.520 -0.3590 -0.2672 -0.5715
  658MOL0     C88734   3.180   3.699   5.455 -0.5444 -0.5327  0.6502
  658MOL0     C88735   3.313   3.624   5.417 -0.3467  0.1784  0.3332
  658MOL0     C88736   3.286   3.482   5.361 -0.5354  0.4452  0.0396
  658MOL0     C88737   3.241   3.383   5.477 -0.6138 -0.3928  0.0360
  658MOL0     C88738   3.183   3.254   5.438 -0.3433 -0.0542 -0.1318
  658MOL0     C88739   3.153   3.167   5.566  0.3710 -0.6720  0.2555
  658MOL0    Cl88740   3.041   3.243   5.673  0.1796 -0.1159 -0.0217
  658MOL0     C88741   2.848   4.063   5.625  0.4245 -0.0717  0.2127
  658MOL0     C88742   2.746   4.151   5.670  0.6793 -1.3781  0.5042
  658MOL0     O88743   2.760   4.332   5.967 -0.0464 -1.0779  0.0294
  658MOL0     C88744   2.494   4.543   5.847 -1.0974  0.3932  0.0041
  658MOL0     C88745   2.390   4.622   5.892  0.0367  0.1724  0.4943
  658MOL0     N88746   2.238   5.109   6.398  0.9181 -0.4018 -0.1371
  658MOL0     N88747   2.321   5.183   6.480 -0.5938  0.8181  0.6097
  658MOL0     C88748   3.526   5.252   6.099 -0.8358 -0.4918 -0.6880
  658MOL0     C88749   3.666   5.224   6.107  0.0680 -0.6197  1.3398
  658MOL0     C88750   4.087   5.392   6.136 -0.1769 -0.2497 -0.5929
  658MOL0     C88751   4.168   5.303   6.202  0.1964 -0.1743  0.4034
  658MOL0     C88752   4.307   5.309   6.196 -0.8048 -0.6239 -0.0297
  658MOL0     C88753   4.374   5.414   6.134  0.4780 -0.5458  0.9729
  658MOL0     O88754   4.512   5.438   6.141  0.2450  0.3790 -0.4588
  658MOL0     C88755   4.567   5.446   6.270 -0.0487 -0.4298 -0.1046
  658MOL0     C88756   4.677   5.338   6.277 -0.3190  0.3123 -0.4879
  658MOL0     C88757   4.803   5.370   6.191  0.5572  0.6892 -0.4858
  658MOL0     C88758   4.844   5.244   6.121 -0.3080  0.0657 -0.4791
  658MOL0     C88759   4.967   5.246   6.046 -0.1719 -0.4678  0.6517
  658MOL0     C88760   5.062   5.255   5.966 -0.1258 -0.1054  0.3763
  658MOL0     C88761   4.298   5.500   6.060  0.3808  0.6401  0.4301
  658MOL0     C88762   4.154   5.490   6.061  0.0647 -0.6143 -1.2179
  658MOL0     H88763   3.740   5.396   6.398  0.5165  3.6368 -1.7528
  658MOL0     H88764   3.494   5.409   6.391 -1.7223 -1.6181 -0.7676
  658MOL0     H88765   3.293   5.355   6.019 -2.3033 -1.7599 -1.6076
  658MOL0     H88766   3.245   5.206   6.117  0.8132  0.3797  2.9428
  658MOL0     H88767   3.070   5.449   6.079 -6.5792 -1.6517  1.7273
  658MOL0     H88768   3.058   5.261   6.109  1.6548 -3.0502  5.6223
  658MOL0     H88769   3.121   5.327   6.342  1.5022  0.4483 -1.2991
  658MOL0     H88770   3.108   5.488   6.296 -0.0605  0.4062 -0.1485
  658MOL0     H88771   2.879   5.469   6.246  3.7690  0.0957 -1.9607
  658MOL0     H88772   2.872   5.292   6.268  1.0047 -1.9425  1.6178
  658MOL0     H88773   2.908   5.298   6.487 -1.7814  0.0254  0.8034
  658MOL0     H88774   2.954   5.478   6.489  2.1148  0.0503 -1.8772
  658MOL0     H88775   2.726   5.413   6.591  1.9218 -1.5537 -0.0065
  658MOL0     H88776   2.717   5.526   6.450 -0.5740  0.5199 -0.6237
  658MOL0     H88777   2.667   5.298   6.321  0.4618 -2.7750  0.2428
  658MOL0     H88778   2.663   5.224   6.484  0.3228  0.4638  0.5088
  658MOL0     H88779   2.479   5.437   6.401  0.8763 -1.4825 -3.2191
  658MOL0     H88780   2.478   5.357   6.562 -0.0424 -0.1631  0.2104
  658MOL0     H88781   2.440   5.273   6.192 -0.9995  1.8270 -0.6015
  658MOL0     H88782   2.097   5.101   6.152 -0.1230  1.3590  0.6674
  658MOL0     H88783   2.240   5.177   6.070 -0.8596  1.8331  0.7928
  658MOL0     H88784   2.359   4.954   6.117  0.7515  2.2186 -1.6392
  658MOL0     H88785   2.228   4.963   5.992 -0.0534  0.3446 -0.3315
  658MOL0     H88786   2.063   4.870   6.127  0.1858 -0.9907 -1.2231
  658MOL0     H88787   2.153   4.912   6.283  0.2565 -3.6981  2.0908
  658MOL0     H88788   2.141   4.672   6.248 -1.8486  1.1805 -1.9058
  658MOL0     H88789   2.300   4.719   6.252 -0.3850 -2.3656 -0.5366
  658MOL0     H88790   2.397   4.548   6.229  2.3381 -2.1736  0.5617
  658MOL0     H88791   2.547   4.277   6.130 -2.1602 -0.4706  1.1643
  658MOL0     H88792   2.677   4.379   6.183  0.8716  0.5453 -1.9826
  658MOL0     H88793   2.512   4.377   6.270 -1.0093 -0.6565 -0.6005
  658MOL0     H88794   2.939   4.442   5.691  0.8099 -1.1540  2.4134
  658MOL0     H88795   3.101   4.282   5.596  1.2156 -0.3231  1.7811
  658MOL0     H88796   3.073   3.861   5.681 -3.3269  2.0161 -0.0653
  658MOL0     H88797   3.003   3.872   5.512 -1.7839  0.8389  1.9377
  658MOL0     H88798   3.266   3.902   5.445  0.8496  0.5495  0.8814
  658MOL0     H88799   3.291   3.824   5.597  0.9562  2.5810 -1.1282
  658MOL0     H88800   3.120   3.712   5.365  0.0545  1.1461  0.4426
  658MOL0     H88801   3.123   3.634   5.522 -2.8131 -0.0570 -0.7029
  658MOL0     H88802   3.371   3.685   5.347  0.2222  1.0028  1.4891
  658MOL0     H88803   3.383   3.611   5.500  0.6927 -3.0498 -0.8729
  658MOL0     H88804   3.376   3.454   5.306 -1.9326  0.4345 -2.3961
  658MOL0     H88805   3.207   3.495   5.286 -0.4342 -0.6363 -0.2657
  658MOL0     H88806   3.328   3.362   5.540  1.8997 -1.5110 -3.5015
  658MOL0     H88807   3.155   3.435   5.523 -1.3885 -1.1652 -0.5201
  658MOL0     H88808   3.255   3.203   5.373  1.0233  1.0646  0.4337
  658MOL0     H88809   3.095   3.273   5.377  0.4824  0.5622 -1.1796
  658MOL0     H88810   3.248   3.134   5.609 -0.5634 -0.5313  2.5468
  658MOL0     H88811   3.099   3.080   5.527 -0.8132 -0.6186  1.7052
  658MOL0     H88812   2.826   3.957   5.612 -1.0104  0.3470 -1.1645
  658MOL0     H88813   2.647   4.110   5.691 -0.1017  1.9045  4.5461
  658MOL0     H88814   2.509   4.546   5.740 -0.3231  1.4322  0.1175
  658MOL0     H88815   2.331   4.667   5.813 -0.7450 -3.6933 -1.3197
  658MOL0     H88816   3.478   5.229   6.005  0.5194 -0.6993 -1.3664
  658MOL0     H88817   3.702   5.172   6.019 -2.2459  0.7636 -0.5691
  658MOL0     H88818   4.124   5.219   6.255  1.4803 -1.1630 -0.0373
  658MOL0     H88819   4.364   5.236   6.253  1.1272 -0.3041 -1.4393
  658MOL0     H88820   4.610   5.546   6.276  0.7246 -0.5680 -2.4543
  658MOL0     H88821   4.488   5.445   6.346 -0.6835  2.0860 -0.6569
  658MOL0     H88822   4.638   5.240   6.250  0.2044 -0.6964  2.1442
  658MOL0     H88823   4.704   5.326   6.382 -3.6921 -0.4523  0.4074
  658MOL0     H88824   4.883   5.407   6.256 -1.1373 -1.0894  2.9083
  658MOL0     H88825   4.775   5.440   6.112  0.2414 -0.3375 -1.3165
  658MOL0     H88826   4.760   5.224   6.054  0.9660 -1.6776 -1.6416
  658MOL0     H88827   4.861   5.168   6.199  0.1223  0.6188 -0.0231
  658MOL0     H88828   5.152   5.243   5.910  0.7868  2.6308  1.0841
  658MOL0     H88829   4.350   5.579   6.005 -2.1903  3.7844  2.2252
  658MOL0     H88830   4.106   5.569   6.004  3.0154  0.6976 -2.1258
  659MOL0     O88831   0.856   8.082  11.324 -0.2896  0.0886 -0.0454
  659MOL0     C88832   0.877   7.964  11.351  0.6738 -0.0059  0.4445
  659MOL0     O88833   0.790   7.860  11.322 -0.1956  0.1475  0.1367
  659MOL0     C88834   0.661   7.895  11.287 -0.3650 -0.3536  0.3861
  659MOL0     C88835   0.622   7.951  11.164 -0.8427 -0.0200  0.0909
  659MOL0     C88836   0.488   7.981  11.135 -0.2480 -0.3869  0.2094
  659MOL0     C88837   0.390   7.951  11.223  0.1143 -0.9246  0.1342
  659MOL0     O88838   0.259   7.969  11.184 -0.2748 -0.7305  0.0911
  659MOL0     C88839   0.215   8.097  11.156  0.8306 -0.4534  0.0639
  659MOL0     C88840   0.065   8.125  11.157  0.5181  0.2517  0.1135
  659MOL0     C88841   0.033   8.261  11.094 -0.5017 -0.3116 -0.8870
  659MOL0     C88842  -0.114   8.326  11.119 -0.4818  0.4504  0.0570
  659MOL0     C88843  -0.113   8.469  11.075 -0.6369 -0.0989 -0.1907
  659MOL0     C88844  -0.138   8.484  10.930 -0.1181 -0.3100 -0.1608
  659MOL0     C88845  -0.279   8.431  10.900  0.3510  0.4790  1.0252
  659MOL0     C88846  -0.327   8.502  10.770  0.4355 -0.7842 -0.5312
  659MOL0     N88847  -0.455   8.459  10.713  0.6824 -0.7362  0.4192
  659MOL0     C88848  -0.584   8.483  10.757 -0.1554  0.1853 -0.8732
  659MOL0     C88849  -0.663   8.405  10.677 -0.9138  1.6553  0.1791
  659MOL0     C88850  -0.816   8.383  10.684 -1.3347  1.3197 -1.0328
  659MOL0     C88851  -0.889   8.483  10.603 -0.5233  0.3973  0.0812
  659MOL0     C88852  -1.035   8.466  10.620 -0.3259  0.2598  0.0989
  659MOL0     C88853  -1.095   8.371  10.519 -0.0421  0.0063 -0.1106
  659MOL0     O88854  -1.102   8.430  10.390 -0.9176 -0.2300 -0.0221
  659MOL0     C88855  -1.193   8.529  10.357 -0.1539  0.0787 -0.4088
  659MOL0     C88856  -1.194   8.576  10.231 -0.1354 -1.3573  0.2580
  659MOL0     C88857  -1.287   8.677  10.187  0.5593 -0.4845 -0.1266
  659MOL0     C88858  -1.270   8.713  10.047 -0.1715 -0.1157 -0.5403
  659MOL0     C88859  -1.393   8.730  10.267 -0.2607  0.2406  0.4483
  659MOL0     C88860  -1.496   8.824  10.227 -0.0980  0.9005  0.7162
  659MOL0     O88861  -1.601   8.831  10.308  0.0816  0.4382  0.0430
  659MOL0     C88862  -1.733   8.857  10.267 -0.9461 -0.0621  0.8288
  659MOL0     C88863  -1.827   8.763  10.297 -0.1198  0.1074  0.3159
  659MOL0     C88864  -1.956   8.780  10.243 -0.3213 -0.1180 -0.8833
  659MOL0     C88865  -2.000   8.891  10.172  0.0728  1.5403  0.8634
  659MOL0     O88866  -2.134   8.891  10.136  0.0904 -0.0652 -0.3334
  659MOL0     C88867  -2.216   8.942  10.233 -1.1279  0.1891  0.4719
  659MOL0     C88868  -2.338   9.002  10.166  0.6197 -0.1651  0.0707
  659MOL0     C88869  -2.459   8.966  10.244  0.7604  0.1793 -0.3105
  659MOL0     C88870  -2.577   9.045  10.188  0.0488 -0.3415 -0.0209
  659MOL0     C88871  -2.703   9.018  10.272  0.0535 -0.6541 -0.5540
  659MOL0     C88872  -2.772   8.888  10.238 -0.1578 -0.0288 -0.0140
  659MOL0     C88873  -2.893   8.878  10.335 -0.4383  0.1402 -0.0445
  659MOL0     C88874  -2.964   8.741  10.327 -0.8833  0.2999  0.1023
  659MOL0    Cl88875  -3.018   8.714  10.155 -0.2856 -0.4307  0.1312
  659MOL0     C88876  -1.901   8.979  10.137  0.1144  0.0684  1.2700
  659MOL0     C88877  -1.768   8.960  10.173  0.0761 -0.2008  0.6349
  659MOL0     O88878  -1.498   8.870  10.106  0.3734 -0.4940  0.3880
  659MOL0     C88879  -1.384   8.682  10.400 -0.4639  0.0974  0.2247
  659MOL0     C88880  -1.291   8.585  10.439  0.9396  0.1771  0.7792
  659MOL0     N88881  -0.584   8.342  10.581  0.7919  0.3335 -0.2537
  659MOL0     N88882  -0.460   8.367  10.610 -0.2385 -0.4374 -0.0124
  659MOL0     C88883   0.428   7.900  11.347 -0.0168  0.1676 -0.8421
  659MOL0     C88884   0.566   7.871  11.379  1.0747 -0.0138  0.2604
  659MOL0     C88885   1.005   7.934  11.406  0.3949 -0.8162 -0.1327
  659MOL0     C88886   1.122   8.019  11.408 -0.0935 -0.8516  0.1681
  659MOL0     C88887   1.243   7.985  11.477  0.8302 -0.2793 -0.4427
  659MOL0     C88888   1.255   7.854  11.528 -0.3493 -0.1082 -0.3860
  659MOL0     O88889   1.368   7.800  11.588  0.5897 -0.5413  0.4891
  659MOL0     C88890   1.452   7.895  11.655 -0.7957 -0.0010  0.3020
  659MOL0     C88891   1.599   7.852  11.640  0.0282 -0.0701  0.7203
  659MOL0     C88892   1.696   7.905  11.751 -0.5354 -0.2216  0.8278
  659MOL0     C88893   1.832   7.857  11.719 -0.0513  1.1033 -0.4608
  659MOL0     C88894   1.912   7.838  11.841 -0.3237 -0.0371  0.1406
  659MOL0     C88895   1.985   7.807  11.929 -0.2466  0.0208  0.9385
  659MOL0     C88896   1.149   7.762  11.512  0.4350  0.6550  0.8023
  659MOL0     C88897   1.022   7.810  11.468  0.1757 -0.2357 -0.4985
  659MOL0     H88898   0.701   7.966  11.091 -0.2280  0.5160  0.8474
  659MOL0     H88899   0.465   8.012  11.034  1.2043  0.4147  0.0950
  659MOL0     H88900   0.256   8.168  11.227  0.5695 -2.1130  1.9567
  659MOL0     H88901   0.244   8.099  11.050 -4.9671 -0.3463 -1.8958
  659MOL0     H88902   0.010   8.048  11.102 -1.4693  0.9436  1.0190
  659MOL0     H88903   0.024   8.121  11.258 -2.1591 -2.7403 -0.9320
  659MOL0     H88904   0.104   8.329  11.142 -0.0294 -1.8834  0.7233
  659MOL0     H88905   0.048   8.251  10.986 -0.6649 -2.3345 -0.7444
  659MOL0     H88906  -0.194   8.270  11.069 -0.8262  2.2093 -1.4543
  659MOL0     H88907  -0.146   8.324  11.224  0.7660  0.1612  0.4431
  659MOL0     H88908  -0.197   8.510  11.132 -0.9679 -1.5532  0.4071
  659MOL0     H88909  -0.025   8.529  11.101 -1.1212 -0.8448  3.8434
  659MOL0     H88910  -0.130   8.587  10.894 -1.7809 -0.5627 -1.3481
  659MOL0     H88911  -0.063   8.435  10.867  1.3581  3.7080 -1.9092
  659MOL0     H88912  -0.282   8.326  10.870 -1.2469  1.4953 -3.1311
  659MOL0     H88913  -0.346   8.459  10.982 -0.3242 -0.5375  0.8326
  659MOL0     H88914  -0.257   8.478  10.690 -1.5855 -2.3721 -1.9449
  659MOL0     H88915  -0.334   8.608  10.793 -2.1875 -0.7147 -1.2468
  659MOL0     H88916  -0.620   8.544  10.839  1.7498  0.0963  0.0840
  659MOL0     H88917  -0.834   8.287  10.637  1.0844 -0.9423  2.1934
  659MOL0     H88918  -0.857   8.368  10.784 -0.4052 -1.6291 -1.0116
  659MOL0     H88919  -0.858   8.459  10.501  1.2704 -0.2417  0.7372
  659MOL0     H88920  -0.861   8.585  10.631 -3.0892  0.5320  2.6851
  659MOL0     H88921  -1.093   8.559  10.622 -3.0133 -1.2713 -1.0836
  659MOL0     H88922  -1.059   8.426  10.719  2.5064  4.5613  2.9051
  659MOL0     H88923  -1.197   8.340  10.545  0.9142 -2.6829  0.7987
  659MOL0     H88924  -1.035   8.280  10.509  0.8327  0.7004 -1.4266
  659MOL0     H88925  -1.134   8.522  10.158  0.9776  2.5425 -1.9863
  659MOL0     H88926  -1.253   8.821  10.036  0.4153  0.2336  2.7788
  659MOL0     H88927  -1.184   8.666  10.000 -0.5238 -0.7025 -0.6110
  659MOL0     H88928  -1.359   8.670  10.000 -0.8359 -1.4906  1.8153
  659MOL0     H88929  -1.816   8.670  10.353  1.9043 -0.0552 -0.2743
  659MOL0     H88930  -2.033   8.708  10.270 -0.0084 -0.3968 -0.7155
  659MOL0     H88931  -2.246   8.858  10.296 -1.7538  0.4203  0.4933
  659MOL0     H88932  -2.169   9.027  10.284  0.4340  0.8739 -1.9198
  659MOL0     H88933  -2.328   9.111  10.171  2.0351 -0.3242  3.4607
  659MOL0     H88934  -2.347   8.948  10.071 -0.8461 -2.1089  1.2271
  659MOL0     H88935  -2.453   8.997  10.349 -0.2191 -0.3731 -0.0777
  659MOL0     H88936  -2.482   8.861  10.223 -2.7594  0.6735  0.3848
  659MOL0     H88937  -2.560   9.152  10.204 -0.7999 -0.3804  1.1836
  659MOL0     H88938  -2.604   9.029  10.083  1.9586  2.1231 -0.9734
  659MOL0     H88939  -2.782   9.089  10.245  0.9909  0.3054 -0.8101
  659MOL0     H88940  -2.692   9.023  10.380 -1.5162  0.0623 -0.3984
  659MOL0     H88941  -2.804   8.871  10.135 -0.2908 -1.4664  0.2320
  659MOL0     H88942  -2.714   8.799  10.265 -1.8579 -1.4287 -0.8161
  659MOL0     H88943  -2.970   8.952  10.312 -0.7325 -0.1376  0.0469
  659MOL0     H88944  -2.866   8.887  10.441 -0.7069  0.5833 -0.0129
  659MOL0     H88945  -3.054   8.737  10.389 -0.1360 -0.1991  1.1798
  659MOL0     H88946  -2.900   8.656  10.348 -1.1066  1.0718  4.9885
  659MOL0     H88947  -1.937   9.056  10.069 -0.9431 -1.8321 -0.4406
  659MOL0     H88948  -1.688   9.027  10.146  0.2077 -0.5029  0.2513
  659MOL0     H88949  -1.455   8.702  10.479 -0.3064 -0.9972  0.6597
  659MOL0     H88950  -1.305   8.547  10.540  0.3128  0.3850  0.7789
  659MOL0     H88951   0.354   7.875  11.422 -1.5926 -0.5715 -2.5519
  659MOL0     H88952   0.590   7.831  11.477 -1.4157  1.9304  1.8142
  659MOL0     H88953   1.125   8.116  11.359  3.7578 -0.2870  1.2028
  659MOL0     H88954   1.324   8.058  11.483  0.0110  0.6029  0.1935
  659MOL0     H88955   1.454   7.996  11.611 -0.9685 -0.7755 -1.5620
  659MOL0     H88956   1.417   7.901  11.759 -0.1668 -0.7592  0.5681
  659MOL0     H88957   1.628   7.879  11.538 -2.2940 -1.2824 -0.3369
  659MOL0     H88958   1.591   7.744  11.658 -1.6976  0.0720  0.9076
  659MOL0     H88959   1.652   7.877  11.847  0.1628 -1.4204  0.8178
  659MOL0     H88960   1.707   8.014  11.758  2.9561 -0.4008  0.1924
  659MOL0     H88961   1.892   7.924  11.658  0.1184  0.3952 -1.0931
  659MOL0     H88962   1.812   7.761  11.670 -3.6300  0.4601  1.8718
  659MOL0     H88963   2.059   7.760  11.991  0.0505 -0.9276 -0.1066
  659MOL0     H88964   1.168   7.661  11.546  0.1582  0.8348  1.5212
  659MOL0     H88965   0.942   7.737  11.471 -0.0553  0.0207  2.2518
  660MOL0     O88966   9.155   4.113  11.138  0.1369  0.4221  0.2257
  660MOL0     C88967   9.202   4.051  11.233  0.3733  0.2147  0.4686
  660MOL0     O88968   9.141   4.059  11.356 -0.4224 -0.3213  0.3960
  660MOL0     C88969   9.013   4.117  11.369  0.0527 -0.5788 -0.1929
  660MOL0     C88970   8.984   4.228  11.453  0.8014  0.3955 -0.0712
  660MOL0     C88971   8.853   4.279  11.467 -0.0759 -0.4834 -0.4132
  660MOL0     C88972   8.743   4.212  11.407 -0.4421 -0.6312 -0.2503
  660MOL0     O88973   8.613   4.254  11.427 -1.4105 -0.1576 -0.9135
  660MOL0     C88974   8.595   4.352  11.530  0.6737  0.0375 -0.3970
  660MOL0     C88975   8.444   4.364  11.565 -0.0701  0.1555  0.2844
  660MOL0     C88976   8.395   4.255  11.665  0.2508  0.2188 -0.6144
  660MOL0     C88977   8.264   4.311  11.726 -0.0479 -0.4619 -0.6147
  660MOL0     C88978   8.181   4.199  11.797  0.6522 -0.3489  0.2663
  660MOL0     C88979   8.085   4.274  11.897  0.1077  0.5363  0.0708
  660MOL0     C88980   7.990   4.195  11.980 -0.5929  0.3199 -0.0204
  660MOL0     C88981   7.869   4.159  11.897  0.2537 -0.1066  0.1598
  660MOL0     N88982   7.759   4.125  11.983 -0.3344  0.5240  0.6667
  660MOL0     C88983   7.673   4.207  12.048 -0.1834 -1.0611 -0.2592
  660MOL0     C88984   7.611   4.128  12.133 -0.2313 -0.0313 -0.6254
  660MOL0     C88985   7.508   4.188  12.221  0.7833  0.6832  0.1151
  660MOL0     C88986   7.371   4.174  12.166 -0.1710 -0.1117  0.7210
  660MOL0     C88987   7.271   4.268  12.235 -0.2261 -0.0411  0.2249
  660MOL0     C88988   7.139   4.233  12.187  0.8438  0.6199  0.3884
  660MOL0     O88989   7.048   4.298  12.281  0.1808  0.6013  0.4168
  660MOL0     C88990   6.920   4.315  12.236  0.1253 -0.5840 -0.0427
  660MOL0     C88991   6.876   4.304  12.102  0.0745  0.1602  0.2123
  660MOL0     C88992   6.746   4.329  12.063  0.6657  0.6626 -0.5662
  660MOL0     C88993   6.712   4.304  11.922 -0.8750  0.9794 -0.4188
  660MOL0     C88994   6.649   4.359  12.164  0.3414 -0.1210  0.1054
  660MOL0     C88995   6.504   4.368  12.137 -0.2672 -0.7482 -0.2756
  660MOL0     O88996   6.463   4.443  12.023 -0.8124 -0.1193 -0.3814
  660MOL0     C88997   6.329   4.431  11.987  0.7374 -0.5707 -0.8772
  660MOL0     C88998   6.226   4.495  12.069  0.2326  0.3311  0.3322
  660MOL0     C88999   6.091   4.483  12.036 -0.4974 -0.8183 -0.0677
  660MOL0     C89000   6.055   4.415  11.921 -0.4354 -0.4462  0.6217
  660MOL0     O89001   5.924   4.432  11.882  0.2081  0.6577  0.2326
  660MOL0     C89002   5.848   4.364  11.781 -0.0298 -0.6438 -0.2149
  660MOL0     C89003   5.713   4.437  11.762  0.5400  0.3964 -0.7331
  660MOL0     C89004   5.641   4.464  11.902  1.3225 -0.3657 -0.4210
  660MOL0     C89005   5.492   4.499  11.876  0.0729 -0.8492  0.1617
  660MOL0     C89006   5.399   4.380  11.910  0.5355 -0.4338 -0.1487
  660MOL0     C89007   5.260   4.407  11.851  0.9919  0.2377 -0.0524
  660MOL0     C89008   5.243   4.453  11.699 -0.1425  0.1083 -0.1282
  660MOL0     C89009   5.096   4.446  11.664  0.4690  0.5342  0.6393
  660MOL0    Cl89010   4.994   4.576  11.738 -0.4843 -0.4633 -0.2908
  660MOL0     C89011   6.154   4.347  11.849 -0.3283 -0.0921 -0.3578
  660MOL0     C89012   6.291   4.362  11.880  0.6319  0.9721  0.2092
  660MOL0     O89013   6.433   4.290  12.200 -0.5259  0.4743 -0.3369
  660MOL0     C89014   6.685   4.363  12.301 -0.4344  0.6827 -0.7022
  660MOL0     C89015   6.824   4.352  12.332  0.5149 -0.1236 -0.3957
  660MOL0     N89016   7.645   3.993  12.110  0.1402 -1.2949 -0.6765
  660MOL0     N89017   7.740   3.993  12.027 -0.6275 -0.1839  0.0175
  660MOL0     C89018   8.775   4.108  11.319 -0.2338 -0.4461 -0.4111
  660MOL0     C89019   8.909   4.061  11.306  0.3078  0.4075 -0.8604
  660MOL0     C89020   9.327   3.981  11.208  0.1191 -0.2238 -1.3218
  660MOL0     C89021   9.396   3.930  11.326 -0.3712 -0.1845 -0.1957
  660MOL0     C89022   9.526   3.870  11.311  0.6373  0.4976  0.2882
  660MOL0     C89023   9.570   3.848  11.175  0.0645 -0.6717  0.8334
  660MOL0     O89024   9.694   3.790  11.174  0.1025  0.4668  0.7355
  660MOL0     C89025   9.739   3.730  11.050 -0.4875 -0.1152  0.4003
  660MOL0     C89026   9.892   3.685  11.080 -0.0283  0.1898  0.1121
  660MOL0     C89027   9.949   3.606  10.956 -0.5016  0.4558  0.4846
  660MOL0     C89028  10.099   3.570  10.977  0.1487  0.3422  0.4441
  660MOL0     C89029  10.126   3.480  11.091  0.4639  0.4526  0.2122
  660MOL0     C89030  10.160   3.409  11.182  0.0511  0.2546  1.0726
  660MOL0     C89031   9.499   3.902  11.069 -0.3251 -0.6350  0.2532
  660MOL0     C89032   9.377   3.955  11.081 -0.0025  0.3574 -0.3887
  660MOL0     H89033   9.076   4.271  11.494  0.4317  1.6113 -0.4728
  660MOL0     H89034   8.845   4.373  11.521  2.9904 -0.9264  1.0353
  660MOL0     H89035   8.644   4.321  11.622 -0.3769  2.1367  0.9367
  660MOL0     H89036   8.640   4.447  11.500  0.4544  0.5438  0.8241
  660MOL0     H89037   8.435   4.464  11.609 -1.3503 -0.1059  0.6680
  660MOL0     H89038   8.388   4.360  11.471  2.1416  1.2699 -1.1706
  660MOL0     H89039   8.371   4.164  11.608 -0.4940 -1.2066  1.8024
  660MOL0     H89040   8.474   4.221  11.733  0.3067 -3.3585 -2.2047
  660MOL0     H89041   8.305   4.386  11.795  3.5022 -2.0981 -0.7475
  660MOL0     H89042   8.203   4.363  11.652 -1.7196 -0.3857  0.7399
  660MOL0     H89043   8.116   4.139  11.732 -1.1048  0.0285  1.6030
  660MOL0     H89044   8.242   4.130  11.856 -1.0533 -0.5814  1.8345
  660MOL0     H89045   8.155   4.304  11.975  1.0264 -0.6682 -0.2670
  660MOL0     H89046   8.033   4.355  11.844 -3.0210 -1.4017 -0.1319
  660MOL0     H89047   8.038   4.111  12.031  1.5549  2.1481  1.1541
  660MOL0     H89048   7.953   4.265  12.055 -0.1974  0.5666 -0.0527
  660MOL0     H89049   7.898   4.069  11.842 -2.4276 -0.1027 -1.4538
  660MOL0     H89050   7.841   4.241  11.830  1.1073  0.5830  0.6183
  660MOL0     H89051   7.670   4.313  12.024  2.8492 -0.9334 -0.5123
  660MOL0     H89052   7.501   4.134  12.316  1.1102  0.0085 -0.2334
  660MOL0     H89053   7.531   4.291  12.249 -1.7856  0.9343  1.6106
  660MOL0     H89054   7.340   4.069  12.168  1.0212 -0.5326 -0.9299
  660MOL0     H89055   7.377   4.198  12.059  0.0641  1.6651  1.1049
  660MOL0     H89056   7.298   4.367  12.197  2.2125  0.2770  2.5245
  660MOL0     H89057   7.284   4.252  12.343 -0.8284 -1.6188  0.0966
  660MOL0     H89058   7.120   4.125  12.197 -0.4048  0.9106  1.3449
  660MOL0     H89059   7.133   4.260  12.081 -0.8685 -0.8917  0.0439
  660MOL0     H89060   6.942   4.282  12.019  0.4951 -1.2202  0.8771
  660MOL0     H89061   6.715   4.400  11.869 -1.5228  1.4306  0.3400
  660MOL0     H89062   6.781   4.232  11.877 -1.7600  0.7581 -1.4757
  660MOL0     H89063   6.610   4.270  11.908  0.3473 -2.3791 -2.2504
  660MOL0     H89064   6.246   4.554  12.158  1.3617  0.0773  0.2694
  660MOL0     H89065   6.013   4.546  12.079 -1.0383 -1.7284  0.3098
  660MOL0     H89066   5.891   4.356  11.681  2.8590 -0.1132  0.8822
  660MOL0     H89067   5.827   4.264  11.820  1.6987 -1.3368 -0.9522
  660MOL0     H89068   5.724   4.534  11.711  0.3741  1.4183  1.0811
  660MOL0     H89069   5.648   4.370  11.704 -0.5272  0.7510  0.0296
  660MOL0     H89070   5.697   4.539  11.959  1.6025 -0.4258 -0.6152
  660MOL0     H89071   5.650   4.365  11.949  1.8360 -1.1605 -2.0977
  660MOL0     H89072   5.474   4.583  11.945  1.5426  0.8336 -1.4187
  660MOL0     H89073   5.478   4.544  11.778  1.1337 -0.3132  0.2508
  660MOL0     H89074   5.395   4.371  12.019  1.2712  3.6609  0.3702
  660MOL0     H89075   5.439   4.290  11.863 -1.2841  0.2835 -3.4592
  660MOL0     H89076   5.196   4.320  11.869  0.1277  0.5942 -1.2541
  660MOL0     H89077   5.226   4.490  11.913  0.6294  0.1015 -0.0662
  660MOL0     H89078   5.310   4.393  11.637  0.5573 -1.7388  2.2966
  660MOL0     H89079   5.274   4.556  11.677  0.1779  0.1399  0.4520
  660MOL0     H89080   5.052   4.354  11.704 -0.6713  1.5528  1.8163
  660MOL0     H89081   5.087   4.447  11.555 -0.4895 -1.4335  0.6517
  660MOL0     H89082   6.132   4.280  11.766  2.7676 -1.4439 -0.2233
  660MOL0     H89083   6.365   4.330  11.806  0.4218  1.5006 -0.2339
  660MOL0     H89084   6.616   4.388  12.381  0.2533  1.4334 -0.3263
  660MOL0     H89085   6.856   4.380  12.432  0.9820 -0.2737 -0.5008
  660MOL0     H89086   8.684   4.061  11.281 -1.9734  1.1251  1.5850
  660MOL0     H89087   8.926   3.978  11.237  2.6469 -0.5641  0.7591
  660MOL0     H89088   9.355   3.930  11.426  1.9318  4.3752  0.9920
  660MOL0     H89089   9.576   3.823  11.395 -1.3764  0.0800  1.3151
  660MOL0     H89090   9.681   3.648  11.008 -1.2761 -0.3232  1.8200
  660MOL0     H89091   9.739   3.806  10.972 -0.5307  0.1448  0.6507
  660MOL0     H89092   9.901   3.629  11.174 -1.1430 -0.6354 -0.2460
  660MOL0     H89093   9.954   3.774  11.091 -1.6858  1.9708 -3.3330
  660MOL0     H89094   9.937   3.675  10.871  0.9978 -2.1513 -2.0262
  660MOL0     H89095   9.901   3.510  10.937  0.0772  0.4133 -0.9417
  660MOL0     H89096  10.158   3.662  10.980  1.1459 -0.1803 -1.6130
  660MOL0     H89097  10.132   3.514  10.889  0.4700 -0.6836  1.1985
  660MOL0     H89098  10.175   3.343  11.265  1.4802 -1.2673 -0.3121
  660MOL0     H89099   9.541   3.882  10.971 -0.0659  0.3498  0.1564
  660MOL0     H89100   9.329   4.006  10.998 -0.8996 -2.4265 -1.7233
  661MOL0     O89101   5.463   7.359   7.557 -0.5183 -0.0259  0.0258
  661MOL0     C89102   5.413   7.371   7.664 -0.1348  0.0524 -0.5081
  661MOL0     O89103   5.280   7.394   7.687  0.0327 -0.5349 -0.8067
  661MOL0     C89104   5.205   7.413   7.576 -0.3791  0.5776 -0.4632
  661MOL0     C89105   5.196   7.310   7.479 -0.0580  0.0337  0.2331
  661MOL0     C89106   5.113   7.323   7.365 -0.2173 -0.3650  1.1860
  661MOL0     C89107   5.025   7.436   7.359  0.4191  0.7623 -0.2514
  661MOL0     O89108   4.953   7.476   7.251  0.2760 -0.4562  0.1275
  661MOL0     C89109   4.914   7.378   7.147 -0.2184  0.6264 -0.1144
  661MOL0     C89110   4.807   7.432   7.067  0.0016  0.0110 -0.3969
  661MOL0     C89111   4.771   7.366   6.933 -0.1200  0.4162  0.6193
  661MOL0     C89112   4.664   7.443   6.856  0.8198 -0.3611  0.2890
  661MOL0     C89113   4.660   7.404   6.709  0.6512  0.0059 -0.4331
  661MOL0     C89114   4.548   7.484   6.650  0.4240 -0.1604 -0.6570
  661MOL0     C89115   4.511   7.449   6.509 -0.4040  0.5859  0.6546
  661MOL0     C89116   4.627   7.470   6.410  0.6185 -0.1831 -0.0131
  661MOL0     N89117   4.589   7.421   6.274 -0.5202 -0.4954  0.4841
  661MOL0     C89118   4.674   7.376   6.177 -0.1799  0.0558  0.7633
  661MOL0     C89119   4.597   7.348   6.067  0.8747 -0.3398  0.3559
  661MOL0     C89120   4.650   7.327   5.927  0.6464  0.3857  0.0205
  661MOL0     C89121   4.626   7.455   5.851 -0.5858 -0.9602  0.1762
  661MOL0     C89122   4.694   7.437   5.715  1.1270  0.1320 -0.6808
  661MOL0     C89123   4.676   7.566   5.636 -0.1015 -0.1516 -0.0659
  661MOL0     O89124   4.748   7.676   5.690  0.0298 -0.0571  0.2387
  661MOL0     C89125   4.723   7.796   5.630  0.4735 -0.5853  0.9450
  661MOL0     C89126   4.701   7.820   5.489  0.0641 -0.0313 -0.3652
  661MOL0     C89127   4.650   7.942   5.438 -0.3129 -0.4307 -0.3883
  661MOL0     C89128   4.642   7.956   5.293 -0.4295 -0.5243 -0.1558
  661MOL0     C89129   4.610   8.040   5.532 -0.6514 -0.2577 -0.0534
  661MOL0     C89130   4.571   8.175   5.486  0.7710 -0.4737 -0.0740
  661MOL0     O89131   4.567   8.266   5.594 -0.1703 -0.2868 -0.0031
  661MOL0     C89132   4.506   8.390   5.578 -0.2633  0.0714  0.6303
  661MOL0     C89133   4.534   8.488   5.675 -0.1795  0.6875  0.0715
  661MOL0     C89134   4.486   8.618   5.676  0.1103 -0.1755  0.2757
  661MOL0     C89135   4.389   8.658   5.581 -0.0344  0.0443 -0.3804
  661MOL0     O89136   4.342   8.792   5.580 -0.2317 -0.0463 -0.7800
  661MOL0     C89137   4.387   8.868   5.468 -0.1833  0.3712  0.5297
  661MOL0     C89138   4.423   9.015   5.515 -0.0196  0.0871 -0.7757
  661MOL0     C89139   4.289   9.083   5.551  0.3499  1.2232  0.3301
  661MOL0     C89140   4.318   9.226   5.582 -0.3533  0.3248 -0.5181
  661MOL0     C89141   4.196   9.316   5.600 -0.0709  0.1817  0.1669
  661MOL0     C89142   4.130   9.295   5.737 -0.6534 -0.1336 -0.6386
  661MOL0     C89143   3.995   9.361   5.749  0.2685  0.6581  0.4336
  661MOL0     C89144   3.947   9.344   5.900 -0.4887 -0.9759  0.2945
  661MOL0    Cl89145   4.047   9.444   6.014  0.2552 -0.0157 -0.1438
  661MOL0     C89146   4.346   8.561   5.495 -0.9126 -0.2889 -0.2772
  661MOL0     C89147   4.406   8.431   5.480 -0.0120  0.5020  0.9290
  661MOL0     O89148   4.549   8.200   5.372  0.8025  0.7887 -0.2071
  661MOL0     C89149   4.619   8.017   5.673  0.0930 -0.7550  0.4182
  661MOL0     C89150   4.684   7.903   5.717 -1.2604  1.0090  0.4321
  661MOL0     N89151   4.461   7.360   6.102  1.1676  0.3524 -0.2893
  661MOL0     N89152   4.462   7.395   6.228  0.3268 -0.5128 -0.6046
  661MOL0     C89153   5.043   7.537   7.460 -0.1632 -0.1902 -0.5271
  661MOL0     C89154   5.128   7.525   7.564 -0.1985  0.3859 -0.2555
  661MOL0     C89155   5.504   7.365   7.777 -0.1216  0.3913  0.1810
  661MOL0     C89156   5.466   7.289   7.888  0.5588  0.1971 -0.6941
  661MOL0     C89157   5.547   7.270   7.996  0.5223 -0.6678 -0.6176
  661MOL0     C89158   5.672   7.327   7.984 -0.5519  0.1768 -0.2576
  661MOL0     O89159   5.743   7.312   8.096  0.3462 -0.1476  0.2980
  661MOL0     C89160   5.816   7.188   8.096 -0.1374 -0.1424  0.3573
  661MOL0     C89161   5.960   7.217   8.138 -0.4816 -1.1463 -1.0107
  661MOL0     C89162   5.943   7.246   8.285  0.4768 -0.0772 -0.2673
  661MOL0     C89163   6.074   7.262   8.365  0.2630 -0.1288 -0.2405
  661MOL0     C89164   6.153   7.384   8.326  0.4214 -0.6056 -0.0574
  661MOL0     C89165   6.219   7.486   8.299 -0.6274  0.8057 -0.7565
  661MOL0     C89166   5.715   7.409   7.874 -0.0800  0.5768  0.8813
  661MOL0     C89167   5.633   7.418   7.764 -0.7310 -0.4906  0.1287
  661MOL0     H89168   5.242   7.213   7.491 -1.8959 -0.8335  0.5352
  661MOL0     H89169   5.119   7.245   7.290  1.4693  0.0760  0.8242
  661MOL0     H89170   5.004   7.366   7.086 -1.0900  3.5301 -2.1756
  661MOL0     H89171   4.887   7.277   7.179  0.6758 -0.3944 -2.3647
  661MOL0     H89172   4.719   7.419   7.131 -0.2154  0.0273 -0.6887
  661MOL0     H89173   4.832   7.536   7.045  3.1195 -0.6521 -0.4243
  661MOL0     H89174   4.864   7.362   6.875 -1.1923 -0.6653 -1.1281
  661MOL0     H89175   4.731   7.270   6.966 -0.2742  0.3547  0.2607
  661MOL0     H89176   4.565   7.432   6.903  1.5018 -1.6393  1.4941
  661MOL0     H89177   4.685   7.550   6.855 -2.9014  0.5182 -1.8161
  661MOL0     H89178   4.758   7.424   6.664  0.8193  0.0230 -0.0687
  661MOL0     H89179   4.640   7.297   6.700  0.3044  0.1181 -0.9739
  661MOL0     H89180   4.459   7.474   6.713  0.2456  1.4434 -0.6019
  661MOL0     H89181   4.565   7.592   6.656 -1.4020  0.1506 -0.6554
  661MOL0     H89182   4.492   7.342   6.519 -1.8842  1.0116  3.2038
  661MOL0     H89183   4.416   7.496   6.480 -0.5510 -0.2717 -0.3397
  661MOL0     H89184   4.720   7.422   6.441 -0.0857 -0.0969  2.4319
  661MOL0     H89185   4.634   7.579   6.400  1.8053 -0.1424  1.0030
  661MOL0     H89186   4.782   7.373   6.180 -0.1231  0.8787 -0.0158
  661MOL0     H89187   4.756   7.300   5.932  0.6830  0.4243 -0.4444
  661MOL0     H89188   4.603   7.244   5.873 -0.0469  0.9275 -0.2240
  661MOL0     H89189   4.660   7.544   5.904  0.6591 -0.7426 -0.9466
  661MOL0     H89190   4.519   7.468   5.828 -0.2719  0.0861 -0.7855
  661MOL0     H89191   4.639   7.363   5.655  3.7783 -1.9704 -0.7071
  661MOL0     H89192   4.795   7.395   5.723  0.4323 -1.9742 -1.9910
  661MOL0     H89193   4.568   7.581   5.624  0.0149  0.3330 -0.5338
  661MOL0     H89194   4.722   7.544   5.539  2.2105  1.2271  0.6475
  661MOL0     H89195   4.728   7.731   5.432  1.3248  0.4451 -0.5480
  661MOL0     H89196   4.683   7.865   5.246  1.1010 -0.9618  1.9134
  661MOL0     H89197   4.541   7.978   5.259 -1.0513 -2.1933  0.4871
  661MOL0     H89198   4.704   8.037   5.254  0.0752 -1.8123 -2.2243
  661MOL0     H89199   4.597   8.467   5.761  2.3031  3.3813 -0.9558
  661MOL0     H89200   4.506   8.687   5.757 -0.1698  1.4429 -0.9791
  661MOL0     H89201   4.476   8.823   5.424 -0.5431  0.1265  0.0446
  661MOL0     H89202   4.312   8.867   5.389  0.0542  0.8478  0.2946
  661MOL0     H89203   4.504   9.013   5.589  1.6361  0.5598 -2.5045
  661MOL0     H89204   4.476   9.066   5.434 -1.0265  2.1253 -0.2214
  661MOL0     H89205   4.245   9.033   5.638  0.7741 -0.8720 -0.5961
  661MOL0     H89206   4.203   9.073   5.484 -1.4441 -3.1911  2.7954
  661MOL0     H89207   4.376   9.233   5.674 -0.2039 -0.9266 -0.4987
  661MOL0     H89208   4.386   9.265   5.506 -0.2484 -0.3913 -0.7955
  661MOL0     H89209   4.129   9.295   5.516  1.1483  2.9812 -1.6686
  661MOL0     H89210   4.216   9.423   5.597 -2.8463  0.9504  3.4988
  661MOL0     H89211   4.117   9.190   5.765 -1.1264  0.1564  0.2790
  661MOL0     H89212   4.199   9.337   5.811 -1.6367 -2.9913  2.1066
  661MOL0     H89213   3.919   9.314   5.685  1.9531  0.6952 -1.7219
  661MOL0     H89214   4.001   9.466   5.722 -1.8272  0.3215 -1.7124
  661MOL0     H89215   3.963   9.238   5.923  0.1770 -1.4774 -2.1430
  661MOL0     H89216   3.839   9.363   5.903 -0.5509 -1.3059  3.5268
  661MOL0     H89217   4.283   8.598   5.414 -1.8150  1.5906  1.2175
  661MOL0     H89218   4.362   8.357   5.414 -0.2392  1.6226 -0.2187
  661MOL0     H89219   4.583   8.087   5.747 -0.6583 -1.4500  0.7255
  661MOL0     H89220   4.682   7.875   5.821 -0.3220 -2.3393 -0.3269
  661MOL0     H89221   4.982   7.625   7.442 -1.0198 -0.0400  2.6442
  661MOL0     H89222   5.134   7.608   7.634 -3.0087  0.5952 -0.1649
  661MOL0     H89223   5.378   7.230   7.870  2.4584 -2.8807 -0.6031
  661MOL0     H89224   5.507   7.213   8.080 -1.8902 -0.8588 -1.7961
  661MOL0     H89225   5.771   7.120   8.169  0.3380  3.4110  4.4099
  661MOL0     H89226   5.814   7.148   7.995  1.0177  1.2071 -0.2312
  661MOL0     H89227   6.003   7.301   8.084  1.0409 -0.1364  1.5735
  661MOL0     H89228   6.021   7.126   8.128  0.0483 -0.6482 -2.5481
  661MOL0     H89229   5.880   7.172   8.336  1.7208 -0.0264  1.3835
  661MOL0     H89230   5.900   7.346   8.292 -0.1287 -0.2447 -1.2154
  661MOL0     H89231   6.142   7.179   8.343 -0.3473  0.0292 -3.1446
  661MOL0     H89232   6.054   7.261   8.472 -1.0642  4.1088 -0.2647
  661MOL0     H89233   6.285   7.568   8.281  2.0259 -0.5333  1.8629
  661MOL0     H89234   5.810   7.459   7.860  0.3803 -0.9908 -2.7140
  661MOL0     H89235   5.665   7.457   7.667 -0.6775 -1.5169 -0.2789
  662MOL0     O89236   5.746   8.073   9.027 -0.2780  0.1051 -0.6088
  662MOL0     C89237   5.767   8.058   8.909  0.3256 -0.4761  0.5518
  662MOL0     O89238   5.896   8.080   8.838  0.2705  0.8259 -0.4266
  662MOL0     C89239   6.009   8.078   8.912  0.3257  0.7011  0.4312
  662MOL0     C89240   6.111   8.149   8.866 -1.6306 -0.7978 -0.1565
  662MOL0     C89241   6.244   8.151   8.922  0.0693 -0.2938  0.7666
  662MOL0     C89242   6.266   8.079   9.033 -0.1205  0.6211  0.1623
  662MOL0     O89243   6.399   8.072   9.078  0.8772  0.0232  0.9971
  662MOL0     C89244   6.480   7.979   9.008  1.3484  0.7774  0.1531
  662MOL0     C89245   6.594   7.926   9.102 -0.0361 -0.2785  0.1808
  662MOL0     C89246   6.719   8.015   9.078 -0.4832 -0.3361 -0.6025
  662MOL0     C89247   6.703   8.155   9.139 -0.2433  0.7539 -0.8760
  662MOL0     C89248   6.821   8.248   9.112  0.9958  0.4074 -0.1105
  662MOL0     C89249   6.821   8.305   8.971 -0.3402  0.0243 -0.3030
  662MOL0     C89250   6.929   8.412   8.951  0.4302  0.2122 -0.6330
  662MOL0     C89251   6.939   8.462   8.795  0.0753  0.3850 -0.8372
  662MOL0     N89252   7.060   8.546   8.776 -0.0981  0.7641  0.6845
  662MOL0     C89253   7.067   8.679   8.798 -0.3915  0.5522  1.3395
  662MOL0     C89254   7.185   8.730   8.759  0.7694 -0.6793 -0.3296
  662MOL0     C89255   7.235   8.879   8.748  0.5284  0.7217 -0.6241
  662MOL0     C89256   7.147   8.978   8.834  0.7037  0.3943 -0.1487
  662MOL0     C89257   7.221   9.111   8.818  0.7364  0.5427 -0.6655
  662MOL0     C89258   7.367   9.116   8.865 -0.6070  0.5721  0.1460
  662MOL0     O89259   7.401   9.253   8.865  0.5079 -0.6109 -1.5988
  662MOL0     C89260   7.533   9.274   8.880  0.9827  0.3499 -0.2096
  662MOL0     C89261   7.621   9.235   8.780  0.3905  1.1294  0.5869
  662MOL0     C89262   7.761   9.258   8.792  0.3920 -0.0804  0.2111
  662MOL0     C89263   7.855   9.214   8.681 -0.5375 -0.3476 -0.4186
  662MOL0     C89264   7.817   9.323   8.909 -0.1194  0.5925  0.6409
  662MOL0     C89265   7.962   9.331   8.948  0.2016 -0.2950 -0.2156
  662MOL0     O89266   7.996   9.422   9.043  0.0409  0.0972 -0.2936
  662MOL0     C89267   8.131   9.462   9.052  0.9838 -0.6989  0.5538
  662MOL0     C89268   8.195   9.474   9.179  0.0077 -0.0421 -0.3136
  662MOL0     C89269   8.330   9.504   9.186  0.1869 -0.5492  0.1613
  662MOL0     C89270   8.393   9.548   9.070  0.7689  0.3244 -0.4743
  662MOL0     O89271   8.531   9.568   9.094 -0.4553 -0.6900 -0.1822
  662MOL0     C89272   8.620   9.595   8.978  0.2206  0.3024 -0.0134
  662MOL0     C89273   8.759   9.625   9.033  0.3736  0.9668  0.4251
  662MOL0     C89274   8.768   9.704   9.166 -0.1178 -0.1786  0.0033
  662MOL0     C89275   8.915   9.746   9.188 -0.0400 -1.1048 -0.0791
  662MOL0     C89276   8.940   9.817   9.326  0.4504  0.4562 -0.7032
  662MOL0     C89277   8.850   9.946   9.353  0.9851  0.2824  0.2265
  662MOL0     C89278   8.905  10.069   9.268  0.6922 -0.1658  0.3349
  662MOL0     C89279   8.824  10.194   9.278  1.0037 -0.5155 -0.2508
  662MOL0    Cl89280   8.664  10.198   9.194  0.2909  0.1084 -0.3921
  662MOL0     C89281   8.331   9.536   8.949  0.5272  0.8470  0.3908
  662MOL0     C89282   8.199   9.500   8.937 -0.0515 -0.1239 -0.5941
  662MOL0     O89283   8.038   9.247   8.900 -0.0540 -0.2077 -0.0001
  662MOL0     C89284   7.720   9.369   9.001 -0.4780 -0.1009  0.1009
  662MOL0     C89285   7.580   9.351   8.982 -0.1665 -0.6120  0.1859
  662MOL0     N89286   7.253   8.621   8.704  0.4606  0.4460  1.1362
  662MOL0     N89287   7.179   8.509   8.717  0.0065 -0.3929 -0.6972
  662MOL0     C89288   6.167   7.993   9.079  0.0843  0.0361  0.3067
  662MOL0     C89289   6.036   7.997   9.021 -0.4400  0.2854 -1.2020
  662MOL0     C89290   5.642   8.059   8.826 -0.4069 -0.2856  0.2505
  662MOL0     C89291   5.636   8.103   8.699  0.1081 -0.1953 -0.0406
  662MOL0     C89292   5.516   8.114   8.633 -0.7456 -0.2918 -0.0581
  662MOL0     C89293   5.397   8.079   8.694  0.6755  0.2587 -0.1020
  662MOL0     O89294   5.276   8.114   8.629  0.6259 -0.4235  0.8171
  662MOL0     C89295   5.156   8.097   8.703  0.9198 -0.1863  0.9964
  662MOL0     C89296   5.042   8.148   8.618 -0.1685  0.4436 -0.5958
  662MOL0     C89297   4.920   8.083   8.663  0.4696  0.4294  0.4666
  662MOL0     C89298   4.796   8.115   8.573 -0.1581 -0.5438  0.4638
  662MOL0     C89299   4.679   8.071   8.641  0.3917  0.1912 -0.8116
  662MOL0     C89300   4.582   8.040   8.705  0.5746  0.3361  0.1713
  662MOL0     C89301   5.398   8.022   8.822 -0.1662 -0.4171 -0.1152
  662MOL0     C89302   5.516   8.021   8.886 -0.2583  0.0800 -0.4251
  662MOL0     H89303   6.100   8.216   8.782  0.9623 -1.8797 -1.4849
  662MOL0     H89304   6.330   8.209   8.891 -1.3363  1.2933 -0.3356
  662MOL0     H89305   6.424   7.889   8.983 -0.6021  2.2345 -1.0297
  662MOL0     H89306   6.514   8.024   8.914 -0.2812 -2.7968 -2.3494
  662MOL0     H89307   6.577   7.944   9.209 -0.7111 -1.2639  0.2546
  662MOL0     H89308   6.607   7.819   9.082  0.1114 -0.1496 -0.4205
  662MOL0     H89309   6.804   7.966   9.127 -0.6068  0.3453  0.3232
  662MOL0     H89310   6.733   8.030   8.971 -1.0490 -0.0122 -0.6333
  662MOL0     H89311   6.609   8.196   9.100  1.1363  2.3341 -2.6956
  662MOL0     H89312   6.708   8.144   9.248  0.1337  0.3761 -0.9330
  662MOL0     H89313   6.828   8.333   9.179 -1.3253 -0.5197  1.4501
  662MOL0     H89314   6.917   8.203   9.136  2.1966  3.3914  1.0221
  662MOL0     H89315   6.834   8.228   8.894 -1.2211 -0.3382 -0.0955
  662MOL0     H89316   6.721   8.347   8.961  1.0553  4.2286  1.3526
  662MOL0     H89317   6.915   8.502   9.012 -0.0542  0.8120 -1.5853
  662MOL0     H89318   7.026   8.380   8.988  0.1929  2.0647  1.8611
  662MOL0     H89319   6.845   8.514   8.774  0.0881 -0.3401 -2.9714
  662MOL0     H89320   6.951   8.377   8.727  2.9311 -0.3987  0.5235
  662MOL0     H89321   6.983   8.740   8.829  0.0954  2.9134 -1.4975
  662MOL0     H89322   7.337   8.881   8.788 -0.4674  2.7801  2.1351
  662MOL0     H89323   7.241   8.911   8.643 -0.6872 -1.3373 -1.3813
  662MOL0     H89324   7.134   8.957   8.940  0.1950  2.3632  0.2101
  662MOL0     H89325   7.048   8.984   8.787 -0.2815 -4.4286  0.7227
  662MOL0     H89326   7.172   9.192   8.874 -0.2097  0.4509 -1.3349
  662MOL0     H89327   7.228   9.130   8.711  3.1646 -0.3754 -0.7341
  662MOL0     H89328   7.433   9.068   8.792  0.3924  3.1064 -0.7052
  662MOL0     H89329   7.389   9.066   8.959  0.7913  0.2224 -0.3434
  662MOL0     H89330   7.589   9.192   8.685  4.0418  3.2112 -1.8298
  662MOL0     H89331   7.799   9.195   8.589 -1.0006  0.4256 -0.3016
  662MOL0     H89332   7.925   9.296   8.668 -2.3775  1.7334  1.7311
  662MOL0     H89333   7.915   9.128   8.714 -0.7338 -1.5549 -2.9880
  662MOL0     H89334   8.139   9.461   9.271  0.0964 -0.7935 -0.3666
  662MOL0     H89335   8.375   9.520   9.283  1.1346  1.1824 -0.5017
  662MOL0     H89336   8.621   9.508   8.912  0.5505 -1.5624  2.2738
  662MOL0     H89337   8.591   9.679   8.915 -1.4404 -1.2005 -1.3359
  662MOL0     H89338   8.813   9.531   9.048 -0.0999  0.3032 -1.6897
  662MOL0     H89339   8.811   9.668   8.947  0.3494  1.6736  0.7530
  662MOL0     H89340   8.726   9.657   9.256 -0.2199 -1.9521 -0.9329
  662MOL0     H89341   8.707   9.795   9.170 -0.4867 -0.4091 -0.3584
  662MOL0     H89342   8.980   9.658   9.180  1.1214 -0.1428 -2.5642
  662MOL0     H89343   8.952   9.810   9.107  0.4640 -0.0266  0.9912
  662MOL0     H89344   9.045   9.844   9.334 -0.0449  2.1754  0.4298
  662MOL0     H89345   8.903   9.744   9.399 -3.4286 -1.0892 -3.7789
  662MOL0     H89346   8.746   9.923   9.328  1.5460  0.1100 -2.2012
  662MOL0     H89347   8.856   9.959   9.462 -1.7171 -0.0556  0.4841
  662MOL0     H89348   8.913  10.030   9.166 -0.0810  0.0555  0.1796
  662MOL0     H89349   9.005  10.105   9.294 -0.0442  0.4089  2.5928
  662MOL0     H89350   8.890  10.271   9.236 -0.2614  1.0699  0.5354
  662MOL0     H89351   8.802  10.215   9.384 -1.8952  1.2753 -1.0774
  662MOL0     H89352   8.372   9.577   8.858 -1.4478  1.2287 -0.3800
  662MOL0     H89353   8.157   9.506   8.836  2.9322  1.2418 -1.8696
  662MOL0     H89354   7.752   9.408   9.097  0.4720  4.4470 -1.7719
  662MOL0     H89355   7.523   9.385   9.068  1.2069 -0.2295  0.9937
  662MOL0     H89356   6.191   7.944   9.173 -1.6051  1.3864  1.4995
  662MOL0     H89357   5.972   7.918   9.059  1.9869 -1.4277 -0.4722
  662MOL0     H89358   5.726   8.121   8.640  0.0510  1.2136  0.2622
  662MOL0     H89359   5.495   8.163   8.538 -0.4700  1.4880  0.7600
  662MOL0     H89360   5.135   7.992   8.724 -1.4696 -0.2852 -1.2958
  662MOL0     H89361   5.156   8.149   8.799  2.4510 -0.1047  0.9747
  662MOL0     H89362   5.058   8.137   8.510 -0.5618  4.7291 -1.2489
  662MOL0     H89363   5.044   8.256   8.632  1.8462  0.7310 -2.5222
  662MOL0     H89364   4.899   8.124   8.762  1.2344  0.5730  0.5787
  662MOL0     H89365   4.924   7.974   8.665 -3.3703  0.1101 -1.2385
  662MOL0     H89366   4.815   8.069   8.476  2.9063 -0.8878  1.1021
  662MOL0     H89367   4.794   8.223   8.560  0.0223 -0.8093 -2.4406
  662MOL0     H89368   4.496   8.028   8.768 -0.5247  2.2662 -0.8840
  662MOL0     H89369   5.307   7.993   8.875  0.0894 -1.5925 -0.2785
  662MOL0     H89370   5.524   7.974   8.984 -0.9745  2.8415  1.0462
  663MOL0     O89371   0.890   9.701   0.066  0.0423 -0.0690 -0.1826
  663MOL0     C89372   0.839   9.650   0.167 -0.4394  0.4791 -0.1685
  663MOL0     O89373   0.901   9.608   0.271 -0.5403 -0.1613 -0.1500
  663MOL0     C89374   1.043   9.624   0.281  1.1718 -0.0667 -0.8869
  663MOL0     C89375   1.138   9.623   0.181 -0.3349 -0.0905 -0.6006
  663MOL0     C89376   1.271   9.623   0.218 -0.7420  1.1967 -0.4102
  663MOL0     C89377   1.320   9.610   0.351  0.4092 -0.3798 -0.4643
  663MOL0     O89378   1.450   9.575   0.376  0.1845 -0.2499 -0.5474
  663MOL0     C89379   1.495   9.543   0.510  0.0480 -0.7358  0.2081
  663MOL0     C89380   1.644   9.570   0.507  0.3708  0.0382  0.4677
  663MOL0     C89381   1.652   9.722   0.524  0.3551  0.9518 -0.3101
  663MOL0     C89382   1.795   9.780   0.555  0.0028  0.6919 -0.1459
  663MOL0     C89383   1.778   9.915   0.617 -0.3936 -0.4257 -0.0001
  663MOL0     C89384   1.921   9.971   0.654 -0.4719 -0.1126 -0.9400
  663MOL0     C89385   2.012   9.876   0.747 -0.2298 -0.5384 -0.1870
  663MOL0     C89386   1.927   9.834   0.877  0.6188  0.4251  0.8550
  663MOL0     N89387   2.019   9.833   0.990  1.3371 -0.1632  0.3321
  663MOL0     C89388   2.084   9.940   1.054 -0.4323  0.3409  0.5490
  663MOL0     C89389   2.162   9.880   1.145  0.4599 -1.0082 -1.1188
  663MOL0     C89390   2.251   9.958   1.249  0.4360 -0.3623 -0.2104
  663MOL0     C89391   2.407   9.944   1.222  0.5998 -0.6035 -0.9141
  663MOL0     C89392   2.452   9.973   1.078 -0.2993  0.6039 -0.7622
  663MOL0     C89393   2.403   9.871   0.972  0.3865  0.7736  0.4881
  663MOL0     O89394   2.475   9.871   0.851 -0.0378  0.1409 -0.7524
  663MOL0     C89395   2.607   9.823   0.854 -0.3265 -0.2882 -0.3247
  663MOL0     C89396   2.638   9.699   0.903 -0.8307  0.2305  0.3301
  663MOL0     C89397   2.774   9.655   0.912  0.4902  0.7569 -0.3957
  663MOL0     C89398   2.781   9.514   0.962 -0.1742 -0.5500  1.1345
  663MOL0     C89399   2.880   9.743   0.868 -0.4999 -0.9631  0.6595
  663MOL0     C89400   3.028   9.729   0.871  0.5563  0.5416  0.1564
  663MOL0     O89401   3.120   9.825   0.829  0.3679 -0.0912 -0.7067
  663MOL0     C89402   3.253   9.802   0.844 -0.8732  0.5326  0.2943
  663MOL0     C89403   3.329   9.758   0.741 -0.1181  0.8776 -0.1303
  663MOL0     C89404   3.463   9.723   0.760 -0.4599 -0.0262  0.5343
  663MOL0     C89405   3.531   9.757   0.875 -0.0952  0.4582 -1.2934
  663MOL0     O89406   3.666   9.719   0.874  0.0103 -0.0920  0.1025
  663MOL0     C89407   3.734   9.734   1.003  0.4142  0.5615  0.5375
  663MOL0     C89408   3.884   9.693   0.990  0.1167 -0.8994 -0.7852
  663MOL0     C89409   3.901   9.565   0.911  0.1185 -0.2703  0.3137
  663MOL0     C89410   4.028   9.496   0.934 -0.9486 -0.1215 -0.2130
  663MOL0     C89411   4.012   9.404   1.056  1.0556 -0.0663 -0.2131
  663MOL0     C89412   4.135   9.319   1.101 -0.6061  0.2751 -0.3087
  663MOL0     C89413   4.226   9.408   1.198 -0.0846  0.5708  0.4352
  663MOL0     C89414   4.378   9.359   1.195  0.3874  0.8472  0.0884
  663MOL0    Cl89415   4.480   9.396   1.046  0.1646  0.6211  0.0340
  663MOL0     C89416   3.454   9.816   0.988 -0.6574  1.3378 -0.4115
  663MOL0     C89417   3.312   9.837   0.968  0.1051 -0.5492  0.0911
  663MOL0     O89418   3.062   9.617   0.907  0.7025 -1.1173  0.5962
  663MOL0     C89419   2.836   9.872   0.831  0.3403 -0.2339  0.5037
  663MOL0     C89420   2.706   9.909   0.814 -0.8344 -0.2824 -0.2233
  663MOL0     N89421   2.143   9.747   1.129 -0.6673  0.9560  0.2167
  663MOL0     N89422   2.073   9.721   1.027  0.5552  0.8805  0.4113
  663MOL0     C89423   1.218   9.628   0.452 -1.3350  0.3402  0.2275
  663MOL0     C89424   1.086   9.633   0.417  0.0767 -0.4840 -0.0286
  663MOL0     C89425   0.697   9.611   0.163 -0.2645 -0.0514  0.1615
  663MOL0     C89426   0.640   9.552   0.272 -0.3015 -0.6137 -0.2395
  663MOL0     C89427   0.510   9.501   0.260 -0.0625  0.4978  0.3481
  663MOL0     C89428   0.437   9.522   0.139  0.1064  0.2671  0.6391
  663MOL0     O89429   0.305   9.479   0.124 -0.4926 -0.4725  0.1955
  663MOL0     C89430   0.234   9.426   0.236  0.1829  0.3368  0.2080
  663MOL0     C89431   0.106   9.354   0.204 -0.6035  0.1440  0.5177
  663MOL0     C89432   0.003   9.428   0.115  1.2497 -0.2904  0.1204
  663MOL0     C89433  -0.056   9.346  -0.000  0.3046  0.3200 -0.7287
  663MOL0     C89434  -0.148   9.441  -0.067  0.8713 -0.3591  0.2272
  663MOL0     C89435  -0.199   9.529  -0.136  0.1578 -0.3121  0.3327
  663MOL0     C89436   0.498   9.578   0.037  1.1641  0.2277  0.2633
  663MOL0     C89437   0.628   9.617   0.042 -0.8946  0.1453 -0.3314
  663MOL0     H89438   1.108   9.617   0.077  0.2390  2.7789 -1.0027
  663MOL0     H89439   1.345   9.617   0.139  1.1575  3.6841  1.0135
  663MOL0     H89440   1.441   9.602   0.585 -0.7489 -1.6315  0.3521
  663MOL0     H89441   1.481   9.441   0.545 -0.1863 -1.3411 -1.5338
  663MOL0     H89442   1.698   9.522   0.589  1.4643  0.3891 -0.0320
  663MOL0     H89443   1.682   9.528   0.414  0.0113  2.3389 -0.7745
  663MOL0     H89444   1.611   9.769   0.435 -0.0425 -0.8037 -1.1005
  663MOL0     H89445   1.591   9.754   0.609 -1.5074  0.2769 -1.3395
  663MOL0     H89446   1.833   9.717   0.636 -0.4506  2.9372  1.9142
  663MOL0     H89447   1.856   9.785   0.464  1.0102 -1.8004  0.3121
  663MOL0     H89448   1.720   9.985   0.556  0.2837  0.3031  0.1680
  663MOL0     H89449   1.720   9.908   0.709  0.0307 -0.9753  0.2299
  663MOL0     H89450   1.964   9.987   0.555  0.5341  0.6892 -0.3893
  663MOL0     H89451   1.903  10.066   0.705  2.5191 -0.9406  1.9713
  663MOL0     H89452   2.041   9.782   0.700 -1.2578 -1.2240  0.5076
  663MOL0     H89453   2.099   9.932   0.784 -1.0025  1.4931 -1.3276
  663MOL0     H89454   1.880   9.735   0.867  2.0263 -0.1131 -0.8479
  663MOL0     H89455   1.846   9.904   0.899  1.0564  1.1432  0.2209
  663MOL0     H89456   2.045  10.041   1.068  1.4544  1.0555  0.9881
  663MOL0     H89457   2.212  10.060   1.251 -5.5296 -2.0913  4.5132
  663MOL0     H89458   2.220   9.932   1.350  0.1663 -2.8320 -0.8461
  663MOL0     H89459   2.429   9.843   1.258 -0.1480 -0.1504  0.9045
  663MOL0     H89460   2.464  10.008   1.291 -1.8410 -0.2641  0.9045
  663MOL0     H89461   2.561   9.965   1.085 -0.4240 -1.7918 -0.5113
  663MOL0     H89462   2.429  10.075   1.046 -1.0321  0.5673 -0.3742
  663MOL0     H89463   2.302   9.898   0.939  0.4728  2.7983  1.6909
  663MOL0     H89464   2.391   9.775   1.023 -4.3515  0.9481  0.1466
  663MOL0     H89465   2.566   9.626   0.938 -1.5132  1.0827  0.7659
  663MOL0     H89466   2.684   9.471   0.987 -0.7412 -0.3188 -0.5118
  663MOL0     H89467   2.827   9.451   0.885  3.0715  2.1791  0.5703
  663MOL0     H89468   2.835   9.509   1.057 -0.7544 -2.5891  1.3945
  663MOL0     H89469   3.279   9.759   0.644  2.7285  1.5152 -1.7025
  663MOL0     H89470   3.523   9.679   0.681 -1.7577 -1.2969  0.2149
  663MOL0     H89471   3.730   9.838   1.037 -3.1342 -0.3582  3.6284
  663MOL0     H89472   3.683   9.671   1.076  1.1919 -1.7637 -0.8395
  663MOL0     H89473   3.940   9.776   0.947  0.1095 -1.7026 -2.4288
  663MOL0     H89474   3.915   9.685   1.094 -0.5954  1.3692 -0.3545
  663MOL0     H89475   3.899   9.595   0.806 -0.8901 -0.1169  0.3670
  663MOL0     H89476   3.815   9.499   0.929 -2.4199  2.2921 -1.4523
  663MOL0     H89477   4.047   9.423   0.855 -0.3906 -1.9436  1.5476
  663MOL0     H89478   4.118   9.558   0.933 -0.7845 -0.3659 -0.7812
  663MOL0     H89479   3.920   9.345   1.049  1.4670 -1.1759  2.3961
  663MOL0     H89480   3.992   9.474   1.138  0.5350 -0.6164  0.1432
  663MOL0     H89481   4.091   9.233   1.152  0.6476 -0.7638 -0.9304
  663MOL0     H89482   4.192   9.275   1.018 -0.7190  2.1259 -1.4292
  663MOL0     H89483   4.183   9.417   1.298 -0.6690  3.0097  0.0320
  663MOL0     H89484   4.231   9.513   1.168 -2.2706  0.6235  0.1360
  663MOL0     H89485   4.382   9.254   1.224  1.5066  0.5609 -1.0211
  663MOL0     H89486   4.433   9.415   1.272  0.3515  0.5197  0.3533
  663MOL0     H89487   3.510   9.847   1.075 -1.4484 -2.9257  1.9020
  663MOL0     H89488   3.251   9.873   1.050  3.6726 -1.1219  3.3162
  663MOL0     H89489   2.909   9.939   0.787  2.1118 -2.7007 -0.5388
  663MOL0     H89490   2.681  10.010   0.786 -0.5999  0.1818  1.1853
  663MOL0     H89491   1.236   9.633   0.559  2.0305  0.2075 -0.2058
  663MOL0     H89492   1.002   9.646   0.484  1.9161  1.9399  2.0149
  663MOL0     H89493   0.704   9.538   0.359  0.3096  2.7626  0.0051
  663MOL0     H89494   0.475   9.449   0.349 -0.0447  1.7788  1.1252
  663MOL0     H89495   0.291   9.352   0.292 -3.1517 -2.8885 -0.2562
  663MOL0     H89496   0.210   9.512   0.299 -4.2217  1.1201 -2.0855
  663MOL0     H89497   0.056   9.328   0.297  0.6533  0.0968  1.2106
  663MOL0     H89498   0.142   9.260   0.161 -1.1957  0.5358 -0.8775
  663MOL0     H89499   0.050   9.516   0.070  1.8010 -1.3071 -1.3679
  663MOL0     H89500  -0.083   9.458   0.176  1.8212 -0.1909  0.8905
  663MOL0     H89501  -0.113   9.257   0.028 -0.2456 -0.5602 -4.1423
  663MOL0     H89502   0.020   9.312  -0.072 -1.0626  0.7762 -2.4503
  663MOL0     H89503  -0.246   9.607  -0.192 -0.8213 -1.4581 -0.4890
  663MOL0     H89504   0.445   9.581  -0.058  2.4343 -1.2710 -0.5593
  663MOL0     H89505   0.670   9.670  -0.043  1.3121 -3.5055 -1.7599
  664MOL0     O89506   7.841   2.018   1.712  0.5285  0.0595 -0.4251
  664MOL0     C89507   7.732   2.067   1.740  0.3714  0.6889  0.3524
  664MOL0     O89508   7.711   2.202   1.767  0.4936  0.2444 -0.8251
  664MOL0     C89509   7.803   2.295   1.768  0.2602  0.4387 -0.5467
  664MOL0     C89510   7.909   2.302   1.687 -0.4511 -0.1070  0.1229
  664MOL0     C89511   8.002   2.409   1.692 -0.0422 -0.3562  1.3682
  664MOL0     C89512   7.997   2.508   1.788  0.2696 -0.3024 -0.6380
  664MOL0     O89513   8.098   2.588   1.828  0.1627  0.3858  0.0234
  664MOL0     C89514   8.161   2.665   1.728  0.7653 -0.4345 -1.4019
  664MOL0     C89515   8.306   2.623   1.714 -0.2272  0.3461  0.8819
  664MOL0     C89516   8.369   2.729   1.621  0.4028 -0.4759  0.1399
  664MOL0     C89517   8.463   2.820   1.708  2.0100  0.2418  0.1825
  664MOL0     C89518   8.477   2.949   1.627 -0.3029 -0.0681  0.4049
  664MOL0     C89519   8.610   3.024   1.666  0.0419 -0.4259 -0.1100
  664MOL0     C89520   8.733   2.949   1.624  0.0897 -0.3139  0.8122
  664MOL0     C89521   8.857   3.046   1.594 -0.4305  0.4063 -0.4988
  664MOL0     N89522   8.979   2.973   1.575  0.5260 -0.8236  0.5244
  664MOL0     C89523   9.012   2.887   1.476  0.3228 -0.1171  0.2148
  664MOL0     C89524   9.142   2.862   1.490 -0.3316 -0.3239 -0.5180
  664MOL0     C89525   9.222   2.760   1.406  0.2182 -0.3092  0.4984
  664MOL0     C89526   9.142   2.627   1.367  0.0931 -0.6922 -0.3927
  664MOL0     C89527   9.220   2.519   1.293  0.8133  0.4209 -0.7579
  664MOL0     C89528   9.173   2.371   1.324 -0.4955  0.8323  0.3249
  664MOL0     O89529   9.185   2.341   1.462  0.5357 -0.1300 -0.2986
  664MOL0     C89530   9.101   2.259   1.540 -0.9829  0.0619  0.0301
  664MOL0     C89531   9.124   2.257   1.671  0.5577 -0.4259 -0.1773
  664MOL0     C89532   9.057   2.172   1.752  0.3391  0.1453  0.4819
  664MOL0     C89533   9.102   2.180   1.903  0.7177  0.3282 -0.1279
  664MOL0     C89534   8.942   2.094   1.707  0.2297 -0.4352  0.0936
  664MOL0     C89535   8.870   1.994   1.795  0.6445 -0.8833  0.6572
  664MOL0     O89536   8.874   2.009   1.934 -0.7372  0.1577  0.5016
  664MOL0     C89537   8.817   1.914   2.005  0.9251  0.3516 -1.2867
  664MOL0     C89538   8.842   1.778   1.973  0.6022  0.3527 -0.5031
  664MOL0     C89539   8.792   1.674   2.052  0.2763  1.3944 -1.1691
  664MOL0     C89540   8.709   1.694   2.162 -0.5834 -0.8304  1.5415
  664MOL0     O89541   8.651   1.602   2.240  0.1834 -0.2768 -0.5494
  664MOL0     C89542   8.660   1.462   2.212  0.2587  0.3091  0.2918
  664MOL0     C89543   8.558   1.386   2.285 -0.1118 -0.6117  0.9705
  664MOL0     C89544   8.418   1.438   2.247  0.1631  0.1861 -0.2965
  664MOL0     C89545   8.316   1.328   2.244 -0.4749  0.0927 -0.4483
  664MOL0     C89546   8.169   1.389   2.246  1.2298  0.5207 -0.4638
  664MOL0     C89547   8.115   1.396   2.395 -0.9534 -0.1260 -0.3751
  664MOL0     C89548   7.962   1.423   2.396  0.1435 -0.3178 -0.5590
  664MOL0     C89549   7.908   1.406   2.537  0.1159  0.8932 -0.0246
  664MOL0    Cl89550   7.738   1.374   2.503  0.1440 -0.3038 -0.2626
  664MOL0     C89551   8.675   1.830   2.183  0.3325 -0.1164 -0.7526
  664MOL0     C89552   8.717   1.939   2.106 -0.6763  0.4984  0.2768
  664MOL0     O89553   8.805   1.906   1.734 -0.8685 -0.5412  0.2552
  664MOL0     C89554   8.912   2.100   1.569 -0.5486 -0.3314  1.0725
  664MOL0     C89555   8.999   2.180   1.481 -0.0349 -1.0218 -0.2011
  664MOL0     N89556   9.192   2.930   1.600  0.9262  1.1218  0.0946
  664MOL0     N89557   9.092   2.996   1.648 -0.5820  0.4560  0.8735
  664MOL0     C89558   7.887   2.505   1.865 -0.3158 -0.4333  0.3819
  664MOL0     C89559   7.792   2.398   1.861 -0.2700  0.1506  0.3815
  664MOL0     C89560   7.622   1.982   1.722  0.6909 -0.1443 -0.4486
  664MOL0     C89561   7.632   1.838   1.707  0.1846 -0.4000  0.5740
  664MOL0     C89562   7.518   1.760   1.688 -0.0549  0.2375  0.3344
  664MOL0     C89563   7.397   1.819   1.679 -0.4729 -0.7529  0.2490
  664MOL0     O89564   7.289   1.738   1.659  0.6411  0.6285 -0.1687
  664MOL0     C89565   7.181   1.751   1.745 -0.9683 -1.0117 -0.1228
  664MOL0     C89566   7.146   1.618   1.816 -0.1622  0.5004  0.1793
  664MOL0     C89567   7.229   1.575   1.936 -0.7660  0.3779  0.3442
  664MOL0     C89568   7.159   1.626   2.061 -0.0380  0.9469  0.2490
  664MOL0     C89569   7.027   1.573   2.085 -0.6060 -0.3725  0.4513
  664MOL0     C89570   6.910   1.559   2.101 -1.1358  0.6009 -0.9211
  664MOL0     C89571   7.382   1.957   1.689  0.1102  0.2478  0.1989
  664MOL0     C89572   7.491   2.038   1.719  0.0599  0.1138 -0.9408
  664MOL0     H89573   7.930   2.224   1.614  2.0131  0.1354  0.4827
  664MOL0     H89574   8.083   2.425   1.622 -1.3045 -3.0744 -0.9267
  664MOL0     H89575   8.102   2.670   1.636 -0.0382  0.7218 -0.8505
  664MOL0     H89576   8.168   2.768   1.764  2.6027 -1.2504  0.7792
  664MOL0     H89577   8.361   2.616   1.807  0.7598  0.1893  0.2970
  664MOL0     H89578   8.311   2.520   1.676 -0.3833  0.3533  0.8406
  664MOL0     H89579   8.425   2.660   1.558 -0.0019 -0.1196 -0.6179
  664MOL0     H89580   8.291   2.787   1.571  1.9826  2.8833  1.2619
  664MOL0     H89581   8.415   2.836   1.805  2.1862  1.2491  0.1218
  664MOL0     H89582   8.550   2.758   1.731 -1.0615 -3.1985  4.0677
  664MOL0     H89583   8.475   2.931   1.519 -1.2266 -1.7265  0.6694
  664MOL0     H89584   8.390   3.006   1.662 -1.3001 -0.9318 -0.6102
  664MOL0     H89585   8.598   3.117   1.609 -0.5820 -0.1287  0.4855
  664MOL0     H89586   8.622   3.047   1.773  0.1471  0.3648 -0.2856
  664MOL0     H89587   8.755   2.867   1.693 -0.4053 -1.1032  0.0588
  664MOL0     H89588   8.701   2.905   1.529 -0.0785  0.1274  0.6604
  664MOL0     H89589   8.866   3.124   1.670 -2.8550  1.3012 -1.0496
  664MOL0     H89590   8.841   3.105   1.503 -0.6293 -0.5999 -1.1332
  664MOL0     H89591   8.948   2.833   1.408  1.4934  0.4108 -1.3675
  664MOL0     H89592   9.241   2.823   1.319 -2.5007  1.3359  0.9951
  664MOL0     H89593   9.312   2.719   1.454  0.3445 -1.5553 -0.7344
  664MOL0     H89594   9.068   2.668   1.297 -0.4125 -0.1840  0.4259
  664MOL0     H89595   9.085   2.591   1.453  0.8138  1.0592  0.8951
  664MOL0     H89596   9.325   2.527   1.323  0.5920 -1.0805  0.5627
  664MOL0     H89597   9.216   2.523   1.184  1.0366 -0.3932 -0.8028
  664MOL0     H89598   9.225   2.302   1.257 -4.2298  1.1511 -3.3638
  664MOL0     H89599   9.070   2.357   1.288 -0.3627 -1.6063  0.7355
  664MOL0     H89600   9.198   2.319   1.720  0.0201  0.7841 -0.8722
  664MOL0     H89601   9.097   2.080   1.948  2.4139 -0.9556 -2.5800
  664MOL0     H89602   9.205   2.216   1.909 -0.4410  4.0495  0.2741
  664MOL0     H89603   9.033   2.247   1.956  0.3716 -0.0327 -0.1125
  664MOL0     H89604   8.910   1.745   1.895  1.2391 -2.1865  1.0338
  664MOL0     H89605   8.823   1.575   2.019 -0.6119  1.0940 -1.1210
  664MOL0     H89606   8.630   1.442   2.109  0.0177  1.2367  0.1746
  664MOL0     H89607   8.765   1.434   2.227  0.2141 -0.9212 -1.4208
  664MOL0     H89608   8.575   1.280   2.262 -1.1482 -0.1325 -2.7311
  664MOL0     H89609   8.578   1.391   2.392  0.8476 -1.1965  0.8347
  664MOL0     H89610   8.408   1.484   2.148 -1.1145 -1.7005 -1.0997
  664MOL0     H89611   8.393   1.519   2.316  2.3644  1.2584 -0.6767
  664MOL0     H89612   8.315   1.285   2.143 -1.6230 -0.3660 -0.2659
  664MOL0     H89613   8.327   1.247   2.316 -1.4072  0.6284  0.3278
  664MOL0     H89614   8.101   1.323   2.191  0.4930  2.1061 -1.5229
  664MOL0     H89615   8.163   1.481   2.186 -0.4778  0.1796 -0.8721
  664MOL0     H89616   8.132   1.300   2.443  1.8761  0.4802 -0.0020
  664MOL0     H89617   8.168   1.478   2.444 -0.5263  0.1360 -1.2544
  664MOL0     H89618   7.911   1.353   2.329  0.1226 -3.5085  2.4786
  664MOL0     H89619   7.937   1.527   2.372 -1.9325 -0.7434 -0.3947
  664MOL0     H89620   7.920   1.488   2.608 -0.8809  2.0206 -1.0922
  664MOL0     H89621   7.948   1.312   2.576 -0.3757 -0.2026 -2.0317
  664MOL0     H89622   8.595   1.847   2.254 -0.6897 -2.5231 -1.2253
  664MOL0     H89623   8.678   2.039   2.124 -0.5992  0.8542 -1.3914
  664MOL0     H89624   8.821   2.056   1.530 -1.4569  3.1279 -1.2470
  664MOL0     H89625   8.977   2.199   1.377 -0.2297  0.2191  0.0575
  664MOL0     H89626   7.892   2.585   1.938  1.9349  2.4409 -2.5904
  664MOL0     H89627   7.720   2.394   1.943 -1.3377  0.3665 -0.5169
  664MOL0     H89628   7.727   1.787   1.697  0.1297 -0.6167  1.1682
  664MOL0     H89629   7.539   1.655   1.675  1.8802  0.4988  1.0863
  664MOL0     H89630   7.203   1.833   1.814  0.8645  0.2423 -2.0975
  664MOL0     H89631   7.097   1.781   1.683  1.4518 -0.7462 -3.5409
  664MOL0     H89632   7.155   1.548   1.733  2.9485  0.8753  0.0676
  664MOL0     H89633   7.041   1.614   1.847  0.1447 -1.6770  1.1551
  664MOL0     H89634   7.332   1.611   1.943 -1.4675  2.1131  2.9470
  664MOL0     H89635   7.246   1.467   1.937  5.1476  0.9725  0.6915
  664MOL0     H89636   7.153   1.735   2.055  0.9443  1.0381  0.6099
  664MOL0     H89637   7.221   1.607   2.149  2.7398  1.7783 -1.3896
  664MOL0     H89638   6.803   1.558   2.107 -1.1149  0.8699 -0.5238
  664MOL0     H89639   7.286   2.007   1.682  0.3716  0.6124 -1.2070
  664MOL0     H89640   7.478   2.144   1.737  1.0654  0.1900 -0.5954
  665MOL0     O89641   7.880   8.543   0.427  0.0282  0.1573 -0.4089
  665MOL0     C89642   7.912   8.637   0.352 -0.2506  0.1070  0.2844
  665MOL0     O89643   8.039   8.670   0.313  0.4765  0.0056  0.1226
  665MOL0     C89644   8.159   8.614   0.355  0.2316  1.2066  0.3293
  665MOL0     C89645   8.278   8.678   0.331  0.2478  0.3769 -0.2623
  665MOL0     C89646   8.399   8.619   0.375 -0.2662 -0.3617  0.1476
  665MOL0     C89647   8.405   8.486   0.410  0.5492  0.5253  0.5480
  665MOL0     O89648   8.527   8.427   0.429 -0.1767 -0.0013  0.7330
  665MOL0     C89649   8.546   8.299   0.355  0.3429 -1.4357 -0.5624
  665MOL0     C89650   8.670   8.233   0.400  0.3756 -0.4810 -0.6022
  665MOL0     C89651   8.810   8.284   0.341 -0.0014  0.8127 -0.3446
  665MOL0     C89652   8.868   8.415   0.396 -0.5176 -0.4839 -0.1796
  665MOL0     C89653   8.999   8.452   0.326  0.1802  0.2755 -0.3381
  665MOL0     C89654   9.108   8.348   0.321 -0.6579  0.1352 -0.1017
  665MOL0     C89655   9.155   8.331   0.462 -0.0825  0.2441  0.3878
  665MOL0     C89656   9.282   8.243   0.464  0.4969  0.1666  0.3106
  665MOL0     N89657   9.243   8.104   0.409 -0.4022 -0.3182  0.9016
  665MOL0     C89658   9.150   8.030   0.471  0.5628  0.4812 -0.1538
  665MOL0     C89659   9.140   7.914   0.402  0.2863 -0.5531 -0.5368
  665MOL0     C89660   9.040   7.804   0.422 -0.9521  0.4264 -0.4009
  665MOL0     C89661   8.898   7.847   0.474  0.4367  0.4726  0.0843
  665MOL0     C89662   8.804   7.725   0.484  0.1744 -0.5394  0.1098
  665MOL0     C89663   8.671   7.774   0.548 -0.6095  0.2014  0.1983
  665MOL0     O89664   8.614   7.878   0.472  0.4481 -0.5599  0.4986
  665MOL0     C89665   8.492   7.929   0.509 -0.0851  0.1210  0.8079
  665MOL0     C89666   8.484   8.013   0.615  0.3192 -0.7769 -0.9946
  665MOL0     C89667   8.372   8.093   0.648  0.5361  0.1737  0.2222
  665MOL0     C89668   8.393   8.196   0.757  0.7814  0.3549  0.3430
  665MOL0     C89669   8.245   8.058   0.588 -0.9027 -0.4456 -0.7685
  665MOL0     C89670   8.116   8.116   0.619  0.6082  0.3316 -0.1422
  665MOL0     O89671   8.006   8.078   0.537 -0.3752  0.6899 -0.1971
  665MOL0     C89672   7.872   8.119   0.556 -0.6566  0.6171  1.1165
  665MOL0     C89673   7.767   8.022   0.541 -0.4637 -0.3944 -0.4494
  665MOL0     C89674   7.642   8.068   0.563  0.7981 -0.5666 -0.2644
  665MOL0     C89675   7.601   8.201   0.589 -0.6595  0.5551  0.5914
  665MOL0     O89676   7.469   8.226   0.562  0.2721 -0.0908  0.0026
  665MOL0     C89677   7.412   8.350   0.617  0.0505 -0.2120 -0.0169
  665MOL0     C89678   7.280   8.358   0.547 -0.7314 -0.6662  0.4855
  665MOL0     C89679   7.193   8.482   0.611 -0.6756  0.6769 -0.0274
  665MOL0     C89680   7.054   8.477   0.540  0.6063  0.1207 -0.1287
  665MOL0     C89681   6.963   8.569   0.609 -0.1974  0.7481 -0.4629
  665MOL0     C89682   6.826   8.588   0.550 -0.2085  0.8524  0.1148
  665MOL0     C89683   6.818   8.641   0.399 -0.1065  0.0426 -0.9252
  665MOL0     C89684   6.877   8.783   0.393 -0.2684  0.0755 -0.5063
  665MOL0    Cl89685   6.759   8.889   0.465 -0.2777 -0.0647  0.0637
  665MOL0     C89686   7.705   8.295   0.590  1.3974 -0.5448 -0.4270
  665MOL0     C89687   7.835   8.257   0.572 -1.2354 -0.2993  0.2670
  665MOL0     O89688   8.107   8.216   0.694  0.7752 -0.5522  0.1082
  665MOL0     C89689   8.257   7.967   0.478  0.4813 -0.3094 -0.6048
  665MOL0     C89690   8.376   7.909   0.440  0.6129 -0.2420 -0.6014
  665MOL0     N89691   9.229   7.923   0.296 -0.1883  0.3813 -0.1660
  665MOL0     N89692   9.297   8.029   0.308 -0.1456  0.2890 -0.2410
  665MOL0     C89693   8.288   8.410   0.422  0.6824 -0.2704 -0.8401
  665MOL0     C89694   8.162   8.473   0.398 -0.8043  0.3269  0.1157
  665MOL0     C89695   7.804   8.724   0.297 -0.0583  1.2689 -1.0142
  665MOL0     C89696   7.818   8.821   0.193 -0.3130  0.0836 -1.0713
  665MOL0     C89697   7.713   8.901   0.160 -0.0157 -0.4321  0.7735
  665MOL0     C89698   7.583   8.881   0.207 -0.5633 -0.1797  0.3752
  665MOL0     O89699   7.480   8.958   0.149 -0.4565 -0.7354 -0.0744
  665MOL0     C89700   7.349   8.940   0.180  0.7766  0.3532 -0.4213
  665MOL0     C89701   7.289   9.069   0.130 -0.0911  0.5343 -0.4974
  665MOL0     C89702   7.148   9.059   0.175 -0.1850 -0.8192 -0.1707
  665MOL0     C89703   7.083   9.195   0.152  0.6898  0.3371  0.2564
  665MOL0     C89704   6.935   9.191   0.182  0.3015  0.5466  0.2245
  665MOL0     C89705   6.823   9.165   0.199  0.5136  0.1261  0.2116
  665MOL0     C89706   7.564   8.780   0.302 -0.3515  0.7289  0.6152
  665MOL0     C89707   7.674   8.702   0.342  0.3239 -1.1831  0.3682
  665MOL0     H89708   8.277   8.778   0.288  1.1348  0.1160 -0.9256
  665MOL0     H89709   8.488   8.681   0.376 -0.8466  0.4975 -0.1543
  665MOL0     H89710   8.470   8.222   0.368 -2.1821  0.6339 -1.9696
  665MOL0     H89711   8.564   8.322   0.249 -2.3926  0.6828 -0.6789
  665MOL0     H89712   8.678   8.244   0.509 -0.3739 -0.0206 -0.5847
  665MOL0     H89713   8.659   8.127   0.373 -2.1285 -0.9553  1.8055
  665MOL0     H89714   8.883   8.203   0.344  0.9982  1.6712 -1.0401
  665MOL0     H89715   8.793   8.294   0.234 -1.0203 -0.4932 -0.3395
  665MOL0     H89716   8.790   8.489   0.379 -1.6583 -1.7238 -0.4789
  665MOL0     H89717   8.888   8.414   0.504  3.6914  0.1901 -0.7466
  665MOL0     H89718   8.980   8.482   0.223  3.4045  1.1612 -0.7916
  665MOL0     H89719   9.046   8.542   0.367  0.9663  0.2391 -1.1157
  665MOL0     H89720   9.085   8.257   0.264  1.6764  0.9115 -2.4782
  665MOL0     H89721   9.186   8.394   0.260 -2.1974  2.5026 -0.4122
  665MOL0     H89722   9.170   8.429   0.507 -2.9411  0.1604  1.7763
  665MOL0     H89723   9.076   8.289   0.525  0.2359  0.9783  1.2927
  665MOL0     H89724   9.320   8.240   0.566 -1.4535 -0.6911  1.0678
  665MOL0     H89725   9.351   8.293   0.395 -0.6570  1.7599  0.2607
  665MOL0     H89726   9.093   8.042   0.562  1.0631 -2.7458  0.6951
  665MOL0     H89727   9.019   7.752   0.328  0.6858 -1.5652  0.2478
  665MOL0     H89728   9.081   7.721   0.481 -0.9919  0.8795  0.2705
  665MOL0     H89729   8.856   7.921   0.406 -0.8044 -1.8386 -1.7915
  665MOL0     H89730   8.916   7.886   0.575 -0.2596 -0.4634  0.5968
  665MOL0     H89731   8.846   7.652   0.553  1.6890 -1.6833 -1.9239
  665MOL0     H89732   8.797   7.690   0.381  2.6847  1.8812 -1.0227
  665MOL0     H89733   8.693   7.796   0.653  0.3708  2.2710 -0.3922
  665MOL0     H89734   8.606   7.686   0.551 -3.0583  1.8118 -1.6483
  665MOL0     H89735   8.570   8.020   0.681 -0.1234 -0.7568 -0.4113
  665MOL0     H89736   8.355   8.291   0.718  0.9205  0.9030  1.5079
  665MOL0     H89737   8.331   8.163   0.841  0.7296  0.9113  0.5263
  665MOL0     H89738   8.495   8.216   0.790  0.1698  1.7874  1.4438
  665MOL0     H89739   7.785   7.918   0.516 -0.3052 -0.6888  0.8368
  665MOL0     H89740   7.566   7.992   0.552 -1.4765  1.7906 -2.0311
  665MOL0     H89741   7.389   8.333   0.722 -1.5148 -3.7991 -0.7630
  665MOL0     H89742   7.472   8.439   0.598  1.6198 -0.6618  2.4708
  665MOL0     H89743   7.293   8.359   0.439  0.1404 -0.8946  0.5770
  665MOL0     H89744   7.232   8.265   0.578  0.4788 -1.9386 -1.2682
  665MOL0     H89745   7.238   8.576   0.578 -0.2555  0.1257 -1.0692
  665MOL0     H89746   7.177   8.474   0.719 -1.7485  2.5386 -0.0097
  665MOL0     H89747   7.062   8.503   0.434 -2.9221  1.9975 -0.0924
  665MOL0     H89748   7.027   8.371   0.546 -0.4538  0.3425 -0.7510
  665MOL0     H89749   7.021   8.661   0.615 -0.3789  0.7586  2.0928
  665MOL0     H89750   6.954   8.540   0.714  0.3150 -2.1051 -1.0970
  665MOL0     H89751   6.765   8.497   0.553  1.0850 -0.0282  2.0360
  665MOL0     H89752   6.771   8.662   0.608 -1.2727  0.3608 -0.2368
  665MOL0     H89753   6.720   8.641   0.352 -0.0535  1.3689 -1.0941
  665MOL0     H89754   6.886   8.581   0.339  2.3949  2.9387 -1.2715
  665MOL0     H89755   6.897   8.832   0.297  1.1594  4.5875  1.7977
  665MOL0     H89756   6.975   8.783   0.443 -0.5127  2.3084  0.0802
  665MOL0     H89757   7.690   8.402   0.601  0.5336 -0.3304 -3.0336
  665MOL0     H89758   7.907   8.337   0.580  0.5602 -1.6091 -1.5989
  665MOL0     H89759   8.163   7.942   0.430  1.0352 -1.7654 -0.9671
  665MOL0     H89760   8.366   7.831   0.365 -4.4498  2.3730 -3.2032
  665MOL0     H89761   8.280   8.307   0.457  1.9049  0.0972  0.6240
  665MOL0     H89762   8.071   8.418   0.418  0.2187 -1.1078  1.0327
  665MOL0     H89763   7.914   8.849   0.152  0.2644 -0.1804  0.0446
  665MOL0     H89764   7.715   8.986   0.092 -1.3150 -0.0624  1.1656
  665MOL0     H89765   7.308   8.854   0.127  2.8571  0.6648 -2.7665
  665MOL0     H89766   7.341   8.924   0.288  1.7279  1.4658 -0.1638
  665MOL0     H89767   7.295   9.064   0.021 -2.2521 -0.2454 -0.6290
  665MOL0     H89768   7.352   9.152   0.166  1.3513  0.8176 -3.4128
  665MOL0     H89769   7.133   9.035   0.281 -1.0415  1.8845  0.4123
  665MOL0     H89770   7.098   8.984   0.114 -0.3582 -0.8841  0.0488
  665MOL0     H89771   7.093   9.217   0.046 -1.0842  1.6402  0.3045
  665MOL0     H89772   7.127   9.276   0.210  1.1441  1.4699 -1.6038
  665MOL0     H89773   6.717   9.150   0.207  0.1079  2.8282  0.7171
  665MOL0     H89774   7.471   8.756   0.354  0.1132  1.6699  1.9390
  665MOL0     H89775   7.659   8.625   0.417 -0.6071 -1.0091  0.3603
  666MOL0     O89776   7.329  10.674   5.289 -0.0334  0.1921 -0.5715
  666MOL0     C89777   7.290  10.594   5.372  0.0750  0.2824  0.2453
  666MOL0     O89778   7.361  10.502   5.448 -0.2226 -0.0835 -0.3753
  666MOL0     C89779   7.498  10.506   5.419 -0.0498  0.5906 -0.3928
  666MOL0     C89780   7.585  10.612   5.438  0.7366  0.2401 -0.7493
  666MOL0     C89781   7.724  10.606   5.415 -0.3836  0.3389 -0.4273
  666MOL0     C89782   7.779  10.478   5.387 -1.1450 -0.4918 -0.1177
  666MOL0     O89783   7.915  10.455   5.377  0.2882 -0.5809  0.8678
  666MOL0     C89784   8.018  10.554   5.386 -0.3840 -0.0356  0.2484
  666MOL0     C89785   8.155  10.499   5.345  1.0392 -0.0558 -1.0093
  666MOL0     C89786   8.197  10.378   5.431 -0.6548 -0.2980 -0.0340
  666MOL0     C89787   8.197  10.406   5.578  0.5059  0.6029 -0.3360
  666MOL0     C89788   8.206  10.276   5.664  0.6830 -0.3466  0.2317
  666MOL0     C89789   8.100  10.158   5.644 -0.0264 -0.0386 -0.2552
  666MOL0     C89790   7.947  10.192   5.626 -0.0080  0.1181 -0.0762
  666MOL0     C89791   7.866  10.083   5.701 -0.1566  0.4721 -0.6371
  666MOL0     N89792   7.724  10.081   5.664 -0.5531  0.1681  0.0031
  666MOL0     C89793   7.620  10.102   5.751 -0.6512  0.5608  0.0167
  666MOL0     C89794   7.512  10.076   5.669  0.0893  0.0285  0.4071
  666MOL0     C89795   7.367  10.102   5.703  1.6604 -0.5944 -0.3827
  666MOL0     C89796   7.337  10.248   5.741 -0.4072 -0.0620  0.0970
  666MOL0     C89797   7.181  10.264   5.744  0.0711  0.3362  0.1679
  666MOL0     C89798   7.143  10.390   5.817  0.0524  0.0141 -0.5621
  666MOL0     O89799   7.001  10.403   5.822 -0.3437  0.0173 -0.1080
  666MOL0     C89800   6.927  10.517   5.827  0.6324  0.3858  0.2906
  666MOL0     C89801   6.780  10.511   5.840 -0.1708  0.5947 -0.5270
  666MOL0     C89802   6.698  10.626   5.851  0.6928 -0.3262 -0.8031
  666MOL0     C89803   6.550  10.615   5.839  0.5890  1.5151  0.0789
  666MOL0     C89804   6.762  10.755   5.838 -0.3348  0.5596  0.1535
  666MOL0     C89805   6.693  10.887   5.839 -0.2040 -0.4171  0.9863
  666MOL0     O89806   6.760  11.002   5.863 -0.5765 -0.3127 -1.2646
  666MOL0     C89807   6.698  11.129   5.843 -0.8800 -0.3955 -1.1232
  666MOL0     C89808   6.607  11.164   5.737 -1.1403  0.1958  0.3114
  666MOL0     C89809   6.566  11.299   5.723 -0.5058 -0.1526 -0.3698
  666MOL0     C89810   6.595  11.396   5.824  0.2391 -0.6964  0.1765
  666MOL0     O89811   6.523  11.519   5.810  0.9141  0.9518 -0.0590
  666MOL0     C89812   6.478  11.580   5.932 -0.1283  0.0013  0.5970
  666MOL0     C89813   6.395  11.702   5.879 -0.2274  0.2838 -0.0751
  666MOL0     C89814   6.319  11.771   5.997 -0.2517  1.0522 -0.3107
  666MOL0     C89815   6.213  11.857   5.932  0.4438 -0.3772  0.4668
  666MOL0     C89816   6.155  11.940   6.043 -0.6379 -0.3747 -0.2730
  666MOL0     C89817   6.078  12.068   5.998 -0.6915 -0.1863  0.1084
  666MOL0     C89818   6.012  12.138   6.114  0.7712 -0.3627  0.3426
  666MOL0     C89819   5.907  12.052   6.189  0.0852 -0.7556  0.4711
  666MOL0    Cl89820   5.807  12.137   6.311  0.0225  0.0350  0.0456
  666MOL0     C89821   6.672  11.358   5.936 -0.2105  0.7523  0.3243
  666MOL0     C89822   6.731  11.223   5.938 -0.3130 -0.4093  0.2793
  666MOL0     O89823   6.575  10.887   5.817  0.2172 -0.0381  0.5110
  666MOL0     C89824   6.902  10.759   5.835  0.0875 -0.1912  0.1400
  666MOL0     C89825   6.983  10.645   5.832  0.8815 -0.0982  0.8882
  666MOL0     N89826   7.552  10.038   5.540 -0.1663 -0.7133  0.1608
  666MOL0     N89827   7.679  10.039   5.545 -1.0439  0.0108 -0.9379
  666MOL0     C89828   7.692  10.360   5.379 -0.1662  0.2422 -0.4056
  666MOL0     C89829   7.557  10.380   5.396  0.5009 -0.6170  0.8186
  666MOL0     C89830   7.140  10.589   5.379 -0.8426 -0.3069 -0.0952
  666MOL0     C89831   7.079  10.494   5.462 -0.0162  0.2084  0.2440
  666MOL0     C89832   6.943  10.475   5.468  0.1117  0.0566 -0.1567
  666MOL0     C89833   6.858  10.544   5.371 -0.5522  0.8584 -0.2629
  666MOL0     O89834   6.720  10.538   5.361 -0.3734  0.2965 -0.3838
  666MOL0     C89835   6.646  10.496   5.476 -0.5828  0.4456 -0.2034
  666MOL0     C89836   6.498  10.514   5.450 -1.5350  0.3228 -0.1113
  666MOL0     C89837   6.467  10.661   5.436 -0.9309 -0.1013  0.3530
  666MOL0     C89838   6.322  10.671   5.481 -0.3419 -0.4639 -0.3443
  666MOL0     C89839   6.268  10.805   5.467  0.5882  1.2469  0.4007
  666MOL0     C89840   6.210  10.902   5.483 -0.2670  0.0005 -0.2222
  666MOL0     C89841   6.921  10.627   5.277  0.8362  1.0623  0.0104
  666MOL0     C89842   7.064  10.644   5.279 -0.4706 -0.3236 -0.6826
  666MOL0     H89843   7.553  10.715   5.445 -0.5644 -0.1972  0.1268
  666MOL0     H89844   7.794  10.689   5.407  1.9020 -1.3163  1.0906
  666MOL0     H89845   7.991  10.635   5.317 -1.0537 -0.7120 -0.2972
  666MOL0     H89846   8.012  10.601   5.485  1.3395  1.3326 -0.2453
  666MOL0     H89847   8.144  10.476   5.239 -0.1182 -0.0748 -0.9048
  666MOL0     H89848   8.227  10.581   5.347 -0.0624  1.0893 -3.6779
  666MOL0     H89849   8.125  10.300   5.407  0.3603 -0.2279 -4.1204
  666MOL0     H89850   8.297  10.342   5.405 -1.2830 -4.0055  2.0249
  666MOL0     H89851   8.281  10.469   5.611 -0.6977  1.6032  0.9725
  666MOL0     H89852   8.112  10.461   5.621 -0.9716 -0.6471 -1.5313
  666MOL0     H89853   8.313  10.253   5.671  0.3967 -1.2720  2.0360
  666MOL0     H89854   8.199  10.321   5.763 -0.0473  1.7964 -0.7220
  666MOL0     H89855   8.127  10.092   5.561  1.0832 -1.4166  1.1415
  666MOL0     H89856   8.110  10.094   5.733 -0.6318 -1.5865 -1.2650
  666MOL0     H89857   7.926  10.290   5.670 -1.1099  0.1019 -0.5189
  666MOL0     H89858   7.920  10.205   5.521 -0.9729  1.7898  0.3449
  666MOL0     H89859   7.884  10.102   5.807  2.2529  0.3318 -0.9589
  666MOL0     H89860   7.899   9.983   5.673  1.3590  1.0637 -1.0402
  666MOL0     H89861   7.623  10.134   5.854  1.5865  1.4977 -0.2886
  666MOL0     H89862   7.299  10.079   5.621 -0.2024  0.6217  0.7388
  666MOL0     H89863   7.335  10.040   5.787  2.3658 -1.3919 -0.6937
  666MOL0     H89864   7.384  10.320   5.673  0.4940 -3.5937 -3.4159
  666MOL0     H89865   7.381  10.252   5.841 -1.3737  2.0582  0.4784
  666MOL0     H89866   7.131  10.181   5.796  5.1586 -3.0662  0.2625
  666MOL0     H89867   7.139  10.275   5.644 -1.2991  0.1495  0.6846
  666MOL0     H89868   7.187  10.472   5.760 -0.1706  2.4818  2.5314
  666MOL0     H89869   7.193  10.384   5.914 -0.6834  0.8295 -0.1301
  666MOL0     H89870   6.741  10.411   5.825  0.5718  0.2273 -0.0993
  666MOL0     H89871   6.518  10.638   5.737  2.1853  1.6368 -0.4272
  666MOL0     H89872   6.521  10.512   5.863 -0.3958  1.5995 -0.7163
  666MOL0     H89873   6.496  10.673   5.914 -1.0855  4.0581 -2.8580
  666MOL0     H89874   6.575  11.099   5.656 -3.5863  2.3087 -0.5190
  666MOL0     H89875   6.504  11.330   5.639 -1.4382 -1.1338 -0.0657
  666MOL0     H89876   6.403  11.514   5.978  0.3894 -0.4014  0.8714
  666MOL0     H89877   6.564  11.606   5.993  1.7892  0.2530 -2.0639
  666MOL0     H89878   6.468  11.769   5.831 -1.2317 -0.6928 -3.2648
  666MOL0     H89879   6.332  11.664   5.798 -0.0878  2.1993 -1.1429
  666MOL0     H89880   6.395  11.820   6.058  2.1079  0.5271 -2.6572
  666MOL0     H89881   6.265  11.698   6.058 -0.3229 -0.4743 -2.0839
  666MOL0     H89882   6.262  11.930   5.867 -1.2682  1.1668  0.8102
  666MOL0     H89883   6.137  11.802   5.875 -2.0062  1.8289  1.4025
  666MOL0     H89884   6.231  11.966   6.117 -2.2155 -1.1454  1.7039
  666MOL0     H89885   6.088  11.870   6.093 -0.6818  1.1427  1.8980
  666MOL0     H89886   6.149  12.127   5.939  0.1492 -0.4035  0.8772
  666MOL0     H89887   6.006  12.042   5.920  1.7584 -3.1961 -1.3786
  666MOL0     H89888   5.967  12.233   6.085  2.0786  0.5403  1.1456
  666MOL0     H89889   6.083  12.150   6.197 -0.9199  2.6589  1.5430
  666MOL0     H89890   5.961  11.968   6.233 -0.3577 -2.0250 -1.3138
  666MOL0     H89891   5.838  12.006   6.118  1.2348  1.3686 -2.2227
  666MOL0     H89892   6.697  11.416   6.025 -3.2594  0.1766  1.6612
  666MOL0     H89893   6.819  11.218   6.001 -0.0189 -0.5593 -0.1412
  666MOL0     H89894   6.963  10.848   5.843 -0.1084 -0.1316  1.1304
  666MOL0     H89895   7.090  10.663   5.846  1.3846 -1.4725 -0.7940
  666MOL0     H89896   7.739  10.265   5.358  3.1955  1.1884  2.0235
  666MOL0     H89897   7.491  10.294   5.395 -1.2858  0.7038  0.2311
  666MOL0     H89898   7.133  10.443   5.541 -3.2437  2.6522  4.4248
  666MOL0     H89899   6.886  10.412   5.536  1.7295  2.0025  3.2777
  666MOL0     H89900   6.668  10.389   5.488  0.3815  0.3816 -2.2028
  666MOL0     H89901   6.679  10.537   5.571  0.3061  0.5096 -0.5379
  666MOL0     H89902   6.435  10.458   5.521 -1.0564 -3.0500 -2.1466
  666MOL0     H89903   6.484  10.461   5.356  1.9639 -0.2794 -0.4387
  666MOL0     H89904   6.481  10.709   5.339 -0.2862  1.1125  1.0140
  666MOL0     H89905   6.523  10.713   5.515 -1.8595 -0.8185  1.5238
  666MOL0     H89906   6.322  10.645   5.587  1.8054  2.4012  0.4868
  666MOL0     H89907   6.257  10.599   5.431 -2.1003 -0.6974  2.0812
  666MOL0     H89908   6.166  10.995   5.513 -0.0769  0.1400 -0.3729
  666MOL0     H89909   6.848  10.673   5.211 -0.6206 -2.4845 -1.0865
  666MOL0     H89910   7.114  10.715   5.214 -1.2031  0.9836  0.1454
  667MOL0     O89911   7.621  10.230   9.700  0.3685 -1.0340  1.0104
  667MOL0     C89912   7.658  10.338   9.655 -0.0527 -0.1662 -0.7149
  667MOL0     O89913   7.784  10.391   9.674  0.0235  0.7327  0.3122
  667MOL0     C89914   7.873  10.334   9.759  0.3429 -0.7339 -0.5686
  667MOL0     C89915   7.918  10.421   9.867  0.6160  0.9957 -0.2975
  667MOL0     C89916   8.016  10.365   9.961  0.1974  0.2521 -0.3277
  667MOL0     C89917   8.060  10.231   9.957  0.8509  0.8954  1.0455
  667MOL0     O89918   8.148  10.181  10.049  0.0888 -0.2905 -0.1829
  667MOL0     C89919   8.240  10.078  10.013 -0.3126 -0.2969  1.2918
  667MOL0     C89920   8.345  10.087  10.120  0.1097 -0.1501 -0.2478
  667MOL0     C89921   8.414  10.227  10.130  0.2673 -0.1116 -0.1686
  667MOL0     C89922   8.540  10.219  10.211 -0.1303 -0.0159  0.6902
  667MOL0     C89923   8.591  10.363  10.227 -0.2286 -0.5181  0.3360
  667MOL0     C89924   8.516  10.444  10.329 -0.2199  0.2520  0.0793
  667MOL0     C89925   8.555  10.595  10.333  0.2084  1.2022 -0.3016
  667MOL0     C89926   8.698  10.613  10.389 -0.1568 -0.3498 -0.0949
  667MOL0     N89927   8.711  10.760  10.416  0.3335 -0.1030 -0.4291
  667MOL0     C89928   8.673  10.869  10.344 -0.8738 -0.1027 -0.0639
  667MOL0     C89929   8.702  10.979  10.423 -0.1823  0.0995  0.0680
  667MOL0     C89930   8.632  11.108  10.406  0.3126  0.0442  0.0612
  667MOL0     C89931   8.516  11.142  10.511  0.7753 -0.5398  0.3858
  667MOL0     C89932   8.402  11.042  10.484  0.2312 -0.0664 -0.4535
  667MOL0     C89933   8.304  11.055  10.601 -0.8778 -0.7048  0.5076
  667MOL0     O89934   8.214  11.159  10.560  0.3487  0.1787  0.1244
  667MOL0     C89935   8.087  11.153  10.620  0.7484 -0.2670  0.6782
  667MOL0     C89936   8.056  11.102  10.736 -0.7600 -0.1474 -0.9097
  667MOL0     C89937   7.937  11.123  10.817  0.9181  0.1569  0.1334
  667MOL0     C89938   7.936  11.058  10.955  0.0373 -0.4414 -0.4340
  667MOL0     C89939   7.838  11.203  10.754 -0.8092  0.8347  0.9476
  667MOL0     C89940   7.707  11.228  10.815  0.3075  1.3316  0.8942
  667MOL0     O89941   7.616  11.287  10.730 -0.0749 -0.7223 -1.3137
  667MOL0     C89942   7.505  11.351  10.783  0.0114 -0.2733  0.9811
  667MOL0     C89943   7.426  11.307  10.888 -0.2213  0.3867  0.0495
  667MOL0     C89944   7.315  11.384  10.923  0.0809 -1.0122 -0.2938
  667MOL0     C89945   7.283  11.507  10.858  0.1702  0.5163 -0.0280
  667MOL0     O89946   7.162  11.569  10.877  0.0634  0.3917  0.0282
  667MOL0     C89947   7.070  11.522  10.978  0.6237  0.4160  0.7802
  667MOL0     C89948   6.952  11.611  10.952  0.4614  0.6486 -0.9261
  667MOL0     C89949   6.841  11.596  11.058 -0.4090  0.2972  0.0871
  667MOL0     C89950   6.748  11.722  11.040 -0.2081 -0.9843  0.1275
  667MOL0     C89951   6.614  11.694  11.099  0.0261 -0.9461 -0.1447
  667MOL0     C89952   6.521  11.820  11.089  0.2146  0.2789 -0.3992
  667MOL0     C89953   6.389  11.769  11.140  0.3847  0.7000 -0.9292
  667MOL0     C89954   6.293  11.888  11.157 -0.2255  0.1608 -0.7085
  667MOL0    Cl89955   6.162  11.846  11.261  0.1272 -0.2453 -0.6038
  667MOL0     C89956   7.364  11.554  10.764  0.4218  1.4316 -0.1875
  667MOL0     C89957   7.486  11.479  10.733 -0.1258 -0.0725  0.2300
  667MOL0     O89958   7.690  11.203  10.938 -0.0879  0.2222 -0.4741
  667MOL0     C89959   7.869  11.262  10.632  0.3210  0.5302  0.1870
  667MOL0     C89960   7.994  11.246  10.571  0.5389  0.0464 -0.6061
  667MOL0     N89961   8.764  10.930  10.544  0.3434  0.4628 -1.2450
  667MOL0     N89962   8.768  10.801  10.536  0.0881  0.5568 -1.2837
  667MOL0     C89963   8.016  10.156   9.843 -0.4810  0.0893  0.0727
  667MOL0     C89964   7.919  10.206   9.749 -0.7374  0.0533  0.3608
  667MOL0     C89965   7.545  10.416   9.598  0.8619 -0.2259 -0.3751
  667MOL0     C89966   7.556  10.558   9.579  0.3113 -0.3558 -0.7499
  667MOL0     C89967   7.466  10.636   9.502  0.6792  0.5122  0.4656
  667MOL0     C89968   7.355  10.571   9.444  0.3659 -0.1198  0.4677
  667MOL0     O89969   7.269  10.648   9.378  0.8513 -0.3198 -0.4555
  667MOL0     C89970   7.179  10.571   9.298  0.0820 -1.1120  0.3831
  667MOL0     C89971   7.110  10.671   9.200 -0.6274  0.1066 -0.4841
  667MOL0     C89972   7.011  10.750   9.283  0.3653 -0.0507 -0.1236
  667MOL0     C89973   6.880  10.673   9.319  0.1935 -0.7428  0.3720
  667MOL0     C89974   6.798  10.640   9.204 -0.5655  0.3702 -0.7227
  667MOL0     C89975   6.722  10.590   9.118 -0.8237  0.1961 -0.8061
  667MOL0     C89976   7.345  10.436   9.458 -0.2091 -0.5041 -0.2835
  667MOL0     C89977   7.435  10.352   9.531 -0.7708 -0.0779  0.0410
  667MOL0     H89978   7.877  10.520   9.881 -1.9299  0.1084 -0.9121
  667MOL0     H89979   8.055  10.421  10.046  3.1876 -2.0636 -0.0286
  667MOL0     H89980   8.198   9.979   9.995  1.5326 -1.0949  1.1252
  667MOL0     H89981   8.306  10.100   9.928 -0.3772  0.6253  1.4628
  667MOL0     H89982   8.305  10.060  10.219  0.6257  1.4551  0.4311
  667MOL0     H89983   8.418  10.012  10.088  0.0477 -0.1852 -0.3062
  667MOL0     H89984   8.440  10.264  10.030 -1.4806  2.9345  0.3665
  667MOL0     H89985   8.344  10.304  10.162 -0.2366 -0.7770  0.3515
  667MOL0     H89986   8.521  10.188  10.314 -1.1584 -0.8652  0.2705
  667MOL0     H89987   8.621  10.158  10.170  0.5178  3.0824 -3.2551
  667MOL0     H89988   8.695  10.354  10.259  0.4074  1.7492 -0.9098
  667MOL0     H89989   8.590  10.414  10.130  0.0714  0.2860  0.7480
  667MOL0     H89990   8.408  10.437  10.313 -0.7926  0.8999  3.0140
  667MOL0     H89991   8.526  10.402  10.430 -0.3203 -0.4668 -0.2070
  667MOL0     H89992   8.540  10.634  10.232 -3.6537  2.7434  0.7220
  667MOL0     H89993   8.487  10.650  10.398 -2.2183 -1.9313  0.0491
  667MOL0     H89994   8.768  10.598  10.306 -1.5866  0.4560 -1.4848
  667MOL0     H89995   8.721  10.551  10.477  0.8515 -3.0881 -2.1253
  667MOL0     H89996   8.634  10.858  10.243  0.9632 -0.4865 -0.7631
  667MOL0     H89997   8.707  11.187  10.413 -1.1762  1.6608 -1.2038
  667MOL0     H89998   8.583  11.110  10.308  1.1643  0.4446 -0.3599
  667MOL0     H89999   8.476  11.242  10.489 -0.3897 -0.8670  0.9344
  667MOL0     H90000   8.543  11.144  10.617 -0.8088 -2.6713  0.8891
  667MOL0     H90001   8.440  10.942  10.462 -0.9060 -0.1893 -2.0127
  667MOL0     H90002   8.352  11.073  10.392 -0.0573  1.1943  0.0963
  667MOL0     H90003   8.359  11.087  10.690  0.8503  1.3939 -1.1926
  667MOL0     H90004   8.257  10.957  10.613  1.4428 -2.1287 -1.1783
  667MOL0     H90005   8.128  11.036  10.783  0.6922  2.8339  1.3922
  667MOL0     H90006   7.914  11.122  11.041 -1.0165 -0.9587 -0.3022
  667MOL0     H90007   7.858  10.981  10.961 -1.3691  0.9710  0.3135
  667MOL0     H90008   8.027  10.998  10.966  0.2087 -1.2265 -4.7302
  667MOL0     H90009   7.440  11.207  10.928 -0.5059  0.1267 -0.4854
  667MOL0     H90010   7.248  11.337  10.994  1.2650 -0.0225  1.5488
  667MOL0     H90011   7.034  11.419  10.967 -0.8649  0.7267  2.3155
  667MOL0     H90012   7.111  11.551  11.075  1.9094 -0.6384  0.5749
  667MOL0     H90013   6.979  11.717  10.954 -2.2235  1.3996 -0.1462
  667MOL0     H90014   6.913  11.592  10.851 -0.6449  0.5234 -0.4929
  667MOL0     H90015   6.886  11.602  11.158 -2.1980  0.3330  0.9229
  667MOL0     H90016   6.787  11.502  11.049  0.4700 -0.3424  1.1801
  667MOL0     H90017   6.793  11.812  11.082 -0.7340 -0.6945  0.0828
  667MOL0     H90018   6.745  11.749  10.935  1.0062  2.1460  0.8029
  667MOL0     H90019   6.632  11.684  11.207 -0.8390  0.1725  0.1340
  667MOL0     H90020   6.568  11.607  11.052 -1.6509  0.1238 -0.5581
  667MOL0     H90021   6.560  11.893  11.160  0.3213 -0.1872  0.0240
  667MOL0     H90022   6.518  11.856  10.985  1.9446  2.3396  0.2079
  667MOL0     H90023   6.404  11.729  11.241 -3.0353 -0.7611 -0.8606
  667MOL0     H90024   6.358  11.691  11.070  2.5669 -3.6434  2.4441
  667MOL0     H90025   6.252  11.914  11.059  0.9722 -0.5567 -1.4130
  667MOL0     H90026   6.355  11.969  11.199  2.3746 -2.3911  0.7108
  667MOL0     H90027   7.351  11.629  10.687 -1.0785  0.7402 -0.6349
  667MOL0     H90028   7.555  11.505  10.653  2.0177  0.3012  2.0950
  667MOL0     H90029   7.806  11.317  10.563  1.8922  1.9875 -0.1461
  667MOL0     H90030   8.016  11.302  10.480 -0.5117 -0.4676 -1.1909
  667MOL0     H90031   8.051  10.054   9.834  0.8804  0.7108 -2.7040
  667MOL0     H90032   7.877  10.140   9.673  1.1627 -0.0499 -0.6582
  667MOL0     H90033   7.637  10.611   9.629 -1.2084  1.3117  0.0496
  667MOL0     H90034   7.494  10.736   9.471  0.6879 -0.2438 -2.2139
  667MOL0     H90035   7.230  10.498   9.235  0.3861  0.4383 -1.2311
  667MOL0     H90036   7.109  10.520   9.366  0.4559  0.4761  2.0507
  667MOL0     H90037   7.066  10.614   9.118 -0.4225  1.1267 -1.3277
  667MOL0     H90038   7.182  10.735   9.149 -0.0820 -0.2433 -0.1683
  667MOL0     H90039   6.973  10.832   9.222  1.8564  0.6653 -0.1371
  667MOL0     H90040   7.050  10.792   9.377 -1.8886  3.6218 -0.6165
  667MOL0     H90041   6.821  10.750   9.370  1.0898  1.1539 -1.3122
  667MOL0     H90042   6.896  10.594   9.394  3.0135  2.0963  3.0561
  667MOL0     H90043   6.665  10.544   9.040 -1.3522 -3.9396  1.7104
  667MOL0     H90044   7.245  10.393   9.454 -1.7610  2.7945 -0.1617
  667MOL0     H90045   7.413  10.247   9.546 -0.4862 -0.5624 -2.5496
  668MOL0     O90046   9.876   7.557   0.788 -0.1014  0.9437 -0.0343
  668MOL0     C90047   9.948   7.490   0.867 -0.2746 -1.2477  0.3642
  668MOL0     O90048   9.923   7.479   0.999  0.6001  0.1719  0.5942
  668MOL0     C90049   9.810   7.543   1.042  0.1746 -0.2887 -0.2253
  668MOL0     C90050   9.812   7.669   1.109  0.4049  0.2550 -0.7561
  668MOL0     C90051   9.702   7.728   1.161  0.8034 -0.2793  0.3747
  668MOL0     C90052   9.576   7.675   1.143 -0.5691 -0.7670 -0.1915
  668MOL0     O90053   9.472   7.748   1.199 -0.2689  0.0300  0.3415
  668MOL0     C90054   9.370   7.661   1.256 -0.0127 -0.1726  0.2009
  668MOL0     C90055   9.433   7.592   1.381 -0.1280  0.2197 -0.3165
  668MOL0     C90056   9.482   7.692   1.490 -0.2703 -0.3794 -0.3099
  668MOL0     C90057   9.595   7.640   1.574 -0.6431 -0.4060 -0.1131
  668MOL0     C90058   9.732   7.647   1.502 -0.2003 -0.1740  0.0900
  668MOL0     C90059   9.854   7.638   1.597 -0.6917  0.1494 -0.2063
  668MOL0     C90060   9.978   7.698   1.529 -0.3233 -0.4531 -0.2221
  668MOL0     C90061  10.101   7.687   1.623  0.8196 -0.2180 -0.4762
  668MOL0     N90062  10.207   7.762   1.564 -0.0703 -0.2904 -0.8361
  668MOL0     C90063  10.202   7.897   1.561 -0.1394 -0.3231  0.5471
  668MOL0     C90064  10.316   7.938   1.488  0.4776 -0.5902 -0.1831
  668MOL0     C90065  10.368   8.069   1.447  0.3670  0.1769  0.1709
  668MOL0     C90066  10.353   8.169   1.566 -0.3823 -0.4080 -0.3188
  668MOL0     C90067  10.451   8.281   1.553 -0.6097  0.4136  0.8440
  668MOL0     C90068  10.591   8.246   1.609 -0.4844  0.3167 -0.3242
  668MOL0     O90069  10.573   8.234   1.752  0.5511 -0.0824 -0.2004
  668MOL0     C90070  10.682   8.224   1.830  0.5241  0.9377 -0.5050
  668MOL0     C90071  10.665   8.211   1.968 -1.5520 -0.1910 -0.0188
  668MOL0     C90072  10.772   8.236   2.063 -0.7604  0.4384  0.7538
  668MOL0     C90073  10.745   8.218   2.215  0.0785  0.1915  0.5558
  668MOL0     C90074  10.908   8.252   2.009  0.1426 -0.8231  0.0756
  668MOL0     C90075  11.028   8.276   2.090 -1.3479 -0.0012 -0.1472
  668MOL0     O90076  11.148   8.292   2.026 -1.0219 -1.0900  0.4836
  668MOL0     C90077  11.265   8.288   2.099  0.3362  0.0244  0.9134
  668MOL0     C90078  11.320   8.391   2.170 -0.3876  0.7517  0.6581
  668MOL0     C90079  11.442   8.382   2.239  0.8819 -0.2737  0.3788
  668MOL0     C90080  11.516   8.266   2.217 -0.6131 -0.2841 -0.3419
  668MOL0     O90081  11.640   8.252   2.273  0.3907  0.2361 -0.0238
  668MOL0     C90082  11.717   8.375   2.266  0.9198  0.8638 -0.9714
  668MOL0     C90083  11.854   8.323   2.291 -0.4509  0.2060 -0.5959
  668MOL0     C90084  11.950   8.446   2.289 -0.4749  0.2007  0.7732
  668MOL0     C90085  11.994   8.490   2.425 -0.3513 -0.7639  0.8244
  668MOL0     C90086  12.071   8.627   2.406  0.5039  1.1048 -0.6603
  668MOL0     C90087  12.148   8.654   2.528  0.5240 -0.2227 -1.0819
  668MOL0     C90088  12.244   8.780   2.518  0.0898  0.3137  0.4014
  668MOL0     C90089  12.301   8.826   2.658  0.7218 -0.4352 -0.2604
  668MOL0    Cl90090  12.382   8.684   2.742 -0.3348  0.5344  0.2598
  668MOL0     C90091  11.460   8.155   2.150  0.1691 -0.3973 -0.5566
  668MOL0     C90092  11.340   8.172   2.087  0.0784  0.0533 -0.3323
  668MOL0     O90093  11.010   8.307   2.202 -0.4641  0.1433  0.0925
  668MOL0     C90094  10.922   8.246   1.872  0.4353 -0.7301 -1.0083
  668MOL0     C90095  10.815   8.236   1.791  0.1319  0.0862  0.5623
  668MOL0     N90096  10.388   7.822   1.465  0.0253  0.3926 -0.0425
  668MOL0     N90097  10.328   7.722   1.517  1.0089 -1.5135  0.0083
  668MOL0     C90098   9.573   7.555   1.076  0.3327  0.9667 -0.0298
  668MOL0     C90099   9.683   7.490   1.032  0.2846 -0.3044  0.1852
  668MOL0     C90100  10.064   7.422   0.811 -0.0311 -0.0525 -0.4725
  668MOL0     C90101  10.146   7.336   0.895  1.0670  0.4245 -0.3704
  668MOL0     C90102  10.254   7.270   0.836  0.1587 -0.7861 -0.1975
  668MOL0     C90103  10.296   7.297   0.705  0.3742  0.5905 -0.3081
  668MOL0     O90104  10.416   7.245   0.658  0.2435 -0.3419 -0.1489
  668MOL0     C90105  10.458   7.275   0.527 -0.9274 -0.0410 -0.8405
  668MOL0     C90106  10.609   7.247   0.502 -0.2945 -1.6803  0.7799
  668MOL0     C90107  10.664   7.113   0.525 -0.0145 -0.0610 -0.9240
  668MOL0     C90108  10.569   6.992   0.494 -0.4750 -0.0747 -0.2390
  668MOL0     C90109  10.644   6.867   0.495 -0.8157 -0.0414 -0.7317
  668MOL0     C90110  10.713   6.766   0.495  0.3164  0.0608  0.1309
  668MOL0     C90111  10.210   7.372   0.629 -0.5019  0.5544 -0.1633
  668MOL0     C90112  10.089   7.432   0.673 -0.5100 -0.7672 -0.0948
  668MOL0     H90113   9.902   7.727   1.129 -0.1160  1.6608 -2.2737
  668MOL0     H90114   9.695   7.826   1.208 -1.4197 -0.0517 -0.2932
  668MOL0     H90115   9.294   7.728   1.297 -0.7866  0.2293 -1.7858
  668MOL0     H90116   9.332   7.585   1.188 -1.3423  1.3605 -0.8420
  668MOL0     H90117   9.352   7.535   1.428 -0.0991  0.6704  0.2986
  668MOL0     H90118   9.511   7.528   1.340  0.6185  0.3359  0.8643
  668MOL0     H90119   9.493   7.796   1.456 -2.8609  0.3608  0.9350
  668MOL0     H90120   9.397   7.695   1.557 -0.1978  0.9673 -0.2482
  668MOL0     H90121   9.592   7.686   1.673 -1.7100 -1.3030  0.2959
  668MOL0     H90122   9.571   7.537   1.602  1.2773 -0.7839  0.2546
  668MOL0     H90123   9.731   7.567   1.426  0.1877  2.0803 -2.4579
  668MOL0     H90124   9.734   7.734   1.436  0.7964  0.1219  0.4999
  668MOL0     H90125   9.825   7.696   1.685  3.1399  0.4208  1.0509
  668MOL0     H90126   9.871   7.531   1.612 -0.9240 -0.1074 -1.6540
  668MOL0     H90127  10.005   7.639   1.440  0.0021 -3.1196  1.5238
  668MOL0     H90128   9.951   7.800   1.501 -0.3768 -0.4374 -0.1127
  668MOL0     H90129  10.145   7.587   1.632  4.2078  1.2708  1.4609
  668MOL0     H90130  10.072   7.721   1.722  0.6791 -1.2918 -0.1292
  668MOL0     H90131  10.131   7.975   1.587  1.7534  1.2849  1.1912
  668MOL0     H90132  10.477   8.068   1.437  0.1387  0.2541 -3.3770
  668MOL0     H90133  10.322   8.102   1.354  0.7109  1.1681  0.3322
  668MOL0     H90134  10.368   8.118   1.662 -3.6947 -2.7109 -0.8483
  668MOL0     H90135  10.251   8.208   1.560  0.7575  2.7044 -1.5994
  668MOL0     H90136  10.401   8.369   1.596 -1.6035  0.8432 -1.0560
  668MOL0     H90137  10.447   8.301   1.445 -1.0569 -1.9024  0.3905
  668MOL0     H90138  10.667   8.322   1.587  0.1778  0.2542  1.5309
  668MOL0     H90139  10.624   8.151   1.567 -2.6981 -0.5910 -0.1212
  668MOL0     H90140  10.573   8.206   2.025  0.4951  0.1843  3.6425
  668MOL0     H90141  10.643   8.185   2.233  0.5186 -1.5157  0.1012
  668MOL0     H90142  10.812   8.146   2.263  0.0378  0.8696  1.6774
  668MOL0     H90143  10.771   8.311   2.266  2.5867 -0.2125  0.1857
  668MOL0     H90144  11.282   8.493   2.166 -0.8056  0.6104 -3.4414
  668MOL0     H90145  11.475   8.468   2.296  4.2926 -0.8451 -0.5018
  668MOL0     H90146  11.721   8.426   2.169  0.2660  0.6891 -1.0961
  668MOL0     H90147  11.678   8.447   2.338  0.1829 -0.7844  0.3423
  668MOL0     H90148  11.870   8.268   2.384 -1.4916 -1.1570 -1.1907
  668MOL0     H90149  11.887   8.254   2.213 -0.4930  1.7722 -2.0441
  668MOL0     H90150  11.911   8.531   2.233 -1.3780 -0.2697  0.6751
  668MOL0     H90151  12.038   8.411   2.232 -1.2478 -1.3222  0.4538
  668MOL0     H90152  11.908   8.510   2.490 -0.7234 -2.0421  0.7529
  668MOL0     H90153  12.059   8.416   2.472  2.0751  0.0443 -1.0614
  668MOL0     H90154  11.997   8.705   2.385  0.1550  0.9194 -0.1419
  668MOL0     H90155  12.143   8.622   2.324  0.8157  3.7564 -0.6259
  668MOL0     H90156  12.075   8.672   2.607  0.5787  1.0461 -1.3002
  668MOL0     H90157  12.218   8.577   2.561 -0.7461 -0.9444 -0.0065
  668MOL0     H90158  12.188   8.862   2.472 -2.1442 -1.4772 -0.2375
  668MOL0     H90159  12.333   8.760   2.458 -0.5106  0.8886 -0.7172
  668MOL0     H90160  12.216   8.866   2.713 -0.5466 -0.9778 -1.7630
  668MOL0     H90161  12.383   8.898   2.649  2.8113 -2.6742 -0.2659
  668MOL0     H90162  11.514   8.061   2.148  0.9149  0.0022  0.0639
  668MOL0     H90163  11.293   8.099   2.021  0.8094  0.1127 -0.9285
  668MOL0     H90164  11.024   8.251   1.836  1.1012 -1.7039  0.6430
  668MOL0     H90165  10.850   8.236   1.688  0.3496  0.8588  0.6307
  668MOL0     H90166   9.475   7.513   1.056  1.8338 -1.9925 -1.8807
  668MOL0     H90167   9.675   7.394   0.981  0.8747  0.7788 -2.0976
  668MOL0     H90168  10.111   7.320   0.996 -1.2115  1.7213 -0.8858
  668MOL0     H90169  10.305   7.188   0.884 -0.1505 -3.0087 -3.3610
  668MOL0     H90170  10.396   7.229   0.449 -0.2768 -2.0376 -0.2570
  668MOL0     H90171  10.449   7.382   0.507 -0.7174  0.2757  0.6988
  668MOL0     H90172  10.667   7.310   0.570 -0.0084 -0.5826 -0.4261
  668MOL0     H90173  10.635   7.287   0.403 -0.3849 -0.5348  1.2085
  668MOL0     H90174  10.694   7.101   0.630 -2.9413  1.2092  0.1495
  668MOL0     H90175  10.757   7.109   0.467  0.1884  1.8370 -0.7662
  668MOL0     H90176  10.517   7.007   0.399  2.3552 -0.6583 -2.0081
  668MOL0     H90177  10.502   6.981   0.580 -0.3973 -0.2692 -0.2031
  668MOL0     H90178  10.761   6.670   0.502 -0.0412  0.0108  2.3647
  668MOL0     H90179  10.244   7.384   0.527 -2.7544 -0.1629 -1.0671
  668MOL0     H90180  10.022   7.486   0.607  4.7405  2.5210 -3.5132
  669MOL0     O90181   3.571   3.677   7.884 -0.3299 -0.1500  0.0767
  669MOL0     C90182   3.620   3.696   7.995 -0.0033  0.3060 -1.2431
  669MOL0     O90183   3.560   3.759   8.095 -0.3822  0.1908 -0.7795
  669MOL0     C90184   3.438   3.811   8.078  0.3688 -0.4740  1.3062
  669MOL0     C90185   3.401   3.947   8.102 -0.0094 -0.8905  0.8017
  669MOL0     C90186   3.269   3.991   8.091  0.1740  0.7265 -0.1666
  669MOL0     C90187   3.169   3.900   8.057 -0.5235 -0.6450  0.2242
  669MOL0     O90188   3.029   3.927   8.057 -0.1528  1.2969 -0.0218
  669MOL0     C90189   2.972   4.053   8.091 -0.7897 -0.6913 -0.3660
  669MOL0     C90190   2.827   4.070   8.071  0.0658 -0.2920  0.5149
  669MOL0     C90191   2.772   4.218   8.099 -1.1637  0.7472  0.1175
  669MOL0     C90192   2.630   4.217   8.150  0.6940 -0.2070 -0.6637
  669MOL0     C90193   2.584   4.364   8.185  0.3440  0.8624  0.3647
  669MOL0     C90194   2.527   4.442   8.065  0.4718  0.0941 -0.0682
  669MOL0     C90195   2.466   4.573   8.101 -0.5943 -0.2899  0.5394
  669MOL0     C90196   2.429   4.649   7.973  0.7832  0.0713 -0.6128
  669MOL0     N90197   2.316   4.597   7.896  0.1544 -0.2265 -1.1141
  669MOL0     C90198   2.190   4.633   7.919  0.0979 -0.0301  0.8443
  669MOL0     C90199   2.121   4.549   7.842 -0.2759  0.5474  0.1843
  669MOL0     C90200   1.966   4.543   7.841 -0.1139 -0.3443  0.5303
  669MOL0     C90201   1.903   4.661   7.768 -0.3903  0.4134  0.4582
  669MOL0     C90202   1.741   4.661   7.769  0.0386 -0.0906  0.0417
  669MOL0     C90203   1.686   4.793   7.700 -1.1719  0.7893 -0.2108
  669MOL0     O90204   1.547   4.773   7.678  0.4237  0.2540 -0.3085
  669MOL0     C90205   1.486   4.874   7.601  0.5128  0.0702 -0.7747
  669MOL0     C90206   1.515   5.010   7.588  0.2296  0.4297 -0.1459
  669MOL0     C90207   1.423   5.092   7.517  0.0696 -0.5883  0.4018
  669MOL0     C90208   1.449   5.247   7.528  0.6849  0.5171 -0.0427
  669MOL0     C90209   1.316   5.039   7.446 -0.1683  0.2666  0.2193
  669MOL0     C90210   1.207   5.114   7.378  0.0780 -0.7983 -0.2011
  669MOL0     O90211   1.080   5.061   7.380  0.2072 -0.2195 -0.9062
  669MOL0     C90212   0.993   5.111   7.281  0.5838  0.8762 -0.1467
  669MOL0     C90213   0.859   5.137   7.306  0.1200  0.0328 -1.4566
  669MOL0     C90214   0.774   5.162   7.202  0.4425 -0.3692 -0.4533
  669MOL0     C90215   0.806   5.185   7.068  0.0792 -0.8714  0.5717
  669MOL0     O90216   0.720   5.226   6.967 -0.1560  0.1476  0.0304
  669MOL0     C90217   0.620   5.317   7.011  0.4604 -0.0311  0.8701
  669MOL0     C90218   0.545   5.405   6.904 -0.3716  0.6939  0.9236
  669MOL0     C90219   0.405   5.354   6.871  0.2563  1.1412  0.9693
  669MOL0     C90220   0.401   5.240   6.784  0.1493 -0.2554  0.0212
  669MOL0     C90221   0.397   5.284   6.637 -0.6907  0.1032  0.0956
  669MOL0     C90222   0.377   5.161   6.552  0.0053  0.5564  0.5408
  669MOL0     C90223   0.392   5.203   6.414 -0.9691 -0.6116  0.6594
  669MOL0     C90224   0.390   5.084   6.320  0.4870 -0.5867 -0.6086
  669MOL0    Cl90225   0.236   5.007   6.334 -0.1315 -0.0092  0.3218
  669MOL0     C90226   0.942   5.156   7.040  0.0052 -0.7206  0.2546
  669MOL0     C90227   1.031   5.116   7.142 -0.5635  0.2235  0.5269
  669MOL0     O90228   1.238   5.226   7.328  0.1281  0.3647  0.2132
  669MOL0     C90229   1.303   4.901   7.442  0.7024 -0.0495  0.1086
  669MOL0     C90230   1.378   4.825   7.523  0.8066  1.0129 -0.0836
  669MOL0     N90231   2.205   4.480   7.762  0.7376  0.3416  0.3539
  669MOL0     N90232   2.327   4.511   7.788  0.1551  0.4607 -0.5871
  669MOL0     C90233   3.203   3.763   8.045  0.5294  0.2615  0.6225
  669MOL0     C90234   3.334   3.725   8.044  0.1880  0.0892 -0.3339
  669MOL0     C90235   3.761   3.655   8.015  0.2980  0.1329 -0.8039
  669MOL0     C90236   3.815   3.670   8.150  0.6499  0.3918  0.1326
  669MOL0     C90237   3.954   3.672   8.170  0.2634  0.3618  0.0537
  669MOL0     C90238   4.039   3.633   8.068 -0.1829  0.5876  0.7580
  669MOL0     O90239   4.169   3.634   8.102 -0.8973  0.3523  0.3279
  669MOL0     C90240   4.266   3.569   8.018  0.1771  0.7052  0.1104
  669MOL0     C90241   4.251   3.426   8.056 -0.0707 -0.0406  0.0498
  669MOL0     C90242   4.355   3.336   7.983 -0.4305 -0.0639 -0.1657
  669MOL0     C90243   4.357   3.323   7.831  0.3747  0.5873  1.2924
  669MOL0     C90244   4.227   3.279   7.780 -1.3279  0.0205  0.0732
  669MOL0     C90245   4.138   3.250   7.708  0.3497  0.1346 -0.5600
  669MOL0     C90246   3.985   3.609   7.944  0.1111  0.2788 -0.8168
  669MOL0     C90247   3.849   3.618   7.916  1.0547  0.7750  0.1237
  669MOL0     H90248   3.469   4.023   8.138  0.0061 -0.9300  0.8547
  669MOL0     H90249   3.247   4.098   8.090 -1.9328  0.3468  0.5049
  669MOL0     H90250   2.987   4.064   8.199  1.7599  0.4558 -0.7511
  669MOL0     H90251   3.009   4.136   8.029 -4.3528  3.3563  2.3784
  669MOL0     H90252   2.810   4.037   7.968 -3.0031 -0.7327  1.0726
  669MOL0     H90253   2.770   4.005   8.138  2.4047 -0.4917  2.4579
  669MOL0     H90254   2.832   4.270   8.174 -2.1636 -1.1694  2.3579
  669MOL0     H90255   2.789   4.279   8.010  1.2831 -0.5046 -0.3695
  669MOL0     H90256   2.571   4.173   8.070  1.1151  2.7351 -2.7533
  669MOL0     H90257   2.627   4.162   8.245  0.6076  0.4160 -0.2983
  669MOL0     H90258   2.499   4.342   8.249  0.5703 -3.2397 -0.4741
  669MOL0     H90259   2.665   4.420   8.233  0.9699  0.6283 -0.3853
  669MOL0     H90260   2.608   4.452   7.992 -0.6484 -1.0374 -1.5226
  669MOL0     H90261   2.443   4.388   8.021 -0.9459  1.5620  0.7398
  669MOL0     H90262   2.374   4.563   8.158 -0.7735 -0.0354  0.2972
  669MOL0     H90263   2.538   4.622   8.168 -0.6339 -1.0827  1.1776
  669MOL0     H90264   2.516   4.655   7.907  0.5550 -2.9596 -1.3435
  669MOL0     H90265   2.404   4.753   7.997  3.4195  1.3753 -3.0311
  669MOL0     H90266   2.160   4.705   7.995 -0.6018  0.8298 -0.2128
  669MOL0     H90267   1.940   4.443   7.805 -2.3359  0.7463 -1.1788
  669MOL0     H90268   1.927   4.553   7.942  0.4728 -1.4658  0.8867
  669MOL0     H90269   1.934   4.657   7.663 -0.9591  0.5669  0.2803
  669MOL0     H90270   1.940   4.753   7.813  1.9373 -0.9676  1.5355
  669MOL0     H90271   1.720   4.671   7.876  3.0896 -2.7494  1.0477
  669MOL0     H90272   1.693   4.569   7.733 -0.2513 -0.4026  1.1831
  669MOL0     H90273   1.743   4.825   7.613 -1.4915  1.9707  0.0024
  669MOL0     H90274   1.705   4.870   7.776 -3.0480  1.3749 -0.2877
  669MOL0     H90275   1.603   5.054   7.635  1.9551 -0.4550 -2.3913
  669MOL0     H90276   1.554   5.270   7.551  0.6591  1.8302 -1.1413
  669MOL0     H90277   1.436   5.300   7.434  1.6611  1.2238  0.2013
  669MOL0     H90278   1.392   5.315   7.592 -1.1965  1.4057 -2.5140
  669MOL0     H90279   0.825   5.118   7.408 -2.3517 -1.5275 -2.4761
  669MOL0     H90280   0.673   5.159   7.240  1.2673  0.2406  1.9822
  669MOL0     H90281   0.552   5.249   7.064  0.3106 -1.1689 -0.7376
  669MOL0     H90282   0.653   5.391   7.086 -2.5581  1.2990  1.0232
  669MOL0     H90283   0.560   5.512   6.925 -1.6226  0.6678  2.0651
  669MOL0     H90284   0.613   5.395   6.818 -0.8714 -1.0497  0.6982
  669MOL0     H90285   0.345   5.436   6.829  0.8892  1.7300  1.1855
  669MOL0     H90286   0.354   5.329   6.965 -0.2143  0.8362  0.6353
  669MOL0     H90287   0.480   5.166   6.799  3.8000  3.1874 -0.5390
  669MOL0     H90288   0.303   5.196   6.806 -1.6066  2.3292 -1.9368
  669MOL0     H90289   0.494   5.332   6.624 -0.8397  0.1502 -0.9498
  669MOL0     H90290   0.319   5.359   6.620  0.0627  0.7075 -0.7866
  669MOL0     H90291   0.454   5.084   6.563  0.0370 -0.4443 -4.3342
  669MOL0     H90292   0.281   5.110   6.565 -0.1236  0.6087 -0.1590
  669MOL0     H90293   0.486   5.255   6.393 -2.7663  2.0900 -1.4658
  669MOL0     H90294   0.308   5.271   6.394 -3.5314 -2.9125  2.7429
  669MOL0     H90295   0.466   5.006   6.325  0.4154 -0.5781  0.9438
  669MOL0     H90296   0.389   5.128   6.219 -2.0573  3.8059  1.0414
  669MOL0     H90297   0.979   5.161   6.938 -0.4083  1.1496  0.1497
  669MOL0     H90298   1.135   5.100   7.112 -0.9350  1.5961 -1.6866
  669MOL0     H90299   1.231   4.845   7.383  0.8224  0.1606 -0.2406
  669MOL0     H90300   1.362   4.717   7.524 -1.1558  1.2404  1.8272
  669MOL0     H90301   3.124   3.691   8.029 -0.1878  1.3015 -0.7077
  669MOL0     H90302   3.364   3.625   8.016 -0.1191  0.3646 -1.6917
  669MOL0     H90303   3.747   3.696   8.231 -0.3982  0.4781 -0.7522
  669MOL0     H90304   3.995   3.701   8.266  0.6775  0.6648 -0.2154
  669MOL0     H90305   4.269   3.602   7.914  1.2361  1.1189  0.2566
  669MOL0     H90306   4.366   3.598   8.053 -0.0932  0.5107  1.0805
  669MOL0     H90307   4.146   3.398   8.042 -0.1126  0.6564 -1.1391
  669MOL0     H90308   4.263   3.417   8.164  0.9059 -3.0217 -0.2011
  669MOL0     H90309   4.340   3.235   8.022 -0.8914  0.9346  2.4467
  669MOL0     H90310   4.452   3.381   8.007 -1.0702  2.0284 -1.1979
  669MOL0     H90311   4.442   3.259   7.803 -1.4290 -1.4705  0.2539
  669MOL0     H90312   4.372   3.414   7.772 -0.2558 -1.2638 -1.9884
  669MOL0     H90313   4.044   3.213   7.671  0.6781 -1.1640 -0.1537
  669MOL0     H90314   4.052   3.582   7.863 -1.4990 -3.0475 -1.1856
  669MOL0     H90315   3.811   3.619   7.814 -1.2326 -0.7812  0.8732
  670MOL0     O90316   6.995   8.010  10.870  0.6571 -0.0938 -0.0021
  670MOL0     C90317   7.010   7.886  10.867 -0.3176 -0.8005 -0.2670
  670MOL0     O90318   6.931   7.805  10.939  0.7657 -0.5145  0.0082
  670MOL0     C90319   6.826   7.858  11.014  0.4183 -0.7361 -0.1497
  670MOL0     C90320   6.825   7.966  11.110  0.2234 -0.0179  0.3752
  670MOL0     C90321   6.700   8.009  11.159  0.5629  0.4479  0.2132
  670MOL0     C90322   6.580   7.957  11.121 -0.7805  0.0606 -0.6439
  670MOL0     O90323   6.463   7.999  11.175  0.0049  0.2320  0.3154
  670MOL0     C90324   6.341   7.989  11.096  0.8482  0.3770  0.1850
  670MOL0     C90325   6.254   7.873  11.130  0.8560  0.0259 -0.0262
  670MOL0     C90326   6.136   7.857  11.025 -0.0597 -0.4355 -0.3782
  670MOL0     C90327   6.039   7.975  11.009 -0.8792  0.5377  0.4961
  670MOL0     C90328   5.926   7.926  10.920 -0.1508  0.7431 -0.1339
  670MOL0     C90329   5.824   8.052  10.906  0.4179  0.3465  0.4169
  670MOL0     C90330   5.873   8.170  10.821 -0.1234 -0.8438  0.0610
  670MOL0     C90331   5.930   8.131  10.680  0.4004 -0.5807  0.1917
  670MOL0     N90332   5.840   8.090  10.563  0.3545  0.4932  0.2773
  670MOL0     C90333   5.708   8.113  10.559 -0.3064  0.4538 -0.2131
  670MOL0     C90334   5.668   8.061  10.435 -1.0381 -0.1858 -1.9654
  670MOL0     C90335   5.532   8.071  10.365 -0.5102  0.5300 -0.1883
  670MOL0     C90336   5.421   8.044  10.455 -0.1052  0.1153 -0.0982
  670MOL0     C90337   5.291   8.067  10.388 -0.5143 -0.7583 -0.3128
  670MOL0     C90338   5.173   8.050  10.484 -0.1727 -0.2790  0.3999
  670MOL0     O90339   5.181   8.159  10.582 -0.0645  0.2051  0.2169
  670MOL0     C90340   5.055   8.182  10.649 -0.1529  0.1015  0.8607
  670MOL0     C90341   5.002   8.311  10.649 -0.6515 -0.1527 -0.4507
  670MOL0     C90342   4.878   8.344  10.713 -0.2154  0.6181  0.4004
  670MOL0     C90343   4.844   8.493  10.732  0.1018  0.3917 -0.1487
  670MOL0     C90344   4.798   8.243  10.771 -0.3307 -0.0133  0.3556
  670MOL0     C90345   4.661   8.272  10.838  0.3352  0.6123 -0.1516
  670MOL0     O90346   4.598   8.398  10.831 -0.5104  0.4066  0.7143
  670MOL0     C90347   4.469   8.426  10.878 -0.4717 -1.1549  0.3186
  670MOL0     C90348   4.362   8.341  10.848 -0.5341 -0.1246  0.2218
  670MOL0     C90349   4.235   8.371  10.896 -0.5526 -0.3488  0.4679
  670MOL0     C90350   4.209   8.494  10.958 -0.3891  0.0859  0.0862
  670MOL0     O90351   4.080   8.527  10.978 -0.1446 -0.3522  0.8998
  670MOL0     C90352   4.042   8.638  11.050 -1.3771 -0.3858 -0.4286
  670MOL0     C90353   3.901   8.634  11.111 -0.0776  0.4224 -0.6158
  670MOL0     C90354   3.788   8.641  11.000 -0.0256  0.3772 -1.1333
  670MOL0     C90355   3.777   8.777  10.934  0.2190 -0.1784  0.3997
  670MOL0     C90356   3.648   8.797  10.851  0.4501  0.3890 -0.3959
  670MOL0     C90357   3.634   8.698  10.731  0.5501 -0.5479  0.5916
  670MOL0     C90358   3.733   8.753  10.617 -0.9230 -0.0534 -0.7023
  670MOL0     C90359   3.687   8.709  10.474  0.1278 -0.9658 -0.1764
  670MOL0    Cl90360   3.651   8.541  10.465 -0.0017  0.3869  0.0656
  670MOL0     C90361   4.320   8.576  10.978 -0.8011 -0.1223 -0.6005
  670MOL0     C90362   4.457   8.547  10.937 -0.1269 -0.0770 -0.1201
  670MOL0     O90363   4.608   8.184  10.901 -0.2558  0.3978  0.4845
  670MOL0     C90364   4.854   8.110  10.769 -0.2607 -0.1592  0.0026
  670MOL0     C90365   4.979   8.079  10.699  0.2038  0.2430  0.8018
  670MOL0     N90366   5.767   7.984  10.387 -0.1304 -0.2851  0.3004
  670MOL0     N90367   5.874   8.001  10.462 -0.5266  0.1496  0.2152
  670MOL0     C90368   6.583   7.847  11.033 -0.3678  0.0879 -0.2286
  670MOL0     C90369   6.702   7.796  10.977  0.1970 -0.4890  0.6720
  670MOL0     C90370   7.128   7.826  10.813  0.9439 -0.4888  0.6808
  670MOL0     C90371   7.156   7.686  10.834  0.0078 -0.0382 -0.5527
  670MOL0     C90372   7.264   7.631  10.770 -0.4627  0.4541  0.4426
  670MOL0     C90373   7.354   7.704  10.691 -0.5407  1.0314 -0.4548
  670MOL0     O90374   7.466   7.646  10.637 -0.8988 -0.5159  0.0898
  670MOL0     C90375   7.530   7.702  10.517 -1.1147 -0.4481 -0.4639
  670MOL0     C90376   7.648   7.801  10.562  0.2125  0.0234  1.0448
  670MOL0     C90377   7.663   7.901  10.438 -0.4006  0.6352 -0.3738
  670MOL0     C90378   7.784   7.990  10.454  0.1961  0.0196 -0.4399
  670MOL0     C90379   7.907   7.912  10.449 -0.3424  0.8883  0.1071
  670MOL0     C90380   8.010   7.853  10.419  0.2133  0.4810  0.0775
  670MOL0     C90381   7.323   7.843  10.670 -0.0940  0.0177  1.5962
  670MOL0     C90382   7.212   7.907  10.729  0.4175 -0.4878  0.1576
  670MOL0     H90383   6.917   8.017  11.136 -0.8590  2.9678 -1.1654
  670MOL0     H90384   6.701   8.098  11.222  2.0272  1.4639 -1.1615
  670MOL0     H90385   6.293   8.086  11.118  0.2288  0.3160 -0.8422
  670MOL0     H90386   6.351   7.994  10.988 -0.3363 -1.9859 -0.0961
  670MOL0     H90387   6.308   7.778  11.134  2.6647  1.0081 -0.1039
  670MOL0     H90388   6.215   7.890  11.231  1.0736 -1.3343  0.3096
  670MOL0     H90389   6.189   7.826  10.934  1.1656  0.7874 -0.1095
  670MOL0     H90390   6.078   7.768  11.053  0.0522 -0.2792  0.3587
  670MOL0     H90391   6.007   8.013  11.106 -1.2367  0.0295  0.5839
  670MOL0     H90392   6.098   8.048  10.954  1.5404  1.6646  4.2101
  670MOL0     H90393   5.953   7.887  10.821 -3.1729 -5.5379  0.9757
  670MOL0     H90394   5.886   7.840  10.976  1.0142 -1.0535 -1.9155
  670MOL0     H90395   5.734   8.013  10.857  1.8495 -2.0800 -0.4319
  670MOL0     H90396   5.797   8.098  11.002 -0.0489  2.1498 -0.5208
  670MOL0     H90397   5.790   8.240  10.808  1.6278  1.8456  2.1710
  670MOL0     H90398   5.948   8.223  10.882  2.7282 -0.7918 -3.1637
  670MOL0     H90399   6.001   8.050  10.700  0.5369 -0.1158  1.7294
  670MOL0     H90400   5.998   8.204  10.637 -0.3091 -2.0937 -3.9021
  670MOL0     H90401   5.643   8.166  10.628 -0.7335 -0.6212  0.2299
  670MOL0     H90402   5.526   8.165  10.309 -3.1448  1.6564  1.7720
  670MOL0     H90403   5.528   7.989  10.293  1.0072  0.5004 -0.2793
  670MOL0     H90404   5.445   8.108  10.540  2.3680  0.1736 -0.7677
  670MOL0     H90405   5.429   7.948  10.508 -0.6520  0.6938  1.0800
  670MOL0     H90406   5.276   8.006  10.298 -1.5025  0.6495 -1.1481
  670MOL0     H90407   5.286   8.168  10.346  0.5571 -0.8279 -0.6191
  670MOL0     H90408   5.174   7.955  10.537  1.9060 -0.4954  0.0319
  670MOL0     H90409   5.085   8.070  10.422  0.5469 -0.7552 -0.7917
  670MOL0     H90410   5.050   8.387  10.587 -0.7437 -0.5540 -1.0243
  670MOL0     H90411   4.905   8.559  10.670 -0.6262  0.9128 -0.3228
  670MOL0     H90412   4.744   8.513  10.693  0.2177 -0.5582 -1.0014
  670MOL0     H90413   4.867   8.520  10.835  0.7570 -0.0196 -0.1794
  670MOL0     H90414   4.386   8.255  10.786  3.4827 -0.3631  1.7841
  670MOL0     H90415   4.160   8.295  10.880 -0.1463 -0.4574 -1.0774
  670MOL0     H90416   4.118   8.643  11.128 -2.9075  2.7278  1.0560
  670MOL0     H90417   4.067   8.719  10.981  1.4418 -1.6308 -1.0168
  670MOL0     H90418   3.885   8.537  11.159  0.0696  2.1924  3.3808
  670MOL0     H90419   3.886   8.708  11.190  4.1899 -0.4271  1.2984
  670MOL0     H90420   3.691   8.615  11.045  0.1463  1.3286 -0.1814
  670MOL0     H90421   3.809   8.561  10.928 -3.5077 -1.4230 -0.3814
  670MOL0     H90422   3.781   8.852  11.013 -0.1218 -0.8645  1.0868
  670MOL0     H90423   3.857   8.793  10.861 -1.5181  1.4969 -1.2436
  670MOL0     H90424   3.639   8.899  10.812  0.3070  0.6713  0.3477
  670MOL0     H90425   3.561   8.787  10.917  0.6257 -1.1451 -0.3696
  670MOL0     H90426   3.652   8.595  10.762 -1.7532 -0.3601  2.8798
  670MOL0     H90427   3.529   8.700  10.698  0.9505  0.8357 -0.7313
  670MOL0     H90428   3.835   8.717  10.638  0.6703  2.5528 -3.2426
  670MOL0     H90429   3.741   8.862  10.614  3.2862 -0.1623 -0.4774
  670MOL0     H90430   3.774   8.737  10.412  0.0903  2.8657  1.1963
  670MOL0     H90431   3.599   8.767  10.445  0.2140 -1.2565 -1.0590
  670MOL0     H90432   4.311   8.662  11.044  0.2216 -0.1477 -0.4058
  670MOL0     H90433   4.534   8.621  10.959 -0.5513  0.5559 -0.7294
  670MOL0     H90434   4.788   8.045  10.826 -0.8873  2.6190  2.7043
  670MOL0     H90435   5.007   7.975  10.683 -2.1545 -0.0414 -2.1595
  670MOL0     H90436   6.497   7.799  10.987  0.9162 -1.0063 -1.5850
  670MOL0     H90437   6.693   7.706  10.918 -1.2163 -0.0672  0.2079
  670MOL0     H90438   7.084   7.626  10.887  0.5023  1.0677  1.4690
  670MOL0     H90439   7.279   7.524  10.770 -4.2803 -0.2482  1.0584
  670MOL0     H90440   7.571   7.619  10.459 -0.2004  1.5961 -2.9367
  670MOL0     H90441   7.452   7.743  10.452 -0.4186 -0.9482 -1.6479
  670MOL0     H90442   7.735   7.738  10.581 -0.3157 -0.6252  1.3583
  670MOL0     H90443   7.616   7.861  10.647  0.0425  0.1275  0.9086
  670MOL0     H90444   7.575   7.967  10.435 -0.4806  0.5301 -0.3629
  670MOL0     H90445   7.674   7.838  10.349 -2.5762 -1.3920  0.6921
  670MOL0     H90446   7.772   8.035  10.553 -0.8079 -3.1682  1.0202
  670MOL0     H90447   7.798   8.065  10.375  0.4851  1.2542  0.7419
  670MOL0     H90448   8.099   7.799  10.397 -0.7290 -0.8900 -0.4789
  670MOL0     H90449   7.390   7.901  10.606  0.4356 -1.5320  0.6771
  670MOL0     H90450   7.190   8.010  10.702  3.6126  1.0046  2.5935
  671MOL0     O90451   0.763   4.847   6.168  0.0613 -0.4175 -0.0763
  671MOL0     C90452   0.782   4.960   6.119  0.6527 -0.0778  0.6262
  671MOL0     O90453   0.907   5.031   6.119  0.2279 -0.2816  0.5831
  671MOL0     C90454   1.031   4.980   6.142 -0.9601  0.6545  0.0085
  671MOL0     C90455   1.125   5.077   6.171 -0.7459  0.7687  0.4483
  671MOL0     C90456   1.260   5.046   6.189  0.3676  0.7314 -0.4563
  671MOL0     C90457   1.302   4.913   6.168 -0.2652  0.3583 -0.0369
  671MOL0     O90458   1.435   4.887   6.172 -0.4623  0.2277 -0.5990
  671MOL0     C90459   1.494   4.793   6.078 -0.9593 -0.1239  0.1724
  671MOL0     C90460   1.536   4.659   6.145 -0.7762  0.3516  0.7516
  671MOL0     C90461   1.664   4.598   6.074  0.2175  0.3798  0.5625
  671MOL0     C90462   1.792   4.601   6.157 -0.1139 -0.6895 -1.1108
  671MOL0     C90463   1.909   4.521   6.084  0.2257 -0.4021 -0.1829
  671MOL0     C90464   1.908   4.369   6.125  0.9043  0.0155 -0.3757
  671MOL0     C90465   2.020   4.269   6.055  0.4845 -0.1480 -0.2931
  671MOL0     C90466   2.163   4.316   6.033 -0.1766  0.1051  0.1827
  671MOL0     N90467   2.251   4.210   5.972  0.7489  0.6133 -0.7798
  671MOL0     C90468   2.304   4.106   6.039  0.0055  0.3669 -0.3577
  671MOL0     C90469   2.344   4.029   5.936  0.0350  0.3342 -0.0298
  671MOL0     C90470   2.437   3.915   5.934  0.4390  0.4505 -0.1515
  671MOL0     C90471   2.547   3.930   6.048  0.8298  0.0132  0.2198
  671MOL0     C90472   2.671   4.015   6.005  0.4359  0.1560  0.0881
  671MOL0     C90473   2.780   4.032   6.106 -0.2258  0.4568 -0.5953
  671MOL0     O90474   2.833   3.901   6.151 -0.1860 -0.5963 -1.0323
  671MOL0     C90475   2.958   3.903   6.204 -0.1444  1.0396 -0.1199
  671MOL0     C90476   3.017   3.778   6.232  0.2048  0.5264 -0.3064
  671MOL0     C90477   3.144   3.760   6.305  0.6689  0.1621 -0.3346
  671MOL0     C90478   3.190   3.615   6.322  0.1746 -0.4541 -0.4684
  671MOL0     C90479   3.206   3.877   6.353 -0.1401  0.4694  0.9197
  671MOL0     C90480   3.325   3.876   6.441 -0.7696 -0.9689  0.0076
  671MOL0     O90481   3.354   3.993   6.510  0.1845 -0.9897  0.0095
  671MOL0     C90482   3.448   4.010   6.612  0.6127  0.0929  0.3876
  671MOL0     C90483   3.413   3.999   6.748  0.3529 -0.2749 -0.0497
  671MOL0     C90484   3.510   3.996   6.850 -0.6014  0.1503 -0.0685
  671MOL0     C90485   3.647   3.985   6.823  0.3741  1.0301 -0.0826
  671MOL0     O90486   3.731   3.960   6.930 -0.7190  0.9126 -0.2860
  671MOL0     C90487   3.847   4.042   6.956 -0.5646 -0.4606  0.3047
  671MOL0     C90488   3.978   3.968   6.965  0.0618 -1.3069  0.6283
  671MOL0     C90489   3.981   3.880   7.080  0.2592 -0.4801 -1.3002
  671MOL0     C90490   4.112   3.796   7.083 -0.0229  0.1998  0.2765
  671MOL0     C90491   4.131   3.732   7.217 -0.1076 -0.5807  0.3335
  671MOL0     C90492   4.273   3.684   7.223  0.1193  0.8038 -0.2057
  671MOL0     C90493   4.296   3.555   7.135 -0.9550  1.0096 -0.1981
  671MOL0     C90494   4.425   3.480   7.179  0.4579 -0.2477  0.6419
  671MOL0    Cl90495   4.396   3.365   7.305 -0.1642  0.4360  0.3608
  671MOL0     C90496   3.682   3.995   6.695 -0.2971 -0.1243  0.5672
  671MOL0     C90497   3.591   4.007   6.592 -0.2874  0.6577 -0.1792
  671MOL0     O90498   3.387   3.773   6.458 -0.2253 -0.4212 -0.0931
  671MOL0     C90499   3.144   4.003   6.336  0.5444  0.4881  0.2430
  671MOL0     C90500   3.022   4.010   6.263 -0.4225 -0.5456  0.5438
  671MOL0     N90501   2.301   4.081   5.819 -0.0263  0.0127  0.5947
  671MOL0     N90502   2.249   4.193   5.843  0.2779  0.6402  0.3173
  671MOL0     C90503   1.204   4.817   6.164  0.2744  0.4096  0.4826
  671MOL0     C90504   1.069   4.845   6.153 -0.3287  0.0745  0.9079
  671MOL0     C90505   0.653   5.030   6.075  0.1802  0.4431 -0.6306
  671MOL0     C90506   0.540   4.948   6.035 -0.6931 -0.4297  0.5053
  671MOL0     C90507   0.424   5.009   5.989 -0.3981 -0.6075 -0.4311
  671MOL0     C90508   0.424   5.148   5.961 -0.0121  0.5524 -0.1617
  671MOL0     O90509   0.298   5.186   5.910  0.0850  0.0995 -0.3170
  671MOL0     C90510   0.238   5.309   5.942  0.0174 -0.5118  0.4318
  671MOL0     C90511   0.147   5.306   6.064 -0.5229  0.3265  0.4582
  671MOL0     C90512   0.068   5.440   6.081 -0.1710  0.4594 -0.2783
  671MOL0     C90513  -0.020   5.446   6.210 -0.3651  0.1300 -0.6506
  671MOL0     C90514   0.052   5.499   6.319  0.2621 -0.8920 -0.1304
  671MOL0     C90515   0.129   5.532   6.405 -0.3099  0.5197  1.0711
  671MOL0     C90516   0.542   5.222   5.993  0.6451  0.4677  0.4811
  671MOL0     C90517   0.656   5.167   6.050  0.3061  0.2250 -0.7520
  671MOL0     H90518   1.098   5.182   6.173 -1.9743  0.5728 -1.9418
  671MOL0     H90519   1.342   5.117   6.200  4.0313 -3.1871  0.2746
  671MOL0     H90520   1.422   4.765   6.000 -0.3555 -1.7190  0.1576
  671MOL0     H90521   1.575   4.834   6.017 -1.2544 -0.3672 -0.3936
  671MOL0     H90522   1.570   4.685   6.246  1.3287  2.5782 -0.4338
  671MOL0     H90523   1.464   4.577   6.148  1.9278 -2.1861  0.7333
  671MOL0     H90524   1.636   4.498   6.039 -0.4390  1.5010 -2.4686
  671MOL0     H90525   1.680   4.647   5.977  1.8858 -3.1486 -1.1157
  671MOL0     H90526   1.816   4.705   6.181 -0.5306 -0.9052  0.3202
  671MOL0     H90527   1.772   4.560   6.256 -0.1535  2.7369  0.4433
  671MOL0     H90528   1.897   4.545   5.978 -5.0307  0.3551  0.3255
  671MOL0     H90529   2.005   4.569   6.109  0.2496  0.3845 -1.7009
  671MOL0     H90530   1.923   4.369   6.233 -4.1483 -0.3856  0.5741
  671MOL0     H90531   1.809   4.329   6.100  2.8523 -4.6984 -1.5473
  671MOL0     H90532   2.012   4.170   6.101  1.3684 -0.1023 -0.0256
  671MOL0     H90533   1.982   4.242   5.955  0.6777  0.5759 -0.5635
  671MOL0     H90534   2.208   4.346   6.128  1.0775 -1.8701  0.2558
  671MOL0     H90535   2.160   4.403   5.967  2.0633 -0.0617 -0.2126
  671MOL0     H90536   2.309   4.092   6.147  0.9226 -1.3368 -0.5812
  671MOL0     H90537   2.372   3.831   5.963  1.6401 -1.1818 -1.9373
  671MOL0     H90538   2.474   3.892   5.834 -1.9885  0.7315 -1.1879
  671MOL0     H90539   2.584   3.827   6.058  0.8207 -0.2378 -1.8304
  671MOL0     H90540   2.501   3.964   6.141  1.4158  2.2901 -0.2688
  671MOL0     H90541   2.638   4.114   5.973 -2.5339  0.0215  2.2701
  671MOL0     H90542   2.715   3.969   5.916 -1.5753 -3.0737  0.5732
  671MOL0     H90543   2.727   4.072   6.193  1.8958  2.0191  0.0489
  671MOL0     H90544   2.862   4.090   6.063  2.0864 -1.0638  1.4929
  671MOL0     H90545   2.957   3.694   6.201 -1.5034  1.2383  0.9127
  671MOL0     H90546   3.135   3.542   6.263 -0.3982 -0.2394 -0.2040
  671MOL0     H90547   3.298   3.617   6.307  0.6340  0.6702  2.3261
  671MOL0     H90548   3.165   3.570   6.418 -0.9093 -1.2638 -1.1032
  671MOL0     H90549   3.307   3.999   6.770  0.5707  1.1057  1.1627
  671MOL0     H90550   3.477   3.996   6.953  0.2503 -1.5387  0.2351
  671MOL0     H90551   3.862   4.104   6.867  1.4596 -1.0058  0.2210
  671MOL0     H90552   3.838   4.107   7.044  1.7172 -0.2988  0.4860
  671MOL0     H90553   3.983   3.920   6.867 -0.5689  0.3685 -0.2485
  671MOL0     H90554   4.059   4.041   6.964 -1.9126  1.0743  2.0530
  671MOL0     H90555   3.897   3.810   7.079  0.3670 -0.6336 -0.4816
  671MOL0     H90556   3.978   3.941   7.171 -1.1212  0.1416 -1.7368
  671MOL0     H90557   4.104   3.723   7.002 -1.1638  1.0674 -0.4200
  671MOL0     H90558   4.193   3.862   7.051 -0.7317  2.1121  2.1912
  671MOL0     H90559   4.064   3.646   7.232 -0.4646 -0.1317  1.4150
  671MOL0     H90560   4.112   3.810   7.291  1.2888 -1.1715  1.3594
  671MOL0     H90561   4.332   3.773   7.200 -1.8132  2.0525 -0.6653
  671MOL0     H90562   4.291   3.675   7.330 -1.5315  0.0889  0.0485
  671MOL0     H90563   4.287   3.575   7.028 -2.5711  1.4445 -0.0121
  671MOL0     H90564   4.214   3.484   7.149  0.8342 -0.6421  3.0408
  671MOL0     H90565   4.500   3.552   7.213  0.2218  0.7484 -0.8177
  671MOL0     H90566   4.479   3.433   7.097 -0.2749 -0.9949  0.5723
  671MOL0     H90567   3.784   3.984   6.661 -0.3319  2.3802 -0.5714
  671MOL0     H90568   3.615   3.994   6.487 -2.6305 -4.4719 -0.4039
  671MOL0     H90569   3.177   4.100   6.371  0.7179  0.6907 -0.4559
  671MOL0     H90570   2.962   4.100   6.268 -1.2898 -1.1677  2.2810
  671MOL0     H90571   1.225   4.711   6.158  1.2092  0.6701 -1.9100
  671MOL0     H90572   0.999   4.762   6.150 -0.8380  0.5120 -0.9701
  671MOL0     H90573   0.532   4.841   6.053 -3.7785  0.0682  2.8911
  671MOL0     H90574   0.332   4.953   5.973 -1.8922  1.0578  1.7770
  671MOL0     H90575   0.315   5.384   5.964 -0.7162  0.1490  0.8107
  671MOL0     H90576   0.180   5.343   5.856 -0.2328  1.1357  1.1925
  671MOL0     H90577   0.212   5.281   6.149 -0.0538 -4.9663 -1.0924
  671MOL0     H90578   0.075   5.225   6.052 -1.4088  1.3272 -1.4079
  671MOL0     H90579   0.012   5.471   5.992 -1.8957  1.2737  1.0268
  671MOL0     H90580   0.144   5.519   6.085 -0.5344  0.8086 -0.2690
  671MOL0     H90581  -0.060   5.348   6.239 -3.8702  1.9502  1.3000
  671MOL0     H90582  -0.109   5.506   6.190  1.9012  3.4339 -1.6432
  671MOL0     H90583   0.189   5.548   6.492  2.5268 -1.3020 -0.4058
  671MOL0     H90584   0.533   5.328   5.971 -1.8305  0.7744  2.4986
  671MOL0     H90585   0.745   5.228   6.055  1.7707 -1.5874 -2.5601
  672MOL0     O90586   2.082   3.806   9.509 -0.3704 -0.1602  0.2714
  672MOL0     C90587   2.157   3.891   9.461 -0.4913 -0.2127  0.1892
  672MOL0     O90588   2.114   3.983   9.375  0.6825 -0.7021 -0.2565
  672MOL0     C90589   1.979   4.010   9.350  0.8280  0.7235 -0.2361
  672MOL0     C90590   1.915   4.118   9.403 -0.1158 -0.1023  0.1223
  672MOL0     C90591   1.778   4.133   9.380  0.7350  0.3159  0.8209
  672MOL0     C90592   1.705   4.057   9.285 -0.1653 -0.0484  0.0269
  672MOL0     O90593   1.572   4.074   9.269 -0.1064  0.8049  0.2114
  672MOL0     C90594   1.493   4.092   9.387  0.1175 -0.6931 -0.0508
  672MOL0     C90595   1.347   4.083   9.352  0.1642 -0.4385  0.4880
  672MOL0     C90596   1.310   4.161   9.224 -0.5236  1.4142 -0.2757
  672MOL0     C90597   1.303   4.079   9.095 -0.0276 -0.7451 -0.3130
  672MOL0     C90598   1.194   3.969   9.108 -0.2671 -0.4105 -0.1641
  672MOL0     C90599   1.054   4.026   9.138  1.1644 -0.3582  0.2615
  672MOL0     C90600   0.946   3.922   9.114 -0.8552 -0.0600  0.3140
  672MOL0     C90601   0.810   3.997   9.142  0.1121 -0.3117 -0.7657
  672MOL0     N90602   0.694   3.904   9.116  0.0326  0.6941  0.5866
  672MOL0     C90603   0.601   3.926   9.022  0.5844  0.3822  0.6187
  672MOL0     C90604   0.508   3.825   9.036 -0.2109 -0.1036  0.1551
  672MOL0     C90605   0.394   3.790   8.937 -0.8049  0.2337 -0.7139
  672MOL0     C90606   0.274   3.883   8.969  0.4644 -0.1709  0.2043
  672MOL0     C90607   0.195   3.816   9.089 -0.3615 -0.2212  0.6690
  672MOL0     C90608   0.068   3.885   9.135 -0.0492 -0.2884 -0.6893
  672MOL0     O90609  -0.009   3.915   9.016 -0.4608 -0.4482  0.1621
  672MOL0     C90610  -0.143   3.949   9.038  0.1665  0.3732  0.2653
  672MOL0     C90611  -0.231   3.919   8.939 -0.7924 -0.4210  0.3302
  672MOL0     C90612  -0.365   3.966   8.942  0.1978  0.3101 -0.1905
  672MOL0     C90613  -0.454   3.934   8.831 -0.8109  0.4797  0.2674
  672MOL0     C90614  -0.419   4.040   9.046  0.5364 -0.2897  0.1078
  672MOL0     C90615  -0.555   4.082   9.050 -0.2710 -0.7296  0.4182
  672MOL0     O90616  -0.662   3.990   9.041  0.0165 -0.5893  0.7721
  672MOL0     C90617  -0.791   4.031   9.029 -0.3482 -0.0854  0.6600
  672MOL0     C90618  -0.893   3.952   9.079 -0.4662  0.1473 -0.4966
  672MOL0     C90619  -1.029   3.995   9.075 -0.1349 -0.4965 -0.3552
  672MOL0     C90620  -1.065   4.118   9.019  0.4869  0.9333  1.7753
  672MOL0     O90621  -1.203   4.150   9.023 -0.2272  0.1634 -0.1543
  672MOL0     C90622  -1.251   4.259   8.949 -0.6583 -0.2565 -0.0476
  672MOL0     C90623  -1.397   4.285   8.979 -0.3987 -0.3112 -0.7206
  672MOL0     C90624  -1.493   4.195   8.883  0.1371  0.0146  0.3027
  672MOL0     C90625  -1.469   4.046   8.926 -0.2508 -0.2324  0.1657
  672MOL0     C90626  -1.590   3.958   8.894  0.1840 -0.1747  0.3345
  672MOL0     C90627  -1.573   3.876   8.753 -0.3796 -0.3188  0.0095
  672MOL0     C90628  -1.606   3.961   8.624 -0.5222  0.4926 -0.2090
  672MOL0     C90629  -1.559   3.880   8.506  0.8417 -0.1001  0.6222
  672MOL0    Cl90630  -1.605   3.949   8.351  0.3578  0.0648 -0.3284
  672MOL0     C90631  -0.967   4.198   8.965  0.6636  1.1150  0.3014
  672MOL0     C90632  -0.833   4.159   8.977  0.3454  0.5876 -0.7616
  672MOL0     O90633  -0.566   4.200   9.088  0.4617 -0.4528 -0.6116
  672MOL0     C90634  -0.321   4.076   9.146  0.6766  0.3453  0.4758
  672MOL0     C90635  -0.197   4.027   9.140 -0.2468 -0.2718 -0.6071
  672MOL0     N90636   0.544   3.749   9.143 -0.2063 -0.3995  0.2847
  672MOL0     N90637   0.645   3.809   9.203  0.2259  0.2632  0.0523
  672MOL0     C90638   1.783   3.964   9.212  0.1976  0.7462 -0.0778
  672MOL0     C90639   1.914   3.940   9.249  0.8109  0.4678 -0.4554
  672MOL0     C90640   2.296   3.908   9.511  0.7962  1.0252  0.6255
  672MOL0     C90641   2.380   4.016   9.475  0.3567 -0.2069  0.8799
  672MOL0     C90642   2.509   4.035   9.533 -0.2173 -0.0328  0.2082
  672MOL0     C90643   2.553   3.942   9.627 -0.1612 -0.2799 -0.3701
  672MOL0     O90644   2.676   3.981   9.678 -1.0941 -0.1225  0.0537
  672MOL0     C90645   2.729   3.897   9.783 -0.2528 -0.0222 -0.0386
  672MOL0     C90646   2.844   3.973   9.847  0.1133 -0.9696  0.1327
  672MOL0     C90647   2.783   4.093   9.929  0.6828 -0.5722 -0.1918
  672MOL0     C90648   2.882   4.141  10.041  0.1854 -0.5717 -0.3429
  672MOL0     C90649   2.836   4.229  10.130 -0.0516 -0.1584 -0.0662
  672MOL0     C90650   2.814   4.303  10.223 -0.1265  0.5195  0.6196
  672MOL0     C90651   2.477   3.829   9.649  0.7634  0.1213 -0.2191
  672MOL0     C90652   2.350   3.816   9.607  0.1039 -0.2857  0.5111
  672MOL0     H90653   1.974   4.165   9.481  1.4664  0.2353 -1.2260
  672MOL0     H90654   1.721   4.202   9.441  0.6559 -0.9578  2.2342
  672MOL0     H90655   1.509   4.022   9.469  1.3849  0.0420  0.3670
  672MOL0     H90656   1.511   4.193   9.426  1.4339 -0.5012 -1.0774
  672MOL0     H90657   1.323   3.977   9.342 -1.9240  0.2474 -3.9584
  672MOL0     H90658   1.282   4.118   9.433 -0.7801  0.1178 -0.4902
  672MOL0     H90659   1.211   4.203   9.246 -2.9613 -3.2592 -0.8669
  672MOL0     H90660   1.374   4.249   9.214  0.6170  0.9393  2.1896
  672MOL0     H90661   1.291   4.149   9.012 -0.6465  0.5056  0.8048
  672MOL0     H90662   1.390   4.016   9.074 -0.9721 -2.3725  0.4204
  672MOL0     H90663   1.194   3.919   9.011 -0.9997 -0.9693  0.1179
  672MOL0     H90664   1.221   3.893   9.182  0.4273 -0.0009  0.0184
  672MOL0     H90665   1.057   4.066   9.240 -2.9414  0.9772  0.0086
  672MOL0     H90666   1.045   4.108   9.067  0.9177 -0.8668 -0.2953
  672MOL0     H90667   0.970   3.891   9.012  2.5570  2.0285  0.3417
  672MOL0     H90668   0.955   3.835   9.181 -0.3609  1.8287  2.8566
  672MOL0     H90669   0.794   4.085   9.079 -2.0542 -0.2569 -0.2323
  672MOL0     H90670   0.811   4.030   9.247 -2.0382 -2.0976 -0.1059
  672MOL0     H90671   0.604   4.006   8.949  2.2007 -1.0286 -0.9856
  672MOL0     H90672   0.443   3.814   8.842 -1.2436  2.0606 -0.5247
  672MOL0     H90673   0.370   3.684   8.945 -1.2305  0.4564  1.5999
  672MOL0     H90674   0.216   3.879   8.876 -1.5969  2.8617  1.2012
  672MOL0     H90675   0.299   3.987   8.993  1.1823 -0.5245  1.0302
  672MOL0     H90676   0.260   3.801   9.176  1.0833  1.9674  0.0489
  672MOL0     H90677   0.173   3.712   9.065 -0.6846 -0.0875  0.3720
  672MOL0     H90678   0.100   3.968   9.199  0.1730  1.0912 -2.4999
  672MOL0     H90679   0.011   3.822   9.204 -1.1605  2.3035  0.9012
  672MOL0     H90680  -0.189   3.872   8.851 -0.3738  0.8096 -0.1466
  672MOL0     H90681  -0.403   3.899   8.742 -0.3977  0.7399  0.3991
  672MOL0     H90682  -0.527   3.865   8.874 -0.7183  1.3079  1.8333
  672MOL0     H90683  -0.504   4.025   8.797 -1.4768  0.6532  1.6338
  672MOL0     H90684  -0.857   3.851   9.098 -0.7003  0.5993  3.2598
  672MOL0     H90685  -1.121   3.937   9.084 -0.9859 -0.0073 -4.2004
  672MOL0     H90686  -1.197   4.346   8.986  1.5176 -1.1775 -0.9313
  672MOL0     H90687  -1.236   4.244   8.842 -0.5143 -4.5225  0.3778
  672MOL0     H90688  -1.402   4.255   9.084  1.4097 -2.1453 -1.0951
  672MOL0     H90689  -1.414   4.392   8.967  0.6363  0.0454  0.7562
  672MOL0     H90690  -1.474   4.212   8.776 -0.0006 -0.3378  0.2214
  672MOL0     H90691  -1.597   4.226   8.897  0.1957 -0.8022  3.1204
  672MOL0     H90692  -1.382   4.005   8.875 -0.6040  1.9651 -2.4237
  672MOL0     H90693  -1.448   4.041   9.033  2.6182  0.8220 -0.2608
  672MOL0     H90694  -1.680   4.020   8.902  0.0598 -0.4958  1.8469
  672MOL0     H90695  -1.601   3.883   8.973  0.9010 -2.6565 -1.7807
  672MOL0     H90696  -1.476   3.827   8.745 -0.1865 -0.3746  2.1614
  672MOL0     H90697  -1.642   3.791   8.754 -1.0814  0.0146 -3.8231
  672MOL0     H90698  -1.545   4.052   8.624  0.8463 -0.3739 -1.1760
  672MOL0     H90699  -1.711   3.990   8.627 -0.1290  2.0377 -0.6088
  672MOL0     H90700  -1.583   3.774   8.496 -0.4514  0.3177 -1.4654
  672MOL0     H90701  -1.452   3.898   8.498  1.3134 -2.4490  0.9843
  672MOL0     H90702  -0.993   4.288   8.909 -1.1372 -0.4602 -1.5823
  672MOL0     H90703  -0.746   4.215   8.944  3.2075 -1.5869  2.3076
  672MOL0     H90704  -0.342   4.136   9.234 -0.1862  1.8514 -0.7068
  672MOL0     H90705  -0.131   4.056   9.221 -2.1713 -1.5008  1.4951
  672MOL0     H90706   1.729   3.903   9.140 -0.9502 -0.6122  1.8483
  672MOL0     H90707   1.983   3.865   9.213 -0.0022 -1.2302  1.3732
  672MOL0     H90708   2.343   4.088   9.404  2.1918 -0.3277 -0.2577
  672MOL0     H90709   2.571   4.123   9.516 -0.9156  0.7649  1.5563
  672MOL0     H90710   2.652   3.860   9.852 -1.3137  1.3860 -0.4156
  672MOL0     H90711   2.768   3.803   9.745  0.0719  0.2034 -0.2701
  672MOL0     H90712   2.905   4.010   9.765 -2.2616  0.5676 -1.0536
  672MOL0     H90713   2.902   3.914   9.919 -1.6259 -0.8523  1.7132
  672MOL0     H90714   2.689   4.060   9.976 -1.2464  4.3935  0.0742
  672MOL0     H90715   2.766   4.183   9.869  2.6293  0.4696  0.7251
  672MOL0     H90716   2.972   4.181   9.993 -0.8127  0.8137 -1.1223
  672MOL0     H90717   2.905   4.054  10.103 -1.6031 -0.6311  0.2891
  672MOL0     H90718   2.797   4.361  10.311  2.9933  1.1280  0.9452
  672MOL0     H90719   2.510   3.755   9.721  0.7459  0.5870  0.2747
  672MOL0     H90720   2.292   3.731   9.638  2.5653 -1.4963  2.0824
  673MOL0     O90721   8.431  10.560   2.428 -0.5151  0.2665 -0.2906
  673MOL0     C90722   8.509  10.529   2.337  0.3220 -0.2900 -0.4213
  673MOL0     O90723   8.480  10.550   2.203 -0.7233  1.0913 -0.1043
  673MOL0     C90724   8.368  10.627   2.172  0.0044  0.2607  0.9212
  673MOL0     C90725   8.391  10.767   2.187 -0.4045  0.1951 -0.0107
  673MOL0     C90726   8.281  10.851   2.166 -0.1237 -0.7903  0.5215
  673MOL0     C90727   8.161  10.809   2.101  0.4468  0.4228 -0.8808
  673MOL0     O90728   8.055  10.889   2.069 -0.4150 -0.1492  0.1362
  673MOL0     C90729   8.039  11.021   2.131 -0.1079  0.5466  0.0792
  673MOL0     C90730   7.911  11.084   2.096  1.0575 -0.8244 -0.3442
  673MOL0     C90731   7.910  11.140   1.947  0.5854  1.4339 -1.2914
  673MOL0     C90732   7.776  11.200   1.912  0.0847 -0.0297 -0.2246
  673MOL0     C90733   7.736  11.332   1.990 -0.0215 -0.3769  0.4569
  673MOL0     C90734   7.702  11.451   1.897  0.3491  0.7143  0.8248
  673MOL0     C90735   7.651  11.566   1.981  0.4194 -1.0890 -1.0745
  673MOL0     C90736   7.508  11.539   2.046 -0.0863 -0.2087 -0.7743
  673MOL0     N90737   7.398  11.522   1.949 -0.7763 -0.7572 -0.3631
  673MOL0     C90738   7.351  11.620   1.857 -0.3208 -0.5486 -0.0024
  673MOL0     C90739   7.246  11.547   1.793  0.1206 -0.0919 -0.7529
  673MOL0     C90740   7.147  11.612   1.701  0.1621 -0.0968 -0.7825
  673MOL0     C90741   7.020  11.648   1.769  0.5722  0.6267 -0.4162
  673MOL0     C90742   6.939  11.522   1.823 -0.0311  1.0024 -0.1297
  673MOL0     C90743   6.798  11.566   1.858  0.6281  0.0601  0.2277
  673MOL0     O90744   6.806  11.679   1.947  0.9600 -0.6475  0.1589
  673MOL0     C90745   6.692  11.738   1.999  0.1134 -0.8500  0.2427
  673MOL0     C90746   6.708  11.844   2.088  0.8624  0.6830 -0.7081
  673MOL0     C90747   6.598  11.910   2.148 -0.0012  0.8754 -0.3236
  673MOL0     C90748   6.628  12.009   2.267 -0.0248  1.6547 -0.4836
  673MOL0     C90749   6.465  11.875   2.103  0.7759  0.7941 -0.5376
  673MOL0     C90750   6.338  11.941   2.143  0.4216  0.1060  0.5320
  673MOL0     O90751   6.222  11.895   2.087  0.5923  0.0648  0.2777
  673MOL0     C90752   6.096  11.951   2.100  0.3556 -0.0707  0.0484
  673MOL0     C90753   6.016  11.936   2.214 -0.1042  0.8627  0.3055
  673MOL0     C90754   5.883  11.968   2.218 -0.6172 -0.5032  0.3843
  673MOL0     C90755   5.819  12.031   2.112  0.3529 -1.1910 -0.6082
  673MOL0     O90756   5.681  12.070   2.117  0.5124 -0.4240  0.3460
  673MOL0     C90757   5.608  12.083   2.236  0.1155  0.3979 -0.4734
  673MOL0     C90758   5.499  11.982   2.265 -0.8990 -0.3483  0.4528
  673MOL0     C90759   5.387  11.973   2.159  0.1422 -0.5370  0.2140
  673MOL0     C90760   5.271  11.881   2.216 -0.6546  0.0829 -0.0692
  673MOL0     C90761   5.158  11.865   2.123 -0.2448  0.0932  0.1339
  673MOL0     C90762   5.042  11.796   2.187  0.6219 -0.2571 -0.1550
  673MOL0     C90763   4.913  11.794   2.114  0.6070  1.2503  0.0359
  673MOL0     C90764   4.802  11.747   2.207 -0.0405 -0.0095 -0.0737
  673MOL0    Cl90765   4.848  11.596   2.290  0.3733 -0.3027 -0.4158
  673MOL0     C90766   5.892  12.055   1.996  0.0785  0.7923 -1.1051
  673MOL0     C90767   6.036  12.012   1.985  0.3800 -0.4705 -0.1804
  673MOL0     O90768   6.345  12.044   2.211  0.7110  0.5583 -0.2696
  673MOL0     C90769   6.457  11.774   2.012  0.2576 -0.3153  0.5363
  673MOL0     C90770   6.561  11.702   1.961  0.2243 -0.1592  0.1198
  673MOL0     N90771   7.241  11.420   1.831 -0.2665 -0.5997  0.4082
  673MOL0     N90772   7.335  11.409   1.922 -0.4300 -0.1507  0.7903
  673MOL0     C90773   8.143  10.668   2.081  0.4011  0.6840 -0.7607
  673MOL0     C90774   8.244  10.579   2.117  0.0122  0.4022 -0.7026
  673MOL0     C90775   8.632  10.459   2.365 -0.6130 -1.3047 -0.0851
  673MOL0     C90776   8.716  10.396   2.266 -0.7301  0.5605 -0.3799
  673MOL0     C90777   8.838  10.334   2.307  0.1222 -0.4295 -0.3617
  673MOL0     C90778   8.861  10.300   2.444  0.0596  0.6025 -0.1390
  673MOL0     O90779   8.974  10.249   2.512 -0.1499  0.3075  0.8244
  673MOL0     C90780   9.067  10.184   2.418  0.1448 -0.3494  0.7004
  673MOL0     C90781   9.166  10.099   2.497 -0.3748 -0.2808  0.7263
  673MOL0     C90782   9.272  10.047   2.399  0.4304 -0.8212 -0.5590
  673MOL0     C90783   9.414  10.070   2.460 -0.1137  0.3011 -0.7761
  673MOL0     C90784   9.517  10.034   2.363 -0.6051 -0.4712 -0.7677
  673MOL0     C90785   9.620  10.027   2.296  0.8901 -0.0592  0.2629
  673MOL0     C90786   8.768  10.344   2.538 -0.6400  0.9928  0.5661
  673MOL0     C90787   8.658  10.422   2.498 -0.2903  0.0286 -0.3307
  673MOL0     H90788   8.489  10.797   2.222  0.0590 -1.4407  0.2097
  673MOL0     H90789   8.296  10.956   2.186  0.7934 -0.6336 -0.8170
  673MOL0     H90790   8.043  11.011   2.240  2.5119  0.4884  0.0359
  673MOL0     H90791   8.121  11.088   2.105  0.8390 -0.2341  0.9561
  673MOL0     H90792   7.829  11.012   2.105  0.0967  0.4313  1.7352
  673MOL0     H90793   7.874  11.164   2.161 -0.0682 -0.2502 -1.6187
  673MOL0     H90794   7.984  11.220   1.938  0.1718  1.9409 -0.3330
  673MOL0     H90795   7.934  11.056   1.881 -0.1424  1.1404 -1.1902
  673MOL0     H90796   7.785  11.229   1.806 -0.7047 -1.3784 -0.6789
  673MOL0     H90797   7.690  11.135   1.929  1.1086 -1.2307  0.5617
  673MOL0     H90798   7.659  11.301   2.062 -1.1339 -3.6684 -1.9410
  673MOL0     H90799   7.827  11.356   2.046 -0.7345 -2.8091  2.9060
  673MOL0     H90800   7.791  11.490   1.847  0.9403 -3.7099 -2.1937
  673MOL0     H90801   7.626  11.428   1.823  1.5642  1.5088 -0.7220
  673MOL0     H90802   7.724  11.589   2.059 -1.8341  0.2790  0.7740
  673MOL0     H90803   7.630  11.653   1.919 -0.2094 -1.4967 -1.4395
  673MOL0     H90804   7.482  11.633   2.096 -0.4885 -0.8798  0.3206
  673MOL0     H90805   7.514  11.458   2.119  1.5713 -0.3121 -0.9769
  673MOL0     H90806   7.381  11.724   1.845 -2.0853 -0.1597 -1.3883
  673MOL0     H90807   7.194  11.703   1.662 -0.5565  0.6454  0.0245
  673MOL0     H90808   7.127  11.546   1.616 -2.0016 -1.1301  0.4454
  673MOL0     H90809   6.953  11.695   1.696 -1.4039  2.2782  2.2425
  673MOL0     H90810   7.043  11.711   1.856  1.2231 -0.0651 -0.0810
  673MOL0     H90811   6.987  11.491   1.916  0.3533  2.8784  0.3337
  673MOL0     H90812   6.932  11.432   1.761 -1.4692  1.3243 -0.4610
  673MOL0     H90813   6.742  11.487   1.909 -1.0724  2.1596  1.7895
  673MOL0     H90814   6.739  11.585   1.768  1.2935  1.1212 -0.0063
  673MOL0     H90815   6.809  11.872   2.115  0.7219 -0.7947  1.6760
  673MOL0     H90816   6.711  11.972   2.327 -1.1443  1.0701  0.7511
  673MOL0     H90817   6.645  12.110   2.227 -2.7953  1.6401 -1.9731
  673MOL0     H90818   6.541  12.014   2.333 -0.3868  1.4899 -0.9392
  673MOL0     H90819   6.046  11.884   2.304 -0.1515  0.9724  0.3855
  673MOL0     H90820   5.843  11.955   2.318  1.7281  1.1367  1.6471
  673MOL0     H90821   5.683  12.091   2.316 -1.2111  1.3679  0.7341
  673MOL0     H90822   5.550  12.176   2.225 -3.4036 -1.5957 -0.2671
  673MOL0     H90823   5.546  11.884   2.277  1.1364  0.9067  4.4770
  673MOL0     H90824   5.461  12.012   2.363 -2.7222  2.7496 -1.0594
  673MOL0     H90825   5.422  11.932   2.064  0.4313 -0.5660  0.3327
  673MOL0     H90826   5.354  12.074   2.134  3.2750  1.1031  2.1346
  673MOL0     H90827   5.322  11.787   2.239  1.3056  0.4369 -2.4608
  673MOL0     H90828   5.235  11.916   2.313  2.6835  2.9977  0.3465
  673MOL0     H90829   5.191  11.802   2.040  2.4952  3.4183 -1.5577
  673MOL0     H90830   5.124  11.964   2.090 -3.1074 -0.3279  1.4432
  673MOL0     H90831   5.081  11.694   2.199  1.4856 -0.2450 -2.3316
  673MOL0     H90832   5.024  11.830   2.289  0.8772 -2.6842  0.7770
  673MOL0     H90833   4.918  11.722   2.032  2.8527  0.9255  0.3710
  673MOL0     H90834   4.868  11.890   2.089 -2.2331  0.0209  0.0329
  673MOL0     H90835   4.708  11.724   2.156 -1.4074  2.1502  1.3303
  673MOL0     H90836   4.784  11.825   2.281 -2.1093 -0.1138 -0.4204
  673MOL0     H90837   5.835  12.112   1.923  0.6288  2.5558 -0.2120
  673MOL0     H90838   6.096  12.014   1.895 -0.1905 -1.1404 -0.5766
  673MOL0     H90839   6.362  11.744   1.970  0.1963  0.6598 -0.0481
  673MOL0     H90840   6.541  11.629   1.883 -4.0885 -0.8450  1.6293
  673MOL0     H90841   8.054  10.623   2.039  1.8014 -2.0254 -0.9825
  673MOL0     H90842   8.224  10.473   2.113 -0.4779  0.3681  1.5201
  673MOL0     H90843   8.698  10.410   2.160 -2.3872  1.0247 -0.0671
  673MOL0     H90844   8.899  10.315   2.219  0.1530 -1.7833 -0.0604
  673MOL0     H90845   9.018  10.110   2.353 -0.0962  1.1888 -0.9285
  673MOL0     H90846   9.114  10.263   2.360 -0.4579  0.5221  1.3794
  673MOL0     H90847   9.103  10.025   2.547  0.3517 -0.2896  1.6483
  673MOL0     H90848   9.209  10.157   2.579 -0.2373 -2.8799  2.5903
  673MOL0     H90849   9.278  10.103   2.305 -1.8921 -1.3008 -1.0493
  673MOL0     H90850   9.254   9.940   2.382  0.3939 -0.7791 -0.7807
  673MOL0     H90851   9.429  10.010   2.550  0.2743 -0.6776 -1.4743
  673MOL0     H90852   9.427  10.174   2.489  2.0031 -0.3057  0.6858
  673MOL0     H90853   9.711  10.031   2.240  0.8521  1.4045  0.2729
  673MOL0     H90854   8.776  10.324   2.645  1.3385 -0.6206  0.2012
  673MOL0     H90855   8.581  10.455   2.567 -2.6306 -2.7671 -1.4303
  674MOL0     O90856   2.860   2.737   9.593  0.2929  0.1316  0.2149
  674MOL0     C90857   2.932   2.764   9.689  1.0505  0.4897  0.4376
  674MOL0     O90858   2.894   2.848   9.785  0.1675  0.8132 -0.8890
  674MOL0     C90859   2.760   2.880   9.799  0.0341  0.1478 -0.4191
  674MOL0     C90860   2.681   2.949   9.703  0.5182  0.0855 -0.5482
  674MOL0     C90861   2.553   2.988   9.729  0.7232  0.4738 -0.0982
  674MOL0     C90862   2.499   2.976   9.857  0.0390 -0.4385 -0.4803
  674MOL0     O90863   2.369   3.029   9.878  0.1412  0.0683 -0.1634
  674MOL0     C90864   2.318   3.033  10.012  0.6161 -0.7659  0.3644
  674MOL0     C90865   2.176   3.100   9.991 -0.3744 -0.5319 -0.1310
  674MOL0     C90866   2.127   3.153  10.133  0.2718  0.2872  0.3352
  674MOL0     C90867   1.984   3.099  10.151  0.3197 -0.2204  0.1863
  674MOL0     C90868   1.916   3.187  10.250  0.3255  0.2207 -0.2028
  674MOL0     C90869   1.766   3.152  10.272  0.4645  0.4026  0.5731
  674MOL0     C90870   1.720   3.246  10.389 -0.6151  0.5740 -0.3830
  674MOL0     C90871   1.778   3.210  10.519 -0.1070  0.0456  0.9929
  674MOL0     N90872   1.700   3.264  10.623  0.1066 -0.4897  0.2663
  674MOL0     C90873   1.573   3.223  10.640  0.4283 -0.7078  0.1098
  674MOL0     C90874   1.528   3.316  10.730 -0.3493  0.3314  0.1366
  674MOL0     C90875   1.384   3.305  10.779 -0.6346  0.2049  0.0209
  674MOL0     C90876   1.320   3.444  10.763  0.1235  0.4788 -1.0625
  674MOL0     C90877   1.168   3.443  10.796 -0.2608  0.4251  0.0039
  674MOL0     C90878   1.139   3.362  10.922 -0.6700  0.3551 -0.9462
  674MOL0     O90879   1.006   3.390  10.959 -0.2140 -0.5213 -0.5622
  674MOL0     C90880   0.974   3.457  11.078 -0.7370  0.3648 -0.0931
  674MOL0     C90881   0.879   3.555  11.079 -0.0443  1.1353 -0.5749
  674MOL0     C90882   0.822   3.617  11.193  0.6093  1.6485 -0.6285
  674MOL0     C90883   0.701   3.702  11.169  0.9924  0.0209  0.0833
  674MOL0     C90884   0.886   3.595  11.317 -1.2970  0.7640  0.0242
  674MOL0     C90885   0.845   3.659  11.452  0.7392 -0.0575 -0.2748
  674MOL0     O90886   0.907   3.602  11.563  0.1139  0.4115  0.0714
  674MOL0     C90887   0.894   3.653  11.687  0.1002 -0.3356 -0.2814
  674MOL0     C90888   0.997   3.725  11.747 -0.0421 -0.1094 -0.4399
  674MOL0     C90889   0.976   3.786  11.873 -1.2946 -0.2187 -0.0571
  674MOL0     C90890   0.859   3.769  11.939  1.5062  0.2530 -0.5430
  674MOL0     O90891   0.833   3.812  12.067 -0.1582 -0.2401 -0.2029
  674MOL0     C90892   0.898   3.927  12.125  0.2556  0.2981 -0.2106
  674MOL0     C90893   0.826   3.971  12.248  0.3108 -0.1561 -0.0884
  674MOL0     C90894   0.903   4.086  12.312  0.2810  0.2078  1.0990
  674MOL0     C90895   0.828   4.132  12.436  0.6821 -0.4216  1.0842
  674MOL0     C90896   0.907   4.238  12.518 -0.2347 -0.4155 -0.3720
  674MOL0     C90897   0.819   4.276  12.632  0.3332  0.4578  0.2227
  674MOL0     C90898   0.892   4.386  12.710  1.2102  0.0911 -0.1854
  674MOL0     C90899   0.809   4.446  12.827  0.4330  0.0744 -0.7278
  674MOL0    Cl90900   0.768   4.335  12.961  0.5580 -0.8073 -0.5569
  674MOL0     C90901   0.748   3.698  11.881  0.2323  0.0644  0.3823
  674MOL0     C90902   0.774   3.629  11.759  0.7502  0.1656 -0.3069
  674MOL0     O90903   0.751   3.740  11.462  0.2715  0.6913 -0.2078
  674MOL0     C90904   0.991   3.494  11.322 -0.4448 -0.3022 -0.2908
  674MOL0     C90905   1.027   3.428  11.202 -1.0913  0.1194  0.2233
  674MOL0     N90906   1.621   3.403  10.773 -0.8185  0.1018  0.1700
  674MOL0     N90907   1.722   3.369  10.711  0.1172  0.7125 -0.5116
  674MOL0     C90908   2.572   2.914   9.959  0.5780  0.4330 -1.0737
  674MOL0     C90909   2.706   2.867   9.934 -0.4533 -0.1033  0.0192
  674MOL0     C90910   3.071   2.717   9.697 -0.2493 -0.4406  0.8479
  674MOL0     C90911   3.153   2.767   9.797 -0.5414  0.3154 -1.2477
  674MOL0     C90912   3.276   2.714   9.820 -0.6939  0.3574  0.2107
  674MOL0     C90913   3.329   2.603   9.749  1.1436  0.1941 -0.5879
  674MOL0     O90914   3.452   2.546   9.783 -0.8427  0.6569  0.0367
  674MOL0     C90915   3.521   2.574   9.902  0.3978  0.1914 -0.8452
  674MOL0     C90916   3.627   2.466   9.914  0.0219 -0.7728  0.5828
  674MOL0     C90917   3.702   2.485  10.048  0.6000  0.4319  0.4335
  674MOL0     C90918   3.793   2.362  10.045  0.4382 -0.1563  0.1775
  674MOL0     C90919   3.876   2.357  10.163  0.4260 -0.1958  0.4934
  674MOL0     C90920   3.952   2.342  10.250 -0.7787  0.2131 -0.1924
  674MOL0     C90921   3.245   2.565   9.640 -0.2960  0.9836  0.4852
  674MOL0     C90922   3.123   2.623   9.612 -0.3949  0.3417 -0.4728
  674MOL0     H90923   2.719   2.978   9.606  0.2696  0.0241 -0.6657
  674MOL0     H90924   2.495   3.029   9.648 -2.0962 -4.6852 -1.1678
  674MOL0     H90925   2.307   2.935  10.060  2.6234 -1.4324 -0.4500
  674MOL0     H90926   2.376   3.093  10.082 -1.1184 -4.0492  5.1203
  674MOL0     H90927   2.174   3.187   9.924 -4.0907  1.2980  2.0248
  674MOL0     H90928   2.103   3.029   9.952 -1.2488  0.2809 -0.0325
  674MOL0     H90929   2.186   3.114  10.217  0.9805  1.3034  0.3319
  674MOL0     H90930   2.123   3.263  10.137 -2.5299  0.2115  2.1014
  674MOL0     H90931   1.922   3.108  10.061 -2.9759  1.5414  2.4319
  674MOL0     H90932   1.976   2.996  10.187 -0.6261  0.3993  1.8516
  674MOL0     H90933   1.974   3.176  10.342  0.4224 -2.8127 -0.5240
  674MOL0     H90934   1.923   3.290  10.214 -2.0607  1.1152  1.5776
  674MOL0     H90935   1.719   3.168  10.175  1.2152  2.1684  0.4713
  674MOL0     H90936   1.755   3.044  10.292 -0.6062  0.3797 -0.0758
  674MOL0     H90937   1.751   3.348  10.364  0.3494  0.1224 -1.1053
  674MOL0     H90938   1.614   3.235  10.410 -0.1749  1.9559  3.1348
  674MOL0     H90939   1.884   3.238  10.526 -0.0904 -0.2084  1.9297
  674MOL0     H90940   1.773   3.101  10.526  0.0134  0.1098  2.4369
  674MOL0     H90941   1.523   3.141  10.588 -0.0115 -2.3693  2.9690
  674MOL0     H90942   1.333   3.234  10.713 -0.1058 -1.0054  0.8631
  674MOL0     H90943   1.382   3.262  10.879 -2.5717  4.7424  2.2114
  674MOL0     H90944   1.334   3.482  10.662  2.4219 -0.0440 -0.9965
  674MOL0     H90945   1.380   3.516  10.820 -1.4343  1.2437 -0.3306
  674MOL0     H90946   1.102   3.407  10.717 -1.5176 -1.3613  1.7528
  674MOL0     H90947   1.134   3.542  10.826 -0.3392  0.2601  0.4727
  674MOL0     H90948   1.214   3.381  10.999  0.1300 -1.5416 -1.2189
  674MOL0     H90949   1.140   3.253  10.914 -1.8773  0.2361  0.1466
  674MOL0     H90950   0.822   3.568  10.987 -1.5021  1.2676  0.3075
  674MOL0     H90951   0.647   3.676  11.078 -1.2575  0.3367  1.2474
  674MOL0     H90952   0.622   3.688  11.244 -2.4879  1.9347 -2.9464
  674MOL0     H90953   0.738   3.804  11.159  0.9646 -0.1959 -3.1020
  674MOL0     H90954   1.092   3.725  11.694 -0.0763  1.9985 -0.5884
  674MOL0     H90955   1.056   3.835  11.927 -0.4511 -2.9505  1.3889
  674MOL0     H90956   1.000   3.891  12.141  0.6971  1.2052 -0.8709
  674MOL0     H90957   0.906   4.019  12.066  4.0847  1.8630  2.3422
  674MOL0     H90958   0.724   4.003  12.224 -0.2195 -2.5615 -1.4309
  674MOL0     H90959   0.809   3.885  12.314 -0.9304  0.1171 -0.0226
  674MOL0     H90960   0.913   4.171  12.244  2.9294  1.2479  2.6307
  674MOL0     H90961   1.004   4.054  12.340 -0.6737 -1.2225  3.1630
  674MOL0     H90962   0.739   4.185  12.403  0.6842  1.4438  3.7286
  674MOL0     H90963   0.809   4.049  12.505  1.5448 -0.5961  1.1274
  674MOL0     H90964   0.935   4.320  12.451  0.9891 -2.0916 -2.0601
  674MOL0     H90965   1.000   4.193  12.556  0.7341  0.6111 -1.4261
  674MOL0     H90966   0.725   4.316  12.594  0.2703  1.0258  0.9587
  674MOL0     H90967   0.805   4.190  12.699  0.1995  0.2659 -0.0493
  674MOL0     H90968   0.915   4.472  12.647  3.1800 -0.4567 -0.2771
  674MOL0     H90969   0.985   4.338  12.740  0.3996 -0.9177  0.8331
  674MOL0     H90970   0.717   4.493  12.792 -1.0682 -2.7157 -0.7698
  674MOL0     H90971   0.861   4.526  12.880 -1.5807  1.7046 -1.0813
  674MOL0     H90972   0.659   3.683  11.942  0.0367  0.6909  0.2536
  674MOL0     H90973   0.697   3.564  11.720  2.5568 -2.4680  0.2107
  674MOL0     H90974   1.048   3.470  11.411  2.0039 -1.6702 -2.1132
  674MOL0     H90975   1.100   3.347  11.208  0.2247  1.3843  2.6426
  674MOL0     H90976   2.529   2.908  10.059 -0.1742 -1.3345 -1.4792
  674MOL0     H90977   2.765   2.819  10.012  0.0904  0.2565 -0.1614
  674MOL0     H90978   3.116   2.844   9.864  0.5047 -2.2761  2.6206
  674MOL0     H90979   3.326   2.770   9.898 -0.6569  2.9341 -1.5410
  674MOL0     H90980   3.571   2.671   9.903  0.0023  0.4382  1.3939
  674MOL0     H90981   3.448   2.562   9.983  1.7963 -0.3875  0.3876
  674MOL0     H90982   3.681   2.482   9.820 -4.2866  2.1276 -1.7571
  674MOL0     H90983   3.563   2.377   9.912 -1.5842  0.3197  0.7552
  674MOL0     H90984   3.638   2.482  10.137  2.8266 -0.4988  2.1084
  674MOL0     H90985   3.762   2.576  10.044  1.4476 -0.1436 -0.1103
  674MOL0     H90986   3.863   2.384   9.964  0.1766  0.9770  0.2422
  674MOL0     H90987   3.753   2.261  10.029  1.7190 -0.4542 -1.4296
  674MOL0     H90988   4.022   2.325  10.329 -0.9432 -0.5600 -0.2056
  674MOL0     H90989   3.260   2.486   9.568 -2.6343  0.2974  0.6724
  674MOL0     H90990   3.053   2.597   9.534 -2.9511 -1.8879  2.3216
  675MOL0     O90991   3.587   5.009   4.846 -0.5976  0.7196  0.2046
  675MOL0     C90992   3.638   5.107   4.885 -0.0677 -1.0681 -0.5902
  675MOL0     O90993   3.560   5.213   4.937 -0.4057  0.6095 -0.5083
  675MOL0     C90994   3.425   5.191   4.955  0.8251 -0.3908 -0.1984
  675MOL0     C90995   3.337   5.268   4.874 -0.4671  0.4193  0.1274
  675MOL0     C90996   3.198   5.247   4.878  0.9107 -0.0680  0.1570
  675MOL0     C90997   3.150   5.163   4.981 -0.7132 -0.1042 -0.3601
  675MOL0     O90998   3.016   5.139   5.008  0.0382  0.4518 -0.0743
  675MOL0     C90999   2.915   5.172   4.913 -0.2369  0.0091 -0.8489
  675MOL0     C91000   2.798   5.086   4.946  0.5348  0.8889  0.5559
  675MOL0     C91001   2.703   5.086   4.821 -0.3447  1.4031 -0.8141
  675MOL0     C91002   2.571   5.160   4.850 -0.0845 -0.1350 -0.3156
  675MOL0     C91003   2.462   5.125   4.753  0.2798  0.0290 -0.5973
  675MOL0     C91004   2.333   5.205   4.767  0.7116  0.3089  0.2247
  675MOL0     C91005   2.231   5.161   4.665  1.3201 -0.5354  0.2332
  675MOL0     C91006   2.115   5.258   4.643  0.2686 -0.1911 -0.2020
  675MOL0     N91007   1.989   5.173   4.627 -0.6456 -0.1323 -0.7331
  675MOL0     C91008   1.991   5.066   4.542  0.9159  1.0335 -0.2023
  675MOL0     C91009   1.868   5.008   4.549  0.3672 -0.1316 -0.1597
  675MOL0     C91010   1.818   4.881   4.488 -0.0917 -0.1654 -0.4691
  675MOL0     C91011   1.670   4.880   4.465  0.0567  0.3711 -0.2265
  675MOL0     C91012   1.614   4.750   4.391 -0.1579  0.2333 -0.4768
  675MOL0     C91013   1.460   4.745   4.419  0.6939 -0.8021  0.2401
  675MOL0     O91014   1.409   4.659   4.307 -0.2393  0.2930  0.1789
  675MOL0     C91015   1.277   4.666   4.267 -0.2888 -0.8594  0.5158
  675MOL0     C91016   1.173   4.706   4.346  0.0573 -1.0712 -0.5165
  675MOL0     C91017   1.037   4.716   4.309  0.3558 -0.4560 -0.2171
  675MOL0     C91018   0.951   4.767   4.416 -0.2343  0.0962  0.1139
  675MOL0     C91019   1.006   4.689   4.180 -0.6025  1.4577  0.4741
  675MOL0     C91020   0.870   4.708   4.123  0.1816 -0.2674  0.0414
  675MOL0     O91021   0.859   4.689   3.989 -0.7418 -0.2531 -0.1323
  675MOL0     C91022   0.735   4.700   3.926 -0.7525  0.4944 -0.9109
  675MOL0     C91023   0.696   4.594   3.851  0.4335  0.4229  0.7070
  675MOL0     C91024   0.584   4.595   3.774  0.4124  0.7472 -0.5506
  675MOL0     C91025   0.486   4.696   3.788 -0.4943  0.4993  0.2465
  675MOL0     O91026   0.360   4.677   3.730 -0.5471 -0.3638  0.2292
  675MOL0     C91027   0.324   4.538   3.698 -0.0695 -0.7714  0.3764
  675MOL0     C91028   0.177   4.545   3.657 -1.1209 -0.5120 -0.0705
  675MOL0     C91029   0.144   4.414   3.583 -0.3946 -0.2083  0.2338
  675MOL0     C91030   0.014   4.447   3.515  1.0905  0.3893  0.3406
  675MOL0     C91031  -0.035   4.315   3.452  0.1997 -0.5700 -0.1225
  675MOL0     C91032  -0.169   4.332   3.375 -0.2145 -0.6120  0.2228
  675MOL0     C91033  -0.218   4.191   3.348 -0.4256  0.4137 -0.1068
  675MOL0     C91034  -0.359   4.200   3.306  0.7987 -0.3860 -0.5911
  675MOL0    Cl91035  -0.465   4.241   3.444 -0.3975 -0.0881 -0.1280
  675MOL0     C91036   0.516   4.800   3.876  1.1192 -0.2170 -0.0888
  675MOL0     C91037   0.639   4.812   3.931 -0.8873  0.1719 -0.2499
  675MOL0     O91038   0.776   4.717   4.195  0.8019 -0.1478 -0.3927
  675MOL0     C91039   1.106   4.637   4.099  1.0691 -0.4056  0.0234
  675MOL0     C91040   1.241   4.634   4.141  0.8201  0.3790  0.1396
  675MOL0     N91041   1.792   5.087   4.636  0.8502  0.0853  0.0516
  675MOL0     N91042   1.870   5.181   4.683  0.1211  0.2732  0.4992
  675MOL0     C91043   3.243   5.098   5.066 -0.6970 -1.2495  0.3943
  675MOL0     C91044   3.382   5.105   5.047  0.9582 -0.6276  0.1658
  675MOL0     C91045   3.785   5.130   4.882 -0.1288 -1.0067  0.9388
  675MOL0     C91046   3.868   5.027   4.841 -0.5808 -0.2985  0.6855
  675MOL0     C91047   4.007   5.045   4.836 -1.3581  0.6621 -0.1552
  675MOL0     C91048   4.069   5.167   4.867  0.8142  0.2828  0.2699
  675MOL0     O91049   4.201   5.193   4.838 -0.2816  0.0745  0.6865
  675MOL0     C91050   4.240   5.320   4.784  0.4454 -0.1918 -0.5149
  675MOL0     C91051   4.188   5.373   4.652 -0.6076 -0.1988  0.1163
  675MOL0     C91052   4.231   5.278   4.543 -0.2045  0.8114  0.3969
  675MOL0     C91053   4.134   5.268   4.430 -0.0074 -0.6997  0.2523
  675MOL0     C91054   4.143   5.145   4.356 -0.1885 -0.0825  0.0960
  675MOL0     C91055   4.138   5.034   4.300 -0.4429 -0.3476  0.3379
  675MOL0     C91056   3.978   5.270   4.902  0.0555 -0.5024 -0.9898
  675MOL0     C91057   3.844   5.252   4.906  0.2816  0.1251 -0.2822
  675MOL0     H91058   3.370   5.338   4.798 -1.7491  0.9807  0.0709
  675MOL0     H91059   3.136   5.306   4.812  1.8927  1.0275  0.1829
  675MOL0     H91060   2.891   5.278   4.927 -0.0108  0.0797 -0.9905
  675MOL0     H91061   2.946   5.151   4.810 -2.8640  0.2910 -1.7920
  675MOL0     H91062   2.820   4.979   4.961 -0.4423  0.7713  1.2795
  675MOL0     H91063   2.749   5.122   5.037 -1.4964 -1.8401  0.6788
  675MOL0     H91064   2.747   5.125   4.729 -2.4296  4.6751 -0.5911
  675MOL0     H91065   2.673   4.984   4.794 -1.7838  1.2463  1.1615
  675MOL0     H91066   2.545   5.144   4.955 -0.2186  1.7207 -0.0170
  675MOL0     H91067   2.588   5.268   4.842 -0.0654 -0.0402  0.7577
  675MOL0     H91068   2.504   5.135   4.653  1.0883  0.7709 -0.1956
  675MOL0     H91069   2.437   5.018   4.756  4.0509 -1.0368 -1.7859
  675MOL0     H91070   2.285   5.198   4.865 -2.3010 -5.0942 -1.2165
  675MOL0     H91071   2.347   5.310   4.741 -2.2466  1.2885  1.9943
  675MOL0     H91072   2.282   5.155   4.568 -0.7410 -0.9085 -0.8805
  675MOL0     H91073   2.205   5.061   4.700  0.7744 -1.8450 -3.4269
  675MOL0     H91074   2.132   5.329   4.562 -0.9230 -0.2175 -0.4889
  675MOL0     H91075   2.111   5.320   4.733  0.6753  1.8271 -1.5225
  675MOL0     H91076   2.068   5.036   4.471  1.1965 -1.7918  1.1410
  675MOL0     H91077   1.878   4.878   4.397 -0.0380  0.4274 -0.4521
  675MOL0     H91078   1.840   4.799   4.558 -4.0537 -1.3303 -0.3416
  675MOL0     H91079   1.647   4.968   4.404  0.4651  0.7510  0.1612
  675MOL0     H91080   1.629   4.883   4.566  0.9102  0.8318  0.1095
  675MOL0     H91081   1.665   4.657   4.417 -2.9468 -1.2921 -0.0312
  675MOL0     H91082   1.617   4.766   4.283  1.6595  0.8470 -0.3737
  675MOL0     H91083   1.433   4.851   4.412  4.3378  0.2051 -0.6463
  675MOL0     H91084   1.422   4.693   4.507  0.9611 -1.8652 -0.2612
  675MOL0     H91085   1.205   4.726   4.448  4.2182 -1.6330 -1.5091
  675MOL0     H91086   0.998   4.829   4.492  0.5000  0.2694 -0.4658
  675MOL0     H91087   0.886   4.842   4.369  1.1926  1.2604 -0.0622
  675MOL0     H91088   0.903   4.677   4.456  1.7567 -1.0785  0.0091
  675MOL0     H91089   0.761   4.507   3.854  0.7038  0.6272  0.7237
  675MOL0     H91090   0.560   4.512   3.707 -1.6485  0.1683  0.7967
  675MOL0     H91091   0.383   4.492   3.618  1.6843 -0.1116  1.2296
  675MOL0     H91092   0.335   4.475   3.786  0.0823  0.5462  1.3380
  675MOL0     H91093   0.124   4.540   3.753  1.7745  0.7095  1.7195
  675MOL0     H91094   0.162   4.630   3.589 -3.9757  0.6418  1.7725
  675MOL0     H91095   0.114   4.334   3.650 -2.2743 -1.2889 -1.7522
  675MOL0     H91096   0.224   4.391   3.512 -0.2300  5.6366 -2.0893
  675MOL0     H91097  -0.056   4.478   3.593 -0.8583 -2.9253  0.0994
  675MOL0     H91098   0.020   4.526   3.439  1.1523 -0.5088 -0.5997
  675MOL0     H91099  -0.057   4.248   3.536  1.3293  1.3596  1.8407
  675MOL0     H91100   0.031   4.264   3.382  0.5754 -1.1852  0.6662
  675MOL0     H91101  -0.238   4.385   3.441 -1.0580 -1.7347  0.2543
  675MOL0     H91102  -0.150   4.392   3.286  1.3565  1.4927  1.8487
  675MOL0     H91103  -0.203   4.140   3.443 -0.3107  0.4129 -0.1253
  675MOL0     H91104  -0.155   4.146   3.271 -0.4519  1.1243 -0.5643
  675MOL0     H91105  -0.396   4.106   3.265 -1.9148 -0.0964  0.9254
  675MOL0     H91106  -0.380   4.269   3.223 -0.7112 -3.4308 -2.9423
  675MOL0     H91107   0.441   4.878   3.881 -0.6106 -1.2199 -4.7059
  675MOL0     H91108   0.664   4.904   3.983 -0.3273 -1.8125  3.3996
  675MOL0     H91109   1.087   4.598   3.999  1.5490  0.8646 -0.5875
  675MOL0     H91110   1.319   4.602   4.073  1.2180 -0.2181  0.8589
  675MOL0     H91111   3.210   5.039   5.151  4.0192 -2.0622  1.9393
  675MOL0     H91112   3.454   5.060   5.114  1.8950 -1.7514 -1.5204
  675MOL0     H91113   3.827   4.931   4.811  1.9884 -0.8689 -1.3686
  675MOL0     H91114   4.063   4.960   4.797  1.4354  1.8477  1.0486
  675MOL0     H91115   4.202   5.394   4.855  1.3658  0.9704 -1.1902
  675MOL0     H91116   4.348   5.336   4.777  0.9237 -2.9916 -0.5734
  675MOL0     H91117   4.230   5.470   4.626  0.2078 -0.4628  0.4422
  675MOL0     H91118   4.078   5.376   4.650 -0.7058 -1.8154  0.8809
  675MOL0     H91119   4.247   5.176   4.580 -1.0926  0.2036 -0.8268
  675MOL0     H91120   4.324   5.320   4.506  1.5556 -2.0695  1.1881
  675MOL0     H91121   4.143   5.351   4.359 -0.4093 -0.7286  0.1649
  675MOL0     H91122   4.035   5.266   4.476 -0.5443  1.7949 -0.6423
  675MOL0     H91123   4.125   4.942   4.246  0.4791  0.8377 -2.0630
  675MOL0     H91124   4.018   5.365   4.937  1.7566 -0.5450 -2.6231
  675MOL0     H91125   3.780   5.333   4.938  1.1753  0.2802  1.1875
  676MOL0     O91126   2.404   1.616   5.016  0.2238 -0.3253  0.0975
  676MOL0     C91127   2.314   1.692   5.030  0.2872  0.3458  0.4028
  676MOL0     O91128   2.219   1.727   4.931  0.1500  0.3364 -0.2352
  676MOL0     C91129   2.229   1.690   4.800  0.6058 -0.0179  0.4159
  676MOL0     C91130   2.151   1.773   4.717 -0.4257 -0.3649 -0.4455
  676MOL0     C91131   2.170   1.775   4.579  0.4239  0.3675  0.1587
  676MOL0     C91132   2.267   1.689   4.527  0.0692 -0.2468  0.0357
  676MOL0     O91133   2.316   1.690   4.399  1.0301  0.3328  0.4585
  676MOL0     C91134   2.251   1.770   4.293  0.1166  0.2647  0.1798
  676MOL0     C91135   2.143   1.689   4.225  0.1166  0.6397  0.9193
  676MOL0     C91136   2.067   1.772   4.117  0.6125  0.6862  0.3055
  676MOL0     C91137   2.114   1.743   3.980  0.7675 -0.9353  0.6347
  676MOL0     C91138   2.049   1.832   3.879  0.0096 -0.2865  0.0390
  676MOL0     C91139   2.145   1.955   3.861  0.4017  0.0769  0.1628
  676MOL0     C91140   2.111   2.062   3.761 -0.2470  0.1045 -0.2149
  676MOL0     C91141   2.223   2.164   3.743 -0.2129  0.3223 -0.1642
  676MOL0     N91142   2.337   2.108   3.679 -0.5598 -0.3984 -0.0830
  676MOL0     C91143   2.467   2.112   3.727  0.3394 -0.4297  0.8885
  676MOL0     C91144   2.540   2.047   3.631 -0.5307 -0.5337 -0.2085
  676MOL0     C91145   2.682   2.037   3.631  0.7199  0.1061 -0.7524
  676MOL0     C91146   2.731   1.903   3.579  0.1849 -0.1819  0.0980
  676MOL0     C91147   2.708   1.776   3.672 -0.3828 -0.7329  0.5053
  676MOL0     C91148   2.568   1.718   3.662  0.3778  0.1700  0.9194
  676MOL0     O91149   2.560   1.599   3.734 -0.3364 -1.0687 -0.1510
  676MOL0     C91150   2.478   1.504   3.689  0.1036  0.3507 -0.4047
  676MOL0     C91151   2.345   1.534   3.659  0.1205 -0.0041 -0.5294
  676MOL0     C91152   2.252   1.439   3.615  0.0974 -0.7676  0.5865
  676MOL0     C91153   2.116   1.478   3.575  0.8528 -0.7655 -0.3243
  676MOL0     C91154   2.301   1.312   3.597  0.2471  0.3763  0.2642
  676MOL0     C91155   2.215   1.188   3.568 -0.1814 -0.7227  0.0814
  676MOL0     O91156   2.284   1.074   3.540  0.7285  0.2710 -0.0511
  676MOL0     C91157   2.211   0.973   3.487  0.5803  0.2487  0.3067
  676MOL0     C91158   2.142   0.887   3.577 -0.1980 -0.5766 -0.0374
  676MOL0     C91159   2.076   0.766   3.534 -0.2660 -0.8782  0.3768
  676MOL0     C91160   2.082   0.734   3.392 -0.1474  0.7114  0.0883
  676MOL0     O91161   2.012   0.624   3.331 -0.8989  0.2088 -0.7656
  676MOL0     C91162   1.890   0.577   3.398  0.2132 -0.0437 -0.1907
  676MOL0     C91163   1.845   0.446   3.332 -0.2569 -0.7827  0.2478
  676MOL0     C91164   1.939   0.313   3.342  0.2758  0.5437 -0.3563
  676MOL0     C91165   1.849   0.180   3.315  0.2606 -0.7844  0.2970
  676MOL0     C91166   1.808   0.166   3.161  0.2974  0.0237 -0.1349
  676MOL0     C91167   1.711   0.050   3.143  0.9233 -0.2499 -0.1574
  676MOL0     C91168   1.763  -0.084   3.198 -0.4398 -0.3773 -0.7234
  676MOL0     C91169   1.668  -0.197   3.182 -0.6529  0.2044 -0.3506
  676MOL0    Cl91170   1.514  -0.143   3.256  0.3800  0.0554  0.3428
  676MOL0     C91171   2.159   0.821   3.310 -0.3972 -0.1812  0.0565
  676MOL0     C91172   2.225   0.939   3.354  0.4622  0.7534  0.6980
  676MOL0     O91173   2.093   1.196   3.562 -0.8895 -0.7719 -0.3743
  676MOL0     C91174   2.436   1.275   3.622 -0.9721 -0.2410  0.1466
  676MOL0     C91175   2.522   1.369   3.672  0.8195  0.0779 -0.0553
  676MOL0     N91176   2.454   2.012   3.525 -0.1314  0.3451 -0.0877
  676MOL0     N91177   2.336   2.049   3.553  0.5405 -0.5687 -0.8515
  676MOL0     C91178   2.334   1.595   4.605  0.1546 -0.1152 -0.5756
  676MOL0     C91179   2.321   1.603   4.741  0.0574 -0.2983 -0.3218
  676MOL0     C91180   2.295   1.767   5.157 -0.5973 -0.4019  0.6155
  676MOL0     C91181   2.388   1.750   5.262  0.9111  0.1340  0.0780
  676MOL0     C91182   2.367   1.824   5.381  0.3487 -0.2126  0.6016
  676MOL0     C91183   2.271   1.933   5.388  0.2951 -0.1510 -0.4346
  676MOL0     O91184   2.278   2.019   5.497  0.5603 -0.2455  0.1647
  676MOL0     C91185   2.195   2.137   5.485 -0.2756  0.3139  0.7172
  676MOL0     C91186   2.175   2.205   5.624 -0.0100 -0.0081  1.0688
  676MOL0     C91187   2.052   2.152   5.690  0.7715  0.1791  0.7741
  676MOL0     C91188   2.044   2.002   5.682  0.3058  0.4491  0.0558
  676MOL0     C91189   1.921   1.972   5.762  0.1325  0.7087 -0.1202
  676MOL0     C91190   1.820   1.962   5.829  0.1919 -0.7381  0.6580
  676MOL0     C91191   2.195   1.959   5.273  0.2312  0.6030  0.4074
  676MOL0     C91192   2.209   1.885   5.160 -0.0262  0.1476 -0.0705
  676MOL0     H91193   2.074   1.836   4.760  0.5920  1.9906 -1.8371
  676MOL0     H91194   2.106   1.839   4.518  0.0478  1.3787  1.5682
  676MOL0     H91195   2.215   1.869   4.323  2.7604  2.2728 -2.6159
  676MOL0     H91196   2.333   1.789   4.224  0.7123  1.5641  1.1978
  676MOL0     H91197   2.192   1.602   4.181 -0.3731 -0.6940  2.8940
  676MOL0     H91198   2.075   1.644   4.298  0.1811 -1.8524 -0.4361
  676MOL0     H91199   1.961   1.745   4.127  0.6436  0.5672  0.3139
  676MOL0     H91200   2.077   1.878   4.141  0.0084  0.4324  1.7740
  676MOL0     H91201   2.221   1.768   3.975  0.4776  0.0576 -3.0850
  676MOL0     H91202   2.093   1.641   3.948 -1.9468 -0.3830  0.4201
  676MOL0     H91203   2.037   1.782   3.783  0.5860  1.0426 -0.7512
  676MOL0     H91204   1.952   1.869   3.911 -1.2955 -3.7150  0.5499
  676MOL0     H91205   2.164   2.005   3.956  5.7581 -0.2895 -0.3987
  676MOL0     H91206   2.237   1.913   3.820 -0.3059  0.9770 -2.5549
  676MOL0     H91207   2.082   2.009   3.669 -0.4150 -1.1609  0.5497
  676MOL0     H91208   2.019   2.113   3.791  0.1545  1.1690 -0.7588
  676MOL0     H91209   2.259   2.209   3.836 -0.0669 -0.1249  0.0042
  676MOL0     H91210   2.181   2.241   3.678  0.1816 -3.6044 -5.8256
  676MOL0     H91211   2.495   2.168   3.815  1.7678 -0.1301  0.2644
  676MOL0     H91212   2.715   2.120   3.569 -0.2000 -0.6963 -2.3674
  676MOL0     H91213   2.715   2.051   3.734 -0.6990  0.1511 -0.2809
  676MOL0     H91214   2.838   1.914   3.559  0.0587 -2.6447 -2.5105
  676MOL0     H91215   2.677   1.884   3.486  0.5494  0.3723 -0.2299
  676MOL0     H91216   2.725   1.806   3.775 -3.1238  3.8079 -0.0644
  676MOL0     H91217   2.771   1.696   3.633 -3.4633 -2.5756 -1.0657
  676MOL0     H91218   2.550   1.700   3.555  1.1759 -1.1663  0.9852
  676MOL0     H91219   2.496   1.791   3.700 -1.2157 -2.1924  2.7034
  676MOL0     H91220   2.315   1.636   3.681  1.4338 -0.1496  2.4745
  676MOL0     H91221   2.094   1.584   3.591  0.9314 -1.1729  3.1119
  676MOL0     H91222   2.110   1.453   3.468 -0.6316 -2.4145  0.0923
  676MOL0     H91223   2.037   1.433   3.636  0.4222  2.9904  2.2258
  676MOL0     H91224   2.136   0.922   3.680  0.8942 -2.0198  0.5503
  676MOL0     H91225   2.018   0.705   3.602  0.1164  0.9107  2.4292
  676MOL0     H91226   1.895   0.561   3.507  0.3561  0.0236 -0.1870
  676MOL0     H91227   1.814   0.654   3.382 -0.4360 -0.7421 -0.5150
  676MOL0     H91228   1.759   0.425   3.397  0.7384 -0.0426  1.8637
  676MOL0     H91229   1.800   0.466   3.235  1.0040 -0.4080 -0.2832
  676MOL0     H91230   1.982   0.310   3.443 -2.8771  1.3438  1.1590
  676MOL0     H91231   2.016   0.326   3.266 -2.1007  2.9479 -2.5846
  676MOL0     H91232   1.917   0.103   3.353  3.4135  2.0856  0.9302
  676MOL0     H91233   1.763   0.185   3.383 -0.8658 -0.2780 -1.1080
  676MOL0     H91234   1.899   0.144   3.104  2.8196 -2.2514  4.1996
  676MOL0     H91235   1.753   0.257   3.136  0.6706  0.4282  0.4797
  676MOL0     H91236   1.626   0.088   3.200  0.3216 -0.0007 -1.1986
  676MOL0     H91237   1.688   0.024   3.040 -0.0484 -0.9176  0.2116
  676MOL0     H91238   1.794  -0.067   3.302 -1.7520  3.1284 -0.7745
  676MOL0     H91239   1.844  -0.123   3.137 -0.2689 -0.0120 -0.7335
  676MOL0     H91240   1.709  -0.292   3.219  0.5426  0.6646 -0.4606
  676MOL0     H91241   1.652  -0.224   3.077 -1.9729 -1.5730  0.2381
  676MOL0     H91242   2.170   0.796   3.205 -1.8642 -1.5922  0.2008
  676MOL0     H91243   2.280   1.001   3.283  0.1678 -0.3715 -0.5734
  676MOL0     H91244   2.462   1.170   3.619  1.3186  0.2745  0.3935
  676MOL0     H91245   2.625   1.339   3.681 -0.2280 -3.3369  2.2345
  676MOL0     H91246   2.400   1.533   4.545 -0.3846  0.5954 -1.9367
  676MOL0     H91247   2.378   1.533   4.801 -0.0657  0.1006  0.2684
  676MOL0     H91248   2.463   1.672   5.255 -0.0553 -0.6874 -2.6758
  676MOL0     H91249   2.435   1.813   5.465 -1.4126  2.9864  2.6842
  676MOL0     H91250   2.239   2.206   5.412 -0.3429  0.8773  1.2061
  676MOL0     H91251   2.095   2.116   5.444  0.5003  0.0782 -1.1887
  676MOL0     H91252   2.152   2.311   5.610 -3.0656 -0.8010 -1.0424
  676MOL0     H91253   2.261   2.189   5.690  0.8270 -0.1214 -0.0213
  676MOL0     H91254   1.960   2.201   5.660  1.2315  2.2546  2.4590
  676MOL0     H91255   2.058   2.188   5.793 -1.2600  2.8912  0.0404
  676MOL0     H91256   2.123   1.938   5.722 -2.6328 -3.7451 -0.2164
  676MOL0     H91257   2.022   1.962   5.583 -3.4823 -0.1784  0.9902
  676MOL0     H91258   1.758   1.956   5.916  0.1457 -2.0480  0.5620
  676MOL0     H91259   2.134   2.047   5.256  0.5719  0.7380 -0.1356
  676MOL0     H91260   2.162   1.903   5.064  1.1416  1.0161 -0.5186
  677MOL0     O91261   0.592  10.706   3.182 -0.5914 -0.0027  0.5063
  677MOL0     C91262   0.688  10.645   3.132 -0.7276 -0.2115 -0.9954
  677MOL0     O91263   0.711  10.626   2.992 -0.4506  0.3011 -0.0132
  677MOL0     C91264   0.623  10.672   2.894 -0.1738 -1.2018 -0.3820
  677MOL0     C91265   0.590  10.595   2.787  0.2425  0.6062  0.2305
  677MOL0     C91266   0.486  10.635   2.699 -0.5316  0.5017  0.2174
  677MOL0     C91267   0.414  10.751   2.720 -0.2366  0.4896 -0.1948
  677MOL0     O91268   0.317  10.790   2.623  0.2831  0.6157 -0.4187
  677MOL0     C91269   0.185  10.769   2.684  0.3731  0.5397 -0.4658
  677MOL0     C91270   0.085  10.770   2.577 -0.0304 -0.3858  0.4502
  677MOL0     C91271  -0.055  10.721   2.624  0.4266 -0.0421 -0.5801
  677MOL0     C91272  -0.117  10.813   2.728 -0.0376 -1.4161 -0.8505
  677MOL0     C91273  -0.261  10.770   2.769 -0.4525  0.2797  0.1110
  677MOL0     C91274  -0.380  10.838   2.697  0.1773  0.3554  0.8784
  677MOL0     C91275  -0.509  10.763   2.727  0.4098 -0.2895  0.2513
  677MOL0     C91276  -0.634  10.830   2.675  0.0312 -0.5133 -0.7010
  677MOL0     N91277  -0.756  10.747   2.717 -0.9221 -0.7032  0.0940
  677MOL0     C91278  -0.874  10.786   2.762 -0.3016 -0.7557 -0.1760
  677MOL0     C91279  -0.946  10.674   2.771 -0.2874 -0.8240  0.0048
  677MOL0     C91280  -1.085  10.665   2.827  0.5791  0.1604  0.3770
  677MOL0     C91281  -1.179  10.617   2.721  0.3786 -0.2284  1.0474
  677MOL0     C91282  -1.167  10.478   2.685 -0.0617 -0.0008  0.0638
  677MOL0     C91283  -1.291  10.419   2.620 -0.2243  0.4549 -0.0589
  677MOL0     O91284  -1.339  10.511   2.513 -0.0512  0.4126 -0.7646
  677MOL0     C91285  -1.462  10.481   2.455  0.2357  0.3049 -0.4540
  677MOL0     C91286  -1.506  10.573   2.356  0.1215  0.3992 -0.1667
  677MOL0     C91287  -1.611  10.543   2.268 -0.4455  0.4286  0.5800
  677MOL0     C91288  -1.649  10.634   2.159 -0.6818 -0.8876  0.4376
  677MOL0     C91289  -1.676  10.415   2.287 -0.0227  0.7384 -1.2469
  677MOL0     C91290  -1.791  10.374   2.214  0.7095 -1.4669  0.3224
  677MOL0     O91291  -1.781  10.371   2.078 -0.0075  1.0955 -0.6769
  677MOL0     C91292  -1.893  10.331   2.006 -0.0644  0.1757  0.4571
  677MOL0     C91293  -2.003  10.418   1.991 -0.3364 -0.1981 -0.0087
  677MOL0     C91294  -2.127  10.368   1.948 -0.9405 -1.5767 -0.1026
  677MOL0     C91295  -2.138  10.241   1.902  0.2635 -0.0096  0.3278
  677MOL0     O91296  -2.262  10.204   1.859  0.6174  0.5475 -0.0429
  677MOL0     C91297  -2.283  10.073   1.793 -0.1457 -0.5101 -0.2557
  677MOL0     C91298  -2.418  10.076   1.728  0.2033 -0.8623 -0.4935
  677MOL0     C91299  -2.439   9.943   1.659 -0.1278 -0.2373 -0.0830
  677MOL0     C91300  -2.478   9.967   1.512 -0.2770  0.9076  0.5154
  677MOL0     C91301  -2.524   9.833   1.449  0.3120  0.0955  0.3232
  677MOL0     C91302  -2.567   9.858   1.304 -0.7581  0.5115  0.1153
  677MOL0     C91303  -2.644   9.747   1.235 -0.3220  0.7640  0.3356
  677MOL0     C91304  -2.798   9.749   1.260  0.7842 -0.6712  0.4175
  677MOL0    Cl91305  -2.859   9.906   1.205  0.2268 -0.1477 -0.2147
  677MOL0     C91306  -2.025  10.159   1.903  0.4879 -0.2251 -0.1434
  677MOL0     C91307  -1.901  10.200   1.955 -0.4401  0.1332 -0.1540
  677MOL0     O91308  -1.893  10.363   2.278 -0.1111  0.1784  0.1816
  677MOL0     C91309  -1.639  10.332   2.391  0.0706 -0.1290 -0.4016
  677MOL0     C91310  -1.532  10.367   2.478  0.5863  0.3097 -0.7344
  677MOL0     N91311  -0.860  10.563   2.747  0.5868  0.3464 -0.4699
  677MOL0     N91312  -0.741  10.612   2.712  0.7739  0.0457  0.4973
  677MOL0     C91313   0.452  10.833   2.836 -0.3257 -0.0302  0.0511
  677MOL0     C91314   0.562  10.800   2.919  0.5372 -0.5061 -0.1605
  677MOL0     C91315   0.779  10.602   3.243  0.0516  0.0566 -0.7339
  677MOL0     C91316   0.912  10.594   3.218 -0.2037 -0.3754 -0.8990
  677MOL0     C91317   1.000  10.573   3.330 -0.2351  0.0742 -0.0482
  677MOL0     C91318   0.960  10.543   3.460  0.9032  0.8640 -0.4827
  677MOL0     O91319   1.048  10.499   3.546 -0.3160 -0.6182 -0.0681
  677MOL0     C91320   1.011  10.488   3.686  0.1393 -0.8344  0.0178
  677MOL0     C91321   1.145  10.480   3.766 -0.2377  0.4816 -0.2007
  677MOL0     C91322   1.138  10.493   3.920  1.5538  0.2595  0.4029
  677MOL0     C91323   1.265  10.430   3.985  0.4879  0.3097 -0.2148
  677MOL0     C91324   1.246  10.420   4.134  0.3010 -0.3926 -0.5423
  677MOL0     C91325   1.234  10.406   4.255  0.6308  0.4684  0.0940
  677MOL0     C91326   0.819  10.539   3.482 -0.0396  0.0650 -0.2721
  677MOL0     C91327   0.732  10.578   3.376  0.3485 -0.2413  0.5539
  677MOL0     H91328   0.655  10.511   2.763 -0.0375  0.6991 -0.9233
  677MOL0     H91329   0.463  10.577   2.610 -0.8123  0.8902  0.0333
  677MOL0     H91330   0.186  10.671   2.732  1.1198  1.3398  1.2293
  677MOL0     H91331   0.168  10.847   2.758 -1.7474  0.5848 -0.9377
  677MOL0     H91332   0.078  10.869   2.531 -1.6346 -1.0680 -0.8460
  677MOL0     H91333   0.121  10.708   2.495 -0.9830  1.3039 -1.3242
  677MOL0     H91334  -0.114  10.720   2.532 -0.7318  2.4071  0.0490
  677MOL0     H91335  -0.033  10.620   2.662  0.2083 -0.9443 -2.7215
  677MOL0     H91336  -0.046  10.820   2.810 -0.8621  1.5128 -0.2533
  677MOL0     H91337  -0.120  10.915   2.687  2.6610 -1.0129 -0.2123
  677MOL0     H91338  -0.278  10.664   2.747  0.6212 -0.1518  1.2488
  677MOL0     H91339  -0.259  10.771   2.878  0.4800 -1.2732  0.1291
  677MOL0     H91340  -0.384  10.945   2.718  0.8204  0.8552 -1.3424
  677MOL0     H91341  -0.369  10.818   2.590  0.3148  3.7343  0.1488
  677MOL0     H91342  -0.509  10.658   2.696 -2.4844 -0.0794 -0.8050
  677MOL0     H91343  -0.519  10.747   2.835 -2.6161 -1.5081 -0.0990
  677MOL0     H91344  -0.629  10.829   2.565  0.4249 -0.3831 -0.6869
  677MOL0     H91345  -0.648  10.933   2.708  1.6488 -0.6733  0.5824
  677MOL0     H91346  -0.916  10.883   2.788  1.4443  0.2294 -0.8537
  677MOL0     H91347  -1.089  10.617   2.925 -2.7547  2.5047  1.5722
  677MOL0     H91348  -1.115  10.769   2.844  1.0871  0.1663  1.2980
  677MOL0     H91349  -1.162  10.688   2.639 -2.4873  0.2282  0.7559
  677MOL0     H91350  -1.282  10.625   2.757  0.1962  0.2373  0.4413
  677MOL0     H91351  -1.142  10.420   2.774  0.6415 -3.5695 -2.2777
  677MOL0     H91352  -1.091  10.467   2.607 -2.8828 -1.3605 -2.7261
  677MOL0     H91353  -1.364  10.392   2.696 -2.5344  1.9080 -1.6214
  677MOL0     H91354  -1.273  10.322   2.573 -1.7789  0.9109 -1.7184
  677MOL0     H91355  -1.471  10.675   2.353 -1.0257  0.9888  3.0253
  677MOL0     H91356  -1.608  10.591   2.066  0.9510  0.1008  0.6562
  677MOL0     H91357  -1.758  10.638   2.151 -0.5524 -1.3459 -3.2908
  677MOL0     H91358  -1.617  10.737   2.177 -2.7240 -0.5966  2.8447
  677MOL0     H91359  -1.995  10.522   2.021 -3.4786 -0.1443  0.9347
  677MOL0     H91360  -2.203  10.445   1.954  0.9608  0.2983  1.5222
  677MOL0     H91361  -2.199  10.046   1.728  1.3459 -2.9404  2.4171
  677MOL0     H91362  -2.285   9.998   1.873 -0.6237 -0.4050 -0.1700
  677MOL0     H91363  -2.497  10.094   1.800  2.3098 -3.7482  2.8877
  677MOL0     H91364  -2.409  10.159   1.656  1.0176  0.3374  0.9378
  677MOL0     H91365  -2.519   9.888   1.710  0.3962 -0.4026  0.5654
  677MOL0     H91366  -2.361   9.867   1.659 -0.4274 -0.5553  0.6279
  677MOL0     H91367  -2.555  10.045   1.507 -2.7144 -1.4314 -2.4079
  677MOL0     H91368  -2.390  10.006   1.460 -1.4523  0.2068 -2.1636
  677MOL0     H91369  -2.608   9.800   1.511  0.0352 -0.2515 -0.2294
  677MOL0     H91370  -2.447   9.757   1.457 -1.0409 -1.0892  3.7001
  677MOL0     H91371  -2.619   9.954   1.291 -3.6007 -1.0682 -1.1175
  677MOL0     H91372  -2.473   9.877   1.251 -0.7608  0.1298 -0.0233
  677MOL0     H91373  -2.615   9.652   1.281  1.1337  0.9433 -0.1554
  677MOL0     H91374  -2.635   9.736   1.127  0.0768 -3.2027  0.6042
  677MOL0     H91375  -2.812   9.747   1.369  1.6923 -1.2957  0.5301
  677MOL0     H91376  -2.857   9.670   1.213 -0.3702 -0.4369  1.3990
  677MOL0     H91377  -2.033  10.055   1.872 -0.3536 -0.4482  0.7568
  677MOL0     H91378  -1.820  10.132   1.976 -0.5559  0.1382  0.3166
  677MOL0     H91379  -1.690  10.238   2.408 -4.5079  1.2980 -4.1434
  677MOL0     H91380  -1.519  10.295   2.558  1.5030  0.9636 -0.2736
  677MOL0     H91381   0.409  10.931   2.853 -1.6834 -0.5345 -0.3275
  677MOL0     H91382   0.591  10.859   3.006  1.3866  2.5635 -2.3535
  677MOL0     H91383   0.961  10.608   3.123  1.9521  1.1590  0.3585
  677MOL0     H91384   1.105  10.585   3.305 -0.3160  3.8689  0.6983
  677MOL0     H91385   0.949  10.571   3.723  0.0470  0.1579 -2.2076
  677MOL0     H91386   0.961  10.392   3.700  0.0175 -0.8774 -0.6487
  677MOL0     H91387   1.213  10.561   3.737  0.4979  0.3458  1.0452
  677MOL0     H91388   1.202  10.393   3.733  0.8474 -1.1913  5.0362
  677MOL0     H91389   1.047  10.436   3.944  0.5243  0.6756 -2.1681
  677MOL0     H91390   1.114  10.596   3.948 -1.7583 -0.1858 -0.4093
  677MOL0     H91391   1.351  10.496   3.972  1.3325 -0.4767  1.0740
  677MOL0     H91392   1.289  10.331   3.946  1.9361  1.6038 -2.9090
  677MOL0     H91393   1.231  10.399   4.361  0.6146 -3.5692 -0.0178
  677MOL0     H91394   0.779  10.500   3.575  1.5624  0.3690  0.5841
  677MOL0     H91395   0.629  10.603   3.400  0.8593  0.9652  1.6483
  678MOL0     O91396  10.087   4.375   8.233  0.6352 -0.6713  0.7248
  678MOL0     C91397  10.081   4.268   8.284 -0.1109  1.3070  0.2068
  678MOL0     O91398   9.999   4.231   8.394 -0.2953 -0.3132  0.0831
  678MOL0     C91399   9.951   4.335   8.468 -0.4486  0.4731  0.8309
  678MOL0     C91400  10.037   4.400   8.550 -0.4786  0.5382 -0.7259
  678MOL0     C91401   9.980   4.490   8.640 -0.0920  0.0947 -0.1397
  678MOL0     C91402   9.842   4.494   8.661 -0.2241  0.1851  0.0144
  678MOL0     O91403   9.798   4.571   8.758 -0.0651 -0.2012 -0.1056
  678MOL0     C91404   9.674   4.524   8.815  0.4928 -0.0165 -0.1644
  678MOL0     C91405   9.667   4.578   8.960 -0.2686 -0.3042 -0.6239
  678MOL0     C91406   9.521   4.562   9.024  0.3208  0.5477  0.2059
  678MOL0     C91407   9.465   4.419   9.030  0.4383  0.1660 -0.1372
  678MOL0     C91408   9.561   4.308   9.066 -0.3325  0.9500  0.1272
  678MOL0     C91409   9.486   4.183   9.106 -0.5563  0.3765 -0.9435
  678MOL0     C91410   9.412   4.109   8.995  0.1041 -0.4111 -0.1892
  678MOL0     C91411   9.338   3.982   9.043  0.1882 -0.3251  0.8544
  678MOL0     N91412   9.217   4.029   9.105  0.2657 -0.0626  0.0854
  678MOL0     C91413   9.107   4.082   9.037  1.0059 -0.2823  0.0762
  678MOL0     C91414   9.007   4.071   9.125 -0.1605  0.3095 -0.6956
  678MOL0     C91415   8.861   4.088   9.103  0.6593  1.1415  0.4203
  678MOL0     C91416   8.782   4.106   9.231 -0.6621  0.1884 -0.2982
  678MOL0     C91417   8.636   4.117   9.203 -0.0035  0.1506 -0.8871
  678MOL0     C91418   8.571   3.979   9.182 -0.6028  0.0069  0.3094
  678MOL0     O91419   8.432   3.982   9.161  0.2725 -0.4426  1.1988
  678MOL0     C91420   8.350   3.986   9.275 -0.6935  0.4875 -0.2415
  678MOL0     C91421   8.242   4.072   9.269  0.0071  0.0146 -0.1851
  678MOL0     C91422   8.152   4.069   9.372  0.7524 -0.1566  0.1861
  678MOL0     C91423   8.040   4.167   9.346  0.0400  0.7577 -0.1568
  678MOL0     C91424   8.172   3.986   9.485 -0.7320 -0.0920  0.1750
  678MOL0     C91425   8.080   3.985   9.600 -1.5623  0.5175  0.2279
  678MOL0     O91426   8.090   3.882   9.690  0.0048  0.0052  0.2642
  678MOL0     C91427   8.012   3.888   9.803 -0.0134  0.3850 -0.3079
  678MOL0     C91428   7.955   3.999   9.867 -0.3028  0.6518 -0.2989
  678MOL0     C91429   7.864   3.982   9.976  0.4555 -0.2844 -0.1293
  678MOL0     C91430   7.830   3.850  10.024  0.3190  0.4478  0.2770
  678MOL0     O91431   7.761   3.822  10.143  0.1782 -0.6720 -0.0523
  678MOL0     C91432   7.650   3.916  10.180 -0.2872  1.2000  0.1160
  678MOL0     C91433   7.621   3.894  10.329  0.9244 -0.0789 -0.1555
  678MOL0     C91434   7.598   3.743  10.366 -0.3291  0.1743  0.3632
  678MOL0     C91435   7.474   3.683  10.294 -0.2459  0.2134  0.0677
  678MOL0     C91436   7.425   3.549  10.352  0.9031 -0.3364  0.5280
  678MOL0     C91437   7.273   3.532  10.309 -0.2906 -0.1762  0.2910
  678MOL0     C91438   7.206   3.407  10.372  0.1387  0.1090 -0.8750
  678MOL0     C91439   7.075   3.375  10.302 -0.1581 -0.3083 -0.6880
  678MOL0    Cl91440   6.964   3.514  10.325  0.0969 -0.0255  0.1839
  678MOL0     C91441   7.892   3.742   9.964 -0.2012 -0.1073 -0.7960
  678MOL0     C91442   7.982   3.756   9.858  0.5171 -0.9875 -0.9942
  678MOL0     O91443   7.991   4.061   9.601 -0.2222 -0.0433  0.3329
  678MOL0     C91444   8.281   3.893   9.480 -0.5586  0.1846  0.0596
  678MOL0     C91445   8.367   3.888   9.379 -0.2422 -0.6321 -0.7000
  678MOL0     N91446   9.056   4.013   9.250 -1.4805  0.4257  0.4372
  678MOL0     N91447   9.184   3.992   9.236  0.6589 -0.3872  0.5528
  678MOL0     C91448   9.757   4.420   8.575 -0.1314  0.5093 -0.3785
  678MOL0     C91449   9.814   4.339   8.481 -0.2225  0.4475  0.1423
  678MOL0     C91450  10.158   4.162   8.208  0.4118 -1.2660 -0.3233
  678MOL0     C91451  10.232   4.177   8.086  0.3825 -0.9446  0.5107
  678MOL0     C91452  10.321   4.087   8.032 -0.0981 -0.3950  0.3350
  678MOL0     C91453  10.339   3.963   8.099  0.1445  0.2087  0.3822
  678MOL0     O91454  10.442   3.880   8.064  0.5682  0.2918 -0.1328
  678MOL0     C91455  10.533   3.833   8.169 -0.0621  0.5674 -0.4163
  678MOL0     C91456  10.633   3.937   8.217  0.4033 -0.7168 -0.2698
  678MOL0     C91457  10.695   4.021   8.100  0.1017 -0.6641  0.1932
  678MOL0     C91458  10.766   3.933   7.994  0.0495  0.1300  0.6094
  678MOL0     C91459  10.848   3.823   8.046  0.5731 -0.3352 -0.2603
  678MOL0     C91460  10.918   3.732   8.088  0.0361  0.2528 -0.4725
  678MOL0     C91461  10.253   3.934   8.212  0.6452  0.5095  0.4604
  678MOL0     C91462  10.165   4.036   8.269 -0.1806  0.1553  0.0699
  678MOL0     H91463  10.145   4.390   8.541 -0.1945  2.9071 -0.7046
  678MOL0     H91464  10.049   4.541   8.707  0.3968  1.1102 -1.3787
  678MOL0     H91465   9.590   4.558   8.754 -0.0799  1.8727  1.5388
  678MOL0     H91466   9.679   4.416   8.806  3.5594  0.2056 -3.6629
  678MOL0     H91467   9.742   4.527   9.022 -1.9133  0.3593  2.0745
  678MOL0     H91468   9.695   4.684   8.964 -0.3014 -0.3171  0.1995
  678MOL0     H91469   9.533   4.605   9.125  0.8875  1.3241 -0.1799
  678MOL0     H91470   9.451   4.626   8.969  1.4523 -0.2124 -2.2416
  678MOL0     H91471   9.383   4.428   9.102 -1.1735 -0.3158 -1.8351
  678MOL0     H91472   9.415   4.396   8.935  0.7596  0.0674 -0.2849
  678MOL0     H91473   9.623   4.288   8.978 -0.8942 -0.9105  0.1058
  678MOL0     H91474   9.630   4.341   9.145  0.1904  3.1410 -1.1695
  678MOL0     H91475   9.556   4.112   9.152  0.1453  1.0092 -1.0129
  678MOL0     H91476   9.411   4.206   9.182 -2.0880  2.6945 -2.9938
  678MOL0     H91477   9.329   4.172   8.961 -1.3169  0.0032  3.6005
  678MOL0     H91478   9.489   4.092   8.919  0.4961  0.1178  0.0844
  678MOL0     H91479   9.396   3.919   9.113  2.4173 -0.6907 -1.1811
  678MOL0     H91480   9.293   3.922   8.963 -0.6133  0.7371  0.4947
  678MOL0     H91481   9.101   4.129   8.940  3.9291  2.0971  0.8887
  678MOL0     H91482   8.839   4.182   9.053  0.1733  0.2794 -1.0401
  678MOL0     H91483   8.817   4.005   9.046 -0.0792  1.3739  0.6320
  678MOL0     H91484   8.805   4.206   9.266  2.6290  0.1622 -2.0573
  678MOL0     H91485   8.806   4.022   9.297  1.1102  0.8011 -0.1343
  678MOL0     H91486   8.602   4.175   9.117 -3.6588  0.3734  0.5304
  678MOL0     H91487   8.595   4.158   9.296  2.4815 -0.9432  0.8068
  678MOL0     H91488   8.595   3.927   9.275  1.6264  0.1722 -0.1245
  678MOL0     H91489   8.609   3.912   9.104 -0.4738 -0.4465  0.7513
  678MOL0     H91490   8.245   4.153   9.197 -1.2543  0.7277  0.5188
  678MOL0     H91491   7.936   4.134   9.356  0.5160 -1.7222 -2.2233
  678MOL0     H91492   8.054   4.255   9.409 -0.2519 -0.3055  1.4430
  678MOL0     H91493   8.044   4.191   9.239  0.3619  3.0386  0.3228
  678MOL0     H91494   7.963   4.101   9.833 -0.4458  0.0282 -2.2931
  678MOL0     H91495   7.821   4.071  10.023 -4.4444 -3.4070  2.1513
  678MOL0     H91496   7.682   4.020  10.165  3.0804  0.2392 -0.2876
  678MOL0     H91497   7.559   3.894  10.123  1.5612 -1.5986 -2.0651
  678MOL0     H91498   7.706   3.929  10.387  1.4051  1.9007 -1.9153
  678MOL0     H91499   7.534   3.950  10.367  0.8839 -0.8881  0.9908
  678MOL0     H91500   7.580   3.756  10.473  0.9592  1.2667  0.4864
  678MOL0     H91501   7.691   3.688  10.349  0.8291  2.2201 -0.3917
  678MOL0     H91502   7.400   3.763  10.309  0.3179  0.2501  3.3669
  678MOL0     H91503   7.489   3.679  10.186 -0.7569  3.2674 -0.2141
  678MOL0     H91504   7.442   3.546  10.460  2.6518  2.4393  0.4190
  678MOL0     H91505   7.491   3.470  10.315  1.3253 -0.2802  1.1397
  678MOL0     H91506   7.218   3.624  10.330  1.4601  0.8784  0.4195
  678MOL0     H91507   7.276   3.523  10.200  4.1835 -0.4418  0.2765
  678MOL0     H91508   7.177   3.413  10.477 -2.4903  1.4445 -1.5948
  678MOL0     H91509   7.289   3.336  10.367  0.4819  0.4469 -0.1304
  678MOL0     H91510   7.034   3.279  10.337  1.6616 -0.6678  0.5678
  678MOL0     H91511   7.112   3.362  10.200  4.5118  2.1842  0.4035
  678MOL0     H91512   7.870   3.643  10.002 -1.0600  0.5380  0.4707
  678MOL0     H91513   8.030   3.674   9.806  1.8091 -0.6903 -0.3176
  678MOL0     H91514   8.295   3.836   9.571  0.8026  0.9395  0.3483
  678MOL0     H91515   8.448   3.816   9.391 -0.0693  0.0546  4.9595
  678MOL0     H91516   9.649   4.425   8.584 -0.2543  1.7458 -2.0914
  678MOL0     H91517   9.752   4.282   8.413 -3.5657  2.7647  0.9818
  678MOL0     H91518  10.215   4.274   8.041 -1.1584 -1.0856  0.7264
  678MOL0     H91519  10.384   4.114   7.948  4.1695 -1.2269  2.9688
  678MOL0     H91520  10.484   3.795   8.259  0.2574 -0.9020 -0.8369
  678MOL0     H91521  10.591   3.752   8.123  0.3514  1.9645 -2.4858
  678MOL0     H91522  10.715   3.891   8.272  0.3068  1.2502  1.6493
  678MOL0     H91523  10.588   4.007   8.288  2.3947  0.2655  0.0698
  678MOL0     H91524  10.762   4.098   8.139  2.0459  0.3591 -4.5921
  678MOL0     H91525  10.625   4.080   8.040  1.5407  1.6362  0.6463
  678MOL0     H91526  10.834   3.992   7.932 -0.8583  0.0950 -0.4553
  678MOL0     H91527  10.696   3.912   7.913  1.1085 -1.2835  0.0048
  678MOL0     H91528  10.974   3.646   8.120  1.8840 -0.4378 -4.8296
  678MOL0     H91529  10.271   3.848   8.275  2.1699  0.8034  0.4834
  678MOL0     H91530  10.125   4.014   8.368 -1.8473  0.2152 -0.5665
  679MOL0     O91531  10.277   7.775   0.645 -0.0785 -0.4152 -0.5374
  679MOL0     C91532  10.255   7.794   0.522 -0.1914  1.1434 -0.4349
  679MOL0     O91533  10.157   7.876   0.482  0.1927 -0.1687  0.6365
  679MOL0     C91534  10.090   7.931   0.585 -0.0448  0.0222  0.2108
  679MOL0     C91535  10.121   8.061   0.619  0.0041  0.3547 -0.5113
  679MOL0     C91536  10.033   8.118   0.713  1.0332  0.1563  0.4650
  679MOL0     C91537   9.937   8.043   0.793  0.2001  0.2352 -0.6114
  679MOL0     O91538   9.879   8.096   0.902  0.1530 -0.9228  0.2390
  679MOL0     C91539   9.781   8.023   0.978  0.4121 -0.3335  0.2563
  679MOL0     C91540   9.686   8.108   1.068 -0.1123  0.0495 -0.5421
  679MOL0     C91541   9.757   8.158   1.198 -0.7695  0.2981  0.1600
  679MOL0     C91542   9.877   8.246   1.185 -0.3398 -0.3278  0.9510
  679MOL0     C91543   9.922   8.299   1.330  0.7793 -0.0966 -0.1554
  679MOL0     C91544   9.847   8.420   1.364  0.5088  0.3611 -0.0227
  679MOL0     C91545   9.905   8.537   1.280 -0.3428  0.0889  0.2729
  679MOL0     C91546   9.819   8.638   1.223  0.8287 -0.3098  0.3171
  679MOL0     N91547   9.726   8.698   1.321  0.0202  0.8149  0.4619
  679MOL0     C91548   9.754   8.780   1.422 -0.6950 -0.4252 -0.4961
  679MOL0     C91549   9.636   8.802   1.482  0.2084  0.0874 -0.8513
  679MOL0     C91550   9.627   8.895   1.604 -0.7135 -0.3726  0.2750
  679MOL0     C91551   9.651   8.809   1.731 -0.1971 -0.2332  0.3228
  679MOL0     C91552   9.679   8.893   1.854  0.2540 -0.1048  0.2271
  679MOL0     C91553   9.808   8.974   1.856  0.7588 -0.2143 -0.4635
  679MOL0     O91554   9.914   8.870   1.848 -0.0321  0.6041 -0.2792
  679MOL0     C91555   9.982   8.886   1.727  0.8705  0.2751  0.0477
  679MOL0     C91556  10.031   9.007   1.682  0.0063  0.5599 -0.1794
  679MOL0     C91557  10.113   9.026   1.569 -0.4532  0.1806 -0.3366
  679MOL0     C91558  10.160   9.166   1.524 -0.2850  0.4651 -0.0070
  679MOL0     C91559  10.151   8.906   1.500 -0.0733  0.3471 -0.1356
  679MOL0     C91560  10.265   8.892   1.405 -0.7532 -0.2205  0.2492
  679MOL0     O91561  10.359   8.994   1.397 -0.1982  0.2776  0.1530
  679MOL0     C91562  10.479   8.955   1.336  0.3750 -0.2699  0.5198
  679MOL0     C91563  10.500   8.959   1.193  0.4361  0.1562  0.4248
  679MOL0     C91564  10.629   8.930   1.141  0.8480 -0.8157  0.4621
  679MOL0     C91565  10.739   8.892   1.223  0.5133  0.2173  0.8624
  679MOL0     O91566  10.852   8.853   1.159 -0.6087  0.3498  0.0781
  679MOL0     C91567  10.966   8.812   1.236  0.2739 -0.5722  0.3435
  679MOL0     C91568  11.069   8.736   1.158 -0.6786 -0.4369 -0.8118
  679MOL0     C91569  11.176   8.709   1.271  0.1821  0.2512  0.4254
  679MOL0     C91570  11.299   8.645   1.232 -0.5591 -0.7772 -0.3807
  679MOL0     C91571  11.401   8.630   1.345 -1.1167  0.4537 -0.3240
  679MOL0     C91572  11.504   8.526   1.310  0.7388 -0.1085 -0.6790
  679MOL0     C91573  11.602   8.494   1.430  0.0002 -0.0313 -0.4554
  679MOL0     C91574  11.687   8.614   1.455  0.0470 -0.3826  0.4557
  679MOL0    Cl91575  11.853   8.561   1.520  0.0253 -0.0939 -0.7552
  679MOL0     C91576  10.716   8.899   1.361  0.0127  0.2069  0.4644
  679MOL0     C91577  10.583   8.932   1.415 -0.3196  0.6046 -1.0160
  679MOL0     O91578  10.266   8.790   1.327 -0.2093  0.0653  0.5330
  679MOL0     C91579  10.101   8.781   1.539  0.0553  0.0279  0.3642
  679MOL0     C91580  10.012   8.772   1.643 -0.2351  0.0289  0.0528
  679MOL0     N91581   9.537   8.733   1.423  0.4380  0.2401 -0.5310
  679MOL0     N91582   9.596   8.672   1.326  1.0944  0.1356  0.8066
  679MOL0     C91583   9.918   7.905   0.762  0.5740 -0.7102  0.6718
  679MOL0     C91584   9.997   7.848   0.657 -0.3163 -0.4058 -0.6565
  679MOL0     C91585  10.355   7.757   0.421  0.6892  0.4697 -0.4447
  679MOL0     C91586  10.322   7.758   0.283 -0.1965  0.7304 -1.0103
  679MOL0     C91587  10.418   7.708   0.194 -0.1252  0.1994  0.2385
  679MOL0     C91588  10.548   7.671   0.234 -0.0226  0.1915 -0.3452
  679MOL0     O91589  10.646   7.629   0.144  0.3671 -0.5689 -1.1124
  679MOL0     C91590  10.620   7.612   0.008 -0.1647 -0.1006  0.3828
  679MOL0     C91591  10.648   7.732  -0.077 -0.0320 -0.4023  1.3258
  679MOL0     C91592  10.693   7.714  -0.222  0.0734 -0.2061  0.5165
  679MOL0     C91593  10.840   7.670  -0.225 -0.0184 -0.5086 -0.2857
  679MOL0     C91594  10.842   7.522  -0.235  0.1901  0.4665 -0.8951
  679MOL0     C91595  10.837   7.399  -0.217  0.7266 -0.8503  0.0182
  679MOL0     C91596  10.580   7.675   0.365 -1.1637 -0.8651  0.2555
  679MOL0     C91597  10.483   7.717   0.464 -1.1699  0.1350  0.6127
  679MOL0     H91598  10.199   8.120   0.572  0.2855  2.5981  2.4184
  679MOL0     H91599  10.051   8.224   0.727 -0.5873  0.9398 -2.4206
  679MOL0     H91600   9.714   7.977   0.905  1.6800 -1.0089 -0.5190
  679MOL0     H91601   9.834   7.949   1.038  1.9127  0.2322 -0.3095
  679MOL0     H91602   9.663   8.198   1.011  2.4069  1.5784  0.6899
  679MOL0     H91603   9.588   8.073   1.101  1.4237 -3.5581  0.6958
  679MOL0     H91604   9.677   8.207   1.255 -0.3842  0.9687  0.1261
  679MOL0     H91605   9.804   8.069   1.240 -2.6596 -0.9709 -0.2697
  679MOL0     H91606   9.964   8.188   1.153 -0.8649  0.0190 -1.3008
  679MOL0     H91607   9.867   8.332   1.117 -2.2071  0.3147  1.9576
  679MOL0     H91608   9.901   8.225   1.407  0.3523  0.0565 -0.1190
  679MOL0     H91609  10.031   8.297   1.341  0.9739 -2.5111 -1.8287
  679MOL0     H91610   9.743   8.403   1.336  0.8526  0.6004 -1.5754
  679MOL0     H91611   9.864   8.448   1.468  2.6747 -0.3949 -0.1254
  679MOL0     H91612   9.966   8.583   1.358 -0.4679 -0.4197  0.6725
  679MOL0     H91613   9.967   8.501   1.197  0.7482 -0.3166  1.2458
  679MOL0     H91614   9.763   8.600   1.137 -0.8463 -0.3482  1.3621
  679MOL0     H91615   9.886   8.713   1.180 -1.1129  0.3349 -1.8408
  679MOL0     H91616   9.850   8.820   1.452 -1.5131  0.9050  0.4717
  679MOL0     H91617   9.695   8.981   1.593 -1.2758 -0.0952 -1.2065
  679MOL0     H91618   9.524   8.932   1.606 -1.6063 -2.5600 -1.6564
  679MOL0     H91619   9.741   8.748   1.725  0.4540  0.7836 -0.6691
  679MOL0     H91620   9.564   8.746   1.753  1.3306 -2.0676  1.3935
  679MOL0     H91621   9.677   8.835   1.947 -1.0001 -0.8480 -0.2434
  679MOL0     H91622   9.597   8.965   1.857  0.3837  0.0782 -0.4558
  679MOL0     H91623   9.819   9.026   1.951 -2.7112 -1.8430  1.0121
  679MOL0     H91624   9.798   9.048   1.776 -2.5319  0.6303  0.5900
  679MOL0     H91625  10.028   9.099   1.740  4.8118  1.2958 -0.6862
  679MOL0     H91626  10.260   9.165   1.570 -0.5524 -0.9115  0.6057
  679MOL0     H91627  10.150   9.178   1.416 -2.8523 -0.8189  0.0240
  679MOL0     H91628  10.091   9.242   1.562 -0.7013  0.1925 -0.2086
  679MOL0     H91629  10.417   8.985   1.129 -0.0457 -1.6130  0.2720
  679MOL0     H91630  10.647   8.943   1.035 -0.3095 -0.0115  0.3446
  679MOL0     H91631  11.010   8.910   1.257  0.0232 -0.0669 -1.3484
  679MOL0     H91632  10.933   8.748   1.318  0.0288 -1.0949 -0.1596
  679MOL0     H91633  11.033   8.641   1.118  0.8766 -1.0267 -0.8877
  679MOL0     H91634  11.118   8.799   1.082  1.3579 -1.0386 -0.0569
  679MOL0     H91635  11.144   8.638   1.347  3.6246 -1.2336  0.6640
  679MOL0     H91636  11.214   8.800   1.319 -1.4289  0.6137  1.0586
  679MOL0     H91637  11.284   8.542   1.197  0.8578 -0.9795 -0.4761
  679MOL0     H91638  11.359   8.692   1.153 -1.6820  1.7148  0.1560
  679MOL0     H91639  11.353   8.607   1.441 -1.5570  0.4277 -0.5504
  679MOL0     H91640  11.453   8.725   1.357  1.8667 -0.9777 -0.8663
  679MOL0     H91641  11.464   8.431   1.275 -2.1649  0.3122  1.1646
  679MOL0     H91642  11.556   8.571   1.225 -1.4272  1.1012 -1.4555
  679MOL0     H91643  11.656   8.406   1.394  0.6799  1.2375 -2.7216
  679MOL0     H91644  11.552   8.466   1.523 -1.1486  3.6490  0.1762
  679MOL0     H91645  11.623   8.675   1.520 -1.0972 -1.3974  0.3307
  679MOL0     H91646  11.718   8.654   1.358  3.2278  2.8315  2.5550
  679MOL0     H91647  10.808   8.886   1.417 -0.2239  0.1338  0.8367
  679MOL0     H91648  10.569   8.941   1.523  1.7589  1.6389 -0.7760
  679MOL0     H91649  10.132   8.689   1.491  3.1646 -0.1708  2.4722
  679MOL0     H91650   9.975   8.674   1.671 -2.9359  1.2702  1.1278
  679MOL0     H91651   9.863   7.838   0.827 -0.5807  0.1888  0.6512
  679MOL0     H91652   9.993   7.742   0.632  0.2322 -0.3666 -0.9213
  679MOL0     H91653  10.225   7.792   0.247 -0.3982  2.6414  1.1305
  679MOL0     H91654  10.409   7.701   0.086  0.9846 -3.3864  0.2301
  679MOL0     H91655  10.689   7.533  -0.023  1.3026  1.7426 -1.3543
  679MOL0     H91656  10.521   7.578  -0.023  1.2767 -2.4312 -2.0745
  679MOL0     H91657  10.720   7.796  -0.027 -1.1614  0.8412  1.4228
  679MOL0     H91658  10.551   7.783  -0.086  1.3131  2.4121  1.8481
  679MOL0     H91659  10.688   7.801  -0.288 -0.9210 -2.5669 -2.8356
  679MOL0     H91660  10.634   7.636  -0.272  2.4924 -0.8995 -1.4658
  679MOL0     H91661  10.886   7.691  -0.128  0.6314  1.6531 -0.9997
  679MOL0     H91662  10.898   7.724  -0.300 -0.0306 -0.8193 -0.5187
  679MOL0     H91663  10.847   7.302  -0.171  0.7884 -0.0082  1.8375
  679MOL0     H91664  10.681   7.669   0.402 -0.9737 -0.4715 -0.1939
  679MOL0     H91665  10.513   7.716   0.569  3.0586 -2.0459 -0.3595
  680MOL0     O91666   0.002  11.163   7.620 -0.2154 -0.3023  0.2665
  680MOL0     C91667   0.017  11.270   7.672 -1.2279 -0.1391 -1.2126
  680MOL0     O91668  -0.069  11.370   7.687  0.0588 -0.6010  0.7818
  680MOL0     C91669  -0.192  11.355   7.635 -0.5172  0.0991  0.5963
  680MOL0     C91670  -0.273  11.262   7.694 -0.4120  0.5552 -0.1403
  680MOL0     C91671  -0.399  11.234   7.644  0.6596  0.9776  1.4546
  680MOL0     C91672  -0.454  11.297   7.537  0.7540 -0.5838 -0.5889
  680MOL0     O91673  -0.579  11.266   7.492 -0.2821  0.2257  0.4350
  680MOL0     C91674  -0.641  11.315   7.374  0.0354  0.8074  0.3120
  680MOL0     C91675  -0.763  11.236   7.340  0.0509  0.0855 -0.8110
  680MOL0     C91676  -0.820  11.294   7.212  0.5211  0.5127  0.5049
  680MOL0     C91677  -0.941  11.209   7.176  0.2653 -0.2812  0.3669
  680MOL0     C91678  -0.990  11.218   7.027  0.1597  0.2694  0.1433
  680MOL0     C91679  -1.050  11.362   6.986 -1.3383  0.2458  0.2742
  680MOL0     C91680  -1.161  11.372   6.881 -0.2278  0.2572 -0.9380
  680MOL0     C91681  -1.282  11.287   6.909 -0.3164 -0.3611 -0.2733
  680MOL0     N91682  -1.348  11.293   7.044  0.2562  0.0133 -0.4612
  680MOL0     C91683  -1.376  11.414   7.120 -0.1805 -0.3793  0.9881
  680MOL0     C91684  -1.391  11.368   7.246  0.2619  0.2648  0.6211
  680MOL0     C91685  -1.408  11.456   7.367 -0.4487  0.7229 -0.1412
  680MOL0     C91686  -1.265  11.482   7.441  0.2575  0.0356  0.1688
  680MOL0     C91687  -1.236  11.356   7.526  1.2809  0.4734  0.0892
  680MOL0     C91688  -1.109  11.360   7.598 -0.4306  0.5392 -0.6046
  680MOL0     O91689  -0.992  11.411   7.528 -0.1579 -0.1587  0.1338
  680MOL0     C91690  -0.890  11.484   7.596  0.0021  0.3788  0.2155
  680MOL0     C91691  -0.860  11.618   7.583  0.6095 -0.8213 -0.6159
  680MOL0     C91692  -0.758  11.695   7.646  0.7065  0.2367 -0.2202
  680MOL0     C91693  -0.757  11.846   7.619 -0.2836 -0.4738  0.3010
  680MOL0     C91694  -0.661  11.620   7.715  0.2423 -0.4272 -0.1597
  680MOL0     C91695  -0.536  11.681   7.767  0.8051  0.9241  0.3340
  680MOL0     O91696  -0.440  11.601   7.814 -0.2730  0.9723  0.2602
  680MOL0     C91697  -0.309  11.637   7.836  1.0010 -0.0418  0.1547
  680MOL0     C91698  -0.247  11.755   7.798 -0.2314 -0.5036 -0.5712
  680MOL0     C91699  -0.119  11.780   7.829 -0.0986 -0.1998 -0.0804
  680MOL0     C91700  -0.036  11.692   7.904  0.5281 -0.6370  0.4398
  680MOL0     O91701   0.099  11.707   7.926 -0.2655  0.3432 -0.1317
  680MOL0     C91702   0.149  11.840   7.905 -0.1259 -0.5307 -0.8871
  680MOL0     C91703   0.294  11.843   7.954 -0.0373 -0.2958  0.2872
  680MOL0     C91704   0.401  11.788   7.847 -0.1805 -1.3476  0.5388
  680MOL0     C91705   0.532  11.742   7.918  0.1348 -0.7078 -0.3470
  680MOL0     C91706   0.651  11.726   7.821  0.7247 -0.5697  0.7549
  680MOL0     C91707   0.783  11.737   7.895 -0.6653  0.8358 -0.3227
  680MOL0     C91708   0.905  11.716   7.803  0.3380  0.3254 -0.4222
  680MOL0     C91709   0.942  11.572   7.771 -0.8593 -0.1015 -0.3422
  680MOL0    Cl91710   1.002  11.485   7.910 -0.2255 -0.0967  0.3709
  680MOL0     C91711  -0.096  11.578   7.939 -0.6389 -0.2078 -0.6672
  680MOL0     C91712  -0.230  11.548   7.901 -0.0493  0.7532 -0.4014
  680MOL0     O91713  -0.539  11.802   7.783  0.8450  0.0469 -0.6971
  680MOL0     C91714  -0.681  11.481   7.713 -0.2366  0.8782 -0.4715
  680MOL0     C91715  -0.794  11.410   7.658 -0.2360 -0.0233 -0.0418
  680MOL0     N91716  -1.378  11.229   7.242  0.5803 -0.4781 -0.2944
  680MOL0     N91717  -1.354  11.187   7.125  0.0517 -0.8408  0.0180
  680MOL0     C91718  -0.385  11.410   7.486  0.1382  0.8957 -0.4237
  680MOL0     C91719  -0.256  11.434   7.534 -0.0319 -0.8003 -0.6257
  680MOL0     C91720   0.155  11.300   7.725  0.3793 -0.1521 -0.4783
  680MOL0     C91721   0.268  11.230   7.684 -0.9087 -0.5190  1.4050
  680MOL0     C91722   0.390  11.257   7.736 -0.6855 -0.2707  1.0078
  680MOL0     C91723   0.413  11.369   7.817 -0.5103  0.0550 -0.3024
  680MOL0     O91724   0.531  11.408   7.872 -0.2494  0.7828  0.3886
  680MOL0     C91725   0.627  11.306   7.896  0.4787  0.6126 -0.1809
  680MOL0     C91726   0.679  11.330   8.036  0.3933 -0.3515 -0.0414
  680MOL0     C91727   0.586  11.305   8.148 -0.4220 -0.7681 -0.2533
  680MOL0     C91728   0.517  11.163   8.145 -0.2354  0.1344  0.4221
  680MOL0     C91729   0.380  11.166   8.100 -0.6887 -0.4622 -0.2056
  680MOL0     C91730   0.268  11.162   8.061  0.2771 -0.4200 -0.1692
  680MOL0     C91731   0.308  11.446   7.852  0.3727 -0.5561  0.9586
  680MOL0     C91732   0.187  11.415   7.804  0.5411  0.7648 -0.0268
  680MOL0     H91733  -0.234  11.208   7.780  2.3141  2.4483 -0.0678
  680MOL0     H91734  -0.466  11.165   7.696 -1.6624  1.5098 -0.6443
  680MOL0     H91735  -0.659  11.421   7.396  0.6869  0.4162  3.1474
  680MOL0     H91736  -0.572  11.300   7.291  2.1184  0.3355  2.0268
  680MOL0     H91737  -0.720  11.138   7.320  3.5598  1.6385 -1.6588
  680MOL0     H91738  -0.837  11.231   7.421 -0.1676 -1.9320 -1.0884
  680MOL0     H91739  -0.864  11.392   7.232 -1.6768  0.0302 -1.5392
  680MOL0     H91740  -0.742  11.285   7.135 -0.2035 -1.7525 -0.0383
  680MOL0     H91741  -0.915  11.103   7.188 -1.2317 -0.6465  0.6105
  680MOL0     H91742  -1.027  11.227   7.240  0.3021  0.3709  0.2320
  680MOL0     H91743  -0.907  11.190   6.961 -1.4712 -2.3581 -0.9977
  680MOL0     H91744  -1.074  11.149   7.014  2.3482 -2.1253 -2.7492
  680MOL0     H91745  -1.079  11.410   7.080 -2.3123 -0.9143  0.6021
  680MOL0     H91746  -0.958  11.404   6.945 -0.6754  1.5776  2.8996
  680MOL0     H91747  -1.182  11.479   6.891  2.2810  0.6711  0.8150
  680MOL0     H91748  -1.120  11.359   6.780  1.2729  3.8850 -0.9736
  680MOL0     H91749  -1.260  11.185   6.876 -1.5442  0.4108 -3.9992
  680MOL0     H91750  -1.361  11.323   6.842  1.1139  0.7842 -1.4360
  680MOL0     H91751  -1.372  11.513   7.076 -1.6298 -1.1388 -1.0606
  680MOL0     H91752  -1.459  11.549   7.338  2.0113  2.2496  0.1067
  680MOL0     H91753  -1.473  11.410   7.441 -1.3089  2.7611  0.4437
  680MOL0     H91754  -1.282  11.560   7.516  0.3612 -1.4855  1.8637
  680MOL0     H91755  -1.179  11.501   7.377 -0.4218 -0.3083 -0.8810
  680MOL0     H91756  -1.226  11.271   7.457  0.3377 -1.3651  2.0763
  680MOL0     H91757  -1.323  11.331   7.587  0.9504  1.4590  0.0402
  680MOL0     H91758  -1.086  11.259   7.631  1.3019  1.3081  0.7062
  680MOL0     H91759  -1.116  11.416   7.692 -0.0486 -0.3738 -0.0254
  680MOL0     H91760  -0.940  11.656   7.520 -0.2858 -3.2826 -1.0558
  680MOL0     H91761  -0.796  11.902   7.704  0.6970  0.8523 -0.0803
  680MOL0     H91762  -0.654  11.877   7.597 -0.5147 -0.7025 -1.2825
  680MOL0     H91763  -0.818  11.872   7.532  1.4150  2.9975 -0.0599
  680MOL0     H91764  -0.297  11.839   7.751 -2.0429 -0.6850  0.9176
  680MOL0     H91765  -0.081  11.878   7.803 -3.3426  0.9416 -1.0265
  680MOL0     H91766   0.152  11.868   7.799  2.0471 -1.2006 -1.0488
  680MOL0     H91767   0.090  11.913   7.960  0.0057 -0.5999 -0.6510
  680MOL0     H91768   0.327  11.948   7.954  1.7424 -0.7334 -2.8202
  680MOL0     H91769   0.310  11.782   8.044  1.6370 -1.9872 -1.0760
  680MOL0     H91770   0.422  11.868   7.776 -2.7928  1.1731  2.3569
  680MOL0     H91771   0.360  11.704   7.790 -1.8237 -0.9282  1.0294
  680MOL0     H91772   0.553  11.824   7.987  0.5548  0.1171 -1.4365
  680MOL0     H91773   0.504  11.648   7.966 -0.3391 -1.1225 -1.4016
  680MOL0     H91774   0.642  11.819   7.764  0.0245 -0.4798  0.9908
  680MOL0     H91775   0.656  11.631   7.768  0.3659 -1.0436  1.5489
  680MOL0     H91776   0.793  11.840   7.932 -1.6754  1.3358 -1.3446
  680MOL0     H91777   0.778  11.669   7.980  0.5290 -1.3898 -1.9260
  680MOL0     H91778   1.001  11.759   7.833  0.8605 -0.7778 -0.4775
  680MOL0     H91779   0.888  11.767   7.708 -0.1475 -1.9827 -1.6426
  680MOL0     H91780   1.024  11.575   7.699 -2.6904  2.5388 -2.4775
  680MOL0     H91781   0.863  11.512   7.726 -1.7250 -1.2079  2.4263
  680MOL0     H91782  -0.048  11.503   8.002 -1.6299  0.6333  1.1661
  680MOL0     H91783  -0.262  11.445   7.899  0.9416  0.3520  1.7827
  680MOL0     H91784  -0.622  11.408   7.768  0.6909  1.8829 -0.0953
  680MOL0     H91785  -0.796  11.304   7.680  1.5697  0.1107  0.8978
  680MOL0     H91786  -0.419  11.466   7.399 -0.3235  2.1769  0.5612
  680MOL0     H91787  -0.195  11.517   7.500 -0.8445  0.4059  0.7438
  680MOL0     H91788   0.267  11.135   7.631 -1.0693  0.8252 -1.1241
  680MOL0     H91789   0.466  11.189   7.700 -2.4773 -0.9052 -1.9128
  680MOL0     H91790   0.598  11.201   7.885  0.4952  0.6897 -0.9861
  680MOL0     H91791   0.716  11.318   7.833  1.6974 -6.0580 -0.4613
  680MOL0     H91792   0.714  11.433   8.035 -0.3948 -0.0302  1.5965
  680MOL0     H91793   0.766  11.266   8.054  2.0843  2.6271  3.8713
  680MOL0     H91794   0.512  11.386   8.153  0.1700 -0.2524  0.2475
  680MOL0     H91795   0.655  11.304   8.233  1.0575  1.2570 -1.3525
  680MOL0     H91796   0.522  11.117   8.244 -0.6255 -0.0302  0.3653
  680MOL0     H91797   0.571  11.098   8.075 -0.2199 -0.7481  1.2339
  680MOL0     H91798   0.175  11.174   8.009 -0.5418 -0.4063  1.2445
  680MOL0     H91799   0.324  11.530   7.919 -0.6900 -2.1534  3.3473
  680MOL0     H91800   0.108  11.481   7.837 -0.4982 -0.4657  0.0071
  681MOL0     O91801   5.935   1.896   3.199  0.2301 -0.8431  0.4318
  681MOL0     C91802   6.031   1.959   3.150  0.6698 -1.0000  0.4829
  681MOL0     O91803   6.062   2.091   3.168  0.5661 -0.5921  0.1197
  681MOL0     C91804   5.976   2.165   3.249 -0.7164 -0.4256 -0.1564
  681MOL0     C91805   5.969   2.144   3.388  0.6519  0.2176 -0.2154
  681MOL0     C91806   5.890   2.220   3.476 -0.8171  0.1693  0.0365
  681MOL0     C91807   5.825   2.329   3.431 -0.0800 -0.1124 -0.1463
  681MOL0     O91808   5.759   2.406   3.525 -0.4033  0.4801  0.6052
  681MOL0     C91809   5.617   2.438   3.489 -0.2899 -0.7229  0.2429
  681MOL0     C91810   5.558   2.505   3.614  0.5790 -0.0138  0.9638
  681MOL0     C91811   5.405   2.508   3.603  0.4678  0.1288 -0.3585
  681MOL0     C91812   5.323   2.382   3.603  0.5838  0.0841 -0.5959
  681MOL0     C91813   5.181   2.393   3.664 -0.3587  0.7676  0.1001
  681MOL0     C91814   5.091   2.468   3.575  0.0150 -0.1862  1.0017
  681MOL0     C91815   4.959   2.491   3.653 -0.5518 -0.6397 -0.1914
  681MOL0     C91816   4.964   2.611   3.749 -0.0759 -0.7289  0.3727
  681MOL0     N91817   4.818   2.639   3.782 -0.5775 -0.9035 -1.0160
  681MOL0     C91818   4.750   2.579   3.878  0.3040 -0.0467 -0.2132
  681MOL0     C91819   4.627   2.643   3.876  0.8628 -0.0581  0.2982
  681MOL0     C91820   4.505   2.608   3.962 -0.6732 -0.0354  0.6284
  681MOL0     C91821   4.545   2.560   4.106 -0.3349  0.4252  0.1758
  681MOL0     C91822   4.654   2.646   4.175 -0.0807  0.0029 -0.2635
  681MOL0     C91823   4.745   2.563   4.273 -0.4644  0.6013 -0.5479
  681MOL0     O91824   4.813   2.454   4.199 -0.3920 -0.1075 -0.4872
  681MOL0     C91825   4.907   2.391   4.277 -0.1753  0.3596  0.6521
  681MOL0     C91826   4.945   2.417   4.410  0.6424 -0.3574  0.2753
  681MOL0     C91827   5.064   2.361   4.468 -0.1951 -0.4225 -0.0806
  681MOL0     C91828   5.078   2.384   4.617 -0.2557  0.4155 -0.2426
  681MOL0     C91829   5.154   2.292   4.386 -0.5301 -0.2914 -0.3107
  681MOL0     C91830   5.284   2.234   4.444 -0.0187 -0.3894  0.2230
  681MOL0     O91831   5.331   2.267   4.568  0.4441  0.7708 -0.1811
  681MOL0     C91832   5.467   2.242   4.587 -0.5629 -1.1145  0.2270
  681MOL0     C91833   5.558   2.307   4.498  0.1322 -0.3540 -0.2886
  681MOL0     C91834   5.702   2.278   4.517  0.4768  0.5652  0.2465
  681MOL0     C91835   5.751   2.195   4.618  0.2540  0.8906 -0.0230
  681MOL0     O91836   5.882   2.173   4.649  0.7124  0.3426 -0.6366
  681MOL0     C91837   5.975   2.208   4.548  0.5831  1.5037  0.1894
  681MOL0     C91838   6.118   2.166   4.588  0.0381  0.4907 -1.0890
  681MOL0     C91839   6.170   2.192   4.734  0.7792  0.5129  1.0072
  681MOL0     C91840   6.178   2.335   4.787  0.5440  0.4500  0.2702
  681MOL0     C91841   6.311   2.405   4.736  0.3802 -0.2111 -0.8674
  681MOL0     C91842   6.423   2.371   4.825 -0.2383  0.5531 -0.2504
  681MOL0     C91843   6.548   2.458   4.792  0.7589  0.9472 -0.5080
  681MOL0     C91844   6.660   2.421   4.888  0.5920  0.2491 -0.4987
  681MOL0    Cl91845   6.817   2.435   4.789 -0.4494 -0.1726  0.1602
  681MOL0     C91846   5.654   2.130   4.695  0.0716 -0.1198  0.7038
  681MOL0     C91847   5.521   2.159   4.687  0.9606 -0.0218  0.0002
  681MOL0     O91848   5.336   2.145   4.380 -0.8027  0.2665  0.6991
  681MOL0     C91849   5.114   2.267   4.260  0.0397  0.5985 -0.6295
  681MOL0     C91850   4.996   2.312   4.210  0.8075  0.7830 -0.8506
  681MOL0     N91851   4.630   2.746   3.789 -0.3315  0.3985  0.7965
  681MOL0     N91852   4.745   2.741   3.733  0.2544 -0.3989  0.7037
  681MOL0     C91853   5.833   2.365   3.289 -0.0877 -0.5459 -0.0587
  681MOL0     C91854   5.906   2.282   3.202 -0.5541 -0.1960 -0.6206
  681MOL0     C91855   6.142   1.882   3.095  0.7302 -0.1508  0.3663
  681MOL0     C91856   6.128   1.760   3.027 -0.4435 -0.3307  0.4089
  681MOL0     C91857   6.235   1.689   2.984 -0.3245 -0.0232  0.3971
  681MOL0     C91858   6.363   1.743   2.993  0.7841  0.9437  0.8862
  681MOL0     O91859   6.455   1.660   2.928  0.2783 -0.4415 -0.2322
  681MOL0     C91860   6.585   1.715   2.904  0.7559  0.1335  0.2974
  681MOL0     C91861   6.682   1.597   2.844  0.5440 -0.3788  0.4986
  681MOL0     C91862   6.641   1.455   2.888 -0.0427  0.9971  0.0252
  681MOL0     C91863   6.759   1.366   2.892  0.6173 -0.3738 -0.1248
  681MOL0     C91864   6.839   1.371   3.015 -0.4374  0.8076 -0.9173
  681MOL0     C91865   6.910   1.407   3.101 -0.5526 -0.3076 -0.4153
  681MOL0     C91866   6.387   1.869   3.051  0.2716 -0.0249 -0.6428
  681MOL0     C91867   6.272   1.941   3.101  0.0238 -0.1783 -0.1981
  681MOL0     H91868   6.027   2.059   3.425  2.5043  0.3136 -2.5925
  681MOL0     H91869   5.891   2.193   3.581 -0.9624 -0.6611 -0.1668
  681MOL0     H91870   5.603   2.496   3.398 -2.4459 -3.0194 -1.0286
  681MOL0     H91871   5.576   2.342   3.455  1.9951 -0.5636 -3.4270
  681MOL0     H91872   5.590   2.438   3.694  1.4190 -0.1316  0.5369
  681MOL0     H91873   5.598   2.605   3.628  0.1360  0.0986  1.4671
  681MOL0     H91874   5.359   2.574   3.677 -0.5245  0.8020 -1.5419
  681MOL0     H91875   5.389   2.561   3.509  1.3051  1.5168  0.2505
  681MOL0     H91876   5.323   2.332   3.506  1.9406  0.6182 -0.9034
  681MOL0     H91877   5.376   2.323   3.679  0.0114 -1.0345 -1.0507
  681MOL0     H91878   5.134   2.295   3.666  0.5662  0.3227  1.2647
  681MOL0     H91879   5.182   2.435   3.766  0.6048  0.0127  0.4091
  681MOL0     H91880   5.136   2.563   3.545 -1.2246  0.5342  1.3144
  681MOL0     H91881   5.070   2.416   3.481 -0.8937  2.1955 -0.2043
  681MOL0     H91882   4.882   2.512   3.578 -0.4688  3.1520  0.5588
  681MOL0     H91883   4.934   2.406   3.716 -1.7024  0.3235  0.7141
  681MOL0     H91884   5.008   2.697   3.697 -0.1071 -1.6114 -1.1793
  681MOL0     H91885   5.039   2.603   3.828 -1.4042 -0.3807  1.7162
  681MOL0     H91886   4.785   2.495   3.937  2.8443  1.1591  0.1665
  681MOL0     H91887   4.438   2.694   3.955 -1.5758 -0.7708 -0.0398
  681MOL0     H91888   4.447   2.527   3.917  1.2550 -0.6850 -0.8198
  681MOL0     H91889   4.567   2.454   4.094 -1.0747  0.4923 -2.4315
  681MOL0     H91890   4.447   2.569   4.155 -0.2730  0.1942  0.3414
  681MOL0     H91891   4.592   2.721   4.226  2.0119  0.6906  1.3989
  681MOL0     H91892   4.715   2.698   4.100 -2.1507  0.8253 -1.4650
  681MOL0     H91893   4.695   2.527   4.364 -0.9258 -1.6461 -1.6106
  681MOL0     H91894   4.816   2.640   4.305  1.7760 -1.3266 -0.6383
  681MOL0     H91895   4.878   2.478   4.470 -0.4026  0.5806 -1.7685
  681MOL0     H91896   4.984   2.425   4.654 -1.5415  0.6597 -3.4665
  681MOL0     H91897   5.095   2.291   4.672 -2.6816  0.3523  0.4962
  681MOL0     H91898   5.149   2.465   4.636  1.4634 -0.7827 -1.2458
  681MOL0     H91899   5.528   2.380   4.424 -0.8135  1.4806  1.8048
  681MOL0     H91900   5.765   2.324   4.442  1.2241 -0.9077 -0.0611
  681MOL0     H91901   5.954   2.153   4.456 -1.7123 -1.4797  2.2961
  681MOL0     H91902   5.950   2.315   4.550  0.7485  1.5352  1.9354
  681MOL0     H91903   6.137   2.061   4.562 -1.2203 -0.1270  0.3435
  681MOL0     H91904   6.185   2.227   4.527 -1.6782 -0.0475 -3.6833
  681MOL0     H91905   6.265   2.138   4.741  0.3953 -0.6015 -1.2548
  681MOL0     H91906   6.101   2.139   4.800 -0.5520  0.5599 -0.2827
  681MOL0     H91907   6.089   2.386   4.748  0.3415  0.9242  1.3116
  681MOL0     H91908   6.172   2.324   4.896 -1.5663  0.8169  0.2406
  681MOL0     H91909   6.315   2.512   4.758  0.0805 -0.5899  1.2782
  681MOL0     H91910   6.323   2.392   4.628  0.6040  0.1447 -0.8868
  681MOL0     H91911   6.397   2.375   4.931 -0.3705 -2.7169 -0.0610
  681MOL0     H91912   6.455   2.271   4.796  0.8007  1.2468 -1.6131
  681MOL0     H91913   6.518   2.563   4.798  1.3508  1.0608  1.0820
  681MOL0     H91914   6.572   2.446   4.686  1.0401  2.5785 -0.6506
  681MOL0     H91915   6.648   2.320   4.929 -0.0152  0.3412 -0.4370
  681MOL0     H91916   6.664   2.498   4.966 -2.7405  1.0667 -0.9907
  681MOL0     H91917   5.693   2.076   4.781  8.0517  0.1739 -1.9117
  681MOL0     H91918   5.452   2.120   4.761 -0.6517  0.2830 -1.3028
  681MOL0     H91919   5.174   2.219   4.183 -0.8305 -2.4753  0.4692
  681MOL0     H91920   4.972   2.281   4.109 -1.2761  0.5549 -0.3508
  681MOL0     H91921   5.810   2.466   3.258 -1.7756 -0.9878 -0.3946
  681MOL0     H91922   5.922   2.312   3.099 -0.7185  2.1822 -0.0197
  681MOL0     H91923   6.029   1.726   3.000 -0.0134  0.3936 -2.3591
  681MOL0     H91924   6.220   1.611   2.910  1.7699  2.1546 -2.5459
  681MOL0     H91925   6.572   1.803   2.840  1.0033  0.5368  0.8030
  681MOL0     H91926   6.630   1.747   2.998 -0.2744  0.0087  0.8518
  681MOL0     H91927   6.783   1.618   2.880  0.1027  0.8356  1.0864
  681MOL0     H91928   6.701   1.597   2.736  0.0102 -0.2434  0.4050
  681MOL0     H91929   6.571   1.419   2.813  1.2880  2.0653 -1.8082
  681MOL0     H91930   6.589   1.462   2.984 -2.9099  0.9977 -1.4379
  681MOL0     H91931   6.817   1.394   2.804  1.3331 -1.9288 -0.1758
  681MOL0     H91932   6.720   1.266   2.874 -0.1587 -0.4955  1.9056
  681MOL0     H91933   6.980   1.455   3.166 -2.0509 -1.4223  2.1489
  681MOL0     H91934   6.485   1.914   3.061  1.5557 -3.0965  2.4110
  681MOL0     H91935   6.290   2.037   3.148 -1.6437  0.6683 -1.1895
  682MOL0     O91936   6.947   8.237   1.274  0.8778  0.2128 -0.4023
  682MOL0     C91937   7.042   8.309   1.276 -0.2017 -0.6964 -0.0703
  682MOL0     O91938   7.043   8.445   1.277 -0.7473  0.1125 -0.2265
  682MOL0     C91939   6.929   8.525   1.267 -0.1054 -0.0204  0.1626
  682MOL0     C91940   6.801   8.483   1.233  0.2041  0.3968  0.3636
  682MOL0     C91941   6.691   8.570   1.255  0.8879 -0.1335 -0.5332
  682MOL0     C91942   6.710   8.706   1.290 -0.2507  0.1809  0.8494
  682MOL0     O91943   6.616   8.810   1.301  0.3588 -0.4801 -0.3903
  682MOL0     C91944   6.473   8.790   1.259 -1.2105  0.8719  0.0415
  682MOL0     C91945   6.394   8.906   1.287  0.0987  0.2453  0.1233
  682MOL0     C91946   6.423   9.012   1.184  1.2589 -1.0811  0.2730
  682MOL0     C91947   6.352   9.146   1.215 -0.3395 -0.3378 -0.9229
  682MOL0     C91948   6.375   9.242   1.100 -0.0375 -0.4390 -0.7433
  682MOL0     C91949   6.503   9.295   1.052 -1.4005 -0.9448  0.6253
  682MOL0     C91950   6.497   9.390   0.929 -0.2881 -0.9974  0.8419
  682MOL0     C91951   6.449   9.533   0.963  0.2331 -0.6239  0.3630
  682MOL0     N91952   6.343   9.583   0.877  0.0632  0.1450 -0.3285
  682MOL0     C91953   6.236   9.679   0.915 -0.0058 -0.3075 -0.2554
  682MOL0     C91954   6.155   9.667   0.804  0.1094 -0.5424 -0.8370
  682MOL0     C91955   6.022   9.745   0.787  0.1699  0.1144  0.4898
  682MOL0     C91956   5.906   9.694   0.703  0.2252  0.0668 -0.7704
  682MOL0     C91957   5.792   9.793   0.664  1.1317 -0.8869  0.0925
  682MOL0     C91958   5.717   9.859   0.774  0.7193 -0.0209 -0.1753
  682MOL0     O91959   5.632   9.965   0.718  0.4294 -0.0318  0.4069
  682MOL0     C91960   5.498   9.961   0.729 -0.2908  0.1220  0.6001
  682MOL0     C91961   5.414   9.912   0.836 -0.7244 -0.2612  0.6243
  682MOL0     C91962   5.269   9.923   0.831  0.9344  0.8882  0.1536
  682MOL0     C91963   5.205   9.895   0.964 -0.4084 -0.7255  0.2223
  682MOL0     C91964   5.212   9.971   0.716 -0.0342  1.1831  0.1890
  682MOL0     C91965   5.064   9.970   0.701 -0.0919 -0.6539 -0.0459
  682MOL0     O91966   5.011  10.053   0.606  0.1396  0.0502  0.2595
  682MOL0     C91967   4.878  10.047   0.588  0.7450  0.5520 -0.1866
  682MOL0     C91968   4.794  10.156   0.622 -0.1349  0.0674  0.4172
  682MOL0     C91969   4.651  10.140   0.640 -0.2684 -0.4687  0.1514
  682MOL0     C91970   4.585  10.021   0.601 -0.7414  0.3527  0.3345
  682MOL0     O91971   4.452  10.014   0.591  0.0945 -0.0902 -0.0721
  682MOL0     C91972   4.379   9.888   0.566  0.7570 -0.1892  0.0313
  682MOL0     C91973   4.398   9.804   0.698 -0.1406 -0.0322 -0.9946
  682MOL0     C91974   4.320   9.883   0.808 -0.3710 -0.3772 -0.5450
  682MOL0     C91975   4.351   9.826   0.955 -0.2676 -0.7377 -0.1672
  682MOL0     C91976   4.431   9.941   1.030  0.4626  0.2263  0.5431
  682MOL0     C91977   4.582   9.938   0.991  0.1533  0.5481  0.1568
  682MOL0     C91978   4.658   9.807   1.024  0.0002  0.4789 -0.1468
  682MOL0     C91979   4.805   9.824   1.014 -0.0281 -0.4572 -0.2065
  682MOL0    Cl91980   4.851   9.934   1.144 -0.1805  0.3780 -0.6489
  682MOL0     C91981   4.669   9.915   0.562 -0.2213  0.4637  0.2042
  682MOL0     C91982   4.812   9.926   0.558  0.2946  0.3682 -0.1704
  682MOL0     O91983   5.002   9.886   0.766 -0.5652 -0.5184 -0.4282
  682MOL0     C91984   5.293  10.010   0.609 -0.6541  0.0657  0.5504
  682MOL0     C91985   5.432  10.010   0.616 -0.5407 -1.2103  0.7923
  682MOL0     N91986   6.209   9.583   0.712 -0.6280 -0.5528  0.2203
  682MOL0     N91987   6.321   9.537   0.751 -0.6643 -0.8492  0.2633
  682MOL0     C91988   6.845   8.741   1.318  1.1109 -0.9227 -1.0756
  682MOL0     C91989   6.947   8.660   1.306 -0.5830 -0.2336  0.1990
  682MOL0     C91990   7.165   8.222   1.283 -0.9848 -0.8555 -0.2025
  682MOL0     C91991   7.181   8.087   1.238 -0.0822  0.4471 -1.0083
  682MOL0     C91992   7.305   8.030   1.224 -0.6475  0.1644 -0.8914
  682MOL0     C91993   7.409   8.090   1.286  0.1313 -0.1487 -0.4921
  682MOL0     O91994   7.533   8.036   1.295 -0.1714 -0.0656  0.5633
  682MOL0     C91995   7.570   7.892   1.270 -0.0131 -1.1336 -0.3934
  682MOL0     C91996   7.711   7.842   1.310  0.1844  0.6809  0.1235
  682MOL0     C91997   7.719   7.861   1.468  0.8778 -0.3106 -0.2688
  682MOL0     C91998   7.854   7.813   1.529 -0.9316 -0.5386 -0.2405
  682MOL0     C91999   7.961   7.917   1.525 -0.3494  0.2570  0.5518
  682MOL0     C92000   8.052   8.000   1.536 -0.3188  0.1421 -0.5510
  682MOL0     C92001   7.396   8.220   1.341 -0.6976  0.2599  0.1222
  682MOL0     C92002   7.279   8.290   1.329  0.9151 -0.0829  0.2541
  682MOL0     H92003   6.768   8.389   1.191  0.4412 -0.3682  1.8422
  682MOL0     H92004   6.592   8.541   1.224  0.5433 -0.2836  0.6442
  682MOL0     H92005   6.478   8.766   1.152 -0.6664  2.1708 -0.2497
  682MOL0     H92006   6.438   8.705   1.317  3.7914 -1.5178  0.0593
  682MOL0     H92007   6.289   8.874   1.282  0.2945 -0.6264  1.2132
  682MOL0     H92008   6.413   8.943   1.388 -0.1688 -0.0271  0.2732
  682MOL0     H92009   6.529   9.037   1.179  0.9041  0.2594 -1.4422
  682MOL0     H92010   6.392   8.985   1.083 -1.6125 -1.1691  1.0859
  682MOL0     H92011   6.243   9.138   1.213 -0.1894 -3.9069 -1.4341
  682MOL0     H92012   6.372   9.178   1.318 -2.3276  1.4946 -1.0455
  682MOL0     H92013   6.331   9.194   1.013 -1.3393 -1.0035  0.2129
  682MOL0     H92014   6.314   9.330   1.122  3.5482  2.1821 -0.3648
  682MOL0     H92015   6.545   9.348   1.138 -3.1092 -2.0506  2.1888
  682MOL0     H92016   6.559   9.209   1.014  1.4093  1.6364 -1.6026
  682MOL0     H92017   6.593   9.412   0.882 -2.0249  1.5791 -1.9294
  682MOL0     H92018   6.432   9.351   0.850  0.9752  0.7722 -1.1955
  682MOL0     H92019   6.530   9.606   0.959 -0.6040  0.3087  0.1567
  682MOL0     H92020   6.424   9.531   1.070  1.8592  0.1408  0.7823
  682MOL0     H92021   6.221   9.720   1.015 -1.6870 -2.9921  0.6893
  682MOL0     H92022   5.987   9.758   0.890 -0.8643 -1.5195  0.3974
  682MOL0     H92023   6.054   9.840   0.745 -1.2728 -0.0917 -1.2407
  682MOL0     H92024   5.872   9.613   0.768  1.6164  0.7768  0.9069
  682MOL0     H92025   5.927   9.649   0.606 -1.4166  0.9048 -1.5592
  682MOL0     H92026   5.719   9.738   0.604  0.2961  1.1487 -0.8731
  682MOL0     H92027   5.842   9.868   0.602  0.3303 -0.3111  0.1232
  682MOL0     H92028   5.780   9.896   0.855 -1.9184  0.3524  1.8593
  682MOL0     H92029   5.653   9.783   0.820  2.1256  0.2674  2.4657
  682MOL0     H92030   5.468   9.865   0.917 -0.6473 -2.4990 -0.6451
  682MOL0     H92031   5.147   9.802   0.959 -0.2646 -0.8128  0.2065
  682MOL0     H92032   5.284   9.896   1.039  1.1717  0.1031 -1.3795
  682MOL0     H92033   5.147   9.981   0.997  0.6655 -0.6511  2.0073
  682MOL0     H92034   4.838  10.241   0.673 -0.9854  0.4942  0.4660
  682MOL0     H92035   4.605  10.224   0.691 -0.8146 -1.2877  1.0615
  682MOL0     H92036   4.275   9.905   0.537 -0.1341 -3.9146  0.5451
  682MOL0     H92037   4.418   9.825   0.485 -1.1052 -1.1564 -0.1814
  682MOL0     H92038   4.348   9.709   0.677 -1.6423  0.9527 -2.0760
  682MOL0     H92039   4.502   9.786   0.728 -0.4583 -4.8898 -2.0594
  682MOL0     H92040   4.215   9.872   0.781 -0.3861  2.2764 -1.8067
  682MOL0     H92041   4.344   9.989   0.809 -3.7170  0.4910 -0.2014
  682MOL0     H92042   4.261   9.807   1.014 -0.6968 -0.9243 -0.8641
  682MOL0     H92043   4.406   9.731   0.958 -0.8206 -1.0699  3.3875
  682MOL0     H92044   4.415   9.919   1.136 -0.1453 -1.1441  0.1972
  682MOL0     H92045   4.393  10.040   1.007  2.4354  0.1201 -4.3387
  682MOL0     H92046   4.590   9.953   0.883  1.5765 -0.6480  0.0581
  682MOL0     H92047   4.623  10.025   1.043  1.9359  0.1592 -0.5433
  682MOL0     H92048   4.620   9.728   0.957  3.4564 -1.2367 -0.2954
  682MOL0     H92049   4.641   9.783   1.129  0.4309  1.9727  0.2802
  682MOL0     H92050   4.835   9.877   0.923  0.9373 -3.0477 -1.5078
  682MOL0     H92051   4.865   9.732   1.020  1.2244  0.0526 -3.0542
  682MOL0     H92052   4.619   9.820   0.546 -0.1244  0.2233  1.2266
  682MOL0     H92053   4.862   9.833   0.534 -0.6649  0.0470 -0.9670
  682MOL0     H92054   5.237  10.037   0.520 -0.3077  1.0180  0.6096
  682MOL0     H92055   5.489  10.032   0.526  0.0107 -0.8339  1.2296
  682MOL0     H92056   6.868   8.844   1.342 -1.2965 -0.8608  1.4740
  682MOL0     H92057   7.043   8.707   1.323  1.0108 -2.4319 -1.9535
  682MOL0     H92058   7.096   8.027   1.205  0.6198  0.1820 -2.4427
  682MOL0     H92059   7.300   7.928   1.187 -2.2850 -0.7647  1.6541
  682MOL0     H92060   7.500   7.824   1.320 -0.2988 -1.6359 -1.4405
  682MOL0     H92061   7.575   7.876   1.162  0.5379 -2.9961 -0.1314
  682MOL0     H92062   7.784   7.903   1.255 -2.0423  1.3612 -2.2852
  682MOL0     H92063   7.715   7.736   1.282 -5.8869  0.6350 -1.9115
  682MOL0     H92064   7.639   7.810   1.521  0.3822 -0.8420 -1.4912
  682MOL0     H92065   7.708   7.967   1.494 -0.5186 -0.6018  0.3756
  682MOL0     H92066   7.899   7.731   1.471 -2.1422  1.3856 -4.3214
  682MOL0     H92067   7.848   7.786   1.634  0.0561 -0.7811 -0.2309
  682MOL0     H92068   8.127   8.077   1.544 -0.9311  0.7774 -0.8338
  682MOL0     H92069   7.476   8.265   1.399 -0.9366 -0.3170  0.9163
  682MOL0     H92070   7.266   8.396   1.352 -2.7779  0.6024 -3.6824
  683MOL0     O92071   5.149   1.221   0.063 -0.5422  0.3465  0.0751
  683MOL0     C92072   5.091   1.319   0.019  0.6278  0.1110  0.3312
  683MOL0     O92073   5.119   1.449   0.044 -0.5714 -0.2598 -0.2636
  683MOL0     C92074   5.241   1.472   0.103 -0.3969 -0.3764 -0.1722
  683MOL0     C92075   5.273   1.467   0.245  0.4606 -0.2627 -0.7334
  683MOL0     C92076   5.406   1.503   0.288  0.2299  0.3243 -0.4089
  683MOL0     C92077   5.506   1.547   0.201  0.9785  1.0311  0.6235
  683MOL0     O92078   5.629   1.583   0.232 -0.7524 -0.3917  0.2441
  683MOL0     C92079   5.651   1.664   0.343  0.5032 -0.0857  0.0719
  683MOL0     C92080   5.612   1.816   0.309 -0.1895 -0.2453  0.0349
  683MOL0     C92081   5.506   1.876   0.405  0.0543  0.5968  0.0389
  683MOL0     C92082   5.361   1.843   0.380 -0.3347  1.3472 -0.8351
  683MOL0     C92083   5.286   1.843   0.515  0.4232  0.1984 -0.2837
  683MOL0     C92084   5.150   1.777   0.504 -0.5471 -0.1537  0.7960
  683MOL0     C92085   5.093   1.733   0.640  1.1926 -0.3987  0.5916
  683MOL0     C92086   4.966   1.649   0.623  0.6967 -0.5347 -0.8208
  683MOL0     N92087   4.917   1.558   0.734 -0.5373  1.1134  0.3638
  683MOL0     C92088   4.827   1.447   0.731  0.5788 -0.3770 -0.3448
  683MOL0     C92089   4.840   1.378   0.851 -0.3207  0.4396  0.6810
  683MOL0     C92090   4.765   1.255   0.884 -0.5327 -0.3553  0.2238
  683MOL0     C92091   4.614   1.280   0.852 -0.0525  0.7859 -0.6368
  683MOL0     C92092   4.531   1.179   0.926 -0.3418  0.2462  0.4970
  683MOL0     C92093   4.387   1.223   0.937 -1.0447  0.3482 -0.4305
  683MOL0     O92094   4.314   1.186   0.824 -0.6494 -0.1865 -0.1259
  683MOL0     C92095   4.183   1.237   0.806 -1.4082  0.2938  1.1506
  683MOL0     C92096   4.114   1.300   0.909  1.0050  0.6338 -0.2688
  683MOL0     C92097   3.982   1.357   0.893 -0.9267 -0.8080  0.6147
  683MOL0     C92098   3.918   1.394   1.024 -0.0765  0.0107  0.4126
  683MOL0     C92099   3.926   1.354   0.760  0.3057  0.1917 -0.1660
  683MOL0     C92100   3.796   1.417   0.728 -0.0434  0.1807 -0.1152
  683MOL0     O92101   3.752   1.399   0.598 -0.2925 -0.4771 -0.3817
  683MOL0     C92102   3.663   1.484   0.544  0.2952 -0.2186 -1.0452
  683MOL0     C92103   3.674   1.623   0.538 -0.3135  0.1985 -0.4073
  683MOL0     C92104   3.587   1.697   0.471  0.0900 -0.3702  0.1940
  683MOL0     C92105   3.472   1.636   0.399 -0.2474  0.2320 -0.1617
  683MOL0     O92106   3.395   1.716   0.330 -0.1341  0.6929  0.4612
  683MOL0     C92107   3.258   1.710   0.361  0.5739  0.7712 -0.3553
  683MOL0     C92108   3.218   1.759   0.497 -0.5929 -0.1179 -0.6675
  683MOL0     C92109   3.089   1.845   0.495 -0.4736 -0.1979 -0.3402
  683MOL0     C92110   2.959   1.768   0.472  0.2262  0.5224  0.6354
  683MOL0     C92111   2.847   1.857   0.445  0.1447 -0.6123  0.3379
  683MOL0     C92112   2.816   1.923   0.580  0.7911 -0.1804 -1.1153
  683MOL0     C92113   2.712   2.036   0.557  0.0171 -0.4149 -0.3084
  683MOL0     C92114   2.584   1.982   0.495  0.5157  0.2516 -0.3513
  683MOL0    Cl92115   2.504   1.859   0.597  0.0738  0.2075  0.6459
  683MOL0     C92116   3.451   1.505   0.424  0.6948  0.0812 -0.3016
  683MOL0     C92117   3.553   1.421   0.483  0.9125 -0.6237  0.4242
  683MOL0     O92118   3.747   1.504   0.800 -1.0391 -0.3739  0.8633
  683MOL0     C92119   4.002   1.293   0.659  0.3335 -0.0526 -0.3552
  683MOL0     C92120   4.126   1.239   0.675  0.1378 -0.3418 -0.1385
  683MOL0     N92121   4.939   1.449   0.924  0.3566  0.2974  0.5672
  683MOL0     N92122   4.972   1.555   0.859 -0.6912  0.5008  0.0888
  683MOL0     C92123   5.466   1.537   0.058 -0.2028  0.2140  0.1612
  683MOL0     C92124   5.342   1.509   0.017  0.0989 -0.0052 -0.4704
  683MOL0     C92125   4.968   1.301  -0.059  0.7969  0.4864  0.5575
  683MOL0     C92126   4.922   1.410  -0.132  0.6346 -0.6886 -0.6629
  683MOL0     C92127   4.807   1.409  -0.213 -0.3333  0.7300 -0.4434
  683MOL0     C92128   4.723   1.290  -0.209 -0.5702 -0.4345  0.0791
  683MOL0     O92129   4.604   1.277  -0.284  0.3132 -0.3008  0.5119
  683MOL0     C92130   4.550   1.382  -0.360  0.3108 -0.0658  0.5966
  683MOL0     C92131   4.612   1.405  -0.498 -0.8317 -0.1511 -0.1876
  683MOL0     C92132   4.616   1.285  -0.587  1.3687  0.1727  0.0425
  683MOL0     C92133   4.664   1.306  -0.730 -0.8290  0.7361  0.0919
  683MOL0     C92134   4.657   1.178  -0.800 -0.4235 -0.7714 -0.6989
  683MOL0     C92135   4.641   1.067  -0.855 -0.0188  0.0013 -0.4639
  683MOL0     C92136   4.764   1.180  -0.135 -0.2664 -0.0749  0.2599
  683MOL0     C92137   4.889   1.181  -0.058 -0.9032  0.1564 -0.6934
  683MOL0     H92138   5.210   1.450   0.332  3.8939 -3.2835  1.4438
  683MOL0     H92139   5.403   1.518   0.396 -0.9896  1.3903 -0.5699
  683MOL0     H92140   5.594   1.622   0.426  1.8357 -2.5289 -0.1489
  683MOL0     H92141   5.757   1.653   0.369  0.6876  1.3717  0.0277
  683MOL0     H92142   5.700   1.880   0.303 -0.2121 -0.2078  0.1078
  683MOL0     H92143   5.571   1.816   0.207  0.5844 -1.9876 -0.3088
  683MOL0     H92144   5.535   1.844   0.505 -0.0389  1.6393  0.4159
  683MOL0     H92145   5.516   1.985   0.404  1.1776  0.5140  0.8166
  683MOL0     H92146   5.310   1.909   0.311 -2.0471 -1.3261 -2.3070
  683MOL0     H92147   5.369   1.744   0.333 -1.0414  0.2196  1.2724
  683MOL0     H92148   5.347   1.793   0.591 -0.1236  0.4705  0.3469
  683MOL0     H92149   5.264   1.949   0.531  0.1112  1.1982 -5.4975
  683MOL0     H92150   5.082   1.843   0.450  0.8194 -0.7978 -1.8896
  683MOL0     H92151   5.152   1.690   0.438  2.9347  1.0398 -0.9182
  683MOL0     H92152   5.167   1.663   0.680 -1.2395 -3.1581  0.6551
  683MOL0     H92153   5.070   1.812   0.712  0.0818  2.0272 -2.2367
  683MOL0     H92154   4.981   1.584   0.536  1.2496  0.1302 -1.2340
  683MOL0     H92155   4.885   1.721   0.603 -0.9818 -2.6067 -1.9205
  683MOL0     H92156   4.762   1.429   0.646  2.6785 -1.4050 -1.7960
  683MOL0     H92157   4.811   1.166   0.838 -1.4374  0.0820 -1.6148
  683MOL0     H92158   4.774   1.240   0.992  1.9071 -0.3033  0.0805
  683MOL0     H92159   4.588   1.281   0.746 -1.5541  2.1316 -0.2926
  683MOL0     H92160   4.593   1.381   0.889  0.3085 -0.2892  2.8938
  683MOL0     H92161   4.572   1.166   1.027 -1.6325  0.6603  1.0895
  683MOL0     H92162   4.544   1.084   0.873  2.2451  1.8443 -2.0266
  683MOL0     H92163   4.392   1.331   0.955 -2.3980  0.3795 -0.1230
  683MOL0     H92164   4.353   1.157   1.018 -0.5316 -1.7659 -1.8474
  683MOL0     H92165   4.142   1.310   1.014  0.7721 -1.9261  0.1023
  683MOL0     H92166   3.961   1.356   1.117  0.8344 -0.4007 -0.1600
  683MOL0     H92167   3.908   1.503   1.029  0.3631  0.0011  3.1098
  683MOL0     H92168   3.815   1.357   1.019  0.5150 -1.7143  0.1867
  683MOL0     H92169   3.758   1.665   0.593 -1.1043  0.8955  0.3063
  683MOL0     H92170   3.615   1.802   0.464 -1.2475 -0.0909 -1.5204
  683MOL0     H92171   3.206   1.775   0.290  2.9428  0.1225 -2.8753
  683MOL0     H92172   3.218   1.608   0.361  1.5595  0.2370  3.2372
  683MOL0     H92173   3.219   1.681   0.573  1.6589  0.9778  0.5162
  683MOL0     H92174   3.298   1.826   0.528  1.3027 -1.1573 -2.9477
  683MOL0     H92175   3.096   1.921   0.417 -1.8875  0.0974 -0.2088
  683MOL0     H92176   3.085   1.906   0.585  0.6064  3.7650 -2.7196
  683MOL0     H92177   2.980   1.696   0.393 -0.1087 -0.0064  1.0191
  683MOL0     H92178   2.924   1.703   0.553 -0.2606  1.0064  0.8240
  683MOL0     H92179   2.753   1.811   0.412 -1.8525  1.3480  2.8666
  683MOL0     H92180   2.876   1.934   0.373  0.2848 -0.6629  0.3404
  683MOL0     H92181   2.775   1.861   0.660  0.1799  3.5768  1.7740
  683MOL0     H92182   2.897   1.974   0.633  0.3549 -1.1305  0.5288
  683MOL0     H92183   2.742   2.124   0.500  0.9789 -0.4830  0.0687
  683MOL0     H92184   2.673   2.058   0.657 -0.4190 -1.5126 -0.2185
  683MOL0     H92185   2.595   1.939   0.395  1.2597 -2.8707  0.9528
  683MOL0     H92186   2.514   2.066   0.495 -1.1075 -1.0264  1.1541
  683MOL0     H92187   3.358   1.462   0.387 -0.9448  0.9288  2.5152
  683MOL0     H92188   3.541   1.313   0.491  0.6897 -0.5942  0.4835
  683MOL0     H92189   3.964   1.299   0.558  0.4677  0.4604 -0.3786
  683MOL0     H92190   4.188   1.200   0.595  2.2866 -0.6378  1.5633
  683MOL0     H92191   5.547   1.548  -0.014 -2.7792  3.5500 -2.5988
  683MOL0     H92192   5.315   1.522  -0.087 -0.0644  0.4659 -0.3734
  683MOL0     H92193   4.977   1.503  -0.134 -0.7628  0.1652 -0.5661
  683MOL0     H92194   4.774   1.487  -0.280  0.7493 -0.1557 -2.0818
  683MOL0     H92195   4.442   1.362  -0.368  0.7947 -2.5566 -0.8059
  683MOL0     H92196   4.555   1.476  -0.305 -2.2115  0.7426 -0.3783
  683MOL0     H92197   4.716   1.433  -0.480  0.0834 -1.6302 -2.6394
  683MOL0     H92198   4.559   1.490  -0.543  0.7940 -0.5997 -3.2346
  683MOL0     H92199   4.516   1.240  -0.589  1.1086  0.7707 -1.6819
  683MOL0     H92200   4.679   1.205  -0.547 -1.8937 -2.1108  1.0352
  683MOL0     H92201   4.773   1.318  -0.730 -0.6785 -0.3873 -1.3930
  683MOL0     H92202   4.617   1.390  -0.782 -1.0150  0.0826 -0.8137
  683MOL0     H92203   4.633   0.963  -0.876  0.9187  0.3995 -3.1921
  683MOL0     H92204   4.703   1.090  -0.132 -4.6880  2.6093  3.3507
  683MOL0     H92205   4.933   1.101  -0.000 -2.0884  0.3583  0.5480
  684MOL0     O92206   3.845   4.908   6.830  0.0825  0.1556  0.1186
  684MOL0     C92207   3.929   4.943   6.919  1.0190  0.1177  0.4384
  684MOL0     O92208   4.056   4.951   6.899  0.5293 -0.3814 -0.5219
  684MOL0     C92209   4.106   4.959   6.770 -0.2211 -0.8276 -0.7180
  684MOL0     C92210   4.169   4.855   6.719  1.1997 -0.7113 -0.8531
  684MOL0     C92211   4.230   4.853   6.593  0.6431 -0.2415  0.2236
  684MOL0     C92212   4.224   4.967   6.510 -1.0509  0.0193 -0.0941
  684MOL0     O92213   4.287   4.962   6.394 -0.8326 -0.1306  0.1394
  684MOL0     C92214   4.263   4.852   6.310  0.4688  0.0841 -0.2533
  684MOL0     C92215   4.261   4.900   6.163  0.8383 -0.2815  0.3743
  684MOL0     C92216   4.380   4.987   6.119  0.8587  0.3573 -0.9272
  684MOL0     C92217   4.493   4.891   6.075 -0.5429  0.0767  0.2147
  684MOL0     C92218   4.612   4.979   6.036 -0.3777 -0.0641 -0.6834
  684MOL0     C92219   4.729   4.897   5.969  1.1477  0.6564  0.3743
  684MOL0     C92220   4.686   4.844   5.828  0.2215  0.5613  0.2538
  684MOL0     C92221   4.785   4.775   5.739  0.0312  0.7408  0.0763
  684MOL0     N92222   4.903   4.847   5.700 -1.1213 -0.7092  0.7656
  684MOL0     C92223   4.985   4.808   5.597  0.9260  0.3934  0.3734
  684MOL0     C92224   5.036   4.921   5.556 -0.4953 -1.1563  0.5855
  684MOL0     C92225   5.135   4.936   5.439  0.6698 -0.5725  0.7480
  684MOL0     C92226   5.255   5.035   5.441 -0.7223 -0.6556  0.2271
  684MOL0     C92227   5.216   5.186   5.463  0.9341  0.1519  0.3035
  684MOL0     C92228   5.338   5.281   5.449 -0.8475 -0.9078  0.0648
  684MOL0     O92229   5.416   5.264   5.567 -0.2233 -1.0435  0.3762
  684MOL0     C92230   5.541   5.315   5.572 -0.5154  0.1883  0.5410
  684MOL0     C92231   5.600   5.406   5.485 -0.0470 -0.0993 -0.5814
  684MOL0     C92232   5.734   5.449   5.491 -0.7936 -0.5253 -0.0142
  684MOL0     C92233   5.792   5.521   5.372  0.1327 -0.4148  0.8372
  684MOL0     C92234   5.811   5.410   5.601  1.4473  0.5052  0.1046
  684MOL0     C92235   5.956   5.432   5.627 -0.3049  0.8095 -0.0315
  684MOL0     O92236   6.013   5.315   5.681  0.0500 -0.6793 -0.4569
  684MOL0     C92237   6.147   5.332   5.717 -0.6531  0.9168  0.0266
  684MOL0     C92238   6.252   5.366   5.624  0.2629 -0.3602  0.7146
  684MOL0     C92239   6.390   5.374   5.673  0.0965  0.0567  0.1421
  684MOL0     C92240   6.413   5.377   5.817 -1.0625 -0.4837 -0.0647
  684MOL0     O92241   6.526   5.419   5.873 -0.5437 -0.0224  0.2661
  684MOL0     C92242   6.637   5.376   5.798  0.7621 -0.1958 -0.0665
  684MOL0     C92243   6.760   5.370   5.907 -0.4732  0.3925 -0.0393
  684MOL0     C92244   6.796   5.507   5.962 -0.3829  0.2725  1.0489
  684MOL0     C92245   6.828   5.502   6.118  0.1811  0.0166 -0.5682
  684MOL0     C92246   6.870   5.644   6.164  0.7643  0.4772 -0.1073
  684MOL0     C92247   6.889   5.641   6.315 -0.3445 -0.0991  0.8542
  684MOL0     C92248   6.950   5.768   6.375  0.1357  0.1060 -0.0111
  684MOL0     C92249   6.865   5.890   6.374 -0.1523  0.4362  0.9928
  684MOL0    Cl92250   6.699   5.864   6.444  0.2030  0.0924  0.4382
  684MOL0     C92251   6.310   5.353   5.900  0.1308 -0.0707  0.4395
  684MOL0     C92252   6.190   5.302   5.853  0.2298 -0.4499  0.7278
  684MOL0     O92253   6.024   5.528   5.594  0.4441 -0.1745  0.2599
  684MOL0     C92254   5.739   5.328   5.694  0.5889 -0.0650  0.8897
  684MOL0     C92255   5.612   5.284   5.681  0.6008 -0.3443  0.1747
  684MOL0     N92256   4.980   5.026   5.613 -0.3157 -0.2485  0.9206
  684MOL0     N92257   4.912   4.985   5.707  0.3441  0.1041 -0.0255
  684MOL0     C92258   4.163   5.075   6.563 -0.1941 -0.6379 -0.5778
  684MOL0     C92259   4.102   5.073   6.685 -0.5396  0.4005 -0.7175
  684MOL0     C92260   3.884   4.967   7.057 -0.4691  0.1096 -0.8337
  684MOL0     C92261   3.743   4.969   7.088  0.3419 -0.1727  1.1150
  684MOL0     C92262   3.705   4.965   7.219 -0.2036  0.1933 -0.1492
  684MOL0     C92263   3.790   4.969   7.326 -0.0862  0.0624 -0.5457
  684MOL0     O92264   3.739   4.983   7.449 -0.4762 -0.2011 -0.2529
  684MOL0     C92265   3.788   5.087   7.534  0.1049 -0.2455 -0.1467
  684MOL0     C92266   3.670   5.191   7.552 -0.7941 -0.4751  0.6080
  684MOL0     C92267   3.545   5.127   7.609  0.4905 -0.1690 -0.3053
  684MOL0     C92268   3.426   5.229   7.636 -0.0951  0.3492  0.9707
  684MOL0     C92269   3.352   5.164   7.744 -1.6484  0.3392 -1.1678
  684MOL0     C92270   3.285   5.097   7.826  0.0359 -0.5248 -0.0146
  684MOL0     C92271   3.926   4.972   7.302  0.0980 -0.6891  1.4551
  684MOL0     C92272   3.972   4.973   7.164 -0.2565  0.1443 -0.1922
  684MOL0     H92273   4.186   4.763   6.773 -2.8641 -0.7753  0.6076
  684MOL0     H92274   4.274   4.764   6.549 -1.7623 -1.2131 -0.3359
  684MOL0     H92275   4.344   4.780   6.324 -1.1591 -1.7633  0.2130
  684MOL0     H92276   4.170   4.796   6.324  0.9134 -0.7466 -0.5363
  684MOL0     H92277   4.255   4.809   6.103 -0.2878  0.4457 -0.6592
  684MOL0     H92278   4.166   4.954   6.153  2.5576  2.5974 -2.4769
  684MOL0     H92279   4.340   5.044   6.034 -2.6001  1.1304  1.0070
  684MOL0     H92280   4.404   5.056   6.200 -1.9853 -2.5984  2.8199
  684MOL0     H92281   4.517   4.826   6.160 -3.9497 -1.5109  0.1186
  684MOL0     H92282   4.459   4.830   5.991 -4.3058  3.4365 -1.0101
  684MOL0     H92283   4.583   5.057   5.964 -0.9943 -0.2279 -0.6127
  684MOL0     H92284   4.652   5.020   6.129 -0.4024 -0.8426 -0.3284
  684MOL0     H92285   4.813   4.966   5.959  0.6083  1.4233  0.9792
  684MOL0     H92286   4.771   4.811   6.023 -0.6399 -1.6557 -1.6457
  684MOL0     H92287   4.601   4.775   5.833  0.3933  0.4265  2.1011
  684MOL0     H92288   4.655   4.933   5.773  0.0056  0.9824  1.0311
  684MOL0     H92289   4.740   4.730   5.650  1.5227 -2.7624  0.8986
  684MOL0     H92290   4.826   4.697   5.804 -1.4148  0.3114  0.5189
  684MOL0     H92291   5.022   4.713   5.561  1.7492  1.0769 -0.6591
  684MOL0     H92292   5.173   4.835   5.421 -4.4016 -2.6250 -0.3561
  684MOL0     H92293   5.073   4.954   5.350 -0.0948 -1.6012  1.0530
  684MOL0     H92294   5.305   5.024   5.344  0.9789 -1.9449  1.1951
  684MOL0     H92295   5.325   5.001   5.517 -3.0678 -1.5705  2.1321
  684MOL0     H92296   5.176   5.184   5.565 -0.3150  1.0932 -0.1425
  684MOL0     H92297   5.138   5.220   5.395  0.0425  0.1398  1.2934
  684MOL0     H92298   5.306   5.385   5.440  1.0600 -0.3130 -0.1491
  684MOL0     H92299   5.391   5.262   5.355 -0.2943 -1.4658  0.4823
  684MOL0     H92300   5.543   5.419   5.393 -2.7217 -3.0617  0.4979
  684MOL0     H92301   5.877   5.583   5.400  1.3697 -1.2462 -0.8564
  684MOL0     H92302   5.828   5.451   5.296  3.3327  0.9145  0.9774
  684MOL0     H92303   5.716   5.584   5.326 -1.2112 -1.2227  1.8659
  684MOL0     H92304   6.229   5.402   5.525  1.0841  1.2063  1.0663
  684MOL0     H92305   6.471   5.406   5.608  2.1782 -1.8422  1.6605
  684MOL0     H92306   6.619   5.276   5.757 -2.5715  0.7445 -1.1343
  684MOL0     H92307   6.651   5.454   5.723 -0.2314 -1.8781 -2.1044
  684MOL0     H92308   6.727   5.312   5.993 -2.8697  2.4829  0.5507
  684MOL0     H92309   6.844   5.316   5.861  0.1609  2.0356 -0.9119
  684MOL0     H92310   6.714   5.579   5.953 -1.6911 -1.0802  1.8482
  684MOL0     H92311   6.878   5.552   5.905 -2.1646 -0.0742 -1.9884
  684MOL0     H92312   6.743   5.465   6.176  0.3583 -2.7072 -1.8748
  684MOL0     H92313   6.917   5.443   6.143  1.8664  2.5562 -0.2212
  684MOL0     H92314   6.787   5.714   6.150 -1.0348 -0.5568  3.9164
  684MOL0     H92315   6.962   5.673   6.113  0.5678 -0.9288 -1.3360
  684MOL0     H92316   6.790   5.625   6.359 -0.2836 -4.0129 -0.0842
  684MOL0     H92317   6.948   5.554   6.345 -0.2915  0.5485  2.7716
  684MOL0     H92318   7.046   5.783   6.325  0.3898 -1.4829 -0.0396
  684MOL0     H92319   6.977   5.737   6.476  4.5528 -2.2679 -1.6026
  684MOL0     H92320   6.856   5.918   6.268 -0.0181  0.3456  0.9580
  684MOL0     H92321   6.908   5.977   6.425 -0.5066  0.4362  1.2910
  684MOL0     H92322   6.326   5.368   6.007 -0.6541 -2.6263  0.9825
  684MOL0     H92323   6.113   5.263   5.919 -1.5841  1.5781 -0.0693
  684MOL0     H92324   5.793   5.296   5.783  1.3576  0.6674  0.7013
  684MOL0     H92325   5.567   5.214   5.751 -3.7248  1.5575 -0.3502
  684MOL0     H92326   4.180   5.163   6.501  2.4467  0.1851  1.1354
  684MOL0     H92327   4.053   5.156   6.735 -0.8078 -0.6619  0.8549
  684MOL0     H92328   3.677   4.950   7.004 -0.7186  1.5445  1.5111
  684MOL0     H92329   3.597   4.968   7.224 -0.3676 -1.4775 -1.6706
  684MOL0     H92330   3.827   5.037   7.623 -0.8263  0.8953  0.9446
  684MOL0     H92331   3.881   5.135   7.501  1.7724  0.4496  4.7957
  684MOL0     H92332   3.636   5.240   7.460 -2.4663 -1.8526  0.4606
  684MOL0     H92333   3.707   5.257   7.630  0.2594 -0.3215  0.0049
  684MOL0     H92334   3.582   5.083   7.702  3.5521  3.7406  0.5859
  684MOL0     H92335   3.510   5.042   7.550  5.1181  0.2539 -4.3468
  684MOL0     H92336   3.346   5.227   7.562  0.7751 -1.3072  0.0173
  684MOL0     H92337   3.455   5.331   7.661  0.0582  0.8236 -0.9791
  684MOL0     H92338   3.227   5.046   7.900  1.1620 -4.9562 -1.9025
  684MOL0     H92339   4.002   4.976   7.380 -0.0172 -1.3620  1.6076
  684MOL0     H92340   4.080   4.974   7.151 -0.4772 -2.9232 -4.1142
  685MOL0     O92341   3.036   1.697   1.744 -0.4384 -0.1486 -0.4297
  685MOL0     C92342   2.964   1.727   1.842  0.3888  1.2251 -1.0352
  685MOL0     O92343   2.997   1.812   1.951 -0.6876  0.0816  0.3267
  685MOL0     C92344   3.125   1.872   1.954 -0.2067  0.5622  0.2898
  685MOL0     C92345   3.243   1.808   1.906 -1.4361 -0.8799  1.0012
  685MOL0     C92346   3.372   1.869   1.910  0.4436 -0.0330 -0.5042
  685MOL0     C92347   3.381   1.993   1.964 -0.7247 -0.6318  0.4477
  685MOL0     O92348   3.506   2.053   1.953  0.1428  0.4897 -0.4170
  685MOL0     C92349   3.499   2.196   1.955 -0.2965  0.0848  0.4168
  685MOL0     C92350   3.637   2.240   1.905  0.6177 -0.7351 -0.0753
  685MOL0     C92351   3.656   2.391   1.876  0.3839  0.3388 -0.4843
  685MOL0     C92352   3.800   2.419   1.830  0.4748 -0.5158  0.4796
  685MOL0     C92353   3.823   2.570   1.802  0.5426  0.0056  0.1919
  685MOL0     C92354   3.974   2.583   1.770  0.4505  1.1740  0.5737
  685MOL0     C92355   4.051   2.596   1.901  0.4331  0.0829 -0.3348
  685MOL0     C92356   4.198   2.600   1.885 -1.7919 -0.4880  0.2260
  685MOL0     N92357   4.258   2.604   2.018 -0.1679  0.3052  0.7174
  685MOL0     C92358   4.288   2.717   2.094 -0.5862  0.1052  1.0997
  685MOL0     C92359   4.311   2.667   2.224  1.0610  0.8172 -0.7356
  685MOL0     C92360   4.341   2.744   2.349  0.5166 -0.5272 -0.0065
  685MOL0     C92361   4.489   2.774   2.349 -0.6845  0.0494  0.3867
  685MOL0     C92362   4.580   2.662   2.391 -0.7303 -0.0256 -0.0535
  685MOL0     C92363   4.726   2.693   2.420  0.1319 -0.5244  0.0090
  685MOL0     O92364   4.778   2.768   2.319  0.8050  0.0690  1.5035
  685MOL0     C92365   4.909   2.799   2.314 -0.1922 -0.9719 -0.5164
  685MOL0     C92366   5.009   2.750   2.394  0.4620 -0.3691 -0.1373
  685MOL0     C92367   5.143   2.788   2.395  0.5380 -0.3758 -0.5526
  685MOL0     C92368   5.235   2.697   2.468  0.4402  0.0752 -0.4864
  685MOL0     C92369   5.181   2.887   2.302 -0.0494  0.5985 -0.5928
  685MOL0     C92370   5.324   2.935   2.276 -0.2766 -0.1910  0.0299
  685MOL0     O92371   5.420   2.894   2.370 -0.0322 -0.0631  0.9186
  685MOL0     C92372   5.553   2.923   2.364 -0.8645 -0.1572 -0.3283
  685MOL0     C92373   5.642   2.856   2.446 -0.0751 -0.5436 -0.6023
  685MOL0     C92374   5.780   2.882   2.459 -0.1006 -0.5391 -0.2786
  685MOL0     C92375   5.834   2.986   2.388  0.6282  0.0268 -0.6857
  685MOL0     O92376   5.964   3.020   2.404 -0.0709  0.8613 -0.6754
  685MOL0     C92377   6.025   3.089   2.295 -0.7258 -0.3443  0.2793
  685MOL0     C92378   6.175   3.105   2.313  0.8041  0.0575  0.8826
  685MOL0     C92379   6.249   3.219   2.218 -0.1659  0.8663 -0.5954
  685MOL0     C92380   6.227   3.185   2.071  0.1777  0.0389 -0.1252
  685MOL0     C92381   6.276   3.042   2.042 -0.3444  0.0509  0.3529
  685MOL0     C92382   6.266   2.994   1.900  0.5328 -0.8364 -0.4203
  685MOL0     C92383   6.122   2.985   1.835  0.1438  0.2060 -0.2209
  685MOL0     C92384   6.137   2.902   1.703  0.4628  0.1471 -0.1322
  685MOL0    Cl92385   5.985   2.935   1.613  0.1536  0.4013 -0.0630
  685MOL0     C92386   5.749   3.068   2.315 -0.1263  0.6176  0.5446
  685MOL0     C92387   5.612   3.039   2.304  0.2241 -0.4066 -0.3908
  685MOL0     O92388   5.348   3.010   2.189 -0.3627 -0.8135  0.1737
  685MOL0     C92389   5.084   2.939   2.220  0.1667 -0.5202 -0.3520
  685MOL0     C92390   4.954   2.892   2.224  0.6023  0.1055 -0.4633
  685MOL0     N92391   4.318   2.524   2.222 -0.8062 -0.0534  0.2104
  685MOL0     N92392   4.286   2.488   2.099  0.4823 -0.0563  0.8046
  685MOL0     C92393   3.264   2.050   2.022 -1.1795 -0.8412 -0.7996
  685MOL0     C92394   3.137   1.988   2.019  0.4234  0.5879  0.8010
  685MOL0     C92395   2.830   1.658   1.853  0.3072  0.8655  0.2902
  685MOL0     C92396   2.748   1.671   1.961  0.2991 -0.1914  0.7520
  685MOL0     C92397   2.635   1.594   1.967  0.1258  0.5201  0.6864
  685MOL0     C92398   2.589   1.506   1.858  0.1715 -0.7420  0.8881
  685MOL0     O92399   2.460   1.455   1.867 -0.0852 -0.0442  0.0910
  685MOL0     C92400   2.375   1.424   1.755  0.0495  0.3979  0.1098
  685MOL0     C92401   2.229   1.450   1.793  0.4469 -1.0850 -0.6955
  685MOL0     C92402   2.131   1.363   1.720  0.3776 -0.1833  0.2055
  685MOL0     C92403   2.129   1.231   1.787 -0.3990 -0.5555  0.7069
  685MOL0     C92404   1.997   1.175   1.763  0.7166 -0.4985 -0.7052
  685MOL0     C92405   1.880   1.133   1.735  0.0510 -0.3340 -0.1328
  685MOL0     C92406   2.664   1.487   1.747 -0.0001 -0.7197 -0.5011
  685MOL0     C92407   2.788   1.557   1.751  0.1858  0.1990  0.1574
  685MOL0     H92408   3.238   1.706   1.870  1.3833 -0.0894 -2.1663
  685MOL0     H92409   3.459   1.812   1.878 -0.3006 -1.6466  0.2421
  685MOL0     H92410   3.421   2.230   1.887  1.5823 -2.1397 -3.1935
  685MOL0     H92411   3.494   2.234   2.057  3.2405 -3.3524  2.1783
  685MOL0     H92412   3.714   2.222   1.981 -0.4152 -2.9145  0.5354
  685MOL0     H92413   3.675   2.186   1.817  3.1494  4.0233 -2.2633
  685MOL0     H92414   3.575   2.430   1.814 -1.7058  0.1198  1.9376
  685MOL0     H92415   3.646   2.436   1.975  1.8908 -0.7660  0.2096
  685MOL0     H92416   3.873   2.385   1.904  2.4333 -0.2385 -1.2394
  685MOL0     H92417   3.825   2.370   1.736  2.8124 -0.1571  0.8561
  685MOL0     H92418   3.757   2.592   1.718  1.0730  0.0059 -0.2299
  685MOL0     H92419   3.788   2.626   1.888 -1.3087  0.0064 -0.5179
  685MOL0     H92420   4.010   2.492   1.722 -2.6825 -0.8239  1.6807
  685MOL0     H92421   3.989   2.665   1.700 -0.9118 -1.2256 -2.7771
  685MOL0     H92422   4.022   2.691   1.945  1.2236 -1.0571  2.9583
  685MOL0     H92423   4.028   2.515   1.971  3.7637 -2.5498 -1.9784
  685MOL0     H92424   4.223   2.694   1.835  0.6614 -2.3585 -2.3960
  685MOL0     H92425   4.235   2.521   1.819 -1.1515  0.2012 -0.2539
  685MOL0     H92426   4.265   2.820   2.069 -1.5165  0.2963  2.5730
  685MOL0     H92427   4.290   2.839   2.332  0.7660 -0.6276 -1.4430
  685MOL0     H92428   4.313   2.685   2.438 -1.1772  1.3982  0.8122
  685MOL0     H92429   4.512   2.863   2.409 -2.7455  1.4863 -0.7970
  685MOL0     H92430   4.506   2.808   2.247 -1.2104  1.3420  0.7055
  685MOL0     H92431   4.585   2.587   2.312  3.5774  1.4071 -1.3816
  685MOL0     H92432   4.535   2.617   2.480 -1.0000 -0.2013 -0.2782
  685MOL0     H92433   4.775   2.596   2.428 -0.5612 -0.8834 -0.0193
  685MOL0     H92434   4.726   2.742   2.518 -3.2980  0.2332 -0.2365
  685MOL0     H92435   4.978   2.670   2.460 -1.0073  0.5855  0.3831
  685MOL0     H92436   5.291   2.654   2.384 -0.4525 -0.4701 -0.8193
  685MOL0     H92437   5.298   2.748   2.542  0.2976  0.2588 -0.4925
  685MOL0     H92438   5.191   2.612   2.521  3.2768 -1.0412  0.2872
  685MOL0     H92439   5.606   2.776   2.511  0.1253 -1.4238 -1.5537
  685MOL0     H92440   5.853   2.839   2.527  0.2912 -1.7877 -1.4478
  685MOL0     H92441   6.005   3.036   2.202 -3.4204 -0.5299  0.8673
  685MOL0     H92442   5.991   3.192   2.288  3.0873  1.1363  0.9555
  685MOL0     H92443   6.209   3.138   2.412  1.7368 -0.5203  0.7693
  685MOL0     H92444   6.222   3.006   2.312  3.4060  1.2135  0.0770
  685MOL0     H92445   6.355   3.222   2.241  1.0793  1.2071 -5.3467
  685MOL0     H92446   6.205   3.315   2.246 -2.0134  0.0243 -0.4299
  685MOL0     H92447   6.120   3.177   2.048  0.5914 -2.5980 -1.5647
  685MOL0     H92448   6.258   3.257   1.995  0.1802 -0.1664 -0.3228
  685MOL0     H92449   6.212   2.976   2.101 -3.6669  1.7538 -1.1030
  685MOL0     H92450   6.383   3.046   2.065 -0.4347  3.0639  0.6022
  685MOL0     H92451   6.330   3.050   1.831  1.2305  0.2535  1.0463
  685MOL0     H92452   6.314   2.896   1.891  1.1135 -0.3993 -6.7928
  685MOL0     H92453   6.074   3.083   1.828 -0.9550 -0.2282  0.8216
  685MOL0     H92454   6.059   2.931   1.906 -1.2028  2.0728  0.0736
  685MOL0     H92455   6.138   2.798   1.734  0.4279  1.0928  3.4422
  685MOL0     H92456   6.227   2.909   1.640 -1.8922 -1.3102 -4.0338
  685MOL0     H92457   5.792   3.158   2.271 -1.2494  0.7957 -0.2295
  685MOL0     H92458   5.552   3.109   2.247 -2.7273 -0.5108  2.2949
  685MOL0     H92459   5.105   2.997   2.130 -1.4273 -0.9002 -1.0087
  685MOL0     H92460   4.881   2.940   2.159  0.3255  0.9032  0.4139
  685MOL0     H92461   3.271   2.144   2.075 -0.0989 -0.1340 -2.1228
  685MOL0     H92462   3.058   2.027   2.083 -2.1403 -1.3556 -0.9805
  685MOL0     H92463   2.769   1.745   2.038 -2.1359  0.0244  1.2823
  685MOL0     H92464   2.562   1.592   2.047 -1.3556  0.0403 -0.6237
  685MOL0     H92465   2.410   1.483   1.669  1.3770  1.6866  1.4632
  685MOL0     H92466   2.386   1.321   1.722  2.5881  1.6404 -3.5589
  685MOL0     H92467   2.211   1.554   1.764  0.3448 -0.1586  2.3269
  685MOL0     H92468   2.223   1.455   1.902 -1.3192 -0.7345 -0.7775
  685MOL0     H92469   2.142   1.353   1.612 -4.0029  0.4056 -0.4804
  685MOL0     H92470   2.037   1.419   1.729  0.3293 -0.3774  0.9522
  685MOL0     H92471   2.142   1.234   1.896  0.2922 -0.9315  0.6469
  685MOL0     H92472   2.207   1.168   1.743 -0.9186 -1.0743  0.5104
  685MOL0     H92473   1.783   1.090   1.721 -1.4080  1.6921  2.7259
  685MOL0     H92474   2.619   1.432   1.665 -0.2271 -0.1270 -0.7788
  685MOL0     H92475   2.849   1.546   1.662 -0.4663 -2.6732 -0.0393
  686MOL0     O92476   5.697  10.036   7.337 -0.9586 -0.6793  0.6187
  686MOL0     C92477   5.698   9.937   7.265  0.2274  0.1841  0.6214
  686MOL0     O92478   5.584   9.880   7.202 -0.4005 -0.2816 -0.7198
  686MOL0     C92479   5.457   9.915   7.235  0.0395  0.6288  0.7496
  686MOL0     C92480   5.374   9.910   7.126  0.0640  0.8964  0.1312
  686MOL0     C92481   5.236   9.952   7.135 -0.7252 -0.1974  0.1296
  686MOL0     C92482   5.189  10.010   7.251 -0.7796 -1.1559  0.3233
  686MOL0     O92483   5.080  10.084   7.264  0.0828 -1.1799 -0.4072
  686MOL0     C92484   4.975  10.098   7.160 -0.5941 -0.3043  0.6680
  686MOL0     C92485   4.878  10.204   7.186  0.1174  0.1663  0.3532
  686MOL0     C92486   4.926  10.349   7.164 -0.2930 -0.2430 -0.0244
  686MOL0     C92487   4.829  10.410   7.059 -0.4892 -0.4679 -0.5006
  686MOL0     C92488   4.853  10.561   7.042 -0.1800  0.1881 -0.3730
  686MOL0     C92489   4.754  10.612   6.936 -0.3312 -0.0780  0.4384
  686MOL0     C92490   4.766  10.760   6.900 -0.0923  0.1809  0.3721
  686MOL0     C92491   4.688  10.807   6.776 -1.2399  1.0531  0.2785
  686MOL0     N92492   4.724  10.720   6.661 -0.0143  0.5583  0.0398
  686MOL0     C92493   4.845  10.688   6.615  0.0209 -0.6502  0.3956
  686MOL0     C92494   4.836  10.607   6.510 -0.2750  0.1391 -0.3321
  686MOL0     C92495   4.939  10.525   6.446  0.0490 -0.3924 -0.0675
  686MOL0     C92496   4.990  10.400   6.519 -0.1749  0.2254 -0.2126
  686MOL0     C92497   4.892  10.288   6.519  0.1444 -0.4523  0.6604
  686MOL0     C92498   4.814  10.282   6.647  0.0179  0.4804  0.1431
  686MOL0     O92499   4.880  10.238   6.769  0.0575  0.5666 -0.0601
  686MOL0     C92500   4.915  10.107   6.781 -0.1991 -0.5499  0.0163
  686MOL0     C92501   4.823  10.015   6.817 -0.3463  1.0344 -0.5792
  686MOL0     C92502   4.865   9.879   6.833  0.8191 -0.9970  0.0433
  686MOL0     C92503   4.765   9.769   6.859  0.5662  0.0100  0.3283
  686MOL0     C92504   5.002   9.847   6.840  0.0940  0.9511  0.0800
  686MOL0     C92505   5.071   9.715   6.860 -0.6498 -0.3600  0.2081
  686MOL0     O92506   5.191   9.703   6.933  0.0813 -0.6068 -0.1710
  686MOL0     C92507   5.263   9.589   6.931  0.4058  0.4362 -0.1839
  686MOL0     C92508   5.315   9.529   6.816  0.5469 -1.2901 -1.2685
  686MOL0     C92509   5.400   9.415   6.830 -0.2186 -0.0027  0.9196
  686MOL0     C92510   5.414   9.351   6.950  0.1660  0.5179 -1.0051
  686MOL0     O92511   5.487   9.234   6.957  0.0641  0.1937 -0.5960
  686MOL0     C92512   5.458   9.138   7.062  0.8477  0.0665  0.2697
  686MOL0     C92513   5.491   8.999   7.002 -0.7480 -1.0303 -0.6962
  686MOL0     C92514   5.643   9.016   6.942  0.0506 -0.2733  0.3888
  686MOL0     C92515   5.707   8.873   6.928  0.0192  0.4546  0.0434
  686MOL0     C92516   5.837   8.879   6.865 -0.2402 -0.6203 -0.3139
  686MOL0     C92517   5.931   8.769   6.926 -0.7721  0.1142  0.6522
  686MOL0     C92518   5.894   8.620   6.907 -0.5931  0.9276 -1.1191
  686MOL0     C92519   6.006   8.519   6.950  0.6825 -0.0198 -0.4289
  686MOL0    Cl92520   6.159   8.531   6.858 -0.1998  0.8175 -0.1899
  686MOL0     C92521   5.349   9.402   7.069 -0.3172  0.3508 -0.0370
  686MOL0     C92522   5.272   9.516   7.054 -0.1132 -0.7542 -0.3614
  686MOL0     O92523   5.018   9.616   6.803 -0.0031 -0.0759 -0.2177
  686MOL0     C92524   5.093   9.945   6.803 -0.1524  0.7286  0.1229
  686MOL0     C92525   5.048  10.068   6.774 -0.0112  0.5554 -0.7167
  686MOL0     N92526   4.698  10.598   6.487 -0.4388 -0.1884  0.2037
  686MOL0     N92527   4.635  10.663   6.581  0.4708  0.0402  0.0476
  686MOL0     C92528   5.272  10.003   7.365 -0.1250  0.5180  0.4203
  686MOL0     C92529   5.400   9.957   7.356 -0.4289 -0.7016  0.1899
  686MOL0     C92530   5.823   9.866   7.239  0.8548 -0.7769 -0.5958
  686MOL0     C92531   5.945   9.941   7.253  0.6746  0.0237  0.1515
  686MOL0     C92532   6.066   9.885   7.213 -0.0468  0.4800  1.1220
  686MOL0     C92533   6.064   9.762   7.146 -0.0071 -0.7897 -0.6928
  686MOL0     O92534   6.177   9.710   7.095 -0.3516 -0.1414  0.5069
  686MOL0     C92535   6.206   9.569   7.112 -0.6311 -0.0620  0.6533
  686MOL0     C92536   6.356   9.551   7.089 -0.6796 -0.2849 -0.9455
  686MOL0     C92537   6.405   9.404   7.098  0.8747 -0.5698  0.3900
  686MOL0     C92538   6.543   9.386   7.032  0.5274 -0.0061 -0.8095
  686MOL0     C92539   6.583   9.249   7.058  0.2642  0.4013  0.0226
  686MOL0     C92540   6.594   9.129   7.083 -0.3302  0.3016 -0.0320
  686MOL0     C92541   5.944   9.686   7.145  0.2486 -0.1717 -0.0164
  686MOL0     C92542   5.822   9.738   7.189  0.5936  0.6679 -0.4552
  686MOL0     H92543   5.403   9.864   7.033 -3.1587 -0.1052 -0.5231
  686MOL0     H92544   5.174   9.938   7.047  0.7295 -0.7642 -0.8405
  686MOL0     H92545   5.013  10.109   7.059  0.8039  0.9046  1.2857
  686MOL0     H92546   4.910  10.010   7.158 -1.3718  0.2676 -0.3762
  686MOL0     H92547   4.791  10.181   7.124  0.2794  1.4515 -0.3821
  686MOL0     H92548   4.832  10.194   7.285 -2.4548  2.1835 -0.5248
  686MOL0     H92549   4.922  10.408   7.255  1.9965  0.4175 -0.3000
  686MOL0     H92550   5.027  10.353   7.123 -0.8468  2.3770 -1.3411
  686MOL0     H92551   4.836  10.355   6.964  0.6954 -0.0539 -0.6710
  686MOL0     H92552   4.734  10.402   7.112  1.3119 -0.2634  2.9977
  686MOL0     H92553   4.845  10.617   7.135 -0.1018 -0.0731 -0.2089
  686MOL0     H92554   4.947  10.578   6.990 -0.0691 -0.6109 -0.4490
  686MOL0     H92555   4.766  10.543   6.851 -3.2938 -1.0167  0.6594
  686MOL0     H92556   4.652  10.593   6.972 -0.2237  1.1176  1.4352
  686MOL0     H92557   4.741  10.829   6.981  0.6268  1.5233 -0.5196
  686MOL0     H92558   4.873  10.774   6.886  1.2453 -2.5366  5.4737
  686MOL0     H92559   4.715  10.911   6.757 -1.0993  1.1955  1.2040
  686MOL0     H92560   4.581  10.808   6.798 -0.6153  2.6055  4.0071
  686MOL0     H92561   4.936  10.715   6.669  1.3080 -0.5745 -1.7244
  686MOL0     H92562   4.907  10.506   6.343 -1.7480 -1.5568  0.6634
  686MOL0     H92563   5.021  10.598   6.438  0.6589 -1.1162 -0.5153
  686MOL0     H92564   5.006  10.420   6.625  1.9243 -1.4659 -0.1563
  686MOL0     H92565   5.089  10.376   6.480 -0.5993 -2.8426  0.3613
  686MOL0     H92566   4.951  10.196   6.508  0.0459 -0.2916 -1.6464
  686MOL0     H92567   4.828  10.286   6.430  0.4965 -1.7889  0.4124
  686MOL0     H92568   4.742  10.201   6.628  1.6429 -0.5649 -1.8878
  686MOL0     H92569   4.755  10.374   6.654 -2.7938 -1.2145  0.3007
  686MOL0     H92570   4.719  10.045   6.819 -0.6107  0.2808 -1.8434
  686MOL0     H92571   4.769   9.703   6.772  3.5762 -0.7132  0.8818
  686MOL0     H92572   4.800   9.710   6.944  0.6373 -0.9036 -0.3266
  686MOL0     H92573   4.661   9.793   6.884  0.1907 -0.7933 -0.4359
  686MOL0     H92574   5.305   9.581   6.721 -2.9349  0.9466  0.1515
  686MOL0     H92575   5.450   9.380   6.740 -1.8279  0.1336 -0.0764
  686MOL0     H92576   5.524   9.158   7.147  0.1002  1.2178  0.6048
  686MOL0     H92577   5.356   9.143   7.100 -0.0321 -0.2532 -1.8995
  686MOL0     H92578   5.484   8.926   7.082 -3.6583 -0.9093 -0.7505
  686MOL0     H92579   5.416   8.971   6.928 -0.1674 -0.7111 -1.4223
  686MOL0     H92580   5.701   9.082   7.007 -4.1216  1.6335  2.5764
  686MOL0     H92581   5.628   9.065   6.846  2.7366 -0.9533 -0.4617
  686MOL0     H92582   5.711   8.828   7.028  1.1060  1.6622  0.5650
  686MOL0     H92583   5.631   8.823   6.867 -1.5131  1.6444  0.9095
  686MOL0     H92584   5.876   8.980   6.882 -3.2535  0.5356  0.2839
  686MOL0     H92585   5.838   8.856   6.759  1.4690 -1.8266 -0.0779
  686MOL0     H92586   6.025   8.788   6.874 -1.3612 -2.4562 -1.6059
  686MOL0     H92587   5.948   8.787   7.032  2.8693 -0.5811  0.3092
  686MOL0     H92588   5.855   8.590   6.810  1.2350  0.0087 -1.6248
  686MOL0     H92589   5.824   8.609   6.990  1.1057 -0.6223  0.2122
  686MOL0     H92590   5.973   8.416   6.929 -1.9005  0.2266  1.8547
  686MOL0     H92591   6.027   8.531   7.057  2.5772  2.2321 -0.9840
  686MOL0     H92592   5.346   9.352   7.165 -0.4795  0.6089  0.0945
  686MOL0     H92593   5.214   9.550   7.139  1.5123  1.1302  0.0728
  686MOL0     H92594   5.200   9.925   6.803 -0.4134 -1.0434  2.0690
  686MOL0     H92595   5.117  10.144   6.741 -2.1876  2.3438 -1.4212
  686MOL0     H92596   5.241  10.050   7.458 -1.2080 -1.7408  1.2787
  686MOL0     H92597   5.465   9.969   7.443  2.8524 -1.1715 -1.9889
  686MOL0     H92598   5.952  10.040   7.296 -0.0149  0.0739  0.1529
  686MOL0     H92599   6.161   9.934   7.227 -0.1673  1.0831 -0.0844
  686MOL0     H92600   6.185   9.535   7.214  0.2855  2.4420  1.7641
  686MOL0     H92601   6.152   9.522   7.029 -2.1538  3.5302 -0.5651
  686MOL0     H92602   6.402   9.620   7.160  0.6361  0.4519 -2.4524
  686MOL0     H92603   6.369   9.591   6.988  1.5142  2.6082  0.3073
  686MOL0     H92604   6.336   9.332   7.051  0.4314 -0.5054  0.9334
  686MOL0     H92605   6.418   9.371   7.201 -1.7373 -1.9982  0.3668
  686MOL0     H92606   6.623   9.458   7.054  1.6225 -1.5944  0.6181
  686MOL0     H92607   6.521   9.393   6.925  0.6623 -0.7624 -0.8940
  686MOL0     H92608   6.597   9.027   7.118 -1.0041  1.2610  3.1756
  686MOL0     H92609   5.957   9.592   7.091  0.4385  0.3109 -0.8217
  686MOL0     H92610   5.732   9.679   7.175 -0.4035  1.6191  1.5988
  687MOL0     O92611   6.091   3.848   7.213  0.2754 -0.6184  0.1563
  687MOL0     C92612   6.141   3.747   7.162  0.3140 -1.3633  0.4812
  687MOL0     O92613   6.079   3.635   7.140  1.2552  0.7503  0.1257
  687MOL0     C92614   5.944   3.644   7.145 -0.9984  0.8139 -0.2904
  687MOL0     C92615   5.870   3.578   7.245 -0.0431 -0.5948 -0.3932
  687MOL0     C92616   5.736   3.566   7.233 -0.2406  0.9069 -0.2822
  687MOL0     C92617   5.666   3.620   7.114  0.0482 -0.2693 -0.5937
  687MOL0     O92618   5.532   3.599   7.087 -0.4327  0.1737  0.2029
  687MOL0     C92619   5.506   3.459   7.058  0.0871  0.2783  0.5312
  687MOL0     C92620   5.424   3.393   7.175 -0.0256 -0.9999  0.5010
  687MOL0     C92621   5.390   3.240   7.155 -0.0048  0.9344 -0.1420
  687MOL0     C92622   5.350   3.174   7.286  0.3244  0.0555 -0.3423
  687MOL0     C92623   5.211   3.216   7.344 -0.4986  0.0413 -0.0582
  687MOL0     C92624   5.203   3.141   7.474  0.4664 -0.1587  0.1531
  687MOL0     C92625   5.069   3.135   7.529 -0.4753 -1.3127 -0.1538
  687MOL0     C92626   5.080   3.068   7.663  0.1639 -0.4562  0.1259
  687MOL0     N92627   4.952   3.083   7.727  0.2987  0.3637 -0.1238
  687MOL0     C92628   4.859   2.980   7.746  0.6226 -0.1264 -0.4739
  687MOL0     C92629   4.754   3.042   7.818 -0.2569  0.1521  0.2437
  687MOL0     C92630   4.634   2.976   7.861 -0.2284  0.5017  0.2148
  687MOL0     C92631   4.657   2.924   8.008  0.0669 -0.5317 -0.5126
  687MOL0     C92632   4.569   3.022   8.098 -0.3022  0.1562  0.4752
  687MOL0     C92633   4.578   2.980   8.243  0.5369  0.1559 -0.1623
  687MOL0     O92634   4.520   3.084   8.317 -0.3738 -0.5167  0.1731
  687MOL0     C92635   4.386   3.114   8.325 -0.4779 -0.2976 -0.7908
  687MOL0     C92636   4.342   3.237   8.387  1.0189 -0.6359  0.1112
  687MOL0     C92637   4.203   3.281   8.388 -0.3420  0.7487  0.3000
  687MOL0     C92638   4.177   3.401   8.463  1.1143  0.4472  0.2010
  687MOL0     C92639   4.108   3.199   8.320 -0.3273  1.0824  0.4595
  687MOL0     C92640   3.962   3.221   8.325  0.7961 -0.1356 -0.8777
  687MOL0     O92641   3.876   3.133   8.252 -0.4968  0.8179  0.3337
  687MOL0     C92642   3.747   3.181   8.221 -0.2042 -0.5900  0.6691
  687MOL0     C92643   3.638   3.122   8.266  0.0541  0.8495  0.8271
  687MOL0     C92644   3.509   3.160   8.229  0.3980  0.3817 -0.9507
  687MOL0     C92645   3.488   3.275   8.153 -0.8056  0.6793 -0.7382
  687MOL0     O92646   3.364   3.321   8.124 -0.1411 -0.6138  0.5390
  687MOL0     C92647   3.250   3.288   8.204 -0.1254 -0.1998  0.2112
  687MOL0     C92648   3.156   3.396   8.152  0.2930 -0.0717  0.0629
  687MOL0     C92649   3.023   3.419   8.220  0.7465  0.4704 -0.6369
  687MOL0     C92650   2.924   3.293   8.210 -1.2479 -0.2989  0.9668
  687MOL0     C92651   2.787   3.321   8.280 -0.0380 -0.5475  0.5797
  687MOL0     C92652   2.701   3.422   8.203  0.5503  0.4530  1.0184
  687MOL0     C92653   2.580   3.488   8.277 -0.4928 -0.6786  2.1911
  687MOL0     C92654   2.474   3.382   8.293 -0.1397  0.5508  0.1871
  687MOL0    Cl92655   2.358   3.381   8.156  0.3062 -0.1687  0.2379
  687MOL0     C92656   3.598   3.345   8.112 -1.2008 -0.5562  0.3232
  687MOL0     C92657   3.729   3.300   8.150  0.0434 -0.4127 -0.1886
  687MOL0     O92658   3.916   3.310   8.404  0.6228 -0.0591  0.4848
  687MOL0     C92659   4.150   3.072   8.263 -0.0426 -0.8505 -0.5042
  687MOL0     C92660   4.289   3.039   8.256  0.9533  0.3109 -0.3888
  687MOL0     N92661   4.788   3.174   7.826 -0.1632 -0.1214  0.6982
  687MOL0     N92662   4.906   3.202   7.774 -0.0114 -0.0994  0.2924
  687MOL0     C92663   5.741   3.707   7.033 -0.3909 -1.1280  0.1844
  687MOL0     C92664   5.881   3.723   7.051  0.0863  0.1857 -0.2876
  687MOL0     C92665   6.289   3.752   7.146 -0.0766  1.0431  0.1291
  687MOL0     C92666   6.359   3.628   7.134  0.0088 -0.0164  0.3994
  687MOL0     C92667   6.497   3.625   7.097 -0.1183  0.0778 -0.5744
  687MOL0     C92668   6.562   3.744   7.073 -0.1094 -0.0103  0.6348
  687MOL0     O92669   6.694   3.760   7.040 -0.5644  0.3653  0.5134
  687MOL0     C92670   6.794   3.664   7.094  0.6260  0.4496  0.3007
  687MOL0     C92671   6.935   3.712   7.110 -1.2371 -0.3446 -0.5047
  687MOL0     C92672   6.998   3.773   6.982 -0.1304  0.4417  0.0834
  687MOL0     C92673   7.032   3.673   6.869  0.9715  0.3729  0.0511
  687MOL0     C92674   7.137   3.579   6.907 -0.4803  0.4478  0.7910
  687MOL0     C92675   7.212   3.486   6.923  0.0845  0.4625 -0.5051
  687MOL0     C92676   6.494   3.871   7.072  0.2163  0.1658 -0.1887
  687MOL0     C92677   6.359   3.870   7.120  0.0053  0.4899 -0.0400
  687MOL0     H92678   5.921   3.528   7.326 -2.4680 -2.9783 -0.1965
  687MOL0     H92679   5.686   3.493   7.296 -1.4597  1.2451 -0.8178
  687MOL0     H92680   5.447   3.453   6.966 -1.4369  0.6153  1.4502
  687MOL0     H92681   5.594   3.395   7.047  0.8499  0.6952  3.3745
  687MOL0     H92682   5.485   3.410   7.264  1.5198  1.1542 -0.8577
  687MOL0     H92683   5.329   3.448   7.172  1.0481  0.9860  0.5808
  687MOL0     H92684   5.306   3.228   7.086  1.3055  0.8391 -1.7963
  687MOL0     H92685   5.467   3.177   7.109 -0.2260  0.8385 -0.3806
  687MOL0     H92686   5.343   3.068   7.262 -1.4196  0.3526 -1.2767
  687MOL0     H92687   5.430   3.170   7.361 -1.1484 -2.1205  1.2484
  687MOL0     H92688   5.216   3.323   7.367 -0.4154  0.0387 -0.0646
  687MOL0     H92689   5.133   3.187   7.274  0.6432  0.7614 -1.6866
  687MOL0     H92690   5.243   3.040   7.464 -0.1582 -0.2630 -1.4652
  687MOL0     H92691   5.276   3.193   7.537  0.2299  1.6756 -1.0056
  687MOL0     H92692   5.027   3.235   7.543  1.0905 -0.4605 -1.2007
  687MOL0     H92693   5.000   3.087   7.460  0.5734 -0.4948 -1.8306
  687MOL0     H92694   5.153   3.097   7.740  0.8010 -2.3538  0.2820
  687MOL0     H92695   5.109   2.964   7.649  4.0951  0.2403  1.6426
  687MOL0     H92696   4.855   2.881   7.703 -2.2014  0.1817 -1.1420
  687MOL0     H92697   4.543   3.036   7.852  0.4580  1.6018  0.4506
  687MOL0     H92698   4.619   2.891   7.794  0.2655  0.7640 -0.2383
  687MOL0     H92699   4.762   2.931   8.038 -0.5157  1.2615  1.3510
  687MOL0     H92700   4.621   2.821   8.017  2.2859 -1.4085 -1.0036
  687MOL0     H92701   4.465   3.024   8.063 -0.6852  0.2239  1.5997
  687MOL0     H92702   4.613   3.122   8.088 -0.8172  0.1473 -3.6278
  687MOL0     H92703   4.683   2.964   8.267  0.6040 -2.2684 -1.7702
  687MOL0     H92704   4.525   2.887   8.265  0.1695  0.0361 -1.4877
  687MOL0     H92705   4.428   3.293   8.419  1.3093 -0.2973 -1.1965
  687MOL0     H92706   4.140   3.476   8.392 -0.1753 -0.4640 -0.1301
  687MOL0     H92707   4.112   3.387   8.550  1.5435 -1.4675  0.2672
  687MOL0     H92708   4.263   3.450   8.507  0.4560  2.6081 -0.7813
  687MOL0     H92709   3.654   3.037   8.331  1.1122  0.2981 -0.1243
  687MOL0     H92710   3.426   3.111   8.280  0.1132  0.9276 -0.8811
  687MOL0     H92711   3.207   3.190   8.178 -0.3972 -0.1296  0.3897
  687MOL0     H92712   3.281   3.297   8.309 -1.3126  1.9260  0.4349
  687MOL0     H92713   3.211   3.490   8.153  1.2692 -0.5134 -3.1425
  687MOL0     H92714   3.132   3.382   8.046  0.7531  0.8581 -0.1725
  687MOL0     H92715   2.984   3.509   8.172 -1.2180 -0.2590 -0.5102
  687MOL0     H92716   3.039   3.452   8.323 -2.3311 -1.1468  0.5219
  687MOL0     H92717   2.914   3.276   8.103  1.3818  0.9094  0.4517
  687MOL0     H92718   2.969   3.202   8.251  0.8054 -0.0092 -0.4957
  687MOL0     H92719   2.818   3.360   8.377  1.4371 -0.5557  0.1432
  687MOL0     H92720   2.730   3.229   8.296 -0.0986 -0.4632  0.8534
  687MOL0     H92721   2.763   3.506   8.172  0.5381  0.1670  0.1983
  687MOL0     H92722   2.676   3.369   8.111  0.6551  0.6919  0.8530
  687MOL0     H92723   2.544   3.572   8.216  1.2264 -0.6678  1.1277
  687MOL0     H92724   2.623   3.526   8.370  0.6776  0.5590  1.1955
  687MOL0     H92725   2.409   3.412   8.376  1.0691 -0.1185  1.4072
  687MOL0     H92726   2.517   3.288   8.329 -1.1655  0.3977  1.0479
  687MOL0     H92727   3.593   3.440   8.060 -1.0892 -1.2366 -0.9598
  687MOL0     H92728   3.822   3.350   8.125  1.3439 -2.0926  1.1672
  687MOL0     H92729   4.081   2.996   8.226 -2.3640  0.3793  1.1277
  687MOL0     H92730   4.317   2.955   8.194  0.6815  0.5563 -0.8497
  687MOL0     H92731   5.697   3.768   6.956  0.0294 -1.6377 -0.4724
  687MOL0     H92732   5.928   3.797   6.988 -0.4564 -0.9124 -2.0583
  687MOL0     H92733   6.305   3.536   7.155 -0.3063  0.5481  2.2014
  687MOL0     H92734   6.544   3.527   7.102 -1.3947 -0.7135 -2.5933
  687MOL0     H92735   6.748   3.636   7.190 -0.5847  1.0116 -0.0881
  687MOL0     H92736   6.810   3.581   7.025  1.4296 -0.7999  1.9259
  687MOL0     H92737   7.002   3.628   7.131 -0.7773  0.0798 -0.2434
  687MOL0     H92738   6.937   3.786   7.190 -1.1788 -2.4750  1.5690
  687MOL0     H92739   7.093   3.824   7.001  0.7874 -0.6800 -1.2843
  687MOL0     H92740   6.933   3.854   6.946 -0.3036 -0.0478 -0.7312
  687MOL0     H92741   7.061   3.739   6.788 -3.8284  1.0218 -1.4396
  687MOL0     H92742   6.944   3.619   6.833  2.3092 -0.7598 -1.6786
  687MOL0     H92743   7.276   3.400   6.931 -2.6649 -1.5181  3.6869
  687MOL0     H92744   6.540   3.965   7.043 -0.9847  0.4562 -1.2446
  687MOL0     H92745   6.300   3.961   7.120 -0.0408  0.4994  1.6563
  688MOL0     O92746   5.498   7.055   4.281 -0.2176  0.7497  0.1477
  688MOL0     C92747   5.426   7.056   4.381 -0.6071 -0.2483 -0.1229
  688MOL0     O92748   5.291   7.086   4.375 -0.5559  0.7609  0.1079
  688MOL0     C92749   5.226   7.098   4.256  0.5039 -0.3131  0.7715
  688MOL0     C92750   5.199   7.223   4.210 -0.3890  0.3768 -0.5564
  688MOL0     C92751   5.140   7.245   4.081 -0.0925  0.6402 -0.3564
  688MOL0     C92752   5.087   7.133   4.011 -0.1463 -0.0952  0.0753
  688MOL0     O92753   5.033   7.149   3.887 -0.0786 -0.4692  0.0028
  688MOL0     C92754   4.895   7.141   3.869  1.1713  1.5115  0.1957
  688MOL0     C92755   4.867   7.147   3.719 -0.8033 -0.0655 -0.1369
  688MOL0     C92756   4.713   7.116   3.690  0.1543  0.0300 -0.1476
  688MOL0     C92757   4.628   7.230   3.748  0.3131 -0.0849 -0.4973
  688MOL0     C92758   4.485   7.222   3.701 -0.6376  1.0213 -0.0387
  688MOL0     C92759   4.463   7.229   3.551  0.5771 -0.4494  0.0663
  688MOL0     C92760   4.349   7.312   3.508  0.0627 -0.1751 -0.0850
  688MOL0     C92761   4.212   7.246   3.537  0.4085  0.4728 -0.3762
  688MOL0     N92762   4.095   7.328   3.507  0.3791 -0.0419 -0.4424
  688MOL0     C92763   4.060   7.385   3.389  0.3853  0.0154 -0.1476
  688MOL0     C92764   3.959   7.466   3.413 -0.6500  0.0200 -0.6104
  688MOL0     C92765   3.902   7.554   3.306  1.1818  0.0990 -0.1942
  688MOL0     C92766   3.983   7.689   3.300  0.5578  0.5042 -0.1930
  688MOL0     C92767   4.094   7.687   3.203 -0.3940  0.1680  0.5755
  688MOL0     C92768   4.220   7.619   3.246 -0.7175  0.1001 -0.1708
  688MOL0     O92769   4.260   7.696   3.365 -0.7794 -0.1028  0.3755
  688MOL0     C92770   4.386   7.698   3.413 -0.2814 -0.2888 -0.0991
  688MOL0     C92771   4.403   7.756   3.540  0.7146 -0.1222  0.6830
  688MOL0     C92772   4.527   7.766   3.595 -0.1235 -0.1643  0.3155
  688MOL0     C92773   4.540   7.851   3.709  0.4688 -1.2760 -0.3320
  688MOL0     C92774   4.633   7.696   3.527 -0.2545  0.4958 -0.2850
  688MOL0     C92775   4.770   7.705   3.576 -0.1092  0.7227  0.5994
  688MOL0     O92776   4.867   7.667   3.489 -0.1032  0.3602  0.2660
  688MOL0     C92777   4.992   7.645   3.541 -0.3709 -0.3201 -0.3515
  688MOL0     C92778   5.095   7.708   3.471  0.4392  0.4082 -0.1088
  688MOL0     C92779   5.216   7.689   3.522 -0.2422 -0.1334  0.1788
  688MOL0     C92780   5.246   7.632   3.648  0.4682  0.0476  0.1218
  688MOL0     O92781   5.373   7.644   3.700  0.6786  0.1762 -0.7704
  688MOL0     C92782   5.400   7.621   3.843 -0.1179  0.3131 -1.0089
  688MOL0     C92783   5.549   7.626   3.889  0.4596 -0.1675  0.3641
  688MOL0     C92784   5.636   7.541   3.792 -0.2270 -0.2681  0.4357
  688MOL0     C92785   5.785   7.569   3.815  0.3953 -0.0782 -0.1129
  688MOL0     C92786   5.873   7.506   3.714  0.4708 -0.1295  0.3563
  688MOL0     C92787   6.023   7.518   3.745 -0.5886 -0.1934 -0.2863
  688MOL0     C92788   6.111   7.433   3.664  0.8723  0.5250 -0.3268
  688MOL0     C92789   6.119   7.489   3.517 -0.7871 -0.5947  0.0717
  688MOL0    Cl92790   6.233   7.403   3.411 -0.0584 -0.0100  0.2189
  688MOL0     C92791   5.140   7.567   3.714 -0.3093 -0.5424 -0.9141
  688MOL0     C92792   5.012   7.577   3.658 -0.5842 -0.3698 -0.5885
  688MOL0     O92793   4.788   7.732   3.698  0.2772  0.5668 -0.2768
  688MOL0     C92794   4.604   7.623   3.409 -0.0324 -0.2528 -0.2981
  688MOL0     C92795   4.482   7.628   3.347  0.3210  1.2595 -0.0619
  688MOL0     N92796   3.939   7.470   3.548  0.3161  0.1280  0.8618
  688MOL0     N92797   4.005   7.379   3.602  0.3526  0.1997  0.1530
  688MOL0     C92798   5.094   7.005   4.075 -0.3961 -0.2729  0.6680
  688MOL0     C92799   5.165   6.990   4.194 -0.7079 -0.5745  0.6482
  688MOL0     C92800   5.487   7.031   4.506 -0.6735 -0.0987  0.0885
  688MOL0     C92801   5.607   6.974   4.521  0.2118  0.4298 -1.2929
  688MOL0     C92802   5.666   6.949   4.640 -0.3362  0.4505 -1.3374
  688MOL0     C92803   5.607   6.978   4.765  0.7750  0.9164 -0.1017
  688MOL0     O92804   5.671   6.948   4.884 -0.0730  1.4265  0.1168
  688MOL0     C92805   5.667   7.025   5.015 -0.4189  0.3660 -0.1742
  688MOL0     C92806   5.727   7.163   4.999 -0.4947 -0.4789  1.1654
  688MOL0     C92807   5.715   7.261   5.125 -0.2534  0.3355 -0.3497
  688MOL0     C92808   5.634   7.381   5.084 -0.6172 -0.2815 -0.7421
  688MOL0     C92809   5.499   7.345   5.060  0.7403 -0.1442  1.0164
  688MOL0     C92810   5.387   7.300   5.033  0.1342 -0.3319 -0.4431
  688MOL0     C92811   5.476   7.028   4.755 -0.1599  0.3999  0.1249
  688MOL0     C92812   5.422   7.057   4.623  0.7315  0.6734 -0.7341
  688MOL0     H92813   5.238   7.309   4.263  3.1444 -2.1462  1.3244
  688MOL0     H92814   5.128   7.342   4.033  1.6716  0.4476 -1.2606
  688MOL0     H92815   4.858   7.043   3.901 -2.7187  2.2604 -1.4751
  688MOL0     H92816   4.844   7.221   3.924  0.3761  1.6362 -0.7054
  688MOL0     H92817   4.899   7.237   3.666  2.2643 -2.0325 -1.9693
  688MOL0     H92818   4.934   7.074   3.671 -1.0264  1.2651 -2.6525
  688MOL0     H92819   4.708   7.096   3.583 -1.8055  0.3445 -0.1442
  688MOL0     H92820   4.686   7.019   3.732 -2.5373  0.4924 -0.6375
  688MOL0     H92821   4.623   7.226   3.857 -0.9286 -0.5312 -0.5454
  688MOL0     H92822   4.677   7.319   3.709 -1.7157  1.0534 -0.5786
  688MOL0     H92823   4.454   7.125   3.741  2.4365  0.6488  1.8282
  688MOL0     H92824   4.431   7.298   3.759 -0.8401 -1.0127  2.6083
  688MOL0     H92825   4.554   7.271   3.509  0.4777 -2.2614 -2.1502
  688MOL0     H92826   4.443   7.130   3.508  0.7578  0.0643 -1.2447
  688MOL0     H92827   4.345   7.409   3.559 -0.1377 -0.2350  0.0126
  688MOL0     H92828   4.360   7.334   3.401 -0.6865  1.9600  0.2254
  688MOL0     H92829   4.210   7.218   3.643  0.2272  2.4860  0.1979
  688MOL0     H92830   4.198   7.149   3.489  1.5645 -1.5352  3.0211
  688MOL0     H92831   4.101   7.360   3.292 -4.3957 -0.1342 -2.4174
  688MOL0     H92832   3.907   7.505   3.208 -0.4589 -0.0750 -0.2139
  688MOL0     H92833   3.799   7.567   3.340  1.2628 -2.4232  1.2319
  688MOL0     H92834   4.024   7.715   3.398  0.2331  1.1713 -0.2272
  688MOL0     H92835   3.924   7.776   3.267  1.5663  1.3263  0.1305
  688MOL0     H92836   4.110   7.787   3.162  1.2110 -0.6852 -1.0415
  688MOL0     H92837   4.058   7.634   3.114  0.5863  0.8049 -0.2136
  688MOL0     H92838   4.293   7.610   3.165  2.1184 -1.9962  2.3668
  688MOL0     H92839   4.207   7.512   3.265  1.7382 -0.2549 -0.2693
  688MOL0     H92840   4.325   7.817   3.583 -0.1372  0.0147 -0.9607
  688MOL0     H92841   4.613   7.931   3.695  0.3872 -0.9214  1.0716
  688MOL0     H92842   4.449   7.899   3.747  0.8703  0.1121 -1.0765
  688MOL0     H92843   4.566   7.784   3.792 -1.3978 -1.3754  0.2096
  688MOL0     H92844   5.067   7.774   3.389 -0.9325  0.5314  0.4296
  688MOL0     H92845   5.290   7.743   3.463 -0.3684  0.9335  0.9718
  688MOL0     H92846   5.350   7.700   3.900 -0.4080 -0.5476 -0.0363
  688MOL0     H92847   5.356   7.533   3.891  1.1479  0.9571  1.5232
  688MOL0     H92848   5.578   7.731   3.884  2.5051 -0.6970  0.2824
  688MOL0     H92849   5.564   7.596   3.993  0.4535 -1.0236  0.1269
  688MOL0     H92850   5.611   7.572   3.690 -0.2031 -2.0508 -0.1370
  688MOL0     H92851   5.626   7.432   3.798  0.8711 -0.5792 -2.1917
  688MOL0     H92852   5.807   7.674   3.837 -1.5002  0.3886 -0.2492
  688MOL0     H92853   5.816   7.515   3.906  0.0122 -0.9482 -0.4892
  688MOL0     H92854   5.859   7.544   3.612  1.8523 -2.9765 -1.0154
  688MOL0     H92855   5.853   7.400   3.694 -2.4422  0.1750  1.1242
  688MOL0     H92856   6.045   7.624   3.753 -3.7460  0.4339  2.6078
  688MOL0     H92857   6.048   7.477   3.844  1.1230 -0.2818 -0.7289
  688MOL0     H92858   6.080   7.328   3.663  1.5418  0.3096 -1.9406
  688MOL0     H92859   6.209   7.440   3.712 -0.4825 -0.9399  2.9718
  688MOL0     H92860   6.148   7.594   3.520 -0.7350 -0.6254  1.3095
  688MOL0     H92861   6.020   7.490   3.470 -1.4174  1.6630  1.2582
  688MOL0     H92862   5.150   7.507   3.804 -2.4729  1.0876  0.5194
  688MOL0     H92863   4.927   7.524   3.700 -0.0043 -0.5503  0.4162
  688MOL0     H92864   4.679   7.567   3.355  0.7346 -1.3801  1.7891
  688MOL0     H92865   4.478   7.574   3.253 -0.2630 -1.0601  1.2150
  688MOL0     H92866   5.034   6.927   4.029 -0.4330  0.1243  0.0296
  688MOL0     H92867   5.174   6.892   4.239 -2.3031 -2.0798 -2.0219
  688MOL0     H92868   5.652   6.942   4.427 -1.2450 -1.2167 -1.4675
  688MOL0     H92869   5.768   6.913   4.653 -1.1969 -1.4019  0.8238
  688MOL0     H92870   5.563   7.035   5.046  0.5207  2.4375  2.7675
  688MOL0     H92871   5.713   6.976   5.101 -3.6482 -1.0214  0.9341
  688MOL0     H92872   5.684   7.207   4.909  0.0115 -2.9759 -0.3913
  688MOL0     H92873   5.832   7.143   4.975 -0.5767  0.0825  0.2929
  688MOL0     H92874   5.814   7.289   5.164 -0.8913  2.4501 -0.0907
  688MOL0     H92875   5.660   7.207   5.203 -1.6232  0.0100 -1.5094
  688MOL0     H92876   5.700   7.426   5.009  2.7763 -1.7959  1.1065
  688MOL0     H92877   5.623   7.450   5.168  0.0704 -0.2399 -0.6813
  688MOL0     H92878   5.288   7.261   5.021 -0.3677  0.4934  0.7717
  688MOL0     H92879   5.415   7.047   4.843 -2.9115  1.7002 -1.8915
  688MOL0     H92880   5.316   7.079   4.615  0.2442 -1.2110 -0.0493
  689MOL0     O92881   4.900  10.996   8.256 -0.1660  0.1470  0.1369
  689MOL0     C92882   4.962  10.996   8.360 -0.3843 -0.4014 -0.1788
  689MOL0     O92883   4.924  10.922   8.466  0.3148 -1.0835 -0.1038
  689MOL0     C92884   4.855  10.804   8.453 -0.5743  0.2446 -0.3294
  689MOL0     C92885   4.925  10.692   8.401  1.2691 -0.1183 -0.2414
  689MOL0     C92886   4.856  10.573   8.385  0.5998  0.8772  0.2209
  689MOL0     C92887   4.720  10.560   8.420  0.1851  0.3332  0.0978
  689MOL0     O92888   4.672  10.435   8.400  0.4031 -0.2326 -0.8443
  689MOL0     C92889   4.532  10.407   8.390  0.0037  0.1501 -0.4343
  689MOL0     C92890   4.488  10.438   8.241  0.9595  0.3680  0.7818
  689MOL0     C92891   4.412  10.575   8.245 -0.0706 -0.2526 -0.3234
  689MOL0     C92892   4.369  10.624   8.110 -0.2959 -0.6854  0.1326
  689MOL0     C92893   4.247  10.712   8.107  0.2984 -0.1750 -0.7219
  689MOL0     C92894   4.245  10.834   8.208 -0.2610  1.0438  0.4358
  689MOL0     C92895   4.149  10.945   8.152 -0.6004  0.3876  0.1525
  689MOL0     C92896   4.003  10.906   8.141 -0.1156 -0.6187 -0.1523
  689MOL0     N92897   3.928  10.884   8.267  0.0214  0.9147  0.3486
  689MOL0     C92898   3.836  10.782   8.283  0.2825  0.7427  0.4283
  689MOL0     C92899   3.802  10.785   8.416  0.0276 -0.5155 -0.5808
  689MOL0     C92900   3.722  10.681   8.487  0.3511 -0.3810 -0.4154
  689MOL0     C92901   3.612  10.752   8.569  0.2979 -0.1806 -0.0776
  689MOL0     C92902   3.483  10.666   8.578 -0.4667  0.3679  0.5362
  689MOL0     C92903   3.403  10.709   8.705  0.2864  0.0915  0.4653
  689MOL0     O92904   3.449  10.633   8.809 -0.7212  0.0597 -0.7915
  689MOL0     C92905   3.412  10.644   8.945  0.5976  0.5734  0.4688
  689MOL0     C92906   3.463  10.550   9.032 -0.4911  0.2738 -0.6176
  689MOL0     C92907   3.413  10.531   9.160  0.4749 -1.2637 -0.1383
  689MOL0     C92908   3.480  10.421   9.244  0.0991 -0.5109 -0.4948
  689MOL0     C92909   3.298  10.600   9.198  0.3303 -0.6764 -0.0992
  689MOL0     C92910   3.231  10.584   9.328 -0.7402 -1.0506  0.4168
  689MOL0     O92911   3.304  10.554   9.438  0.4356 -0.8768  0.0400
  689MOL0     C92912   3.229  10.538   9.553  0.1487  0.4640  0.1689
  689MOL0     C92913   3.146  10.426   9.578  0.1501  0.3972  0.0688
  689MOL0     C92914   3.094  10.396   9.709  0.3286 -0.1832 -0.2979
  689MOL0     C92915   3.125  10.490   9.810  0.0528 -0.4179  0.8099
  689MOL0     O92916   3.079  10.465   9.942  0.4533  0.6287  0.1179
  689MOL0     C92917   2.990  10.358   9.977 -0.7706 -0.4094  0.4635
  689MOL0     C92918   2.925  10.384  10.116  0.3186 -0.3620  0.6270
  689MOL0     C92919   3.018  10.367  10.236  0.1173  0.3719  0.5296
  689MOL0     C92920   2.947  10.405  10.364  0.2534 -0.0850 -0.0969
  689MOL0     C92921   2.947  10.555  10.409 -0.5700  0.2923  1.0591
  689MOL0     C92922   2.951  10.567  10.563 -0.2020  0.5656  0.5974
  689MOL0     C92923   2.961  10.716  10.617  0.3269  0.8193 -0.4038
  689MOL0     C92924   2.996  10.716  10.762  0.0593 -0.1079 -0.4146
  689MOL0    Cl92925   2.936  10.847  10.873 -0.3988 -0.0115 -0.3086
  689MOL0     C92926   3.199  10.604   9.781  0.4605 -0.7340 -0.8285
  689MOL0     C92927   3.254  10.624   9.660 -0.6145 -0.6788  0.3548
  689MOL0     O92928   3.109  10.606   9.326  0.1556 -0.0782 -0.8412
  689MOL0     C92929   3.245  10.695   9.104  0.1158 -0.8825  0.4690
  689MOL0     C92930   3.302  10.720   8.980  0.5405  0.4991 -0.0803
  689MOL0     N92931   3.860  10.905   8.466  0.4848  0.1620 -0.6618
  689MOL0     N92932   3.933  10.956   8.378 -0.5414 -0.2833  0.3757
  689MOL0     C92933   4.658  10.664   8.486  0.3207  0.3590  0.3711
  689MOL0     C92934   4.728  10.786   8.502  0.6251  0.2546  0.2060
  689MOL0     C92935   5.095  11.068   8.377  0.2257 -0.2703  0.8538
  689MOL0     C92936   5.185  11.067   8.491 -0.2357 -0.6007  0.0526
  689MOL0     C92937   5.297  11.155   8.503  0.7444 -0.4282  0.5305
  689MOL0     C92938   5.328  11.237   8.395  0.3352  0.1441 -1.0113
  689MOL0     O92939   5.438  11.323   8.406  1.0791 -0.4910  0.4786
  689MOL0     C92940   5.483  11.369   8.536 -0.8738  0.0054 -0.5725
  689MOL0     C92941   5.574  11.494   8.509 -0.1193  0.0106 -0.8862
  689MOL0     C92942   5.695  11.458   8.424 -0.0110 -0.4278 -0.2686
  689MOL0     C92943   5.824  11.412   8.502 -0.6525 -0.2499 -0.3017
  689MOL0     C92944   5.942  11.431   8.415  0.2726 -0.4251 -0.4878
  689MOL0     C92945   6.037  11.424   8.352 -0.2195  0.2841  0.2061
  689MOL0     C92946   5.249  11.231   8.283  0.1285  0.3372 -0.4464
  689MOL0     C92947   5.127  11.155   8.279  0.0579 -0.6714  0.7574
  689MOL0     H92948   5.020  10.708   8.351  2.0379 -2.4608  0.3583
  689MOL0     H92949   4.910  10.488   8.345 -1.0652 -0.2095  0.1939
  689MOL0     H92950   4.518  10.299   8.396 -2.4605  0.4494  0.2640
  689MOL0     H92951   4.463  10.451   8.463 -0.1669 -2.8559  1.3671
  689MOL0     H92952   4.576  10.454   8.177  1.5651 -0.9400  1.2516
  689MOL0     H92953   4.420  10.360   8.207  0.5666  1.4256 -0.9883
  689MOL0     H92954   4.343  10.576   8.330  0.4322  1.3602  0.0948
  689MOL0     H92955   4.482  10.654   8.272  1.3417 -1.9126  1.2263
  689MOL0     H92956   4.448  10.682   8.062  2.5077 -3.7277  0.7441
  689MOL0     H92957   4.358  10.539   8.043  2.4945 -1.4955  0.5881
  689MOL0     H92958   4.249  10.761   8.009 -1.9935  1.1661 -0.1768
  689MOL0     H92959   4.150  10.662   8.120 -0.5251  1.4790 -0.2058
  689MOL0     H92960   4.204  10.805   8.305 -1.7846 -0.5696 -0.6260
  689MOL0     H92961   4.347  10.873   8.211  0.1428  0.2140 -1.3786
  689MOL0     H92962   4.166  11.034   8.213 -2.2062 -0.3465  1.7540
  689MOL0     H92963   4.192  10.966   8.054 -0.3639 -0.5129  0.0552
  689MOL0     H92964   3.994  10.825   8.068  0.1701 -0.8099  0.0229
  689MOL0     H92965   3.950  10.990   8.096 -2.6346 -0.5629  2.6151
  689MOL0     H92966   3.796  10.704   8.219 -1.9949  0.7608  1.7522
  689MOL0     H92967   3.671  10.621   8.411 -2.5652  0.0530  1.0806
  689MOL0     H92968   3.785  10.619   8.551 -0.3529  0.7106  1.3962
  689MOL0     H92969   3.587  10.852   8.532  2.6162  0.6080  0.3569
  689MOL0     H92970   3.648  10.781   8.668 -0.0013  1.7848 -0.4914
  689MOL0     H92971   3.495  10.558   8.592  1.9846  0.3150 -1.1393
  689MOL0     H92972   3.425  10.685   8.487  2.6757 -0.0396 -1.7463
  689MOL0     H92973   3.299  10.678   8.690  0.6601 -0.1851 -2.0266
  689MOL0     H92974   3.403  10.817   8.720  0.2616  0.1395  0.1335
  689MOL0     H92975   3.543  10.488   8.992  0.9791  0.9228  1.1652
  689MOL0     H92976   3.569  10.382   9.193  0.4870 -1.2026  0.6630
  689MOL0     H92977   3.526  10.467   9.332 -0.8013 -0.7258  0.1030
  689MOL0     H92978   3.418  10.337   9.276 -0.6013  0.8157  1.9233
  689MOL0     H92979   3.133  10.361   9.493  1.1745 -1.0694  0.9872
  689MOL0     H92980   3.034  10.306   9.724 -0.5305 -0.0092 -2.3012
  689MOL0     H92981   2.916  10.349   9.897  1.3825 -2.1816 -1.4310
  689MOL0     H92982   3.045  10.264   9.983 -0.9672 -0.4520  3.3701
  689MOL0     H92983   2.898  10.490  10.111 -2.8294 -1.0601 -3.3106
  689MOL0     H92984   2.828  10.334  10.120 -1.1201  2.1465 -0.4813
  689MOL0     H92985   3.102  10.435  10.225 -1.3205  2.5904  2.4165
  689MOL0     H92986   3.058  10.265  10.237  2.1003  1.0981 -0.5540
  689MOL0     H92987   2.847  10.363  10.349  1.5815 -3.5352 -0.2263
  689MOL0     H92988   2.983  10.344  10.448 -2.5803  0.6940  1.8290
  689MOL0     H92989   2.858  10.608  10.376 -0.5162 -0.4007 -0.2506
  689MOL0     H92990   3.035  10.606  10.368 -0.1669 -0.2184  1.2814
  689MOL0     H92991   2.868  10.513  10.610  0.2196 -1.1947 -0.5871
  689MOL0     H92992   3.039  10.512  10.596  1.0815  1.0571 -1.7766
  689MOL0     H92993   2.864  10.763  10.597 -2.0927 -3.4661 -0.1458
  689MOL0     H92994   3.033  10.778  10.563 -0.2108 -0.3510 -2.6311
  689MOL0     H92995   3.104  10.717  10.778 -0.1882  1.8914  1.7157
  689MOL0     H92996   2.965  10.621  10.807  5.1808 -1.6093  0.6134
  689MOL0     H92997   3.207  10.669   9.867 -1.7272 -0.4368 -0.7823
  689MOL0     H92998   3.309  10.713   9.633 -0.7483 -0.4046  0.9764
  689MOL0     H92999   3.152  10.739   9.137 -0.1427 -1.3857  0.4307
  689MOL0     H93000   3.253  10.784   8.907 -0.7399 -0.2038  0.1298
  689MOL0     H93001   4.559  10.641   8.524  0.2052 -1.6214 -0.9657
  689MOL0     H93002   4.668  10.861   8.553 -4.1648 -3.0861  0.1953
  689MOL0     H93003   5.156  11.003   8.574 -1.5883  1.0763  0.9459
  689MOL0     H93004   5.358  11.158   8.592  0.6878  2.4757  0.5748
  689MOL0     H93005   5.400  11.400   8.600 -0.0060  1.6056 -0.1654
  689MOL0     H93006   5.542  11.299   8.596 -1.8653 -0.7917 -0.4881
  689MOL0     H93007   5.611  11.531   8.605 -0.8521  1.7505 -1.2394
  689MOL0     H93008   5.512  11.575   8.470 -1.4428 -0.9316 -0.8369
  689MOL0     H93009   5.723  11.542   8.360  1.0077 -3.5109 -4.3073
  689MOL0     H93010   5.664  11.377   8.357  1.1435  1.2333 -3.0000
  689MOL0     H93011   5.810  11.309   8.537  1.4640 -0.0651  1.2602
  689MOL0     H93012   5.840  11.475   8.590 -1.1276  0.8522 -0.9922
  689MOL0     H93013   6.128  11.402   8.300  0.5716  2.3627  0.6140
  689MOL0     H93014   5.287  11.283   8.196 -1.0203  2.2419  0.1284
  689MOL0     H93015   5.072  11.166   8.186 -2.0309  1.1298  2.1160
  690MOL0     O93016   6.186   2.349   5.879  0.3157  0.5008 -0.1237
  690MOL0     C93017   6.255   2.283   5.808 -0.0773  0.4261  0.5736
  690MOL0     O93018   6.216   2.224   5.691  0.2990 -0.5519 -0.6184
  690MOL0     C93019   6.081   2.228   5.669 -1.2618 -1.1021  0.3364
  690MOL0     C93020   6.033   2.301   5.561  1.5199 -0.4904  0.2444
  690MOL0     C93021   5.895   2.277   5.524  0.1215  0.2129 -0.2984
  690MOL0     C93022   5.804   2.194   5.595 -0.9364 -0.0770 -0.4501
  690MOL0     O93023   5.673   2.201   5.552  0.6987 -0.0276  0.0185
  690MOL0     C93024   5.599   2.076   5.539  0.5667  0.0074 -0.3044
  690MOL0     C93025   5.511   2.054   5.673  0.1891  0.3578  0.2954
  690MOL0     C93026   5.405   1.948   5.644 -1.0270 -0.6736  0.6603
  690MOL0     C93027   5.346   1.906   5.782  0.8653  0.2442  0.4439
  690MOL0     C93028   5.241   1.792   5.773 -0.8927 -0.3561 -0.1981
  690MOL0     C93029   5.190   1.756   5.904 -0.6460  0.7958  0.4162
  690MOL0     C93030   5.097   1.635   5.904  0.2268 -0.2850  0.2269
  690MOL0     C93031   4.967   1.678   5.821  0.1582 -0.6121  0.2877
  690MOL0     N93032   4.846   1.597   5.823 -0.4825  0.3288  0.1882
  690MOL0     C93033   4.840   1.463   5.785  0.6008 -0.1284  0.5114
  690MOL0     C93034   4.705   1.425   5.795  0.6677 -0.5418 -0.0349
  690MOL0     C93035   4.642   1.294   5.759 -0.2740 -0.2020  0.4386
  690MOL0     C93036   4.613   1.214   5.882 -0.5421 -0.3208 -0.1043
  690MOL0     C93037   4.519   1.096   5.834 -0.1909 -0.0060  0.0271
  690MOL0     C93038   4.382   1.144   5.855  0.1390  0.0984 -0.4332
  690MOL0     O93039   4.292   1.060   5.774  0.7962 -0.1814  0.9126
  690MOL0     C93040   4.189   1.125   5.710 -0.8355  0.3100 -0.5039
  690MOL0     C93041   4.156   1.088   5.580  0.0876 -0.2232  0.6513
  690MOL0     C93042   4.058   1.168   5.512 -0.7507 -0.6132 -1.1601
  690MOL0     C93043   4.026   1.144   5.374 -1.2522 -0.1863 -0.3138
  690MOL0     C93044   3.989   1.269   5.587  0.9653 -0.0924  0.1666
  690MOL0     C93045   3.868   1.333   5.548  0.6812 -0.1866 -0.3791
  690MOL0     O93046   3.836   1.454   5.600 -0.2566 -0.3209 -0.1801
  690MOL0     C93047   3.722   1.517   5.553  0.3188  0.3051  0.6049
  690MOL0     C93048   3.596   1.513   5.612  0.2669  0.0610  0.0372
  690MOL0     C93049   3.486   1.572   5.544 -1.0640  1.0233 -0.8572
  690MOL0     C93050   3.508   1.629   5.419 -0.7938  0.1153  0.3845
  690MOL0     O93051   3.417   1.674   5.336  0.1628 -0.0326  0.0052
  690MOL0     C93052   3.276   1.641   5.355  0.3241 -0.4422  0.7046
  690MOL0     C93053   3.178   1.687   5.246  0.2678 -0.2688  0.1203
  690MOL0     C93054   3.211   1.631   5.109  0.5717  0.8853  0.5044
  690MOL0     C93055   3.086   1.666   5.013 -0.0263  0.3384 -0.3575
  690MOL0     C93056   3.114   1.627   4.870  1.0004 -0.3709 -0.3559
  690MOL0     C93057   2.987   1.674   4.773 -0.0272  0.2358 -0.0364
  690MOL0     C93058   2.988   1.586   4.643 -0.8222 -0.3691 -0.4064
  690MOL0     C93059   2.862   1.601   4.560 -0.1783 -0.3126 -1.4708
  690MOL0    Cl93060   2.836   1.787   4.523  0.3847 -0.0286 -0.4461
  690MOL0     C93061   3.634   1.631   5.359  0.9479  0.0332 -0.4792
  690MOL0     C93062   3.741   1.579   5.423  0.3168  0.6414  0.7787
  690MOL0     O93063   3.786   1.263   5.480  0.2463 -0.8095 -0.3016
  690MOL0     C93064   4.029   1.294   5.720 -0.6290  0.1129  0.8626
  690MOL0     C93065   4.130   1.227   5.787  0.4820  0.9268  0.3494
  690MOL0     N93066   4.641   1.539   5.844 -0.0649  0.6193  0.9832
  690MOL0     N93067   4.727   1.636   5.877 -0.3448 -0.6292 -0.2134
  690MOL0     C93068   5.856   2.108   5.699  0.4400 -0.6463  0.0283
  690MOL0     C93069   5.995   2.130   5.726 -0.1457 -0.2536 -0.2551
  690MOL0     C93070   6.398   2.260   5.837  0.1570 -0.6827 -0.8484
  690MOL0     C93071   6.455   2.305   5.958  0.3747  0.1326 -0.1288
  690MOL0     C93072   6.598   2.284   5.989  0.7349 -0.4023 -0.3501
  690MOL0     C93073   6.682   2.227   5.892 -0.1435 -0.6767  0.1925
  690MOL0     O93074   6.820   2.221   5.897  0.8929  0.1283 -0.5254
  690MOL0     C93075   6.894   2.129   5.825  0.2035  0.6874 -0.1455
  690MOL0     C93076   7.015   2.094   5.903  0.2439  0.3021  0.5919
  690MOL0     C93077   7.111   1.997   5.833 -0.0456 -0.0690  0.1748
  690MOL0     C93078   7.208   2.077   5.739  0.8457  0.3576  0.5865
  690MOL0     C93079   7.290   1.988   5.661 -1.4534 -0.2432 -0.0270
  690MOL0     C93080   7.360   1.901   5.606  0.2257 -0.0946 -0.8406
  690MOL0     C93081   6.629   2.190   5.766 -0.6972  0.3438 -0.5840
  690MOL0     C93082   6.493   2.208   5.741 -0.1259  0.1326 -0.1183
  690MOL0     H93083   6.098   2.359   5.496  1.0870 -1.2028 -0.8657
  690MOL0     H93084   5.854   2.323   5.434  0.5070  0.2041 -0.4798
  690MOL0     H93085   5.535   2.086   5.451  1.8615 -0.8677 -1.3849
  690MOL0     H93086   5.655   1.986   5.512  1.7424  0.4924  0.4284
  690MOL0     H93087   5.579   2.020   5.752 -1.3061  0.5118  1.7059
  690MOL0     H93088   5.459   2.142   5.713 -3.3858 -1.6679  0.4655
  690MOL0     H93089   5.331   2.000   5.584  1.1510  3.1946  0.9981
  690MOL0     H93090   5.444   1.857   5.598 -2.6009 -1.4461  0.8002
  690MOL0     H93091   5.431   1.869   5.840  1.2862  1.1460  0.4163
  690MOL0     H93092   5.291   1.985   5.834 -1.3974 -1.1326  0.2931
  690MOL0     H93093   5.169   1.820   5.696  2.1424  0.4546 -2.9818
  690MOL0     H93094   5.290   1.704   5.732  1.5852  0.5975  0.4857
  690MOL0     H93095   5.275   1.731   5.969 -1.0316  0.5026  0.8116
  690MOL0     H93096   5.135   1.842   5.943  0.6348  1.3917  0.9764
  690MOL0     H93097   5.143   1.545   5.862  1.0453  0.9040 -1.5468
  690MOL0     H93098   5.071   1.615   6.009 -0.6961  0.3644  0.1331
  690MOL0     H93099   5.010   1.673   5.721 -1.7785  0.3832 -0.6429
  690MOL0     H93100   4.939   1.781   5.842  0.2451 -0.1534 -1.6856
  690MOL0     H93101   4.918   1.390   5.765 -0.7085 -0.4647 -4.8782
  690MOL0     H93102   4.557   1.312   5.692  1.0003 -0.1933 -1.2411
  690MOL0     H93103   4.710   1.235   5.697 -3.1668 -1.3564 -1.8872
  690MOL0     H93104   4.558   1.281   5.948 -0.4145 -0.0672 -0.2562
  690MOL0     H93105   4.700   1.166   5.928  0.3451 -0.1365 -1.5456
  690MOL0     H93106   4.529   1.017   5.909  0.3702  0.0145 -0.0253
  690MOL0     H93107   4.540   1.062   5.732 -2.3542  1.1057 -0.8553
  690MOL0     H93108   4.386   1.249   5.824  2.1731 -0.5318 -2.5040
  690MOL0     H93109   4.359   1.125   5.961 -2.7176 -0.5648 -1.0816
  690MOL0     H93110   4.211   1.012   5.526 -1.7189 -0.3023 -1.2219
  690MOL0     H93111   4.000   1.242   5.335  0.0875  1.0895  1.8397
  690MOL0     H93112   4.105   1.102   5.310 -0.0878  2.6946 -0.9127
  690MOL0     H93113   3.943   1.073   5.370 -0.7758 -1.0267  2.5408
  690MOL0     H93114   3.579   1.465   5.708  2.9500  0.4084  0.7707
  690MOL0     H93115   3.399   1.553   5.606 -0.3340 -1.7144 -0.5531
  690MOL0     H93116   3.265   1.533   5.370 -1.3489 -0.2144  1.2968
  690MOL0     H93117   3.231   1.687   5.443  1.7376 -2.1389  2.3941
  690MOL0     H93118   3.077   1.655   5.271 -0.0740  0.8987  0.2634
  690MOL0     H93119   3.187   1.795   5.230  2.9388 -0.5075 -0.4753
  690MOL0     H93120   3.212   1.523   5.122  3.3612  0.8638  0.6012
  690MOL0     H93121   3.313   1.658   5.079  1.2194 -1.7495  0.0814
  690MOL0     H93122   2.999   1.606   5.040 -0.2339  0.7582 -0.0720
  690MOL0     H93123   3.057   1.772   5.014 -1.0486  0.0636  0.4122
  690MOL0     H93124   3.128   1.519   4.878 -0.3002 -0.4954  0.7314
  690MOL0     H93125   3.207   1.681   4.849  0.8173  0.2146  0.2669
  690MOL0     H93126   2.896   1.652   4.830 -0.3542 -0.4912 -0.8236
  690MOL0     H93127   2.989   1.781   4.753 -1.9628  0.2759 -0.1606
  690MOL0     H93128   2.992   1.477   4.656 -1.0935 -0.9284 -3.9796
  690MOL0     H93129   3.085   1.614   4.601 -0.6817  1.6625  1.1048
  690MOL0     H93130   2.776   1.564   4.616 -0.6605  3.6427  0.7767
  690MOL0     H93131   2.858   1.545   4.466 -1.4541 -0.7876 -1.1550
  690MOL0     H93132   3.658   1.673   5.262 -1.4358 -0.2856 -1.2465
  690MOL0     H93133   3.839   1.567   5.376  0.4183 -2.3694  1.5171
  690MOL0     H93134   3.967   1.359   5.780  0.6233 -0.0732  2.4648
  690MOL0     H93135   4.153   1.245   5.891  1.4095  1.8092  0.0110
  690MOL0     H93136   5.798   2.045   5.765 -0.1970  2.7704  3.0833
  690MOL0     H93137   6.029   2.070   5.810 -2.2744 -2.4543 -0.8579
  690MOL0     H93138   6.391   2.343   6.037 -0.2974  0.2682 -0.7171
  690MOL0     H93139   6.638   2.310   6.087  0.3562  0.1267 -0.3324
  690MOL0     H93140   6.843   2.032   5.825  2.2285 -0.4494  1.8018
  690MOL0     H93141   6.920   2.169   5.726 -2.4687  0.3583 -1.0654
  690MOL0     H93142   6.977   2.052   5.996 -1.1996 -4.2239 -1.7550
  690MOL0     H93143   7.075   2.183   5.925  1.5949  0.6809 -3.6032
  690MOL0     H93144   7.062   1.921   5.772  0.2360  0.1239 -0.2959
  690MOL0     H93145   7.162   1.934   5.906 -1.2727 -0.3460  0.8249
  690MOL0     H93146   7.271   2.150   5.789  0.2604  0.4788  1.1687
  690MOL0     H93147   7.138   2.122   5.667 -0.2548  0.0217  1.4137
  690MOL0     H93148   7.422   1.830   5.556  1.9249  3.5920 -4.6327
  690MOL0     H93149   6.686   2.162   5.678  0.5874 -1.8570  0.8661
  690MOL0     H93150   6.450   2.172   5.648 -0.2954 -0.6697  0.2563
  691MOL0     O93151   6.607   6.276   7.507 -0.2414 -0.0972 -0.2896
  691MOL0     C93152   6.561   6.165   7.522 -1.0167  0.9400  0.0287
  691MOL0     O93153   6.445   6.113   7.465 -0.6944  0.0024  0.1081
  691MOL0     C93154   6.384   6.201   7.376  0.4787 -1.1566 -0.3678
  691MOL0     C93155   6.350   6.154   7.250  0.2136 -0.4056 -0.4784
  691MOL0     C93156   6.277   6.227   7.160 -0.2314  0.2616 -0.4864
  691MOL0     C93157   6.215   6.340   7.202 -0.0077  0.1049 -0.0650
  691MOL0     O93158   6.117   6.378   7.115 -0.2472  0.0021 -0.5274
  691MOL0     C93159   5.981   6.380   7.167 -0.4583  0.7311 -0.1005
  691MOL0     C93160   5.880   6.444   7.074  0.3653 -0.1146 -0.2807
  691MOL0     C93161   5.866   6.366   6.946 -0.8193  0.3285 -0.7513
  691MOL0     C93162   5.739   6.405   6.876  1.0201  0.2988 -0.2134
  691MOL0     C93163   5.744   6.537   6.794  0.5261 -0.7161  0.7615
  691MOL0     C93164   5.756   6.522   6.643 -0.0741  0.7411 -0.2297
  691MOL0     C93165   5.910   6.516   6.605  0.4609 -0.6178  0.6519
  691MOL0     C93166   5.932   6.466   6.459  0.7709  0.2573  0.4713
  691MOL0     N93167   6.071   6.500   6.421  0.3769 -0.1672  0.8928
  691MOL0     C93168   6.118   6.617   6.366 -0.6095 -0.2452  0.4334
  691MOL0     C93169   6.252   6.614   6.358 -0.1919 -0.0758  0.3396
  691MOL0     C93170   6.339   6.723   6.294 -0.4801  0.6714 -0.0790
  691MOL0     C93171   6.338   6.857   6.367 -0.2405  0.2440  0.2561
  691MOL0     C93172   6.433   6.954   6.302 -0.5048  1.0977 -0.2612
  691MOL0     C93173   6.409   7.094   6.342 -0.5651 -0.5580 -0.0747
  691MOL0     O93174   6.487   7.105   6.465  0.3908 -0.5509 -0.0518
  691MOL0     C93175   6.478   7.216   6.547  0.5770  0.5794  0.0828
  691MOL0     C93176   6.565   7.221   6.662 -0.7773  0.0230  0.0973
  691MOL0     C93177   6.555   7.324   6.758 -0.6185 -0.9319  0.4464
  691MOL0     C93178   6.625   7.305   6.892 -0.1610 -0.2929  0.1168
  691MOL0     C93179   6.462   7.431   6.738 -0.0726 -0.4830  0.5594
  691MOL0     C93180   6.427   7.535   6.833  0.0504  0.3643  0.0467
  691MOL0     O93181   6.305   7.591   6.821 -0.2543  0.0809 -0.1470
  691MOL0     C93182   6.271   7.692   6.904 -0.1028  0.0675 -0.4378
  691MOL0     C93183   6.146   7.675   6.963  0.4790  1.4215 -0.7417
  691MOL0     C93184   6.077   7.780   7.026  0.3461  0.5370  0.1379
  691MOL0     C93185   6.149   7.899   7.052  0.0823  0.4361 -0.2213
  691MOL0     O93186   6.089   8.004   7.104 -0.0477 -0.0240 -0.3211
  691MOL0     C93187   5.968   7.994   7.181  0.2357 -0.2383 -0.3116
  691MOL0     C93188   5.946   8.126   7.273 -0.4881  0.0832  0.5653
  691MOL0     C93189   6.071   8.146   7.358  0.3831 -0.3416  0.9540
  691MOL0     C93190   6.038   8.220   7.492  0.6041 -0.4742 -0.4300
  691MOL0     C93191   6.162   8.282   7.548 -0.4251 -1.0783 -0.3199
  691MOL0     C93192   6.154   8.300   7.700  0.7862  0.0113  0.3240
  691MOL0     C93193   6.286   8.366   7.740 -0.7670 -0.1531  0.5281
  691MOL0     C93194   6.308   8.370   7.890 -0.0605  0.4731  0.0204
  691MOL0    Cl93195   6.160   8.388   7.997  0.2287  0.3737  0.0763
  691MOL0     C93196   6.281   7.909   7.002 -0.2053 -0.4121  0.6559
  691MOL0     C93197   6.342   7.800   6.941  0.2395 -0.4323 -0.5791
  691MOL0     O93198   6.512   7.567   6.917  0.2163  0.5514  0.2029
  691MOL0     C93199   6.382   7.433   6.619 -0.7073  0.2427 -1.0787
  691MOL0     C93200   6.386   7.318   6.524  0.2413 -0.5346 -0.4815
  691MOL0     N93201   6.293   6.492   6.399  0.0954  0.0670  0.1132
  691MOL0     N93202   6.187   6.429   6.432  0.1355  0.4588 -0.1867
  691MOL0     C93203   6.225   6.382   7.329 -0.0895  1.0192 -0.0569
  691MOL0     C93204   6.319   6.320   7.412 -0.3737 -0.5047  0.5611
  691MOL0     C93205   6.646   6.079   7.610  0.1116  0.5567  0.4471
  691MOL0     C93206   6.762   6.116   7.683  0.9152  0.2475  0.9942
  691MOL0     C93207   6.833   6.021   7.759 -0.0645  1.3212  0.5652
  691MOL0     C93208   6.794   5.889   7.767  0.6046 -0.1556  0.0157
  691MOL0     O93209   6.872   5.807   7.858 -0.1693 -0.4078  0.6632
  691MOL0     C93210   6.837   5.673   7.869 -0.4942  0.5148 -0.7251
  691MOL0     C93211   6.895   5.590   7.754 -0.1594 -0.2239 -0.2905
  691MOL0     C93212   6.903   5.440   7.796 -0.4350  0.0715  0.5633
  691MOL0     C93213   6.951   5.351   7.677  0.5866  0.2457 -0.0303
  691MOL0     C93214   7.087   5.367   7.640 -0.5287  0.4237 -0.0369
  691MOL0     C93215   7.200   5.375   7.601 -0.1068  1.4861 -0.0463
  691MOL0     C93216   6.688   5.848   7.677  1.0490  0.1704 -0.3114
  691MOL0     C93217   6.623   5.939   7.595 -0.1918 -0.3885  0.2365
  691MOL0     H93218   6.398   6.059   7.229 -0.1158 -0.9262  1.0285
  691MOL0     H93219   6.265   6.186   7.061  3.9592 -0.3094 -0.9616
  691MOL0     H93220   5.943   6.282   7.198 -2.4708  0.1712 -3.7576
  691MOL0     H93221   5.972   6.445   7.255  0.5513 -1.2521  1.5614
  691MOL0     H93222   5.786   6.443   7.129  0.6780  1.3196  0.3322
  691MOL0     H93223   5.897   6.551   7.053  0.0154 -0.0911 -0.4570
  691MOL0     H93224   5.959   6.372   6.889  1.6483 -2.2773  2.5830
  691MOL0     H93225   5.866   6.259   6.969  2.4048  0.3897  0.0274
  691MOL0     H93226   5.711   6.322   6.810  1.1243 -1.0451  1.3797
  691MOL0     H93227   5.658   6.421   6.947  1.5305 -0.7572  0.6304
  691MOL0     H93228   5.645   6.583   6.798  0.9125  0.0638  1.6689
  691MOL0     H93229   5.815   6.605   6.840 -0.6490  0.6243  0.6541
  691MOL0     H93230   5.689   6.441   6.612  1.0550  0.9315 -3.5050
  691MOL0     H93231   5.715   6.610   6.593 -1.9810  1.1847  1.9243
  691MOL0     H93232   5.956   6.615   6.614 -1.6676  0.6055 -0.9964
  691MOL0     H93233   5.967   6.457   6.678  1.0541  0.0037  0.7056
  691MOL0     H93234   5.859   6.521   6.399 -0.6280  0.7397  2.5525
  691MOL0     H93235   5.913   6.360   6.439 -1.7351  0.9320 -1.1308
  691MOL0     H93236   6.067   6.702   6.320  0.2941 -1.2183 -2.5867
  691MOL0     H93237   6.443   6.691   6.287 -0.2519  1.7814 -2.6740
  691MOL0     H93238   6.309   6.738   6.190 -2.6426  1.1170  0.5548
  691MOL0     H93239   6.359   6.846   6.473 -1.4346 -1.2507  0.3798
  691MOL0     H93240   6.240   6.903   6.350  0.7191  1.6786 -1.7229
  691MOL0     H93241   6.412   6.948   6.195 -0.1411 -1.6113 -0.2441
  691MOL0     H93242   6.533   6.915   6.322 -1.7021 -1.1205  1.9657
  691MOL0     H93243   6.304   7.123   6.350 -0.3363  1.4219 -2.9114
  691MOL0     H93244   6.450   7.160   6.265 -1.6905 -1.4405 -1.4831
  691MOL0     H93245   6.632   7.137   6.673  1.6781  1.4580 -2.4578
  691MOL0     H93246   6.554   7.259   6.962  0.6687 -0.9960  0.5112
  691MOL0     H93247   6.706   7.235   6.871  1.1828  0.9595  0.8817
  691MOL0     H93248   6.661   7.400   6.933 -3.4427  1.3904 -0.5304
  691MOL0     H93249   6.096   7.584   6.930  2.4260  0.7986 -2.1369
  691MOL0     H93250   5.975   7.764   7.059 -1.6016  0.4847 -4.9240
  691MOL0     H93251   5.880   7.993   7.116  1.4999  4.9703 -2.7027
  691MOL0     H93252   5.969   7.899   7.234  1.6897 -1.4692 -2.4114
  691MOL0     H93253   5.923   8.208   7.205 -1.3993  0.0420  0.8023
  691MOL0     H93254   5.859   8.108   7.338  2.5884 -2.2226  4.5206
  691MOL0     H93255   6.137   8.211   7.300  0.2699 -0.5833  0.5488
  691MOL0     H93256   6.119   8.050   7.382  0.0085 -1.3214 -1.8081
  691MOL0     H93257   5.983   8.309   7.462  3.6727  2.1101  1.0143
  691MOL0     H93258   5.992   8.153   7.566  2.6380 -0.8833  0.5411
  691MOL0     H93259   6.195   8.379   7.510  0.9675  0.2635  3.7705
  691MOL0     H93260   6.248   8.218   7.528  0.4440 -0.6196  1.6320
  691MOL0     H93261   6.058   8.350   7.717 -0.4686 -2.1291 -0.0313
  691MOL0     H93262   6.146   8.208   7.758 -0.9819  0.1543  0.3645
  691MOL0     H93263   6.289   8.466   7.696 -3.4099 -0.6315 -0.9989
  691MOL0     H93264   6.368   8.310   7.694 -1.3178 -2.0260  1.6948
  691MOL0     H93265   6.382   8.444   7.919 -1.4377  1.4271  1.2742
  691MOL0     H93266   6.351   8.272   7.914  0.9715  0.8980 -0.0543
  691MOL0     H93267   6.340   8.001   7.005  2.3409 -1.9420  0.6095
  691MOL0     H93268   6.442   7.810   6.901  0.2252  0.7172 -0.3784
  691MOL0     H93269   6.322   7.522   6.603  0.0677  1.1680  0.8547
  691MOL0     H93270   6.318   7.330   6.441 -0.9743  0.4569  0.5977
  691MOL0     H93271   6.159   6.456   7.374 -0.3785 -0.1834  1.6082
  691MOL0     H93272   6.343   6.357   7.511  2.5926 -0.9137  0.0934
  691MOL0     H93273   6.803   6.216   7.676 -0.4534  0.8257  0.6996
  691MOL0     H93274   6.911   6.061   7.824  0.2276 -0.0684  1.0967
  691MOL0     H93275   6.889   5.639   7.959  1.6497  1.0009 -1.7062
  691MOL0     H93276   6.729   5.658   7.878 -0.6401  0.1452 -2.6044
  691MOL0     H93277   6.997   5.626   7.742 -0.2873  1.0273  1.8394
  691MOL0     H93278   6.842   5.606   7.659 -0.0301  0.1151 -0.3045
  691MOL0     H93279   6.802   5.408   7.821 -0.4523  0.3206  0.8190
  691MOL0     H93280   6.973   5.427   7.880  0.7599  3.1040  0.1561
  691MOL0     H93281   6.886   5.363   7.589 -0.0521 -1.1934  0.2212
  691MOL0     H93282   6.945   5.252   7.723  0.7871 -0.0882 -0.7049
  691MOL0     H93283   7.302   5.403   7.582  0.3027  0.2303  0.1939
  691MOL0     H93284   6.650   5.747   7.665  0.6657  0.4859 -2.2558
  691MOL0     H93285   6.540   5.920   7.528 -1.1395  0.2680  1.1819
  692MOL0     O93286   0.455   6.257  10.088  0.4122 -0.2796  0.7867
  692MOL0     C93287   0.410   6.176  10.002  0.0276 -0.2067  0.1991
  692MOL0     O93288   0.290   6.111  10.012 -0.0131 -0.7206 -0.6690
  692MOL0     C93289   0.230   6.100  10.135  1.1362  0.4749 -0.2890
  692MOL0     C93290   0.300   6.068  10.254  0.0782  0.7366 -0.0136
  692MOL0     C93291   0.233   6.051  10.382 -1.0255  0.3863 -0.4846
  692MOL0     C93292   0.092   6.064  10.393 -0.8512  0.6577 -0.8891
  692MOL0     O93293   0.043   6.048  10.519 -0.3572  0.4548  0.3281
  692MOL0     C93294  -0.078   6.125  10.546 -0.0836 -0.9211 -0.5369
  692MOL0     C93295  -0.139   6.082  10.675 -0.9342  0.2865 -0.5299
  692MOL0     C93296  -0.297   6.118  10.689 -0.6763  0.3369  0.3433
  692MOL0     C93297  -0.397   6.020  10.612 -0.2642  0.4213 -0.2163
  692MOL0     C93298  -0.538   6.050  10.646  0.3074 -0.4002  0.4609
  692MOL0     C93299  -0.598   5.951  10.749 -0.8050 -0.4670  0.4715
  692MOL0     C93300  -0.714   6.017  10.826  0.5788 -0.1542  0.2435
  692MOL0     C93301  -0.658   6.113  10.937 -0.8029  0.7044  0.1281
  692MOL0     N93302  -0.589   6.040  11.045 -0.1818 -0.0253 -0.9944
  692MOL0     C93303  -0.636   5.918  11.100  0.3699  0.4503  0.4960
  692MOL0     C93304  -0.523   5.872  11.163  0.6445 -1.2743  1.1513
  692MOL0     C93305  -0.514   5.745  11.251 -0.2677  0.1311 -0.3921
  692MOL0     C93306  -0.597   5.750  11.383  0.1842 -0.5991 -0.1945
  692MOL0     C93307  -0.747   5.763  11.368  0.4437  0.0414 -0.4492
  692MOL0     C93308  -0.831   5.726  11.489  0.4694  0.5297 -1.1663
  692MOL0     O93309  -0.962   5.713  11.454 -0.9617  0.2114  0.7556
  692MOL0     C93310  -1.050   5.681  11.550 -0.5533  0.6820 -0.0621
  692MOL0     C93311  -1.023   5.665  11.689 -0.0053  0.5527  0.2054
  692MOL0     C93312  -1.126   5.628  11.782  0.1663  0.6829  0.6085
  692MOL0     C93313  -1.085   5.618  11.929  0.3340 -0.4795 -0.6858
  692MOL0     C93314  -1.259   5.597  11.734  0.7818 -0.2534  0.0612
  692MOL0     C93315  -1.370   5.554  11.827  0.2283  0.4739  0.6204
  692MOL0     O93316  -1.494   5.543  11.767 -0.6004  0.0941 -0.9962
  692MOL0     C93317  -1.611   5.508  11.842 -0.7152  0.5268  0.1878
  692MOL0     C93318  -1.619   5.520  11.986  0.8834 -0.0214  0.4841
  692MOL0     C93319  -1.732   5.482  12.057 -0.9710 -0.3377  0.2854
  692MOL0     C93320  -1.843   5.436  11.988 -0.4902  0.0233 -0.1782
  692MOL0     O93321  -1.947   5.373  12.055 -0.2397  0.2623 -0.6679
  692MOL0     C93322  -2.085   5.385  12.014  1.0368  0.2917  0.5723
  692MOL0     C93323  -2.158   5.249  11.984 -0.4574 -0.2771  0.3243
  692MOL0     C93324  -2.300   5.291  11.925 -0.2165 -1.1903 -0.2488
  692MOL0     C93325  -2.385   5.165  11.916  0.7769 -0.5621 -0.9285
  692MOL0     C93326  -2.535   5.186  11.942  0.1187 -0.1625 -1.1019
  692MOL0     C93327  -2.618   5.059  11.934  0.3705 -0.1772 -0.0597
  692MOL0     C93328  -2.766   5.102  11.926  0.5940  0.6201  0.4945
  692MOL0     C93329  -2.867   4.995  11.929  1.0673  1.0583 -0.7576
  692MOL0    Cl93330  -3.006   5.071  11.874  0.0703  0.1679 -0.1374
  692MOL0     C93331  -1.849   5.434  11.849 -0.0130 -0.1265 -0.1142
  692MOL0     C93332  -1.728   5.464  11.775  0.5191  0.1607  0.0401
  692MOL0     O93333  -1.345   5.511  11.940  0.2644  1.2278 -0.1228
  692MOL0     C93334  -1.277   5.618  11.595  0.7039 -1.0658 -0.0490
  692MOL0     C93335  -1.171   5.659  11.502  0.1825  0.0958 -0.0032
  692MOL0     N93336  -0.420   5.967  11.143 -0.0244 -0.2467  1.0701
  692MOL0     N93337  -0.456   6.065  11.074  0.6759 -0.0271 -0.0745
  692MOL0     C93338   0.021   6.085  10.281 -0.2959 -0.1806  0.0992
  692MOL0     C93339   0.086   6.102  10.156 -0.3618 -1.1670 -0.5975
  692MOL0     C93340   0.492   6.153   9.881 -0.5755 -0.5590 -0.6338
  692MOL0     C93341   0.451   6.069   9.774 -0.1039 -0.7125  1.3461
  692MOL0     C93342   0.538   6.051   9.664 -0.9588 -0.6141  0.2165
  692MOL0     C93343   0.666   6.109   9.666 -0.6904 -0.2121  0.2658
  692MOL0     O93344   0.735   6.096   9.545 -0.6358 -0.4610  0.3860
  692MOL0     C93345   0.863   6.040   9.545 -0.1123 -0.2088 -0.3416
  692MOL0     C93346   0.867   5.902   9.468 -0.0580 -0.8757  0.4529
  692MOL0     C93347   1.015   5.899   9.429  0.2923  0.5252  1.0141
  692MOL0     C93348   1.060   5.786   9.333 -0.1338  1.0770 -0.1297
  692MOL0     C93349   0.982   5.796   9.203 -0.8035  0.5054 -0.0072
  692MOL0     C93350   0.914   5.788   9.110  0.1897  0.9967 -0.8173
  692MOL0     C93351   0.707   6.198   9.759  0.8209 -0.2613 -1.0722
  692MOL0     C93352   0.622   6.202   9.875 -0.7916  0.4889 -0.2426
  692MOL0     H93353   0.407   6.049  10.255  0.3784  2.1935  1.4099
  692MOL0     H93354   0.289   6.010  10.466  1.2468 -0.5025 -2.3052
  692MOL0     H93355  -0.056   6.232  10.548 -1.0626 -0.7010 -1.0536
  692MOL0     H93356  -0.151   6.112  10.466 -0.1554  1.6248 -0.9746
  692MOL0     H93357  -0.119   5.976  10.691  1.1535  0.8074  0.6972
  692MOL0     H93358  -0.084   6.132  10.756  0.0658 -1.8729  0.1956
  692MOL0     H93359  -0.323   6.127  10.795 -1.6553 -1.4206  0.2984
  692MOL0     H93360  -0.296   6.215  10.639 -3.3276 -0.2885 -1.0883
  692MOL0     H93361  -0.377   6.035  10.505  1.8745  1.6089  0.2912
  692MOL0     H93362  -0.373   5.919  10.646  1.9367  1.2612  0.9145
  692MOL0     H93363  -0.541   6.145  10.698  0.2040 -0.6703  0.9529
  692MOL0     H93364  -0.606   6.052  10.560  1.0878 -0.4872 -0.1708
  692MOL0     H93365  -0.616   5.865  10.683  0.8666 -0.9672  0.6358
  692MOL0     H93366  -0.520   5.922  10.819  3.6164  3.5448 -2.2054
  692MOL0     H93367  -0.783   6.067  10.758  0.5613  1.5731  1.4757
  692MOL0     H93368  -0.774   5.949  10.887 -1.2015 -1.4888 -2.7730
  692MOL0     H93369  -0.733   6.156  11.004 -0.1871 -1.4302  2.3644
  692MOL0     H93370  -0.598   6.190  10.889 -4.8702  3.5977 -0.8464
  692MOL0     H93371  -0.739   5.882  11.094  0.9295 -1.5413  1.7334
  692MOL0     H93372  -0.551   5.655  11.202 -0.1628 -1.6598  2.5496
  692MOL0     H93373  -0.408   5.740  11.278 -0.5662 -0.8687  0.6802
  692MOL0     H93374  -0.566   5.842  11.435  0.1448 -1.0076  0.5600
  692MOL0     H93375  -0.580   5.658  11.438 -2.6898 -1.9473 -1.3428
  692MOL0     H93376  -0.775   5.703  11.281  3.3391 -4.1988  1.2573
  692MOL0     H93377  -0.771   5.865  11.336  1.0754  0.0996 -0.7387
  692MOL0     H93378  -0.840   5.815  11.552  0.7456  0.6525 -1.2982
  692MOL0     H93379  -0.797   5.641  11.549 -2.4794 -0.0703 -0.1425
  692MOL0     H93380  -0.933   5.687  11.745 -0.2690  1.7197  0.2044
  692MOL0     H93381  -1.150   5.685  11.986  0.6413  1.5441 -2.5965
  692MOL0     H93382  -1.082   5.522  11.981 -2.8735 -0.0387  0.5142
  692MOL0     H93383  -0.980   5.647  11.942  0.3892 -1.0511  0.2412
  692MOL0     H93384  -1.544   5.563  12.051  1.6855  0.5965 -0.8045
  692MOL0     H93385  -1.721   5.493  12.164 -0.5235 -1.0517  0.3169
  692MOL0     H93386  -2.137   5.417  12.105  0.3873 -0.0728  0.3298
  692MOL0     H93387  -2.092   5.454  11.929  0.9897 -2.1826 -1.5642
  692MOL0     H93388  -2.103   5.194  11.908  1.8064  4.0277 -1.5035
  692MOL0     H93389  -2.166   5.197  12.080  0.9801 -3.7008 -1.2565
  692MOL0     H93390  -2.300   5.347  11.832 -1.9778  2.1111  1.5386
  692MOL0     H93391  -2.342   5.362  11.998  0.4959  0.3054 -1.2436
  692MOL0     H93392  -2.385   5.139  11.810  1.4377  1.4292 -1.4660
  692MOL0     H93393  -2.349   5.080  11.974 -5.7460 -1.3254  2.9180
  692MOL0     H93394  -2.566   5.261  11.869  0.1741  1.9363  0.9295
  692MOL0     H93395  -2.557   5.231  12.040  0.1821  0.3429 -1.3194
  692MOL0     H93396  -2.597   5.006  11.840  0.6147 -0.4492  0.1468
  692MOL0     H93397  -2.593   4.993  12.017 -1.1297 -0.4075  0.2428
  692MOL0     H93398  -2.780   5.163  11.836  0.6271  0.8143  0.6204
  692MOL0     H93399  -2.785   5.155  12.019  0.1466 -0.9318  1.3299
  692MOL0     H93400  -2.881   4.944  12.025  0.9269  1.9134 -0.3200
  692MOL0     H93401  -2.850   4.919  11.851  0.7362 -1.2974  1.3274
  692MOL0     H93402  -1.924   5.376  11.796  0.4807 -1.8533  0.9873
  692MOL0     H93403  -1.722   5.472  11.667  0.9461  0.6337  0.0969
  692MOL0     H93404  -1.378   5.601  11.561  1.1313 -0.7011 -1.5411
  692MOL0     H93405  -1.203   5.690  11.403  0.2193 -1.3137 -0.4855
  692MOL0     H93406  -0.085   6.103  10.269 -0.2957 -0.4188 -0.2771
  692MOL0     H93407   0.017   6.114  10.073  1.3285  1.6224 -1.7457
  692MOL0     H93408   0.353   6.021   9.778 -1.5482  1.5070 -2.1801
  692MOL0     H93409   0.497   6.000   9.578  1.3552  0.0670 -1.3680
  692MOL0     H93410   0.944   6.104   9.512  1.5101 -2.3379 -0.7351
  692MOL0     H93411   0.895   6.022   9.649  2.0228 -3.6095 -1.3973
  692MOL0     H93412   0.802   5.892   9.380 -1.5175  0.4139  1.3248
  692MOL0     H93413   0.841   5.820   9.535 -0.8377 -1.9658 -1.1431
  692MOL0     H93414   1.082   5.894   9.516  2.7286  3.7581 -0.4459
  692MOL0     H93415   1.029   5.987   9.366 -1.3539 -0.2018 -0.4388
  692MOL0     H93416   1.043   5.692   9.388  3.8823  0.1361 -0.2070
  692MOL0     H93417   1.169   5.797   9.325 -0.2140  2.2123  0.1357
  692MOL0     H93418   0.850   5.768   9.026 -0.4522  2.0808 -0.6159
  692MOL0     H93419   0.796   6.260   9.756 -0.7338  2.3143  1.3887
  692MOL0     H93420   0.659   6.260   9.959 -1.1628  1.8243 -0.9795
  693MOL0     O93421   1.604   0.820   0.674 -0.2434  1.1551  0.5275
  693MOL0     C93422   1.672   0.800   0.775  0.7187  0.7861  0.3668
  693MOL0     O93423   1.628   0.728   0.886 -0.7811 -0.1299 -0.2908
  693MOL0     C93424   1.493   0.708   0.894 -0.1142 -0.2366 -0.3857
  693MOL0     C93425   1.424   0.774   1.000  0.2849 -0.1553  0.2932
  693MOL0     C93426   1.281   0.743   1.004  0.2390 -0.3568 -1.1473
  693MOL0     C93427   1.214   0.665   0.909  0.4887  0.7923 -0.3785
  693MOL0     O93428   1.083   0.694   0.904  0.0482 -0.9864 -0.2468
  693MOL0     C93429   0.995   0.659   0.793  0.8642  0.0210 -0.1446
  693MOL0     C93430   0.856   0.717   0.830  1.9570  0.6104 -0.0753
  693MOL0     C93431   0.792   0.652   0.955  0.2611 -0.4624 -0.9887
  693MOL0     C93432   0.705   0.532   0.921 -0.5815 -0.7107  1.1460
  693MOL0     C93433   0.603   0.496   1.030  0.3146 -0.7784  0.3655
  693MOL0     C93434   0.490   0.404   0.968  0.4180 -0.0929 -0.9893
  693MOL0     C93435   0.390   0.340   1.070 -0.0150 -0.1257 -0.4249
  693MOL0     C93436   0.347   0.428   1.188 -0.5855 -0.5678  0.5179
  693MOL0     N93437   0.266   0.363   1.282 -0.1659 -0.0892 -0.5847
  693MOL0     C93438   0.313   0.287   1.390 -0.2416 -0.0250 -1.3242
  693MOL0     C93439   0.205   0.269   1.470  0.0333  0.6795  0.3409
  693MOL0     C93440   0.194   0.201   1.601 -0.6842 -0.0070  0.0816
  693MOL0     C93441   0.056   0.208   1.659 -0.0516  0.4155  0.5822
  693MOL0     C93442   0.058   0.207   1.811 -0.2868 -0.1252 -0.0153
  693MOL0     C93443  -0.085   0.214   1.867 -0.0349 -1.0475 -0.1429
  693MOL0     O93444  -0.069   0.203   2.013 -0.2062 -0.2649  0.5859
  693MOL0     C93445  -0.171   0.155   2.082 -0.6931  0.1987 -0.6015
  693MOL0     C93446  -0.142   0.018   2.121  0.1384 -0.2161 -0.3833
  693MOL0     C93447  -0.224  -0.051   2.206 -0.6656  0.2436 -0.3091
  693MOL0     C93448  -0.195  -0.203   2.232  0.0942  0.4605 -0.1031
  693MOL0     C93449  -0.340   0.014   2.255  0.4937  0.6310 -0.3020
  693MOL0     C93450  -0.448  -0.045   2.348 -0.5409  0.0970  0.4821
  693MOL0     O93451  -0.544   0.039   2.382  0.1882  0.9047 -0.2094
  693MOL0     C93452  -0.644  -0.021   2.453  0.8140  0.2683 -0.8981
  693MOL0     C93453  -0.639  -0.087   2.578 -0.1313  0.6611 -0.6135
  693MOL0     C93454  -0.756  -0.138   2.649  0.5252  0.2780 -0.3954
  693MOL0     C93455  -0.873  -0.133   2.579  0.0103 -0.4051  0.2917
  693MOL0     O93456  -0.978  -0.190   2.646  0.3796  0.5324  0.0219
  693MOL0     C93457  -1.101  -0.108   2.647  0.7498  0.6419  0.0096
  693MOL0     C93458  -1.195  -0.160   2.760  1.4196 -0.0414 -0.3888
  693MOL0     C93459  -1.282  -0.280   2.711 -0.1006  0.0300  0.7908
  693MOL0     C93460  -1.325  -0.370   2.827  0.7806 -0.2272  0.2182
  693MOL0     C93461  -1.373  -0.509   2.776 -0.1686 -0.6942 -0.9119
  693MOL0     C93462  -1.532  -0.519   2.762  0.3520  0.0664  0.7367
  693MOL0     C93463  -1.559  -0.641   2.675  0.1588  0.0745  0.3635
  693MOL0     C93464  -1.705  -0.671   2.641 -0.5381  0.1043  0.0706
  693MOL0    Cl93465  -1.819  -0.671   2.783 -0.0747  0.1832 -0.3247
  693MOL0     C93466  -0.891  -0.062   2.455 -0.9284 -0.0415 -0.7997
  693MOL0     C93467  -0.770  -0.014   2.395  0.2714 -0.5653 -0.2420
  693MOL0     O93468  -0.452  -0.169   2.367  0.5147  0.4178  0.1223
  693MOL0     C93469  -0.373   0.140   2.202 -0.3994 -0.3448  0.1290
  693MOL0     C93470  -0.291   0.218   2.118 -0.6299  0.8260  0.0040
  693MOL0     N93471   0.090   0.337   1.420 -0.5175  0.4314  0.4823
  693MOL0     N93472   0.129   0.387   1.303  0.6139 -0.5289  0.3814
  693MOL0     C93473   1.291   0.601   0.811  0.0144 -0.2802  0.0668
  693MOL0     C93474   1.430   0.621   0.804 -0.7629 -0.9377 -0.4043
  693MOL0     C93475   1.791   0.876   0.806 -0.0136  0.0506 -0.0505
  693MOL0     C93476   1.868   0.930   0.704 -0.3595  0.2247  0.2231
  693MOL0     C93477   1.993   0.974   0.716 -0.0409  0.9288  0.6201
  693MOL0     C93478   2.052   0.977   0.849 -0.5612  0.1980 -0.3383
  693MOL0     O93479   2.179   1.034   0.852 -0.2572 -0.5357 -0.6728
  693MOL0     C93480   2.240   1.041   0.984 -0.2868  0.8280  0.7324
  693MOL0     C93481   2.378   1.100   0.971 -0.4224  0.0253 -0.4513
  693MOL0     C93482   2.468   1.116   1.095  0.6911 -0.2014  0.7809
  693MOL0     C93483   2.565   1.232   1.094 -0.6498  0.0940 -0.2663
  693MOL0     C93484   2.655   1.234   0.981  0.3979 -0.1044 -0.6234
  693MOL0     C93485   2.753   1.227   0.905 -0.2291 -0.1899 -0.4627
  693MOL0     C93486   1.977   0.919   0.954 -0.4723  0.5106 -0.6533
  693MOL0     C93487   1.843   0.883   0.935  0.4008 -0.4690 -0.0592
  693MOL0     H93488   1.476   0.844   1.064  0.1752  0.0832  0.1262
  693MOL0     H93489   1.229   0.783   1.090 -1.3513 -2.4382 -1.0762
  693MOL0     H93490   1.038   0.688   0.697 -0.0176  0.3879 -0.4415
  693MOL0     H93491   0.976   0.551   0.785  0.2768 -0.1665  2.7849
  693MOL0     H93492   0.868   0.825   0.844  3.1326  0.2068  2.8641
  693MOL0     H93493   0.785   0.712   0.747  0.8525 -1.7025  0.9048
  693MOL0     H93494   0.860   0.614   1.032 -0.4723  1.3141  0.6165
  693MOL0     H93495   0.734   0.731   1.003 -0.2382 -1.4779  0.1159
  693MOL0     H93496   0.640   0.555   0.836 -1.4744 -1.7064  1.5298
  693MOL0     H93497   0.773   0.454   0.885  1.7345  1.3443  0.7751
  693MOL0     H93498   0.654   0.449   1.115  1.0912  1.8301  1.4380
  693MOL0     H93499   0.544   0.579   1.069  2.1098 -0.8097  3.4904
  693MOL0     H93500   0.427   0.466   0.904 -3.3898 -2.6133 -0.0315
  693MOL0     H93501   0.532   0.321   0.910 -0.3367  0.6068 -2.6049
  693MOL0     H93502   0.304   0.298   1.017 -0.5213  0.6486 -0.2221
  693MOL0     H93503   0.454   0.267   1.121 -0.1705  0.7720  1.0873
  693MOL0     H93504   0.299   0.512   1.137 -0.0571 -1.3377 -1.3309
  693MOL0     H93505   0.433   0.471   1.241 -1.0323 -0.4583  1.1660
  693MOL0     H93506   0.411   0.252   1.419 -0.3972 -1.2725 -2.2449
  693MOL0     H93507   0.227   0.098   1.590 -3.4545 -0.7647 -2.2112
  693MOL0     H93508   0.264   0.249   1.671 -0.8894  1.1533 -0.4799
  693MOL0     H93509  -0.009   0.127   1.625 -2.4287 -0.8340  6.7609
  693MOL0     H93510   0.013   0.309   1.652  1.6039  1.3254  2.4149
  693MOL0     H93511   0.120   0.287   1.853  0.7716 -0.2200 -1.3057
  693MOL0     H93512   0.095   0.111   1.847 -3.8633 -1.1191  1.4200
  693MOL0     H93513  -0.153   0.141   1.822  0.1054  0.2281 -2.6175
  693MOL0     H93514  -0.134   0.309   1.843 -0.0161 -0.9688  0.1236
  693MOL0     H93515  -0.063  -0.042   2.077 -0.3498 -1.4013  0.3382
  693MOL0     H93516  -0.197  -0.226   2.339  3.6374  2.5023  0.5697
  693MOL0     H93517  -0.276  -0.254   2.179 -2.0132  0.8052  2.5363
  693MOL0     H93518  -0.096  -0.240   2.203  0.3341  1.5239 -0.7051
  693MOL0     H93519  -0.539  -0.097   2.618  0.0353 -0.6557 -1.3237
  693MOL0     H93520  -0.743  -0.181   2.748  0.5565 -0.8511 -0.8696
  693MOL0     H93521  -1.089   0.000   2.660  1.2520  0.9723 -2.6331
  693MOL0     H93522  -1.158  -0.126   2.555  0.5635  1.2409 -0.0018
  693MOL0     H93523  -1.133  -0.192   2.845  0.1043  0.4345  0.7831
  693MOL0     H93524  -1.271  -0.086   2.785  0.6026 -0.1377 -2.3985
  693MOL0     H93525  -1.234  -0.341   2.635 -1.5250  2.2771 -2.1064
  693MOL0     H93526  -1.370  -0.236   2.663 -0.0531 -0.0983  0.5856
  693MOL0     H93527  -1.242  -0.382   2.897  0.7521 -2.1375 -0.0097
  693MOL0     H93528  -1.416  -0.325   2.868  0.2647 -0.2437 -0.8659
  693MOL0     H93529  -1.344  -0.587   2.847  0.9722  1.0061  0.5800
  693MOL0     H93530  -1.323  -0.528   2.681  0.9208 -0.7186 -0.3438
  693MOL0     H93531  -1.589  -0.518   2.855 -1.8074  0.0525 -0.5039
  693MOL0     H93532  -1.564  -0.425   2.714  1.9316  2.0974  3.3736
  693MOL0     H93533  -1.510  -0.725   2.725  2.0151 -0.7997 -2.6912
  693MOL0     H93534  -1.508  -0.622   2.580 -0.1779  2.0586  0.5255
  693MOL0     H93535  -1.712  -0.774   2.607 -2.2660 -0.7926  2.7943
  693MOL0     H93536  -1.741  -0.611   2.557 -2.8575 -2.0143 -0.5684
  693MOL0     H93537  -0.982  -0.037   2.402 -2.3737  1.7528  2.2439
  693MOL0     H93538  -0.769   0.035   2.299  0.6753 -2.0337 -1.0171
  693MOL0     H93539  -0.461   0.190   2.242 -0.0900 -0.9901  1.6882
  693MOL0     H93540  -0.299   0.324   2.100  0.7231  0.9555  0.0865
  693MOL0     H93541   1.255   0.549   0.723  0.0645  2.2110 -1.5318
  693MOL0     H93542   1.484   0.575   0.722 -1.4422  3.2812 -3.5245
  693MOL0     H93543   1.830   0.930   0.602 -2.2837  2.8071  0.8362
  693MOL0     H93544   2.053   1.011   0.633  0.4155  0.2507  0.6414
  693MOL0     H93545   2.177   1.103   1.048 -1.1428  1.1980 -0.4454
  693MOL0     H93546   2.261   0.947   1.036  1.8155  0.2468 -1.0393
  693MOL0     H93547   2.373   1.197   0.922 -1.1969 -0.3903 -1.2376
  693MOL0     H93548   2.433   1.037   0.899 -0.3957 -0.3143 -0.1394
  693MOL0     H93549   2.519   1.023   1.121  2.0946  0.9941  2.6629
  693MOL0     H93550   2.393   1.126   1.174 -0.9983 -0.3461 -0.7620
  693MOL0     H93551   2.624   1.240   1.186  1.8340  3.9896 -1.9132
  693MOL0     H93552   2.500   1.320   1.091  1.2223  1.5262 -0.5492
  693MOL0     H93553   2.837   1.207   0.843 -0.3297  2.9394 -1.7901
  693MOL0     H93554   2.013   0.901   1.055 -0.4627  0.9455 -0.5771
  693MOL0     H93555   1.783   0.852   1.020  0.5809 -0.5593  0.0364
  694MOL0     O93556   1.460   6.606   0.434  0.5903 -0.4754  0.0567
  694MOL0     C93557   1.446   6.564   0.549 -0.5048  0.1319 -0.0455
  694MOL0     O93558   1.356   6.481   0.595  0.3124 -0.1871 -0.3935
  694MOL0     C93559   1.245   6.462   0.521 -0.8007  0.1726  0.1258
  694MOL0     C93560   1.223   6.329   0.477 -0.3129 -0.1423 -0.1443
  694MOL0     C93561   1.105   6.298   0.406  0.3340 -0.0102 -0.2754
  694MOL0     C93562   1.018   6.405   0.374  0.2319  0.7389  0.7971
  694MOL0     O93563   0.902   6.369   0.311  0.6035  0.0133 -0.4557
  694MOL0     C93564   0.783   6.429   0.357  0.3113  0.2432 -0.5179
  694MOL0     C93565   0.746   6.523   0.234 -0.0931 -0.1182 -0.1413
  694MOL0     C93566   0.611   6.596   0.268  0.6482  0.3759  0.2264
  694MOL0     C93567   0.579   6.706   0.166 -0.1892  0.5558 -0.2294
  694MOL0     C93568   0.444   6.785   0.204 -0.5839  0.0672 -0.3877
  694MOL0     C93569   0.308   6.726   0.171 -0.5723  0.2684 -0.7393
  694MOL0     C93570   0.266   6.627   0.270 -0.2242  0.1024 -0.3315
  694MOL0     C93571   0.112   6.619   0.297  0.2287  0.2049 -0.3272
  694MOL0     N93572   0.030   6.648   0.176  0.1195 -0.1505  0.2548
  694MOL0     C93573   0.033   6.574   0.062  0.5239  0.2498  1.0256
  694MOL0     C93574  -0.020   6.658  -0.029  0.4133  0.5729  0.1061
  694MOL0     C93575  -0.017   6.629  -0.172  0.2960 -0.6981 -0.1136
  694MOL0     C93576  -0.153   6.611  -0.242  1.1842 -1.1878 -1.3551
  694MOL0     C93577  -0.235   6.499  -0.182 -1.0109 -0.5246  0.3028
  694MOL0     C93578  -0.370   6.494  -0.243 -0.5231 -0.3155  0.0721
  694MOL0     O93579  -0.346   6.460  -0.381 -0.1079  0.3140 -0.0848
  694MOL0     C93580  -0.458   6.454  -0.461 -0.3851 -1.0043  0.5741
  694MOL0     C93581  -0.590   6.447  -0.426  0.6781  0.1060 -0.1365
  694MOL0     C93582  -0.692   6.462  -0.521  0.9866 -0.0493  0.3705
  694MOL0     C93583  -0.832   6.444  -0.463  0.1901 -0.8156 -0.3494
  694MOL0     C93584  -0.661   6.480  -0.659 -0.1596  0.4996  0.0737
  694MOL0     C93585  -0.759   6.472  -0.761 -0.1776 -0.3079  0.3876
  694MOL0     O93586  -0.716   6.429  -0.885 -0.3538  0.0010 -0.2503
  694MOL0     C93587  -0.799   6.394  -0.995  0.2399 -0.2773  0.1308
  694MOL0     C93588  -0.814   6.267  -1.035 -1.6253  0.4191 -0.2594
  694MOL0     C93589  -0.878   6.236  -1.158 -0.0221 -0.1484 -0.1153
  694MOL0     C93590  -0.914   6.333  -1.249 -0.2666  0.6373  0.5811
  694MOL0     O93591  -0.981   6.314  -1.364 -0.4807  0.2065  0.4182
  694MOL0     C93592  -0.901   6.347  -1.478  0.8800  0.1894  0.1230
  694MOL0     C93593  -0.958   6.276  -1.595  0.4455 -0.0801  0.3724
  694MOL0     C93594  -0.946   6.125  -1.574 -0.7502 -0.5471 -0.1182
  694MOL0     C93595  -0.982   6.036  -1.699 -1.1380 -0.4558  0.2527
  694MOL0     C93596  -1.028   5.889  -1.663  1.0472 -0.9787  0.2479
  694MOL0     C93597  -1.050   5.817  -1.798 -0.6344  0.0203 -0.7923
  694MOL0     C93598  -1.062   5.669  -1.796  0.3841  0.0796  0.8201
  694MOL0     C93599  -1.146   5.616  -1.678 -0.1705 -0.4211 -0.0693
  694MOL0    Cl93600  -1.175   5.449  -1.701 -0.1102  0.0711  0.1186
  694MOL0     C93601  -0.897   6.464  -1.206 -0.4568  0.0325 -0.0275
  694MOL0     C93602  -0.852   6.495  -1.079  0.4313  0.0588 -0.4583
  694MOL0     O93603  -0.868   6.521  -0.738 -0.1975 -0.5951 -0.0446
  694MOL0     C93604  -0.525   6.471  -0.698 -0.9754  0.8086 -0.5351
  694MOL0     C93605  -0.424   6.466  -0.596  0.0523  0.2357  0.0272
  694MOL0     N93606  -0.060   6.780   0.028  0.2988 -0.1123  0.6428
  694MOL0     N93607  -0.036   6.771   0.154 -0.6865 -0.2275 -0.2121
  694MOL0     C93608   1.040   6.535   0.422  0.1856 -0.7649 -0.4482
  694MOL0     C93609   1.158   6.565   0.495  0.5941  1.0984  0.3378
  694MOL0     C93610   1.550   6.596   0.643 -0.0386 -0.5203 -0.0896
  694MOL0     C93611   1.594   6.504   0.739 -0.9194  0.9812  0.4534
  694MOL0     C93612   1.688   6.543   0.840 -0.6995 -0.3711 -0.1197
  694MOL0     C93613   1.754   6.669   0.839 -0.1793  0.2362 -0.1373
  694MOL0     O93614   1.851   6.701   0.927 -0.2564 -0.1196  0.7814
  694MOL0     C93615   1.856   6.641   1.054 -0.3789  0.6859  0.6256
  694MOL0     C93616   1.979   6.567   1.091 -0.4226  0.4880 -0.4142
  694MOL0     C93617   1.979   6.510   1.231  1.3161 -0.4192  0.0544
  694MOL0     C93618   2.128   6.495   1.290  0.1193 -0.9379 -0.5967
  694MOL0     C93619   2.182   6.371   1.247 -0.4928 -0.1445 -0.3923
  694MOL0     C93620   2.236   6.266   1.224  1.1699 -0.5017  0.1877
  694MOL0     C93621   1.711   6.763   0.744 -0.8633 -0.8869  1.1972
  694MOL0     C93622   1.617   6.719   0.637 -0.7208 -0.4144 -0.3463
  694MOL0     H93623   1.286   6.242   0.494  0.8138  0.8549  0.9189
  694MOL0     H93624   1.077   6.198   0.374 -2.2612  0.4122  0.4282
  694MOL0     H93625   0.705   6.354   0.363  0.2835  0.3013 -0.1685
  694MOL0     H93626   0.784   6.492   0.446 -3.2370 -0.8440  0.4508
  694MOL0     H93627   0.820   6.598   0.205 -0.9808  0.8008 -0.0759
  694MOL0     H93628   0.722   6.463   0.146  0.6999 -1.3501  0.4464
  694MOL0     H93629   0.543   6.511   0.270  0.0919  0.7667 -1.1570
  694MOL0     H93630   0.628   6.641   0.366 -0.9739  1.5249  0.0177
  694MOL0     H93631   0.663   6.776   0.170  0.9759 -0.5656 -2.8027
  694MOL0     H93632   0.568   6.678   0.061  0.1550  1.4222 -0.5117
  694MOL0     H93633   0.447   6.815   0.310 -1.4612 -3.1905  0.6654
  694MOL0     H93634   0.444   6.879   0.149 -3.1685  0.7882  0.6963
  694MOL0     H93635   0.238   6.807   0.148  2.2427  2.7999 -0.9004
  694MOL0     H93636   0.327   6.677   0.074 -0.5083  1.9603 -1.6218
  694MOL0     H93637   0.299   6.536   0.219 -0.6390  0.0716 -0.5525
  694MOL0     H93638   0.326   6.646   0.360 -1.1442  1.4616  0.0270
  694MOL0     H93639   0.092   6.690   0.378 -1.4143 -1.2355  0.6043
  694MOL0     H93640   0.097   6.524   0.349  1.4249  0.3281  0.2651
  694MOL0     H93641   0.084   6.478   0.055  2.2639  1.1821  0.2829
  694MOL0     H93642   0.034   6.707  -0.229  0.4265 -2.8024 -3.1368
  694MOL0     H93643   0.041   6.537  -0.176  0.0803 -0.9368  1.6973
  694MOL0     H93644  -0.143   6.595  -0.350  2.3731 -1.6813 -1.1877
  694MOL0     H93645  -0.211   6.702  -0.223  0.7978 -1.3507 -1.7290
  694MOL0     H93646  -0.244   6.508  -0.074  1.7295  1.2800  0.4905
  694MOL0     H93647  -0.186   6.403  -0.204 -1.2535 -0.5526 -0.1356
  694MOL0     H93648  -0.437   6.580  -0.236 -0.1465  0.1936 -1.8502
  694MOL0     H93649  -0.423   6.413  -0.192  4.5334 -2.0419  3.2867
  694MOL0     H93650  -0.612   6.439  -0.320 -2.0706  1.9275 -0.4785
  694MOL0     H93651  -0.866   6.543  -0.429  1.2007 -0.8632  0.8796
  694MOL0     H93652  -0.905   6.395  -0.528  0.9780 -1.1900 -0.9741
  694MOL0     H93653  -0.820   6.381  -0.375 -2.0376 -0.4498  0.2616
  694MOL0     H93654  -0.766   6.195  -0.970 -0.2686 -1.2012 -2.8619
  694MOL0     H93655  -0.876   6.137  -1.202  1.3304  0.2294 -0.9613
  694MOL0     H93656  -0.918   6.452  -1.499  0.4942 -0.4106 -2.9449
  694MOL0     H93657  -0.796   6.316  -1.467  0.2768 -2.8459 -1.5128
  694MOL0     H93658  -1.062   6.303  -1.612 -0.0988 -1.0324  1.8958
  694MOL0     H93659  -0.913   6.314  -1.687 -1.5918  3.8193  0.7986
  694MOL0     H93660  -1.009   6.095  -1.489  0.4992 -1.7495  0.4288
  694MOL0     H93661  -0.848   6.102  -1.532 -0.0484  1.0220 -0.8530
  694MOL0     H93662  -1.059   6.089  -1.756 -1.8940 -1.2434  0.5233
  694MOL0     H93663  -0.896   6.035  -1.767 -1.4119  0.4460 -0.1190
  694MOL0     H93664  -1.121   5.899  -1.607  0.2415 -2.2702 -0.8162
  694MOL0     H93665  -0.950   5.846  -1.599  0.8987  2.9931  3.5245
  694MOL0     H93666  -1.134   5.855  -1.857  0.2358  0.3960 -1.8066
  694MOL0     H93667  -0.958   5.831  -1.855  0.8209  0.1587  1.4674
  694MOL0     H93668  -0.964   5.622  -1.787  0.8607  0.6215 -1.1431
  694MOL0     H93669  -1.098   5.631  -1.892  1.3762  0.7987  0.1504
  694MOL0     H93670  -1.241   5.671  -1.670  0.7260  1.2639 -0.4892
  694MOL0     H93671  -1.092   5.640  -1.586 -0.8296  3.2714 -0.4780
  694MOL0     H93672  -0.943   6.532  -1.276  0.5142  1.1426  0.3808
  694MOL0     H93673  -0.839   6.599  -1.048 -3.6470  0.6339 -0.2055
  694MOL0     H93674  -0.489   6.472  -0.800  0.1658  1.4092 -0.1471
  694MOL0     H93675  -0.319   6.458  -0.621 -0.0258  2.4313 -1.2543
  694MOL0     H93676   0.982   6.622   0.394 -0.7041 -0.3606  2.3540
  694MOL0     H93677   1.178   6.669   0.521  3.7198  1.4800 -2.8692
  694MOL0     H93678   1.553   6.404   0.753  0.7481 -0.1472 -1.9114
  694MOL0     H93679   1.714   6.466   0.911 -0.8601 -3.4575 -3.1260
  694MOL0     H93680   1.857   6.727   1.121  2.1273  0.6017  0.8149
  694MOL0     H93681   1.767   6.581   1.075  0.8848 -1.3100  0.5912
  694MOL0     H93682   2.062   6.639   1.085  0.7010 -0.6782  0.6171
  694MOL0     H93683   1.999   6.490   1.017 -1.6907 -1.0206  0.7475
  694MOL0     H93684   1.940   6.408   1.221  1.5038 -0.3185 -2.3885
  694MOL0     H93685   1.910   6.560   1.299  1.0234 -2.3442  1.2731
  694MOL0     H93686   2.106   6.499   1.397 -0.6742  0.4292 -0.7823
  694MOL0     H93687   2.184   6.585   1.262  0.1293 -0.7002  0.1852
  694MOL0     H93688   2.263   6.168   1.189  0.4973  0.6827 -4.2699
  694MOL0     H93689   1.755   6.862   0.735 -1.4408 -0.7097  0.1442
  694MOL0     H93690   1.601   6.793   0.560  2.4030  0.0501 -0.6776
  695MOL0     O93691   6.880   7.369   4.019 -0.2400 -0.7650 -1.2430
  695MOL0     C93692   6.936   7.390   4.133  0.2899 -0.0848  1.0104
  695MOL0     O93693   6.986   7.285   4.211  0.1312 -0.4967  0.0948
  695MOL0     C93694   6.971   7.164   4.159  0.1632  0.5858  0.5273
  695MOL0     C93695   7.077   7.107   4.076 -0.5229  0.5961  0.0006
  695MOL0     C93696   7.045   6.979   4.023 -0.7902  0.7310  0.0614
  695MOL0     C93697   6.931   6.912   4.061  0.1001 -0.2931  0.0622
  695MOL0     O93698   6.921   6.780   4.013  0.1104  0.4477  0.2517
  695MOL0     C93699   6.816   6.693   4.060  0.5218 -0.1468 -0.1268
  695MOL0     C93700   6.843   6.557   3.999 -0.3619  0.2715  0.2411
  695MOL0     C93701   6.829   6.541   3.850 -0.7192  0.4980  0.6019
  695MOL0     C93702   6.677   6.532   3.820  0.2313  0.4006  0.1357
  695MOL0     C93703   6.653   6.551   3.678  0.7796 -0.4802  0.3258
  695MOL0     C93704   6.508   6.543   3.628  0.2158  0.3502 -0.2641
  695MOL0     C93705   6.441   6.676   3.659  0.7330  0.2087 -0.1221
  695MOL0     C93706   6.290   6.660   3.694 -0.1204 -0.8616 -0.0244
  695MOL0     N93707   6.220   6.789   3.707 -0.4559  0.0815  0.1744
  695MOL0     C93708   6.254   6.907   3.770  0.5299  0.0625 -0.8571
  695MOL0     C93709   6.136   6.964   3.794 -0.5688  0.4583  0.8511
  695MOL0     C93710   6.115   7.090   3.877 -0.1849  0.7950  0.8114
  695MOL0     C93711   6.213   7.119   3.995  0.1282  1.3738  0.9147
  695MOL0     C93712   6.214   7.004   4.100  1.3293  0.1546  0.2926
  695MOL0     C93713   6.274   7.056   4.236 -0.0411  0.0942  0.3004
  695MOL0     O93714   6.396   7.128   4.223  0.0523 -0.3738  0.7615
  695MOL0     C93715   6.424   7.213   4.333  0.4330  0.5142 -0.3527
  695MOL0     C93716   6.507   7.329   4.304  0.2592  0.2758  0.3983
  695MOL0     C93717   6.539   7.430   4.391 -0.0055  0.4702  0.2700
  695MOL0     C93718   6.625   7.540   4.339  0.6603 -0.0876  0.2391
  695MOL0     C93719   6.490   7.419   4.517  0.3836 -1.1655  0.2339
  695MOL0     C93720   6.545   7.515   4.614  0.6841 -0.9156  0.9142
  695MOL0     O93721   6.664   7.481   4.664  0.4032  0.1499  0.1728
  695MOL0     C93722   6.733   7.577   4.727 -0.3083 -0.1553 -0.3875
  695MOL0     C93723   6.837   7.651   4.671 -0.9388  0.9241 -0.0001
  695MOL0     C93724   6.894   7.761   4.730  1.4172  0.1829  0.4689
  695MOL0     C93725   6.865   7.799   4.858  0.6127  0.0864  0.5503
  695MOL0     O93726   6.936   7.911   4.889  0.4112  0.5287 -1.1442
  695MOL0     C93727   6.900   7.965   5.025  0.3034 -0.0754  0.9681
  695MOL0     C93728   6.993   7.924   5.132 -0.6188  0.2424  0.2661
  695MOL0     C93729   7.137   7.908   5.080  0.4455 -0.8003  0.2836
  695MOL0     C93730   7.222   7.869   5.202 -0.3915 -0.0079  0.1612
  695MOL0     C93731   7.289   7.986   5.279 -0.1906  0.3795 -0.4678
  695MOL0     C93732   7.414   8.038   5.202  0.5390  0.2812 -0.2486
  695MOL0     C93733   7.510   8.106   5.297  0.4474 -0.0633  0.1424
  695MOL0     C93734   7.614   8.183   5.219 -0.9132  0.2776 -0.6707
  695MOL0    Cl93735   7.712   8.070   5.118  0.2975 -0.5806  0.1673
  695MOL0     C93736   6.762   7.731   4.926 -0.8373  0.2771  0.9400
  695MOL0     C93737   6.698   7.622   4.855  0.1081  0.6469 -0.2850
  695MOL0     O93738   6.491   7.619   4.634  0.0641 -0.1657  0.0467
  695MOL0     C93739   6.405   7.314   4.554 -0.0585 -0.1646 -0.0447
  695MOL0     C93740   6.386   7.205   4.465  0.1126  0.0857  0.0011
  695MOL0     N93741   6.044   6.894   3.729 -0.3764  0.1735  0.1603
  695MOL0     N93742   6.095   6.783   3.682 -0.9665 -0.1752  0.1306
  695MOL0     C93743   6.830   6.968   4.143 -0.9031  0.5268 -0.7121
  695MOL0     C93744   6.855   7.097   4.201 -0.1195  0.1455 -0.0064
  695MOL0     C93745   6.943   7.533   4.176 -0.7119  0.7725 -0.1041
  695MOL0     C93746   7.020   7.564   4.293 -0.0428  0.7593  0.4200
  695MOL0     C93747   7.035   7.697   4.341  0.7969  0.4771 -0.8532
  695MOL0     C93748   6.975   7.799   4.284  0.7076  0.2089 -0.2312
  695MOL0     O93749   6.993   7.915   4.356  0.6963 -0.3986  0.1928
  695MOL0     C93750   6.891   8.013   4.325  1.2351 -1.2653 -0.1856
  695MOL0     C93751   6.928   8.124   4.424  0.2245  0.5971 -0.6058
  695MOL0     C93752   6.819   8.201   4.494  1.0593 -0.5680 -0.4348
  695MOL0     C93753   6.766   8.132   4.626 -0.3751 -0.0739  0.4691
  695MOL0     C93754   6.686   8.011   4.614 -0.7252  0.2411 -0.2990
  695MOL0     C93755   6.602   7.920   4.620 -0.1881  0.5918 -0.2498
  695MOL0     C93756   6.901   7.777   4.171  0.3824  0.1284 -0.8612
  695MOL0     C93757   6.881   7.644   4.117  0.0285 -0.0775 -0.9773
  695MOL0     H93758   7.174   7.151   4.058  0.0057  0.8746  2.9316
  695MOL0     H93759   7.111   6.939   3.947  0.0086  2.7009 -0.3567
  695MOL0     H93760   6.825   6.680   4.168 -1.1901 -2.3202 -0.1603
  695MOL0     H93761   6.721   6.731   4.022 -0.6667 -2.7524 -0.0001
  695MOL0     H93762   6.942   6.521   4.030 -0.2209  0.6996  0.2943
  695MOL0     H93763   6.776   6.484   4.045  0.6363 -1.4577 -0.9301
  695MOL0     H93764   6.886   6.622   3.804  0.4693 -0.1280  0.9277
  695MOL0     H93765   6.864   6.443   3.816  0.6197  1.4788 -0.9849
  695MOL0     H93766   6.638   6.444   3.871 -0.4629  0.1926 -0.7329
  695MOL0     H93767   6.620   6.604   3.879  1.4268  0.9562  0.6597
  695MOL0     H93768   6.696   6.648   3.653  1.6583 -0.8827  0.2491
  695MOL0     H93769   6.699   6.480   3.609 -1.9400 -0.8815 -1.2327
  695MOL0     H93770   6.497   6.525   3.521 -3.0352  2.3730 -0.3965
  695MOL0     H93771   6.455   6.457   3.669  1.3642  0.7190  2.1892
  695MOL0     H93772   6.500   6.732   3.732  1.9238  0.3264 -1.1387
  695MOL0     H93773   6.448   6.751   3.579 -0.6166 -0.0550 -0.5177
  695MOL0     H93774   6.285   6.614   3.793 -0.4194 -1.0090 -0.1075
  695MOL0     H93775   6.243   6.598   3.617 -1.7837 -2.3370  2.0401
  695MOL0     H93776   6.356   6.921   3.805  0.2867  0.4650 -0.3033
  695MOL0     H93777   6.129   7.175   3.810  0.0915  0.8086  0.8849
  695MOL0     H93778   6.010   7.082   3.906 -0.2679  0.8708  0.5380
  695MOL0     H93779   6.182   7.211   4.046  0.1248  1.3627  0.9321
  695MOL0     H93780   6.317   7.124   3.960  1.2968  0.2027  3.8181
  695MOL0     H93781   6.261   6.909   4.073  0.8391  0.3476 -1.4090
  695MOL0     H93782   6.108   6.982   4.117  1.4770 -0.9292 -0.1188
  695MOL0     H93783   6.300   6.974   4.303  3.2978  0.1186 -0.8003
  695MOL0     H93784   6.202   7.127   4.280  1.0330  0.2781  1.8640
  695MOL0     H93785   6.534   7.337   4.200  1.3110  1.7841  0.7623
  695MOL0     H93786   6.610   7.547   4.231  1.2184  1.3037  0.2213
  695MOL0     H93787   6.613   7.635   4.392 -1.9054 -0.1186 -0.1931
  695MOL0     H93788   6.726   7.500   4.354 -0.2269 -2.6350 -0.0307
  695MOL0     H93789   6.884   7.618   4.579 -0.8468  1.3973 -0.1250
  695MOL0     H93790   6.980   7.807   4.682  2.5380 -0.0815  2.1324
  695MOL0     H93791   6.898   8.074   5.017  0.3136 -0.1788 -0.9043
  695MOL0     H93792   6.795   7.946   5.051 -0.2655  1.3160 -0.1700
  695MOL0     H93793   6.998   7.986   5.222  0.7279 -1.5805  1.5387
  695MOL0     H93794   6.956   7.825   5.160 -0.7913  0.0200 -0.7282
  695MOL0     H93795   7.170   8.006   5.045 -0.1242 -0.7453 -0.1128
  695MOL0     H93796   7.149   7.834   5.001 -2.9163 -0.3075 -0.8508
  695MOL0     H93797   7.155   7.822   5.273  0.4892 -3.3162 -1.0187
  695MOL0     H93798   7.298   7.800   5.164  0.0937  1.1070 -0.9889
  695MOL0     H93799   7.322   7.930   5.367  0.0188 -0.0310 -0.8055
  695MOL0     H93800   7.205   8.055   5.294 -2.2547 -1.5479 -2.2908
  695MOL0     H93801   7.447   7.944   5.159  0.2896  0.1149 -0.0828
  695MOL0     H93802   7.382   8.107   5.123 -2.9843 -3.3013 -2.2737
  695MOL0     H93803   7.542   8.049   5.384  1.1935  2.0622  1.3257
  695MOL0     H93804   7.457   8.192   5.340  3.8537  3.3477 -1.8902
  695MOL0     H93805   7.679   8.234   5.290 -2.1040 -1.3251  1.7237
  695MOL0     H93806   7.560   8.248   5.150 -3.2633 -1.7402 -0.8804
  695MOL0     H93807   6.733   7.740   5.030  0.6045 -1.0740  1.5150
  695MOL0     H93808   6.622   7.567   4.910  1.3271 -0.3606  0.4281
  695MOL0     H93809   6.371   7.325   4.656  0.7379  3.5041 -0.0404
  695MOL0     H93810   6.317   7.127   4.495 -2.3726  1.7185 -1.1445
  695MOL0     H93811   6.744   6.908   4.168 -1.2246  0.3649 -2.1264
  695MOL0     H93812   6.782   7.141   4.268  0.6465  0.0527  0.9185
  695MOL0     H93813   7.062   7.485   4.355 -1.0057  1.1279  1.5614
  695MOL0     H93814   7.113   7.726   4.410  0.4275 -0.9437  0.2112
  695MOL0     H93815   6.893   8.049   4.222 -1.7061 -3.3877 -1.0906
  695MOL0     H93816   6.798   7.960   4.344  0.3133  0.2227 -0.3452
  695MOL0     H93817   6.978   8.202   4.366 -1.2848  2.1463  0.0649
  695MOL0     H93818   6.998   8.085   4.498 -1.6748  0.0341  0.9709
  695MOL0     H93819   6.734   8.224   4.430  0.6008  0.3364  0.4614
  695MOL0     H93820   6.859   8.297   4.530 -4.3573  2.2388 -0.7850
  695MOL0     H93821   6.716   8.204   4.692 -1.5718 -1.5166  1.2039
  695MOL0     H93822   6.848   8.097   4.690 -0.3241 -0.2298  0.3178
  695MOL0     H93823   6.526   7.849   4.644 -2.0016  2.4507 -0.1765
  695MOL0     H93824   6.849   7.856   4.118 -1.3534  1.2569  2.2673
  695MOL0     H93825   6.827   7.630   4.024 -1.2865  1.5037 -0.5089
  696MOL0     O93826   1.692   0.748   4.667 -0.1712 -0.4220 -0.3773
  696MOL0     C93827   1.790   0.776   4.593 -0.7771  0.1506  0.6423
  696MOL0     O93828   1.873   0.883   4.610 -0.3269 -0.3445 -0.2427
  696MOL0     C93829   1.860   0.953   4.734  0.2513 -0.7863 -0.3979
  696MOL0     C93830   1.796   1.082   4.733  0.3649  0.4763  1.0294
  696MOL0     C93831   1.788   1.159   4.847  0.0800 -0.3888 -0.5763
  696MOL0     C93832   1.842   1.117   4.969  0.2228  0.4663  0.3859
  696MOL0     O93833   1.871   1.208   5.072 -0.1106  0.8792 -0.5133
  696MOL0     C93834   1.889   1.161   5.206 -0.2155 -0.4396  1.1705
  696MOL0     C93835   1.756   1.091   5.260  0.1745  0.5085  0.0889
  696MOL0     C93836   1.625   1.177   5.238  0.1627  0.2971  0.5746
  696MOL0     C93837   1.569   1.264   5.358  0.3612  0.0484 -0.4616
  696MOL0     C93838   1.497   1.187   5.457  0.7275  0.0824 -0.8593
  696MOL0     C93839   1.417   1.268   5.567 -0.4962 -0.3096  0.1303
  696MOL0     C93840   1.359   1.175   5.676  0.0823 -0.1829 -0.7672
  696MOL0     C93841   1.286   1.266   5.778  0.1092 -0.1744 -0.0107
  696MOL0     N93842   1.281   1.198   5.909 -0.4415 -0.1965 -1.0944
  696MOL0     C93843   1.210   1.084   5.933 -0.1784 -0.5718 -1.1701
  696MOL0     C93844   1.263   1.039   6.048 -0.5539  0.7872 -0.3196
  696MOL0     C93845   1.206   0.923   6.117 -0.2211 -0.2946  0.5074
  696MOL0     C93846   1.055   0.941   6.133 -0.0353 -0.3119 -0.7995
  696MOL0     C93847   1.019   1.053   6.232  0.7786 -0.5808 -0.2997
  696MOL0     C93848   0.872   1.065   6.252  0.6026  0.3837  0.2494
  696MOL0     O93849   0.826   1.205   6.246 -0.8847 -0.0188  0.3944
  696MOL0     C93850   0.690   1.228   6.235 -0.5721  0.2042 -0.2456
  696MOL0     C93851   0.601   1.167   6.323  0.2842 -0.0812  0.0403
  696MOL0     C93852   0.456   1.190   6.310 -0.8425 -0.4403  0.5346
  696MOL0     C93853   0.369   1.118   6.417 -0.2554 -0.6372  0.4549
  696MOL0     C93854   0.419   1.295   6.222  0.0976  0.6301 -0.3661
  696MOL0     C93855   0.274   1.337   6.222  0.0005  0.4461  0.4168
  696MOL0     O93856   0.231   1.463   6.232  0.4127 -0.1353  0.2743
  696MOL0     C93857   0.096   1.480   6.212 -0.4635 -0.5578  0.1689
  696MOL0     C93858   0.056   1.551   6.100  0.0577  0.2730  0.2444
  696MOL0     C93859  -0.069   1.598   6.087  0.7130 -0.5812 -0.7198
  696MOL0     C93860  -0.162   1.576   6.188 -0.0856 -0.9699  0.1847
  696MOL0     O93861  -0.295   1.616   6.163 -0.2358 -0.1489  1.2931
  696MOL0     C93862  -0.402   1.586   6.248  0.6014 -0.6189 -0.7924
  696MOL0     C93863  -0.531   1.646   6.186 -0.1564 -0.0681  0.0946
  696MOL0     C93864  -0.603   1.727   6.283  0.1201 -0.9233 -0.8144
  696MOL0     C93865  -0.736   1.783   6.225  0.1064 -0.3357  0.2493
  696MOL0     C93866  -0.814   1.840   6.346  0.1670  0.1815 -0.3056
  696MOL0     C93867  -0.958   1.872   6.303 -0.0085 -0.2783  0.9877
  696MOL0     C93868  -0.969   1.970   6.185  0.2045  0.4448  0.0427
  696MOL0     C93869  -1.117   2.016   6.169 -0.4496  0.4597  0.0229
  696MOL0    Cl93870  -1.160   2.103   6.022 -0.3196  0.3862  0.3135
  696MOL0     C93871  -0.128   1.507   6.302  0.5089 -0.2014  0.9334
  696MOL0     C93872   0.008   1.460   6.311  1.3822 -0.1928 -0.0451
  696MOL0     O93873   0.201   1.240   6.216 -0.3841 -0.6232 -0.6191
  696MOL0     C93874   0.514   1.344   6.131  0.2753 -0.1013  0.2011
  696MOL0     C93875   0.639   1.311   6.136 -0.9149 -0.1421  0.4783
  696MOL0     N93876   1.363   1.125   6.087 -0.1630  0.0041 -0.1543
  696MOL0     N93877   1.368   1.222   6.010 -0.7922  0.4083  0.3001
  696MOL0     C93878   1.903   0.989   4.972  0.8889 -0.4612 -0.1414
  696MOL0     C93879   1.925   0.914   4.864  0.7776 -0.5001 -0.3498
  696MOL0     C93880   1.803   0.674   4.478  0.0843  0.2292  0.2102
  696MOL0     C93881   1.913   0.675   4.392  0.1967 -0.4745  0.8063
  696MOL0     C93882   1.925   0.570   4.302 -0.6190 -0.5772  0.0434
  696MOL0     C93883   1.823   0.472   4.284 -0.0026  0.0060 -0.0023
  696MOL0     O93884   1.815   0.372   4.187  0.0301 -0.4986  0.1001
  696MOL0     C93885   1.934   0.340   4.114 -0.2712 -0.0292  0.1512
  696MOL0     C93886   1.901   0.255   3.995 -0.1485  0.0114 -0.4293
  696MOL0     C93887   1.806   0.330   3.894 -0.0030 -0.6563 -0.4431
  696MOL0     C93888   1.871   0.418   3.777  0.4956 -0.3399 -0.1873
  696MOL0     C93889   1.959   0.514   3.833  0.0033  0.5946 -0.7233
  696MOL0     C93890   2.020   0.603   3.893  1.0170 -0.2912  0.1881
  696MOL0     C93891   1.712   0.480   4.368 -0.1170  0.5314  0.1397
  696MOL0     C93892   1.696   0.583   4.465  0.7992  1.0420  0.1964
  696MOL0     H93893   1.748   1.121   4.643 -1.1856  0.8250  1.9697
  696MOL0     H93894   1.732   1.251   4.837 -1.3656 -1.2611 -0.7560
  696MOL0     H93895   1.970   1.087   5.213  0.1979 -0.3251 -1.4063
  696MOL0     H93896   1.919   1.240   5.275  0.3342 -2.7784  3.7704
  696MOL0     H93897   1.758   0.992   5.215 -0.0181  0.6554 -0.2477
  696MOL0     H93898   1.769   1.072   5.367 -0.5475  1.2971  0.3324
  696MOL0     H93899   1.640   1.236   5.147  1.3950  0.1531  0.6640
  696MOL0     H93900   1.552   1.099   5.216  1.6094 -1.2494  1.0473
  696MOL0     H93901   1.658   1.307   5.406  1.7121 -2.6599 -0.3585
  696MOL0     H93902   1.502   1.341   5.318  2.7637  1.2155 -2.5194
  696MOL0     H93903   1.421   1.126   5.407 -0.8506 -1.4572  3.0424
  696MOL0     H93904   1.562   1.123   5.516  1.9617 -0.7087 -2.9678
  696MOL0     H93905   1.488   1.337   5.614  0.4469 -1.0547 -0.1620
  696MOL0     H93906   1.339   1.333   5.527 -0.3611 -0.6995 -0.7832
  696MOL0     H93907   1.285   1.114   5.622 -0.0080 -0.9971  0.2398
  696MOL0     H93908   1.437   1.117   5.724  0.9089  1.0154 -0.6172
  696MOL0     H93909   1.187   1.289   5.738  1.7601  2.2131 -3.1658
  696MOL0     H93910   1.336   1.363   5.790 -3.5745  1.9462 -0.1496
  696MOL0     H93911   1.140   1.023   5.878 -0.5458  0.4832 -1.9110
  696MOL0     H93912   1.218   0.834   6.054 -1.6960  0.0414 -0.3028
  696MOL0     H93913   1.259   0.921   6.212  0.6058  2.1524  0.1603
  696MOL0     H93914   1.008   0.850   6.170 -0.3920 -0.9445 -2.6813
  696MOL0     H93915   1.005   0.977   6.042 -2.4641  1.6710  1.1617
  696MOL0     H93916   1.055   1.143   6.182  2.8800 -0.1645  1.7888
  696MOL0     H93917   1.062   1.035   6.331 -0.1171  1.5437  0.5266
  696MOL0     H93918   0.854   1.023   6.351  2.5291 -0.6237  0.2272
  696MOL0     H93919   0.813   1.012   6.177 -1.1947  1.4656  0.8350
  696MOL0     H93920   0.637   1.094   6.394  1.9359 -1.1042 -1.7673
  696MOL0     H93921   0.320   1.027   6.381 -2.5537  0.4486  0.6531
  696MOL0     H93922   0.430   1.090   6.503  1.5287  0.0673 -0.5129
  696MOL0     H93923   0.286   1.184   6.442 -3.5123 -2.9209 -3.1717
  696MOL0     H93924   0.127   1.579   6.022  2.3107 -2.0278  1.3108
  696MOL0     H93925  -0.092   1.656   5.998  1.9734 -0.6120 -1.0786
  696MOL0     H93926  -0.407   1.477   6.241  1.1727 -0.6901 -0.2512
  696MOL0     H93927  -0.382   1.607   6.353  2.0586 -1.4409 -0.8773
  696MOL0     H93928  -0.507   1.697   6.093 -1.3935  0.0078 -0.1964
  696MOL0     H93929  -0.598   1.570   6.144 -1.7915  1.8242 -0.8589
  696MOL0     H93930  -0.539   1.806   6.324  0.3645 -1.5255  0.0108
  696MOL0     H93931  -0.623   1.669   6.374 -0.9460  2.3432  1.2205
  696MOL0     H93932  -0.703   1.860   6.155 -0.1490  0.2904  0.8003
  696MOL0     H93933  -0.794   1.701   6.181 -1.3748  0.6588  0.2838
  696MOL0     H93934  -0.766   1.929   6.389  1.7956  0.1935 -2.0047
  696MOL0     H93935  -0.826   1.755   6.413 -0.9147  0.5990  0.0461
  696MOL0     H93936  -1.011   1.784   6.267 -1.9017  1.2283 -0.0980
  696MOL0     H93937  -1.012   1.908   6.391  0.1657 -1.8808  1.7890
  696MOL0     H93938  -0.933   1.914   6.098  0.3403 -3.6100  2.4288
  696MOL0     H93939  -0.898   2.051   6.201  0.4837  0.4780 -1.2267
  696MOL0     H93940  -1.162   2.071   6.252 -2.0102  0.3200 -0.6864
  696MOL0     H93941  -1.169   1.921   6.179  0.3788 -0.0068 -0.0198
  696MOL0     H93942  -0.199   1.488   6.382 -0.3063  1.2153  0.5957
  696MOL0     H93943   0.050   1.400   6.391  0.0761 -2.0635 -0.7047
  696MOL0     H93944   0.475   1.407   6.052  0.2908 -2.3635 -1.6880
  696MOL0     H93945   0.701   1.356   6.059 -1.0894 -2.3345 -1.0631
  696MOL0     H93946   1.957   0.959   5.061  3.2259 -0.7373 -1.5779
  696MOL0     H93947   1.990   0.828   4.873  1.8497  0.3892  0.8466
  696MOL0     H93948   1.993   0.748   4.390 -1.7181  1.7043 -0.6036
  696MOL0     H93949   2.015   0.569   4.241 -1.7055  0.6289 -1.6633
  696MOL0     H93950   2.000   0.422   4.084  1.0279 -1.7766 -2.0841
  696MOL0     H93951   2.002   0.286   4.181 -0.6224  1.3244  1.6494
  696MOL0     H93952   1.868   0.157   4.030  2.5190 -1.0296 -0.5698
  696MOL0     H93953   1.996   0.235   3.943  0.9191 -0.8093  1.7204
  696MOL0     H93954   1.732   0.389   3.950 -1.0855  0.0276 -2.4670
  696MOL0     H93955   1.745   0.254   3.844  0.0623 -1.6884  0.9907
  696MOL0     H93956   1.797   0.467   3.713 -0.0095 -1.7856 -0.7509
  696MOL0     H93957   1.933   0.366   3.703 -2.3006 -2.4377 -1.2268
  696MOL0     H93958   2.080   0.678   3.941 -1.7755  1.3519  1.3295
  696MOL0     H93959   1.630   0.414   4.342  1.9465 -2.8447  1.4207
  696MOL0     H93960   1.614   0.583   4.537  0.7716  1.8832  0.1802
  697MOL0     O93961   1.387   1.267  10.537 -1.1499 -0.1163 -0.0284
  697MOL0     C93962   1.351   1.307  10.651 -0.3914  0.3124 -0.1317
  697MOL0     O93963   1.431   1.336  10.757 -0.3813  0.1003 -0.2171
  697MOL0     C93964   1.568   1.334  10.755  0.0688 -0.0930  0.5740
  697MOL0     C93965   1.633   1.362  10.877  0.0629 -0.2025  1.1174
  697MOL0     C93966   1.763   1.352  10.887 -0.9997 -0.1442  0.1029
  697MOL0     C93967   1.845   1.336  10.777 -0.3211  0.3373  0.4050
  697MOL0     O93968   1.981   1.332  10.801  0.1425 -0.2589 -0.0327
  697MOL0     C93969   2.060   1.320  10.686 -0.2588 -0.3356 -1.3105
  697MOL0     C93970   2.206   1.341  10.725  0.2497  0.0890  0.9645
  697MOL0     C93971   2.243   1.242  10.834  0.2542 -0.1056  0.2093
  697MOL0     C93972   2.393   1.249  10.888  0.4088 -0.3393 -0.3222
  697MOL0     C93973   2.396   1.371  10.977  0.3867  0.3369 -0.4895
  697MOL0     C93974   2.517   1.373  11.067 -0.3010 -0.9069 -0.9920
  697MOL0     C93975   2.510   1.303  11.197 -0.4595  0.9151 -0.3915
  697MOL0     C93976   2.597   1.356  11.312  1.2672  0.2739  0.3818
  697MOL0     N93977   2.671   1.248  11.383  0.5148  0.1128  0.5154
  697MOL0     C93978   2.776   1.181  11.332  1.0212  1.4006 -0.3201
  697MOL0     C93979   2.772   1.054  11.388 -0.4762 -0.2109 -0.7433
  697MOL0     C93980   2.873   0.953  11.385 -0.7021  0.8217 -0.3063
  697MOL0     C93981   2.817   0.838  11.289  0.4548  0.6776 -0.3132
  697MOL0     C93982   2.768   0.895  11.155  0.6519 -0.4673  0.3103
  697MOL0     C93983   2.724   0.782  11.063  0.1065  0.8258  0.4026
  697MOL0     O93984   2.655   0.851  10.959  0.4994  0.8141  0.2997
  697MOL0     C93985   2.543   0.803  10.908  1.0225  0.2926 -0.1710
  697MOL0     C93986   2.489   0.680  10.937  0.0901 -0.6103  0.4756
  697MOL0     C93987   2.361   0.638  10.907 -0.2878 -0.9168  0.5305
  697MOL0     C93988   2.318   0.504  10.947 -0.4934  0.2129  0.1727
  697MOL0     C93989   2.275   0.731  10.829  0.2807  0.2707  0.3849
  697MOL0     C93990   2.136   0.700  10.788  0.0785  0.2465 -0.3076
  697MOL0     O93991   2.044   0.803  10.808 -0.3345 -0.1819  0.1820
  697MOL0     C93992   1.916   0.794  10.768  0.6710  0.8939  0.1892
  697MOL0     C93993   1.844   0.676  10.722  0.5190 -0.2751 -0.6676
  697MOL0     C93994   1.711   0.687  10.683  0.0208  0.3522  0.3988
  697MOL0     C93995   1.647   0.809  10.667 -0.6374 -0.0162 -0.0610
  697MOL0     O93996   1.525   0.803  10.615  0.6481 -0.5502 -0.8873
  697MOL0     C93997   1.506   0.876  10.498  0.1247 -0.3221  0.1906
  697MOL0     C93998   1.365   0.850  10.438 -1.3390  0.8503 -0.9497
  697MOL0     C93999   1.245   0.841  10.528  0.5622 -0.2089 -0.7758
  697MOL0     C94000   1.122   0.836  10.441 -0.6318 -0.5839 -0.2568
  697MOL0     C94001   0.991   0.846  10.518 -0.1994  0.7434  0.2850
  697MOL0     C94002   0.867   0.893  10.432 -0.1891 -0.3662 -0.2046
  697MOL0     C94003   0.756   0.955  10.532  0.1883  0.8584 -0.5338
  697MOL0     C94004   0.651   1.035  10.453  1.4824 -1.0453 -0.2116
  697MOL0    Cl94005   0.566   0.941  10.322  0.0835  0.1965 -0.1539
  697MOL0     C94006   1.713   0.920  10.710  0.3429 -0.3955  0.0094
  697MOL0     C94007   1.848   0.909  10.757  0.6484 -1.2573 -0.3624
  697MOL0     O94008   2.109   0.580  10.751 -0.2125 -0.0507  0.6476
  697MOL0     C94009   2.329   0.858  10.795  0.1591  1.0163  0.6548
  697MOL0     C94010   2.464   0.893  10.833 -0.1930 -0.0938 -0.2733
  697MOL0     N94011   2.664   1.055  11.472  0.4209 -0.9254  0.4347
  697MOL0     N94012   2.594   1.165  11.451  0.4569  0.5110  1.1145
  697MOL0     C94013   1.787   1.317  10.655  0.0765 -1.5899  0.1464
  697MOL0     C94014   1.650   1.310  10.646 -0.3911  0.6867 -0.0604
  697MOL0     C94015   1.207   1.309  10.671 -0.1815  1.0508  0.2684
  697MOL0     C94016   1.140   1.350  10.792 -0.6156  0.0182 -0.3888
  697MOL0     C94017   0.996   1.355  10.789  0.0579  0.0447 -0.5840
  697MOL0     C94018   0.920   1.318  10.680  0.4089 -0.2092  0.6214
  697MOL0     O94019   0.782   1.329  10.670 -0.6288  0.1165  0.7425
  697MOL0     C94020   0.703   1.338  10.785 -0.3623 -0.8585 -0.5846
  697MOL0     C94021   0.559   1.323  10.750 -0.4846 -0.8857 -0.1590
  697MOL0     C94022   0.495   1.440  10.666  0.1212  0.1385  0.3652
  697MOL0     C94023   0.347   1.429  10.626  0.3147  0.0555  1.0245
  697MOL0     C94024   0.312   1.308  10.559  0.1570  0.7156 -0.4127
  697MOL0     C94025   0.284   1.205  10.504  0.2350 -0.6192 -0.4966
  697MOL0     C94026   0.987   1.271  10.571  1.0813 -0.5815 -0.3792
  697MOL0     C94027   1.126   1.274  10.568 -0.2157  0.0902  0.3363
  697MOL0     H94028   1.579   1.378  10.970  1.2703 -4.4583  2.8036
  697MOL0     H94029   1.814   1.350  10.983 -3.5476  0.9705  1.5632
  697MOL0     H94030   2.057   1.219  10.645 -1.7390 -0.6594 -0.4764
  697MOL0     H94031   2.029   1.399  10.618 -0.9045  0.2737 -0.3430
  697MOL0     H94032   2.276   1.331  10.642  1.7242  0.6665  2.0873
  697MOL0     H94033   2.225   1.442  10.764  0.4941  1.2836 -1.9388
  697MOL0     H94034   2.183   1.270  10.920  1.4920 -0.9511  1.3887
  697MOL0     H94035   2.229   1.139  10.797 -1.5085  0.7979 -1.8464
  697MOL0     H94036   2.410   1.153  10.939 -3.3371 -1.9845 -1.7785
  697MOL0     H94037   2.460   1.263  10.803 -1.1782  3.4877 -1.1526
  697MOL0     H94038   2.392   1.464  10.919  0.8562 -1.1486 -3.0935
  697MOL0     H94039   2.305   1.378  11.037  0.7418 -1.6877  0.3645
  697MOL0     H94040   2.610   1.345  11.017 -0.7099 -0.3639 -2.0870
  697MOL0     H94041   2.535   1.476  11.100 -0.0885 -1.4494  0.6807
  697MOL0     H94042   2.408   1.293  11.236  0.8726 -0.8516  3.1407
  697MOL0     H94043   2.537   1.198  11.186 -0.8451  0.7572  0.1122
  697MOL0     H94044   2.535   1.396  11.393  0.4511 -0.3699  0.0852
  697MOL0     H94045   2.675   1.426  11.278 -0.0913  0.3775 -2.7865
  697MOL0     H94046   2.849   1.227  11.266 -0.8931  2.0800 -2.0534
  697MOL0     H94047   2.971   0.981  11.347  1.1358 -1.2721  2.4616
  697MOL0     H94048   2.895   0.905  11.481  2.4754 -0.4796 -1.5633
  697MOL0     H94049   2.726   0.798  11.334 -0.3153  2.4433 -0.2270
  697MOL0     H94050   2.885   0.754  11.271 -1.1336 -0.1115 -3.2380
  697MOL0     H94051   2.842   0.964  11.113 -0.3838  2.4911  2.9023
  697MOL0     H94052   2.684   0.962  11.175  0.6290 -0.8774  1.7337
  697MOL0     H94053   2.669   0.709  11.123  0.7366  0.0660  0.0837
  697MOL0     H94054   2.816   0.740  11.020  0.9469  1.9795  1.0179
  697MOL0     H94055   2.553   0.610  10.990 -1.0449 -2.4021 -0.4104
  697MOL0     H94056   2.369   0.482  11.041 -1.8830  0.5147  1.0320
  697MOL0     H94057   2.208   0.507  10.948 -0.5477  3.1495 -2.4559
  697MOL0     H94058   2.353   0.440  10.866  1.8775  0.1306  1.1801
  697MOL0     H94059   1.883   0.575  10.722 -2.3799 -1.5082 -0.4195
  697MOL0     H94060   1.660   0.592  10.679 -1.2088  1.0217 -0.4442
  697MOL0     H94061   1.514   0.984  10.510 -4.6126  0.5741 -2.4146
  697MOL0     H94062   1.586   0.867  10.424 -1.1336  2.6443 -1.6900
  697MOL0     H94063   1.348   0.912  10.350 -0.8534 -1.1009 -2.4928
  697MOL0     H94064   1.380   0.746  10.405 -1.1720 -0.0368  1.6589
  697MOL0     H94065   1.249   0.929  10.593  1.0903 -0.0081 -1.0698
  697MOL0     H94066   1.248   0.760  10.603  2.1010  1.4214  1.0327
  697MOL0     H94067   1.123   0.916  10.366 -0.0685  0.5941  0.9686
  697MOL0     H94068   1.122   0.739  10.392 -0.7984 -0.3954 -0.6351
  697MOL0     H94069   1.009   0.896  10.614 -0.7729 -1.5748  1.6927
  697MOL0     H94070   0.970   0.746  10.558 -1.4441  2.0340  3.1193
  697MOL0     H94071   0.889   0.964  10.352  1.3303 -0.1471  0.3644
  697MOL0     H94072   0.824   0.811  10.374  0.5236 -0.1837 -1.0175
  697MOL0     H94073   0.804   1.025  10.601 -1.7091  0.6372  1.0937
  697MOL0     H94074   0.706   0.882  10.597 -0.0392  1.2614 -0.2523
  697MOL0     H94075   0.688   1.123  10.400 -0.3380  0.3865  0.7656
  697MOL0     H94076   0.595   1.071  10.540  0.8936 -2.8471  0.2050
  697MOL0     H94077   1.663   1.016  10.709  0.8134 -0.1282 -2.0563
  697MOL0     H94078   1.895   1.000  10.795 -0.1113 -0.0689 -2.1404
  697MOL0     H94079   2.260   0.914  10.732  1.8850 -0.5894 -2.9813
  697MOL0     H94080   2.485   0.995  10.801  0.9926  0.7532  2.7863
  697MOL0     H94081   1.851   1.310  10.568 -1.3098 -2.5134 -0.8292
  697MOL0     H94082   1.615   1.296  10.544 -0.3444  0.0439  0.0105
  697MOL0     H94083   1.197   1.375  10.881  1.1998 -0.3427 -1.3984
  697MOL0     H94084   0.948   1.374  10.884  2.0374 -1.4319  0.7751
  697MOL0     H94085   0.731   1.254  10.849  1.7935 -0.3845 -0.8385
  697MOL0     H94086   0.725   1.438  10.825 -0.2573 -1.9135  2.2360
  697MOL0     H94087   0.500   1.313  10.841 -1.5919  3.7428 -0.0845
  697MOL0     H94088   0.558   1.234  10.686 -0.4194 -0.4957 -0.7117
  697MOL0     H94089   0.554   1.450  10.574 -2.8172  0.5951 -1.6390
  697MOL0     H94090   0.520   1.539  10.704  0.8548 -0.3214  1.0950
  697MOL0     H94091   0.342   1.503  10.546 -4.3874 -0.7958  0.2596
  697MOL0     H94092   0.286   1.467  10.709  1.7456  1.2102  1.5894
  697MOL0     H94093   0.253   1.112  10.459 -1.0024  0.8840 -2.9820
  697MOL0     H94094   0.930   1.234  10.486  0.8216 -3.0687  0.7795
  697MOL0     H94095   1.166   1.251  10.470 -1.5015  2.6123 -0.8856
  698MOL0     O94096  10.478   5.409   6.461  0.1724  0.5374 -0.4782
  698MOL0     C94097  10.590   5.451   6.482  0.2919 -0.0527 -0.8460
  698MOL0     O94098  10.624   5.549   6.571  0.3889 -0.7559  0.8739
  698MOL0     C94099  10.526   5.608   6.651  0.5025  0.0455  0.1506
  698MOL0     C94100  10.545   5.613   6.795 -0.0311  0.3493 -0.2393
  698MOL0     C94101  10.444   5.672   6.871 -0.2419 -0.1728  0.9761
  698MOL0     C94102  10.330   5.734   6.813  0.2408 -0.6936 -0.1213
  698MOL0     O94103  10.268   5.819   6.902 -0.6328  0.1970  0.0798
  698MOL0     C94104  10.146   5.884   6.873  0.2839  0.8273 -0.3832
  698MOL0     C94105  10.110   5.974   6.993  0.8251  0.6906  0.2159
  698MOL0     C94106   9.966   6.038   6.980 -0.2731 -0.9099  0.6501
  698MOL0     C94107   9.921   6.112   7.104  0.3530 -1.4022  0.3033
  698MOL0     C94108   9.778   6.166   7.091  0.6307 -0.0325  0.0188
  698MOL0     C94109   9.767   6.255   6.969 -0.3386  0.2249  0.4019
  698MOL0     C94110   9.642   6.356   6.958  0.8559 -0.0997  0.0005
  698MOL0     C94111   9.650   6.453   6.841  0.0759 -0.0266  0.1190
  698MOL0     N94112   9.519   6.498   6.804 -0.5016 -0.1556  0.0901
  698MOL0     C94113   9.438   6.426   6.715 -0.2111  0.3745 -0.8752
  698MOL0     C94114   9.326   6.507   6.714  0.6787  0.3242 -0.5947
  698MOL0     C94115   9.176   6.472   6.654 -0.3691  0.1654  0.7898
  698MOL0     C94116   9.173   6.409   6.514  0.1661 -0.0504  0.4728
  698MOL0     C94117   9.045   6.323   6.505 -0.5383  0.0197  0.5201
  698MOL0     C94118   9.020   6.272   6.371  0.4509  0.4971 -0.1434
  698MOL0     O94119   8.937   6.156   6.370  0.6052 -0.7384 -0.1004
  698MOL0     C94120   8.817   6.169   6.302 -0.4545  0.0727  0.2817
  698MOL0     C94121   8.790   6.070   6.218 -0.0614 -0.2997 -0.4392
  698MOL0     C94122   8.676   6.085   6.138  0.1635 -0.3708  0.1960
  698MOL0     C94123   8.653   6.000   6.012  0.0290 -0.1896  0.1838
  698MOL0     C94124   8.599   6.206   6.155  0.2066 -0.3640 -0.6506
  698MOL0     C94125   8.481   6.236   6.062 -0.1234 -1.1666 -1.0991
  698MOL0     O94126   8.495   6.369   6.008  0.1075 -0.4203 -0.1125
  698MOL0     C94127   8.378   6.438   5.975 -0.2510 -0.1192 -0.2777
  698MOL0     C94128   8.317   6.429   5.848 -0.1850 -0.9641 -0.0282
  698MOL0     C94129   8.199   6.498   5.828 -0.0373  0.6494  0.1118
  698MOL0     C94130   8.139   6.570   5.934  0.7758  0.4129 -0.7204
  698MOL0     O94131   8.016   6.637   5.899 -0.2059  0.3740  0.4676
  698MOL0     C94132   7.973   6.750   5.979  0.7922 -0.0839  0.3165
  698MOL0     C94133   7.860   6.822   5.899  1.2022 -0.1881 -0.1839
  698MOL0     C94134   7.908   6.951   5.830 -0.4851 -0.7373  0.6066
  698MOL0     C94135   8.026   6.929   5.734  0.0004 -0.1810 -0.6689
  698MOL0     C94136   8.054   7.034   5.618 -0.2272  0.2789  0.9096
  698MOL0     C94137   7.946   7.041   5.511 -0.3953  0.3879 -0.4434
  698MOL0     C94138   7.965   7.155   5.410 -0.0524 -0.5840 -0.2181
  698MOL0     C94139   7.909   7.117   5.272  0.0707 -0.0285 -0.7378
  698MOL0    Cl94140   7.956   7.229   5.147 -0.1708  0.3883  0.1419
  698MOL0     C94141   8.196   6.573   6.060 -0.2144  0.1351 -0.2617
  698MOL0     C94142   8.315   6.518   6.078 -1.1586 -0.8151  0.6758
  698MOL0     O94143   8.386   6.157   6.042 -0.3734  0.1402  0.9337
  698MOL0     C94144   8.622   6.299   6.257 -0.3447 -0.2817  0.5824
  698MOL0     C94145   8.730   6.276   6.338 -0.4776 -0.0134 -0.2513
  698MOL0     N94146   9.349   6.617   6.795  0.5884 -0.6190 -0.4107
  698MOL0     N94147   9.458   6.609   6.850 -0.1230 -0.5530  0.5761
  698MOL0     C94148  10.318   5.733   6.676  0.1602  0.1006  0.0147
  698MOL0     C94149  10.405   5.660   6.590  0.5963 -0.7823 -0.0119
  698MOL0     C94150  10.708   5.392   6.411 -0.2278 -0.0250 -0.8781
  698MOL0     C94151  10.839   5.446   6.433  0.1515 -0.1503  0.2196
  698MOL0     C94152  10.952   5.383   6.385 -0.0222 -1.0800  0.2757
  698MOL0     C94153  10.938   5.257   6.314 -0.0617 -0.8321  1.0573
  698MOL0     O94154  11.056   5.220   6.250 -0.1481  0.1190 -0.6531
  698MOL0     C94155  11.053   5.089   6.186  0.4174 -0.0836 -1.2607
  698MOL0     C94156  11.201   5.051   6.188 -0.0222 -0.5473  0.0883
  698MOL0     C94157  11.226   4.903   6.147 -0.2380  0.5173 -0.5681
  698MOL0     C94158  11.370   4.890   6.117 -0.1930  1.1307  1.2148
  698MOL0     C94159  11.415   4.756   6.099 -0.4286  0.5078 -0.0645
  698MOL0     C94160  11.488   4.651   6.097  0.8275  0.3023  0.1157
  698MOL0     C94161  10.809   5.207   6.286 -0.2352 -0.6507  0.1891
  698MOL0     C94162  10.693   5.274   6.336  0.4334 -0.6154  0.1302
  698MOL0     H94163  10.625   5.562   6.848  0.6312  2.7620  1.2330
  698MOL0     H94164  10.466   5.681   6.977 -0.2482  2.2272  0.8251
  698MOL0     H94165  10.153   5.938   6.778  0.1424  2.9381  0.7585
  698MOL0     H94166  10.054   5.823   6.873  0.6899  0.1726  1.0766
  698MOL0     H94167  10.125   5.911   7.081 -1.1676 -2.8847 -1.7791
  698MOL0     H94168  10.184   6.054   7.003  1.1803  0.8283 -2.5918
  698MOL0     H94169   9.958   6.093   6.886 -2.0806 -1.8540  0.2048
  698MOL0     H94170   9.894   5.957   6.964 -0.6075 -0.3235 -0.9679
  698MOL0     H94171   9.932   6.050   7.193 -1.2243 -3.7649 -1.0472
  698MOL0     H94172   9.980   6.203   7.120 -2.4457  0.6642 -0.2736
  698MOL0     H94173   9.700   6.089   7.101  1.0825 -0.2602  2.6581
  698MOL0     H94174   9.764   6.234   7.176 -0.9282 -0.3405  0.0420
  698MOL0     H94175   9.864   6.304   6.974  0.6529 -1.4811 -1.0198
  698MOL0     H94176   9.768   6.196   6.876  0.7622 -1.3855  1.3804
  698MOL0     H94177   9.560   6.287   6.937  0.6720  0.9993 -3.5012
  698MOL0     H94178   9.627   6.405   7.055 -0.2798 -1.2997  0.4613
  698MOL0     H94179   9.698   6.398   6.759  1.3442 -0.9509  1.4269
  698MOL0     H94180   9.717   6.535   6.867 -0.0806 -0.6669  2.8809
  698MOL0     H94181   9.450   6.329   6.666  1.1811  0.7567 -1.3330
  698MOL0     H94182   9.115   6.419   6.728  0.8756 -1.2398  0.8644
  698MOL0     H94183   9.124   6.566   6.635  1.8440  1.1639 -0.7600
  698MOL0     H94184   9.247   6.329   6.516 -0.0306 -0.2141  1.3599
  698MOL0     H94185   9.187   6.484   6.435 -0.8532  1.4345  1.6474
  698MOL0     H94186   8.957   6.383   6.532  0.2208  0.9644  0.9670
  698MOL0     H94187   9.043   6.234   6.568 -1.1441  0.3413  0.9718
  698MOL0     H94188   9.106   6.228   6.320 -1.1299 -2.2062 -0.6479
  698MOL0     H94189   8.986   6.358   6.310  2.7171  1.4463 -0.1545
  698MOL0     H94190   8.860   5.990   6.195  3.5120  1.9599  1.5718
  698MOL0     H94191   8.732   5.924   6.006  1.0278  0.9470 -1.5635
  698MOL0     H94192   8.556   5.950   6.014 -1.0566  1.8497 -0.0293
  698MOL0     H94193   8.648   6.054   5.918 -2.1923 -2.1299 -0.9133
  698MOL0     H94194   8.369   6.370   5.774  2.3287 -0.2975  1.1028
  698MOL0     H94195   8.164   6.494   5.726  0.0988  0.7427  0.0609
  698MOL0     H94196   7.933   6.711   6.073 -0.8141  1.9242  0.5190
  698MOL0     H94197   8.050   6.826   5.997 -0.1735  1.0164 -0.0546
  698MOL0     H94198   7.822   6.752   5.824  1.1721  0.9530 -1.2691
  698MOL0     H94199   7.781   6.847   5.969 -2.8505 -4.0145 -2.8395
  698MOL0     H94200   7.936   7.026   5.906  2.2773 -0.2918 -0.7243
  698MOL0     H94201   7.823   6.990   5.774 -0.1771  0.1676  0.7363
  698MOL0     H94202   8.118   6.903   5.787 -2.2164 -3.6178  1.9477
  698MOL0     H94203   7.994   6.842   5.676  0.4098  0.0934 -1.3148
  698MOL0     H94204   8.153   7.011   5.577 -0.8305 -2.4050  0.7756
  698MOL0     H94205   8.061   7.129   5.672 -1.1634  0.5732  0.5382
  698MOL0     H94206   7.959   6.951   5.451 -0.5747  0.8962 -1.2496
  698MOL0     H94207   7.843   7.040   5.548 -0.5139 -1.9538 -0.6736
  698MOL0     H94208   8.073   7.172   5.405  0.0218 -0.9603  0.1111
  698MOL0     H94209   7.916   7.244   5.450 -0.9823 -0.6614 -1.1274
  698MOL0     H94210   7.800   7.121   5.278  0.0771  2.9770 -1.1734
  698MOL0     H94211   7.947   7.017   5.246 -1.2309 -0.6901 -0.1678
  698MOL0     H94212   8.127   6.616   6.132 -5.0548 -5.1326 -1.0799
  698MOL0     H94213   8.368   6.527   6.172 -0.2279  0.3081  0.0779
  698MOL0     H94214   8.559   6.386   6.276  0.4816  0.6328 -0.7098
  698MOL0     H94215   8.738   6.335   6.429 -0.8061 -1.2200  0.5902
  698MOL0     H94216  10.240   5.783   6.619  0.5426  0.4195 -0.2351
  698MOL0     H94217  10.385   5.660   6.483 -2.9494 -0.0541  0.5234
  698MOL0     H94218  10.852   5.536   6.493  2.3735  0.8175 -1.5674
  698MOL0     H94219  11.050   5.425   6.404 -0.6130  1.2157 -1.2423
  698MOL0     H94220  10.990   5.014   6.234 -0.8166 -0.3373 -3.1605
  698MOL0     H94221  11.013   5.113   6.087 -1.3235  0.3532 -0.5030
  698MOL0     H94222  11.248   5.081   6.283  1.2603  1.5409 -1.1419
  698MOL0     H94223  11.251   5.118   6.118  1.7578 -1.4589  0.4274
  698MOL0     H94224  11.176   4.882   6.051  1.1081  1.0680 -1.4148
  698MOL0     H94225  11.205   4.830   6.225  1.3006  0.9459  0.2870
  698MOL0     H94226  11.441   4.937   6.186  3.8179 -1.8416 -0.5141
  698MOL0     H94227  11.398   4.939   6.023  1.9956 -2.9877 -0.5401
  698MOL0     H94228  11.541   4.562   6.072  0.0707 -1.0501  2.9099
  698MOL0     H94229  10.797   5.125   6.216  2.6038 -1.1448  0.1858
  698MOL0     H94230  10.594   5.237   6.313  0.3603  0.4472 -1.3653
  699MOL0     O94231  10.290   5.555   8.433 -0.6892  0.2017 -0.8692
  699MOL0     C94232  10.369   5.537   8.529  0.0245  0.1871 -0.0572
  699MOL0     O94233  10.340   5.553   8.662  0.3104 -0.6629 -0.8052
  699MOL0     C94234  10.210   5.598   8.693 -0.0416 -0.2971 -0.0148
  699MOL0     C94235  10.191   5.719   8.764 -0.7394  0.0237  0.3632
  699MOL0     C94236  10.065   5.742   8.811  0.3804  0.1642  0.2165
  699MOL0     C94237   9.959   5.647   8.792 -0.0909  0.2348 -0.5831
  699MOL0     O94238   9.834   5.663   8.845  0.7637  0.2115  1.0155
  699MOL0     C94239   9.821   5.678   8.985 -0.3260  0.2973  0.2796
  699MOL0     C94240   9.715   5.783   9.015  0.1275 -0.0270  0.0684
  699MOL0     C94241   9.689   5.792   9.161  0.6377 -0.7247  0.4791
  699MOL0     C94242   9.597   5.913   9.174  0.5599  0.4262  0.5059
  699MOL0     C94243   9.560   5.922   9.317  0.6816 -0.1558  0.4362
  699MOL0     C94244   9.491   6.059   9.349 -0.5045 -0.1078 -0.3148
  699MOL0     C94245   9.553   6.188   9.297 -0.8772 -0.5908 -0.5828
  699MOL0     C94246   9.516   6.310   9.383 -0.0558  0.6552 -0.2616
  699MOL0     N94247   9.365   6.344   9.377 -0.3736 -0.6790  0.1766
  699MOL0     C94248   9.279   6.304   9.474  0.3031 -1.2519 -0.0827
  699MOL0     C94249   9.165   6.315   9.409 -0.5564 -1.2131 -0.2586
  699MOL0     C94250   9.033   6.275   9.473  0.2325  0.8244 -0.4345
  699MOL0     C94251   9.002   6.132   9.412 -0.0616 -0.0648 -0.6953
  699MOL0     C94252   8.871   6.063   9.460  0.5916 -0.3934  0.1112
  699MOL0     C94253   8.902   5.916   9.497  0.8235 -0.9227  0.1956
  699MOL0     O94254   8.938   5.902   9.637  0.0428  0.3209  0.3058
  699MOL0     C94255   9.061   5.929   9.681  0.0451  0.2465 -0.0561
  699MOL0     C94256   9.176   5.866   9.631  0.3929 -1.1181  0.0369
  699MOL0     C94257   9.307   5.887   9.678 -1.3379 -0.0057  0.2022
  699MOL0     C94258   9.423   5.820   9.610  0.0246 -0.4587 -0.5882
  699MOL0     C94259   9.325   5.985   9.783  0.6198  0.0630 -0.2250
  699MOL0     C94260   9.449   6.027   9.840  0.3810 -0.2729 -1.7645
  699MOL0     O94261   9.477   5.986   9.966 -0.2948 -0.9086 -0.0475
  699MOL0     C94262   9.588   6.039  10.023  0.8987 -0.3322 -0.1612
  699MOL0     C94263   9.686   5.950  10.078  0.5776 -0.0407 -0.6348
  699MOL0     C94264   9.799   6.002  10.152  0.6751  1.0970  0.1777
  699MOL0     C94265   9.822   6.136  10.158 -0.0292  0.0893 -0.2378
  699MOL0     O94266   9.940   6.171  10.213 -0.0686 -0.7533  0.1567
  699MOL0     C94267  10.003   6.283  10.147  0.7131  0.8207 -0.9568
  699MOL0     C94268  10.141   6.315  10.222  0.0027  0.0871  0.2871
  699MOL0     C94269  10.106   6.336  10.378 -0.6318  1.4656 -0.8617
  699MOL0     C94270  10.237   6.351  10.458 -0.0590 -0.1717  0.4254
  699MOL0     C94271  10.217   6.406  10.601 -0.9851  1.4438  0.2343
  699MOL0     C94272  10.138   6.312  10.690 -0.3937  0.9655  0.4622
  699MOL0     C94273  10.169   6.346  10.840  0.0532 -0.6665  0.0241
  699MOL0     C94274  10.093   6.250  10.929 -0.4439  0.7528  0.6960
  699MOL0    Cl94275   9.932   6.319  10.959  0.7958  0.0486 -0.2178
  699MOL0     C94276   9.725   6.224  10.102 -0.1158 -0.6553 -0.1095
  699MOL0     C94277   9.607   6.177  10.044  0.2161  0.8861  0.8073
  699MOL0     O94278   9.519   6.106   9.773 -1.2400 -0.3004  0.6745
  699MOL0     C94279   9.209   6.050   9.832 -0.0097  0.5465  0.1731
  699MOL0     C94280   9.077   6.009   9.789 -0.6058 -0.7768 -0.2138
  699MOL0     N94281   9.194   6.353   9.278 -0.4658 -0.0764  0.2848
  699MOL0     N94282   9.310   6.383   9.263  0.2200  0.1321  0.4964
  699MOL0     C94283   9.981   5.531   8.730 -0.1075  0.1950  0.9050
  699MOL0     C94284  10.102   5.505   8.677 -0.0780  0.0464  0.3875
  699MOL0     C94285  10.509   5.540   8.481  0.3083  0.4880 -0.5611
  699MOL0     C94286  10.605   5.635   8.533 -0.3544  0.7277  0.8822
  699MOL0     C94287  10.739   5.645   8.479  0.3179 -0.2205 -0.3557
  699MOL0     C94288  10.778   5.552   8.381 -0.2171 -0.2966 -0.3726
  699MOL0     O94289  10.907   5.573   8.343  0.4996  0.1510 -0.9541
  699MOL0     C94290  10.971   5.483   8.259 -0.4513 -0.0889  0.4135
  699MOL0     C94291  11.109   5.535   8.221 -0.4916 -0.2245 -0.6104
  699MOL0     C94292  11.185   5.440   8.133  0.8987  0.0554 -0.5358
  699MOL0     C94293  11.314   5.491   8.075 -0.4494 -1.1020 -0.4139
  699MOL0     C94294  11.298   5.589   7.962  0.3944 -0.3024  0.4957
  699MOL0     C94295  11.295   5.661   7.864  0.4952  0.1569 -0.1218
  699MOL0     C94296  10.679   5.464   8.328 -0.5368  0.2067  0.4082
  699MOL0     C94297  10.549   5.456   8.376 -0.3664 -1.0000 -0.0111
  699MOL0     H94298  10.277   5.781   8.788 -1.5101  0.5973  1.7430
  699MOL0     H94299  10.043   5.830   8.871  0.2917  0.0283  0.3862
  699MOL0     H94300   9.790   5.579   9.020  0.1651  1.5428  4.9115
  699MOL0     H94301   9.919   5.694   9.031  1.2242  0.6038 -2.8573
  699MOL0     H94302   9.751   5.878   8.974 -0.6422 -0.0286 -0.6321
  699MOL0     H94303   9.622   5.766   8.960 -0.0417  2.3505 -0.4851
  699MOL0     H94304   9.645   5.698   9.196  1.4998 -1.2097  0.2846
  699MOL0     H94305   9.784   5.814   9.210  1.0590 -1.6750  0.1160
  699MOL0     H94306   9.661   5.998   9.148 -1.0990  1.6236  0.1633
  699MOL0     H94307   9.500   5.913   9.122  0.0312 -1.1653  1.4100
  699MOL0     H94308   9.508   5.830   9.345  1.3393 -0.6660  0.0072
  699MOL0     H94309   9.645   5.928   9.385 -1.3374  0.3462  3.0855
  699MOL0     H94310   9.386   6.052   9.319 -0.3772 -1.7914 -0.5152
  699MOL0     H94311   9.488   6.065   9.458  2.7498 -0.1190 -0.1194
  699MOL0     H94312   9.662   6.178   9.296 -0.8504 -1.0600  1.4279
  699MOL0     H94313   9.510   6.204   9.198  1.2583 -3.3269 -2.1037
  699MOL0     H94314   9.563   6.399   9.340  0.8975  0.7799  0.9784
  699MOL0     H94315   9.545   6.297   9.488 -0.1678 -3.3908 -0.5705
  699MOL0     H94316   9.301   6.249   9.565 -1.1302 -1.5339  0.1042
  699MOL0     H94317   9.041   6.270   9.582 -1.9947  1.5603 -0.1864
  699MOL0     H94318   8.951   6.340   9.441  1.0296  0.2641 -4.0251
  699MOL0     H94319   9.088   6.068   9.437  1.5550  1.1940 -2.7055
  699MOL0     H94320   8.998   6.136   9.303 -3.7169  0.2480 -0.6522
  699MOL0     H94321   8.799   6.060   9.378  0.7816 -1.6879 -0.0247
  699MOL0     H94322   8.835   6.125   9.542 -0.6845  0.1009 -0.7984
  699MOL0     H94323   8.975   5.882   9.424 -0.8168 -0.1293 -1.9438
  699MOL0     H94324   8.814   5.855   9.477 -0.8849  1.5084 -0.1300
  699MOL0     H94325   9.151   5.794   9.554 -2.1687  0.9008 -1.2143
  699MOL0     H94326   9.391   5.780   9.513 -2.0054  1.9807 -1.0369
  699MOL0     H94327   9.506   5.889   9.592  0.3187 -0.8347 -0.6824
  699MOL0     H94328   9.459   5.731   9.662  1.5245  0.3187 -0.2380
  699MOL0     H94329   9.668   5.844  10.065  1.1230 -0.1710 -0.3419
  699MOL0     H94330   9.874   5.941  10.200  1.2740  0.2537 -1.7413
  699MOL0     H94331  10.019   6.260  10.041  0.0709  3.5977 -1.7285
  699MOL0     H94332   9.945   6.374  10.132 -1.3619 -0.4890 -1.3703
  699MOL0     H94333  10.222   6.243  10.212 -1.5708 -1.6524 -0.5152
  699MOL0     H94334  10.189   6.402  10.175 -1.3362  1.1604  0.8111
  699MOL0     H94335  10.056   6.249  10.420  3.1805  0.1530  1.5207
  699MOL0     H94336  10.040   6.422  10.388 -3.0522 -0.4528  0.5577
  699MOL0     H94337  10.287   6.253  10.461  0.6359  0.1788  0.5267
  699MOL0     H94338  10.291   6.418  10.391  0.4935 -3.2483 -2.4799
  699MOL0     H94339  10.173   6.506  10.600 -1.3559  1.2740 -0.7393
  699MOL0     H94340  10.317   6.417  10.645 -0.0643 -2.8375 -0.4008
  699MOL0     H94341  10.031   6.318  10.669 -0.2642  1.5276 -0.0605
  699MOL0     H94342  10.163   6.207  10.671 -2.4526  0.6165 -0.5190
  699MOL0     H94343  10.129   6.443  10.868 -1.7853 -0.9761 -1.3298
  699MOL0     H94344  10.277   6.330  10.854 -0.0203 -1.5146 -0.2848
  699MOL0     H94345  10.148   6.234  11.022 -1.9700 -1.2296  1.3488
  699MOL0     H94346  10.084   6.153  10.879 -0.7263  0.9928  0.2787
  699MOL0     H94347   9.752   6.328  10.118  2.5576 -1.1514 -0.8903
  699MOL0     H94348   9.533   6.244  10.003 -0.6792  0.4861  1.7375
  699MOL0     H94349   9.210   6.130   9.906  2.2766  2.0332 -1.3243
  699MOL0     H94350   8.991   6.061   9.830  0.5540  2.5843 -1.7367
  699MOL0     H94351   9.903   5.457   8.721 -0.4330  0.6287  0.0228
  699MOL0     H94352  10.126   5.414   8.624  1.5995  0.2475  0.7460
  699MOL0     H94353  10.570   5.698   8.615  0.3212  0.8555  1.0779
  699MOL0     H94354  10.807   5.718   8.523 -0.7606  0.0760  0.8769
  699MOL0     H94355  10.988   5.385   8.305  0.2975  0.7742  2.0760
  699MOL0     H94356  10.918   5.466   8.165  1.5146 -0.6223 -0.6446
  699MOL0     H94357  11.159   5.553   8.317  0.3550 -0.3508 -1.0190
  699MOL0     H94358  11.095   5.629   8.167 -0.3287 -0.6371 -1.3831
  699MOL0     H94359  11.122   5.404   8.051 -0.6939  1.6422 -0.0749
  699MOL0     H94360  11.213   5.351   8.191  0.9890 -0.6346 -1.6098
  699MOL0     H94361  11.370   5.404   8.039 -1.5778 -2.3541  0.7506
  699MOL0     H94362  11.375   5.536   8.154 -2.5382 -0.5058  0.9491
  699MOL0     H94363  11.301   5.716   7.772 -1.9732  2.1335  0.7974
  699MOL0     H94364  10.717   5.385   8.264 -0.6341  0.3777  0.1396
  699MOL0     H94365  10.480   5.386   8.330 -0.5166 -0.6473 -0.3237
  700MOL0     O94366   5.825   6.911   1.399  0.3609 -0.6979  0.8719
  700MOL0     C94367   5.809   6.958   1.279  0.1312  0.6320 -0.3102
  700MOL0     O94368   5.705   7.035   1.247 -0.1332  0.2303  0.3253
  700MOL0     C94369   5.591   6.992   1.319  0.2212 -0.0761  0.1929
  700MOL0     C94370   5.514   6.890   1.265  0.6590 -0.4729 -0.4523
  700MOL0     C94371   5.412   6.828   1.340  0.4993 -0.7640 -0.7632
  700MOL0     C94372   5.388   6.885   1.473  0.3240  0.1949  0.4476
  700MOL0     O94373   5.289   6.836   1.557 -0.7711 -0.3542  0.7515
  700MOL0     C94374   5.180   6.751   1.512  0.0777  0.4652 -0.0253
  700MOL0     C94375   5.081   6.731   1.621  0.4358  0.7648 -0.2292
  700MOL0     C94376   5.067   6.840   1.734 -0.0429 -0.1697  0.4817
  700MOL0     C94377   4.939   6.824   1.811 -0.2894  0.6541 -0.2910
  700MOL0     C94378   4.925   6.918   1.918  0.2618  0.6291 -0.4367
  700MOL0     C94379   4.785   6.890   1.988  0.0702 -0.5939  1.2307
  700MOL0     C94380   4.771   6.979   2.108 -0.1854 -0.0907 -0.5238
  700MOL0     C94381   4.772   6.906   2.237 -0.3197 -0.0795  0.3717
  700MOL0     N94382   4.641   6.880   2.294 -0.3869 -0.2984 -0.2044
  700MOL0     C94383   4.596   6.757   2.343 -0.0117 -0.5969  0.5788
  700MOL0     C94384   4.488   6.793   2.410 -0.2764 -0.7554  0.4412
  700MOL0     C94385   4.415   6.713   2.513 -0.0923 -0.5347 -0.7084
  700MOL0     C94386   4.292   6.786   2.576 -0.1800 -0.2872 -0.2843
  700MOL0     C94387   4.163   6.767   2.500 -0.0225 -0.0336 -0.6683
  700MOL0     C94388   4.157   6.845   2.371  0.8597  0.0560 -0.4359
  700MOL0     O94389   4.021   6.843   2.319  0.2230 -1.2832 -0.5718
  700MOL0     C94390   3.974   6.743   2.241 -0.4170  1.1325  0.2078
  700MOL0     C94391   4.066   6.651   2.178 -0.0893  0.5947  0.1337
  700MOL0     C94392   4.031   6.551   2.091  0.6526  0.4365  0.2740
  700MOL0     C94393   4.142   6.462   2.031  0.2429 -0.0555  0.9377
  700MOL0     C94394   3.886   6.543   2.058  0.6651 -0.9601 -0.3087
  700MOL0     C94395   3.824   6.462   1.955  0.0905  1.2634  0.2492
  700MOL0     O94396   3.694   6.478   1.929  0.9891  0.7208  0.3409
  700MOL0     C94397   3.614   6.416   1.831 -0.3675 -0.2567  0.3440
  700MOL0     C94398   3.643   6.306   1.749 -0.2378 -0.5772  0.2932
  700MOL0     C94399   3.547   6.253   1.661 -0.1236 -0.0752 -0.0782
  700MOL0     C94400   3.420   6.307   1.647  0.2036 -0.0659 -0.0429
  700MOL0     O94401   3.316   6.270   1.568 -0.2793  0.3414 -0.5284
  700MOL0     C94402   3.297   6.129   1.568 -0.1869 -0.2208 -0.3456
  700MOL0     C94403   3.174   6.094   1.492  0.2911  0.1390  0.3953
  700MOL0     C94404   3.160   5.947   1.466 -0.1644  0.8925 -1.3428
  700MOL0     C94405   3.087   5.912   1.346  1.2611 -0.0518  1.4692
  700MOL0     C94406   2.946   5.971   1.332  0.1588 -0.1937  1.2265
  700MOL0     C94407   2.861   5.915   1.219  0.0203 -0.1348  0.1957
  700MOL0     C94408   2.779   5.786   1.250 -0.0921 -0.4518 -0.5650
  700MOL0     C94409   2.651   5.811   1.330  0.0096  1.2347 -0.1101
  700MOL0    Cl94410   2.563   5.657   1.343  0.2529 -0.3931  0.4093
  700MOL0     C94411   3.389   6.414   1.733 -0.3170  0.2931  0.2985
  700MOL0     C94412   3.487   6.466   1.825  0.6323  0.0099 -0.6055
  700MOL0     O94413   3.896   6.390   1.896 -0.8099  0.9354  0.7229
  700MOL0     C94414   3.794   6.632   2.124 -0.4454  0.5877 -0.7480
  700MOL0     C94415   3.838   6.730   2.213  0.2755 -0.2857 -0.4038
  700MOL0     N94416   4.456   6.925   2.390 -0.3406  0.3177  0.2557
  700MOL0     N94417   4.551   6.977   2.328 -0.1382 -0.0015  0.4051
  700MOL0     C94418   5.460   6.994   1.519  0.4081  0.9551 -0.2325
  700MOL0     C94419   5.566   7.058   1.444  0.2478  0.2552  0.3528
  700MOL0     C94420   5.916   6.942   1.177  0.4852  0.5052 -0.1718
  700MOL0     C94421   6.043   6.894   1.218 -0.1314 -0.0960 -0.7126
  700MOL0     C94422   6.148   6.884   1.127 -0.5521  0.1917  0.1562
  700MOL0     C94423   6.122   6.908   0.988  0.3155  0.0155 -0.2359
  700MOL0     O94424   6.229   6.901   0.901 -0.7063 -0.1159 -0.2590
  700MOL0     C94425   6.233   7.006   0.800  0.4641 -0.8296 -0.6489
  700MOL0     C94426   6.379   7.045   0.771 -0.1817 -0.5764  0.1650
  700MOL0     C94427   6.464   7.063   0.892  0.5461  0.6132 -0.1204
  700MOL0     C94428   6.611   7.059   0.849  0.1570  0.3827 -0.1789
  700MOL0     C94429   6.653   6.928   0.801 -0.2222 -0.3951  0.9936
  700MOL0     C94430   6.683   6.820   0.758 -0.4377  0.0377 -0.0070
  700MOL0     C94431   5.989   6.948   0.949  0.8480  0.2138  0.1079
  700MOL0     C94432   5.886   6.960   1.045  0.3759 -0.2381  0.6724
  700MOL0     H94433   5.548   6.861   1.166  0.5459 -0.5676 -0.4643
  700MOL0     H94434   5.354   6.748   1.296 -1.1205  0.7385 -1.5127
  700MOL0     H94435   5.139   6.807   1.427 -0.8002 -0.9180 -0.5393
  700MOL0     H94436   5.222   6.656   1.480  1.2228  0.4914  1.3285
  700MOL0     H94437   4.987   6.710   1.570  0.2243 -1.8676  1.1239
  700MOL0     H94438   5.118   6.642   1.672 -1.5617 -0.1168 -0.2238
  700MOL0     H94439   5.148   6.830   1.806  1.7020 -0.3125 -1.4114
  700MOL0     H94440   5.070   6.939   1.688  1.2256 -1.1542 -1.7409
  700MOL0     H94441   4.850   6.827   1.748 -2.6396 -1.5800  2.6046
  700MOL0     H94442   4.936   6.725   1.858  0.3837  1.1054  0.7617
  700MOL0     H94443   4.999   6.896   1.995 -0.1942  0.8171  0.0560
  700MOL0     H94444   4.935   7.020   1.879 -1.7003  1.3582  0.8009
  700MOL0     H94445   4.699   6.915   1.925 -0.1706 -1.5333  1.1660
  700MOL0     H94446   4.781   6.781   2.001  0.3023 -0.7946 -0.2496
  700MOL0     H94447   4.841   7.063   2.113 -0.2436 -0.1212  1.7614
  700MOL0     H94448   4.674   7.028   2.103 -1.9889 -3.1624  1.1924
  700MOL0     H94449   4.835   6.969   2.300  2.4902 -0.9388 -1.4049
  700MOL0     H94450   4.828   6.812   2.225  0.2905  0.1631  1.2318
  700MOL0     H94451   4.646   6.662   2.326  2.4929  0.4967  1.3151
  700MOL0     H94452   4.394   6.614   2.471 -0.8278 -1.0810  0.8837
  700MOL0     H94453   4.491   6.698   2.589 -0.0098 -1.2874 -0.9364
  700MOL0     H94454   4.314   6.892   2.595 -1.5214  0.0381 -0.3869
  700MOL0     H94455   4.274   6.736   2.672  0.0386  0.4396  0.1461
  700MOL0     H94456   4.086   6.800   2.570  0.5166 -0.4522  0.1306
  700MOL0     H94457   4.144   6.662   2.476  0.1899  0.1202 -1.5750
  700MOL0     H94458   4.237   6.815   2.301  2.5102 -0.7458  1.6899
  700MOL0     H94459   4.178   6.944   2.413  0.3129 -0.3311  0.7873
  700MOL0     H94460   4.173   6.673   2.183 -0.2043  1.3591 -0.5807
  700MOL0     H94461   4.235   6.516   2.051 -0.4633  0.8410  1.9643
  700MOL0     H94462   4.151   6.365   2.080  0.9161 -1.9511 -2.6218
  700MOL0     H94463   4.135   6.449   1.923 -0.9907  0.2900  0.9539
  700MOL0     H94464   3.741   6.258   1.751  0.6721  0.9853 -2.2830
  700MOL0     H94465   3.576   6.164   1.606 -0.1394 -0.2406  0.1835
  700MOL0     H94466   3.391   6.084   1.533  0.3298  0.5901 -0.0409
  700MOL0     H94467   3.278   6.100   1.672  0.5326  1.4701  0.2925
  700MOL0     H94468   3.089   6.133   1.548  1.0378  0.1741  1.5415
  700MOL0     H94469   3.168   6.151   1.399 -1.1772  0.4094  0.6357
  700MOL0     H94470   3.106   5.900   1.549  0.4509 -0.5128 -1.7052
  700MOL0     H94471   3.262   5.909   1.479 -0.6961 -0.0834  0.3450
  700MOL0     H94472   3.142   5.945   1.257 -1.0676  2.0249  0.6604
  700MOL0     H94473   3.079   5.803   1.351 -0.9834 -0.0349 -0.0707
  700MOL0     H94474   2.947   6.078   1.307 -1.5769 -0.6873 -1.2722
  700MOL0     H94475   2.892   5.958   1.427 -1.5647 -2.5468  0.0341
  700MOL0     H94476   2.791   5.996   1.197 -1.3761 -1.6207 -1.1363
  700MOL0     H94477   2.920   5.902   1.127 -1.0445  0.5614 -0.6095
  700MOL0     H94478   2.839   5.715   1.308  2.1783  2.2606  0.6973
  700MOL0     H94479   2.761   5.741   1.152  2.6667  1.6308 -2.1868
  700MOL0     H94480   2.589   5.889   1.284 -0.8146 -0.8722 -2.8620
  700MOL0     H94481   2.675   5.845   1.431  0.7310  4.3573 -1.2135
  700MOL0     H94482   3.292   6.462   1.727 -0.3144  0.1892 -0.8769
  700MOL0     H94483   3.480   6.550   1.894  2.8316 -1.4979  1.6419
  700MOL0     H94484   3.688   6.638   2.103 -1.2843  1.5119  3.0165
  700MOL0     H94485   3.762   6.797   2.252  0.2240  0.9071 -2.4032
  700MOL0     H94486   5.437   7.024   1.621  0.5527  1.0104 -0.2160
  700MOL0     H94487   5.618   7.139   1.493 -3.7524  2.7530  0.9434
  700MOL0     H94488   6.054   6.872   1.324 -1.8336 -0.7976 -0.6571
  700MOL0     H94489   6.241   6.839   1.161 -0.4599 -0.2510 -0.6497
  700MOL0     H94490   6.178   6.976   0.710 -1.4771 -4.2931  1.4571
  700MOL0     H94491   6.181   7.094   0.837  3.5597  1.0602 -0.4785
  700MOL0     H94492   6.381   7.141   0.719  0.4766 -0.6666  0.0194
  700MOL0     H94493   6.441   6.986   0.702  1.5691  3.6192 -2.2611
  700MOL0     H94494   6.453   6.996   0.978 -0.9608 -2.0090 -2.2222
  700MOL0     H94495   6.454   7.164   0.934 -0.9877  0.7640 -0.7972
  700MOL0     H94496   6.663   7.071   0.945 -2.2711 -0.5805  1.3724
  700MOL0     H94497   6.631   7.143   0.783  0.8236  0.8459  0.5921
  700MOL0     H94498   6.706   6.719   0.732  0.7516 -0.1084  1.4392
  700MOL0     H94499   5.967   6.968   0.844  0.2279 -0.3893  0.1161
  700MOL0     H94500   5.792   6.994   1.004  1.3904  0.8244 -0.9019
  701MOL0     O94501   3.686   6.714   9.680  0.3639  0.3112 -0.4377
  701MOL0     C94502   3.755   6.637   9.742 -0.6710 -0.6071 -0.5984
  701MOL0     O94503   3.709   6.546   9.840 -0.4590 -0.1989 -0.4357
  701MOL0     C94504   3.579   6.540   9.881  0.8503  0.4583 -0.1614
  701MOL0     C94505   3.501   6.650   9.907  0.2799 -0.0070 -0.0713
  701MOL0     C94506   3.364   6.637   9.947 -0.1091  0.2389 -0.1883
  701MOL0     C94507   3.306   6.511   9.953 -0.7963  0.7183 -0.2749
  701MOL0     O94508   3.173   6.489   9.984 -0.2443 -0.6871  0.4536
  701MOL0     C94509   3.101   6.586  10.057  0.8197 -0.2439 -0.4497
  701MOL0     C94510   2.982   6.539  10.135 -0.1962 -0.9001 -0.2214
  701MOL0     C94511   2.936   6.636  10.243  0.6387 -0.6134  0.0910
  701MOL0     C94512   2.827   6.586  10.342 -0.7573 -0.2338  0.2419
  701MOL0     C94513   2.824   6.677  10.470 -0.4233  0.4127 -0.3191
  701MOL0     C94514   2.779   6.821  10.457  0.4773  0.1597 -0.1567
  701MOL0     C94515   2.790   6.882  10.597  0.2732  0.6955  0.1961
  701MOL0     C94516   2.715   7.013  10.608  1.0377  0.2807  0.1683
  701MOL0     N94517   2.773   7.126  10.530  0.0381 -0.9727 -0.4498
  701MOL0     C94518   2.714   7.182  10.417 -0.6118 -0.3634 -0.0015
  701MOL0     C94519   2.815   7.255  10.365 -1.0254 -0.3726 -0.0632
  701MOL0     C94520   2.819   7.334  10.233 -0.1837  0.1971 -0.4291
  701MOL0     C94521   2.679   7.389  10.199  0.7973 -0.7112 -0.3653
  701MOL0     C94522   2.660   7.409  10.048 -1.0110 -0.6711  0.4223
  701MOL0     C94523   2.595   7.547  10.025  2.1679  0.0151 -0.1592
  701MOL0     O94524   2.449   7.530  10.048  0.7989  0.0805 -0.0549
  701MOL0     C94525   2.369   7.625   9.994  0.2166 -0.6702  0.3744
  701MOL0     C94526   2.282   7.594   9.888 -0.3422 -0.3078 -0.0724
  701MOL0     C94527   2.216   7.700   9.822 -0.4227 -0.6060 -0.6376
  701MOL0     C94528   2.150   7.665   9.694  0.2510 -0.1278  0.7470
  701MOL0     C94529   2.222   7.830   9.866 -0.2926  0.0950  0.3109
  701MOL0     C94530   2.172   7.938   9.794  0.0341 -0.2283 -0.5904
  701MOL0     O94531   2.054   7.930   9.730  0.7842  0.3633  0.6027
  701MOL0     C94532   2.015   8.018   9.629  0.3543 -0.2461 -0.4883
  701MOL0     C94533   1.943   7.958   9.518  0.4798  0.9031 -0.4874
  701MOL0     C94534   1.862   8.029   9.423  0.5348 -0.5886 -0.3284
  701MOL0     C94535   1.882   8.167   9.419 -0.3198 -1.3645 -0.4454
  701MOL0     O94536   1.813   8.237   9.321 -0.3786  0.7457 -0.2538
  701MOL0     C94537   1.794   8.384   9.352 -0.2355 -0.5775 -0.0621
  701MOL0     C94538   1.722   8.447   9.235  0.0417  0.2253  0.1951
  701MOL0     C94539   1.580   8.388   9.221 -0.3849  0.4134  0.9646
  701MOL0     C94540   1.501   8.426   9.350 -0.1741 -0.3838 -0.0393
  701MOL0     C94541   1.348   8.415   9.341  0.1873  0.6584  0.1713
  701MOL0     C94542   1.287   8.515   9.249  0.3958 -0.8477  0.2529
  701MOL0     C94543   1.129   8.533   9.270 -0.3197  0.5224 -0.5927
  701MOL0     C94544   1.043   8.463   9.162 -0.1230 -0.2234 -0.2788
  701MOL0    Cl94545   1.082   8.294   9.168 -0.3804 -0.1673  0.1700
  701MOL0     C94546   1.971   8.222   9.515 -0.5480  0.5560 -0.1557
  701MOL0     C94547   2.021   8.158   9.632 -0.7590 -0.2567 -0.4548
  701MOL0     O94548   2.250   8.026   9.776 -0.1494  0.4641  0.2707
  701MOL0     C94549   2.302   7.855   9.979 -0.1644 -0.0486 -0.9161
  701MOL0     C94550   2.364   7.752  10.042  0.9312  0.0802 -0.1723
  701MOL0     N94551   2.927   7.243  10.448 -0.6284 -0.6221 -1.0287
  701MOL0     N94552   2.910   7.163  10.544  0.6015 -0.4427  0.0852
  701MOL0     C94553   3.388   6.401   9.943 -0.6078  0.3071 -0.0549
  701MOL0     C94554   3.523   6.416   9.915 -0.4579  0.8467  0.2448
  701MOL0     C94555   3.904   6.634   9.715  0.1501 -0.3889  0.6194
  701MOL0     C94556   3.973   6.742   9.649 -0.8205 -0.3649 -0.6999
  701MOL0     C94557   4.103   6.713   9.595 -0.2489 -0.7397 -0.1881
  701MOL0     C94558   4.163   6.593   9.590 -0.0330  0.3719 -0.4168
  701MOL0     O94559   4.278   6.587   9.514  0.1929 -0.0575  0.2136
  701MOL0     C94560   4.329   6.445   9.496 -0.0468 -0.0814  0.8198
  701MOL0     C94561   4.434   6.434   9.382  0.4501  0.6018 -0.2293
  701MOL0     C94562   4.556   6.514   9.410 -0.4920 -0.7108 -0.5337
  701MOL0     C94563   4.548   6.675   9.402  0.5594  0.0086 -0.0698
  701MOL0     C94564   4.684   6.720   9.433  1.2741  0.1218  0.2348
  701MOL0     C94565   4.786   6.776   9.468  0.0021  0.6366  0.2268
  701MOL0     C94566   4.102   6.491   9.658 -0.2428 -0.7489  0.5822
  701MOL0     C94567   3.978   6.509   9.717 -0.1074  0.7582  0.4455
  701MOL0     H94568   3.560   6.741   9.905 -0.1889  0.4265  2.3688
  701MOL0     H94569   3.307   6.728   9.967  0.8158  0.6910  0.4488
  701MOL0     H94570   3.163   6.632  10.135 -3.0679  1.8635  1.6966
  701MOL0     H94571   3.065   6.674  10.004  1.8507  1.3547  1.3503
  701MOL0     H94572   2.906   6.515  10.060  0.5232  3.5562 -2.7803
  701MOL0     H94573   3.020   6.445  10.176  1.2384  1.0342  3.3600
  701MOL0     H94574   3.025   6.651  10.306  0.5966 -2.7234  0.7044
  701MOL0     H94575   2.901   6.718  10.179  3.5652 -1.0446 -2.3083
  701MOL0     H94576   2.733   6.575  10.288 -0.4735 -1.7364  0.0083
  701MOL0     H94577   2.854   6.483  10.366 -2.7751 -1.1637 -1.1933
  701MOL0     H94578   2.760   6.630  10.545  0.6976  0.6432  0.8092
  701MOL0     H94579   2.924   6.673  10.515 -0.3199 -1.6967 -0.6086
  701MOL0     H94580   2.833   6.880  10.383  0.1314 -1.6707 -1.9535
  701MOL0     H94581   2.674   6.826  10.427  0.0214 -2.2177  0.8569
  701MOL0     H94582   2.743   6.807  10.661  2.0648 -1.9378 -1.3599
  701MOL0     H94583   2.895   6.890  10.628  0.1570  1.9286  0.3106
  701MOL0     H94584   2.723   7.026  10.716 -0.5465 -1.6554  0.5718
  701MOL0     H94585   2.609   6.995  10.588  1.7229 -1.3851 -2.4413
  701MOL0     H94586   2.618   7.169  10.367 -1.1416  2.4525  0.1156
  701MOL0     H94587   2.894   7.413  10.236 -0.7047  0.6680  1.2360
  701MOL0     H94588   2.843   7.250  10.167 -2.3316 -2.2355  1.6318
  701MOL0     H94589   2.676   7.488  10.247 -0.2876  1.4324 -4.4339
  701MOL0     H94590   2.595   7.325  10.227  0.4454 -0.7209 -1.4317
  701MOL0     H94591   2.592   7.334  10.006 -1.4903 -0.2149  0.3867
  701MOL0     H94592   2.754   7.399   9.992 -2.1795 -1.4181 -1.4857
  701MOL0     H94593   2.628   7.578   9.926  2.3909 -2.1614 -0.8248
  701MOL0     H94594   2.623   7.621  10.101 -0.6919 -0.2694  1.2909
  701MOL0     H94595   2.273   7.490   9.859 -0.7161 -1.0024  2.3121
  701MOL0     H94596   2.184   7.568   9.657 -2.7039 -1.3237  0.8429
  701MOL0     H94597   2.045   7.640   9.713 -1.9092  1.2827 -6.3665
  701MOL0     H94598   2.155   7.742   9.617 -1.3276 -0.7032  0.0258
  701MOL0     H94599   1.935   7.850   9.515 -0.7705  0.9501  0.1983
  701MOL0     H94600   1.795   7.984   9.350  0.9865  0.1426 -1.2064
  701MOL0     H94601   1.765   8.404   9.456  1.9386 -2.1840  0.9375
  701MOL0     H94602   1.896   8.423   9.340  0.4412 -2.8285 -2.9346
  701MOL0     H94603   1.734   8.556   9.237  4.3848 -0.0698  0.9576
  701MOL0     H94604   1.772   8.429   9.140 -1.4053  2.1242 -0.9761
  701MOL0     H94605   1.582   8.279   9.207  2.2257  0.4976  0.1260
  701MOL0     H94606   1.547   8.434   9.127  1.7762  0.9965  0.4209
  701MOL0     H94607   1.543   8.371   9.434 -0.5159  1.2822  1.2808
  701MOL0     H94608   1.525   8.524   9.392 -0.2662 -0.2488 -0.2988
  701MOL0     H94609   1.311   8.433   9.442 -0.5105  1.0453 -0.1478
  701MOL0     H94610   1.321   8.314   9.310 -0.9351  1.2175 -0.7802
  701MOL0     H94611   1.329   8.616   9.256 -3.2831  0.7023  4.4996
  701MOL0     H94612   1.309   8.484   9.146 -3.0823  0.4827 -1.0286
  701MOL0     H94613   1.106   8.640   9.267  1.0861  0.8432 -2.8249
  701MOL0     H94614   1.104   8.497   9.370  4.4571 -1.9483 -0.0010
  701MOL0     H94615   1.061   8.496   9.060  0.6829 -0.3521 -0.1873
  701MOL0     H94616   0.938   8.463   9.192  0.1594  0.7398  0.7588
  701MOL0     H94617   1.983   8.329   9.504 -2.2187  0.8354  0.4555
  701MOL0     H94618   2.062   8.228   9.704 -2.0375 -0.2500  0.3038
  701MOL0     H94619   2.310   7.959  10.011 -1.2750 -0.5785  1.2338
  701MOL0     H94620   2.424   7.771  10.131  0.3495 -0.0768  0.2630
  701MOL0     H94621   3.346   6.305   9.971 -0.2362 -0.0677 -0.7539
  701MOL0     H94622   3.583   6.327   9.932  0.1892  1.3618  0.7489
  701MOL0     H94623   3.922   6.837   9.635 -2.5278 -0.4731  3.2892
  701MOL0     H94624   4.157   6.791   9.544  1.3566 -1.1828  0.7722
  701MOL0     H94625   4.358   6.398   9.590 -1.8888 -1.6353  0.6584
  701MOL0     H94626   4.248   6.384   9.456 -1.3208  3.2587 -2.3610
  701MOL0     H94627   4.387   6.457   9.285 -1.4342 -0.0658  0.4688
  701MOL0     H94628   4.461   6.329   9.374 -2.9093 -0.3108 -1.7672
  701MOL0     H94629   4.638   6.491   9.341  1.5849  2.8858  0.4586
  701MOL0     H94630   4.586   6.500   9.514  2.0510  0.2950 -1.0546
  701MOL0     H94631   4.482   6.723   9.474  1.2112  1.6078 -0.4781
  701MOL0     H94632   4.522   6.711   9.302  2.4263  0.5152 -0.4312
  701MOL0     H94633   4.869   6.834   9.503  0.0895  0.4245  0.3741
  701MOL0     H94634   4.138   6.389   9.649 -0.3368 -0.6375 -1.8313
  701MOL0     H94635   3.922   6.429   9.766  0.7869  0.1987  0.5721
  702MOL0     O94636   9.104   9.175   0.375 -0.0039  0.6674 -0.3469
  702MOL0     C94637   9.044   9.229   0.460  0.9966 -0.0677 -0.2659
  702MOL0     O94638   9.080   9.233   0.596 -0.0819 -0.4656  0.4333
  702MOL0     C94639   9.206   9.201   0.642 -0.1637  0.4481 -0.7895
  702MOL0     C94640   9.329   9.194   0.566  0.0299 -0.9388 -0.7539
  702MOL0     C94641   9.441   9.144   0.629 -0.9170  0.4135  0.7125
  702MOL0     C94642   9.450   9.102   0.761  0.7815 -0.0368  0.1243
  702MOL0     O94643   9.576   9.057   0.797 -0.2094  1.4325  0.2464
  702MOL0     C94644   9.595   8.999   0.931 -0.1698 -0.4654  0.1883
  702MOL0     C94645   9.700   8.888   0.937 -0.3251 -0.0470  0.7386
  702MOL0     C94646   9.851   8.941   0.921  0.2175  0.2497 -0.7921
  702MOL0     C94647   9.883   9.016   1.049 -0.4597 -0.3099  0.3437
  702MOL0     C94648  10.033   9.042   1.051  0.2720  0.5682  0.2155
  702MOL0     C94649  10.083   9.151   1.149  1.2755 -0.2813 -0.2727
  702MOL0     C94650  10.067   9.299   1.105  1.1337 -0.7631 -0.3172
  702MOL0     C94651  10.180   9.357   1.022  0.2545 -0.1644 -0.0975
  702MOL0     N94652  10.319   9.344   1.071 -0.3616 -0.7305  0.0311
  702MOL0     C94653  10.359   9.344   1.207 -0.1781  0.1472 -0.6216
  702MOL0     C94654  10.493   9.333   1.189  0.2096 -0.2437 -0.2527
  702MOL0     C94655  10.588   9.337   1.309  1.3512 -0.3635  1.2553
  702MOL0     C94656  10.713   9.273   1.267 -0.3651 -0.3029  0.3064
  702MOL0     C94657  10.803   9.256   1.389 -0.4182  0.2516 -0.3727
  702MOL0     C94658  10.942   9.204   1.351 -0.0852  0.5802 -0.4241
  702MOL0     O94659  10.976   9.135   1.464 -0.5108  0.2123  0.2647
  702MOL0     C94660  11.112   9.106   1.482  0.2351 -0.3331  0.3654
  702MOL0     C94661  11.154   8.991   1.539  0.2908 -0.0579 -0.3093
  702MOL0     C94662  11.290   8.960   1.570 -0.1909  0.1633 -1.2307
  702MOL0     C94663  11.314   8.828   1.649 -1.0922  0.1439  0.6310
  702MOL0     C94664  11.395   9.045   1.529 -0.8379 -0.0945  0.2491
  702MOL0     C94665  11.534   9.035   1.565  0.3978  0.2959  1.1705
  702MOL0     O94666  11.603   9.151   1.573 -0.1030  0.6847 -0.1475
  702MOL0     C94667  11.728   9.162   1.635 -0.3908  0.6884  0.6643
  702MOL0     C94668  11.780   9.099   1.740 -0.4004 -0.7825 -0.3861
  702MOL0     C94669  11.905   9.141   1.792 -0.8582 -0.1359 -0.3098
  702MOL0     C94670  11.985   9.236   1.740  0.0362 -0.3858  0.2986
  702MOL0     O94671  12.108   9.277   1.777  0.4841 -0.1416  0.5072
  702MOL0     C94672  12.187   9.195   1.864 -0.7857 -0.1327 -0.2511
  702MOL0     C94673  12.327   9.251   1.876 -0.4484 -0.7389 -0.7688
  702MOL0     C94674  12.405   9.213   1.756 -1.3434  0.1236 -0.3026
  702MOL0     C94675  12.480   9.080   1.766  0.3462 -0.3044  0.2166
  702MOL0     C94676  12.573   9.062   1.639  0.1572 -0.1099  0.6003
  702MOL0     C94677  12.654   8.932   1.634  0.0527  0.6125  0.9719
  702MOL0     C94678  12.778   8.912   1.727  0.5350 -0.2924 -0.9434
  702MOL0     C94679  12.853   8.790   1.702  0.2994 -0.1147  0.9792
  702MOL0    Cl94680  12.747   8.647   1.718  0.5639  0.1858  0.1625
  702MOL0     C94681  11.921   9.308   1.632 -0.6576  0.1555 -0.0392
  702MOL0     C94682  11.805   9.271   1.577 -0.6081  0.0027 -0.0342
  702MOL0     O94683  11.580   8.924   1.595  1.3189 -0.4684  0.6135
  702MOL0     C94684  11.349   9.167   1.467 -0.6515 -0.4958 -0.5618
  702MOL0     C94685  11.214   9.198   1.442  0.3638  0.8673  0.0205
  702MOL0     N94686  10.534   9.302   1.057 -0.1118 -0.8436  1.3351
  702MOL0     N94687  10.428   9.323   0.988 -0.0752  0.0700  0.2945
  702MOL0     C94688   9.339   9.113   0.838  0.7208 -1.0836 -0.2610
  702MOL0     C94689   9.220   9.177   0.782  0.4071 -0.0037  0.1962
  702MOL0     C94690   8.921   9.302   0.426  0.2006 -0.0651  0.5843
  702MOL0     C94691   8.859   9.390   0.517  0.0894 -0.3202 -0.2227
  702MOL0     C94692   8.740   9.445   0.484  1.1585 -0.3690  1.0887
  702MOL0     C94693   8.677   9.427   0.357  0.3921 -0.9965 -0.4661
  702MOL0     O94694   8.555   9.474   0.316  0.5614 -0.1749 -0.2419
  702MOL0     C94695   8.478   9.563   0.400  0.1417  0.3957  0.2986
  702MOL0     C94696   8.373   9.650   0.317  0.1614 -0.0507 -0.0844
  702MOL0     C94697   8.314   9.756   0.407 -0.2625  0.0222  0.5033
  702MOL0     C94698   8.164   9.744   0.423  0.0599 -0.2845 -0.3101
  702MOL0     C94699   8.139   9.638   0.525 -0.0338  0.0476 -0.1684
  702MOL0     C94700   8.123   9.550   0.602 -0.1441 -0.1434  0.0106
  702MOL0     C94701   8.738   9.335   0.268 -0.1290 -1.1959  0.5043
  702MOL0     C94702   8.858   9.275   0.306  0.1467  0.1206  0.0238
  702MOL0     H94703   9.328   9.235   0.466 -1.3460  1.9511  0.3136
  702MOL0     H94704   9.538   9.146   0.581 -0.3027  1.0993  1.9267
  702MOL0     H94705   9.627   9.081   0.995  3.8879 -1.5495 -0.1853
  702MOL0     H94706   9.505   8.954   0.974 -0.5648 -2.1184 -2.1455
  702MOL0     H94707   9.701   8.843   1.037 -0.5592 -1.6118  0.0592
  702MOL0     H94708   9.683   8.800   0.874 -2.3221 -0.8595  2.2787
  702MOL0     H94709   9.919   8.855   0.927  0.5230  0.5430  0.0896
  702MOL0     H94710   9.872   8.992   0.827 -1.6645 -2.6709 -2.9845
  702MOL0     H94711   9.828   9.110   1.043 -0.7679 -0.5684 -2.9146
  702MOL0     H94712   9.857   8.962   1.141  2.2592 -1.2773  0.6404
  702MOL0     H94713  10.088   8.952   1.078  0.8204  1.4627  2.2656
  702MOL0     H94714  10.067   9.060   0.948  0.3411  1.6341  0.4146
  702MOL0     H94715  10.023   9.132   1.239 -2.2996 -1.9005 -2.7744
  702MOL0     H94716  10.189   9.130   1.167  0.9287 -1.8242  0.0690
  702MOL0     H94717   9.970   9.304   1.056  0.6734 -3.7050  0.1231
  702MOL0     H94718  10.053   9.358   1.196  0.4285 -0.2012 -0.7845
  702MOL0     H94719  10.155   9.460   0.993 -2.4577 -0.8813 -0.6686
  702MOL0     H94720  10.173   9.294   0.932 -0.6030 -2.2504  1.3540
  702MOL0     H94721  10.303   9.350   1.300 -3.3579  1.2740 -2.4692
  702MOL0     H94722  10.601   9.443   1.332 -3.0767  2.3134 -5.4151
  702MOL0     H94723  10.542   9.273   1.385  1.0407  0.4042  1.7308
  702MOL0     H94724  10.770   9.336   1.198 -1.5501 -0.5573 -0.9456
  702MOL0     H94725  10.694   9.178   1.217 -0.5378  1.1343 -2.6096
  702MOL0     H94726  10.747   9.188   1.455  2.2649 -0.3104  1.5142
  702MOL0     H94727  10.807   9.352   1.440  0.1857 -1.4110  3.0130
  702MOL0     H94728  11.004   9.291   1.326 -1.3612  1.3013 -1.1812
  702MOL0     H94729  10.941   9.144   1.260  1.9511  2.3434 -1.7009
  702MOL0     H94730  11.081   8.920   1.578  1.8413 -1.1662  0.7412
  702MOL0     H94731  11.224   8.768   1.668 -0.1605 -1.2983  0.6791
  702MOL0     H94732  11.385   8.769   1.591  0.5338 -0.1446  2.7756
  702MOL0     H94733  11.370   8.851   1.740  1.2284 -2.1893 -0.0747
  702MOL0     H94734  11.723   9.016   1.781  1.2182 -1.7033  0.0846
  702MOL0     H94735  11.942   9.080   1.874  4.1295 -0.2590 -2.2927
  702MOL0     H94736  12.138   9.190   1.962 -0.2584  0.0830  0.0303
  702MOL0     H94737  12.199   9.090   1.835  0.3285  0.0342 -0.4141
  702MOL0     H94738  12.329   9.358   1.898  4.7886 -0.7886  0.4008
  702MOL0     H94739  12.384   9.210   1.960  0.1534  0.3673 -0.6087
  702MOL0     H94740  12.490   9.283   1.762  0.5204 -2.1371  1.4260
  702MOL0     H94741  12.354   9.231   1.661 -0.9336  1.5969 -0.2685
  702MOL0     H94742  12.539   9.077   1.858  1.0076 -2.1605 -0.2367
  702MOL0     H94743  12.396   9.010   1.770  0.3531 -0.2871  0.7940
  702MOL0     H94744  12.646   9.142   1.623 -1.2540  0.7899 -1.9376
  702MOL0     H94745  12.520   9.066   1.544  1.1937 -1.9630 -0.1072
  702MOL0     H94746  12.582   8.852   1.657  1.8546 -1.2258  0.4886
  702MOL0     H94747  12.687   8.925   1.531 -1.6885  2.5911  0.2008
  702MOL0     H94748  12.748   8.910   1.832 -0.1294  0.9501 -1.0938
  702MOL0     H94749  12.843   8.997   1.704 -1.2255  1.0761 -1.1161
  702MOL0     H94750  12.942   8.775   1.764  0.8481 -1.6129 -0.1126
  702MOL0     H94751  12.888   8.797   1.599 -0.4056  0.2822  0.7638
  702MOL0     H94752  11.982   9.379   1.577  1.6975  1.6589  4.0971
  702MOL0     H94753  11.760   9.329   1.497 -1.6172  1.4444  1.4919
  702MOL0     H94754  11.426   9.240   1.445 -1.9729  1.2154  0.2382
  702MOL0     H94755  11.201   9.293   1.391  3.1664 -0.3955 -3.5004
  702MOL0     H94756   9.341   9.099   0.945 -1.5642 -0.8269 -0.1339
  702MOL0     H94757   9.129   9.187   0.841 -0.3245 -0.2353 -0.8804
  702MOL0     H94758   8.908   9.420   0.609  1.6918 -2.1707 -0.4170
  702MOL0     H94759   8.685   9.506   0.555  2.0750 -0.1036  1.5880
  702MOL0     H94760   8.415   9.500   0.463 -1.0558  2.2206  1.0014
  702MOL0     H94761   8.544   9.627   0.460 -2.7239  0.6034  3.4907
  702MOL0     H94762   8.298   9.589   0.266  0.4288  0.3237 -0.9322
  702MOL0     H94763   8.432   9.692   0.235 -0.0173 -1.6241 -1.0541
  702MOL0     H94764   8.320   9.852   0.355  2.0691  0.1449  0.9115
  702MOL0     H94765   8.362   9.759   0.505 -2.5549 -0.8787  1.7370
  702MOL0     H94766   8.124   9.719   0.324 -0.9651  0.4533 -0.1052
  702MOL0     H94767   8.122   9.836   0.463 -0.2268 -0.2547 -0.6704
  702MOL0     H94768   8.091   9.478   0.675 -0.3821 -0.8111 -0.7355
  702MOL0     H94769   8.696   9.315   0.170 -1.7909  1.9751  0.4411
  702MOL0     H94770   8.909   9.213   0.233 -0.4558  2.1370 -2.2610
  703MOL0     O94771   0.384   6.048   2.167 -0.6982 -0.3154 -0.0931
  703MOL0     C94772   0.352   6.155   2.212 -0.4482  0.9230  1.3605
  703MOL0     O94773   0.225   6.187   2.211 -0.0908 -0.0082  0.3316
  703MOL0     C94774   0.124   6.096   2.204 -0.7035 -0.3441 -0.4348
  703MOL0     C94775   0.115   5.957   2.210 -0.7472 -0.4832 -0.1971
  703MOL0     C94776  -0.006   5.892   2.214  0.3545 -0.0423  0.5767
  703MOL0     C94777  -0.121   5.960   2.185  0.1053  0.0739 -0.3359
  703MOL0     O94778  -0.247   5.905   2.191  0.1234 -0.4474 -0.2819
  703MOL0     C94779  -0.309   5.899   2.060 -0.5393 -0.2552  0.5033
  703MOL0     C94780  -0.452   5.840   2.071 -0.2848 -0.1490 -1.0924
  703MOL0     C94781  -0.502   5.770   1.945 -0.7402 -0.1255  0.3068
  703MOL0     C94782  -0.642   5.710   1.959 -0.2330 -0.7307 -1.0177
  703MOL0     C94783  -0.739   5.764   1.846 -0.1454  0.4688 -0.8597
  703MOL0     C94784  -0.893   5.730   1.865  0.2194  0.2360 -0.1517
  703MOL0     C94785  -0.983   5.779   1.753 -0.1132 -0.1736  0.5316
  703MOL0     C94786  -1.127   5.719   1.763 -0.1734 -0.2315 -0.0036
  703MOL0     N94787  -1.197   5.757   1.634  0.2717  1.0382 -0.2491
  703MOL0     C94788  -1.202   5.885   1.590 -0.3395  0.3489 -0.6763
  703MOL0     C94789  -1.293   5.890   1.488  1.3368 -0.2143  0.1027
  703MOL0     C94790  -1.331   6.011   1.406 -0.0252  0.2147  0.0024
  703MOL0     C94791  -1.478   6.047   1.432  0.3101  0.8714  0.2902
  703MOL0     C94792  -1.513   6.189   1.383 -0.0290  0.1720 -0.3288
  703MOL0     C94793  -1.671   6.196   1.378 -0.7921 -0.1117  0.7505
  703MOL0     O94794  -1.721   6.093   1.289  0.6559  0.5693 -0.3694
  703MOL0     C94795  -1.850   6.112   1.253 -1.4799  0.4820  0.4135
  703MOL0     C94796  -1.889   6.043   1.138  1.0514  0.7271 -0.3554
  703MOL0     C94797  -2.017   6.027   1.102  0.3213  0.8723 -0.1301
  703MOL0     C94798  -2.048   5.915   1.002 -0.3007  0.4573 -0.2995
  703MOL0     C94799  -2.118   6.102   1.167  0.8565 -0.7393 -0.4570
  703MOL0     C94800  -2.268   6.091   1.147 -0.6761  0.7036 -0.0632
  703MOL0     O94801  -2.311   5.970   1.106 -0.3468  0.1407 -0.3155
  703MOL0     C94802  -2.436   5.956   1.059  0.7933 -0.8682 -0.6506
  703MOL0     C94803  -2.528   5.878   1.125 -0.5396 -0.4537 -0.5734
  703MOL0     C94804  -2.655   5.844   1.085  0.4286 -0.2443  0.3504
  703MOL0     C94805  -2.693   5.881   0.955  0.4566  0.7513  0.1055
  703MOL0     O94806  -2.811   5.852   0.886  0.0683  0.3862  0.0995
  703MOL0     C94807  -2.864   5.726   0.878  0.2950 -0.1889 -0.2136
  703MOL0     C94808  -2.912   5.681   0.741 -0.0951 -0.2081  0.1267
  703MOL0     C94809  -2.978   5.540   0.762 -0.3033  0.1555  0.0621
  703MOL0     C94810  -3.096   5.517   0.664 -0.3067 -0.2464  0.5700
  703MOL0     C94811  -3.182   5.414   0.715  0.4381  0.8059 -0.0948
  703MOL0     C94812  -3.295   5.399   0.620  0.4999 -0.7705  0.3665
  703MOL0     C94813  -3.389   5.279   0.649 -0.8293 -0.2087  1.3779
  703MOL0     C94814  -3.314   5.148   0.594  0.2161  0.9927  0.5897
  703MOL0    Cl94815  -3.419   5.013   0.615  0.3362 -0.2862  0.3075
  703MOL0     C94816  -2.596   5.959   0.882 -0.1113  0.0372 -0.1611
  703MOL0     C94817  -2.473   5.994   0.932  0.2556  0.5872 -0.2810
  703MOL0     O94818  -2.333   6.191   1.176 -0.2436 -0.4148 -0.0647
  703MOL0     C94819  -2.080   6.188   1.281  0.2372  0.3865 -0.0086
  703MOL0     C94820  -1.947   6.187   1.322 -0.3603  0.0657  0.2249
  703MOL0     N94821  -1.334   5.763   1.475  0.6953  0.1302  0.0657
  703MOL0     N94822  -1.276   5.680   1.556  0.0127 -0.0746 -0.4030
  703MOL0     C94823  -0.114   6.095   2.173 -0.2269  0.0867 -0.5369
  703MOL0     C94824   0.004   6.163   2.183  0.2588  0.2625 -0.2712
  703MOL0     C94825   0.454   6.248   2.263  0.0580  0.2765 -0.8522
  703MOL0     C94826   0.591   6.223   2.274  0.1863  0.8797  0.3986
  703MOL0     C94827   0.683   6.326   2.314  0.5265  0.9531 -0.6152
  703MOL0     C94828   0.634   6.451   2.348  0.2378  0.9021  0.8490
  703MOL0     O94829   0.704   6.561   2.378 -0.4352  0.2576 -0.3730
  703MOL0     C94830   0.847   6.558   2.356 -0.0512  0.3343 -0.1108
  703MOL0     C94831   0.911   6.701   2.366 -0.4800  0.1621 -0.7402
  703MOL0     C94832   1.050   6.698   2.421  0.4701 -0.0724  0.2705
  703MOL0     C94833   1.164   6.682   2.325  0.2876  0.5823  1.1786
  703MOL0     C94834   1.295   6.725   2.377  0.8187  0.1020 -0.0179
  703MOL0     C94835   1.392   6.767   2.424 -0.3025  0.6551 -0.2086
  703MOL0     C94836   0.499   6.467   2.362  0.9110  0.7258  0.5417
  703MOL0     C94837   0.408   6.371   2.316 -0.2683  0.1348 -0.4287
  703MOL0     H94838   0.210   5.906   2.224  0.7925  2.3389  0.1769
  703MOL0     H94839  -0.010   5.786   2.235  2.6059 -0.7036 -1.7685
  703MOL0     H94840  -0.330   5.998   2.018  1.0632  0.5399  1.5139
  703MOL0     H94841  -0.255   5.843   1.983 -1.8051  1.0989 -1.4852
  703MOL0     H94842  -0.451   5.775   2.159  0.0336 -0.4139 -1.2892
  703MOL0     H94843  -0.526   5.915   2.098  0.3533  0.2251 -0.3521
  703MOL0     H94844  -0.499   5.852   1.874 -0.9122 -0.1124  0.3154
  703MOL0     H94845  -0.424   5.698   1.918  0.4611  0.9978  0.6746
  703MOL0     H94846  -0.639   5.601   1.962 -0.5729 -0.7232  0.6570
  703MOL0     H94847  -0.694   5.751   2.046 -2.0292  0.4288 -2.5558
  703MOL0     H94848  -0.724   5.871   1.835  1.0910  0.5037  0.8410
  703MOL0     H94849  -0.712   5.722   1.748 -0.8085 -0.8417 -0.5150
  703MOL0     H94850  -0.912   5.623   1.876  1.3171 -0.4922 -3.9278
  703MOL0     H94851  -0.933   5.781   1.953 -0.7671  0.2430 -0.5912
  703MOL0     H94852  -0.994   5.888   1.756 -1.9508 -0.2033 -1.8253
  703MOL0     H94853  -0.957   5.746   1.652 -0.6666  2.5917 -0.6239
  703MOL0     H94854  -1.180   5.760   1.849 -1.0613  0.2075 -0.7424
  703MOL0     H94855  -1.134   5.611   1.777 -1.4836 -0.1220  0.2736
  703MOL0     H94856  -1.139   5.965   1.628 -1.1193  0.1572  1.0782
  703MOL0     H94857  -1.268   6.094   1.440 -0.9754  0.7804  0.4112
  703MOL0     H94858  -1.330   5.995   1.298  2.6152 -0.4988  0.0458
  703MOL0     H94859  -1.500   6.033   1.539  0.9560  0.8362  0.4238
  703MOL0     H94860  -1.532   5.976   1.370  1.3936 -1.3289  1.7375
  703MOL0     H94861  -1.462   6.209   1.288  4.7386  0.7624  2.0855
  703MOL0     H94862  -1.474   6.270   1.445 -0.4971 -0.4566  0.8116
  703MOL0     H94863  -1.709   6.293   1.346  1.5647  0.9555  0.9637
  703MOL0     H94864  -1.705   6.186   1.482  0.6002  0.2565  1.2656
  703MOL0     H94865  -1.814   5.995   1.075  0.2588  1.3393 -1.8196
  703MOL0     H94866  -2.124   5.963   0.940 -0.4532  3.0833  1.7550
  703MOL0     H94867  -1.954   5.883   0.955  1.5511  1.3722  2.4939
  703MOL0     H94868  -2.091   5.830   1.056  0.3729  0.6573  0.5693
  703MOL0     H94869  -2.491   5.844   1.222 -0.8084 -0.5737 -0.5118
  703MOL0     H94870  -2.724   5.794   1.153 -0.2928 -1.4523 -1.2211
  703MOL0     H94871  -2.795   5.654   0.924 -2.1952 -0.6188  3.2455
  703MOL0     H94872  -2.957   5.726   0.937  0.2460 -0.3434 -0.2903
  703MOL0     H94873  -2.983   5.747   0.690  0.4909 -0.6388 -1.3074
  703MOL0     H94874  -2.824   5.667   0.676  1.3444 -1.3253  2.1953
  703MOL0     H94875  -3.030   5.538   0.858 -2.2885  1.0638 -0.9240
  703MOL0     H94876  -2.913   5.452   0.758 -2.4955 -1.5204 -0.4525
  703MOL0     H94877  -3.155   5.609   0.656  1.1157  0.5220 -2.0458
  703MOL0     H94878  -3.051   5.485   0.570 -3.0045 -1.7548 -0.3038
  703MOL0     H94879  -3.225   5.453   0.808  3.2083  0.5209  1.4032
  703MOL0     H94880  -3.131   5.324   0.749 -3.4099 -2.7314 -2.6294
  703MOL0     H94881  -3.355   5.490   0.621  1.8462  0.1746 -0.8947
  703MOL0     H94882  -3.258   5.391   0.517  0.3442 -0.3099  0.2725
  703MOL0     H94883  -3.477   5.279   0.584  0.7047 -2.8356 -0.8744
  703MOL0     H94884  -3.401   5.276   0.758 -1.1893 -2.0962  1.3195
  703MOL0     H94885  -3.215   5.130   0.639  0.1328  2.1859  1.2752
  703MOL0     H94886  -3.301   5.160   0.486  2.5064 -3.0566  0.2142
  703MOL0     H94887  -2.635   6.010   0.794 -2.1807  0.3667  0.8715
  703MOL0     H94888  -2.416   6.065   0.874 -0.4933  0.2526 -1.4601
  703MOL0     H94889  -2.143   6.245   1.348  3.4498  0.1993  3.5460
  703MOL0     H94890  -1.936   6.231   1.421 -1.3428 -0.1797  0.4543
  703MOL0     H94891  -0.198   6.163   2.160 -1.7103 -1.2764  1.4646
  703MOL0     H94892  -0.008   6.271   2.174  2.4383  0.5550 -0.1766
  703MOL0     H94893   0.625   6.129   2.233 -1.5571  0.2879  0.2237
  703MOL0     H94894   0.789   6.303   2.306  0.6000  0.1521  1.8816
  703MOL0     H94895   0.888   6.490   2.431 -3.8872  1.6734  3.6549
  703MOL0     H94896   0.874   6.530   2.254  2.0162  0.5008  0.3427
  703MOL0     H94897   0.842   6.759   2.429 -1.1459 -1.4377  0.0513
  703MOL0     H94898   0.916   6.746   2.266  3.0680 -0.8087 -1.1071
  703MOL0     H94899   1.055   6.622   2.500 -3.0078  0.4966  1.1913
  703MOL0     H94900   1.059   6.793   2.474 -0.1205  0.7601 -1.0790
  703MOL0     H94901   1.157   6.729   2.226  0.2670 -1.1991  0.2984
  703MOL0     H94902   1.172   6.573   2.322 -0.0710  0.5720  0.5025
  703MOL0     H94903   1.487   6.804   2.459 -0.4143  1.4307 -0.7015
  703MOL0     H94904   0.453   6.561   2.390  1.2174  0.9802  0.1989
  703MOL0     H94905   0.306   6.402   2.333 -0.2662 -0.6514  1.1686
  704MOL0     O94906  11.357   8.820   3.906  0.5785 -0.5979 -0.1163
  704MOL0     C94907  11.363   8.758   4.012 -0.0873 -0.1779  0.7152
  704MOL0     O94908  11.266   8.680   4.063 -0.8876  0.5503 -1.4246
  704MOL0     C94909  11.142   8.666   4.010 -0.2004 -0.3126 -0.6169
  704MOL0     C94910  11.072   8.755   3.932 -0.0387  0.1600 -0.0263
  704MOL0     C94911  10.941   8.732   3.886 -0.2918  0.0168  0.1480
  704MOL0     C94912  10.880   8.614   3.908 -0.1997  1.4884 -0.1257
  704MOL0     O94913  10.766   8.563   3.854 -0.5722 -0.9954 -1.1772
  704MOL0     C94914  10.696   8.636   3.757 -0.8507  0.2357  0.7647
  704MOL0     C94915  10.574   8.554   3.701  0.2705  0.1821 -0.2191
  704MOL0     C94916  10.450   8.578   3.782 -0.6224 -0.0192 -1.0225
  704MOL0     C94917  10.332   8.512   3.741 -0.5240  0.4308  0.0091
  704MOL0     C94918  10.208   8.542   3.821  0.9147 -0.1073  0.2451
  704MOL0     C94919  10.072   8.471   3.764 -0.4468  0.6195 -0.2916
  704MOL0     C94920  10.086   8.324   3.732  0.5935 -0.4317 -0.0527
  704MOL0     C94921   9.944   8.249   3.731 -0.0885  0.6956  0.1032
  704MOL0     N94922   9.867   8.319   3.630  0.7094 -0.0764  0.0062
  704MOL0     C94923   9.879   8.308   3.492  0.4624  0.0405 -0.6532
  704MOL0     C94924   9.782   8.388   3.438  0.3598  0.0023 -0.1217
  704MOL0     C94925   9.741   8.409   3.294 -0.3365  0.9548  0.2852
  704MOL0     C94926   9.589   8.405   3.280  0.8458 -0.2212  0.2849
  704MOL0     C94927   9.525   8.544   3.281 -1.0621 -0.0257  0.7805
  704MOL0     C94928   9.406   8.563   3.184  0.3715  1.6789  0.6098
  704MOL0     O94929   9.462   8.550   3.051  0.1421 -0.0435  0.1776
  704MOL0     C94930   9.373   8.561   2.939  0.6862 -0.2803 -0.1169
  704MOL0     C94931   9.426   8.535   2.815 -0.8593  0.4174  0.1527
  704MOL0     C94932   9.349   8.533   2.706 -1.1522  0.0056 -1.2925
  704MOL0     C94933   9.432   8.489   2.583 -1.0135 -0.8243 -1.4226
  704MOL0     C94934   9.210   8.562   2.704 -0.5528 -0.4103 -0.1333
  704MOL0     C94935   9.125   8.544   2.582 -0.0650 -0.0788  0.7464
  704MOL0     O94936   9.186   8.550   2.462 -0.2565 -0.5937  0.2529
  704MOL0     C94937   9.107   8.537   2.348 -0.4713  0.2659  0.2114
  704MOL0     C94938   9.035   8.641   2.297  0.1092 -0.3071 -0.1057
  704MOL0     C94939   8.968   8.619   2.171 -0.4016 -0.4193 -0.1983
  704MOL0     C94940   8.963   8.494   2.118  0.8393 -0.0924  0.7722
  704MOL0     O94941   8.886   8.463   2.013  0.0441  0.6759  0.3433
  704MOL0     C94942   8.793   8.356   2.022  0.6457  0.1490 -0.0229
  704MOL0     C94943   8.730   8.342   1.887  0.9550 -0.7804 -0.6408
  704MOL0     C94944   8.836   8.286   1.792  0.4371 -0.1233 -0.1107
  704MOL0     C94945   8.773   8.277   1.651 -0.1042  0.1399 -0.1404
  704MOL0     C94946   8.873   8.238   1.552  0.1376  0.2835 -0.1799
  704MOL0     C94947   8.826   8.191   1.412 -0.9669 -0.0061  0.9234
  704MOL0     C94948   8.714   8.089   1.401  0.4769  0.3557 -0.9329
  704MOL0     C94949   8.653   8.081   1.266  0.2542 -1.4197 -0.2914
  704MOL0    Cl94950   8.500   7.975   1.270 -0.0043 -0.2332 -0.1099
  704MOL0     C94951   9.047   8.390   2.162  0.6828  0.0936 -0.2823
  704MOL0     C94952   9.118   8.412   2.278  0.2788 -0.5114 -0.5184
  704MOL0     O94953   9.002   8.519   2.598 -0.9390  0.2029  0.1885
  704MOL0     C94954   9.156   8.589   2.836 -0.9023 -0.1484  0.6590
  704MOL0     C94955   9.231   8.590   2.949  0.4077  0.1907 -0.7027
  704MOL0     N94956   9.700   8.424   3.543 -0.5006  0.2371  0.8515
  704MOL0     N94957   9.753   8.387   3.660  0.4053 -0.1703 -0.8696
  704MOL0     C94958  10.951   8.516   3.987 -0.4822 -0.1402 -0.1345
  704MOL0     C94959  11.081   8.547   4.037  0.8189 -0.2632 -0.3037
  704MOL0     C94960  11.490   8.771   4.089  0.3950  0.1258 -0.2912
  704MOL0     C94961  11.603   8.838   4.029  1.2493 -0.4225 -0.1865
  704MOL0     C94962  11.714   8.859   4.106  0.0139 -1.3149 -0.6469
  704MOL0     C94963  11.721   8.819   4.239 -0.7639 -0.4489 -0.4902
  704MOL0     O94964  11.836   8.832   4.311  0.6435 -0.2176 -0.2329
  704MOL0     C94965  11.961   8.844   4.244  0.0610  0.3509 -0.2405
  704MOL0     C94966  12.078   8.857   4.350 -0.4740  0.0295  0.0158
  704MOL0     C94967  12.219   8.858   4.292  0.5526  0.7473 -1.5645
  704MOL0     C94968  12.317   8.920   4.392  0.3142 -0.0126  0.1499
  704MOL0     C94969  12.450   8.949   4.325  0.7721  0.2657 -0.3974
  704MOL0     C94970  12.556   8.976   4.275 -0.5948  0.7399 -0.4789
  704MOL0     C94971  11.618   8.741   4.296  0.8289 -1.1890 -0.0963
  704MOL0     C94972  11.504   8.721   4.216  0.6206 -0.0575 -0.2402
  704MOL0     H94973  11.108   8.855   3.911 -0.7621  0.5241  0.4222
  704MOL0     H94974  10.918   8.812   3.817  4.7859  1.1773 -0.6203
  704MOL0     H94975  10.660   8.726   3.810  0.3523 -0.5185  2.9989
  704MOL0     H94976  10.758   8.661   3.671 -0.5874 -1.0800  0.5535
  704MOL0     H94977  10.561   8.581   3.596  1.0365 -0.8376 -0.6020
  704MOL0     H94978  10.600   8.448   3.711 -3.0055 -0.6380  0.5890
  704MOL0     H94979  10.471   8.543   3.884  1.5844  2.3202 -0.5634
  704MOL0     H94980  10.429   8.685   3.777  2.0092  0.5538 -1.3418
  704MOL0     H94981  10.308   8.534   3.636  0.4435 -2.5951 -0.9561
  704MOL0     H94982  10.345   8.403   3.739  1.3239  0.5184  2.6040
  704MOL0     H94983  10.232   8.522   3.925 -2.4844  2.0734  1.5958
  704MOL0     H94984  10.199   8.650   3.833  1.4067 -0.1548  1.1327
  704MOL0     H94985   9.998   8.486   3.844 -0.4266  0.3400 -0.2175
  704MOL0     H94986  10.029   8.529   3.682 -1.3359  2.0101  1.0915
  704MOL0     H94987  10.138   8.300   3.639 -0.2214 -0.8720 -0.4084
  704MOL0     H94988  10.141   8.267   3.807  0.2958  0.0777  0.5551
  704MOL0     H94989   9.895   8.252   3.828 -0.9551 -0.0462 -0.2944
  704MOL0     H94990   9.957   8.148   3.691 -2.4859  1.0403 -1.8130
  704MOL0     H94991   9.970   8.264   3.452  1.5865  2.9637 -1.5384
  704MOL0     H94992   9.776   8.503   3.251 -0.2240  1.0023  0.4749
  704MOL0     H94993   9.773   8.331   3.225  0.2548  3.3122 -2.2415
  704MOL0     H94994   9.547   8.340   3.357 -0.5976  1.9875  1.4530
  704MOL0     H94995   9.580   8.355   3.183  2.4074 -0.8015  0.3974
  704MOL0     H94996   9.598   8.614   3.240 -3.4199 -0.0591 -4.2815
  704MOL0     H94997   9.520   8.558   3.389 -0.6449  2.1762  0.5537
  704MOL0     H94998   9.364   8.664   3.192 -1.4686  1.0638 -0.5991
  704MOL0     H94999   9.324   8.493   3.204 -0.2709  2.3553  0.3983
  704MOL0     H95000   9.529   8.500   2.818 -0.5185  0.9358 -2.7054
  704MOL0     H95001   9.406   8.396   2.532  4.3367 -2.9717 -0.9060
  704MOL0     H95002   9.425   8.573   2.513 -0.6323  2.1815  1.8779
  704MOL0     H95003   9.537   8.467   2.603 -0.6412 -0.6308 -2.9822
  704MOL0     H95004   9.024   8.737   2.346  0.9979 -0.1714 -0.1441
  704MOL0     H95005   8.912   8.695   2.116 -1.2353 -1.7683 -1.2893
  704MOL0     H95006   8.838   8.260   2.049  2.1994  0.7691 -0.3114
  704MOL0     H95007   8.711   8.392   2.086 -0.9842 -0.7345 -1.5345
  704MOL0     H95008   8.650   8.267   1.897 -0.2369  0.7355  2.2696
  704MOL0     H95009   8.689   8.436   1.849  0.2835 -1.4423 -1.6189
  704MOL0     H95010   8.862   8.185   1.824  1.4129  0.7375  1.9528
  704MOL0     H95011   8.928   8.345   1.798  1.1244 -1.1254 -0.4969
  704MOL0     H95012   8.703   8.193   1.651  1.6748 -1.4264  1.3298
  704MOL0     H95013   8.725   8.371   1.624 -0.9708 -0.6465 -1.4634
  704MOL0     H95014   8.944   8.164   1.588 -0.9053 -0.3869  0.5529
  704MOL0     H95015   8.932   8.329   1.537 -1.2671  1.0952 -1.0842
  704MOL0     H95016   8.807   8.276   1.345  0.5435 -1.7224 -1.8986
  704MOL0     H95017   8.912   8.138   1.370  0.2789  1.6410  1.2517
  704MOL0     H95018   8.641   8.125   1.474  1.5148 -1.1738  0.9626
  704MOL0     H95019   8.744   7.989   1.433 -0.5415 -0.1091 -1.3704
  704MOL0     H95020   8.726   8.042   1.194  2.2534 -0.2914  1.0368
  704MOL0     H95021   8.630   8.183   1.233 -1.7588 -0.9734  2.2071
  704MOL0     H95022   9.057   8.297   2.108  0.5921 -0.0790 -0.0010
  704MOL0     H95023   9.171   8.330   2.327  3.1591  0.4296 -1.8358
  704MOL0     H95024   9.050   8.609   2.847 -0.1798  3.8712  1.8360
  704MOL0     H95025   9.199   8.622   3.048  3.7485  0.3816  0.4530
  704MOL0     H95026  10.901   8.421   4.007  1.4735 -0.7740  2.2433
  704MOL0     H95027  11.128   8.470   4.097  0.3617  0.5871  1.1755
  704MOL0     H95028  11.598   8.873   3.927 -2.2002 -3.6678 -1.3378
  704MOL0     H95029  11.791   8.915   4.054 -1.8599  0.4289 -1.6918
  704MOL0     H95030  11.983   8.761   4.176 -0.9872  0.3412 -0.5905
  704MOL0     H95031  11.955   8.933   4.181  0.7544 -0.3851 -1.3910
  704MOL0     H95032  12.081   8.780   4.427  1.3900 -0.1686 -0.2070
  704MOL0     H95033  12.067   8.957   4.394 -2.6214  0.6639 -1.7472
  704MOL0     H95034  12.214   8.914   4.198 -0.2709  1.7938 -0.9174
  704MOL0     H95035  12.248   8.753   4.281 -1.6933 -0.1019 -0.0153
  704MOL0     H95036  12.332   8.843   4.469 -0.6967 -2.0685 -1.5875
  704MOL0     H95037  12.260   9.006   4.430  0.2157 -1.2058  2.9966
  704MOL0     H95038  12.655   8.998   4.241  0.6158 -0.9541  1.6779
  704MOL0     H95039  11.630   8.709   4.399 -2.7337 -0.8554  0.5513
  704MOL0     H95040  11.419   8.669   4.259 -0.0973 -0.3219 -1.9220
  705MOL0     O95041   1.844  11.093   0.369  0.7473  0.9492  0.1518
  705MOL0     C95042   1.841  11.099   0.246  0.5511  0.1334  0.2487
  705MOL0     O95043   1.731  11.132   0.165  0.1206 -0.6245 -0.3135
  705MOL0     C95044   1.604  11.138   0.216 -0.4991 -0.7212 -0.3441
  705MOL0     C95045   1.494  11.096   0.141  0.5178 -0.7215 -0.8800
  705MOL0     C95046   1.360  11.112   0.182 -1.2704 -0.2715  0.1694
  705MOL0     C95047   1.334  11.168   0.306  0.3018  0.2950 -0.1903
  705MOL0     O95048   1.204  11.190   0.342 -0.2153  0.0975  0.4083
  705MOL0     C95049   1.175  11.258   0.465  0.2948 -0.8786 -0.1502
  705MOL0     C95050   1.029  11.283   0.501 -0.0398  0.2239 -0.1056
  705MOL0     C95051   0.969  11.151   0.545  0.9178  0.9739 -0.7616
  705MOL0     C95052   0.823  11.153   0.585 -0.8070 -0.1699 -0.5970
  705MOL0     C95053   0.775  11.022   0.648 -0.2361  0.4540 -0.6558
  705MOL0     C95054   0.661  11.060   0.745  0.2599  0.3385 -0.4456
  705MOL0     C95055   0.602  10.929   0.811  0.2476  0.8953  0.4426
  705MOL0     C95056   0.514  10.956   0.927  0.0954 -0.4330 -0.2018
  705MOL0     N95057   0.383  10.992   0.865 -0.3751 -0.2793 -0.1327
  705MOL0     C95058   0.287  10.912   0.822 -0.6277  0.1697 -0.9667
  705MOL0     C95059   0.179  10.990   0.794  0.0669  0.1324  1.2702
  705MOL0     C95060   0.057  10.951   0.722  0.5387  0.5098 -0.1087
  705MOL0     C95061  -0.071  10.962   0.820 -0.7555 -0.0917 -0.5340
  705MOL0     C95062  -0.184  10.863   0.799  0.0896 -0.1039 -1.0093
  705MOL0     C95063  -0.247  10.898   0.657  0.2934  0.5937  0.4137
  705MOL0     O95064  -0.365  10.820   0.630  0.6283 -0.1718 -0.4602
  705MOL0     C95065  -0.495  10.879   0.614 -0.0027  0.0983 -0.4504
  705MOL0     C95066  -0.586  10.791   0.556  0.5171 -0.4625 -0.0185
  705MOL0     C95067  -0.726  10.826   0.551 -1.4410 -0.4735 -0.1580
  705MOL0     C95068  -0.820  10.719   0.504 -0.5786 -0.8089 -0.3820
  705MOL0     C95069  -0.765  10.951   0.607  0.6940  0.4553 -0.5192
  705MOL0     C95070  -0.910  10.996   0.588 -0.7658 -0.0660 -0.5995
  705MOL0     O95071  -0.972  10.998   0.456  0.1174 -0.0562  0.2002
  705MOL0     C95072  -1.103  11.036   0.451  0.5496 -0.5092 -0.2178
  705MOL0     C95073  -1.125  11.144   0.362  0.6669  0.3553 -0.1455
  705MOL0     C95074  -1.250  11.207   0.362  0.7778  1.2216  0.4945
  705MOL0     C95075  -1.355  11.165   0.435 -0.9961 -0.0326 -1.1194
  705MOL0     O95076  -1.479  11.224   0.438 -0.9254  0.3932  0.3927
  705MOL0     C95077  -1.592  11.135   0.418 -1.3318 -0.7309 -1.1531
  705MOL0     C95078  -1.722  11.218   0.393 -0.1774  0.6480 -0.2557
  705MOL0     C95079  -1.851  11.155   0.414 -0.5956  0.4173 -0.0927
  705MOL0     C95080  -1.977  11.242   0.397  0.1822 -0.2420 -0.2504
  705MOL0     C95081  -2.093  11.171   0.446  0.1811  0.2492  0.8041
  705MOL0     C95082  -2.220  11.261   0.443 -1.6141 -0.4307 -0.5984
  705MOL0     C95083  -2.357  11.197   0.451 -0.7586  0.4720 -0.5213
  705MOL0     C95084  -2.463  11.303   0.472 -0.3281  0.7069  0.5785
  705MOL0    Cl95085  -2.552  11.331   0.325  0.0529 -0.1410  0.3445
  705MOL0     C95086  -1.332  11.050   0.520  0.2934 -0.6407 -0.4855
  705MOL0     C95087  -1.203  10.982   0.526  0.9875  0.1192 -0.4192
  705MOL0     O95088  -0.961  11.031   0.695 -0.4914 -0.1879  0.4387
  705MOL0     C95089  -0.669  11.032   0.662 -1.1859  0.5016 -0.2382
  705MOL0     C95090  -0.536  10.994   0.674 -0.2303  0.2710 -0.9697
  705MOL0     N95091   0.216  11.119   0.802  0.3578 -0.7228 -0.1335
  705MOL0     N95092   0.340  11.121   0.845 -0.2955 -0.5586 -0.1248
  705MOL0     C95093   1.441  11.200   0.384  0.7150  0.8714 -0.0466
  705MOL0     C95094   1.575  11.194   0.340  0.1068 -0.1051 -0.9075
  705MOL0     C95095   1.964  11.059   0.176 -0.5904 -0.1457  0.1056
  705MOL0     C95096   2.088  11.048   0.248  0.6348 -0.4206  0.2724
  705MOL0     C95097   2.200  11.033   0.170  0.8423  1.1448 -0.1227
  705MOL0     C95098   2.199  11.015   0.036  0.1464 -0.6319  0.3869
  705MOL0     O95099   2.310  10.981  -0.033 -0.2508  0.2802 -0.1022
  705MOL0     C95100   2.378  10.862   0.017 -0.3142  0.5629 -0.0341
  705MOL0     C95101   2.292  10.737  -0.009  0.2763  0.0648 -0.2153
  705MOL0     C95102   2.298  10.712  -0.163 -0.0161 -0.6247  0.1526
  705MOL0     C95103   2.198  10.596  -0.183 -0.8401 -0.3027  0.2375
  705MOL0     C95104   2.175  10.553  -0.326 -0.0908  0.0192 -0.6144
  705MOL0     C95105   2.146  10.531  -0.446 -0.2419 -0.0843 -0.6454
  705MOL0     C95106   2.078  11.019  -0.033 -0.6490 -0.8313 -0.3431
  705MOL0     C95107   1.967  11.046   0.035  0.3182 -0.2067 -0.3475
  705MOL0     H95108   1.515  11.053   0.043  1.5776 -0.6308 -0.7039
  705MOL0     H95109   1.275  11.086   0.121 -2.4485  2.4615  0.5157
  705MOL0     H95110   1.221  11.206   0.550 -0.5225  1.2405  1.7221
  705MOL0     H95111   1.215  11.360   0.467  0.5382 -0.9444  2.3009
  705MOL0     H95112   1.021  11.346   0.590  0.3964  0.7888 -0.4590
  705MOL0     H95113   0.968  11.315   0.415 -1.8926 -1.0269  0.6659
  705MOL0     H95114   0.992  11.077   0.468  0.5931 -0.5782  0.5681
  705MOL0     H95115   1.021  11.123   0.638  1.3698  1.2164 -0.9405
  705MOL0     H95116   0.807  11.241   0.648  1.5613 -0.1644  0.1017
  705MOL0     H95117   0.768  11.175   0.493  1.0081  1.5995 -1.3219
  705MOL0     H95118   0.744  10.949   0.572 -1.1623 -0.5707  0.6515
  705MOL0     H95119   0.850  10.962   0.700 -2.7331 -2.0568  0.3601
  705MOL0     H95120   0.691  11.127   0.826 -0.8051  0.3072  0.0073
  705MOL0     H95121   0.588  11.117   0.686  0.8879 -1.5397 -3.2525
  705MOL0     H95122   0.553  10.872   0.732  2.8120  2.3069 -2.3625
  705MOL0     H95123   0.684  10.865   0.846  0.5899 -0.2273 -2.2325
  705MOL0     H95124   0.548  11.050   0.973  2.0476  0.7828 -3.7708
  705MOL0     H95125   0.509  10.877   1.002  1.4327 -2.5972 -2.2802
  705MOL0     H95126   0.296  10.805   0.811  2.8631  0.1544  0.8644
  705MOL0     H95127   0.046  11.018   0.637 -0.0726 -1.1350 -1.3919
  705MOL0     H95128   0.065  10.847   0.689  1.3309  0.2501  0.8476
  705MOL0     H95129  -0.110  11.063   0.825  0.0138  0.2782 -1.6530
  705MOL0     H95130  -0.036  10.938   0.921  2.0883  0.6976 -1.2173
  705MOL0     H95131  -0.253  10.867   0.884  1.2865 -0.7556  0.0153
  705MOL0     H95132  -0.153  10.759   0.793 -1.2732 -0.4840 -1.9642
  705MOL0     H95133  -0.174  10.870   0.580  0.8284  0.9484  0.7838
  705MOL0     H95134  -0.260  11.006   0.647 -1.1510  0.4619  0.6783
  705MOL0     H95135  -0.561  10.692   0.519 -2.5224 -0.3229 -2.8698
  705MOL0     H95136  -0.800  10.617   0.539 -1.5309 -0.4455  1.3673
  705MOL0     H95137  -0.926  10.743   0.516  0.0555  2.1891 -0.0759
  705MOL0     H95138  -0.808  10.709   0.396 -1.1690 -1.4591 -0.3959
  705MOL0     H95139  -1.039  11.192   0.316  1.1413  1.1271  1.4735
  705MOL0     H95140  -1.261  11.300   0.307 -0.3781 -0.2940 -1.9785
  705MOL0     H95141  -1.565  11.074   0.331  1.6935  1.5175 -1.9779
  705MOL0     H95142  -1.602  11.074   0.508  2.5647 -1.4870 -1.0608
  705MOL0     H95143  -1.717  11.300   0.465  1.3173  0.9132 -0.6251
  705MOL0     H95144  -1.711  11.271   0.298 -1.6322  2.0764  0.3273
  705MOL0     H95145  -1.860  11.107   0.512  3.6146 -3.1477 -1.0918
  705MOL0     H95146  -1.862  11.075   0.340  1.2676  0.1519 -0.1317
  705MOL0     H95147  -1.966  11.322   0.471 -1.5374 -1.4959  1.4446
  705MOL0     H95148  -1.983  11.278   0.294  1.3357  2.3062  0.4703
  705MOL0     H95149  -2.087  11.141   0.551 -2.8822  0.4360  1.1156
  705MOL0     H95150  -2.109  11.090   0.375 -1.3854  0.9885  0.2807
  705MOL0     H95151  -2.198  11.330   0.525  1.0537 -1.7243 -0.1112
  705MOL0     H95152  -2.218  11.319   0.349  1.1376 -0.1668 -0.4536
  705MOL0     H95153  -2.354  11.122   0.530  2.3160  0.7081 -0.2845
  705MOL0     H95154  -2.397  11.136   0.370 -1.6074 -0.9275  0.8957
  705MOL0     H95155  -2.416  11.394   0.512 -1.0600  0.6725  1.5794
  705MOL0     H95156  -2.540  11.280   0.547  0.8898  1.3126  2.0646
  705MOL0     H95157  -1.410  11.013   0.585 -2.2469  3.3431 -0.9040
  705MOL0     H95158  -1.191  10.889   0.579  0.0180 -1.0055 -2.0687
  705MOL0     H95159  -0.700  11.128   0.701 -1.8931 -0.7544  2.5098
  705MOL0     H95160  -0.469  11.061   0.725  1.0458  0.8447 -3.2667
  705MOL0     H95161   1.432  11.242   0.483 -0.8704  1.4021 -0.3881
  705MOL0     H95162   1.651  11.236   0.405 -1.9585  2.6505 -0.0818
  705MOL0     H95163   2.078  11.065   0.355 -2.6363  1.2299 -0.1674
  705MOL0     H95164   2.293  11.022   0.226  0.6140 -0.0420  0.0454
  705MOL0     H95165   2.474  10.843  -0.032 -0.5156 -3.1622  0.7183
  705MOL0     H95166   2.410  10.865   0.122  2.3913  2.1915 -0.7992
  705MOL0     H95167   2.192  10.766   0.025  0.5714 -0.0171  0.7602
  705MOL0     H95168   2.326  10.650   0.048  0.8070  0.4290  0.0330
  705MOL0     H95169   2.400  10.686  -0.192 -0.0903 -2.0828  1.1131
  705MOL0     H95170   2.261  10.804  -0.209 -2.4982 -1.4714  0.2832
  705MOL0     H95171   2.113  10.642  -0.132  1.2089  3.5408  0.5552
  705MOL0     H95172   2.240  10.506  -0.137  1.9795  0.1480 -1.1864
  705MOL0     H95173   2.121  10.515  -0.549 -0.4156  0.7986 -0.7467
  705MOL0     H95174   2.077  11.005  -0.141  0.4613  2.6014 -0.9198
  705MOL0     H95175   1.878  11.053  -0.027  2.4738  0.9299 -3.5406
  706MOL0     O95176   2.548   8.511   5.324 -0.3899 -0.3372 -0.2835
  706MOL0     C95177   2.646   8.442   5.347 -0.7511 -0.3046 -0.4533
  706MOL0     O95178   2.691   8.407   5.469 -0.6849 -0.3028  0.3220
  706MOL0     C95179   2.648   8.479   5.578 -0.4885 -0.5680  1.3441
  706MOL0     C95180   2.519   8.451   5.624  0.4659 -0.0942 -0.3086
  706MOL0     C95181   2.479   8.509   5.744  0.1574 -0.7142  0.2497
  706MOL0     C95182   2.565   8.590   5.818 -0.3437  0.8868  0.6069
  706MOL0     O95183   2.525   8.646   5.936 -0.4597 -0.0171 -1.0095
  706MOL0     C95184   2.392   8.625   5.993 -0.0208  0.5486  0.1893
  706MOL0     C95185   2.372   8.683   6.130  1.1140 -0.1577 -0.1842
  706MOL0     C95186   2.357   8.838   6.117 -0.0620 -0.7118  0.0410
  706MOL0     C95187   2.244   8.888   6.041 -0.2855 -0.6237  0.1744
  706MOL0     C95188   2.247   9.042   6.059 -0.2210  0.9087  0.2842
  706MOL0     C95189   2.169   9.106   5.945  0.5798 -0.3733 -0.0164
  706MOL0     C95190   2.125   9.256   5.973  0.1762  0.6323 -0.6915
  706MOL0     C95191   2.094   9.310   5.841 -0.5836 -0.4576  0.9688
  706MOL0     N95192   1.981   9.242   5.773  0.0772 -0.0122  0.3950
  706MOL0     C95193   1.999   9.180   5.654 -0.0659  1.0241  0.1160
  706MOL0     C95194   1.878   9.126   5.625  0.6891 -0.3065  0.5677
  706MOL0     C95195   1.841   9.063   5.496  0.8356  0.5718 -0.1543
  706MOL0     C95196   1.932   9.077   5.376 -0.4276  0.0444  0.1578
  706MOL0     C95197   1.896   8.987   5.249  0.0474 -0.4132  0.3753
  706MOL0     C95198   1.766   9.040   5.182  0.0664  0.1892 -0.4306
  706MOL0     O95199   1.733   8.957   5.074 -0.4544 -0.8245  1.2287
  706MOL0     C95200   1.609   8.964   5.028  0.2217 -0.3838  0.3840
  706MOL0     C95201   1.532   9.074   5.016  0.4024  0.1008 -0.6165
  706MOL0     C95202   1.404   9.069   4.972  0.8458  0.5839 -0.2953
  706MOL0     C95203   1.340   9.209   4.963 -0.0486  0.4165  0.1700
  706MOL0     C95204   1.336   8.942   4.958  0.0289 -0.2899 -0.4530
  706MOL0     C95205   1.189   8.930   4.919  0.0474 -0.1971 -0.0617
  706MOL0     O95206   1.138   8.802   4.920 -0.2694 -0.1391 -0.3259
  706MOL0     C95207   1.007   8.793   4.868 -0.4043  0.2602 -0.1514
  706MOL0     C95208   0.939   8.674   4.909 -0.1709 -0.2033  0.7516
  706MOL0     C95209   0.808   8.648   4.854 -0.4323 -0.1354 -0.3842
  706MOL0     C95210   0.742   8.740   4.771  0.0896 -0.3045 -0.3353
  706MOL0     O95211   0.617   8.720   4.719  0.3554  0.2630  0.3477
  706MOL0     C95212   0.516   8.662   4.798  0.0936  0.0617  0.6802
  706MOL0     C95213   0.400   8.645   4.697 -0.0395 -0.2161 -0.4649
  706MOL0     C95214   0.272   8.588   4.766  0.4564  0.2305 -0.0507
  706MOL0     C95215   0.150   8.591   4.669 -0.7177 -0.0164  0.1224
  706MOL0     C95216   0.026   8.524   4.734 -0.4169 -0.3548 -0.6374
  706MOL0     C95217  -0.117   8.562   4.674 -0.2166 -0.2264  0.5985
  706MOL0     C95218  -0.233   8.487   4.736  0.4358 -0.1459 -0.0405
  706MOL0     C95219  -0.265   8.355   4.671  0.0818  0.0596 -0.0265
  706MOL0    Cl95220  -0.423   8.291   4.723  0.0507 -0.2374  0.2834
  706MOL0     C95221   0.814   8.850   4.727 -0.2768  0.2904 -0.0373
  706MOL0     C95222   0.943   8.874   4.770 -0.4337  0.6448 -0.4618
  706MOL0     O95223   1.121   9.029   4.902 -0.0336  0.1299 -0.3093
  706MOL0     C95224   1.415   8.831   4.968  0.4338  0.5732 -0.8073
  706MOL0     C95225   1.552   8.837   5.005  0.0756  0.6158 -0.4938
  706MOL0     N95226   1.791   9.167   5.728 -0.1848  1.0625  1.2619
  706MOL0     N95227   1.849   9.237   5.818 -0.1372  0.3151  0.2423
  706MOL0     C95228   2.691   8.619   5.770  0.1165 -0.0888  0.4161
  706MOL0     C95229   2.736   8.565   5.650  0.6936  0.2965 -0.1379
  706MOL0     C95230   2.699   8.370   5.235  0.3309  0.0011  0.6407
  706MOL0     C95231   2.684   8.425   5.106  0.8571  0.4404  1.2105
  706MOL0     C95232   2.745   8.366   4.991 -0.8644  0.4087  0.3708
  706MOL0     C95233   2.835   8.261   5.003  0.7674 -0.2236  0.6374
  706MOL0     O95234   2.884   8.211   4.884 -0.4310 -0.8178  0.4395
  706MOL0     C95235   2.980   8.106   4.899  0.0766 -0.4665 -0.6784
  706MOL0     C95236   3.050   8.089   4.772  0.4153  0.0021 -0.1699
  706MOL0     C95237   3.128   8.211   4.727 -0.8616  0.2436 -0.2129
  706MOL0     C95238   3.211   8.195   4.601  0.2112 -0.7558  0.2717
  706MOL0     C95239   3.106   8.175   4.498  0.1993  0.4109  1.1054
  706MOL0     C95240   3.021   8.184   4.414  0.5927 -0.6599  0.0377
  706MOL0     C95241   2.846   8.200   5.131 -0.1599  0.8417 -0.0188
  706MOL0     C95242   2.783   8.250   5.248  0.3773 -0.5066  0.1830
  706MOL0     H95243   2.444   8.397   5.567 -0.7484  1.8737 -0.6800
  706MOL0     H95244   2.374   8.497   5.769 -1.1515  1.1695 -3.5593
  706MOL0     H95245   2.327   8.666   5.915 -2.3140 -1.4969  0.9122
  706MOL0     H95246   2.361   8.520   5.992  0.1322  0.2699 -4.8853
  706MOL0     H95247   2.276   8.658   6.177  0.5436  1.0678 -0.6659
  706MOL0     H95248   2.449   8.653   6.202  0.2274 -2.6278 -0.1655
  706MOL0     H95249   2.370   8.876   6.219  1.0902 -3.8105  1.1550
  706MOL0     H95250   2.436   8.880   6.055  1.6500 -0.0890  2.5054
  706MOL0     H95251   2.266   8.870   5.936 -0.4468  1.3635 -0.2526
  706MOL0     H95252   2.149   8.849   6.078 -0.0300 -1.9312 -0.5240
  706MOL0     H95253   2.200   9.082   6.149 -0.7955 -0.5406  0.6512
  706MOL0     H95254   2.353   9.067   6.063  0.1481 -0.7297  1.5736
  706MOL0     H95255   2.228   9.111   5.853 -0.0819  0.8047 -0.3887
  706MOL0     H95256   2.076   9.050   5.935 -1.9794  3.0689  2.0754
  706MOL0     H95257   2.044   9.263   6.047 -0.0362 -1.6117 -0.6450
  706MOL0     H95258   2.209   9.315   6.011  1.7224 -1.4918 -0.6406
  706MOL0     H95259   2.189   9.318   5.789 -1.4165 -0.3067 -0.5722
  706MOL0     H95260   2.065   9.416   5.850 -0.7425 -0.4751  0.6648
  706MOL0     H95261   2.095   9.170   5.604  0.6385 -1.5328  1.7089
  706MOL0     H95262   1.828   8.958   5.522  0.8511  1.2021  2.7825
  706MOL0     H95263   1.745   9.111   5.473  0.2814  0.5588  1.9443
  706MOL0     H95264   2.032   9.044   5.404 -0.2176  0.5633  0.0443
  706MOL0     H95265   1.951   9.180   5.345  1.5478 -1.1987 -3.3479
  706MOL0     H95266   1.887   8.882   5.279 -2.0975 -0.0592  1.2157
  706MOL0     H95267   1.974   9.002   5.175  1.4362  0.3621  1.9334
  706MOL0     H95268   1.773   9.147   5.158 -1.6481  0.3957 -0.1131
  706MOL0     H95269   1.681   9.034   5.251 -1.4570 -0.2879 -2.2570
  706MOL0     H95270   1.584   9.169   5.029 -2.6626  1.6611  1.4677
  706MOL0     H95271   1.286   9.223   4.869  0.3540  0.4330 -0.0589
  706MOL0     H95272   1.270   9.225   5.046 -0.7743 -2.2128  0.1797
  706MOL0     H95273   1.416   9.286   4.970  0.5622 -0.0999 -0.5771
  706MOL0     H95274   0.991   8.602   4.970  0.3334 -1.3307 -0.9285
  706MOL0     H95275   0.752   8.556   4.866 -0.3361 -0.0413  0.8770
  706MOL0     H95276   0.546   8.563   4.832  1.6215  0.5433  0.8165
  706MOL0     H95277   0.482   8.734   4.874 -1.7316  1.0320 -0.9553
  706MOL0     H95278   0.384   8.745   4.655  1.0384  0.7327  1.2649
  706MOL0     H95279   0.439   8.580   4.618  1.1493 -1.4455  1.0653
  706MOL0     H95280   0.246   8.652   4.851  0.2607 -0.8235  0.7049
  706MOL0     H95281   0.290   8.483   4.794 -1.5264  0.6023  3.1433
  706MOL0     H95282   0.127   8.693   4.635 -0.5893  1.0505  3.0050
  706MOL0     H95283   0.181   8.529   4.584 -1.3284  1.5717 -1.3193
  706MOL0     H95284   0.035   8.554   4.839  1.5141 -0.7195 -0.6559
  706MOL0     H95285   0.040   8.416   4.750  1.7780  0.4259  4.9213
  706MOL0     H95286  -0.145   8.665   4.699  0.0522  0.5647 -2.0891
  706MOL0     H95287  -0.113   8.554   4.565  0.3855  0.0940  0.5960
  706MOL0     H95288  -0.318   8.555   4.725  0.1568 -0.5167 -0.1931
  706MOL0     H95289  -0.218   8.470   4.843 -1.7556  0.4855  0.4303
  706MOL0     H95290  -0.186   8.282   4.690 -0.8888 -1.3959 -1.4185
  706MOL0     H95291  -0.271   8.377   4.564 -1.7898 -4.3965 -1.0561
  706MOL0     H95292   0.767   8.913   4.652  1.4634  0.5960 -0.9149
  706MOL0     H95293   0.996   8.955   4.722 -0.9948  0.5300 -1.3085
  706MOL0     H95294   1.368   8.736   4.943  1.4419 -0.7992  1.9921
  706MOL0     H95295   1.601   8.741   5.022 -1.7493 -0.3088 -0.1821
  706MOL0     H95296   2.761   8.682   5.825  1.8168 -0.4848 -1.1847
  706MOL0     H95297   2.840   8.582   5.623  0.2486  2.3254 -0.7438
  706MOL0     H95298   2.635   8.520   5.088  2.0252  0.6239 -1.3382
  706MOL0     H95299   2.720   8.405   4.893  1.9690  0.2050 -0.5194
  706MOL0     H95300   3.054   8.134   4.974  0.1573 -0.1527 -0.8707
  706MOL0     H95301   2.930   8.013   4.929 -1.5144  0.1765 -1.1847
  706MOL0     H95302   2.966   8.081   4.702 -1.2265 -0.1076  1.7511
  706MOL0     H95303   3.112   7.999   4.778  0.5150  0.1283  0.7804
  706MOL0     H95304   3.207   8.231   4.799 -1.4198  0.5142  0.3322
  706MOL0     H95305   3.063   8.299   4.731  0.8056  1.4659  1.5381
  706MOL0     H95306   3.273   8.104   4.603 -1.2024 -1.8647  4.5323
  706MOL0     H95307   3.270   8.284   4.578 -0.5796 -0.1430  0.5827
  706MOL0     H95308   2.950   8.172   4.334  1.3917 -0.5749 -0.6959
  706MOL0     H95309   2.887   8.101   5.149 -3.2853 -0.5730  0.0382
  706MOL0     H95310   2.790   8.196   5.342 -0.6830  1.7853  1.6596
  707MOL0     O95311   8.085   7.918   6.884 -0.4309  1.1431 -0.3639
  707MOL0     C95312   7.986   7.943   6.816  0.6628  0.1556  0.0801
  707MOL0     O95313   7.997   7.995   6.686 -0.2584 -0.4433  0.1776
  707MOL0     C95314   8.124   8.011   6.629  0.5615 -0.1763 -0.8584
  707MOL0     C95315   8.226   8.093   6.692 -0.5692  0.0091 -0.1283
  707MOL0     C95316   8.357   8.101   6.644 -0.2584  0.2854  0.3950
  707MOL0     C95317   8.393   8.049   6.526  0.3834 -0.2787 -0.0747
  707MOL0     O95318   8.514   8.075   6.473 -0.6447 -0.4969  0.0688
  707MOL0     C95319   8.513   8.172   6.366  1.3281 -0.4052 -0.1353
  707MOL0     C95320   8.620   8.133   6.274  0.0007  0.9340  0.1889
  707MOL0     C95321   8.633   8.230   6.167  0.5971 -0.1620  0.7162
  707MOL0     C95322   8.741   8.191   6.060  0.0771 -0.8977 -0.0479
  707MOL0     C95323   8.731   8.278   5.931  0.4685  0.2046  0.7090
  707MOL0     C95324   8.662   8.198   5.822  0.6744  0.4665 -0.1067
  707MOL0     C95325   8.665   8.273   5.685 -0.8015 -0.2295 -0.5395
  707MOL0     C95326   8.801   8.307   5.634 -0.3306  0.9338  0.6592
  707MOL0     N95327   8.866   8.180   5.595 -1.0804 -0.2664 -1.0485
  707MOL0     C95328   8.979   8.130   5.648  0.5331  0.8989  0.2458
  707MOL0     C95329   8.994   8.009   5.591 -0.4770  0.2160  0.8459
  707MOL0     C95330   9.114   7.909   5.600  0.2432  0.6048 -0.7936
  707MOL0     C95331   9.194   7.899   5.472  0.1855  0.8829  0.6216
  707MOL0     C95332   9.296   7.784   5.464 -0.2964 -0.7643  0.7536
  707MOL0     C95333   9.249   7.642   5.404  0.4335 -0.1865 -0.3259
  707MOL0     O95334   9.369   7.563   5.371 -0.3168  0.5338  0.4248
  707MOL0     C95335   9.359   7.427   5.322  0.9807  0.1083  0.2287
  707MOL0     C95336   9.480   7.368   5.290 -0.4200  0.3700  0.4300
  707MOL0     C95337   9.481   7.256   5.209  0.8266  0.5041  0.0415
  707MOL0     C95338   9.613   7.217   5.149 -0.0262 -0.4167  1.1420
  707MOL0     C95339   9.362   7.180   5.186 -0.1409  0.7729 -0.0386
  707MOL0     C95340   9.344   7.061   5.104  1.1117 -0.0933 -0.0880
  707MOL0     O95341   9.211   7.032   5.077 -0.3540  0.4119 -0.3447
  707MOL0     C95342   9.169   6.916   5.020  0.0623  0.8068  1.1371
  707MOL0     C95343   9.057   6.925   4.940 -0.6620  0.1556  0.3012
  707MOL0     C95344   9.024   6.820   4.860  0.3481 -0.2882  0.2265
  707MOL0     C95345   9.090   6.700   4.856  0.6040  0.7861 -0.1312
  707MOL0     O95346   9.060   6.597   4.771 -0.4625  0.0241 -0.1646
  707MOL0     C95347   8.959   6.613   4.670  0.4315 -0.9548 -0.2569
  707MOL0     C95348   8.934   6.478   4.600  0.3603 -0.4326  0.2783
  707MOL0     C95349   8.877   6.383   4.696 -0.8358 -0.0996  0.1910
  707MOL0     C95350   8.917   6.243   4.665  0.0420 -0.1784 -0.6532
  707MOL0     C95351   8.836   6.135   4.744  0.8588 -0.4932  0.5363
  707MOL0     C95352   8.891   5.995   4.755 -0.4014 -0.4787  0.7883
  707MOL0     C95353   8.784   5.905   4.799 -0.4870 -0.7458  0.3100
  707MOL0     C95354   8.708   5.953   4.921 -0.2555 -0.6266 -1.0045
  707MOL0    Cl95355   8.639   5.803   5.001  0.0104  0.1038  0.1281
  707MOL0     C95356   9.207   6.683   4.944 -0.1140 -0.0908 -0.7844
  707MOL0     C95357   9.234   6.788   5.031 -0.7427  0.4227 -0.0039
  707MOL0     O95358   9.443   6.991   5.068 -0.4567 -0.6371 -0.5022
  707MOL0     C95359   9.250   7.233   5.254 -0.3741  0.2298  0.5691
  707MOL0     C95360   9.241   7.348   5.322  0.0667 -1.0199  0.2144
  707MOL0     N95361   8.891   8.000   5.497 -0.8476 -0.5783 -0.1749
  707MOL0     N95362   8.823   8.099   5.496  0.4652 -0.0924 -0.0167
  707MOL0     C95363   8.292   7.972   6.465 -0.8088  0.2187  0.3508
  707MOL0     C95364   8.159   7.964   6.505 -0.1111  0.1384 -0.1392
  707MOL0     C95365   7.857   7.887   6.860 -0.8024  0.2522  0.2340
  707MOL0     C95366   7.742   7.933   6.805 -0.6740 -0.6337  0.3785
  707MOL0     C95367   7.610   7.905   6.855  0.7544 -0.0132  0.1305
  707MOL0     C95368   7.595   7.797   6.941  0.6790 -0.1752 -0.2942
  707MOL0     O95369   7.467   7.778   6.981 -0.3054 -0.0269 -0.0218
  707MOL0     C95370   7.450   7.711   7.112  0.5764  0.6266 -0.4188
  707MOL0     C95371   7.382   7.574   7.101  0.1592 -1.0698  0.8479
  707MOL0     C95372   7.470   7.457   7.039  0.4800  0.4160  0.1881
  707MOL0     C95373   7.562   7.386   7.139  0.3655 -0.4459  0.3732
  707MOL0     C95374   7.619   7.273   7.053  0.2049 -0.3935 -0.8052
  707MOL0     C95375   7.656   7.172   7.001  0.5026 -0.3872  0.3443
  707MOL0     C95376   7.714   7.748   6.992 -0.3037 -0.0417 -0.6072
  707MOL0     C95377   7.843   7.783   6.950  0.3847  0.3426 -0.1262
  707MOL0     H95378   8.200   8.151   6.781  0.2505  2.6759 -1.5021
  707MOL0     H95379   8.422   8.157   6.709  0.2709 -3.3196  3.3174
  707MOL0     H95380   8.412   8.159   6.326  0.8892  1.8046  0.1558
  707MOL0     H95381   8.520   8.275   6.403  0.0417 -0.7460  1.1614
  707MOL0     H95382   8.715   8.134   6.328  0.5435  1.9857 -0.7394
  707MOL0     H95383   8.610   8.029   6.241  0.6472 -0.9192  5.0293
  707MOL0     H95384   8.540   8.217   6.112  0.7686 -0.5399  0.5093
  707MOL0     H95385   8.633   8.336   6.191 -3.9615  0.9646 -2.8776
  707MOL0     H95386   8.843   8.215   6.092 -0.8168  1.2920  1.3500
  707MOL0     H95387   8.733   8.085   6.036  0.6082 -0.2997 -3.3689
  707MOL0     H95388   8.679   8.368   5.965 -0.1628 -0.0875  0.5167
  707MOL0     H95389   8.833   8.308   5.903 -0.7361  3.7389 -0.5022
  707MOL0     H95390   8.695   8.094   5.817  2.9113  1.1402 -0.7037
  707MOL0     H95391   8.557   8.207   5.850  0.9101  0.0612  0.9869
  707MOL0     H95392   8.609   8.214   5.611 -0.8892 -2.0307  0.8989
  707MOL0     H95393   8.599   8.360   5.693 -3.0722 -1.7072 -1.8514
  707MOL0     H95394   8.865   8.364   5.702  0.0649  1.4705 -0.1411
  707MOL0     H95395   8.789   8.372   5.546 -2.3430  0.9691  0.9109
  707MOL0     H95396   9.034   8.179   5.728 -1.3409  1.4024  1.2711
  707MOL0     H95397   9.174   7.943   5.685  1.6442 -2.2036 -0.5684
  707MOL0     H95398   9.069   7.813   5.626  1.2663  0.4263  0.4097
  707MOL0     H95399   9.253   7.991   5.466 -2.1841  2.4901  0.5960
  707MOL0     H95400   9.127   7.891   5.386  0.3483 -0.6611  0.6166
  707MOL0     H95401   9.340   7.781   5.565  2.0594 -1.7559 -0.2396
  707MOL0     H95402   9.382   7.806   5.401  0.0119 -4.2748 -0.2273
  707MOL0     H95403   9.182   7.656   5.319 -3.9151  0.4178  2.8081
  707MOL0     H95404   9.204   7.591   5.489  2.2696  0.2566  0.9699
  707MOL0     H95405   9.576   7.418   5.294 -0.0552  0.5281 -4.2925
  707MOL0     H95406   9.638   7.122   5.197 -1.0968 -2.8317 -2.6581
  707MOL0     H95407   9.601   7.205   5.041 -2.1731 -0.8256  1.3758
  707MOL0     H95408   9.698   7.285   5.164 -1.0348  1.5644 -1.4314
  707MOL0     H95409   8.987   7.008   4.948 -0.5575  0.1762  1.1071
  707MOL0     H95410   8.930   6.842   4.811 -0.3354 -1.4253  0.9934
  707MOL0     H95411   8.872   6.639   4.731  0.8868 -0.7647  0.3205
  707MOL0     H95412   8.981   6.698   4.605 -2.4305  2.0511  2.3607
  707MOL0     H95413   8.871   6.496   4.513  3.2759  1.4429 -1.6352
  707MOL0     H95414   9.036   6.447   4.574  1.0935 -2.1341  4.4262
  707MOL0     H95415   8.768   6.392   4.693 -1.0466 -1.4851  2.0870
  707MOL0     H95416   8.903   6.412   4.798 -1.6499 -0.1331  0.4187
  707MOL0     H95417   8.902   6.233   4.558 -0.2213 -0.3257 -0.6036
  707MOL0     H95418   9.024   6.247   4.688 -0.3225  0.9394  1.0775
  707MOL0     H95419   8.740   6.136   4.691  0.4088  3.5841  1.1759
  707MOL0     H95420   8.827   6.162   4.849  3.8505  0.4229  0.6629
  707MOL0     H95421   8.932   5.958   4.660  2.2178 -1.9973  2.3820
  707MOL0     H95422   8.974   5.993   4.826  0.1666  0.1994  0.1474
  707MOL0     H95423   8.831   5.809   4.824 -1.2944 -1.2698 -0.1306
  707MOL0     H95424   8.721   5.873   4.715 -0.2691  0.4491 -0.3323
  707MOL0     H95425   8.625   6.016   4.889  0.8158 -0.1934 -3.1305
  707MOL0     H95426   8.771   6.007   4.992 -1.6167  0.2948 -0.4666
  707MOL0     H95427   9.259   6.590   4.928  0.7631  0.6155 -2.2573
  707MOL0     H95428   9.323   6.771   5.091 -0.3618  0.1422 -0.6426
  707MOL0     H95429   9.152   7.187   5.250 -0.6268  0.8151 -0.0228
  707MOL0     H95430   9.144   7.369   5.365 -1.0923 -4.3276 -0.4964
  707MOL0     H95431   8.319   7.928   6.369  1.2656 -0.3369  1.1185
  707MOL0     H95432   8.083   7.916   6.444  1.1700  0.0163 -1.7205
  707MOL0     H95433   7.763   8.021   6.745 -1.2543  1.5742  3.1742
  707MOL0     H95434   7.528   7.963   6.812  0.5868 -0.2237  0.1630
  707MOL0     H95435   7.539   7.702   7.174  0.6830  0.0782 -0.6501
  707MOL0     H95436   7.379   7.781   7.157 -1.2620 -0.4574 -1.5140
  707MOL0     H95437   7.287   7.589   7.048  2.2253 -0.0726 -2.9472
  707MOL0     H95438   7.354   7.537   7.200 -2.1248 -5.2220 -1.0677
  707MOL0     H95439   7.529   7.498   6.956  1.5326  0.3715  0.9018
  707MOL0     H95440   7.403   7.382   6.996  1.2221  0.9498 -2.0527
  707MOL0     H95441   7.488   7.354   7.213 -0.8057  2.4645  0.6074
  707MOL0     H95442   7.637   7.451   7.183 -3.4621  3.2298  2.1457
  707MOL0     H95443   7.691   7.076   6.968 -2.0366 -0.7785 -1.5522
  707MOL0     H95444   7.718   7.665   7.061 -3.8237 -0.9503 -1.2830
  707MOL0     H95445   7.930   7.732   6.990 -1.3415 -2.8464 -0.1121
  708MOL0     O95446   9.452   0.915   7.886  0.2843  0.3355 -0.0652
  708MOL0     C95447   9.487   0.878   8.002 -0.4757 -0.3549  0.9387
  708MOL0     O95448   9.618   0.852   8.039 -0.2992  0.4177 -0.4213
  708MOL0     C95449   9.721   0.887   7.960 -0.1333 -0.0230  0.1622
  708MOL0     C95450   9.852   0.845   7.993  0.1326  0.5268  0.1607
  708MOL0     C95451   9.964   0.877   7.922 -0.9459 -1.1691  0.4929
  708MOL0     C95452   9.954   0.960   7.812 -0.6598 -0.3129  0.3735
  708MOL0     O95453  10.071   0.993   7.742 -0.1979  0.4671  0.0667
  708MOL0     C95454  10.065   1.061   7.612  0.1935 -0.4588  0.4074
  708MOL0     C95455  10.210   1.096   7.571 -0.5758  0.4264  1.4057
  708MOL0     C95456  10.210   1.158   7.430 -0.1249  0.3433  0.4381
  708MOL0     C95457  10.334   1.239   7.401 -0.7410 -0.4846 -0.4310
  708MOL0     C95458  10.312   1.317   7.270 -0.0842  1.6896 -0.9358
  708MOL0     C95459  10.255   1.462   7.306  0.5449 -0.7806  0.5681
  708MOL0     C95460  10.232   1.536   7.170  0.7344  0.0822  0.1479
  708MOL0     C95461  10.354   1.563   7.085 -0.9272  0.5377 -0.2628
  708MOL0     N95462  10.476   1.618   7.156  0.5347  0.1095 -0.1862
  708MOL0     C95463  10.466   1.743   7.224  0.6687 -0.5933  0.1414
  708MOL0     C95464  10.594   1.776   7.257  0.0266  0.7483  0.3134
  708MOL0     C95465  10.651   1.895   7.330  0.4892  0.3883  0.4587
  708MOL0     C95466  10.715   1.849   7.459  0.7711  0.4457 -0.5016
  708MOL0     C95467  10.610   1.825   7.575  0.1802 -0.2857  1.0111
  708MOL0     C95468  10.684   1.824   7.712  0.3083 -0.4407  0.2570
  708MOL0     O95469  10.631   1.740   7.811 -0.4842  0.3437  0.3674
  708MOL0     C95470  10.522   1.765   7.887 -0.0395 -0.2337 -0.0684
  708MOL0     C95471  10.474   1.668   7.979  0.4642  0.1714 -0.3799
  708MOL0     C95472  10.355   1.680   8.059  0.4921  1.1129  0.2887
  708MOL0     C95473  10.316   1.572   8.159  0.4363 -0.5706  0.6477
  708MOL0     C95474  10.279   1.796   8.046 -1.7968  0.9292  0.0036
  708MOL0     C95475  10.143   1.816   8.098 -0.0606 -0.0222 -0.1910
  708MOL0     O95476  10.065   1.707   8.091  0.2479  0.7590 -0.9266
  708MOL0     C95477   9.925   1.713   8.113  0.2588 -0.1154 -0.2934
  708MOL0     C95478   9.849   1.822   8.056  0.2728  0.4122  0.1233
  708MOL0     C95479   9.708   1.830   8.079 -0.0401 -0.3654 -0.0219
  708MOL0     C95480   9.645   1.710   8.128  0.8403 -0.1829 -0.6518
  708MOL0     O95481   9.515   1.696   8.141  0.0633  0.8314 -0.2093
  708MOL0     C95482   9.439   1.773   8.055 -0.9775  0.4098  0.1232
  708MOL0     C95483   9.294   1.747   8.067 -0.2094 -0.2613 -0.2885
  708MOL0     C95484   9.240   1.783   8.211 -0.5860 -0.1493 -0.4721
  708MOL0     C95485   9.215   1.927   8.223  0.0541  0.6447  0.0776
  708MOL0     C95486   9.235   1.982   8.371  0.1095  0.0616  0.2193
  708MOL0     C95487   9.224   2.130   8.378 -0.3130 -0.5327  0.5943
  708MOL0     C95488   9.244   2.184   8.520  0.0198 -0.5616 -0.2445
  708MOL0     C95489   9.156   2.309   8.540 -0.3884  0.3566 -1.0379
  708MOL0    Cl95490   9.188   2.419   8.395 -0.6653 -0.1566 -0.5990
  708MOL0     C95491   9.714   1.609   8.180  0.2107  0.4606  0.3422
  708MOL0     C95492   9.856   1.612   8.183  0.1065  0.0871 -0.5862
  708MOL0     O95493  10.123   1.916   8.161  0.1865  0.1860  0.4199
  708MOL0     C95494  10.332   1.897   7.959  0.0464 -0.0762 -0.5202
  708MOL0     C95495  10.445   1.884   7.884 -1.0616 -0.7727  0.1320
  708MOL0     N95496  10.674   1.672   7.204 -0.9231  0.2095  0.3787
  708MOL0     N95497  10.602   1.585   7.142  0.9377 -0.1960  0.5916
  708MOL0     C95498   9.834   1.012   7.781 -0.1043  0.1978  0.1922
  708MOL0     C95499   9.717   0.975   7.846 -0.0950 -0.5948  0.1323
  708MOL0     C95500   9.377   0.869   8.107 -0.3597 -0.2918  1.1654
  708MOL0     C95501   9.399   0.808   8.235  0.8614 -0.2404  0.4653
  708MOL0     C95502   9.294   0.821   8.333  0.3733  0.0042 -0.2791
  708MOL0     C95503   9.167   0.865   8.308  0.0054 -0.4253  0.2071
  708MOL0     O95504   9.073   0.834   8.396  0.0660  0.4757 -0.2295
  708MOL0     C95505   8.940   0.891   8.375 -0.7699 -0.0496  0.0075
  708MOL0     C95506   8.848   0.849   8.486 -0.7941 -0.2690  0.2442
  708MOL0     C95507   8.870   0.697   8.506 -0.6737  0.5964  1.3509
  708MOL0     C95508   8.726   0.642   8.546  0.6231  0.0867  0.7169
  708MOL0     C95509   8.714   0.500   8.508 -0.6810 -0.3060  0.2142
  708MOL0     C95510   8.705   0.387   8.464 -0.2074  0.7691  0.2719
  708MOL0     C95511   9.151   0.927   8.183 -0.4019 -0.3670  0.0155
  708MOL0     C95512   9.255   0.934   8.091 -0.0720  0.2388 -0.3713
  708MOL0     H95513   9.857   0.777   8.077  2.0338  0.5224  0.0994
  708MOL0     H95514  10.063   0.840   7.946 -0.1096  1.3979  1.2902
  708MOL0     H95515  10.026   0.991   7.538  5.3008 -1.9717 -1.2086
  708MOL0     H95516  10.007   1.154   7.610 -0.3628 -0.7554  1.5301
  708MOL0     H95517  10.246   1.162   7.651 -1.3951 -2.1342  4.0586
  708MOL0     H95518  10.264   1.001   7.571  2.2412  1.9213  1.0222
  708MOL0     H95519  10.201   1.073   7.362 -1.3333 -0.2264  1.2758
  708MOL0     H95520  10.126   1.227   7.418 -1.7660 -1.5882  0.2863
  708MOL0     H95521  10.348   1.299   7.492  1.5007 -1.1265 -0.2700
  708MOL0     H95522  10.420   1.173   7.382  1.0150  1.7831 -0.8020
  708MOL0     H95523  10.404   1.311   7.211  1.9301  1.6837  1.9904
  708MOL0     H95524  10.240   1.261   7.210 -1.1363  1.5549  0.4066
  708MOL0     H95525  10.156   1.456   7.353  0.5915  2.0529  1.2286
  708MOL0     H95526  10.321   1.514   7.376 -0.8560  3.3898 -0.8899
  708MOL0     H95527  10.166   1.474   7.109  0.4452 -2.0390  2.4443
  708MOL0     H95528  10.184   1.634   7.182  1.8733  0.5428  1.2209
  708MOL0     H95529  10.324   1.637   7.011 -2.9706  0.6786  0.6136
  708MOL0     H95530  10.382   1.472   7.031  0.9108  1.2717 -0.6099
  708MOL0     H95531  10.371   1.791   7.248  1.7187  0.7039  1.9740
  708MOL0     H95532  10.726   1.938   7.263 -2.9562  1.2511 -3.2807
  708MOL0     H95533  10.567   1.965   7.340  0.2753  0.3643 -0.9747
  708MOL0     H95534  10.786   1.927   7.489 -0.8640  0.7694  3.1882
  708MOL0     H95535  10.761   1.750   7.449 -2.8378 -1.3819 -0.5967
  708MOL0     H95536  10.564   1.729   7.556 -0.6430  0.2114  0.4751
  708MOL0     H95537  10.535   1.904   7.569 -2.0725 -2.4401 -2.9068
  708MOL0     H95538  10.701   1.927   7.746  2.3533 -0.5796 -0.1789
  708MOL0     H95539  10.788   1.793   7.697  1.4753  3.1277 -0.0195
  708MOL0     H95540  10.542   1.583   7.979 -2.1820 -2.1298 -1.2667
  708MOL0     H95541  10.287   1.624   8.251 -0.4428 -1.8690  1.1224
  708MOL0     H95542  10.235   1.507   8.125  0.2819  0.0770 -0.2682
  708MOL0     H95543  10.387   1.498   8.196  1.4708  0.7256  1.3744
  708MOL0     H95544   9.903   1.903   8.009  1.7500 -0.2791  0.5822
  708MOL0     H95545   9.659   1.926   8.068  0.3848 -0.3651 -2.3477
  708MOL0     H95546   9.454   1.878   8.081 -2.9786  0.9179 -0.6149
  708MOL0     H95547   9.467   1.751   7.951 -1.0125 -2.1009  0.5765
  708MOL0     H95548   9.238   1.798   7.988  1.3910  1.0765 -0.6276
  708MOL0     H95549   9.282   1.641   8.043  0.5884  0.5733 -5.7876
  708MOL0     H95550   9.319   1.764   8.284 -0.8188  0.7796  0.0328
  708MOL0     H95551   9.151   1.730   8.246  0.3910 -1.2080  0.4824
  708MOL0     H95552   9.281   1.990   8.163  1.3177  0.7668  1.5162
  708MOL0     H95553   9.113   1.941   8.186 -0.5439  0.4028  1.5305
  708MOL0     H95554   9.334   1.956   8.410 -0.6332 -3.7974 -0.0411
  708MOL0     H95555   9.162   1.936   8.438 -0.3321 -1.2755 -1.1471
  708MOL0     H95556   9.289   2.181   8.307  0.0743 -0.7090  0.8142
  708MOL0     H95557   9.126   2.154   8.337  0.3570  2.1102  0.3788
  708MOL0     H95558   9.345   2.225   8.530 -0.7067  1.4490 -0.6439
  708MOL0     H95559   9.222   2.107   8.594 -0.1231 -2.2042 -1.9213
  708MOL0     H95560   9.173   2.365   8.632 -2.3455  1.5119 -1.3232
  708MOL0     H95561   9.052   2.277   8.544 -1.0279  2.1689 -1.8749
  708MOL0     H95562   9.662   1.516   8.199  0.2899 -0.1113 -1.9001
  708MOL0     H95563   9.908   1.528   8.229 -0.2698  0.8700  1.3972
  708MOL0     H95564  10.271   1.986   7.946 -0.0460  0.0029  0.4234
  708MOL0     H95565  10.480   1.960   7.816  1.2359 -2.6342 -0.9368
  708MOL0     H95566   9.828   1.094   7.710 -1.2504 -1.1692 -1.4018
  708MOL0     H95567   9.631   1.026   7.805 -0.3151  0.6728  2.0350
  708MOL0     H95568   9.487   0.753   8.266  1.1799  0.5268  0.9414
  708MOL0     H95569   9.314   0.763   8.422 -1.0652 -0.0253  0.0397
  708MOL0     H95570   8.956   0.999   8.365 -1.2668  0.2253  1.7404
  708MOL0     H95571   8.899   0.850   8.283 -1.0187  1.2812 -0.4996
  708MOL0     H95572   8.747   0.874   8.452 -0.6597  0.8753  0.6354
  708MOL0     H95573   8.865   0.902   8.580 -1.4476 -1.8002  1.2592
  708MOL0     H95574   8.959   0.686   8.569  0.0792  1.3857  0.4537
  708MOL0     H95575   8.894   0.652   8.410 -0.8107  1.9647  0.6480
  708MOL0     H95576   8.647   0.695   8.493 -1.0005 -2.3842  0.5205
  708MOL0     H95577   8.710   0.655   8.653 -1.7007  0.6131  0.3604
  708MOL0     H95578   8.698   0.285   8.435 -2.9099  2.1461 -5.1918
  708MOL0     H95579   9.055   0.958   8.144  0.1377  0.2206 -0.8845
  708MOL0     H95580   9.234   0.989   7.999  0.9953 -0.3737 -1.0143
  709MOL0     O95581   4.944   5.156   6.773 -0.7177  0.3010  0.3270
  709MOL0     C95582   4.991   5.263   6.733  0.3646 -0.7590 -0.0055
  709MOL0     O95583   4.960   5.385   6.791  0.0550 -0.0912 -0.0286
  709MOL0     C95584   4.859   5.418   6.877 -0.0535  0.7359 -0.1575
  709MOL0     C95585   4.761   5.336   6.930 -0.5905  0.0618 -0.4572
  709MOL0     C95586   4.690   5.386   7.038 -0.2501  0.3079 -0.0450
  709MOL0     C95587   4.697   5.518   7.082  0.2127 -0.6185 -0.1046
  709MOL0     O95588   4.632   5.570   7.190  0.5243 -0.2716  0.0465
  709MOL0     C95589   4.488   5.548   7.208 -0.3889  0.8449  0.0350
  709MOL0     C95590   4.442   5.629   7.322 -0.4395  0.0206  0.6643
  709MOL0     C95591   4.295   5.598   7.345  0.0302  0.2651  0.2562
  709MOL0     C95592   4.213   5.716   7.405 -0.1872 -0.2773  0.0419
  709MOL0     C95593   4.088   5.643   7.462  0.1234 -1.7873  1.1381
  709MOL0     C95594   4.009   5.743   7.548  0.7247  0.4780  1.1214
  709MOL0     C95595   3.880   5.681   7.591 -0.7294 -0.0026 -0.0632
  709MOL0     C95596   3.754   5.709   7.499 -0.6899 -0.2705 -0.1686
  709MOL0     N95597   3.756   5.620   7.387  0.5881  0.8466  0.7409
  709MOL0     C95598   3.666   5.522   7.375  0.1868  0.1208  0.5815
  709MOL0     C95599   3.691   5.479   7.247  0.4049 -0.0569 -0.1017
  709MOL0     C95600   3.645   5.353   7.179 -0.8500 -0.0630 -0.2739
  709MOL0     C95601   3.502   5.370   7.132  1.0447  0.8868 -0.8758
  709MOL0     C95602   3.426   5.235   7.160 -0.3462  0.3326 -0.3298
  709MOL0     C95603   3.282   5.237   7.114 -0.6066 -0.3966  0.9385
  709MOL0     O95604   3.218   5.339   7.198 -0.1853  0.8123  0.0433
  709MOL0     C95605   3.134   5.304   7.301 -0.9624  0.6929 -0.4974
  709MOL0     C95606   3.132   5.182   7.362  0.4027  0.0085 -0.0949
  709MOL0     C95607   3.063   5.154   7.480 -0.1850 -0.0030  0.5794
  709MOL0     C95608   3.084   5.024   7.527 -0.4120  0.4766 -0.4142
  709MOL0     C95609   2.982   5.248   7.548  0.2881 -0.6506  1.0201
  709MOL0     C95610   2.911   5.238   7.670 -0.3865 -0.6414 -0.3899
  709MOL0     O95611   2.838   5.345   7.709 -0.1429 -0.3589  0.1047
  709MOL0     C95612   2.768   5.331   7.830 -0.0212  0.0161  0.8059
  709MOL0     C95613   2.820   5.375   7.954  1.0642 -1.0829 -0.2585
  709MOL0     C95614   2.746   5.374   8.065  0.8046 -0.1805 -0.4731
  709MOL0     C95615   2.606   5.343   8.062 -0.1873 -0.3271 -0.8679
  709MOL0     O95616   2.518   5.342   8.167  0.5680  0.1419 -0.0371
  709MOL0     C95617   2.549   5.415   8.281  0.3580 -0.3802 -0.2370
  709MOL0     C95618   2.445   5.394   8.395  1.0654  0.2520  0.2662
  709MOL0     C95619   2.302   5.451   8.365  0.1562  0.6165  0.4955
  709MOL0     C95620   2.227   5.446   8.504  0.2655  0.1335 -0.2405
  709MOL0     C95621   2.081   5.507   8.493  0.1079 -0.3445  0.3370
  709MOL0     C95622   2.028   5.541   8.639  0.3511 -0.1097 -0.0337
  709MOL0     C95623   1.891   5.606   8.614 -0.5161  0.3521  0.5697
  709MOL0     C95624   1.827   5.639   8.744 -0.8538 -0.4521  0.4993
  709MOL0    Cl95625   1.955   5.708   8.851 -0.2497  0.0755 -0.5875
  709MOL0     C95626   2.557   5.291   7.946 -0.1934 -0.7415 -0.4635
  709MOL0     C95627   2.633   5.291   7.834 -1.0597  0.4876  0.7929
  709MOL0     O95628   2.915   5.128   7.725  0.5587  0.8265  0.3806
  709MOL0     C95629   2.974   5.370   7.483 -0.3422 -0.2520  0.4524
  709MOL0     C95630   3.043   5.393   7.354  0.5668 -0.0877 -0.2564
  709MOL0     N95631   3.796   5.550   7.190  0.6579  0.2599  0.3253
  709MOL0     N95632   3.818   5.652   7.264  0.0739  0.7431 -0.4192
  709MOL0     C95633   4.791   5.604   7.016 -0.1014 -0.1103 -0.5285
  709MOL0     C95634   4.875   5.550   6.914  0.4761  0.0728  0.0266
  709MOL0     C95635   5.086   5.262   6.627 -1.1061  0.4796  1.1819
  709MOL0     C95636   5.121   5.373   6.556 -0.0716 -0.0515  0.8159
  709MOL0     C95637   5.218   5.369   6.448 -0.2905  0.4162  0.2308
  709MOL0     C95638   5.280   5.250   6.413 -0.1270 -1.3032  0.2435
  709MOL0     O95639   5.367   5.249   6.299  1.0773 -0.7330  0.0585
  709MOL0     C95640   5.358   5.135   6.216  0.6235  0.7397  0.8512
  709MOL0     C95641   5.478   5.045   6.215 -0.1553  0.0570  1.0437
  709MOL0     C95642   5.616   5.111   6.211  0.4660  0.4938 -0.6398
  709MOL0     C95643   5.733   5.015   6.199  0.1608 -0.2127 -0.3850
  709MOL0     C95644   5.729   4.917   6.088 -0.6245 -0.6075 -0.8140
  709MOL0     C95645   5.741   4.824   6.012  0.9951 -0.8591  0.1543
  709MOL0     C95646   5.252   5.141   6.491  0.2383  0.4521  0.6400
  709MOL0     C95647   5.152   5.144   6.597 -0.0828 -0.1715  0.0032
  709MOL0     H95648   4.745   5.233   6.902 -0.6879 -0.8794  2.6440
  709MOL0     H95649   4.630   5.309   7.086  3.0016 -1.4983  1.4362
  709MOL0     H95650   4.435   5.572   7.115 -0.3632  4.1648  0.7564
  709MOL0     H95651   4.482   5.440   7.226  1.4975 -0.0116 -3.5628
  709MOL0     H95652   4.502   5.601   7.409 -0.8764 -0.6253  0.7669
  709MOL0     H95653   4.464   5.734   7.299  0.2168  0.0159  1.2295
  709MOL0     H95654   4.242   5.556   7.259 -2.3469 -2.3182  2.7519
  709MOL0     H95655   4.316   5.520   7.419  0.5280  2.8273  3.0127
  709MOL0     H95656   4.267   5.771   7.483  0.2474 -1.0506  0.2906
  709MOL0     H95657   4.182   5.789   7.329 -5.1100 -0.1356  1.8011
  709MOL0     H95658   4.044   5.601   7.371 -0.0609  0.2599  0.2429
  709MOL0     H95659   4.121   5.557   7.523  0.3117 -2.7864 -0.3250
  709MOL0     H95660   4.065   5.771   7.637  0.0795  2.9555  0.8158
  709MOL0     H95661   3.990   5.840   7.501 -0.0332 -0.0195  0.3693
  709MOL0     H95662   3.893   5.575   7.615  6.2474  0.5995  0.8482
  709MOL0     H95663   3.859   5.735   7.684  3.3795  0.8700  0.5412
  709MOL0     H95664   3.753   5.808   7.451  1.2801  0.0401  0.3777
  709MOL0     H95665   3.664   5.704   7.560 -0.9591  1.8771 -0.3212
  709MOL0     H95666   3.602   5.474   7.449  0.9913 -4.1220 -1.2018
  709MOL0     H95667   3.721   5.321   7.107  1.2076 -0.6616  2.0187
  709MOL0     H95668   3.639   5.276   7.257 -1.2247  1.6745  1.4720
  709MOL0     H95669   3.503   5.410   7.030  1.3405  1.4514 -0.6572
  709MOL0     H95670   3.451   5.443   7.195  2.0090  0.4790  0.4314
  709MOL0     H95671   3.423   5.210   7.266 -2.8541  0.4473 -0.2972
  709MOL0     H95672   3.477   5.152   7.112 -0.2157 -0.8334  1.7169
  709MOL0     H95673   3.240   5.136   7.121  1.4643 -1.4551 -0.6782
  709MOL0     H95674   3.274   5.269   7.010 -1.1723  0.0684  1.1204
  709MOL0     H95675   3.187   5.101   7.316 -1.3390 -0.8214 -0.8124
  709MOL0     H95676   3.136   5.031   7.623 -0.0805  0.1284 -0.5677
  709MOL0     H95677   2.991   4.967   7.537  0.5362 -1.2404 -0.9398
  709MOL0     H95678   3.134   4.965   7.450 -4.2440  1.1591 -3.7964
  709MOL0     H95679   2.914   5.428   7.968 -0.8994  3.0629 -1.4592
  709MOL0     H95680   2.797   5.393   8.160 -2.2750 -1.6765  1.6544
  709MOL0     H95681   2.647   5.380   8.315  1.3999 -0.6517 -3.2217
  709MOL0     H95682   2.552   5.521   8.256  0.0704 -0.8571 -2.5545
  709MOL0     H95683   2.431   5.286   8.394  0.5529  0.3044 -1.1494
  709MOL0     H95684   2.485   5.420   8.493 -2.8896  1.6481  1.7116
  709MOL0     H95685   2.241   5.392   8.297  0.6469  1.0035 -0.2884
  709MOL0     H95686   2.304   5.550   8.319 -1.9194 -0.2731 -1.7210
  709MOL0     H95687   2.223   5.341   8.535 -2.1789  0.8444  2.3078
  709MOL0     H95688   2.280   5.494   8.587 -1.1337  0.2643  0.6083
  709MOL0     H95689   2.020   5.445   8.427  2.7394 -1.1387 -1.5288
  709MOL0     H95690   2.093   5.598   8.433 -1.7586 -0.2903 -0.0152
  709MOL0     H95691   1.995   5.451   8.692  2.4222 -0.3423  0.9613
  709MOL0     H95692   2.101   5.601   8.693  0.5737 -1.3689  1.1342
  709MOL0     H95693   1.825   5.541   8.557  1.8637  0.3026 -2.3753
  709MOL0     H95694   1.912   5.689   8.546  5.3195 -0.6628  0.6268
  709MOL0     H95695   1.790   5.547   8.790 -0.5655  0.4140  2.5600
  709MOL0     H95696   1.749   5.714   8.730  1.3676  2.2937  1.6571
  709MOL0     H95697   2.452   5.261   7.945  0.3863 -2.9324  0.0146
  709MOL0     H95698   2.596   5.262   7.736  0.2335  2.0229 -0.2083
  709MOL0     H95699   2.924   5.457   7.526 -0.8338  0.6124 -1.7480
  709MOL0     H95700   3.036   5.487   7.301  3.2495  0.1696 -0.3243
  709MOL0     H95701   4.797   5.712   7.025 -1.4888  0.1492 -2.1714
  709MOL0     H95702   4.955   5.607   6.869 -0.8623  1.3342 -0.8580
  709MOL0     H95703   5.086   5.472   6.579  0.6882  0.1613  1.0897
  709MOL0     H95704   5.244   5.462   6.398  0.9153  1.4573  2.6483
  709MOL0     H95705   5.275   5.068   6.239  2.3353 -1.1920  1.7791
  709MOL0     H95706   5.329   5.165   6.115 -0.2945 -3.5222 -0.3645
  709MOL0     H95707   5.472   4.993   6.119  0.2157 -0.7953  1.4724
  709MOL0     H95708   5.471   4.973   6.297 -1.8090 -0.3623  0.5665
  709MOL0     H95709   5.622   5.172   6.302  1.6317  1.1231 -1.1113
  709MOL0     H95710   5.619   5.188   6.134 -1.0953  0.4695 -0.7478
  709MOL0     H95711   5.754   4.961   6.292  2.2005  1.6877  0.3552
  709MOL0     H95712   5.817   5.084   6.199 -2.0473  2.7058  0.9832
  709MOL0     H95713   5.749   4.739   5.948 -2.1156  0.2773 -1.9916
  709MOL0     H95714   5.305   5.047   6.480 -1.0813 -0.0820 -1.8696
  709MOL0     H95715   5.137   5.051   6.652 -1.0690 -0.0146  0.0233
  710MOL0     O95716   1.151   4.392  11.362  0.2734 -0.4501  0.2472
  710MOL0     C95717   1.177   4.281  11.319 -0.7691  0.7502  0.6381
  710MOL0     O95718   1.082   4.187  11.261  0.3451 -0.0834 -0.6579
  710MOL0     C95719   0.955   4.230  11.264  0.6414 -0.6395  0.6570
  710MOL0     C95720   0.854   4.177  11.357 -0.6908  0.8166 -0.3270
  710MOL0     C95721   0.723   4.226  11.360 -0.4616  0.1591 -0.3774
  710MOL0     C95722   0.689   4.332  11.283 -0.6868  0.2658  0.0544
  710MOL0     O95723   0.551   4.367  11.279  0.5556  0.4432  0.1249
  710MOL0     C95724   0.517   4.492  11.336 -0.4466  0.4450  0.6729
  710MOL0     C95725   0.540   4.506  11.487  0.7458  0.1796  0.6161
  710MOL0     C95726   0.457   4.399  11.561  0.7597  0.8155  1.1916
  710MOL0     C95727   0.427   4.438  11.702  0.1127 -1.0247  0.8541
  710MOL0     C95728   0.320   4.360  11.771  0.3137  0.6916 -0.1651
  710MOL0     C95729   0.174   4.387  11.713  0.5392 -0.5378 -0.5689
  710MOL0     C95730   0.063   4.291  11.783 -0.8976 -0.0784  0.3990
  710MOL0     C95731   0.084   4.147  11.741 -0.5751  0.3444  0.0207
  710MOL0     N95732   0.111   4.120  11.605  0.8222 -0.2673 -0.1358
  710MOL0     C95733   0.229   4.076  11.555 -0.7009 -0.1556  0.4360
  710MOL0     C95734   0.213   4.071  11.415 -0.1488 -1.1838  0.0856
  710MOL0     C95735   0.311   4.054  11.298  0.3681 -0.2584  0.1269
  710MOL0     C95736   0.387   3.920  11.301 -0.2926  0.1391 -0.0008
  710MOL0     C95737   0.303   3.802  11.356  0.6645 -0.7073 -0.5863
  710MOL0     C95738   0.192   3.759  11.251 -0.1182 -0.5305 -0.4045
  710MOL0     O95739   0.121   3.639  11.293  0.0275  0.4187  0.2903
  710MOL0     C95740   0.062   3.635  11.423  0.2897  0.1470  0.0473
  710MOL0     C95741   0.015   3.737  11.502 -0.7470  0.3540 -0.1935
  710MOL0     C95742  -0.058   3.708  11.618 -0.6140 -0.0465 -0.6238
  710MOL0     C95743  -0.117   3.818  11.699  0.5822  0.1008  0.2387
  710MOL0     C95744  -0.089   3.573  11.653 -0.1359 -0.0536 -0.1248
  710MOL0     C95745  -0.159   3.535  11.778  0.3058  0.6840  0.1941
  710MOL0     O95746  -0.135   3.618  11.893 -0.2377  0.5630 -0.1393
  710MOL0     C95747  -0.179   3.586  12.019 -0.3058  0.5015 -0.6307
  710MOL0     C95748  -0.252   3.468  12.054  0.4513  0.3951 -0.4796
  710MOL0     C95749  -0.305   3.463  12.181  0.7096 -0.8844  0.5776
  710MOL0     C95750  -0.309   3.571  12.266  0.7949 -0.6582 -0.4168
  710MOL0     O95751  -0.366   3.575  12.393 -0.5414 -0.1869 -0.4141
  710MOL0     C95752  -0.405   3.450  12.457 -0.5851 -0.3893 -0.1508
  710MOL0     C95753  -0.487   3.477  12.587  0.0055  0.1025 -0.5454
  710MOL0     C95754  -0.399   3.518  12.700  0.0308 -0.0089  0.9369
  710MOL0     C95755  -0.482   3.537  12.825  0.6815  0.4668 -0.2139
  710MOL0     C95756  -0.566   3.421  12.867 -0.2276  0.4202  0.8482
  710MOL0     C95757  -0.626   3.435  13.004 -0.0635 -0.5013 -0.0664
  710MOL0     C95758  -0.705   3.304  13.033 -0.4700  0.0961  0.1894
  710MOL0     C95759  -0.770   3.291  13.165 -0.3579 -0.3988  0.0048
  710MOL0    Cl95760  -0.650   3.312  13.289 -0.1001  0.0379 -0.0513
  710MOL0     C95761  -0.242   3.680  12.230 -0.2138  0.6303 -0.1129
  710MOL0     C95762  -0.178   3.691  12.107  0.3740 -1.0188  0.3625
  710MOL0     O95763  -0.235   3.434  11.767 -0.3491 -0.3754 -0.1593
  710MOL0     C95764  -0.031   3.469  11.580  0.1333  0.3925  0.1748
  710MOL0     C95765   0.050   3.503  11.465  0.5725 -0.3888  0.1741
  710MOL0     N95766   0.081   4.095  11.394 -0.5081 -0.2124  0.8129
  710MOL0     N95767   0.019   4.132  11.499  0.5540 -1.0666  0.1231
  710MOL0     C95768   0.785   4.399  11.202 -0.2641 -0.0594 -0.2457
  710MOL0     C95769   0.915   4.346  11.189  0.6917  0.0451  0.0836
  710MOL0     C95770   1.317   4.250  11.308 -0.5084  0.0046  1.5887
  710MOL0     C95771   1.367   4.157  11.211  0.4744  0.1368 -0.1976
  710MOL0     C95772   1.505   4.128  11.205 -0.1911  0.1516 -0.7136
  710MOL0     C95773   1.592   4.198  11.293  0.2971 -0.5126 -0.8018
  710MOL0     O95774   1.722   4.170  11.303 -0.8589 -0.3430  0.0275
  710MOL0     C95775   1.812   4.223  11.195  0.6052 -0.2352 -0.6889
  710MOL0     C95776   1.855   4.371  11.234 -0.0945 -0.7550  0.1026
  710MOL0     C95777   1.967   4.413  11.127  0.6650  0.7613  0.4175
  710MOL0     C95778   1.991   4.571  11.132 -0.1629  0.0855  0.7628
  710MOL0     C95779   1.863   4.645  11.105  0.6735  0.2000  0.0457
  710MOL0     C95780   1.765   4.711  11.065  0.2108  0.2608  0.1853
  710MOL0     C95781   1.545   4.292  11.390 -0.1360  0.6180  0.3529
  710MOL0     C95782   1.412   4.304  11.397 -0.2936 -0.5687  0.5896
  710MOL0     H95783   0.876   4.095  11.425  0.4909  0.9848 -0.4965
  710MOL0     H95784   0.648   4.175  11.419  0.0893 -0.7478 -0.4461
  710MOL0     H95785   0.547   4.577  11.275 -1.5445  1.7001  1.8358
  710MOL0     H95786   0.409   4.499  11.324 -0.4369  0.8202  0.7922
  710MOL0     H95787   0.644   4.501  11.520  0.8291  1.2748  0.5542
  710MOL0     H95788   0.518   4.606  11.524  1.7079  0.2332  1.0892
  710MOL0     H95789   0.363   4.385  11.507  0.0883 -0.8509  2.6956
  710MOL0     H95790   0.504   4.300  11.559 -0.7466  0.0724  0.4001
  710MOL0     H95791   0.513   4.421  11.768 -0.4502 -3.1644  1.1067
  710MOL0     H95792   0.398   4.544  11.696  0.6049 -0.7460  2.7199
  710MOL0     H95793   0.349   4.256  11.752 -1.8822 -0.5550  2.6635
  710MOL0     H95794   0.320   4.387  11.877 -1.3133 -0.3254  0.1279
  710MOL0     H95795   0.144   4.487  11.746 -0.7177 -0.4869 -1.7896
  710MOL0     H95796   0.172   4.381  11.604 -1.4655  0.7322 -0.6539
  710MOL0     H95797   0.074   4.299  11.891 -2.2406 -2.9758  0.8319
  710MOL0     H95798  -0.032   4.322  11.740  0.0468  1.5166 -0.6735
  710MOL0     H95799  -0.007   4.098  11.777  0.3229  0.4207  2.6347
  710MOL0     H95800   0.163   4.096  11.797 -2.6904 -0.6540  2.3083
  710MOL0     H95801   0.314   4.070  11.622 -0.0789  0.3492 -0.2836
  710MOL0     H95802   0.260   4.051  11.202 -2.3441 -3.6209  1.4365
  710MOL0     H95803   0.391   4.129  11.300  1.2821 -1.2156  0.7147
  710MOL0     H95804   0.462   3.930  11.380  0.4821 -2.2578 -0.3303
  710MOL0     H95805   0.429   3.905  11.201  0.8411  2.3418  0.0792
  710MOL0     H95806   0.265   3.817  11.458 -0.8060 -1.7064 -0.9751
  710MOL0     H95807   0.380   3.725  11.364  0.6161 -0.9264 -2.0963
  710MOL0     H95808   0.251   3.741  11.160  2.7290  0.5869  1.1122
  710MOL0     H95809   0.121   3.838  11.225  0.0474 -0.3214 -0.2205
  710MOL0     H95810   0.033   3.842  11.481 -0.7357  0.9338  2.4189
  710MOL0     H95811  -0.056   3.848  11.784  0.0047 -0.2146  0.7741
  710MOL0     H95812  -0.140   3.907  11.641  1.1443  0.8948  1.2114
  710MOL0     H95813  -0.212   3.779  11.737  0.9813 -2.5978 -1.2606
  710MOL0     H95814  -0.275   3.379  11.997 -2.9194 -1.4335  3.2692
  710MOL0     H95815  -0.350   3.370  12.213  1.3271 -1.7027 -0.8416
  710MOL0     H95816  -0.463   3.399  12.378 -1.1039 -1.0598  0.6416
  710MOL0     H95817  -0.311   3.398  12.477 -0.3032  1.0502  2.5860
  710MOL0     H95818  -0.577   3.537  12.573  2.3937  3.7278 -1.8540
  710MOL0     H95819  -0.522   3.378  12.619  0.0271  1.0393  2.7190
  710MOL0     H95820  -0.350   3.615  12.682  0.4798 -0.3901  0.0339
  710MOL0     H95821  -0.327   3.436  12.699 -0.1650 -0.2746 -2.1757
  710MOL0     H95822  -0.415   3.567  12.906 -0.2133 -2.6943  1.8991
  710MOL0     H95823  -0.554   3.619  12.814 -0.6516 -0.3337  1.9586
  710MOL0     H95824  -0.504   3.331  12.857 -1.1834 -0.1490 -0.1874
  710MOL0     H95825  -0.649   3.409  12.796 -2.3504 -1.5261  3.4403
  710MOL0     H95826  -0.541   3.447  13.071  0.6644 -1.1429 -0.8513
  710MOL0     H95827  -0.686   3.526  13.004  1.6135  0.7044  1.9746
  710MOL0     H95828  -0.636   3.221  13.019  2.2669  1.9813  1.6206
  710MOL0     H95829  -0.782   3.306  12.955 -0.2042  0.9303 -0.0646
  710MOL0     H95830  -0.825   3.200  13.192 -1.6333  0.4088  0.1977
  710MOL0     H95831  -0.851   3.364  13.168 -1.3924 -1.5037 -0.2399
  710MOL0     H95832  -0.247   3.767  12.295 -0.7721  1.0207 -0.6701
  710MOL0     H95833  -0.129   3.783  12.076  0.7852 -1.1186  0.7205
  710MOL0     H95834  -0.047   3.365  11.607 -3.6578  0.4930 -1.1250
  710MOL0     H95835   0.088   3.416  11.413 -0.2035 -0.3030 -0.5655
  710MOL0     H95836   0.748   4.471  11.130 -0.6578  0.8472  0.8308
  710MOL0     H95837   0.981   4.381  11.111 -0.2395 -0.2298 -0.8428
  710MOL0     H95838   1.299   4.111  11.141  1.2752 -0.1178 -0.8223
  710MOL0     H95839   1.558   4.060  11.139  1.5117 -1.0005  1.7178
  710MOL0     H95840   1.902   4.160  11.191 -0.7167 -2.2398  0.0837
  710MOL0     H95841   1.764   4.224  11.097 -2.4418  2.7509  0.6433
  710MOL0     H95842   1.896   4.361  11.335 -0.3273  1.4924  0.4876
  710MOL0     H95843   1.769   4.438  11.239 -0.6046 -1.4596  1.0877
  710MOL0     H95844   1.938   4.388  11.025  1.0289  1.1056  0.2236
  710MOL0     H95845   2.059   4.359  11.152 -1.2541 -2.2151  1.6090
  710MOL0     H95846   2.059   4.604  11.053  2.7105 -1.6507  2.3175
  710MOL0     H95847   2.049   4.598  11.221  0.0451 -5.5688  2.7265
  710MOL0     H95848   1.678   4.751  11.017  0.1493 -1.7331 -1.5098
  710MOL0     H95849   1.602   4.347  11.465  1.8536  0.4584 -0.9613
  710MOL0     H95850   1.384   4.366  11.481 -0.6305 -1.2172  0.9625
  711MOL0     O95851  10.339   0.398   5.141  0.3789  0.2503  0.4011
  711MOL0     C95852  10.367   0.515   5.160 -0.2789 -0.0038 -0.8919
  711MOL0     O95853  10.283   0.623   5.130 -0.3473 -0.3711 -0.0435
  711MOL0     C95854  10.144   0.616   5.114 -0.4132  0.3928 -0.6872
  711MOL0     C95855  10.092   0.678   5.003  0.2802 -0.0695 -0.2383
  711MOL0     C95856   9.951   0.691   4.983  0.0048 -0.7566  0.0294
  711MOL0     C95857   9.856   0.645   5.072 -0.4939 -0.4137 -0.3911
  711MOL0     O95858   9.726   0.670   5.038  0.6465  0.1242 -0.4796
  711MOL0     C95859   9.609   0.629   5.114  0.0822 -0.4675 -0.6155
  711MOL0     C95860   9.476   0.660   5.042 -0.4974 -0.2671  0.8939
  711MOL0     C95861   9.448   0.815   5.047  0.7840 -0.0774  0.0697
  711MOL0     C95862   9.311   0.854   4.981 -0.8119 -0.3135 -0.0656
  711MOL0     C95863   9.307   1.002   4.944 -0.0350  0.7174  0.2251
  711MOL0     C95864   9.151   1.039   4.944 -0.0487  0.5032 -0.0503
  711MOL0     C95865   9.067   0.962   4.843  0.5145  0.1788  0.5063
  711MOL0     C95866   8.963   0.862   4.897 -0.3073  0.2308  0.0296
  711MOL0     N95867   8.860   0.935   4.982 -0.0347  0.3890  0.9542
  711MOL0     C95868   8.791   1.048   4.949  0.0857 -0.7449  0.0395
  711MOL0     C95869   8.728   1.073   5.059 -0.3837 -0.4502 -0.1741
  711MOL0     C95870   8.640   1.197   5.087  0.0590  0.4741  0.4995
  711MOL0     C95871   8.510   1.183   5.011  0.3545 -0.1351  0.4014
  711MOL0     C95872   8.408   1.093   5.076  0.3681  0.2495 -0.5642
  711MOL0     C95873   8.334   1.152   5.199  0.0910  0.0034 -0.1045
  711MOL0     O95874   8.292   1.288   5.163 -0.3627 -0.0641  0.4621
  711MOL0     C95875   8.156   1.306   5.197  0.1605  0.0117 -0.0246
  711MOL0     C95876   8.107   1.315   5.333 -0.0508 -0.7734  0.6876
  711MOL0     C95877   7.970   1.322   5.370  0.2872 -0.3989  0.4777
  711MOL0     C95878   7.936   1.297   5.518 -0.4011 -0.2369  0.0630
  711MOL0     C95879   7.877   1.323   5.264 -0.0055  0.9425  0.1564
  711MOL0     C95880   7.725   1.314   5.289 -0.7004 -0.7766  0.3579
  711MOL0     O95881   7.683   1.246   5.398  0.1379 -0.4591 -0.0099
  711MOL0     C95882   7.551   1.206   5.395  0.3475 -0.1238 -0.5888
  711MOL0     C95883   7.520   1.075   5.382 -0.4058  0.5512  0.2115
  711MOL0     C95884   7.391   1.034   5.379  0.9774  0.0628 -0.5284
  711MOL0     C95885   7.280   1.125   5.386 -0.9017  0.2657 -0.1543
  711MOL0     O95886   7.162   1.079   5.337  0.0957  0.5586  0.3457
  711MOL0     C95887   7.060   1.167   5.302 -0.8679 -0.7874  1.3160
  711MOL0     C95888   6.935   1.088   5.328 -0.7902 -0.9034 -0.3639
  711MOL0     C95889   6.828   1.156   5.245 -0.6518 -0.0333 -0.1798
  711MOL0     C95890   6.695   1.081   5.280 -0.1290  0.5947 -0.1386
  711MOL0     C95891   6.581   1.181   5.280  0.3311 -0.1165 -0.0806
  711MOL0     C95892   6.443   1.132   5.320  0.5393  0.8742 -0.1555
  711MOL0     C95893   6.318   1.222   5.306  0.2113 -0.0566  0.0879
  711MOL0     C95894   6.198   1.137   5.275  0.3856 -0.3564 -0.2445
  711MOL0    Cl95895   6.178   1.088   5.106 -0.0921  0.0425  0.3636
  711MOL0     C95896   7.313   1.261   5.395 -0.0885  0.3017  0.5392
  711MOL0     C95897   7.449   1.295   5.408 -0.2945 -0.2805  0.0097
  711MOL0     O95898   7.653   1.357   5.198 -0.6211 -0.4041  0.3820
  711MOL0     C95899   7.921   1.320   5.129 -0.0885  0.5827 -0.3909
  711MOL0     C95900   8.057   1.308   5.093 -0.4554 -0.1252  0.4187
  711MOL0     N95901   8.741   0.981   5.159 -0.5563  0.5155  0.4742
  711MOL0     N95902   8.823   0.895   5.106  0.4892 -0.8783  0.1702
  711MOL0     C95903   9.907   0.586   5.183 -0.7684 -0.1563  0.4946
  711MOL0     C95904  10.051   0.577   5.213  0.8085 -0.6403  0.6388
  711MOL0     C95905  10.491   0.546   5.220 -0.1681 -0.7476  0.1703
  711MOL0     C95906  10.523   0.671   5.282 -0.6055 -0.6021  0.2013
  711MOL0     C95907  10.654   0.696   5.329  0.7281 -0.3531  0.3587
  711MOL0     C95908  10.762   0.619   5.310  0.4449  0.3119 -0.1813
  711MOL0     O95909  10.877   0.669   5.364 -0.1765 -0.6952  0.0115
  711MOL0     C95910  10.994   0.590   5.380 -0.7695  0.0330 -0.1448
  711MOL0     C95911  11.115   0.638   5.464  0.4685 -0.5514  0.4625
  711MOL0     C95912  11.065   0.690   5.598 -0.8188  0.0359  1.0104
  711MOL0     C95913  11.191   0.751   5.675 -1.4458  0.8115  0.2493
  711MOL0     C95914  11.239   0.875   5.612 -0.2544  0.5435 -0.2133
  711MOL0     C95915  11.279   0.980   5.570  0.9245 -0.4821  0.2669
  711MOL0     C95916  10.731   0.491   5.256  0.1172 -0.6420  0.4959
  711MOL0     C95917  10.597   0.460   5.220 -0.5263 -0.1750 -0.7177
  711MOL0     H95918  10.160   0.709   4.924 -0.6884 -0.2374 -1.1762
  711MOL0     H95919   9.919   0.751   4.898  2.8129  0.3491 -0.3524
  711MOL0     H95920   9.614   0.519   5.116 -0.3229 -0.5772 -2.9163
  711MOL0     H95921   9.608   0.677   5.212 -1.1392 -0.4206 -0.6423
  711MOL0     H95922   9.491   0.640   4.935  0.5433 -0.7361  1.1136
  711MOL0     H95923   9.395   0.617   5.101  0.4181  3.1428  5.1820
  711MOL0     H95924   9.457   0.839   5.154  1.6926 -0.8213  0.1830
  711MOL0     H95925   9.535   0.862   4.999  1.4946 -0.7711  0.6308
  711MOL0     H95926   9.295   0.799   4.888  2.5209  1.0513 -1.5996
  711MOL0     H95927   9.232   0.823   5.051  1.6851  0.3778  3.2962
  711MOL0     H95928   9.363   1.064   5.016  0.4740  2.7617 -1.8093
  711MOL0     H95929   9.360   1.017   4.850 -0.0511  2.2290  0.4337
  711MOL0     H95930   9.123   1.018   5.048 -0.3769  0.4788 -0.1446
  711MOL0     H95931   9.130   1.146   4.940 -1.2099  0.3340  0.8797
  711MOL0     H95932   9.029   1.043   4.780  1.9319  0.7543  0.3437
  711MOL0     H95933   9.131   0.909   4.772 -0.3425 -0.5284  0.2527
  711MOL0     H95934   9.015   0.785   4.954  1.1342  1.7633  0.8827
  711MOL0     H95935   8.914   0.823   4.807  0.3597  0.3852 -0.4142
  711MOL0     H95936   8.781   1.104   4.857  1.9941  0.7276  0.6802
  711MOL0     H95937   8.623   1.197   5.195 -1.7079 -1.7521  0.2802
  711MOL0     H95938   8.690   1.291   5.059  1.7676 -0.4334  0.3191
  711MOL0     H95939   8.533   1.156   4.907  0.2756  0.2127  0.2936
  711MOL0     H95940   8.458   1.277   4.991  0.2353 -0.1572  0.6103
  711MOL0     H95941   8.435   0.991   5.104 -1.8412  0.7299  4.3925
  711MOL0     H95942   8.328   1.081   5.002 -0.9548  4.1690 -0.0279
  711MOL0     H95943   8.410   1.149   5.278  1.9096  0.2819 -1.7454
  711MOL0     H95944   8.251   1.091   5.234  0.7871 -1.6569 -1.2100
  711MOL0     H95945   8.187   1.316   5.407  0.1336  0.1965  0.4876
  711MOL0     H95946   7.851   1.363   5.539 -1.1341 -0.3573 -2.2579
  711MOL0     H95947   7.911   1.193   5.541 -0.2029 -0.3318 -0.1503
  711MOL0     H95948   8.027   1.322   5.573  0.5409  2.4615 -2.4539
  711MOL0     H95949   7.602   1.007   5.366  0.4497  1.4086  0.8576
  711MOL0     H95950   7.368   0.928   5.386 -1.2208  0.5889  2.1539
  711MOL0     H95951   7.044   1.264   5.351 -1.4957  0.5130 -1.3160
  711MOL0     H95952   7.073   1.184   5.195 -0.4418 -3.5221  0.8523
  711MOL0     H95953   6.958   0.984   5.303 -0.6195 -0.7860 -0.6983
  711MOL0     H95954   6.910   1.095   5.434 -4.0306 -3.6591 -0.7554
  711MOL0     H95955   6.857   1.148   5.140  0.8403  0.6051  0.1520
  711MOL0     H95956   6.822   1.263   5.265 -0.0127 -0.3966  2.2173
  711MOL0     H95957   6.678   1.011   5.199  1.0114  0.4586 -0.2761
  711MOL0     H95958   6.707   1.016   5.368 -3.5240 -0.8908 -0.6289
  711MOL0     H95959   6.581   1.232   5.183 -2.9583  3.9585  1.7237
  711MOL0     H95960   6.605   1.262   5.349  0.7333 -0.7270  0.5072
  711MOL0     H95961   6.422   1.041   5.263 -1.0966  2.1447 -1.7047
  711MOL0     H95962   6.453   1.107   5.427  1.7022  1.8243 -0.0207
  711MOL0     H95963   6.332   1.293   5.223 -3.2984  2.7536  1.6104
  711MOL0     H95964   6.303   1.288   5.392  0.9558  0.9571 -0.5263
  711MOL0     H95965   6.105   1.182   5.311 -0.3653 -1.8728 -0.2404
  711MOL0     H95966   6.204   1.050   5.340 -1.1799  0.1184  0.5729
  711MOL0     H95967   7.243   1.344   5.397 -1.6966 -1.0094  1.3507
  711MOL0     H95968   7.473   1.394   5.445  2.4882 -1.3123  1.1966
  711MOL0     H95969   7.845   1.326   5.051 -0.0387 -2.2607 -0.7827
  711MOL0     H95970   8.094   1.290   4.992 -0.8247 -0.8510  0.4095
  711MOL0     H95971   9.833   0.558   5.256 -1.5372  0.9121  0.1503
  711MOL0     H95972  10.093   0.544   5.307  2.5130 -0.0732  0.1144
  711MOL0     H95973  10.438   0.738   5.287  0.5438  0.8781  0.4525
  711MOL0     H95974  10.681   0.793   5.369  1.1862 -0.0298 -0.7093
  711MOL0     H95975  10.958   0.498   5.427 -1.5686  1.3302  1.9008
  711MOL0     H95976  11.028   0.550   5.284  1.4929 -2.4609  1.5410
  711MOL0     H95977  11.165   0.716   5.406 -0.3162 -0.0613  0.4237
  711MOL0     H95978  11.177   0.551   5.485  0.5207 -0.5636  0.2591
  711MOL0     H95979  11.035   0.602   5.656 -0.3716 -1.6689 -1.2220
  711MOL0     H95980  10.987   0.767   5.590 -0.5877  0.4555  2.4054
  711MOL0     H95981  11.280   0.688   5.685 -0.8045  1.5286 -0.7520
  711MOL0     H95982  11.167   0.761   5.782 -1.0971 -3.3983  0.8884
  711MOL0     H95983  11.315   1.074   5.533 -2.5138  0.4238 -1.1961
  711MOL0     H95984  10.819   0.430   5.242  2.1866  2.2534  0.0401
  711MOL0     H95985  10.586   0.366   5.169  0.5555 -0.6696 -0.0840
  712MOL0     O95986   1.267   7.334   2.742 -0.4630  0.2362 -0.7173
  712MOL0     C95987   1.263   7.434   2.810 -0.5505 -0.1137  0.3273
  712MOL0     O95988   1.148   7.479   2.869 -0.4267  0.1094  0.5864
  712MOL0     C95989   1.029   7.401   2.882 -0.5312 -0.4156  0.2940
  712MOL0     C95990   1.010   7.262   2.872 -0.1690  0.3158 -0.1247
  712MOL0     C95991   0.883   7.199   2.875  0.3382  0.5802 -0.4022
  712MOL0     C95992   0.775   7.282   2.896  0.5911  0.6034 -0.2485
  712MOL0     O95993   0.650   7.233   2.926 -0.3112 -0.3208  0.6351
  712MOL0     C95994   0.621   7.091   2.927 -0.2728  0.7172 -0.5310
  712MOL0     C95995   0.472   7.066   2.944 -0.0380  0.7857  0.1577
  712MOL0     C95996   0.418   7.122   3.072 -0.4593  0.8293 -1.2152
  712MOL0     C95997   0.296   7.044   3.105  0.1288 -0.6751  0.2534
  712MOL0     C95998   0.217   7.121   3.210 -0.3254  0.7773 -0.8810
  712MOL0     C95999   0.085   7.041   3.250 -0.6485 -0.1342  0.4742
  712MOL0     C96000   0.005   7.117   3.358  1.4035 -0.0827  0.1144
  712MOL0     C96001   0.034   7.073   3.498 -0.1203 -0.5819 -0.8343
  712MOL0     N96002  -0.064   6.979   3.550 -0.2919 -0.8700 -1.0701
  712MOL0     C96003  -0.065   6.855   3.508 -0.0614  0.5233  0.7638
  712MOL0     C96004  -0.159   6.798   3.589  1.6244  0.1292  0.9161
  712MOL0     C96005  -0.210   6.660   3.540  0.2635 -0.3657 -0.0106
  712MOL0     C96006  -0.349   6.619   3.594  0.3772  0.4582  0.4691
  712MOL0     C96007  -0.457   6.708   3.521  0.5092  0.4267 -0.0362
  712MOL0     C96008  -0.573   6.723   3.613  0.3775  0.5076  0.1878
  712MOL0     O96009  -0.668   6.804   3.533  0.5595 -0.9120  0.3255
  712MOL0     C96010  -0.785   6.750   3.481 -1.1022  0.2675 -0.1426
  712MOL0     C96011  -0.796   6.636   3.392 -0.1522  0.4504 -0.5301
  712MOL0     C96012  -0.923   6.588   3.349  0.2432 -0.1084  0.6543
  712MOL0     C96013  -0.916   6.477   3.252 -0.7066 -0.1306  0.3412
  712MOL0     C96014  -1.042   6.665   3.374  0.6054  0.1700 -0.0779
  712MOL0     C96015  -1.180   6.634   3.312 -0.8784  0.6364  0.1057
  712MOL0     O96016  -1.211   6.510   3.259 -0.0817  0.3985  0.1931
  712MOL0     C96017  -1.341   6.480   3.226  0.5590 -0.2848 -0.5820
  712MOL0     C96018  -1.384   6.467   3.088 -0.2139 -0.6444  0.3962
  712MOL0     C96019  -1.519   6.455   3.051  1.0451  0.7512 -0.2627
  712MOL0     C96020  -1.619   6.455   3.143 -0.6934  0.5688 -0.6398
  712MOL0     O96021  -1.753   6.458   3.107 -0.2093  0.1505 -0.5248
  712MOL0     C96022  -1.853   6.501   3.205 -0.4188 -0.0846  0.6195
  712MOL0     C96023  -1.985   6.510   3.125 -1.2234 -0.9509 -1.0532
  712MOL0     C96024  -1.985   6.641   3.039 -0.5401  0.1137  0.5964
  712MOL0     C96025  -2.126   6.649   2.982 -0.0123 -0.7461  0.0520
  712MOL0     C96026  -2.145   6.776   2.888 -1.0004  0.3708 -0.9275
  712MOL0     C96027  -2.283   6.810   2.841 -0.5694  0.3250  0.5315
  712MOL0     C96028  -2.357   6.692   2.775 -0.1517 -0.3501  0.3557
  712MOL0     C96029  -2.455   6.748   2.663 -0.1091 -0.2914 -0.7254
  712MOL0    Cl96030  -2.369   6.798   2.516 -0.0395  0.1306  0.2178
  712MOL0     C96031  -1.580   6.461   3.276 -0.1111  0.3636 -0.1536
  712MOL0     C96032  -1.447   6.477   3.323 -0.1604 -0.4258  0.4569
  712MOL0     O96033  -1.255   6.729   3.310 -0.0146  0.5144  0.0482
  712MOL0     C96034  -1.031   6.784   3.451  0.3574  0.1873 -0.5407
  712MOL0     C96035  -0.900   6.825   3.500  1.0871  0.6335 -0.1760
  712MOL0     N96036  -0.213   6.895   3.674 -0.2192 -0.2377  0.2276
  712MOL0     N96037  -0.141   7.003   3.662  0.9018 -0.6801 -0.0122
  712MOL0     C96038   0.797   7.414   2.926  0.8899 -0.2849 -0.2937
  712MOL0     C96039   0.922   7.476   2.924  0.7687 -0.1724 -0.2152
  712MOL0     C96040   1.398   7.504   2.816  0.6336 -0.2658  0.1673
  712MOL0     C96041   1.393   7.630   2.872  0.0570  0.3107  0.4434
  712MOL0     C96042   1.507   7.707   2.873  0.3014 -0.3065 -1.0986
  712MOL0     C96043   1.628   7.658   2.838 -0.5531 -0.3053  0.2621
  712MOL0     O96044   1.747   7.722   2.852 -0.2446  0.4888  0.6462
  712MOL0     C96045   1.760   7.832   2.935 -0.4933 -0.3794 -0.6867
  712MOL0     C96046   1.907   7.877   2.931  0.1537  0.1702  0.2529
  712MOL0     C96047   1.942   8.005   3.008 -0.1883  0.1599 -0.4012
  712MOL0     C96048   2.096   8.023   3.041  0.4787 -0.0855 -0.1097
  712MOL0     C96049   2.132   7.946   3.165 -0.4366  0.1655  0.6154
  712MOL0     C96050   2.152   7.892   3.278  1.0114  0.4333  0.0837
  712MOL0     C96051   1.633   7.537   2.776 -0.2146  0.3464 -0.4304
  712MOL0     C96052   1.519   7.468   2.751  0.6025  0.2062 -0.0251
  712MOL0     H96053   1.100   7.202   2.857  1.1364  1.8092  1.2787
  712MOL0     H96054   0.866   7.093   2.858 -0.7449  0.9238 -1.5055
  712MOL0     H96055   0.650   7.032   2.839  0.7883 -0.9718  0.9100
  712MOL0     H96056   0.667   7.041   3.012 -2.3810 -3.1407 -1.3848
  712MOL0     H96057   0.412   7.117   2.868 -0.2369  0.0995 -0.1528
  712MOL0     H96058   0.444   6.962   2.925 -3.0784  1.5552 -0.2014
  712MOL0     H96059   0.502   7.110   3.142 -2.1194 -2.2887  0.4828
  712MOL0     H96060   0.386   7.226   3.064 -3.6018 -0.0573 -1.4768
  712MOL0     H96061   0.224   7.031   3.023 -0.3373 -3.9995  1.0588
  712MOL0     H96062   0.324   6.945   3.141 -0.8716 -0.9508  0.3193
  712MOL0     H96063   0.273   7.131   3.303 -1.7796  0.0576  0.1103
  712MOL0     H96064   0.192   7.222   3.174  2.8490  1.7865 -0.5912
  712MOL0     H96065   0.024   7.035   3.159 -1.5138 -1.3317  1.1058
  712MOL0     H96066   0.094   6.937   3.284 -1.5060 -1.0915 -1.9496
  712MOL0     H96067   0.012   7.226   3.359 -0.8950  0.1253  1.6048
  712MOL0     H96068  -0.101   7.091   3.343  1.9248 -2.7594  0.6598
  712MOL0     H96069   0.045   7.161   3.561  2.5992 -1.3444 -0.1079
  712MOL0     H96070   0.137   7.037   3.487 -0.4342 -1.8536  0.1675
  712MOL0     H96071  -0.022   6.813   3.418 -3.4420  0.9568 -1.2187
  712MOL0     H96072  -0.232   6.668   3.433 -0.5859  3.0944  0.3246
  712MOL0     H96073  -0.131   6.590   3.571 -0.5190 -1.0957  0.3543
  712MOL0     H96074  -0.361   6.610   3.702  0.4259 -1.4947  0.3556
  712MOL0     H96075  -0.357   6.512   3.572 -0.6899  0.0041  2.8384
  712MOL0     H96076  -0.498   6.670   3.427 -2.7614  2.7300  0.2841
  712MOL0     H96077  -0.422   6.812   3.511 -2.3912  1.3472 -1.7801
  712MOL0     H96078  -0.538   6.784   3.697  1.6036 -0.3372  0.3010
  712MOL0     H96079  -0.623   6.631   3.644 -2.2976  1.1586 -1.7694
  712MOL0     H96080  -0.716   6.577   3.348  0.9014  1.7187 -0.3828
  712MOL0     H96081  -0.933   6.519   3.153  0.2488 -0.1839  0.1468
  712MOL0     H96082  -0.817   6.430   3.254  1.3154  3.7065 -0.4932
  712MOL0     H96083  -0.991   6.399   3.272 -0.4765 -1.7028 -3.8225
  712MOL0     H96084  -1.314   6.476   3.006 -0.2554 -0.6033  0.3654
  712MOL0     H96085  -1.558   6.462   2.950 -1.5568  2.9821  0.7629
  712MOL0     H96086  -1.866   6.427   3.285 -2.5382  0.2183  0.6107
  712MOL0     H96087  -1.829   6.602   3.240 -0.9383  0.9756 -1.9005
  712MOL0     H96088  -2.014   6.414   3.080 -3.2114 -1.5683  1.3243
  712MOL0     H96089  -2.063   6.517   3.202  0.6696 -0.6060  0.9230
  712MOL0     H96090  -1.909   6.636   2.961  1.2233  1.9924  2.0774
  712MOL0     H96091  -1.962   6.737   3.087 -0.2315 -0.2957  1.2936
  712MOL0     H96092  -2.138   6.567   2.911  2.5850 -1.0242 -0.1624
  712MOL0     H96093  -2.200   6.647   3.062  1.8225  2.5307  2.0854
  712MOL0     H96094  -2.076   6.759   2.804  0.8223  0.4588  0.4772
  712MOL0     H96095  -2.104   6.865   2.938  2.0647 -0.8437 -1.0591
  712MOL0     H96096  -2.343   6.840   2.927  0.2313 -0.5793  1.4334
  712MOL0     H96097  -2.275   6.894   2.771  2.6726  0.8737  1.3946
  712MOL0     H96098  -2.410   6.638   2.854  2.5407 -1.2776  1.6102
  712MOL0     H96099  -2.293   6.627   2.715 -2.7808 -0.6425 -2.3823
  712MOL0     H96100  -2.513   6.832   2.702 -1.8905 -2.0870  0.7519
  712MOL0     H96101  -2.533   6.673   2.649 -0.5079  0.2905 -1.6362
  712MOL0     H96102  -1.660   6.482   3.345  1.2148  0.4538  1.4222
  712MOL0     H96103  -1.429   6.492   3.429 -0.4209 -0.1808  0.4684
  712MOL0     H96104  -1.118   6.846   3.470  1.5160  1.6805  0.0679
  712MOL0     H96105  -0.911   6.913   3.563 -3.4834  0.3141 -0.1882
  712MOL0     H96106   0.713   7.481   2.945  0.9003 -0.3677  0.0437
  712MOL0     H96107   0.925   7.582   2.947 -1.3093 -0.6967  3.2138
  712MOL0     H96108   1.307   7.685   2.910 -0.5030 -0.2213 -0.0230
  712MOL0     H96109   1.501   7.806   2.917  3.8694 -0.3558 -0.2207
  712MOL0     H96110   1.696   7.912   2.897 -2.2493 -1.0406  0.7526
  712MOL0     H96111   1.721   7.799   3.032 -3.6295 -1.7172 -2.2564
  712MOL0     H96112   1.950   7.895   2.832 -0.0854 -1.3705 -0.1507
  712MOL0     H96113   1.954   7.794   2.985 -2.5320  0.4015  3.2216
  712MOL0     H96114   1.886   8.025   3.099  1.7221 -0.7665  1.0412
  712MOL0     H96115   1.918   8.089   2.942  0.2172 -1.3061 -2.5058
  712MOL0     H96116   2.110   8.129   3.061 -2.5387  0.5356 -0.9269
  712MOL0     H96117   2.151   8.001   2.949 -1.7705  2.6039 -2.2655
  712MOL0     H96118   2.173   7.858   3.377  1.0458 -3.1347 -0.9980
  712MOL0     H96119   1.725   7.484   2.755 -0.3864 -0.3018  0.3912
  712MOL0     H96120   1.521   7.366   2.714  0.0338  0.9610 -2.3086
  713MOL0     O96121   9.084   1.827  11.240 -0.2179  0.8152  0.0470
  713MOL0     C96122   9.092   1.931  11.185 -0.4141 -0.7076  0.8357
  713MOL0     O96123   9.001   2.038  11.193  0.3210  0.1648 -0.3106
  713MOL0     C96124   8.885   2.025  11.277  0.5272 -0.3230  0.2078
  713MOL0     C96125   8.887   2.005  11.415  0.4456 -0.6923  0.1001
  713MOL0     C96126   8.773   1.969  11.487 -0.3274  0.0814 -0.2983
  713MOL0     C96127   8.646   1.953  11.424 -0.2548 -0.5039  0.2801
  713MOL0     O96128   8.539   1.913  11.506  0.0288 -0.6120  0.1789
  713MOL0     C96129   8.413   1.970  11.477  0.3461 -0.6356  0.2128
  713MOL0     C96130   8.325   1.940  11.603 -0.9009 -0.3115 -0.4776
  713MOL0     C96131   8.321   1.791  11.652  0.0215  1.2143 -1.0186
  713MOL0     C96132   8.287   1.777  11.806  0.3032  0.0577 -0.1892
  713MOL0     C96133   8.265   1.630  11.850  0.6091  0.3701  0.0468
  713MOL0     C96134   8.277   1.633  12.001 -0.0958  0.5142  0.0878
  713MOL0     C96135   8.227   1.506  12.070  0.5505  0.0026  0.8143
  713MOL0     C96136   8.287   1.492  12.215  0.7095 -0.0302 -0.1001
  713MOL0     N96137   8.425   1.449  12.204 -0.2919 -0.0650 -0.3840
  713MOL0     C96138   8.544   1.528  12.206  0.8030  0.9720 -0.8987
  713MOL0     C96139   8.638   1.445  12.202  0.2013  0.3790 -1.2695
  713MOL0     C96140   8.775   1.490  12.208 -0.2869 -0.4133  0.1473
  713MOL0     C96141   8.858   1.429  12.323 -0.5929 -0.5404 -1.2907
  713MOL0     C96142   8.824   1.472  12.469 -0.1475  0.0141  0.0616
  713MOL0     C96143   8.700   1.400  12.536 -0.1930 -0.4524 -0.9199
  713MOL0     O96144   8.740   1.271  12.572  0.0720 -0.3070  0.1222
  713MOL0     C96145   8.637   1.183  12.565  0.5880  0.2491 -0.3535
  713MOL0     C96146   8.543   1.189  12.666 -0.0055  0.3172  0.3379
  713MOL0     C96147   8.419   1.119  12.657  1.4255  0.0178 -0.3122
  713MOL0     C96148   8.337   1.134  12.788 -0.8980 -0.2138  0.1891
  713MOL0     C96149   8.382   1.046  12.537  0.0421 -0.5854 -0.6645
  713MOL0     C96150   8.248   0.978  12.528 -0.3617 -0.2379 -0.1964
  713MOL0     O96151   8.217   0.933  12.397 -0.3568  0.4718 -0.2941
  713MOL0     C96152   8.102   0.873  12.362 -0.7942  0.7354 -1.1451
  713MOL0     C96153   7.985   0.905  12.427 -0.2653  0.2274  0.0209
  713MOL0     C96154   7.867   0.832  12.395 -0.4179 -0.0443 -0.2523
  713MOL0     C96155   7.862   0.741  12.290 -0.3945 -0.6148  0.5183
  713MOL0     O96156   7.748   0.676  12.237  0.4790 -0.2353  0.3527
  713MOL0     C96157   7.629   0.740  12.269 -0.0796 -0.4827  0.9765
  713MOL0     C96158   7.511   0.684  12.182  0.9558  0.7083  0.3907
  713MOL0     C96159   7.374   0.741  12.235 -0.4502 -0.0673  0.0754
  713MOL0     C96160   7.313   0.637  12.331  0.8484  0.2523  0.0890
  713MOL0     C96161   7.158   0.664  12.354 -0.2295  0.7187 -0.6681
  713MOL0     C96162   7.066   0.541  12.377  0.5642  0.6923 -0.1550
  713MOL0     C96163   6.918   0.572  12.412 -0.7214  0.6616 -0.5457
  713MOL0     C96164   6.830   0.459  12.377 -0.1126 -0.0884  0.7452
  713MOL0    Cl96165   6.684   0.510  12.466 -0.2802  0.3195  0.3490
  713MOL0     C96166   7.984   0.710  12.219  0.2372  0.6982 -1.1982
  713MOL0     C96167   8.101   0.775  12.257  0.9850 -0.0884  0.2606
  713MOL0     O96168   8.172   0.978  12.629 -0.0306  0.3524  0.4377
  713MOL0     C96169   8.473   1.032  12.439 -1.2781 -0.1580  0.8330
  713MOL0     C96170   8.594   1.104  12.454 -0.2193 -0.5858 -0.0567
  713MOL0     N96171   8.598   1.316  12.190 -0.2574 -0.0710  0.0606
  713MOL0     N96172   8.462   1.320  12.184 -0.2667 -0.0490 -0.1891
  713MOL0     C96173   8.640   1.972  11.284  0.0594  0.0368 -0.0246
  713MOL0     C96174   8.755   2.014  11.215  1.2219 -0.3651  0.0357
  713MOL0     C96175   9.221   1.954  11.118 -0.7798 -0.1899 -0.1182
  713MOL0     C96176   9.262   1.870  11.004  0.1819 -0.6188 -0.7528
  713MOL0     C96177   9.375   1.916  10.931  0.5258  0.0427 -0.8169
  713MOL0     C96178   9.441   2.030  10.965 -0.4422  0.1177  0.5950
  713MOL0     O96179   9.548   2.058  10.879  0.6589 -0.1289 -0.4629
  713MOL0     C96180   9.661   2.142  10.926 -0.3805  0.4817  0.1789
  713MOL0     C96181   9.795   2.073  10.908 -0.6972 -0.6179 -0.2621
  713MOL0     C96182   9.808   2.035  10.767 -0.5599  0.3027  0.3473
  713MOL0     C96183   9.938   1.952  10.745  1.4411 -0.2687 -0.8150
  713MOL0     C96184   9.979   1.937  10.614 -0.0903  0.2950 -0.0214
  713MOL0     C96185   9.996   1.938  10.491  0.9709  0.2471 -0.2055
  713MOL0     C96186   9.398   2.114  11.075 -0.2247  0.6873 -0.1738
  713MOL0     C96187   9.283   2.074  11.148  0.1908 -0.7783 -0.1033
  713MOL0     H96188   8.985   2.004  11.463  0.8486  0.3719 -0.6520
  713MOL0     H96189   8.778   1.938  11.591 -3.3105  3.8695  1.2483
  713MOL0     H96190   8.417   2.079  11.469 -0.1134 -0.5946  0.5240
  713MOL0     H96191   8.374   1.930  11.383  0.1293 -2.4512  1.0446
  713MOL0     H96192   8.372   1.997  11.683 -1.6667 -0.0304 -0.2179
  713MOL0     H96193   8.218   1.965  11.595 -0.6436  1.1596  0.3148
  713MOL0     H96194   8.244   1.732  11.600 -0.1361  0.3587  0.1456
  713MOL0     H96195   8.416   1.738  11.645 -0.7139 -0.3677  0.3298
  713MOL0     H96196   8.373   1.814  11.863 -0.0574 -0.4417  0.6984
  713MOL0     H96197   8.196   1.833  11.829 -1.4856 -0.3422 -5.0521
  713MOL0     H96198   8.171   1.580  11.824 -0.3163  2.3569 -0.6052
  713MOL0     H96199   8.342   1.569  11.802  1.5489  3.4594 -2.7814
  713MOL0     H96200   8.382   1.641  12.028 -0.3828 -0.5685  1.6948
  713MOL0     H96201   8.234   1.725  12.043  0.6210 -1.1171  5.0139
  713MOL0     H96202   8.118   1.518  12.068  0.7152  1.6049 -0.8014
  713MOL0     H96203   8.238   1.413  12.014 -0.4768  0.0535  0.5097
  713MOL0     H96204   8.223   1.411  12.252 -1.1613  1.1201 -0.6912
  713MOL0     H96205   8.273   1.581  12.277 -0.3300 -2.2624  3.1246
  713MOL0     H96206   8.565   1.634  12.223  2.8053  0.3966  0.5546
  713MOL0     H96207   8.828   1.462  12.117 -1.7012 -3.0237  0.0272
  713MOL0     H96208   8.785   1.599  12.218  1.0959 -0.2509 -2.2595
  713MOL0     H96209   8.963   1.454  12.301  0.7007 -4.7184 -0.8148
  713MOL0     H96210   8.852   1.320  12.315 -1.7318 -0.6238  0.2347
  713MOL0     H96211   8.795   1.578  12.470 -0.4075 -0.0352 -1.2682
  713MOL0     H96212   8.910   1.456  12.536  0.9000 -1.1352 -1.4786
  713MOL0     H96213   8.615   1.411  12.468 -1.8504  1.0047  1.2484
  713MOL0     H96214   8.674   1.454  12.628 -0.0100  2.4346 -2.4644
  713MOL0     H96215   8.568   1.237  12.760 -1.3820 -0.5294  1.1828
  713MOL0     H96216   8.304   1.034  12.820  3.4341 -1.6299  0.9233
  713MOL0     H96217   8.396   1.182  12.866  1.2100  2.1627 -2.6463
  713MOL0     H96218   8.248   1.195  12.771 -1.3943  0.3962  4.0322
  713MOL0     H96219   7.980   0.986  12.500 -2.2908 -0.0651  0.2832
  713MOL0     H96220   7.776   0.855  12.448 -1.4780 -2.8119 -0.7124
  713MOL0     H96221   7.605   0.719  12.374  0.3087  0.6947  1.3234
  713MOL0     H96222   7.645   0.844  12.238  1.3526 -0.3794  1.9556
  713MOL0     H96223   7.524   0.702  12.074 -0.6693  1.3788  0.2806
  713MOL0     H96224   7.511   0.575  12.190 -2.3278  0.4983 -0.9475
  713MOL0     H96225   7.315   0.769  12.147  1.0987  3.0001 -0.1110
  713MOL0     H96226   7.393   0.835  12.287 -1.5269 -0.7766  1.8154
  713MOL0     H96227   7.319   0.536  12.291  2.2269 -0.4652  1.9546
  713MOL0     H96228   7.372   0.632  12.424  2.3427 -0.5967 -0.8698
  713MOL0     H96229   7.126   0.711  12.260 -1.9315  1.5566  0.2911
  713MOL0     H96230   7.145   0.727  12.442  1.7043 -0.9225  0.8792
  713MOL0     H96231   7.075   0.484  12.285  0.4306  0.6527 -0.1427
  713MOL0     H96232   7.117   0.486  12.457 -0.1227  0.3697  0.0678
  713MOL0     H96233   6.880   0.652  12.346  0.1788 -0.7160 -2.8465
  713MOL0     H96234   6.919   0.595  12.519  1.2152 -1.7049  0.0080
  713MOL0     H96235   6.876   0.367  12.413  0.8848 -0.5088 -1.4323
  713MOL0     H96236   6.827   0.462  12.267  1.5975  1.4897  0.6757
  713MOL0     H96237   7.999   0.629  12.148  3.0676 -0.6286  0.7389
  713MOL0     H96238   8.192   0.757  12.202  0.9557 -2.8941  0.9510
  713MOL0     H96239   8.452   0.971  12.351  1.0593  1.3736 -0.9112
  713MOL0     H96240   8.666   1.106  12.373 -0.1931 -1.0140 -0.0498
  713MOL0     H96241   8.545   1.961  11.233 -1.3813  0.8925  2.3262
  713MOL0     H96242   8.748   2.015  11.106 -0.0766 -1.2368  0.0827
  713MOL0     H96243   9.201   1.786  10.974 -0.7440  0.2838 -1.4447
  713MOL0     H96244   9.413   1.860  10.847  0.2892 -1.2548 -0.0786
  713MOL0     H96245   9.669   2.232  10.865  1.8380  0.6764  0.6778
  713MOL0     H96246   9.654   2.169  11.031 -1.2635  1.0885 -0.0220
  713MOL0     H96247   9.806   1.982  10.968  1.6583  0.3806  0.9863
  713MOL0     H96248   9.871   2.151  10.922 -3.2620  1.9382  0.1967
  713MOL0     H96249   9.816   2.129  10.711 -1.4738 -1.2688 -2.5947
  713MOL0     H96250   9.726   1.973  10.731  0.5443  0.1229 -2.0300
  713MOL0     H96251   9.928   1.851  10.786  1.5944  0.7707  2.0196
  713MOL0     H96252  10.009   1.999  10.814 -0.9384  0.7730  1.0750
  713MOL0     H96253   9.994   1.912  10.387  1.7806 -0.0895 -0.1491
  713MOL0     H96254   9.444   2.211  11.090 -0.5207  0.8095 -0.0490
  713MOL0     H96255   9.252   2.138  11.230  2.2023  0.0970  0.0366
  714MOL0     O96256  10.398   7.850   4.053 -0.6877 -0.1381 -0.0234
  714MOL0     C96257  10.461   7.741   4.038  0.1819  0.1053  0.6100
  714MOL0     O96258  10.408   7.630   3.971 -0.9888 -0.3895 -0.5247
  714MOL0     C96259  10.270   7.619   3.945 -0.0031  0.6367  0.1589
  714MOL0     C96260  10.227   7.578   3.817  0.2066 -1.3979  0.4968
  714MOL0     C96261  10.092   7.537   3.803  0.4162  0.3896 -0.7014
  714MOL0     C96262   9.999   7.539   3.915 -0.0382  0.5449 -0.1868
  714MOL0     O96263   9.865   7.527   3.903 -0.0980 -0.3393  0.8680
  714MOL0     C96264   9.808   7.516   3.767  0.9443  0.0753 -0.6059
  714MOL0     C96265   9.657   7.496   3.795 -0.6651 -0.5434 -0.9177
  714MOL0     C96266   9.579   7.479   3.665  0.1410  0.1584  0.0957
  714MOL0     C96267   9.436   7.430   3.703 -0.3756 -0.0152  0.5737
  714MOL0     C96268   9.328   7.455   3.602  0.5203  0.3025 -0.9360
  714MOL0     C96269   9.191   7.395   3.645 -0.2726 -0.7957 -0.0871
  714MOL0     C96270   9.089   7.477   3.564  1.1458  0.0575 -0.0836
  714MOL0     C96271   8.956   7.409   3.565 -0.3295 -0.7920 -0.3482
  714MOL0     N96272   8.894   7.415   3.702 -0.0190  0.2410  0.2073
  714MOL0     C96273   8.804   7.515   3.727  0.4262 -0.0244  1.0691
  714MOL0     C96274   8.750   7.490   3.841  0.2430  0.4334 -0.3192
  714MOL0     C96275   8.649   7.578   3.916 -0.5770  0.1880 -0.1319
  714MOL0     C96276   8.538   7.638   3.821  0.0950 -0.1363  0.4455
  714MOL0     C96277   8.483   7.768   3.893 -0.6513 -0.9028 -0.5927
  714MOL0     C96278   8.391   7.842   3.796 -0.5149 -0.4672 -0.7916
  714MOL0     O96279   8.330   7.966   3.845  0.5863 -0.8197  0.0379
  714MOL0     C96280   8.398   8.078   3.826  0.2461 -0.6224  0.0315
  714MOL0     C96281   8.533   8.089   3.787  0.0661 -0.2810  0.1901
  714MOL0     C96282   8.592   8.215   3.776  0.1385 -0.0416 -0.1616
  714MOL0     C96283   8.733   8.213   3.734  0.7987  1.1219 -0.1715
  714MOL0     C96284   8.517   8.333   3.794  0.9534 -0.5098 -1.1454
  714MOL0     C96285   8.569   8.471   3.800 -0.2841 -0.0879 -0.1497
  714MOL0     O96286   8.473   8.563   3.830 -0.3198  0.2241  0.2522
  714MOL0     C96287   8.511   8.688   3.882  0.4063  0.3628 -0.4158
  714MOL0     C96288   8.627   8.709   3.955  0.1156 -0.8603 -0.1412
  714MOL0     C96289   8.651   8.844   4.008 -0.7003  0.7194 -0.0250
  714MOL0     C96290   8.558   8.946   3.994  0.9219 -0.4896 -0.0033
  714MOL0     O96291   8.586   9.070   4.044  0.1143 -0.1747  0.5682
  714MOL0     C96292   8.559   9.079   4.181  0.2486 -0.0357 -0.0404
  714MOL0     C96293   8.619   9.207   4.233  0.0845 -0.0579 -0.0561
  714MOL0     C96294   8.512   9.313   4.231  0.1347 -0.5015  0.2305
  714MOL0     C96295   8.570   9.450   4.266 -0.9719 -0.0907  0.5869
  714MOL0     C96296   8.615   9.525   4.137  0.6777 -0.0188  0.4438
  714MOL0     C96297   8.662   9.659   4.180 -0.0003  1.1155  0.2531
  714MOL0     C96298   8.777   9.651   4.280 -0.4279  0.6473  0.0494
  714MOL0     C96299   8.862   9.787   4.291 -0.0209  0.9065  0.2159
  714MOL0    Cl96300   9.012   9.747   4.382  0.0389  0.3723 -0.8202
  714MOL0     C96301   8.436   8.918   3.932  0.2524  0.7955  1.0323
  714MOL0     C96302   8.416   8.792   3.874 -0.0535  0.1824  0.8566
  714MOL0     O96303   8.672   8.503   3.750  0.2413 -0.4914 -0.2445
  714MOL0     C96304   8.386   8.314   3.821  0.2331 -1.0379 -0.2404
  714MOL0     C96305   8.326   8.195   3.834 -0.5497 -0.4180 -0.3007
  714MOL0     N96306   8.806   7.374   3.885 -0.7722  0.7455 -0.0847
  714MOL0     N96307   8.890   7.324   3.804  0.1749 -0.8556 -0.3153
  714MOL0     C96308  10.045   7.581   4.043  0.1497 -0.2309 -0.1584
  714MOL0     C96309  10.172   7.615   4.054 -0.5622 -0.0875  0.6093
  714MOL0     C96310  10.598   7.721   4.090 -0.2186 -0.3584  0.0590
  714MOL0     C96311  10.676   7.616   4.051 -0.4781 -0.4880 -0.2551
  714MOL0     C96312  10.803   7.598   4.110 -0.0226 -0.4594 -0.6667
  714MOL0     C96313  10.856   7.700   4.192  0.3842  0.0740  0.6032
  714MOL0     O96314  10.976   7.661   4.254  1.0078 -0.4923  0.7425
  714MOL0     C96315  11.070   7.765   4.287 -0.4926  0.1707 -0.2648
  714MOL0     C96316  11.209   7.713   4.327  0.2969 -0.2317  0.7408
  714MOL0     C96317  11.214   7.633   4.464 -0.1384  0.7304  0.9170
  714MOL0     C96318  11.355   7.572   4.484  0.2296  0.0588  0.8631
  714MOL0     C96319  11.421   7.657   4.581  0.2462 -0.5310  0.7814
  714MOL0     C96320  11.474   7.710   4.675  0.8688 -0.3385  0.5118
  714MOL0     C96321  10.779   7.812   4.224 -0.7555 -0.1207 -0.3497
  714MOL0     C96322  10.652   7.815   4.172  0.8008  0.1185  0.5795
  714MOL0     H96323  10.288   7.581   3.728 -3.6093  1.1586 -2.3210
  714MOL0     H96324  10.071   7.509   3.701 -4.4307 -0.9097  0.3841
  714MOL0     H96325   9.818   7.605   3.705  0.0442  0.5868 -0.0361
  714MOL0     H96326   9.855   7.442   3.701  0.5737 -0.9733  0.2712
  714MOL0     H96327   9.637   7.413   3.863 -0.4749 -0.8092 -1.1841
  714MOL0     H96328   9.626   7.592   3.838 -1.2794 -1.7988  1.6703
  714MOL0     H96329   9.573   7.575   3.612 -1.5866 -0.5700 -1.1411
  714MOL0     H96330   9.627   7.394   3.616 -1.5493 -1.9449  1.8979
  714MOL0     H96331   9.437   7.324   3.732  3.1903  0.0888  1.2383
  714MOL0     H96332   9.412   7.488   3.793  1.6283  0.9838  0.5147
  714MOL0     H96333   9.315   7.563   3.593 -3.5060 -0.0244 -0.6530
  714MOL0     H96334   9.358   7.409   3.507 -2.2710 -1.8462 -0.9023
  714MOL0     H96335   9.196   7.289   3.619  2.1169 -0.7097 -0.1942
  714MOL0     H96336   9.170   7.395   3.752  1.5943  2.6933  0.4419
  714MOL0     H96337   9.076   7.574   3.613 -0.4228 -0.9319  1.5664
  714MOL0     H96338   9.110   7.507   3.461 -0.6816 -1.2508 -0.8895
  714MOL0     H96339   8.971   7.304   3.539  1.6334 -0.8493  0.8722
  714MOL0     H96340   8.886   7.449   3.490  0.1287  1.1330  0.1851
  714MOL0     H96341   8.776   7.596   3.661  0.6167  0.3928  1.4938
  714MOL0     H96342   8.599   7.528   4.000  0.9669 -0.6220  0.3531
  714MOL0     H96343   8.701   7.658   3.969 -1.7544  0.1321  1.1600
  714MOL0     H96344   8.467   7.557   3.800 -0.7615  1.2285 -2.4227
  714MOL0     H96345   8.586   7.668   3.728 -0.5879  1.9132  0.7039
  714MOL0     H96346   8.568   7.822   3.932 -1.0303 -0.7548  0.0324
  714MOL0     H96347   8.431   7.739   3.985 -2.3818  0.7700 -0.9785
  714MOL0     H96348   8.311   7.771   3.773 -1.2030  0.5395 -1.5589
  714MOL0     H96349   8.453   7.866   3.709  1.1619 -2.1528 -0.1190
  714MOL0     H96350   8.600   8.003   3.778  2.0279  1.1935 -0.0566
  714MOL0     H96351   8.723   8.251   3.632 -1.2591  1.0043 -0.0575
  714MOL0     H96352   8.793   8.278   3.798  1.8092 -2.6266  3.0899
  714MOL0     H96353   8.774   8.113   3.720  1.0796  1.2710 -0.4117
  714MOL0     H96354   8.703   8.631   3.964  3.6535  2.2838 -0.1138
  714MOL0     H96355   8.743   8.856   4.064  1.9245 -0.6847 -3.6653
  714MOL0     H96356   8.452   9.069   4.201 -0.3874  1.8098 -2.0924
  714MOL0     H96357   8.600   8.999   4.243 -1.0780  0.9610  2.2527
  714MOL0     H96358   8.661   9.204   4.334 -2.3640  2.2226  1.1714
  714MOL0     H96359   8.694   9.244   4.163 -1.3319  1.9173 -0.6429
  714MOL0     H96360   8.429   9.287   4.296  0.1404 -2.2756 -0.4032
  714MOL0     H96361   8.472   9.321   4.129  0.0132  1.1604  0.3781
  714MOL0     H96362   8.484   9.496   4.315  0.1101 -0.0061  2.5110
  714MOL0     H96363   8.651   9.436   4.338 -2.4825  2.2458  2.9196
  714MOL0     H96364   8.529   9.540   4.070  0.5887 -1.8989  0.0831
  714MOL0     H96365   8.692   9.473   4.080 -0.2749 -3.0628  1.7510
  714MOL0     H96366   8.698   9.712   4.092 -0.7226 -0.3684 -0.9845
  714MOL0     H96367   8.571   9.712   4.212  0.8242  1.5600  1.9658
  714MOL0     H96368   8.845   9.567   4.267  1.1710  1.6735  1.4475
  714MOL0     H96369   8.731   9.648   4.379 -2.2491  0.1861 -0.7696
  714MOL0     H96370   8.803   9.863   4.344  1.2975  2.2334 -0.1777
  714MOL0     H96371   8.888   9.817   4.190  2.4152  3.0132  1.3551
  714MOL0     H96372   8.367   9.001   3.924  1.7627  2.0201  0.3335
  714MOL0     H96373   8.324   8.767   3.822  0.1552 -1.6174  1.3044
  714MOL0     H96374   8.321   8.399   3.841 -1.8429 -3.0213  2.0252
  714MOL0     H96375   8.222   8.186   3.865 -0.0025  0.6631  2.0969
  714MOL0     H96376   9.973   7.570   4.124 -0.7850 -3.2199 -1.2568
  714MOL0     H96377  10.213   7.635   4.152 -3.4230 -2.2091  2.3945
  714MOL0     H96378  10.653   7.545   3.973  1.3682  0.1155 -1.4190
  714MOL0     H96379  10.864   7.519   4.066  1.3046 -0.8823  1.7548
  714MOL0     H96380  11.078   7.844   4.213 -0.8679  0.2682 -0.2042
  714MOL0     H96381  11.034   7.812   4.379 -1.0171 -0.4425 -0.1417
  714MOL0     H96382  11.285   7.789   4.345 -0.3803  0.0091  2.9447
  714MOL0     H96383  11.233   7.644   4.246 -0.1915 -1.7530  1.8305
  714MOL0     H96384  11.148   7.547   4.453 -2.2083  2.0612  2.1724
  714MOL0     H96385  11.173   7.693   4.547  0.3157  2.9436 -0.3832
  714MOL0     H96386  11.410   7.569   4.389  2.4700 -2.0654  2.1201
  714MOL0     H96387  11.356   7.466   4.511 -2.1675 -0.2856 -0.2072
  714MOL0     H96388  11.497   7.766   4.764 -1.1582 -0.8337  1.3963
  714MOL0     H96389  10.819   7.886   4.293 -0.4409  0.6882 -1.3654
  714MOL0     H96390  10.592   7.904   4.186 -2.7326 -1.9719 -0.2543
  715MOL0     O96391   5.432   3.711   8.326 -0.3652 -0.4456 -0.1402
  715MOL0     C96392   5.419   3.760   8.215  0.4364  0.9851  0.4835
  715MOL0     O96393   5.298   3.788   8.150  0.5503 -0.4052 -0.3605
  715MOL0     C96394   5.180   3.778   8.221  0.7231  0.1395 -0.2104
  715MOL0     C96395   5.153   3.671   8.318  0.3525 -0.8640 -0.8262
  715MOL0     C96396   5.019   3.657   8.364  0.6129 -0.3646 -0.8902
  715MOL0     C96397   4.912   3.729   8.310  0.8293 -0.2420 -0.2427
  715MOL0     O96398   4.789   3.697   8.364 -1.1985  0.5535 -0.0064
  715MOL0     C96399   4.665   3.722   8.302  0.2626 -0.4291 -0.4320
  715MOL0     C96400   4.556   3.620   8.358 -0.7269  0.4297  0.4691
  715MOL0     C96401   4.407   3.655   8.359 -0.0411  0.2446 -0.4514
  715MOL0     C96402   4.376   3.748   8.477 -0.5427  0.3257 -0.2867
  715MOL0     C96403   4.224   3.787   8.487  0.1172  0.1694 -0.6051
  715MOL0     C96404   4.187   3.856   8.626 -0.9978 -0.1197 -0.1623
  715MOL0     C96405   4.301   3.960   8.666  0.1726 -0.3691  0.2173
  715MOL0     C96406   4.270   4.058   8.780  0.0686  0.4721 -0.6219
  715MOL0     N96407   4.123   4.079   8.798  0.0503 -0.1442 -0.3162
  715MOL0     C96408   4.033   4.151   8.711  0.3689  0.5584 -0.5206
  715MOL0     C96409   3.908   4.130   8.765  0.2717  0.1625 -0.0683
  715MOL0     C96410   3.779   4.178   8.698  0.5331  1.2228  0.3944
  715MOL0     C96411   3.747   4.076   8.586  0.3723 -0.1472  0.4749
  715MOL0     C96412   3.631   4.114   8.488 -0.9330  0.7076 -0.9504
  715MOL0     C96413   3.495   4.112   8.557 -0.4999  0.2807  0.1216
  715MOL0     O96414   3.383   4.138   8.466 -0.8745 -0.0693 -0.1412
  715MOL0     C96415   3.255   4.153   8.523 -0.8120  0.2355  0.2546
  715MOL0     C96416   3.223   4.072   8.632  0.0099  0.1807  0.3812
  715MOL0     C96417   3.085   4.070   8.677 -0.2410  0.8671  0.8771
  715MOL0     C96418   3.044   3.960   8.782 -0.1182  0.5489 -0.8989
  715MOL0     C96419   2.994   4.156   8.618  0.1260  0.0534 -0.1528
  715MOL0     C96420   2.852   4.165   8.656  0.0751 -0.5171 -0.2619
  715MOL0     O96421   2.807   4.142   8.784 -0.5485  0.0526  0.0749
  715MOL0     C96422   2.677   4.161   8.826  0.3714 -0.1233 -0.1693
  715MOL0     C96423   2.578   4.074   8.798 -0.4738 -0.2301  0.4367
  715MOL0     C96424   2.451   4.095   8.840 -0.6061  0.5117 -0.2353
  715MOL0     C96425   2.406   4.221   8.889  0.2815  1.6190 -0.4692
  715MOL0     O96426   2.276   4.228   8.936  0.6332  0.5127  0.5786
  715MOL0     C96427   2.163   4.152   8.868 -0.7690 -0.1445  0.6327
  715MOL0     C96428   2.030   4.221   8.906 -1.0797 -0.1431  0.2298
  715MOL0     C96429   1.899   4.131   8.915 -0.2626  0.5939  0.0127
  715MOL0     C96430   1.783   4.221   8.952  0.9115 -0.4144 -1.1025
  715MOL0     C96431   1.645   4.149   8.944 -0.0475  0.3832  0.3889
  715MOL0     C96432   1.597   4.130   8.799  0.5814  0.2877  0.0340
  715MOL0     C96433   1.452   4.085   8.800  0.1815  0.5980  0.1051
  715MOL0     C96434   1.409   4.062   8.656  0.2744 -0.0709  0.4549
  715MOL0    Cl96435   1.233   4.050   8.653 -0.2978  0.0751 -0.2691
  715MOL0     C96436   2.505   4.307   8.933  0.0516  0.1328 -0.5823
  715MOL0     C96437   2.640   4.283   8.897 -0.2048 -0.2828 -0.5085
  715MOL0     O96438   2.769   4.195   8.565 -0.9500 -0.1560  0.5922
  715MOL0     C96439   3.032   4.236   8.513  0.3402 -0.0619  0.6526
  715MOL0     C96440   3.165   4.231   8.466 -0.5411 -0.8414  0.2331
  715MOL0     N96441   3.924   4.048   8.874  0.2190 -0.5907  0.0598
  715MOL0     N96442   4.050   4.023   8.895 -0.5018 -0.0897  0.1196
  715MOL0     C96443   4.935   3.819   8.202 -0.0778 -0.0449  0.1752
  715MOL0     C96444   5.069   3.842   8.163 -0.0346 -0.0811  0.5067
  715MOL0     C96445   5.538   3.778   8.131  0.3991  0.1936 -0.2824
  715MOL0     C96446   5.659   3.695   8.131  0.0406 -0.1761 -0.5334
  715MOL0     C96447   5.767   3.710   8.041  0.4034 -0.1498  0.4921
  715MOL0     C96448   5.763   3.814   7.947 -0.4570 -0.3797  0.6414
  715MOL0     O96449   5.868   3.854   7.864 -0.5418 -0.1269  0.2022
  715MOL0     C96450   6.002   3.827   7.907 -0.8541 -1.0279  0.9381
  715MOL0     C96451   6.111   3.844   7.796 -0.0307  0.2345  0.1787
  715MOL0     C96452   6.105   3.735   7.687  0.4336 -0.2578 -0.4587
  715MOL0     C96453   6.150   3.774   7.541  0.6966 -1.0730 -0.4220
  715MOL0     C96454   6.289   3.811   7.553 -0.3550 -0.8109 -0.7538
  715MOL0     C96455   6.408   3.828   7.555  0.2603  0.1082 -0.3119
  715MOL0     C96456   5.645   3.898   7.935 -0.2003 -0.4663  0.3025
  715MOL0     C96457   5.543   3.886   8.036 -0.7172  0.3978 -0.9388
  715MOL0     H96458   5.226   3.607   8.367  0.6753 -0.2704 -0.5228
  715MOL0     H96459   4.994   3.588   8.444  1.7315  0.5254  0.2791
  715MOL0     H96460   4.615   3.816   8.328 -3.9731 -2.0442 -1.7307
  715MOL0     H96461   4.668   3.706   8.194  3.0085  0.7201 -0.5954
  715MOL0     H96462   4.573   3.521   8.315 -2.0204 -0.6639  2.3000
  715MOL0     H96463   4.576   3.605   8.465  3.1159 -0.9451 -0.2753
  715MOL0     H96464   4.379   3.695   8.261  0.4587 -1.2515 -1.2240
  715MOL0     H96465   4.352   3.561   8.367  0.4312  0.0719  1.2101
  715MOL0     H96466   4.406   3.717   8.578 -4.7758  3.0566  2.1400
  715MOL0     H96467   4.434   3.838   8.452  4.1052 -2.5503 -1.1291
  715MOL0     H96468   4.208   3.863   8.410  2.3165  0.7588 -0.5620
  715MOL0     H96469   4.163   3.700   8.465  1.4863 -0.4567 -2.1187
  715MOL0     H96470   4.094   3.912   8.611 -1.6093 -1.0349  0.1209
  715MOL0     H96471   4.172   3.783   8.706  0.5951  0.6006  0.8407
  715MOL0     H96472   4.389   3.905   8.700  0.3780 -0.5804 -0.6263
  715MOL0     H96473   4.327   4.012   8.574 -0.2065  1.1343  0.9238
  715MOL0     H96474   4.312   4.157   8.763 -1.2004  0.8547 -1.7007
  715MOL0     H96475   4.319   4.011   8.866  0.8733  0.8812 -0.8444
  715MOL0     H96476   4.065   4.209   8.625 -0.1724  0.1951 -0.9770
  715MOL0     H96477   3.711   4.160   8.782  1.2132 -4.0458  0.1021
  715MOL0     H96478   3.773   4.283   8.666  0.7941  1.6100  1.5678
  715MOL0     H96479   3.710   3.988   8.639  0.6766 -0.4688  0.1621
  715MOL0     H96480   3.841   4.060   8.533  0.6542 -2.8991  1.6164
  715MOL0     H96481   3.640   4.056   8.396 -1.1764 -0.6541 -0.1312
  715MOL0     H96482   3.656   4.217   8.461 -2.2095  0.8095 -1.8210
  715MOL0     H96483   3.484   4.187   8.635  0.5927  1.4387 -0.7739
  715MOL0     H96484   3.491   4.012   8.601  2.3155 -0.8104 -1.7491
  715MOL0     H96485   3.288   3.989   8.660 -0.4123 -1.6940 -3.4986
  715MOL0     H96486   2.948   3.909   8.770 -1.2225  0.5824  4.8606
  715MOL0     H96487   3.111   3.874   8.791 -0.4023 -0.0593 -3.6527
  715MOL0     H96488   3.031   4.008   8.879  2.3164  1.3337 -0.9001
  715MOL0     H96489   2.601   3.979   8.750 -0.8361  0.2863 -0.7808
  715MOL0     H96490   2.374   4.028   8.804  0.0487 -1.6931  2.2211
  715MOL0     H96491   2.186   4.144   8.762 -1.7072 -1.3649  0.4935
  715MOL0     H96492   2.160   4.047   8.901 -0.6529 -1.3802 -2.9052
  715MOL0     H96493   2.060   4.254   9.006  2.6121 -0.1643 -0.7277
  715MOL0     H96494   2.025   4.308   8.839  2.5528  1.4510  1.8102
  715MOL0     H96495   1.910   4.048   8.985 -1.3799  0.2050 -0.2433
  715MOL0     H96496   1.863   4.091   8.820 -1.9478  0.7292  0.5592
  715MOL0     H96497   1.790   4.250   9.057 -0.0081 -2.3523 -0.4618
  715MOL0     H96498   1.789   4.315   8.895  0.5728  0.6996  0.6336
  715MOL0     H96499   1.573   4.207   9.002  0.8594 -1.2558  3.3369
  715MOL0     H96500   1.648   4.050   8.989  3.1106 -0.0771 -0.5807
  715MOL0     H96501   1.607   4.216   8.731 -0.9861 -0.5318 -1.3034
  715MOL0     H96502   1.652   4.045   8.757 -1.1461  0.1838 -2.2471
  715MOL0     H96503   1.386   4.164   8.838 -0.5811  0.9043 -1.7479
  715MOL0     H96504   1.448   3.989   8.852  1.1961  0.6302  0.2575
  715MOL0     H96505   1.452   3.973   8.609 -1.7504 -1.3471  0.8617
  715MOL0     H96506   1.440   4.147   8.595 -0.3238  0.4869  0.9210
  715MOL0     H96507   2.481   4.394   8.993 -0.5793  0.1046 -0.7881
  715MOL0     H96508   2.713   4.357   8.927 -0.3055 -0.7923  1.0919
  715MOL0     H96509   2.952   4.292   8.466 -0.5548  0.7599  2.9958
  715MOL0     H96510   3.187   4.288   8.376 -0.8648 -1.8873 -0.5393
  715MOL0     H96511   4.845   3.865   8.163 -1.7532  0.0176  3.7760
  715MOL0     H96512   5.089   3.917   8.087  0.9864  0.4348  1.2594
  715MOL0     H96513   5.665   3.601   8.186  0.8532  0.0678 -0.1961
  715MOL0     H96514   5.849   3.640   8.031  0.7077 -0.3410  3.5020
  715MOL0     H96515   6.033   3.899   7.983 -0.4927 -0.8491  0.6234
  715MOL0     H96516   6.017   3.726   7.947 -1.4275 -1.6444 -0.3313
  715MOL0     H96517   6.210   3.855   7.841 -0.3032  4.1028  0.1560
  715MOL0     H96518   6.092   3.943   7.754 -0.5207  0.6445  1.3271
  715MOL0     H96519   5.997   3.712   7.682  0.8996 -3.7492  1.6618
  715MOL0     H96520   6.155   3.640   7.709  1.6675  0.3399 -0.6382
  715MOL0     H96521   6.089   3.856   7.503 -0.6484 -0.4913  2.6711
  715MOL0     H96522   6.135   3.686   7.478 -2.1827 -0.0353 -1.3339
  715MOL0     H96523   6.514   3.838   7.563  0.2098 -0.5429  2.0220
  715MOL0     H96524   5.636   3.982   7.867  1.0798  0.1240  0.8301
  715MOL0     H96525   5.462   3.959   8.031 -0.7879  0.2543 -3.3517
  716MOL0     O96526  10.593   6.953   4.208 -0.2949 -0.3944  0.2573
  716MOL0     C96527  10.622   7.068   4.252  0.8182  0.0417 -0.8855
  716MOL0     O96528  10.542   7.183   4.251  0.6910  0.3959  0.1897
  716MOL0     C96529  10.404   7.180   4.249  0.0277 -0.2278  0.4536
  716MOL0     C96530  10.340   7.301   4.223 -0.7672  0.1225 -0.2501
  716MOL0     C96531  10.197   7.311   4.230 -0.1746  0.4303 -0.9705
  716MOL0     C96532  10.126   7.197   4.269  0.0847 -0.0502 -0.1375
  716MOL0     O96533   9.986   7.191   4.283 -0.2538 -0.3828 -0.5543
  716MOL0     C96534   9.904   7.295   4.231  0.5837 -0.0211  0.2145
  716MOL0     C96535   9.766   7.243   4.223 -0.5447 -1.1238 -0.3020
  716MOL0     C96536   9.647   7.336   4.204  0.2352  0.3601  0.1299
  716MOL0     C96537   9.527   7.269   4.130 -0.5294  0.6302 -0.7374
  716MOL0     C96538   9.413   7.365   4.119  0.4189 -1.7632  0.2945
  716MOL0     C96539   9.296   7.298   4.049  0.1585  0.9054 -0.3638
  716MOL0     C96540   9.165   7.334   4.112  0.3775 -1.0992  0.6764
  716MOL0     C96541   9.147   7.259   4.247  1.0912 -0.5983  0.1913
  716MOL0     N96542   9.021   7.308   4.313  0.1830  0.2216 -0.5392
  716MOL0     C96543   8.891   7.297   4.272 -0.8119  0.3693  0.1760
  716MOL0     C96544   8.819   7.348   4.380 -0.4157 -0.1957  0.7436
  716MOL0     C96545   8.667   7.353   4.375  0.1561  0.7812 -0.1293
  716MOL0     C96546   8.612   7.433   4.252 -0.4094 -0.3066 -0.2183
  716MOL0     C96547   8.465   7.472   4.277  0.5866 -1.4336  0.6687
  716MOL0     C96548   8.367   7.350   4.258 -0.7320  0.2364 -0.1374
  716MOL0     O96549   8.233   7.408   4.244 -0.3368 -0.3267  0.1794
  716MOL0     C96550   8.127   7.328   4.213  0.4157  0.3886 -0.1929
  716MOL0     C96551   7.997   7.387   4.205 -0.1093  0.2814 -0.0729
  716MOL0     C96552   7.885   7.316   4.166  0.0955 -0.4021  0.1987
  716MOL0     C96553   7.753   7.388   4.141 -0.0103 -0.5650 -0.4259
  716MOL0     C96554   7.898   7.176   4.131  0.1790  0.1544 -0.8630
  716MOL0     C96555   7.790   7.089   4.079 -0.1078 -0.8558 -0.0319
  716MOL0     O96556   7.665   7.134   4.097  0.3951  0.0182  0.1131
  716MOL0     C96557   7.564   7.081   4.018  0.0283  0.1670 -0.1642
  716MOL0     C96558   7.471   6.990   4.076  0.1690  0.2967 -0.3093
  716MOL0     C96559   7.384   6.908   3.991 -0.7328 -0.0382 -0.3789
  716MOL0     C96560   7.388   6.920   3.851  0.2456 -0.1590  0.4793
  716MOL0     O96561   7.308   6.837   3.776 -0.6518 -0.3163  0.6413
  716MOL0     C96562   7.284   6.881   3.647 -0.0417  0.1639  0.5822
  716MOL0     C96563   7.178   6.780   3.571 -0.2927  0.3152 -1.4445
  716MOL0     C96564   7.242   6.645   3.537  0.8798 -0.9519 -0.1176
  716MOL0     C96565   7.146   6.528   3.576 -0.1566 -0.8082  0.4818
  716MOL0     C96566   7.200   6.391   3.534 -0.3017 -0.2311 -0.2160
  716MOL0     C96567   7.311   6.335   3.631  0.3256 -0.5947  0.3873
  716MOL0     C96568   7.373   6.223   3.565  0.3994  0.1377 -0.7079
  716MOL0     C96569   7.275   6.103   3.538  0.2119 -0.6787 -0.7009
  716MOL0    Cl96570   7.343   5.993   3.412 -0.3461  0.1420  0.5002
  716MOL0     C96571   7.485   7.003   3.798  0.0844 -0.0650 -0.1879
  716MOL0     C96572   7.567   7.081   3.875 -0.3360 -0.6662 -0.2331
  716MOL0     O96573   7.818   6.999   3.994  0.3830 -0.7155 -0.3979
  716MOL0     C96574   8.023   7.125   4.134  0.6713 -0.0558 -0.4894
  716MOL0     C96575   8.134   7.193   4.174  0.5842  0.1668  0.3880
  716MOL0     N96576   8.908   7.410   4.463 -0.0389 -1.4769  0.5291
  716MOL0     N96577   9.024   7.383   4.420  0.3676  0.3758  0.3641
  716MOL0     C96578  10.189   7.080   4.304  0.3106  0.3621  0.0350
  716MOL0     C96579  10.325   7.070   4.275  0.1703 -0.6598 -0.1349
  716MOL0     C96580  10.758   7.089   4.321 -0.1040  0.6353 -0.0416
  716MOL0     C96581  10.803   7.216   4.354 -0.0714 -0.1228 -0.5499
  716MOL0     C96582  10.922   7.230   4.434  0.6414  0.4793  0.4577
  716MOL0     C96583  10.993   7.118   4.475 -0.0886 -0.2705  0.0412
  716MOL0     O96584  11.095   7.150   4.560  0.1876 -0.2222  0.3597
  716MOL0     C96585  11.172   7.043   4.611 -0.5332 -0.0576 -0.5831
  716MOL0     C96586  11.307   7.094   4.675  1.1297 -0.1571 -0.1953
  716MOL0     C96587  11.381   7.172   4.558  0.0561 -0.4381 -0.0186
  716MOL0     C96588  11.423   7.106   4.428 -0.3909  0.2587 -0.0942
  716MOL0     C96589  11.510   6.988   4.449  0.1506  0.0127  0.2862
  716MOL0     C96590  11.605   6.912   4.449  0.3625 -0.0952 -0.5099
  716MOL0     C96591  10.949   6.993   4.439  0.0580 -0.7528 -0.1411
  716MOL0     C96592  10.831   6.976   4.364 -0.0680  0.1781  0.2662
  716MOL0     H96593  10.397   7.390   4.200  0.6869 -1.0448 -1.4461
  716MOL0     H96594  10.157   7.412   4.229  2.1549  1.6759  3.5624
  716MOL0     H96595   9.918   7.382   4.296  0.2498  0.8563 -0.8515
  716MOL0     H96596   9.934   7.309   4.126 -4.7354 -1.0708 -1.7699
  716MOL0     H96597   9.770   7.171   4.140 -0.1598 -1.6429  0.1574
  716MOL0     H96598   9.742   7.182   4.311 -3.1960 -0.5991 -0.6005
  716MOL0     H96599   9.621   7.371   4.304 -1.5970 -4.9455  1.8538
  716MOL0     H96600   9.680   7.421   4.143  0.3941  2.4281  2.8828
  716MOL0     H96601   9.569   7.236   4.034  1.3313  2.4445 -0.6239
  716MOL0     H96602   9.490   7.186   4.191 -2.6735  1.2158 -1.1599
  716MOL0     H96603   9.385   7.411   4.214  0.3746 -0.5334 -0.2925
  716MOL0     H96604   9.457   7.446   4.059 -1.6083  0.4652  1.6235
  716MOL0     H96605   9.293   7.329   3.944 -2.0182 -0.3706 -0.7362
  716MOL0     H96606   9.305   7.189   4.060 -0.0296  0.8988 -0.2588
  716MOL0     H96607   9.158   7.443   4.124 -1.2527 -0.9738 -0.9195
  716MOL0     H96608   9.082   7.309   4.045 -2.1129 -0.4267  3.3211
  716MOL0     H96609   9.230   7.261   4.318  1.5734  3.2606 -0.2661
  716MOL0     H96610   9.142   7.153   4.220  3.8240 -0.6786 -0.3001
  716MOL0     H96611   8.855   7.246   4.182 -0.8254 -1.1835  1.0295
  716MOL0     H96612   8.622   7.254   4.370  0.4464  0.5915  0.7980
  716MOL0     H96613   8.643   7.401   4.471  0.6416  1.0562 -0.1402
  716MOL0     H96614   8.633   7.389   4.154 -0.5523  0.2803 -0.5214
  716MOL0     H96615   8.676   7.522   4.248  1.6976 -1.7033  0.2612
  716MOL0     H96616   8.425   7.546   4.207 -3.8437 -3.8954  0.2439
  716MOL0     H96617   8.464   7.515   4.378  4.2664 -0.7706  0.5559
  716MOL0     H96618   8.364   7.281   4.343  0.5549  0.1994 -0.1026
  716MOL0     H96619   8.404   7.301   4.168  1.6086  2.8723 -0.7452
  716MOL0     H96620   7.988   7.493   4.230  1.9321  0.2577  0.9798
  716MOL0     H96621   7.674   7.352   4.208  0.4867  0.9307  1.0256
  716MOL0     H96622   7.768   7.492   4.174 -1.5025 -1.3121  3.0440
  716MOL0     H96623   7.730   7.395   4.034  4.0695  1.6236 -1.3813
  716MOL0     H96624   7.454   6.989   4.183 -4.8695 -0.2371 -0.8758
  716MOL0     H96625   7.317   6.832   4.028 -1.4571  0.5395 -0.4745
  716MOL0     H96626   7.244   6.983   3.641 -2.7293 -0.8776 -0.9981
  716MOL0     H96627   7.370   6.874   3.580 -0.5968 -0.8405 -0.0584
  716MOL0     H96628   7.097   6.771   3.644  3.0445  1.2573  2.8369
  716MOL0     H96629   7.140   6.835   3.484 -2.0535  1.2716 -0.1390
  716MOL0     H96630   7.329   6.642   3.604  0.1886  0.5189  0.8881
  716MOL0     H96631   7.261   6.638   3.430 -0.0312 -0.5966 -0.3116
  716MOL0     H96632   7.130   6.524   3.684  1.8488 -1.5541  0.7787
  716MOL0     H96633   7.050   6.555   3.530  0.6153  1.7283  0.2163
  716MOL0     H96634   7.236   6.393   3.431  2.2006 -0.4244  0.5853
  716MOL0     H96635   7.109   6.331   3.539  0.1664 -1.1043 -1.6466
  716MOL0     H96636   7.380   6.419   3.645 -1.3563  0.6688  1.3586
  716MOL0     H96637   7.257   6.318   3.724 -3.4382  1.8521 -1.1241
  716MOL0     H96638   7.458   6.188   3.625 -1.2578 -0.7502  1.2558
  716MOL0     H96639   7.411   6.250   3.466  1.0461 -1.1550 -0.8437
  716MOL0     H96640   7.175   6.138   3.508  0.1304  1.0067  1.2914
  716MOL0     H96641   7.258   6.042   3.628  1.1380  1.6074  1.1177
  716MOL0     H96642   7.496   7.030   3.693  2.5663  2.2389  0.5255
  716MOL0     H96643   7.644   7.135   3.820 -1.0727 -1.0367 -1.6657
  716MOL0     H96644   8.032   7.018   4.119  1.5938  0.1800 -1.8662
  716MOL0     H96645   8.230   7.143   4.173  2.4173  3.4259 -0.3514
  716MOL0     H96646  10.133   6.995   4.342  2.5461 -0.5012  1.6326
  716MOL0     H96647  10.364   6.971   4.297  3.0408  0.6052  1.0816
  716MOL0     H96648  10.763   7.310   4.317 -1.7348  0.0198  1.3912
  716MOL0     H96649  10.953   7.333   4.443 -2.3287  1.4652  0.3543
  716MOL0     H96650  11.109   7.006   4.692 -1.4837  0.3808 -1.0914
  716MOL0     H96651  11.179   6.972   4.528 -1.4562  0.4243 -1.1045
  716MOL0     H96652  11.376   7.012   4.701  1.6978  0.0677 -0.9483
  716MOL0     H96653  11.294   7.168   4.754 -0.8186 -1.4269  0.7425
  716MOL0     H96654  11.468   7.218   4.607  0.3221 -0.1493 -0.7409
  716MOL0     H96655  11.316   7.256   4.531  0.4985 -0.0281  0.1835
  716MOL0     H96656  11.486   7.176   4.374 -0.6767 -1.6600 -3.1665
  716MOL0     H96657  11.342   7.071   4.362  0.2614 -1.8089  0.1231
  716MOL0     H96658  11.690   6.847   4.445  2.5642  2.6588 -2.0340
  716MOL0     H96659  10.996   6.902   4.477 -0.2470 -0.8710 -0.0463
  716MOL0     H96660  10.807   6.871   4.359 -0.6790  0.3263  0.0265
  717MOL0     O96661   8.929  11.226   4.570  0.1339 -0.3165 -0.3959
  717MOL0     C96662   8.954  11.169   4.471  0.0078  0.1704  0.5911
  717MOL0     O96663   9.076  11.131   4.434  0.6040  0.3144  0.0153
  717MOL0     C96664   9.181  11.162   4.524  1.1171  0.0188 -1.0773
  717MOL0     C96665   9.280  11.060   4.538 -0.4285  0.2412 -0.6917
  717MOL0     C96666   9.402  11.090   4.600 -0.6029  0.4012 -0.6916
  717MOL0     C96667   9.435  11.212   4.658  0.1879  0.4735 -0.0166
  717MOL0     O96668   9.541  11.219   4.739  0.2122 -0.2651 -0.3736
  717MOL0     C96669   9.671  11.199   4.691 -0.4218  0.4113  0.8775
  717MOL0     C96670   9.711  11.305   4.587  0.2934  0.5884  0.5438
  717MOL0     C96671   9.859  11.329   4.581  0.2846 -0.7351  0.0286
  717MOL0     C96672   9.894  11.436   4.681 -0.2272  0.0830  0.0825
  717MOL0     C96673  10.038  11.476   4.663  0.6415 -0.2741  0.2000
  717MOL0     C96674  10.086  11.596   4.760  0.2574 -0.2647  0.1281
  717MOL0     C96675  10.229  11.629   4.722  0.8765  0.1028 -0.0399
  717MOL0     C96676  10.269  11.756   4.786  0.4434 -0.6060 -0.1316
  717MOL0     N96677  10.411  11.789   4.742  0.2386 -0.4477  0.1581
  717MOL0     C96678  10.477  11.712   4.645  0.6573  0.1877 -0.1364
  717MOL0     C96679  10.598  11.771   4.652 -0.4105 -0.1750  0.3604
  717MOL0     C96680  10.715  11.736   4.568  0.3981 -0.0603 -0.0061
  717MOL0     C96681  10.810  11.636   4.646 -0.3194 -0.9399  0.6655
  717MOL0     C96682  10.776  11.483   4.668 -0.1252 -0.4498  0.3686
  717MOL0     C96683  10.747  11.412   4.539 -0.0843  0.3656  0.4101
  717MOL0     O96684  10.601  11.410   4.527 -0.1305  0.1727  0.4298
  717MOL0     C96685  10.524  11.308   4.573 -0.2911  0.1713  1.1445
  717MOL0     C96686  10.561  11.218   4.668 -0.8492  0.4667 -0.3243
  717MOL0     C96687  10.481  11.108   4.700  0.9143  0.0900 -0.3746
  717MOL0     C96688  10.543  11.013   4.795 -0.8505  0.3009 -0.2598
  717MOL0     C96689  10.347  11.104   4.648 -0.5874 -0.5344  0.0813
  717MOL0     C96690  10.245  11.002   4.673 -0.3353  0.3682  0.1585
  717MOL0     O96691  10.119  11.031   4.659  0.5263  0.0504  0.5729
  717MOL0     C96692  10.031  10.920   4.680  0.1815 -1.2833 -0.0290
  717MOL0     C96693  10.051  10.802   4.608  1.1379 -0.4844  0.2134
  717MOL0     C96694   9.954  10.702   4.618  0.1616  0.3780  0.4392
  717MOL0     C96695   9.838  10.722   4.702 -0.2844 -0.6247 -0.0278
  717MOL0     O96696   9.743  10.626   4.720 -0.5153 -0.0676 -0.3992
  717MOL0     C96697   9.723  10.532   4.611  0.2971 -0.9802 -0.5964
  717MOL0     C96698   9.582  10.476   4.611 -0.6823  0.3366 -0.2808
  717MOL0     C96699   9.474  10.592   4.602  0.5199 -0.5077  0.7174
  717MOL0     C96700   9.406  10.568   4.462 -0.1069  0.9684  0.2910
  717MOL0     C96701   9.310  10.684   4.431 -0.0911  1.5540  0.3501
  717MOL0     C96702   9.235  10.648   4.298  0.4053  0.1129 -0.6353
  717MOL0     C96703   9.143  10.766   4.242 -0.7033  0.1472 -0.1548
  717MOL0     C96704   9.083  10.732   4.107  0.8529 -0.2494  0.3778
  717MOL0    Cl96705   8.983  10.873   4.053 -0.0218  0.1518 -0.2755
  717MOL0     C96706   9.827  10.843   4.773  0.3807  0.6096  0.9567
  717MOL0     C96707   9.919  10.945   4.754  0.4070  0.3666 -0.5440
  717MOL0     O96708  10.294  10.890   4.688 -0.8133  0.3355  0.1817
  717MOL0     C96709  10.309  11.203   4.560  0.1156  0.5877 -0.4094
  717MOL0     C96710  10.395  11.299   4.514 -0.7393 -0.1037  0.6270
  717MOL0     N96711  10.607  11.881   4.740  0.5627  0.0360  0.4861
  717MOL0     N96712  10.495  11.884   4.795  0.2228 -0.4780 -0.2199
  717MOL0     C96713   9.346  11.318   4.638  0.0734 -0.1413 -0.2286
  717MOL0     C96714   9.217  11.291   4.570 -0.7475 -0.2011  0.4782
  717MOL0     C96715   8.844  11.150   4.375  0.5918 -0.9096 -0.0296
  717MOL0     C96716   8.704  11.156   4.419  0.1719  0.0599 -0.2724
  717MOL0     C96717   8.594  11.149   4.323 -0.4129 -0.6503 -0.2475
  717MOL0     C96718   8.621  11.145   4.192  0.4464 -0.0842  0.5635
  717MOL0     O96719   8.510  11.154   4.104  0.2576 -0.8046 -0.4661
  717MOL0     C96720   8.533  11.229   3.987 -0.1881 -1.1510  0.2834
  717MOL0     C96721   8.394  11.266   3.931 -0.0279  0.4331  0.0638
  717MOL0     C96722   8.327  11.379   4.023  0.1882 -0.1040  0.5522
  717MOL0     C96723   8.275  11.322   4.160 -0.7712 -0.8768  0.4513
  717MOL0     C96724   8.151  11.398   4.190 -1.0573 -0.4069  0.3523
  717MOL0     C96725   8.036  11.430   4.206  0.1374  0.1761  0.1780
  717MOL0     C96726   8.751  11.133   4.143  0.1276 -0.0833 -0.6665
  717MOL0     C96727   8.862  11.137   4.234 -0.6569 -0.2528  0.1584
  717MOL0     H96728   9.262  10.958   4.505 -2.0730 -0.0601  0.9748
  717MOL0     H96729   9.476  11.013   4.620 -0.4428  0.4832 -0.9700
  717MOL0     H96730   9.742  11.209   4.774  0.1158 -1.6059  0.7158
  717MOL0     H96731   9.668  11.101   4.643  1.5809  1.5744 -1.9501
  717MOL0     H96732   9.679  11.276   4.486  0.6433  3.0042 -0.3268
  717MOL0     H96733   9.663  11.398   4.620  1.8311  0.6693  2.7149
  717MOL0     H96734   9.918  11.238   4.596  1.8036 -0.4017 -3.0740
  717MOL0     H96735   9.877  11.371   4.481  1.9455 -0.5476  0.3895
  717MOL0     H96736   9.834  11.526   4.665 -0.0332  0.4895  1.5095
  717MOL0     H96737   9.877  11.409   4.786  0.7810 -0.8311  0.0280
  717MOL0     H96738  10.099  11.386   4.678  1.6299 -0.1293 -2.3954
  717MOL0     H96739  10.040  11.515   4.561 -3.2694  1.1260  0.4951
  717MOL0     H96740  10.015  11.679   4.764  2.1856  1.4274  1.6522
  717MOL0     H96741  10.086  11.561   4.863  0.8596  2.6104  1.2147
  717MOL0     H96742  10.301  11.553   4.754  1.8080  0.4788 -1.1426
  717MOL0     H96743  10.234  11.638   4.613  0.1320 -1.9372 -0.2806
  717MOL0     H96744  10.269  11.752   4.896 -0.4729  1.5259 -0.0046
  717MOL0     H96745  10.206  11.837   4.749 -0.9031 -0.8810  1.4574
  717MOL0     H96746  10.461  11.623   4.584  3.0816  0.3497 -1.1555
  717MOL0     H96747  10.678  11.694   4.474  0.1298 -3.9223  1.6704
  717MOL0     H96748  10.782  11.819   4.543 -0.0869  0.1723 -0.5519
  717MOL0     H96749  10.826  11.688   4.740 -0.1619 -0.4877  0.3920
  717MOL0     H96750  10.910  11.635   4.602 -0.3240  1.9924  0.3827
  717MOL0     H96751  10.705  11.473   4.751 -0.0222 -0.2183  0.4866
  717MOL0     H96752  10.869  11.435   4.700 -0.9358 -0.5063  2.8298
  717MOL0     H96753  10.785  11.309   4.535 -3.2027 -1.2274  4.2680
  717MOL0     H96754  10.794  11.458   4.452  0.8331  0.2488  0.8402
  717MOL0     H96755  10.649  11.226   4.731 -2.6242  4.5638  2.0672
  717MOL0     H96756  10.546  10.919   4.739  4.0068  0.5655 -0.9086
  717MOL0     H96757  10.645  11.046   4.816 -0.9735 -0.4708  1.8048
  717MOL0     H96758  10.486  11.013   4.888  1.0255 -2.4921  1.0426
  717MOL0     H96759  10.133  10.783   4.539  0.9722 -1.7185  0.3343
  717MOL0     H96760   9.958  10.613   4.556  0.2969 -0.6196  1.8380
  717MOL0     H96761   9.744  10.578   4.515  1.0626  2.5670  1.1138
  717MOL0     H96762   9.786  10.443   4.614  0.6198 -0.9163 -3.1535
  717MOL0     H96763   9.583  10.400   4.532  0.5446 -1.2878  1.2370
  717MOL0     H96764   9.566  10.425   4.706 -1.4172  1.4517  0.2110
  717MOL0     H96765   9.516  10.693   4.602 -0.9142  0.1146  1.2560
  717MOL0     H96766   9.394  10.570   4.674  0.6460 -1.7674  0.5001
  717MOL0     H96767   9.475  10.575   4.377 -0.8572 -0.3715 -0.4501
  717MOL0     H96768   9.364  10.467   4.456  0.4625  0.5506  2.2691
  717MOL0     H96769   9.367  10.777   4.419  1.8482  0.2476 -1.2694
  717MOL0     H96770   9.247  10.687   4.520  0.5235  2.0335  0.7803
  717MOL0     H96771   9.303  10.612   4.220 -2.2607  1.0261 -3.5819
  717MOL0     H96772   9.167  10.567   4.325 -0.1449  0.7654 -0.0095
  717MOL0     H96773   9.212  10.849   4.225 -2.2256  1.6637  0.8040
  717MOL0     H96774   9.063  10.792   4.311 -2.0968  0.3059 -1.7636
  717MOL0     H96775   9.025  10.640   4.126  0.3485 -0.2527 -1.0809
  717MOL0     H96776   9.162  10.716   4.034  2.2370 -1.4277  2.0449
  717MOL0     H96777   9.739  10.847   4.836  0.0733 -0.2000  0.5910
  717MOL0     H96778   9.887  11.032   4.811  0.5423 -1.2148  2.0799
  717MOL0     H96779  10.205  11.207   4.528 -0.6871  0.2611  1.9372
  717MOL0     H96780  10.356  11.361   4.434  2.0141  2.1994  0.8664
  717MOL0     H96781   9.337  11.417   4.681 -3.0349 -0.8595  1.0609
  717MOL0     H96782   9.159  11.381   4.554 -0.4402  0.0962  1.0121
  717MOL0     H96783   8.691  11.167   4.526  1.0118  3.0219 -0.3779
  717MOL0     H96784   8.493  11.163   4.360 -0.9631  1.4868 -2.2785
  717MOL0     H96785   8.604  11.309   4.011 -1.8415 -0.2392  2.5439
  717MOL0     H96786   8.580  11.167   3.911 -1.3687 -2.3781  0.5277
  717MOL0     H96787   8.333  11.176   3.941 -1.4293  1.1349 -1.6491
  717MOL0     H96788   8.384  11.302   3.828 -0.3206  1.0862  0.3154
  717MOL0     H96789   8.236  11.417   3.976  0.5553  2.1242  1.5490
  717MOL0     H96790   8.393  11.466   4.031 -1.6465  1.2036  2.8358
  717MOL0     H96791   8.349  11.330   4.240  2.1209 -0.4301 -2.0772
  717MOL0     H96792   8.246  11.219   4.139  2.2281 -1.2358 -2.8636
  717MOL0     H96793   7.933  11.456   4.213 -0.2885  0.1330 -3.7212
  717MOL0     H96794   8.757  11.110   4.037  0.9468 -1.1775 -0.4024
  717MOL0     H96795   8.962  11.131   4.192 -0.3092  0.2755  0.8756
  718MOL0     O96796   6.958   1.958   1.433 -0.4720  0.5381 -0.9205
  718MOL0     C96797   7.000   1.956   1.315 -0.0700  0.0041 -0.7201
  718MOL0     O96798   6.916   1.968   1.204  0.4042  0.3947 -0.1732
  718MOL0     C96799   6.785   1.999   1.225 -0.0179 -0.8462 -0.9070
  718MOL0     C96800   6.735   2.137   1.224 -1.2750  0.1943  0.5855
  718MOL0     C96801   6.597   2.154   1.216  0.0568 -0.5052 -0.2975
  718MOL0     C96802   6.505   2.052   1.240  0.9343 -0.7820 -0.8360
  718MOL0     O96803   6.367   2.069   1.252 -0.6395  0.0977  0.4063
  718MOL0     C96804   6.312   2.193   1.192 -0.3012  0.9021 -0.1551
  718MOL0     C96805   6.158   2.201   1.187  0.6177  0.1705 -0.6490
  718MOL0     C96806   6.080   2.088   1.112 -0.4918  0.5239  0.3376
  718MOL0     C96807   5.942   2.127   1.068  0.4108  0.3959  0.6722
  718MOL0     C96808   5.856   2.181   1.185  0.5529  0.4357 -0.4504
  718MOL0     C96809   5.802   2.070   1.279 -1.2811  0.5979 -0.4143
  718MOL0     C96810   5.674   2.110   1.362 -0.3364 -0.5286 -0.7932
  718MOL0     C96811   5.707   2.216   1.470 -0.0593 -1.0617  0.0128
  718MOL0     N96812   5.583   2.276   1.517  1.0153 -0.5007 -0.4344
  718MOL0     C96813   5.479   2.331   1.447  0.0496  0.2310  0.6311
  718MOL0     C96814   5.394   2.379   1.539  0.2287  0.8071 -0.0966
  718MOL0     C96815   5.266   2.432   1.503 -0.0694 -0.6169  0.0096
  718MOL0     C96816   5.149   2.335   1.538  1.3268  0.3464 -0.6514
  718MOL0     C96817   5.007   2.358   1.464  0.7321 -0.1958 -0.3323
  718MOL0     C96818   4.900   2.260   1.516 -0.1283 -0.6952  1.0294
  718MOL0     O96819   4.776   2.290   1.458 -0.2261 -0.1218 -0.6163
  718MOL0     C96820   4.738   2.249   1.336  0.5285 -0.1465  0.6833
  718MOL0     C96821   4.599   2.276   1.296 -0.5690  0.3875 -0.1108
  718MOL0     C96822   4.559   2.264   1.163  0.7091  0.4374  0.2897
  718MOL0     C96823   4.421   2.316   1.126 -0.4941  1.3836 -0.6272
  718MOL0     C96824   4.647   2.214   1.066 -0.4866 -0.3129 -0.3547
  718MOL0     C96825   4.615   2.197   0.920  0.6950  1.3292 -0.1579
  718MOL0     O96826   4.719   2.173   0.830 -0.8656 -0.5365 -0.3558
  718MOL0     C96827   4.703   2.169   0.689 -0.0737  1.0572  0.7391
  718MOL0     C96828   4.594   2.227   0.627 -0.2841  0.5235  0.0718
  718MOL0     C96829   4.584   2.218   0.489 -0.5374 -0.8590  1.7800
  718MOL0     C96830   4.689   2.168   0.408  0.4486 -0.4673 -0.2352
  718MOL0     O96831   4.694   2.183   0.273 -0.2062 -0.0102  0.0025
  718MOL0     C96832   4.603   2.276   0.205  0.9909 -0.6480  0.1638
  718MOL0     C96833   4.501   2.217   0.112  0.0816  0.6941 -0.6591
  718MOL0     C96834   4.590   2.168  -0.010 -0.3881 -0.6320 -0.0199
  718MOL0     C96835   4.482   2.118  -0.114 -0.1585  0.1839  0.0814
  718MOL0     C96836   4.531   2.093  -0.252  0.6551  0.7807  0.6223
  718MOL0     C96837   4.649   1.994  -0.244  0.3173  0.2218 -0.2029
  718MOL0     C96838   4.679   1.923  -0.375  0.2140  0.3977  0.4654
  718MOL0     C96839   4.569   1.845  -0.451 -0.0441  1.0263  0.1780
  718MOL0    Cl96840   4.486   1.726  -0.349 -0.7179  0.3052 -0.4867
  718MOL0     C96841   4.806   2.110   0.470  0.0328 -0.3746  0.2613
  718MOL0     C96842   4.815   2.116   0.607  0.3918 -0.8745 -0.4913
  718MOL0     O96843   4.497   2.173   0.899 -0.6766 -0.3904  0.6887
  718MOL0     C96844   4.776   2.174   1.110  0.2659 -0.7212 -0.0355
  718MOL0     C96845   4.821   2.195   1.240  0.2820  0.1207 -0.9771
  718MOL0     N96846   5.427   2.333   1.659 -0.5364 -0.3332 -0.0162
  718MOL0     N96847   5.546   2.274   1.651 -0.5557  0.6033 -0.9176
  718MOL0     C96848   6.552   1.923   1.246 -0.3902 -0.1289 -0.3996
  718MOL0     C96849   6.692   1.893   1.242  0.4266  0.3600  0.0275
  718MOL0     C96850   7.144   1.945   1.285  0.2712  0.0754 -0.0316
  718MOL0     C96851   7.190   1.979   1.161  0.2948  0.6125  0.1022
  718MOL0     C96852   7.329   1.976   1.131 -0.2841  0.1782 -0.5991
  718MOL0     C96853   7.421   1.937   1.223 -0.1469 -1.2177 -0.1958
  718MOL0     O96854   7.545   1.897   1.194  0.6374 -0.0520  0.5770
  718MOL0     C96855   7.633   1.823   1.279  0.7915 -0.3959 -1.7776
  718MOL0     C96856   7.726   1.903   1.364  0.0475  0.4981  0.3916
  718MOL0     C96857   7.830   1.985   1.275  0.1955  0.0445  0.7470
  718MOL0     C96858   7.915   2.081   1.364  0.6111  0.5080  0.4212
  718MOL0     C96859   8.008   2.150   1.280  0.3500  0.4110 -0.8240
  718MOL0     C96860   8.076   2.202   1.200  0.1948  0.4545  0.5023
  718MOL0     C96861   7.370   1.923   1.359 -0.4307  0.6463 -0.0170
  718MOL0     C96862   7.236   1.918   1.382 -0.6125 -0.2698  0.0383
  718MOL0     H96863   6.798   2.225   1.220 -1.3252  0.1964 -1.4002
  718MOL0     H96864   6.573   2.258   1.195  2.8694 -0.1674 -2.5323
  718MOL0     H96865   6.341   2.287   1.240 -0.5396  0.6452  0.5020
  718MOL0     H96866   6.340   2.208   1.088 -2.9922  1.0337 -0.9344
  718MOL0     H96867   6.130   2.211   1.292  1.4275  2.6218 -0.6004
  718MOL0     H96868   6.128   2.299   1.148  0.4550  1.0355  1.5141
  718MOL0     H96869   6.137   2.073   1.019  2.7787 -0.1234  2.3060
  718MOL0     H96870   6.077   1.999   1.175 -4.8909  0.4611  0.3592
  718MOL0     H96871   5.949   2.208   0.994 -2.3975  1.0503  1.0110
  718MOL0     H96872   5.888   2.043   1.024 -1.4016  0.5218  2.4719
  718MOL0     H96873   5.907   2.247   1.255 -1.3445 -0.2430  1.6998
  718MOL0     H96874   5.772   2.237   1.141  0.1734  0.4336  0.2601
  718MOL0     H96875   5.770   1.984   1.218 -0.0574  0.7948 -1.3615
  718MOL0     H96876   5.889   2.043   1.339  2.4430  3.1731 -4.0738
  718MOL0     H96877   5.592   2.139   1.296 -1.4140 -1.2401  0.1972
  718MOL0     H96878   5.640   2.018   1.410  1.5546 -0.2461  1.2408
  718MOL0     H96879   5.762   2.302   1.431 -2.2742 -0.5120 -2.1093
  718MOL0     H96880   5.771   2.170   1.547  3.1491  1.6469 -0.7716
  718MOL0     H96881   5.470   2.337   1.339 -2.2332 -0.1914  0.7606
  718MOL0     H96882   5.255   2.529   1.552  1.1943 -0.1651 -0.5618
  718MOL0     H96883   5.261   2.447   1.395  0.3037 -2.0913 -0.2359
  718MOL0     H96884   5.129   2.339   1.645 -0.3737 -1.1251 -0.8657
  718MOL0     H96885   5.188   2.236   1.513  1.4563  0.7634 -2.2656
  718MOL0     H96886   5.010   2.354   1.355 -1.9329 -0.0096 -0.4697
  718MOL0     H96887   4.965   2.457   1.484  1.6539  0.3960 -1.1903
  718MOL0     H96888   4.895   2.271   1.625  1.1396  0.5339  0.9923
  718MOL0     H96889   4.920   2.156   1.488 -0.0730 -0.2163 -0.8675
  718MOL0     H96890   4.538   2.326   1.371  2.7861  1.2012  2.3094
  718MOL0     H96891   4.385   2.388   1.200  0.3298 -0.4057  1.6227
  718MOL0     H96892   4.411   2.342   1.020  0.0691  0.5287 -0.9002
  718MOL0     H96893   4.352   2.232   1.127  0.4892  0.5523  0.1739
  718MOL0     H96894   4.516   2.277   0.684 -0.6815  1.2838 -1.1105
  718MOL0     H96895   4.490   2.260   0.455 -0.9841 -1.7541  1.8809
  718MOL0     H96896   4.535   2.331   0.271 -1.9200 -1.2176 -2.1558
  718MOL0     H96897   4.665   2.352   0.157  1.1222 -1.0068 -0.2294
  718MOL0     H96898   4.454   2.140   0.173  2.5117 -0.0296  0.4574
  718MOL0     H96899   4.429   2.296   0.091 -2.7419 -0.9137  2.1422
  718MOL0     H96900   4.647   2.077   0.010 -1.3901 -1.7536 -1.9860
  718MOL0     H96901   4.647   2.242  -0.066 -2.1933 -0.3764 -1.6528
  718MOL0     H96902   4.440   2.027  -0.069 -0.0399  0.6687  1.2017
  718MOL0     H96903   4.400   2.190  -0.109 -0.3179  0.1984 -1.9935
  718MOL0     H96904   4.558   2.193  -0.289 -0.2886 -0.0659 -2.7664
  718MOL0     H96905   4.454   2.047  -0.314  0.1279  0.1790  1.7036
  718MOL0     H96906   4.738   2.056  -0.226 -1.2083  2.7167 -0.7453
  718MOL0     H96907   4.632   1.910  -0.176 -0.6044 -1.5498 -2.4796
  718MOL0     H96908   4.746   1.844  -0.342  0.2635  0.2384 -0.0029
  718MOL0     H96909   4.736   1.980  -0.449  0.0841 -1.0479 -0.8000
  718MOL0     H96910   4.623   1.794  -0.532  0.2233  4.5334 -2.0682
  718MOL0     H96911   4.490   1.913  -0.484 -1.0871  0.0008  0.4958
  718MOL0     H96912   4.881   2.072   0.401  1.2273  0.1796  1.2214
  718MOL0     H96913   4.907   2.094   0.660  0.1591  0.9930  0.8061
  718MOL0     H96914   4.849   2.143   1.036  1.0925  2.8462 -0.9185
  718MOL0     H96915   4.919   2.154   1.262  0.0572 -1.5924 -2.9363
  718MOL0     H96916   6.468   1.853   1.241  0.0538 -0.6660 -0.4851
  718MOL0     H96917   6.715   1.788   1.230 -4.6361 -1.1130  0.5928
  718MOL0     H96918   7.116   2.021   1.094  0.4698 -0.9048 -1.0866
  718MOL0     H96919   7.350   2.003   1.028 -1.6874  3.3672 -0.1605
  718MOL0     H96920   7.586   1.746   1.341  1.4480 -0.3040 -1.1511
  718MOL0     H96921   7.702   1.761   1.222  1.6352 -2.3851  1.1802
  718MOL0     H96922   7.780   1.842   1.436 -1.5832  2.3268  3.3971
  718MOL0     H96923   7.665   1.975   1.419 -2.4622  0.1220 -1.6833
  718MOL0     H96924   7.791   2.035   1.186 -1.0423 -2.0746  0.0228
  718MOL0     H96925   7.911   1.927   1.229  1.4288  0.9534  1.7061
  718MOL0     H96926   7.974   2.024   1.436  0.9206 -1.3696 -1.2409
  718MOL0     H96927   7.853   2.162   1.405  1.1386  0.7778  0.6974
  718MOL0     H96928   8.138   2.232   1.118 -1.3187 -2.1460 -1.7375
  718MOL0     H96929   7.446   1.899   1.433  0.8125  2.8632 -0.4644
  718MOL0     H96930   7.219   1.908   1.489  2.5655 -3.5779  0.4509
  719MOL0     O96931   2.240   2.176   0.467  0.3654  0.6307 -0.3485
  719MOL0     C96932   2.137   2.147   0.525 -0.3442  0.3666 -0.0948
  719MOL0     O96933   2.125   2.114   0.656 -0.0353 -0.4231  0.4269
  719MOL0     C96934   2.233   2.132   0.741  0.4308 -0.1594 -0.2216
  719MOL0     C96935   2.282   2.260   0.778 -0.4268  0.7991 -0.3510
  719MOL0     C96936   2.399   2.257   0.864  0.4540  0.7681  0.1397
  719MOL0     C96937   2.455   2.138   0.916 -0.8577  0.8295 -0.6930
  719MOL0     O96938   2.560   2.154   1.001  0.6390  0.1957  0.3650
  719MOL0     C96939   2.664   2.051   1.007  0.6154 -0.3486 -0.6353
  719MOL0     C96940   2.783   2.101   1.094 -0.2006 -0.8980 -0.3160
  719MOL0     C96941   2.898   2.116   0.993 -0.1432 -1.2653 -0.1535
  719MOL0     C96942   3.009   2.212   1.050 -0.5107  1.1049 -0.3033
  719MOL0     C96943   3.131   2.217   0.954 -0.1195  0.3243 -0.8030
  719MOL0     C96944   3.226   2.096   0.945 -0.0091  0.3087  0.2422
  719MOL0     C96945   3.277   2.044   1.081 -0.7812  0.2923  0.1495
  719MOL0     C96946   3.410   1.969   1.071  0.5430  0.4419 -0.8220
  719MOL0     N96947   3.507   2.067   1.018 -0.0138 -0.7168  0.1636
  719MOL0     C96948   3.553   2.184   1.067  0.2753 -0.8152 -0.5554
  719MOL0     C96949   3.641   2.233   0.973 -0.1496 -0.7520  0.3974
  719MOL0     C96950   3.746   2.342   0.996 -0.7322 -0.2285  1.4106
  719MOL0     C96951   3.701   2.468   1.074  0.0025  0.1581  0.5453
  719MOL0     C96952   3.619   2.567   0.990  0.6873  0.1531  0.2816
  719MOL0     C96953   3.647   2.711   1.025  0.4033 -0.2188 -0.3231
  719MOL0     O96954   3.553   2.793   0.959 -1.1498  0.1010 -0.0479
  719MOL0     C96955   3.594   2.926   0.943 -0.5464 -0.6985 -0.1375
  719MOL0     C96956   3.513   3.006   0.864 -0.2648  0.6095 -0.2349
  719MOL0     C96957   3.547   3.135   0.831  0.0422 -0.3058 -0.5324
  719MOL0     C96958   3.461   3.202   0.730  0.3340 -0.1172 -0.2007
  719MOL0     C96959   3.654   3.207   0.898 -0.1914  1.1129 -0.2295
  719MOL0     C96960   3.695   3.346   0.881 -0.2613  0.9821 -0.0759
  719MOL0     O96961   3.792   3.392   0.968  0.1872 -0.1601  0.2739
  719MOL0     C96962   3.795   3.535   0.973  0.1967 -0.4603  0.2879
  719MOL0     C96963   3.880   3.602   0.883 -0.4851 -0.2120  0.4994
  719MOL0     C96964   3.869   3.738   0.879 -0.0301  0.0580  0.1693
  719MOL0     C96965   3.788   3.813   0.977 -0.3451  0.0837  0.2566
  719MOL0     O96966   3.783   3.955   0.980  0.3577  0.4440 -0.3561
  719MOL0     C96967   3.843   4.037   0.885  0.8089  0.5215 -0.0931
  719MOL0     C96968   3.779   4.016   0.740 -0.1211 -0.5334 -0.5279
  719MOL0     C96969   3.659   4.105   0.708  0.2112 -0.9799  0.0400
  719MOL0     C96970   3.525   4.056   0.767  0.5812 -0.2506 -0.7920
  719MOL0     C96971   3.397   4.134   0.729  0.4557 -0.3060  0.1762
  719MOL0     C96972   3.376   4.146   0.576 -0.3121 -0.7753  0.3553
  719MOL0     C96973   3.244   4.220   0.552  0.6916 -0.5100 -0.6579
  719MOL0     C96974   3.110   4.129   0.564  1.2183 -1.0041 -0.2603
  719MOL0    Cl96975   2.965   4.242   0.558  0.2929 -0.0968  0.3218
  719MOL0     C96976   3.714   3.741   1.067  0.6083  0.1563 -0.3924
  719MOL0     C96977   3.709   3.603   1.062  1.1628  0.0351 -0.0176
  719MOL0     O96978   3.640   3.415   0.801 -0.0331  0.5910  0.1092
  719MOL0     C96979   3.729   3.123   0.988 -0.4472 -0.3881 -0.7809
  719MOL0     C96980   3.698   2.988   1.016  0.2420  0.2234 -0.6915
  719MOL0     N96981   3.635   2.145   0.869  0.4100 -0.2618 -0.1816
  719MOL0     N96982   3.551   2.048   0.891 -0.2942  0.0641  0.7373
  719MOL0     C96983   2.406   2.018   0.873  0.2675  0.3131  0.5409
  719MOL0     C96984   2.295   2.015   0.789 -0.0018  0.0014  0.2193
  719MOL0     C96985   2.010   2.157   0.454  0.8006 -0.7874 -0.5201
  719MOL0     C96986   2.007   2.210   0.330 -0.9608 -0.2733 -0.0702
  719MOL0     C96987   1.891   2.214   0.249  0.8000  0.5023 -0.1523
  719MOL0     C96988   1.771   2.184   0.308 -0.2310  0.9917 -0.6711
  719MOL0     O96989   1.648   2.217   0.245  0.3784 -0.1784  0.1643
  719MOL0     C96990   1.631   2.215   0.104 -0.1059  0.2767 -0.0097
  719MOL0     C96991   1.489   2.183   0.079 -0.0629  0.0025  0.6391
  719MOL0     C96992   1.446   2.209  -0.070  0.2412  0.3592  0.0816
  719MOL0     C96993   1.360   2.342  -0.072  0.8760 -0.0291  0.2709
  719MOL0     C96994   1.224   2.311  -0.020 -0.3705 -0.2740 -0.0863
  719MOL0     C96995   1.132   2.289   0.049  0.7861  0.3032 -0.2843
  719MOL0     C96996   1.776   2.120   0.431  0.6768 -0.0182 -0.2507
  719MOL0     C96997   1.890   2.109   0.516  0.2191  0.4830 -0.9011
  719MOL0     H96998   2.221   2.346   0.754 -2.1914 -0.2014  0.3295
  719MOL0     H96999   2.431   2.353   0.905 -1.9513  1.5364  0.3731
  719MOL0     H97000   2.627   1.963   1.061 -0.5179  1.7094  2.2089
  719MOL0     H97001   2.698   2.022   0.908  1.6067  1.6577 -0.9432
  719MOL0     H97002   2.759   2.203   1.126  0.7915 -0.2613 -1.5299
  719MOL0     H97003   2.818   2.035   1.174  2.2307 -2.5301 -2.5873
  719MOL0     H97004   2.945   2.018   0.987  0.8181 -1.1808  3.4015
  719MOL0     H97005   2.866   2.157   0.897  1.0045  0.9557  0.3443
  719MOL0     H97006   2.969   2.314   1.053  0.9914  1.7169 -0.0888
  719MOL0     H97007   3.042   2.185   1.150 -0.6718  0.3425 -0.4463
  719MOL0     H97008   3.090   2.241   0.855 -1.1786  0.3789 -0.3695
  719MOL0     H97009   3.197   2.301   0.976  0.0668  0.1787 -0.8019
  719MOL0     H97010   3.178   2.020   0.883  1.1800 -4.1165  4.1874
  719MOL0     H97011   3.309   2.134   0.885  0.4004 -0.5102  0.2786
  719MOL0     H97012   3.280   2.125   1.155  1.2535  0.7796 -0.3940
  719MOL0     H97013   3.200   1.977   1.119 -1.8130  2.8275  3.0053
  719MOL0     H97014   3.395   1.890   0.997 -0.0728 -1.7368  1.5162
  719MOL0     H97015   3.424   1.922   1.169 -1.1069  0.9795 -0.2985
  719MOL0     H97016   3.530   2.220   1.166  4.8113 -0.5729  0.6387
  719MOL0     H97017   3.834   2.295   1.041  1.4105  0.3286 -1.7761
  719MOL0     H97018   3.775   2.375   0.895 -0.2767 -2.1102  0.8718
  719MOL0     H97019   3.771   2.540   1.117 -1.7009  3.1959 -1.3927
  719MOL0     H97020   3.639   2.421   1.151 -1.3361  0.0925 -0.5314
  719MOL0     H97021   3.513   2.540   1.000  1.4023 -2.3183  2.2528
  719MOL0     H97022   3.634   2.539   0.885 -0.9982 -0.4054  0.1625
  719MOL0     H97023   3.750   2.732   0.995  0.1901 -1.3026 -1.9342
  719MOL0     H97024   3.639   2.732   1.132 -0.6291 -0.4421 -0.3409
  719MOL0     H97025   3.434   2.950   0.815  0.6899 -1.8287  0.8447
  719MOL0     H97026   3.394   3.132   0.679 -0.4959 -0.2754  1.0612
  719MOL0     H97027   3.404   3.285   0.775 -0.5100  0.4685 -2.2154
  719MOL0     H97028   3.521   3.248   0.652 -0.7946 -0.3120 -1.2236
  719MOL0     H97029   3.956   3.549   0.826  0.6025  0.9084  0.8644
  719MOL0     H97030   3.921   3.797   0.804 -0.1432 -0.6845 -0.5026
  719MOL0     H97031   3.818   4.138   0.918 -3.2484 -0.4078  0.1537
  719MOL0     H97032   3.953   4.040   0.885  0.7973  1.2958  0.2362
  719MOL0     H97033   3.859   4.033   0.668  0.3625  1.0777  0.3334
  719MOL0     H97034   3.744   3.912   0.739  1.3274 -1.0543  0.4043
  719MOL0     H97035   3.663   4.118   0.599  1.1987 -0.9523  0.0714
  719MOL0     H97036   3.673   4.209   0.739  1.4731 -0.5821 -1.7317
  719MOL0     H97037   3.509   3.953   0.734 -1.9993  0.5174 -2.2183
  719MOL0     H97038   3.519   4.054   0.876  1.3460 -0.0287 -0.7443
  719MOL0     H97039   3.424   4.235   0.761  3.5762 -1.1575  0.5172
  719MOL0     H97040   3.312   4.087   0.780  2.0050 -1.6771  1.6633
  719MOL0     H97041   3.461   4.190   0.523  1.3433 -1.8154  2.0088
  719MOL0     H97042   3.363   4.047   0.530 -1.2593 -1.1523  1.3925
  719MOL0     H97043   3.247   4.265   0.453 -1.1946  3.1194  0.7597
  719MOL0     H97044   3.219   4.305   0.616 -2.0468 -0.9940 -0.9659
  719MOL0     H97045   3.107   4.073   0.657 -0.9510  3.3421  2.6158
  719MOL0     H97046   3.101   4.061   0.478 -0.2702 -0.1987 -0.7780
  719MOL0     H97047   3.657   3.801   1.136  0.0266  0.4434 -1.1106
  719MOL0     H97048   3.653   3.545   1.135  2.1930 -0.3814  0.4649
  719MOL0     H97049   3.812   3.162   1.045  0.4852  1.0377 -2.9564
  719MOL0     H97050   3.759   2.939   1.092  0.9179 -2.0560 -2.6061
  719MOL0     H97051   2.448   1.923   0.905 -0.8340 -0.7350 -0.9679
  719MOL0     H97052   2.271   1.919   0.744  0.9270  0.5318 -1.4859
  719MOL0     H97053   2.087   2.246   0.265 -2.6746 -1.3032 -2.9684
  719MOL0     H97054   1.909   2.234   0.144  1.2638 -0.7916 -0.3311
  719MOL0     H97055   1.663   2.314   0.071  1.2002  0.4663  1.6662
  719MOL0     H97056   1.683   2.137   0.049 -0.8871  0.7146 -1.4246
  719MOL0     H97057   1.424   2.223   0.157  0.8874  0.3275  1.2847
  719MOL0     H97058   1.477   2.075   0.089  1.2654 -0.3034 -0.7196
  719MOL0     H97059   1.373   2.131  -0.096  0.2139 -0.0831  1.4127
  719MOL0     H97060   1.534   2.217  -0.133  1.0539  1.0740  1.2711
  719MOL0     H97061   1.364   2.372  -0.177 -3.2787 -1.1321 -0.3691
  719MOL0     H97062   1.408   2.422  -0.015  1.7757 -0.2453 -0.1588
  719MOL0     H97063   1.054   2.268   0.120  1.7703 -0.9052  0.4693
  719MOL0     H97064   1.683   2.086   0.475  1.7190 -1.6975  0.7487
  719MOL0     H97065   1.892   2.076   0.619  4.0711 -2.6499 -1.7338
  720MOL0     O97066   3.045   0.021   9.250  0.3319 -0.8493  0.0172
  720MOL0     C97067   3.076   0.106   9.330  0.0078  0.2273  0.6188
  720MOL0     O97068   3.012   0.141   9.454 -0.6767  0.0881  0.0842
  720MOL0     C97069   2.882   0.102   9.456  1.2065 -0.1552  0.4462
  720MOL0     C97070   2.847  -0.022   9.510 -0.6928  0.5926 -0.2497
  720MOL0     C97071   2.710  -0.054   9.515 -0.0378 -0.0683  0.7616
  720MOL0     C97072   2.615   0.033   9.457  0.2888  0.5326 -0.7650
  720MOL0     O97073   2.487   0.004   9.443 -0.5759  0.0224 -0.0771
  720MOL0     C97074   2.427  -0.088   9.534  0.6241  0.6841  0.3195
  720MOL0     C97075   2.428  -0.227   9.467 -0.4100  0.3483 -0.2950
  720MOL0     C97076   2.395  -0.334   9.578  0.6710  0.5286  0.0935
  720MOL0     C97077   2.365  -0.477   9.511 -0.9491 -0.0006 -0.3980
  720MOL0     C97078   2.373  -0.596   9.616  0.0534 -0.3070  0.3078
  720MOL0     C97079   2.324  -0.731   9.552  0.1417 -0.4103 -0.4683
  720MOL0     C97080   2.174  -0.749   9.582  0.4548  0.1534  0.3668
  720MOL0     C97081   2.068  -0.649   9.517 -0.2168 -0.3525  0.0070
  720MOL0     N97082   1.934  -0.696   9.481 -0.3157  0.1291 -0.4007
  720MOL0     C97083   1.817  -0.640   9.523  0.7066  0.3771 -0.8383
  720MOL0     C97084   1.717  -0.722   9.475  0.9715  0.6585  0.2647
  720MOL0     C97085   1.565  -0.723   9.483  0.0727  0.4980  0.4636
  720MOL0     C97086   1.501  -0.602   9.423 -0.3458  0.1493 -0.6762
  720MOL0     C97087   1.349  -0.567   9.455  0.0994 -0.8541  0.0825
  720MOL0     C97088   1.266  -0.692   9.471  0.0503 -0.4097  0.1568
  720MOL0     O97089   1.143  -0.658   9.546 -0.3279 -0.9428  0.1418
  720MOL0     C97090   1.021  -0.653   9.481 -0.2179 -0.8565  0.7255
  720MOL0     C97091   1.011  -0.637   9.349 -0.5864 -0.0855 -0.1218
  720MOL0     C97092   0.891  -0.645   9.286 -0.0549 -0.0350 -0.4695
  720MOL0     C97093   0.885  -0.610   9.140 -0.6405 -0.0851  0.4702
  720MOL0     C97094   0.776  -0.697   9.358 -0.4875  0.0578 -0.3107
  720MOL0     C97095   0.638  -0.729   9.293  0.2479  0.3872 -0.3941
  720MOL0     O97096   0.546  -0.774   9.381 -0.1658  0.0015 -0.5080
  720MOL0     C97097   0.414  -0.785   9.337 -0.1692  0.5394  0.9136
  720MOL0     C97098   0.333  -0.677   9.334 -0.0157  0.6629  1.0767
  720MOL0     C97099   0.195  -0.698   9.312 -0.4564  0.6684 -0.8218
  720MOL0     C97100   0.150  -0.829   9.291  0.5435  0.1608  0.0076
  720MOL0     O97101   0.019  -0.829   9.253  0.2737 -0.0877 -0.3720
  720MOL0     C97102  -0.065  -0.936   9.300 -0.5591  0.8178  0.0971
  720MOL0     C97103  -0.203  -0.891   9.295  0.6737 -1.0706 -0.0502
  720MOL0     C97104  -0.232  -0.806   9.425  0.1110  1.2107  0.5267
  720MOL0     C97105  -0.384  -0.836   9.455 -0.0416 -0.3360  0.6468
  720MOL0     C97106  -0.409  -0.974   9.521 -0.7649 -0.4449 -0.4167
  720MOL0     C97107  -0.557  -1.026   9.539 -0.4759 -0.6632  0.5354
  720MOL0     C97108  -0.634  -0.925   9.631 -0.4908  0.3183 -0.1613
  720MOL0     C97109  -0.770  -0.975   9.685  0.1804  0.8811  0.1386
  720MOL0    Cl97110  -0.763  -1.133   9.760 -0.3102 -0.1564  0.2235
  720MOL0     C97111   0.239  -0.933   9.275  0.3503  0.5071  0.7589
  720MOL0     C97112   0.370  -0.916   9.306  0.6760  0.4457 -0.6744
  720MOL0     O97113   0.618  -0.717   9.179  1.0062  0.0326  0.2178
  720MOL0     C97114   0.789  -0.717   9.499 -0.0272 -0.0521 -0.4276
  720MOL0     C97115   0.913  -0.689   9.561  0.2526 -0.4155 -0.4754
  720MOL0     N97116   1.785  -0.830   9.412  1.0326 -0.6919 -0.0259
  720MOL0     N97117   1.912  -0.807   9.411  0.4095 -0.1892  0.6466
  720MOL0     C97118   2.653   0.163   9.422 -0.6220 -0.4738  0.0676
  720MOL0     C97119   2.782   0.199   9.417 -1.2695 -0.3288  0.3391
  720MOL0     C97120   3.205   0.168   9.285 -0.5503 -0.0917  0.2473
  720MOL0     C97121   3.258   0.161   9.155 -0.2360  0.2838  0.3961
  720MOL0     C97122   3.376   0.232   9.127 -0.5722  0.2916 -0.3008
  720MOL0     C97123   3.436   0.323   9.220  0.2701  0.4993  0.1352
  720MOL0     O97124   3.541   0.405   9.199  0.7593  0.1152  0.3174
  720MOL0     C97125   3.561   0.439   9.060 -0.6309 -0.1888  0.2626
  720MOL0     C97126   3.689   0.524   9.050  0.3535 -0.3335 -0.4634
  720MOL0     C97127   3.692   0.648   9.145  0.1219 -0.3764 -0.9673
  720MOL0     C97128   3.829   0.676   9.219  0.0350 -0.7250  0.0947
  720MOL0     C97129   3.944   0.654   9.133  0.2344 -0.4232  0.6190
  720MOL0     C97130   4.044   0.631   9.070  0.1630 -1.0283  0.1060
  720MOL0     C97131   3.378   0.339   9.346  0.5012  0.4880 -0.3117
  720MOL0     C97132   3.272   0.252   9.376  0.0721 -0.4936  0.4786
  720MOL0     H97133   2.921  -0.093   9.546  0.0146  1.5839  0.2999
  720MOL0     H97134   2.691  -0.155   9.550  1.0233  0.3684  2.8103
  720MOL0     H97135   2.485  -0.088   9.627 -0.8394 -0.1375  1.2562
  720MOL0     H97136   2.323  -0.064   9.554  0.6269  0.7916  0.2060
  720MOL0     H97137   2.350  -0.228   9.390  0.1003  0.6560 -0.8232
  720MOL0     H97138   2.521  -0.254   9.416  1.9912  2.6984  2.4597
  720MOL0     H97139   2.478  -0.358   9.646  0.7108 -0.4864 -0.2862
  720MOL0     H97140   2.320  -0.298   9.649 -0.8088  0.5997 -1.4507
  720MOL0     H97141   2.263  -0.471   9.473 -1.2590  0.4523  0.4831
  720MOL0     H97142   2.444  -0.484   9.436 -1.0035 -0.3937 -0.4215
  720MOL0     H97143   2.475  -0.608   9.654  0.4124  0.0384 -0.5042
  720MOL0     H97144   2.300  -0.562   9.690 -2.5357 -1.8746 -1.3908
  720MOL0     H97145   2.343  -0.740   9.445  0.4789 -1.6177 -0.3265
  720MOL0     H97146   2.358  -0.824   9.600 -0.6986 -0.8427 -0.6896
  720MOL0     H97147   2.149  -0.850   9.548 -2.2130  0.8283  0.0786
  720MOL0     H97148   2.167  -0.743   9.691  0.3995  0.9824  0.3223
  720MOL0     H97149   2.100  -0.619   9.417 -0.2569  0.3681  0.2026
  720MOL0     H97150   2.048  -0.557   9.572 -1.5885 -0.8729  0.4214
  720MOL0     H97151   1.800  -0.547   9.577 -0.9342 -0.7200  0.6453
  720MOL0     H97152   1.527  -0.807   9.425 -1.1466 -0.2708  2.2789
  720MOL0     H97153   1.532  -0.740   9.586 -0.0937 -1.6887  0.0950
  720MOL0     H97154   1.509  -0.617   9.315 -4.4432  1.7904 -1.4066
  720MOL0     H97155   1.558  -0.510   9.443 -2.4765  1.9243 -2.2254
  720MOL0     H97156   1.309  -0.504   9.375  0.8694  0.2365  0.5306
  720MOL0     H97157   1.343  -0.508   9.548 -0.7243  0.4872 -0.7843
  720MOL0     H97158   1.315  -0.771   9.529  0.3605 -0.2762  0.0770
  720MOL0     H97159   1.260  -0.739   9.372  1.7347  0.6683 -0.4849
  720MOL0     H97160   1.091  -0.588   9.294  1.0898 -3.5000 -0.9978
  720MOL0     H97161   0.807  -0.536   9.119  0.2934  0.8287  0.1173
  720MOL0     H97162   0.971  -0.556   9.100  0.1835 -0.5068  1.6190
  720MOL0     H97163   0.873  -0.701   9.082 -0.5453  2.6778 -4.3995
  720MOL0     H97164   0.369  -0.581   9.371  1.9364  0.3147  0.1375
  720MOL0     H97165   0.129  -0.612   9.320 -3.5191 -1.5037 -1.0709
  720MOL0     H97166  -0.051  -1.017   9.228  0.3821  1.0327  0.0348
  720MOL0     H97167  -0.023  -0.974   9.394 -0.0350 -0.8115 -0.7538
  720MOL0     H97168  -0.223  -0.834   9.204 -0.0389  0.4204  1.0026
  720MOL0     H97169  -0.273  -0.975   9.287 -0.1835 -0.4508  0.7143
  720MOL0     H97170  -0.220  -0.705   9.385  0.5162  0.3085 -1.7636
  720MOL0     H97171  -0.178  -0.827   9.518 -2.1078  1.5765  1.9861
  720MOL0     H97172  -0.427  -0.755   9.515 -1.3571 -0.1195 -0.5245
  720MOL0     H97173  -0.452  -0.840   9.369 -1.2853 -0.5221  1.5983
  720MOL0     H97174  -0.357  -0.970   9.617 -2.3754  5.2018  0.5686
  720MOL0     H97175  -0.356  -1.047   9.459  1.8824  1.6355 -0.7576
  720MOL0     H97176  -0.619  -1.032   9.448 -1.3392  0.2200  1.0476
  720MOL0     H97177  -0.562  -1.129   9.577  0.5769 -1.7873 -2.0996
  720MOL0     H97178  -0.648  -0.832   9.575 -0.8564 -0.8461 -2.1383
  720MOL0     H97179  -0.568  -0.903   9.715 -1.1419 -1.1116  0.7676
  720MOL0     H97180  -0.837  -0.995   9.601  2.9893 -2.2367 -1.6140
  720MOL0     H97181  -0.810  -0.901   9.755  0.7834  0.3959  1.0159
  720MOL0     H97182   0.195  -1.021   9.228 -1.2696  2.3206 -1.2711
  720MOL0     H97183   0.431  -1.005   9.299 -0.5877 -0.7527  2.0455
  720MOL0     H97184   0.712  -0.765   9.559  2.3585 -0.8979  2.2070
  720MOL0     H97185   0.929  -0.696   9.669  2.5894  3.5528 -0.3408
  720MOL0     H97186   2.570   0.220   9.383 -0.1912  0.8891  1.0705
  720MOL0     H97187   2.812   0.297   9.383 -1.1990 -0.0914  1.0785
  720MOL0     H97188   3.214   0.089   9.087 -0.5706  1.1807 -0.3601
  720MOL0     H97189   3.409   0.226   9.024 -0.7664  0.1449 -0.3552
  720MOL0     H97190   3.585   0.351   9.000 -1.9116 -1.6691  1.8186
  720MOL0     H97191   3.481   0.502   9.020  1.4564  2.5160  0.0796
  720MOL0     H97192   3.715   0.559   8.950  3.0372  0.7817  0.5256
  720MOL0     H97193   3.771   0.454   9.070  1.2312  1.0194  0.9048
  720MOL0     H97194   3.628   0.639   9.234  3.0503  1.2915  1.5192
  720MOL0     H97195   3.663   0.738   9.090 -3.3281  0.4998  1.8755
  720MOL0     H97196   3.848   0.594   9.288  3.7121  0.2946  0.5177
  720MOL0     H97197   3.825   0.766   9.280 -0.4745 -0.3065 -0.5400
  720MOL0     H97198   4.125   0.603   9.006 -0.4071  1.4425 -1.8548
  720MOL0     H97199   3.420   0.400   9.426  0.4238 -0.2743  0.3156
  720MOL0     H97200   3.236   0.261   9.478  0.7364  1.6429  0.5719
  721MOL0     O97201  10.515   5.409   8.035 -0.4818  0.1580  0.8562
  721MOL0     C97202  10.618   5.470   7.995  0.9020 -0.0256  0.4995
  721MOL0     O97203  10.622   5.607   7.975  0.0763  0.2720  0.6333
  721MOL0     C97204  10.506   5.681   7.971  0.6420 -0.0877 -0.5733
  721MOL0     C97205  10.493   5.775   7.863  0.2569  0.6141  0.5410
  721MOL0     C97206  10.377   5.847   7.846  0.5267 -0.0588 -0.9488
  721MOL0     C97207  10.277   5.855   7.944 -0.0192 -0.1110  0.7622
  721MOL0     O97208  10.172   5.938   7.916 -0.7531  0.6557 -0.1554
  721MOL0     C97209  10.086   5.975   8.027  0.1243  1.0058 -0.7457
  721MOL0     C97210   9.960   6.038   7.959  0.3800 -0.1739  0.4010
  721MOL0     C97211   9.864   6.104   8.058  0.2377  0.2091  0.0006
  721MOL0     C97212   9.754   6.016   8.106 -0.9504 -0.5791 -0.1836
  721MOL0     C97213   9.659   6.123   8.176  0.0072  0.4312 -0.3526
  721MOL0     C97214   9.526   6.065   8.227  0.2569  0.3234 -0.2044
  721MOL0     C97215   9.454   6.162   8.325  0.3074 -0.7210 -0.2455
  721MOL0     C97216   9.328   6.103   8.384 -0.3313  0.5296 -0.0734
  721MOL0     N97217   9.221   6.070   8.290  0.6437  1.1540 -0.8421
  721MOL0     C97218   9.203   6.098   8.162  0.0447 -0.3533 -0.1654
  721MOL0     C97219   9.093   6.033   8.118  0.0693 -0.7060  0.4639
  721MOL0     C97220   9.027   6.065   7.981 -0.0266 -0.6213  0.3947
  721MOL0     C97221   8.929   5.962   7.935  0.4971 -0.7525  0.0548
  721MOL0     C97222   8.823   5.989   7.829 -0.0030  0.5131 -0.3604
  721MOL0     C97223   8.718   6.096   7.867 -0.4513  0.2324 -0.1449
  721MOL0     O97224   8.602   6.085   7.779  0.1199  0.0941  0.0616
  721MOL0     C97225   8.526   6.200   7.780 -0.8639 -0.2829  0.6749
  721MOL0     C97226   8.566   6.322   7.725 -0.1444  0.0974  0.1089
  721MOL0     C97227   8.473   6.431   7.720 -0.4781  0.1088  0.5447
  721MOL0     C97228   8.526   6.558   7.648  0.2172 -0.2262 -0.3176
  721MOL0     C97229   8.348   6.418   7.779 -1.1672  0.6145  0.8305
  721MOL0     C97230   8.238   6.525   7.768  0.1204 -0.2873 -0.1474
  721MOL0     O97231   8.110   6.491   7.815 -0.2688 -0.3742  0.2827
  721MOL0     C97232   8.000   6.574   7.806 -0.5043 -0.0847 -0.7792
  721MOL0     C97233   7.872   6.528   7.764  0.7137  0.0761  0.3045
  721MOL0     C97234   7.756   6.609   7.766 -0.2793 -0.2072  0.3789
  721MOL0     C97235   7.772   6.750   7.795  0.3868 -0.6018 -1.1919
  721MOL0     O97236   7.670   6.839   7.774  0.0281 -0.1875 -1.1340
  721MOL0     C97237   7.549   6.804   7.844  0.2105 -0.6358  0.4027
  721MOL0     C97238   7.431   6.895   7.812 -0.0280 -0.5456 -0.0130
  721MOL0     C97239   7.286   6.837   7.841  0.4842  0.0977 -0.8384
  721MOL0     C97240   7.182   6.937   7.846 -0.0465 -0.7554 -1.3217
  721MOL0     C97241   7.044   6.873   7.887  0.6938  0.4844  0.9162
  721MOL0     C97242   6.945   6.985   7.913  1.4628  0.1649  0.0765
  721MOL0     C97243   6.953   7.036   8.058 -0.2847 -0.2458 -0.1544
  721MOL0     C97244   6.856   7.156   8.085 -0.3269 -0.0423  0.0901
  721MOL0    Cl97245   6.888   7.221   8.250 -0.2235  0.2786 -0.3465
  721MOL0     C97246   7.900   6.791   7.839 -0.6036 -0.2999 -0.0799
  721MOL0     C97247   8.009   6.703   7.853 -0.2273  0.2553  0.3986
  721MOL0     O97248   8.277   6.645   7.739  0.5277 -0.3438 -0.4587
  721MOL0     C97249   8.318   6.304   7.857 -0.8328 -0.2042 -0.2870
  721MOL0     C97250   8.405   6.197   7.849  0.4620  0.8972  0.3620
  721MOL0     N97251   9.037   5.970   8.224 -0.5081 -0.6401  0.6174
  721MOL0     N97252   9.113   5.995   8.327  0.7515  0.3114  0.2169
  721MOL0     C97253  10.291   5.770   8.055 -0.4207 -0.4633  0.3044
  721MOL0     C97254  10.405   5.688   8.067 -0.3267  0.0021  1.0293
  721MOL0     C97255  10.736   5.401   7.940  0.5547 -0.6198  0.5203
  721MOL0     C97256  10.739   5.262   7.942  0.0451  0.6563 -0.1018
  721MOL0     C97257  10.843   5.188   7.881 -0.3204  0.1030  0.5730
  721MOL0     C97258  10.958   5.252   7.842  0.2763 -1.0572  0.1778
  721MOL0     O97259  11.072   5.192   7.808  0.4408 -0.6236  0.5841
  721MOL0     C97260  11.104   5.063   7.866 -0.1436  0.1478 -0.1040
  721MOL0     C97261  11.232   5.001   7.798  0.8368  0.3655 -0.3469
  721MOL0     C97262  11.363   5.076   7.830 -0.5383  0.0301  0.6787
  721MOL0     C97263  11.465   5.017   7.740 -0.1206  0.4292  2.1510
  721MOL0     C97264  11.599   5.052   7.786  0.0122  0.1380  0.5486
  721MOL0     C97265  11.705   5.087   7.829 -0.2118  0.6369  0.2180
  721MOL0     C97266  10.952   5.395   7.841  0.1893  0.5802  0.6121
  721MOL0     C97267  10.848   5.463   7.887  0.5393 -0.2707 -0.4430
  721MOL0     H97268  10.569   5.772   7.785 -0.0333  2.0923  0.1858
  721MOL0     H97269  10.371   5.919   7.765 -2.2563 -0.0427 -0.8169
  721MOL0     H97270  10.055   5.881   8.075  1.1785 -0.0362 -2.0212
  721MOL0     H97271  10.134   6.043   8.098  1.1630 -0.4644  0.0288
  721MOL0     H97272  10.006   6.119   7.901 -0.2758 -0.2422 -0.2274
  721MOL0     H97273   9.906   5.967   7.896 -1.1659  0.6619  0.7069
  721MOL0     H97274   9.923   6.134   8.145  3.0006 -3.4177 -0.3848
  721MOL0     H97275   9.818   6.191   8.009 -1.9405 -0.9016 -0.0410
  721MOL0     H97276   9.705   5.970   8.020  0.2335  0.8977 -1.7163
  721MOL0     H97277   9.785   5.943   8.182  1.2691 -1.2153 -1.6172
  721MOL0     H97278   9.709   6.160   8.266  1.1698  0.0234 -0.8115
  721MOL0     H97279   9.643   6.211   8.113  1.3015 -0.3084 -1.7795
  721MOL0     H97280   9.465   6.044   8.138  2.7648 -0.1938 -1.8918
  721MOL0     H97281   9.546   5.969   8.275  2.9757 -0.3186 -2.3718
  721MOL0     H97282   9.523   6.182   8.408  0.0630  0.9361 -0.4022
  721MOL0     H97283   9.424   6.248   8.265 -2.7974 -1.7282 -0.2838
  721MOL0     H97284   9.296   6.179   8.456 -1.5582  3.2022 -3.2230
  721MOL0     H97285   9.343   6.019   8.453 -3.8423  1.4656  2.1367
  721MOL0     H97286   9.263   6.167   8.103 -0.2491 -0.1187 -0.1906
  721MOL0     H97287   8.982   6.164   7.989  1.6839  0.4922 -2.2689
  721MOL0     H97288   9.092   6.067   7.893  0.0633 -1.5202  0.4233
  721MOL0     H97289   8.872   5.923   8.019 -1.4367 -1.4767 -1.5262
  721MOL0     H97290   8.983   5.874   7.898 -0.4603 -1.8086  1.1082
  721MOL0     H97291   8.764   5.899   7.811  4.5806 -3.0369  0.5201
  721MOL0     H97292   8.873   6.013   7.735  2.2749  0.2092  0.7068
  721MOL0     H97293   8.773   6.190   7.855  5.1363 -2.6284 -0.2805
  721MOL0     H97294   8.682   6.092   7.970 -1.3557  1.2816 -0.3940
  721MOL0     H97295   8.658   6.322   7.668 -0.7906 -0.7171 -0.9683
  721MOL0     H97296   8.523   6.643   7.717 -1.3194 -1.6537  1.5248
  721MOL0     H97297   8.626   6.544   7.608 -0.4696 -2.2160 -1.4765
  721MOL0     H97298   8.458   6.583   7.566  0.6143  0.0452 -0.5677
  721MOL0     H97299   7.861   6.425   7.735  0.0252  0.1351  0.3498
  721MOL0     H97300   7.661   6.568   7.734 -0.5629  1.1892 -0.6456
  721MOL0     H97301   7.507   6.704   7.834 -2.6428  0.6281 -1.5234
  721MOL0     H97302   7.577   6.819   7.949  1.4853  2.3896 -0.2425
  721MOL0     H97303   7.444   6.989   7.865  1.0971 -1.1183  0.7619
  721MOL0     H97304   7.437   6.898   7.702  1.0046 -2.1576 -0.0424
  721MOL0     H97305   7.280   6.801   7.944 -0.2302  2.1010 -0.1298
  721MOL0     H97306   7.266   6.762   7.764  0.6906 -0.4721 -0.3470
  721MOL0     H97307   7.223   6.999   7.926  2.1348  0.2889 -3.1439
  721MOL0     H97308   7.171   6.993   7.753  1.1744  1.3960 -0.2569
  721MOL0     H97309   7.066   6.799   7.965 -1.0332 -0.7170  0.3181
  721MOL0     H97310   7.000   6.820   7.802  0.4117  1.9454  0.1205
  721MOL0     H97311   6.954   7.064   7.837  2.2380 -0.7550 -0.8173
  721MOL0     H97312   6.847   6.942   7.889  1.4740  0.1320  0.0897
  721MOL0     H97313   7.056   7.062   8.084 -1.4132  0.7142  4.2071
  721MOL0     H97314   6.928   6.952   8.122  1.4765  0.1728  1.1275
  721MOL0     H97315   6.748   7.154   8.066 -0.2646  0.4111 -0.3580
  721MOL0     H97316   6.897   7.237   8.023 -0.6761  0.8185  0.9502
  721MOL0     H97317   7.927   6.894   7.859  2.5132 -1.3763  2.0643
  721MOL0     H97318   8.106   6.739   7.888  0.6814  0.8297 -2.4734
  721MOL0     H97319   8.232   6.291   7.922 -1.5852  0.8414 -1.0413
  721MOL0     H97320   8.390   6.115   7.918  1.8559  0.4820  0.2020
  721MOL0     H97321  10.228   5.764   8.143  2.7602  0.7518  2.8770
  721MOL0     H97322  10.418   5.629   8.157 -0.4937 -1.4148  0.1495
  721MOL0     H97323  10.663   5.196   7.982  2.6426 -1.6229  1.4527
  721MOL0     H97324  10.833   5.081   7.895 -0.7795  0.5311  4.6204
  721MOL0     H97325  11.133   5.056   7.971  1.8025 -0.2989 -0.6331
  721MOL0     H97326  11.022   4.991   7.854  1.9105 -2.2193 -0.9314
  721MOL0     H97327  11.218   4.980   7.692  1.5539 -0.6598 -0.2451
  721MOL0     H97328  11.246   4.904   7.845  0.3126  1.2603  1.7557
  721MOL0     H97329  11.393   5.068   7.935  0.5760  0.3798  0.4031
  721MOL0     H97330  11.349   5.180   7.800 -1.7586 -0.1527  0.5872
  721MOL0     H97331  11.467   5.067   7.642  0.1349 -1.7853  0.9512
  721MOL0     H97332  11.455   4.910   7.717 -1.3166  1.3019 -2.6521
  721MOL0     H97333  11.798   5.111   7.877  0.1542 -2.6022  1.3544
  721MOL0     H97334  11.036   5.418   7.777  0.2928 -1.0454  0.1156
  721MOL0     H97335  10.848   5.571   7.883  1.8797 -0.0599  2.5910
  722MOL0     O97336   9.779   9.462  10.813  0.1134 -0.3979 -0.8076
  722MOL0     C97337   9.704   9.365  10.841 -0.2356 -0.3833 -0.1472
  722MOL0     O97338   9.746   9.236  10.874 -0.5374 -0.5334 -0.5864
  722MOL0     C97339   9.871   9.221  10.916 -0.4283  0.3591  2.0459
  722MOL0     C97340   9.975   9.207  10.816  0.4405 -0.2064  0.1817
  722MOL0     C97341  10.102   9.176  10.858  0.4030 -0.0412 -0.7824
  722MOL0     C97342  10.134   9.149  10.991  0.4399 -0.4332 -0.3036
  722MOL0     O97343  10.269   9.121  11.008  0.3535  0.5885  0.0875
  722MOL0     C97344  10.300   9.091  11.142 -0.6395 -0.1348  0.4513
  722MOL0     C97345  10.441   9.043  11.119 -0.2361  0.1051 -0.1893
  722MOL0     C97346  10.542   9.163  11.111  0.4560  0.1165  0.4967
  722MOL0     C97347  10.581   9.211  11.249  0.4899  0.4431  0.8711
  722MOL0     C97348  10.703   9.302  11.245  0.5374 -0.3010 -0.0165
  722MOL0     C97349  10.683   9.447  11.214  0.6193  0.4738 -0.4425
  722MOL0     C97350  10.804   9.532  11.250  0.1944 -0.2428  0.9379
  722MOL0     C97351  10.775   9.684  11.241  0.1897  0.3031  0.2316
  722MOL0     N97352  10.762   9.725  11.099  0.0203  0.2672  0.2594
  722MOL0     C97353  10.838   9.686  10.991 -0.7214  0.2576 -0.5069
  722MOL0     C97354  10.808   9.767  10.887  0.2980  0.0146 -0.4838
  722MOL0     C97355  10.868   9.777  10.749 -0.0703  0.4149 -0.2263
  722MOL0     C97356  11.022   9.796  10.742  0.2340 -0.0069 -0.6583
  722MOL0     C97357  11.052   9.937  10.791  0.0726  0.6272  0.5489
  722MOL0     C97358  11.199   9.961  10.812  0.6945  0.0705 -0.0152
  722MOL0     O97359  11.262   9.880  10.914 -0.6888  0.5072  0.2527
  722MOL0     C97360  11.371   9.940  10.978 -0.0151  1.3653  0.9696
  722MOL0     C97361  11.434   9.852  11.074 -0.5096  0.6473  0.6430
  722MOL0     C97362  11.532   9.901  11.155 -0.2009  0.8038  0.4419
  722MOL0     C97363  11.608   9.805  11.246 -0.5233 -0.3588 -0.2672
  722MOL0     C97364  11.584  10.034  11.144  0.0632  0.4112 -0.2320
  722MOL0     C97365  11.705  10.086  11.218  0.3880 -0.9597  0.5086
  722MOL0     O97366  11.819  10.024  11.182  0.3227 -1.0785 -0.0942
  722MOL0     C97367  11.929  10.030  11.268  0.1326  0.2807 -0.1892
  722MOL0     C97368  11.932  10.049  11.409  0.3291  0.2872 -0.0859
  722MOL0     C97369  12.049  10.035  11.488  0.6815 -0.9280  0.6041
  722MOL0     C97370  12.174  10.019  11.417  0.4917  0.8974 -0.3776
  722MOL0     O97371  12.293  10.055  11.473  0.0117  0.3219 -0.4251
  722MOL0     C97372  12.292  10.070  11.616 -0.8538 -0.2409  0.7217
  722MOL0     C97373  12.444  10.078  11.654 -0.1744  0.0491  0.5798
  722MOL0     C97374  12.461  10.101  11.800 -0.2222  0.6681 -0.5220
  722MOL0     C97375  12.606  10.142  11.844  0.5250  0.6963  0.0045
  722MOL0     C97376  12.707  10.025  11.842 -1.2197 -0.3822 -0.8021
  722MOL0     C97377  12.851  10.058  11.880  0.5736 -0.1348  0.1920
  722MOL0     C97378  12.872  10.156  12.002 -0.2881  0.0400 -0.6960
  722MOL0     C97379  12.810  10.095  12.126  0.3543  0.4665 -1.2050
  722MOL0    Cl97380  12.797  10.219  12.254  0.0912  0.1533  0.0263
  722MOL0     C97381  12.171   9.991  11.282 -0.9146  1.0388 -0.1176
  722MOL0     C97382  12.053   9.993  11.216 -0.4172  0.2289  0.4443
  722MOL0     O97383  11.694  10.169  11.312  0.0572  0.0324 -0.3048
  722MOL0     C97384  11.527  10.114  11.040  0.7645 -0.0129  0.1709
  722MOL0     C97385  11.422  10.070  10.962 -0.0141 -0.6827 -0.1753
  722MOL0     N97386  10.727   9.860  10.947  0.3052  0.2707 -0.3461
  722MOL0     N97387  10.706   9.843  11.071  0.8952 -0.4397 -0.0815
  722MOL0     C97388  10.031   9.163  11.087  0.6595  0.5386 -0.8084
  722MOL0     C97389   9.897   9.197  11.051 -0.2286 -0.1411 -0.6878
  722MOL0     C97390   9.557   9.386  10.832 -0.0160 -0.4304  0.1126
  722MOL0     C97391   9.507   9.506  10.780  0.2376  0.9330 -0.6782
  722MOL0     C97392   9.376   9.527  10.767 -0.1682 -0.2401 -0.5553
  722MOL0     C97393   9.283   9.432  10.819  0.3225  0.5161 -0.2167
  722MOL0     O97394   9.146   9.460  10.790  0.0911 -0.0016  0.1667
  722MOL0     C97395   9.045   9.369  10.838  0.1342 -0.6997  0.0272
  722MOL0     C97396   8.920   9.444  10.869 -0.3054 -0.2524 -0.2528
  722MOL0     C97397   8.805   9.352  10.913 -0.3388 -0.0759  1.3185
  722MOL0     C97398   8.673   9.431  10.950 -1.0673 -0.0514  0.1625
  722MOL0     C97399   8.560   9.350  10.898 -0.4310  0.1801  1.1114
  722MOL0     C97400   8.475   9.290  10.835  0.6844  0.5101 -0.3081
  722MOL0     C97401   9.331   9.318  10.877 -0.6652 -0.0114 -0.0905
  722MOL0     C97402   9.469   9.290  10.885  0.1358  0.1849 -0.2533
  722MOL0     H97403   9.954   9.209  10.710  1.7624 -5.1523 -0.4245
  722MOL0     H97404  10.176   9.148  10.783  1.7905 -1.7574  1.1140
  722MOL0     H97405  10.278   9.175  11.208 -2.0089 -0.8996  0.9981
  722MOL0     H97406  10.239   9.008  11.179  1.0445 -2.3556 -1.4670
  722MOL0     H97407  10.461   8.979  11.205 -1.8572 -0.7038 -0.3872
  722MOL0     H97408  10.450   8.982  11.029  1.5333  0.3071 -0.1997
  722MOL0     H97409  10.630   9.127  11.057 -0.6512 -0.4882 -0.9967
  722MOL0     H97410  10.505   9.252  11.059 -0.3927  2.3804  4.6022
  722MOL0     H97411  10.496   9.259  11.299  1.3810 -0.1604  3.1110
  722MOL0     H97412  10.622   9.126  11.305  1.0445 -0.4403 -0.8204
  722MOL0     H97413  10.748   9.287  11.344 -1.0046  2.3574  1.2019
  722MOL0     H97414  10.783   9.261  11.183  2.0392  0.1143  1.5540
  722MOL0     H97415  10.668   9.448  11.106 -1.3275  0.9307 -0.1957
  722MOL0     H97416  10.591   9.487  11.257 -0.9799 -0.8604 -2.4202
  722MOL0     H97417  10.847   9.511  11.348 -0.8545 -1.7723  1.1023
  722MOL0     H97418  10.882   9.509  11.176 -0.9046  2.0830 -1.1205
  722MOL0     H97419  10.853   9.744  11.290  1.8936 -1.0113 -0.7611
  722MOL0     H97420  10.681   9.697  11.295  0.1481 -0.0035  0.2330
  722MOL0     H97421  10.893   9.593  10.990 -0.3226  0.4074 -3.4753
  722MOL0     H97422  10.841   9.685  10.695  1.4160  0.0499 -0.3871
  722MOL0     H97423  10.810   9.861  10.709 -1.1870 -0.7080 -1.0495
  722MOL0     H97424  11.059   9.781  10.640 -0.0069 -4.3804 -0.2540
  722MOL0     H97425  11.065   9.720  10.807  2.2099 -0.5139 -2.4136
  722MOL0     H97426  11.004   9.950  10.888  0.6349  3.2540  0.5426
  722MOL0     H97427  11.004  10.008  10.724 -3.2653 -0.6805  1.3900
  722MOL0     H97428  11.189  10.060  10.856 -2.3847 -1.5151  3.3393
  722MOL0     H97429  11.262   9.967  10.722  1.6935  0.2135  0.6690
  722MOL0     H97430  11.396   9.750  11.077  1.1248 -0.0815 -1.3408
  722MOL0     H97431  11.596   9.839  11.350  0.1634 -2.3431  0.4951
  722MOL0     H97432  11.570   9.703  11.247 -2.6171  0.2351  3.7135
  722MOL0     H97433  11.712   9.809  11.213 -1.2017 -0.4734 -2.6174
  722MOL0     H97434  11.844  10.073  11.467 -0.1758  1.7121 -1.3775
  722MOL0     H97435  12.031  10.048  11.594 -0.7280 -0.6814  0.3511
  722MOL0     H97436  12.254  10.170  11.637 -0.6515  0.5433 -2.2821
  722MOL0     H97437  12.239   9.989  11.667 -0.9777 -0.0466  0.9036
  722MOL0     H97438  12.502   9.990  11.626  0.4339  1.2319 -2.2349
  722MOL0     H97439  12.479  10.165  11.597 -2.1137  0.8194  0.4884
  722MOL0     H97440  12.436  10.008  11.852  0.3336  1.2882  0.9123
  722MOL0     H97441  12.391  10.176  11.838  0.5442  0.9153  0.4228
  722MOL0     H97442  12.648  10.221  11.782  0.6024  3.0256  2.7753
  722MOL0     H97443  12.595  10.180  11.947  0.0275 -2.2717  1.1511
  722MOL0     H97444  12.714   9.980  11.743  0.2150  0.8791 -1.3078
  722MOL0     H97445  12.677   9.944  11.910  2.1078 -1.2125 -0.1789
  722MOL0     H97446  12.901   9.965  11.909  3.0669  1.2840  0.7797
  722MOL0     H97447  12.910  10.104  11.800  1.1131  0.1996  0.7741
  722MOL0     H97448  12.820  10.249  11.976  1.9546  0.9041 -2.4566
  722MOL0     H97449  12.977  10.170  12.027 -0.2666 -2.4929  0.9516
  722MOL0     H97450  12.872  10.012  12.159  1.3500  1.3256 -0.8685
  722MOL0     H97451  12.707  10.066  12.104 -1.2956  2.6294  2.6172
  722MOL0     H97452  12.260   9.974  11.222  1.4115  1.0919  3.0678
  722MOL0     H97453  12.056   9.972  11.110 -1.2822  1.8572  0.0582
  722MOL0     H97454  11.568  10.211  11.014 -2.1587  1.1342 -0.5264
  722MOL0     H97455  11.387  10.144  10.891  3.3047 -0.4734 -1.7871
  722MOL0     H97456  10.048   9.152  11.194  0.0442  0.4072 -0.7154
  722MOL0     H97457   9.827   9.184  11.134  0.9008 -1.9656  0.0325
  722MOL0     H97458   9.565   9.593  10.750 -1.2024  1.2958 -2.5944
  722MOL0     H97459   9.346   9.625  10.734  0.8524 -0.0785 -1.0441
  722MOL0     H97460   9.038   9.284  10.770 -0.0547  0.5054 -1.5077
  722MOL0     H97461   9.084   9.316  10.926 -1.8860 -2.1889  0.1089
  722MOL0     H97462   8.884   9.488  10.775 -2.0458  0.1319  0.5502
  722MOL0     H97463   8.938   9.520  10.946 -0.4434 -0.8626  0.3865
  722MOL0     H97464   8.832   9.279  10.990 -1.5990 -3.5598 -1.2698
  722MOL0     H97465   8.780   9.298  10.821  0.9397 -0.9685  1.4843
  722MOL0     H97466   8.682   9.528  10.901  0.5117  0.1906  0.8902
  722MOL0     H97467   8.660   9.444  11.058  0.3892 -3.7158  0.9387
  722MOL0     H97468   8.392   9.230  10.803 -1.0065  1.1368  2.5141
  722MOL0     H97469   9.267   9.240  10.919  0.5442 -0.5658  0.7665
  722MOL0     H97470   9.506   9.200  10.931 -3.3152  0.0247  2.6394
  723MOL0     O97471   7.217   7.252  10.821 -0.0072 -0.1145  0.4769
  723MOL0     C97472   7.237   7.271  10.695 -0.3561  0.9041 -1.2176
  723MOL0     O97473   7.142   7.296  10.608  0.4676  0.8246 -0.0173
  723MOL0     C97474   7.019   7.335  10.652  0.3203  0.1051  0.2180
  723MOL0     C97475   6.934   7.242  10.722  1.1734 -0.4452 -0.3462
  723MOL0     C97476   6.802   7.278  10.767  0.1347  0.9879  1.0336
  723MOL0     C97477   6.752   7.399  10.730  0.1373  0.2624  0.3643
  723MOL0     O97478   6.621   7.435  10.751  0.7522 -0.3982 -0.0440
  723MOL0     C97479   6.563   7.413  10.882  0.3805  0.5435  0.5700
  723MOL0     C97480   6.445   7.512  10.904 -0.1809 -0.5625 -1.1399
  723MOL0     C97481   6.309   7.480  10.843 -0.2993  1.3885  0.1512
  723MOL0     C97482   6.188   7.503  10.927  0.0036  0.2987 -0.1874
  723MOL0     C97483   6.060   7.453  10.863  0.1607  0.6250 -0.1470
  723MOL0     C97484   5.993   7.541  10.745 -0.4403 -0.3198  0.3957
  723MOL0     C97485   5.839   7.513  10.739  1.1276  1.5814  0.7033
  723MOL0     C97486   5.769   7.604  10.640 -0.6101 -0.2724  1.4798
  723MOL0     N97487   5.623   7.576  10.615  0.5381 -0.5337 -0.3007
  723MOL0     C97488   5.529   7.676  10.586  0.1492 -0.0829  0.3094
  723MOL0     C97489   5.428   7.610  10.514  0.8766 -0.8689  0.3922
  723MOL0     C97490   5.305   7.665  10.437 -0.4310  0.1314  0.3674
  723MOL0     C97491   5.172   7.644  10.510  0.3047 -0.0663 -0.6272
  723MOL0     C97492   5.054   7.668  10.420 -0.3321  0.1808 -0.2085
  723MOL0     C97493   4.916   7.662  10.495  0.6660  0.8574  0.2664
  723MOL0     O97494   4.892   7.780  10.571  0.0437  0.5808 -0.2220
  723MOL0     C97495   4.763   7.807  10.602 -0.4419  0.3394  0.4507
  723MOL0     C97496   4.695   7.915  10.543 -1.5627  0.5859  0.1255
  723MOL0     C97497   4.568   7.956  10.581 -0.2888  0.0425 -0.6398
  723MOL0     C97498   4.503   8.083  10.519  0.9001  0.2427 -0.6719
  723MOL0     C97499   4.501   7.877  10.681  0.6231 -0.6544 -0.7831
  723MOL0     C97500   4.365   7.906  10.733  0.2127  0.3871  1.1842
  723MOL0     O97501   4.308   7.816  10.824  0.1717 -0.3138  1.3228
  723MOL0     C97502   4.178   7.811  10.844  0.0646 -0.4124 -1.2002
  723MOL0     C97503   4.094   7.840  10.737  0.3109  0.5956  0.2777
  723MOL0     C97504   3.957   7.841  10.753  0.7082  0.8625 -0.0444
  723MOL0     C97505   3.906   7.826  10.884  0.4064  0.7361 -0.0305
  723MOL0     O97506   3.767   7.823  10.881 -0.2748  0.7930 -1.1979
  723MOL0     C97507   3.688   7.777  10.993 -0.3274  0.2688 -0.0393
  723MOL0     C97508   3.539   7.783  10.941 -0.3651 -0.5688 -0.3601
  723MOL0     C97509   3.446   7.707  11.042  0.2161  0.6937  0.1296
  723MOL0     C97510   3.298   7.729  11.008  0.2757  0.9807  0.9456
  723MOL0     C97511   3.244   7.872  11.015 -0.1318  0.4581  0.4630
  723MOL0     C97512   3.097   7.881  11.024  0.1513 -0.8952 -0.8844
  723MOL0     C97513   3.024   7.833  10.898  0.8473 -0.5040  0.0542
  723MOL0     C97514   2.881   7.812  10.927  0.2506 -0.3410 -0.2000
  723MOL0    Cl97515   2.796   7.804  10.780 -0.2858  0.1546 -0.6864
  723MOL0     C97516   3.989   7.794  10.989  0.1581 -0.6257  0.2747
  723MOL0     C97517   4.119   7.780  10.967 -0.7697  0.4612  0.6395
  723MOL0     O97518   4.307   8.012  10.692 -0.2604  0.2227 -0.5837
  723MOL0     C97519   4.572   7.768  10.729  0.0586 -0.3907 -0.7560
  723MOL0     C97520   4.700   7.729  10.700  0.0935 -0.6271  0.4716
  723MOL0     N97521   5.457   7.481  10.516  0.2815  0.2174 -0.7466
  723MOL0     N97522   5.568   7.458  10.572 -0.0869  0.2530 -0.5468
  723MOL0     C97523   6.827   7.482  10.648 -0.6438 -0.4665  0.1815
  723MOL0     C97524   6.961   7.458  10.620  0.0405  0.5616  1.5886
  723MOL0     C97525   7.371   7.281  10.650 -0.7182  0.0219  0.7940
  723MOL0     C97526   7.379   7.267  10.510  0.3225 -0.1046 -0.2389
  723MOL0     C97527   7.505   7.272  10.444 -0.2607  0.0579  0.3253
  723MOL0     C97528   7.624   7.272  10.511  0.2607 -1.0120  0.4354
  723MOL0     O97529   7.746   7.289  10.452  0.9764  0.7398  0.3984
  723MOL0     C97530   7.861   7.310  10.527 -0.4094  0.5855 -0.6874
  723MOL0     C97531   7.980   7.340  10.456  0.7623  0.6581  0.1381
  723MOL0     C97532   8.095   7.360  10.555  0.1951 -0.3504 -0.3282
  723MOL0     C97533   8.234   7.396  10.487  0.7593 -0.6907 -0.1788
  723MOL0     C97534   8.219   7.496  10.384  1.0231  0.4223  0.8868
  723MOL0     C97535   8.216   7.554  10.275  0.0596  0.6576  0.6081
  723MOL0     C97536   7.607   7.275  10.654 -0.5813  0.2863 -0.4052
  723MOL0     C97537   7.485   7.276  10.724 -0.5169  0.0208 -0.1511
  723MOL0     H97538   6.974   7.146  10.754 -0.9212 -0.5569  2.3883
  723MOL0     H97539   6.746   7.211  10.831  0.8111  1.6151  2.3345
  723MOL0     H97540   6.532   7.309  10.895 -2.0865  0.5520 -3.4732
  723MOL0     H97541   6.639   7.446  10.954  1.9989  1.4667 -1.4459
  723MOL0     H97542   6.443   7.505  11.013 -0.6519 -0.9130 -1.1640
  723MOL0     H97543   6.484   7.611  10.879  2.2219 -1.2729 -0.4896
  723MOL0     H97544   6.306   7.540  10.751  0.9350  2.0992  0.5503
  723MOL0     H97545   6.309   7.379  10.800  0.5407  0.3238  2.4745
  723MOL0     H97546   6.197   7.444  11.020  0.9919 -1.0337 -1.0926
  723MOL0     H97547   6.182   7.609  10.951  3.3441 -0.0558  3.2847
  723MOL0     H97548   6.085   7.355  10.823 -1.1541  0.4645 -0.6453
  723MOL0     H97549   5.988   7.440  10.944  0.4684 -0.5826 -0.0498
  723MOL0     H97550   5.995   7.647  10.775  4.2123 -0.5655  1.7275
  723MOL0     H97551   6.039   7.521  10.648 -0.5285  0.2364  0.2342
  723MOL0     H97552   5.818   7.408  10.716  0.2476  1.9461 -0.1732
  723MOL0     H97553   5.796   7.545  10.835 -0.4903  2.7431 -0.3651
  723MOL0     H97554   5.814   7.588  10.542  1.0115  0.9948  1.9724
  723MOL0     H97555   5.773   7.705  10.684  0.7163 -0.1264  1.0473
  723MOL0     H97556   5.539   7.779  10.617  2.9242 -0.2388  0.1963
  723MOL0     H97557   5.330   7.771  10.424 -2.3048  0.4332 -1.1922
  723MOL0     H97558   5.304   7.618  10.339  1.4675 -2.7783  1.5890
  723MOL0     H97559   5.162   7.713  10.594 -1.6708 -0.8922 -0.1280
  723MOL0     H97560   5.163   7.546  10.558 -4.5596 -1.3719 -3.4356
  723MOL0     H97561   5.052   7.588  10.346  0.8298  0.5941 -0.7101
  723MOL0     H97562   5.071   7.769  10.381  0.5198 -0.6396 -2.0514
  723MOL0     H97563   4.916   7.577  10.565  3.4315  0.9528  0.4706
  723MOL0     H97564   4.835   7.659  10.422  0.0774  2.1266  0.8359
  723MOL0     H97565   4.757   7.971  10.474 -0.7553 -0.4254  0.0106
  723MOL0     H97566   4.467   8.154  10.594 -1.6580 -0.5182 -1.0877
  723MOL0     H97567   4.569   8.142  10.455 -0.2812  1.0891 -1.1465
  723MOL0     H97568   4.414   8.049  10.465  1.1982 -2.5947  0.4497
  723MOL0     H97569   4.126   7.871  10.638 -0.1211  2.4703  0.6867
  723MOL0     H97570   3.891   7.869  10.671 -0.6137  0.7307  0.9643
  723MOL0     H97571   3.705   7.674  11.025 -0.0663  0.8943  2.0440
  723MOL0     H97572   3.703   7.840  11.082  0.5795 -0.9503  0.6955
  723MOL0     H97573   3.516   7.890  10.933  1.7820 -0.1746 -2.5629
  723MOL0     H97574   3.530   7.745  10.839  0.5733  0.5063 -0.8682
  723MOL0     H97575   3.471   7.754  11.138  1.4733  0.6884 -0.1677
  723MOL0     H97576   3.468   7.601  11.052  0.7430  1.0088  3.4444
  723MOL0     H97577   3.276   7.699  10.905 -0.5338 -2.1009  1.9148
  723MOL0     H97578   3.240   7.658  11.067  0.5704 -1.0685 -1.0888
  723MOL0     H97579   3.292   7.930  10.936  0.2058  0.1537  0.4373
  723MOL0     H97580   3.293   7.912  11.104 -1.6341  0.4565  1.3396
  723MOL0     H97581   3.072   7.834  11.120  1.1948 -2.1587 -1.2058
  723MOL0     H97582   3.070   7.987  11.027  1.3348 -0.4673 -3.2735
  723MOL0     H97583   3.063   7.738  10.859  0.8836 -1.4728  2.2837
  723MOL0     H97584   3.044   7.915  10.828  2.7404  2.2005  3.4401
  723MOL0     H97585   2.858   7.897  10.992  1.0104 -0.5930  0.4165
  723MOL0     H97586   2.858   7.720  10.982  0.4506 -0.3158 -0.0732
  723MOL0     H97587   3.950   7.771  11.087  2.4766 -0.7718  1.2195
  723MOL0     H97588   4.187   7.741  11.043 -0.7036 -0.0845  0.3012
  723MOL0     H97589   4.529   7.706  10.807  5.7111 -1.3376  2.1539
  723MOL0     H97590   4.752   7.649  10.751  1.1927 -0.7519 -0.7937
  723MOL0     H97591   6.790   7.570  10.597  1.1765  0.8554  1.0251
  723MOL0     H97592   7.010   7.521  10.547  2.4951 -0.6165  2.1131
  723MOL0     H97593   7.292   7.253  10.446  1.2209  1.9048 -1.9913
  723MOL0     H97594   7.515   7.295  10.338  0.2951  4.4829  1.1816
  723MOL0     H97595   7.835   7.390  10.597  0.7466 -0.4242  1.0078
  723MOL0     H97596   7.880   7.226  10.596  2.1030 -0.0472 -2.0011
  723MOL0     H97597   7.960   7.427  10.392  0.4714  1.3437  1.1452
  723MOL0     H97598   7.994   7.258  10.384 -0.0854 -0.3440  1.0727
  723MOL0     H97599   8.100   7.266  10.612 -1.9122  0.3293  1.1114
  723MOL0     H97600   8.062   7.445  10.615 -1.0606 -0.1030 -1.3233
  723MOL0     H97601   8.275   7.305  10.443 -0.3492 -0.2364 -2.2661
  723MOL0     H97602   8.307   7.447  10.550 -0.6364  2.4764 -0.9510
  723MOL0     H97603   8.198   7.605  10.182 -0.8347 -2.1228 -0.8562
  723MOL0     H97604   7.695   7.262  10.717 -0.7196  0.8315 -0.0971
  723MOL0     H97605   7.476   7.261  10.831 -4.6031  0.4920 -0.2750
  724MOL0     O97606   8.859   5.710  11.100 -0.0454 -0.1051  0.0025
  724MOL0     C97607   8.897   5.776  11.001 -1.0406  1.0704 -0.5296
  724MOL0     O97608   8.862   5.754  10.876  0.0090 -0.2035  0.6103
  724MOL0     C97609   8.794   5.641  10.846  0.0192 -0.5530  0.6780
  724MOL0     C97610   8.657   5.627  10.867  0.1376 -0.1938 -0.0449
  724MOL0     C97611   8.578   5.517  10.824 -0.4745  0.6320  0.1100
  724MOL0     C97612   8.655   5.412  10.768  0.2007  0.9049  0.4297
  724MOL0     O97613   8.599   5.289  10.722  0.0331 -0.0061 -0.4505
  724MOL0     C97614   8.522   5.215  10.817  0.0392 -0.4167  0.4199
  724MOL0     C97615   8.504   5.068  10.762  0.8599 -0.6002  0.1489
  724MOL0     C97616   8.386   5.000  10.832 -0.0513 -0.2525 -0.6733
  724MOL0     C97617   8.387   5.011  10.979  0.0010 -0.5414  0.3470
  724MOL0     C97618   8.255   4.963  11.031  0.4935 -0.2396  0.4409
  724MOL0     C97619   8.236   4.967  11.183  0.0771  0.8828  0.2179
  724MOL0     C97620   8.083   4.950  11.210  0.4265 -0.0946  0.6003
  724MOL0     C97621   8.031   4.809  11.219 -0.0259 -0.0392  0.6887
  724MOL0     N97622   7.878   4.811  11.246  0.1761  0.0644 -0.5616
  724MOL0     C97623   7.787   4.924  11.253 -0.8460 -0.3111 -0.3608
  724MOL0     C97624   7.693   4.893  11.342  0.2226 -0.1161  0.3941
  724MOL0     C97625   7.594   4.996  11.397  0.1054  0.9346  0.6527
  724MOL0     C97626   7.500   5.064  11.292  0.2642 -0.1350  0.4711
  724MOL0     C97627   7.436   4.958  11.197 -0.0846 -0.4866 -0.8646
  724MOL0     C97628   7.334   4.858  11.263 -0.3767 -0.2238 -0.8190
  724MOL0     O97629   7.259   4.936  11.366  0.1066 -0.3624  1.1897
  724MOL0     C97630   7.155   4.875  11.428 -0.6915 -0.6744 -0.8295
  724MOL0     C97631   7.082   4.775  11.372 -0.1218 -0.5833 -0.6691
  724MOL0     C97632   6.977   4.710  11.432  0.2761 -0.5769 -0.4631
  724MOL0     C97633   6.926   4.590  11.358 -0.6488  1.0033  0.8077
  724MOL0     C97634   6.922   4.770  11.551 -0.5978 -0.2450 -0.2281
  724MOL0     C97635   6.796   4.716  11.614  0.4493 -0.1429  0.2466
  724MOL0     O97636   6.745   4.782  11.724 -0.3611 -0.6322  0.1683
  724MOL0     C97637   6.609   4.797  11.732  0.8292  1.1421  0.4613
  724MOL0     C97638   6.519   4.714  11.804 -0.2043  0.0470  0.6214
  724MOL0     C97639   6.388   4.755  11.832 -0.1091  1.3417 -0.4642
  724MOL0     C97640   6.338   4.877  11.776  0.7433  0.1094 -0.6310
  724MOL0     O97641   6.207   4.917  11.804  0.3427 -0.4611 -0.2521
  724MOL0     C97642   6.102   4.826  11.837  0.3304 -0.9472 -0.9465
  724MOL0     C97643   5.972   4.912  11.843  0.0251 -0.5140  0.1405
  724MOL0     C97644   5.858   4.820  11.800 -0.1146  0.5102 -0.0049
  724MOL0     C97645   5.728   4.890  11.839  0.5359  0.1367  0.1111
  724MOL0     C97646   5.685   5.000  11.735  0.3337 -0.0911  0.4383
  724MOL0     C97647   5.534   5.053  11.736  0.1606  0.6733 -0.3009
  724MOL0     C97648   5.504   5.160  11.630  0.4566  0.1859 -0.0573
  724MOL0     C97649   5.392   5.253  11.676  0.0339 -0.4371 -0.0849
  724MOL0    Cl97650   5.236   5.174  11.623  0.2955  0.0046  0.3559
  724MOL0     C97651   6.426   4.957  11.698  0.2357  0.4498  0.0664
  724MOL0     C97652   6.562   4.919  11.673 -0.2627 -0.1986 -0.6070
  724MOL0     O97653   6.739   4.624  11.558  0.4241  0.1192  0.2117
  724MOL0     C97654   6.983   4.884  11.600 -1.0530 -0.5589 -0.2820
  724MOL0     C97655   7.101   4.938  11.546 -1.0202  0.3169  0.1641
  724MOL0     N97656   7.703   4.760  11.371  0.1350 -0.8255 -0.1631
  724MOL0     N97657   7.809   4.710  11.311  0.5216 -0.4897 -0.2487
  724MOL0     C97658   8.797   5.420  10.756  0.5578  0.8897 -0.3565
  724MOL0     C97659   8.862   5.536  10.788 -0.2836  0.1956 -0.8443
  724MOL0     C97660   9.010   5.862  11.020  0.0447  0.0812  0.5039
  724MOL0     C97661   9.039   5.918  11.148 -0.6394 -0.1483 -0.0918
  724MOL0     C97662   9.155   5.995  11.175 -0.1618  0.5356  1.2633
  724MOL0     C97663   9.243   6.027  11.074  0.9151  1.4583  0.1331
  724MOL0     O97664   9.340   6.113  11.116 -0.0658  0.2421  0.4749
  724MOL0     C97665   9.461   6.125  11.032 -1.0237 -0.2904 -0.7008
  724MOL0     C97666   9.559   6.205  11.118 -0.4868  0.3080  0.2344
  724MOL0     C97667   9.505   6.349  11.165 -0.7550  0.1969 -0.8153
  724MOL0     C97668   9.633   6.415  11.226 -0.1626 -0.5924 -0.3674
  724MOL0     C97669   9.602   6.554  11.235 -0.6800  0.1637 -0.5716
  724MOL0     C97670   9.577   6.671  11.245 -0.7914  0.2242 -0.4373
  724MOL0     C97671   9.218   5.976  10.944 -0.6893  0.1716 -0.0260
  724MOL0     C97672   9.109   5.884  10.921 -0.7306 -0.1758 -0.5988
  724MOL0     H97673   8.600   5.706  10.915 -2.2032 -1.0704 -1.2524
  724MOL0     H97674   8.473   5.521  10.848 -0.6350  0.0218 -0.4699
  724MOL0     H97675   8.582   5.215  10.909  0.8497  0.4194 -0.0883
  724MOL0     H97676   8.424   5.263  10.819 -1.1265 -2.4837 -2.0185
  724MOL0     H97677   8.492   5.068  10.653  1.9178  1.4421 -0.0143
  724MOL0     H97678   8.596   5.014  10.785  3.0632  3.2183  1.2505
  724MOL0     H97679   8.290   5.034  10.793 -0.2205  0.5114  0.3732
  724MOL0     H97680   8.395   4.895  10.800 -0.9446 -0.3750 -0.5406
  724MOL0     H97681   8.468   4.955  11.026  0.1294  2.0257  3.5850
  724MOL0     H97682   8.412   5.114  11.005 -1.2827 -0.3014  0.6951
  724MOL0     H97683   8.178   5.027  10.988 -1.1155 -0.1205  3.2217
  724MOL0     H97684   8.224   4.861  11.004 -0.0639 -0.2345  1.0299
  724MOL0     H97685   8.304   4.891  11.223  1.1965  2.1648  0.8554
  724MOL0     H97686   8.278   5.062  11.216  0.5112  0.9601 -0.5551
  724MOL0     H97687   8.055   5.003  11.302 -1.0574  0.1405  0.0362
  724MOL0     H97688   8.039   5.019  11.137  0.8742  2.5137  2.6407
  724MOL0     H97689   8.086   4.759  11.299  0.7444  2.0869  1.5725
  724MOL0     H97690   8.041   4.755  11.124  0.4038 -1.3562  1.4597
  724MOL0     H97691   7.805   5.020  11.207  3.1077 -1.3012 -1.2282
  724MOL0     H97692   7.534   4.954  11.478 -1.7062 -0.1869 -1.1958
  724MOL0     H97693   7.650   5.078  11.444  0.1287  0.3599  1.6510
  724MOL0     H97694   7.558   5.131  11.227 -2.0270  0.3632 -1.1795
  724MOL0     H97695   7.422   5.127  11.337 -1.4496  2.8708 -5.5619
  724MOL0     H97696   7.505   4.906  11.131  1.0331 -1.2912  0.8572
  724MOL0     H97697   7.368   5.011  11.130 -1.8721  0.0121  1.2058
  724MOL0     H97698   7.399   4.787  11.315  0.0756  1.2851  0.7766
  724MOL0     H97699   7.284   4.793  11.190 -0.9203  0.8952 -1.4767
  724MOL0     H97700   7.115   4.726  11.282 -0.0495 -2.3247  0.2710
  724MOL0     H97701   6.829   4.606  11.309  0.3391  1.1145 -1.1769
  724MOL0     H97702   6.994   4.558  11.279 -0.5622  0.8191  0.9547
  724MOL0     H97703   6.925   4.504  11.426  0.2925  0.4182  0.1130
  724MOL0     H97704   6.541   4.615  11.841 -2.4919 -0.4382  0.8282
  724MOL0     H97705   6.322   4.692  11.890 -2.2812  1.2678 -2.8406
  724MOL0     H97706   6.090   4.749  11.761 -0.1462 -0.1148 -1.7373
  724MOL0     H97707   6.114   4.787  11.938 -0.1561 -0.9592 -0.8905
  724MOL0     H97708   5.974   4.954  11.943  2.1186 -1.6584  0.6459
  724MOL0     H97709   5.978   4.981  11.758  1.2841 -0.9779 -0.1764
  724MOL0     H97710   5.861   4.723  11.850  2.2869  1.6778  2.3133
  724MOL0     H97711   5.877   4.802  11.694  0.7778 -0.0683  0.2449
  724MOL0     H97712   5.644   4.821  11.851 -0.4799  1.3888  0.3484
  724MOL0     H97713   5.751   4.931  11.937  0.4413 -0.9181  0.5844
  724MOL0     H97714   5.709   4.975  11.631  0.2086  0.0014  0.3881
  724MOL0     H97715   5.738   5.088  11.772 -1.7991  1.2397  0.4864
  724MOL0     H97716   5.482   4.962  11.706 -0.2772  1.3969 -1.8386
  724MOL0     H97717   5.510   5.085  11.838 -0.8560  1.9894 -0.9240
  724MOL0     H97718   5.475   5.110  11.536  0.7666  1.3282 -0.7789
  724MOL0     H97719   5.594   5.219  11.615  0.1008  1.4997  2.5530
  724MOL0     H97720   5.402   5.355  11.636 -0.4471 -0.8568 -1.3229
  724MOL0     H97721   5.393   5.263  11.785  2.2900 -0.9216 -0.0027
  724MOL0     H97722   6.394   5.050  11.651 -1.1920 -1.1317 -2.3454
  724MOL0     H97723   6.632   4.979  11.615  0.5469 -1.3437 -0.8579
  724MOL0     H97724   6.948   4.945  11.684  1.1805  1.6537 -0.8379
  724MOL0     H97725   7.145   5.031  11.579  1.9619 -0.6565 -0.6963
  724MOL0     H97726   8.846   5.332  10.716 -0.8900  0.2575 -0.7960
  724MOL0     H97727   8.970   5.531  10.779 -0.3285 -0.0304 -1.2722
  724MOL0     H97728   8.965   5.901  11.225 -1.4360  0.5027 -0.7050
  724MOL0     H97729   9.167   6.032  11.276 -0.2923  1.3365  0.9905
  724MOL0     H97730   9.504   6.025  11.026  2.0266  0.7172  1.5603
  724MOL0     H97731   9.436   6.165  10.933 -0.9600  4.9958  1.1230
  724MOL0     H97732   9.651   6.214  11.058 -0.6961  1.6844  0.0965
  724MOL0     H97733   9.592   6.145  11.203 -0.6687 -0.4576 -0.2307
  724MOL0     H97734   9.429   6.339  11.242  0.3084  2.6622  0.6840
  724MOL0     H97735   9.469   6.424  11.093  0.1994  1.7833  0.2999
  724MOL0     H97736   9.713   6.437  11.154 -0.9194  3.2590 -0.2870
  724MOL0     H97737   9.665   6.389  11.327 -0.7580  1.5378  0.4266
  724MOL0     H97738   9.547   6.774  11.251  1.9008  1.0113  2.1344
  724MOL0     H97739   9.286   6.009  10.865 -1.3638 -0.5961 -0.9458
  724MOL0     H97740   9.100   5.835  10.825 -0.4556  1.2446 -1.3802
  725MOL0     O97741   2.427   8.957   6.563  0.5814 -0.3648  0.2763
  725MOL0     C97742   2.305   8.970   6.543 -0.6809 -0.1752 -0.5907
  725MOL0     O97743   2.241   9.089   6.513  0.4203  0.0030 -0.6136
  725MOL0     C97744   2.322   9.196   6.477 -0.0201  1.2128  0.1143
  725MOL0     C97745   2.320   9.325   6.537  0.0430 -0.2614  0.0073
  725MOL0     C97746   2.388   9.434   6.482  0.1425  0.1394 -0.2348
  725MOL0     C97747   2.471   9.417   6.377 -0.7661 -0.1636 -0.1269
  725MOL0     O97748   2.545   9.519   6.318 -0.4120  0.0119 -0.7152
  725MOL0     C97749   2.698   9.511   6.328  0.2220 -0.5429 -0.4907
  725MOL0     C97750   2.752   9.652   6.303  0.4400  0.1235  0.5299
  725MOL0     C97751   2.724   9.664   6.153  0.1198  0.1487 -0.7391
  725MOL0     C97752   2.762   9.801   6.100 -0.4262  0.9176 -0.1162
  725MOL0     C97753   2.735   9.811   5.952 -0.6174 -0.4179  0.2982
  725MOL0     C97754   2.580   9.834   5.930 -0.9213  1.4230 -0.7783
  725MOL0     C97755   2.554   9.890   5.793  0.5223  0.8427 -0.7839
  725MOL0     C97756   2.406   9.877   5.755 -0.4909 -0.3492  0.7400
  725MOL0     N97757   2.380   9.938   5.626 -0.2615 -1.1613  0.6012
  725MOL0     C97758   2.406   9.868   5.510  0.1266 -0.9639 -0.4875
  725MOL0     C97759   2.358   9.955   5.407  0.2137 -0.3510  0.4608
  725MOL0     C97760   2.359   9.906   5.262 -0.0211  0.1688  0.4468
  725MOL0     C97761   2.286   9.997   5.162  0.3323 -0.3938 -0.4202
  725MOL0     C97762   2.133  10.000   5.190  0.4598 -0.5410  0.7152
  725MOL0     C97763   2.093  10.081   5.066  0.5902 -0.4329 -0.2590
  725MOL0     O97764   1.951  10.090   5.058  0.2739 -0.5184 -0.0687
  725MOL0     C97765   1.904  10.186   4.972  0.2140 -0.5652  0.3662
  725MOL0     C97766   1.767  10.218   4.965 -0.5375 -0.4706  0.0621
  725MOL0     C97767   1.723  10.313   4.876 -0.1678 -0.5371 -0.2961
  725MOL0     C97768   1.573  10.342   4.885  0.0306  0.2398 -0.4044
  725MOL0     C97769   1.801  10.369   4.771 -1.1719  0.2145  0.5955
  725MOL0     C97770   1.743  10.431   4.653 -0.2408  0.3816 -0.0037
  725MOL0     O97771   1.829  10.431   4.547  0.6654 -1.0615 -0.2719
  725MOL0     C97772   1.787  10.476   4.422 -1.2419 -0.4193 -0.5481
  725MOL0     C97773   1.882  10.548   4.346 -0.4093 -1.0658  0.7543
  725MOL0     C97774   1.835  10.594   4.214  0.2471 -0.0962 -0.1088
  725MOL0     C97775   1.704  10.558   4.166 -0.2539 -0.3972 -0.2795
  725MOL0     O97776   1.637  10.611   4.055 -0.5714 -0.2954  0.0107
  725MOL0     C97777   1.702  10.708   3.978  0.3736 -0.1842  0.5899
  725MOL0     C97778   1.591  10.782   3.896 -0.1864 -0.2466 -0.2461
  725MOL0     C97779   1.485  10.858   3.983  0.9104  0.3557  1.1483
  725MOL0     C97780   1.364  10.916   3.905 -0.4392  0.0948  0.1364
  725MOL0     C97781   1.273  11.003   3.981  0.2247  0.3110  0.1180
  725MOL0     C97782   1.152  11.050   3.897 -0.1771  0.1915  0.1671
  725MOL0     C97783   1.089  11.158   3.985  0.1156 -0.0640  0.5985
  725MOL0     C97784   0.981  11.232   3.903  0.2716  0.1661  1.3339
  725MOL0    Cl97785   1.042  11.375   3.808 -0.1244 -0.0036  0.2797
  725MOL0     C97786   1.624  10.493   4.254  1.0790  1.0488 -0.2002
  725MOL0     C97787   1.657  10.449   4.383  0.3351  0.2600  0.3980
  725MOL0     O97788   1.625  10.474   4.650 -0.1746  0.3106 -0.4648
  725MOL0     C97789   1.938  10.327   4.766 -0.4519  0.1847  0.8210
  725MOL0     C97790   1.982  10.240   4.868 -0.7647  0.3426  0.7903
  725MOL0     N97791   2.307  10.066   5.466  0.0158 -0.1497  0.0273
  725MOL0     N97792   2.306  10.050   5.599 -0.5292  0.0148 -0.5380
  725MOL0     C97793   2.479   9.290   6.318 -0.1418 -0.8665 -0.0832
  725MOL0     C97794   2.404   9.186   6.365 -0.4712 -0.7019  0.3101
  725MOL0     C97795   2.223   8.845   6.555 -0.7696  0.3671 -0.3233
  725MOL0     C97796   2.283   8.721   6.588  0.1512 -1.1931  0.2219
  725MOL0     C97797   2.200   8.607   6.587 -0.2068 -0.5801  0.4597
  725MOL0     C97798   2.061   8.609   6.561  0.5471 -0.5180  1.1006
  725MOL0     O97799   1.972   8.504   6.556  0.6817 -1.2235 -0.5900
  725MOL0     C97800   2.002   8.390   6.636  1.1394  0.1913 -0.1743
  725MOL0     C97801   2.077   8.279   6.558  0.3427  0.5452 -1.0790
  725MOL0     C97802   2.086   8.150   6.641 -0.1326  0.3400  0.3071
  725MOL0     C97803   2.154   8.038   6.558  0.3677  0.2035  0.0539
  725MOL0     C97804   2.169   7.905   6.621 -0.5999  0.0265  0.0373
  725MOL0     C97805   2.172   7.787   6.655  0.6156  0.1282  0.1240
  725MOL0     C97806   2.013   8.734   6.523  0.2138  0.5362 -0.4229
  725MOL0     C97807   2.086   8.850   6.531 -0.2014  0.6035 -0.8565
  725MOL0     H97808   2.261   9.339   6.626 -0.0921 -2.7045  0.3611
  725MOL0     H97809   2.389   9.534   6.525 -0.1674 -0.5472  1.4114
  725MOL0     H97810   2.732   9.469   6.423 -0.2487  0.4172  0.1206
  725MOL0     H97811   2.743   9.447   6.253  1.9552  0.1922 -0.1211
  725MOL0     H97812   2.698   9.726   6.362  0.4343  0.3181  0.2838
  725MOL0     H97813   2.859   9.654   6.325  0.2487  1.5016  1.4399
  725MOL0     H97814   2.788   9.593   6.099 -0.4282  0.2020 -1.4820
  725MOL0     H97815   2.624   9.634   6.118 -0.2205 -1.4775  1.4588
  725MOL0     H97816   2.712   9.882   6.153  1.4795  1.8489  0.3253
  725MOL0     H97817   2.868   9.814   6.125 -0.4204 -1.4588  1.5052
  725MOL0     H97818   2.803   9.887   5.912  0.6727 -2.7139 -2.2391
  725MOL0     H97819   2.771   9.724   5.898 -1.5213  0.5084 -1.9323
  725MOL0     H97820   2.529   9.739   5.947  0.9380  0.4748 -0.2376
  725MOL0     H97821   2.533   9.894   6.007 -1.0788  0.6425 -0.2572
  725MOL0     H97822   2.574   9.996   5.778  2.4399  0.7328  0.5833
  725MOL0     H97823   2.615   9.829   5.725 -0.8473 -2.0213  0.4042
  725MOL0     H97824   2.347   9.924   5.834  1.8450  1.0050  1.7833
  725MOL0     H97825   2.392   9.769   5.766 -0.1280 -0.1927  3.1235
  725MOL0     H97826   2.466   9.780   5.490 -1.9316 -2.2650 -1.1947
  725MOL0     H97827   2.462   9.900   5.225  0.2437  1.1150  0.9701
  725MOL0     H97828   2.338   9.799   5.258  1.8400 -0.2047 -2.3796
  725MOL0     H97829   2.297   9.957   5.061 -3.0479 -0.5897 -0.8228
  725MOL0     H97830   2.329  10.098   5.167  0.6284 -0.4956 -0.8223
  725MOL0     H97831   2.115  10.052   5.284  2.1681  0.1478  0.7143
  725MOL0     H97832   2.099   9.897   5.200 -0.1589 -0.3205  0.8671
  725MOL0     H97833   2.115  10.026   4.974  1.4429  1.2637 -1.1128
  725MOL0     H97834   2.146  10.177   5.061 -3.9924  2.3481 -1.2076
  725MOL0     H97835   1.699  10.174   5.038 -3.1143  1.6317 -0.8972
  725MOL0     H97836   1.546  10.308   4.985  3.1499  0.6887  0.7000
  725MOL0     H97837   1.549  10.448   4.871 -0.3941  0.5818  2.3436
  725MOL0     H97838   1.514  10.279   4.817  0.9751  2.0788 -3.1303
  725MOL0     H97839   1.981  10.563   4.389 -0.3692 -0.1680  0.3859
  725MOL0     H97840   1.893  10.669   4.161  0.8624  1.0784  2.0801
  725MOL0     H97841   1.753  10.782   4.041  0.6935  0.5252 -0.4688
  725MOL0     H97842   1.774  10.661   3.911 -2.2885 -3.4813 -0.2232
  725MOL0     H97843   1.633  10.844   3.815  0.1244  1.3895  1.1152
  725MOL0     H97844   1.537  10.713   3.830 -2.9932  0.2839  1.3525
  725MOL0     H97845   1.529  10.946   4.030  0.8579  3.3369 -3.6368
  725MOL0     H97846   1.440  10.791   4.056 -0.8472 -1.9116 -1.7460
  725MOL0     H97847   1.401  10.965   3.815  0.3233  0.5983  0.7055
  725MOL0     H97848   1.305  10.833   3.866 -3.7056  2.8082 -1.1636
  725MOL0     H97849   1.320  11.092   4.023 -0.2317  0.6323 -0.0463
  725MOL0     H97850   1.234  10.942   4.063  0.6293  0.1936  0.2252
  725MOL0     H97851   1.192  11.099   3.808  0.7633 -1.7994 -0.5560
  725MOL0     H97852   1.087  10.969   3.864  2.4912 -1.2101 -2.1302
  725MOL0     H97853   1.165  11.226   4.024 -1.1389  1.0764  1.1237
  725MOL0     H97854   1.040  11.110   4.070  0.7799  1.5477  1.9212
  725MOL0     H97855   0.901  11.260   3.972  0.0878  0.3920  1.0376
  725MOL0     H97856   0.919  11.175   3.833  2.3890  0.6015 -1.0298
  725MOL0     H97857   1.527  10.461   4.216  2.2011 -0.1713 -2.2880
  725MOL0     H97858   1.588  10.382   4.434 -1.9573  0.9556 -1.6217
  725MOL0     H97859   2.016  10.359   4.698 -0.6485  0.2886  0.6431
  725MOL0     H97860   2.088  10.217   4.860 -0.8809  0.3186 -1.7591
  725MOL0     H97861   2.546   9.273   6.234  0.0971  1.5667 -0.4515
  725MOL0     H97862   2.409   9.101   6.297  0.2552  0.4548 -1.1455
  725MOL0     H97863   2.389   8.710   6.609 -0.3001 -1.1076  2.8762
  725MOL0     H97864   2.258   8.516   6.600  2.3091  0.4178 -2.5234
  725MOL0     H97865   2.046   8.409   6.734  1.2101  0.8462 -0.3252
  725MOL0     H97866   1.898   8.361   6.654  0.4561  2.5216 -0.0412
  725MOL0     H97867   2.181   8.308   6.545  1.1798 -2.6296 -2.5579
  725MOL0     H97868   2.018   8.260   6.467 -0.7536  0.0531 -0.2952
  725MOL0     H97869   1.988   8.109   6.668  0.9455 -1.0411  2.3906
  725MOL0     H97870   2.143   8.178   6.730 -1.1614  0.5977  0.9035
  725MOL0     H97871   2.259   8.059   6.538  0.6399  0.2169  1.4584
  725MOL0     H97872   2.098   8.030   6.464  0.2993  3.1645 -0.2357
  725MOL0     H97873   2.174   7.685   6.688 -1.3061 -1.4425 -3.9260
  725MOL0     H97874   1.910   8.746   6.489  1.3276  1.3513 -3.8630
  725MOL0     H97875   2.039   8.945   6.509  0.6170  0.9497 -1.1532
  726MOL0     O97876   8.750  10.771   5.918 -0.3446  0.0322 -0.0054
  726MOL0     C97877   8.734  10.651   5.909 -0.8721 -0.3674 -0.2483
  726MOL0     O97878   8.641  10.592   5.842 -0.4532  0.7474  0.5162
  726MOL0     C97879   8.540  10.662   5.787  0.3116  1.1165  0.9594
  726MOL0     C97880   8.456  10.745   5.864  0.2036  0.0986  0.3819
  726MOL0     C97881   8.363  10.824   5.809  0.5069 -0.5828  0.5279
  726MOL0     C97882   8.350  10.819   5.670 -0.1142 -0.5398  0.2076
  726MOL0     O97883   8.267  10.907   5.598  0.2022 -0.1546  0.0664
  726MOL0     C97884   8.254  11.050   5.639  0.3943  0.3414 -0.6304
  726MOL0     C97885   8.219  11.156   5.537 -0.0507  1.1640  1.0886
  726MOL0     C97886   8.349  11.186   5.458  0.4577 -0.6995 -1.0543
  726MOL0     C97887   8.316  11.274   5.329  0.1746 -0.4429 -0.5364
  726MOL0     C97888   8.451  11.284   5.268  0.2319  0.5070  0.5132
  726MOL0     C97889   8.435  11.351   5.133 -0.2838  0.6201  0.5263
  726MOL0     C97890   8.444  11.503   5.147  1.2600 -0.2801  0.0435
  726MOL0     C97891   8.460  11.562   5.012 -0.8225 -0.0724 -0.0922
  726MOL0     N97892   8.424  11.698   5.031  0.0043 -0.8331 -0.8634
  726MOL0     C97893   8.503  11.804   5.060 -0.0074  0.8237 -0.5403
  726MOL0     C97894   8.433  11.916   5.042 -0.9063 -0.4946  0.0769
  726MOL0     C97895   8.474  12.063   5.038 -0.2884  0.5075  1.1581
  726MOL0     C97896   8.470  12.126   4.911 -0.9873 -0.2765  0.5897
  726MOL0     C97897   8.585  12.071   4.824  0.0579 -0.7780  0.3327
  726MOL0     C97898   8.600  12.154   4.699 -0.0311  0.1783  0.5750
  726MOL0     O97899   8.625  12.290   4.710 -0.2110 -0.4285  0.3569
  726MOL0     C97900   8.537  12.375   4.649  0.9258 -0.0327  0.0730
  726MOL0     C97901   8.579  12.437   4.537 -0.3925 -0.9948  0.0121
  726MOL0     C97902   8.496  12.530   4.458 -0.1073  0.2356  0.2829
  726MOL0     C97903   8.567  12.599   4.346  0.8018  0.0467 -0.0421
  726MOL0     C97904   8.364  12.548   4.491  0.5882 -0.1339  0.2177
  726MOL0     C97905   8.259  12.642   4.422 -0.0713  0.0549 -0.0365
  726MOL0     O97906   8.128  12.605   4.447 -0.1754 -0.8189 -0.3655
  726MOL0     C97907   8.029  12.673   4.382  0.3509  0.1837 -0.2912
  726MOL0     C97908   7.924  12.608   4.329  0.2855 -0.1831  0.5886
  726MOL0     C97909   7.810  12.674   4.288 -0.0823  0.1703  0.0026
  726MOL0     C97910   7.794  12.813   4.292  0.6052  0.1802 -0.0314
  726MOL0     O97911   7.678  12.866   4.251  0.7456 -0.3858  0.0366
  726MOL0     C97912   7.585  12.936   4.337 -0.5253  1.0229  0.0515
  726MOL0     C97913   7.449  12.867   4.344  0.0930 -2.2610  0.5183
  726MOL0     C97914   7.354  12.928   4.451  0.7540  0.7138 -0.1409
  726MOL0     C97915   7.224  12.844   4.438 -0.2986  0.7715 -0.1803
  726MOL0     C97916   7.102  12.910   4.506 -0.5449  0.0682  0.3628
  726MOL0     C97917   7.050  13.023   4.416  0.1684 -0.6686 -0.6147
  726MOL0     C97918   6.918  13.084   4.478  0.1530  0.1976 -0.5363
  726MOL0     C97919   6.797  13.001   4.433 -0.4410 -0.6424  0.5104
  726MOL0    Cl97920   6.639  13.040   4.509 -0.1503 -0.5445 -0.3994
  726MOL0     C97921   7.897  12.884   4.345  0.3121  0.0389 -0.1037
  726MOL0     C97922   8.011  12.818   4.399  0.0040  0.9514 -0.4378
  726MOL0     O97923   8.298  12.738   4.353 -0.2185  0.4216  0.1514
  726MOL0     C97924   8.313  12.474   4.608 -0.5563 -0.2466 -0.2168
  726MOL0     C97925   8.400  12.389   4.688  0.5735  0.3380 -0.1204
  726MOL0     N97926   8.315  11.869   5.002  0.5787 -0.7503  0.1421
  726MOL0     N97927   8.303  11.740   5.007  0.7692 -0.6511 -0.8253
  726MOL0     C97928   8.421  10.732   5.594  0.7623  0.4426  0.6234
  726MOL0     C97929   8.521  10.651   5.646  0.5206  0.2685 -0.6684
  726MOL0     C97930   8.834  10.562   5.979  0.1192 -0.2859 -0.5279
  726MOL0     C97931   8.813  10.422   5.995  0.5830  0.0567 -0.2327
  726MOL0     C97932   8.905  10.341   6.066 -0.4277  0.0592 -0.4059
  726MOL0     C97933   9.020  10.399   6.123 -0.5177  0.2225  0.0369
  726MOL0     O97934   9.105  10.319   6.199  0.1168 -0.3658 -0.2849
  726MOL0     C97935   9.084  10.186   6.229  0.1707  0.8316  0.1098
  726MOL0     C97936   9.182  10.141   6.343 -0.2644 -0.3501  0.4093
  726MOL0     C97937   9.203   9.991   6.334  0.1251  0.4433  0.3320
  726MOL0     C97938   9.251   9.961   6.471  0.2142 -1.1151 -0.1248
  726MOL0     C97939   9.286   9.822   6.496 -0.3371 -0.2833 -0.3889
  726MOL0     C97940   9.303   9.706   6.526  0.2390  0.2329  0.4984
  726MOL0     C97941   9.048  10.530   6.101 -0.4576 -1.4489 -0.6017
  726MOL0     C97942   8.948  10.613   6.038  0.0819 -0.1677  0.3133
  726MOL0     H97943   8.462  10.763   5.971 -3.0825  0.5529  0.5768
  726MOL0     H97944   8.307  10.896   5.868 -0.4332  0.0470 -1.0713
  726MOL0     H97945   8.170  11.047   5.710  0.4906 -0.9020 -0.5326
  726MOL0     H97946   8.345  11.085   5.687  1.2654 -0.5649 -1.5857
  726MOL0     H97947   8.135  11.134   5.471  2.7891  0.8176 -2.7763
  726MOL0     H97948   8.192  11.248   5.590 -2.0052  0.5236  1.2707
  726MOL0     H97949   8.422  11.236   5.523 -2.1259  1.4279  0.4286
  726MOL0     H97950   8.381  11.087   5.425 -0.1833 -1.1680 -0.3036
  726MOL0     H97951   8.243  11.218   5.270 -0.3063 -2.4665  1.8375
  726MOL0     H97952   8.286  11.375   5.359 -0.7918 -1.7377  3.4371
  726MOL0     H97953   8.528  11.336   5.327 -0.2561  0.7889  0.9058
  726MOL0     H97954   8.485  11.181   5.249 -0.6618 -0.0470  1.7583
  726MOL0     H97955   8.522  11.319   5.075 -1.5581  1.6618 -2.1390
  726MOL0     H97956   8.349  11.314   5.076 -1.1271 -1.3639  2.8839
  726MOL0     H97957   8.353  11.543   5.192 -0.6441 -0.3464 -3.3669
  726MOL0     H97958   8.535  11.542   5.194  2.5166 -0.6690 -1.9169
  726MOL0     H97959   8.397  11.504   4.944  2.6380 -1.3212 -2.5543
  726MOL0     H97960   8.564  11.551   4.978 -1.1137 -1.3544 -0.6417
  726MOL0     H97961   8.606  11.791   5.092 -0.2166  0.9501  0.2013
  726MOL0     H97962   8.392  12.112   5.093 -2.5275  1.0183 -2.3114
  726MOL0     H97963   8.566  12.085   5.093 -0.1167  0.3483  0.9348
  726MOL0     H97964   8.494  12.232   4.922  0.0036  0.4602 -5.1515
  726MOL0     H97965   8.374  12.107   4.863 -0.8903 -0.0577  0.3029
  726MOL0     H97966   8.568  11.965   4.802 -0.9719 -0.7066  0.7454
  726MOL0     H97967   8.674  12.084   4.887 -2.3068  1.0643  3.6293
  726MOL0     H97968   8.514  12.130   4.635  0.0558  1.2870  0.0114
  726MOL0     H97969   8.687  12.119   4.644 -1.4849 -0.4750 -1.4318
  726MOL0     H97970   8.684  12.423   4.514 -0.0978  1.8993 -0.7923
  726MOL0     H97971   8.613  12.698   4.360  2.1520 -0.2984 -1.7114
  726MOL0     H97972   8.644  12.532   4.306 -0.8759 -0.0085 -3.4802
  726MOL0     H97973   8.493  12.621   4.269  0.7738  3.0494  0.7072
  726MOL0     H97974   7.927  12.500   4.334  0.5049 -0.3611 -2.0608
  726MOL0     H97975   7.722  12.617   4.259  0.0805 -1.8361  3.0237
  726MOL0     H97976   7.626  12.944   4.438 -2.0744 -0.1801  0.8176
  726MOL0     H97977   7.575  13.040   4.304 -1.7489  1.4836  1.7736
  726MOL0     H97978   7.416  12.877   4.241  1.6377 -2.0155  0.0235
  726MOL0     H97979   7.463  12.761   4.368 -0.0983 -1.4312  5.1873
  726MOL0     H97980   7.343  13.035   4.428  1.7885  1.6167  2.9879
  726MOL0     H97981   7.389  12.920   4.554 -1.2502 -1.6164  0.4514
  726MOL0     H97982   7.193  12.835   4.334  1.3309 -0.4207 -0.6127
  726MOL0     H97983   7.243  12.747   4.484 -1.5716  0.6527  0.1278
  726MOL0     H97984   7.134  12.956   4.600  0.2456  2.2885 -0.9267
  726MOL0     H97985   7.021  12.836   4.515 -1.5175  0.7773 -1.7853
  726MOL0     H97986   7.124  13.103   4.420  3.4455 -3.5375  1.7335
  726MOL0     H97987   7.043  12.992   4.311 -0.3343 -3.0411  0.0615
  726MOL0     H97988   6.916  13.190   4.450  4.5819  0.8404  0.8582
  726MOL0     H97989   6.929  13.089   4.586  1.0624  1.7588 -0.6640
  726MOL0     H97990   6.813  12.895   4.456 -0.0229 -0.5724  0.5514
  726MOL0     H97991   6.787  13.024   4.327  1.9933  1.5906  0.6380
  726MOL0     H97992   7.882  12.991   4.348 -0.0475  0.0219 -1.1029
  726MOL0     H97993   8.092  12.878   4.440  0.7153 -0.2246 -0.0421
  726MOL0     H97994   8.207  12.481   4.630 -0.8084 -1.7882 -0.7466
  726MOL0     H97995   8.343  12.332   4.761  0.0440 -0.8189 -1.3814
  726MOL0     H97996   8.418  10.720   5.487 -0.7149 -0.0293  0.7023
  726MOL0     H97997   8.578  10.578   5.590 -2.7983 -0.8777 -2.8674
  726MOL0     H97998   8.728  10.378   5.946 -0.1683  0.4203  0.7123
  726MOL0     H97999   8.878  10.236   6.075  2.3590 -0.7181 -0.3085
  726MOL0     H98000   8.984  10.164   6.267  0.9035 -0.8079  1.2375
  726MOL0     H98001   9.100  10.126   6.139  1.0418 -1.8608  1.9190
  726MOL0     H98002   9.143  10.186   6.436 -0.6849  0.3981 -0.1142
  726MOL0     H98003   9.280  10.188   6.331 -0.3526  1.1105  3.9072
  726MOL0     H98004   9.275   9.973   6.255  0.3633  1.7750  0.2339
  726MOL0     H98005   9.117   9.928   6.309  0.8336 -0.3023 -0.2710
  726MOL0     H98006   9.185  10.000   6.549  0.1651 -3.0133  0.8578
  726MOL0     H98007   9.346  10.014   6.486  0.1857 -0.5871 -1.6819
  726MOL0     H98008   9.323   9.604   6.552 -3.4036 -0.9809 -0.8237
  726MOL0     H98009   9.132  10.580   6.148 -0.8413 -1.5168  0.1647
  726MOL0     H98010   8.971  10.716   6.012  0.3663 -0.5532 -1.0351
  727MOL0     O98011   4.701   3.486   5.842  0.3160  0.2346  0.0861
  727MOL0     C98012   4.619   3.549   5.771  0.3564  0.0876 -0.2856
  727MOL0     O98013   4.651   3.651   5.695  0.2786  0.5066 -0.1328
  727MOL0     C98014   4.774   3.709   5.694  0.7095  0.0489  0.5823
  727MOL0     C98015   4.875   3.648   5.610 -0.3222 -0.2228  0.4092
  727MOL0     C98016   5.007   3.692   5.605 -0.1521  0.4561  0.0891
  727MOL0     C98017   5.045   3.806   5.682  0.4163  0.3899 -0.3617
  727MOL0     O98018   5.176   3.849   5.675  0.2022  0.2502 -0.0545
  727MOL0     C98019   5.218   3.880   5.537  0.3462 -0.1152 -0.0810
  727MOL0     C98020   5.310   4.001   5.541  0.4226 -0.1021 -0.7458
  727MOL0     C98021   5.443   3.980   5.619 -0.3282 -0.2451  0.4104
  727MOL0     C98022   5.544   3.899   5.535 -0.4786 -0.0653 -0.4066
  727MOL0     C98023   5.677   3.884   5.609 -0.2402 -0.0348  0.4209
  727MOL0     C98024   5.670   3.807   5.736  0.1424 -0.9569 -0.5490
  727MOL0     C98025   5.803   3.771   5.794  0.1259  0.0575  1.1362
  727MOL0     C98026   5.901   3.889   5.821 -0.7714  0.3929  0.1641
  727MOL0     N98027   5.853   3.967   5.932  0.7221  0.1906 -0.9619
  727MOL0     C98028   5.785   4.085   5.914  0.4122 -0.0575 -0.1699
  727MOL0     C98029   5.739   4.118   6.043 -1.1727  0.8574 -0.5076
  727MOL0     C98030   5.662   4.238   6.084 -1.2024 -0.5981 -1.2629
  727MOL0     C98031   5.763   4.360   6.080  0.6292  0.2155  0.0701
  727MOL0     C98032   5.875   4.388   6.201  0.4868  1.0947  0.8835
  727MOL0     C98033   5.801   4.451   6.325 -0.4925 -0.0054  0.2747
  727MOL0     O98034   5.753   4.586   6.297 -0.1894  0.4525 -0.3889
  727MOL0     C98035   5.637   4.624   6.361 -0.1437  1.2551  0.1084
  727MOL0     C98036   5.648   4.723   6.455  0.1995 -0.0767 -0.5708
  727MOL0     C98037   5.532   4.756   6.531  0.3359  0.0935 -0.3103
  727MOL0     C98038   5.560   4.877   6.632  0.0700  0.5359 -0.4688
  727MOL0     C98039   5.404   4.698   6.505  0.2470  0.2630  0.4928
  727MOL0     C98040   5.280   4.737   6.578 -0.5359 -0.5395  0.0547
  727MOL0     O98041   5.173   4.652   6.562  0.0766 -0.6666  0.3732
  727MOL0     C98042   5.065   4.658   6.653  0.1277  0.0209  1.1336
  727MOL0     C98043   4.990   4.773   6.675  0.1544  0.5375 -0.0499
  727MOL0     C98044   4.894   4.773   6.770  0.0591  0.2011  0.4139
  727MOL0     C98045   4.842   4.658   6.824 -0.2175  1.0429  0.8939
  727MOL0     O98046   4.714   4.668   6.883 -0.1213  0.6789 -0.6720
  727MOL0     C98047   4.615   4.570   6.861  0.6556 -0.0036 -0.6018
  727MOL0     C98048   4.516   4.622   6.755 -0.1805 -0.0278  0.0741
  727MOL0     C98049   4.541   4.570   6.613  0.0097 -0.1287  0.6600
  727MOL0     C98050   4.482   4.433   6.594 -0.3464  0.5169 -0.3042
  727MOL0     C98051   4.482   4.384   6.446 -0.6008  0.2521  0.4811
  727MOL0     C98052   4.406   4.237   6.437  0.3104  0.2345 -0.5038
  727MOL0     C98053   4.428   4.162   6.302  1.0022  0.6899  0.1098
  727MOL0     C98054   4.445   4.021   6.317  0.5677  0.2770 -0.5123
  727MOL0    Cl98055   4.278   3.938   6.332  0.0865  0.1155  0.0166
  727MOL0     C98056   4.907   4.540   6.805 -0.6656 -0.0772  0.2363
  727MOL0     C98057   5.018   4.541   6.714 -0.0588 -0.0786  0.0865
  727MOL0     O98058   5.274   4.841   6.638 -0.1629  0.8547 -1.2159
  727MOL0     C98059   5.402   4.586   6.414  0.1521 -0.5830 -0.6466
  727MOL0     C98060   5.516   4.549   6.339  0.4797  0.3454 -0.2771
  727MOL0     N98061   5.796   4.036   6.136 -0.3691  0.1579 -0.4087
  727MOL0     N98062   5.859   3.941   6.070 -0.1909  0.2154 -0.1452
  727MOL0     C98063   4.949   3.878   5.757 -0.3063  0.3175  1.2304
  727MOL0     C98064   4.812   3.839   5.753  0.3890  0.3800  0.7887
  727MOL0     C98065   4.483   3.492   5.774  0.6067 -0.9569  0.9175
  727MOL0     C98066   4.440   3.409   5.874  1.0505  0.6735  0.1518
  727MOL0     C98067   4.303   3.365   5.891 -0.6605  0.6601  0.2043
  727MOL0     C98068   4.204   3.404   5.799  0.3103 -0.3685  0.0851
  727MOL0     O98069   4.077   3.362   5.794 -0.6473  0.6552  0.1077
  727MOL0     C98070   4.029   3.266   5.891  0.0654  0.9838 -1.4676
  727MOL0     C98071   3.880   3.250   5.865 -0.1586  0.6106 -1.1020
  727MOL0     C98072   3.833   3.233   5.719  0.3975 -0.0164  0.4137
  727MOL0     C98073   3.699   3.160   5.715  0.5077 -0.2138  0.0501
  727MOL0     C98074   3.618   3.212   5.604 -0.2544  0.8327  0.1050
  727MOL0     C98075   3.558   3.238   5.506 -0.7965 -0.6881  0.6465
  727MOL0     C98076   4.248   3.499   5.707 -0.8198  0.2457  1.0693
  727MOL0     C98077   4.384   3.539   5.684  0.4484 -0.4706 -0.0027
  727MOL0     H98078   4.839   3.559   5.560  3.0031  0.7167 -4.3913
  727MOL0     H98079   5.084   3.651   5.541  0.1204 -0.6987  1.1079
  727MOL0     H98080   5.263   3.794   5.488  0.9419 -2.2245  3.7413
  727MOL0     H98081   5.129   3.911   5.481 -0.3389 -0.3280  0.8563
  727MOL0     H98082   5.334   4.033   5.440  0.2962  2.9380  0.0778
  727MOL0     H98083   5.244   4.066   5.599 -1.1423 -1.7789 -0.5615
  727MOL0     H98084   5.491   4.078   5.632 -2.7617  1.1525 -0.4433
  727MOL0     H98085   5.439   3.940   5.720 -2.2096 -0.3470  0.3337
  727MOL0     H98086   5.501   3.799   5.518 -3.2734  0.7902  0.9787
  727MOL0     H98087   5.567   3.947   5.440  1.2783 -1.2390 -0.6136
  727MOL0     H98088   5.744   3.834   5.539 -1.9259 -0.1915 -1.1733
  727MOL0     H98089   5.714   3.987   5.621 -1.0052  0.8032 -3.1196
  727MOL0     H98090   5.627   3.866   5.817  1.7015 -1.2247  0.5048
  727MOL0     H98091   5.618   3.711   5.724  0.8625 -1.6804  1.5691
  727MOL0     H98092   5.789   3.717   5.888 -0.3297 -2.7032 -0.3997
  727MOL0     H98093   5.852   3.701   5.726  0.2340  2.1581 -1.0810
  727MOL0     H98094   5.919   3.950   5.732  1.8129  0.5756  0.7273
  727MOL0     H98095   5.998   3.848   5.851 -2.0797 -0.9716  2.9403
  727MOL0     H98096   5.757   4.146   5.829 -0.4205  0.1678  0.2565
  727MOL0     H98097   5.588   4.267   6.009 -1.5486  4.1391  0.5356
  727MOL0     H98098   5.606   4.227   6.178  2.8370 -1.0782  1.3082
  727MOL0     H98099   5.708   4.453   6.062  0.5861  1.1492  4.0843
  727MOL0     H98100   5.817   4.345   5.987  0.3296 -0.1237 -0.0515
  727MOL0     H98101   5.949   4.451   6.152  1.5652 -1.9184 -1.7775
  727MOL0     H98102   5.924   4.293   6.229  1.6250  0.9489 -1.3917
  727MOL0     H98103   5.869   4.465   6.410 -2.8585 -1.4568  2.5596
  727MOL0     H98104   5.728   4.386   6.373 -2.3348  1.6839 -0.1067
  727MOL0     H98105   5.738   4.783   6.455  0.2884 -0.2122 -0.4175
  727MOL0     H98106   5.662   4.910   6.613  2.2369 -4.4717  0.9728
  727MOL0     H98107   5.487   4.958   6.620 -1.1734 -0.4668  0.0334
  727MOL0     H98108   5.556   4.852   6.738  0.0504 -1.3006 -0.8709
  727MOL0     H98109   5.016   4.866   6.624 -0.6980  2.1128  2.2621
  727MOL0     H98110   4.827   4.857   6.786 -0.2948 -0.2462  1.3255
  727MOL0     H98111   4.654   4.472   6.832  0.2395  0.3050 -2.2969
  727MOL0     H98112   4.560   4.563   6.955  1.1367 -1.0489 -0.3906
  727MOL0     H98113   4.412   4.594   6.777 -0.2662  0.7256  0.6446
  727MOL0     H98114   4.517   4.731   6.751  0.6870 -0.0284  0.1915
  727MOL0     H98115   4.649   4.569   6.597  0.2964  0.0910  2.3825
  727MOL0     H98116   4.499   4.649   6.551  3.2267  1.7228  0.6305
  727MOL0     H98117   4.530   4.373   6.673 -3.6469 -0.7428  0.9230
  727MOL0     H98118   4.379   4.428   6.631  0.5560 -2.5824  2.2522
  727MOL0     H98119   4.584   4.375   6.408  0.5962  1.9319  3.0149
  727MOL0     H98120   4.442   4.450   6.369 -0.6542 -1.4350 -1.0191
  727MOL0     H98121   4.442   4.176   6.520  2.0211  0.3337 -1.1311
  727MOL0     H98122   4.300   4.252   6.460  0.6827  0.2374  1.3714
  727MOL0     H98123   4.507   4.207   6.241  1.2228 -0.7003 -0.6774
  727MOL0     H98124   4.331   4.181   6.257 -0.0394  3.3116  3.1222
  727MOL0     H98125   4.518   3.984   6.389 -0.9621 -0.1200  0.8962
  727MOL0     H98126   4.483   3.992   6.219  2.9549 -1.4609  0.8495
  727MOL0     H98127   4.871   4.448   6.848 -1.1328 -0.0686 -0.1332
  727MOL0     H98128   5.075   4.450   6.698 -1.1081 -0.7007 -0.2454
  727MOL0     H98129   5.305   4.543   6.390 -1.7681  1.4474  2.6107
  727MOL0     H98130   5.502   4.462   6.275 -0.5732 -0.5293  1.0822
  727MOL0     H98131   4.982   3.970   5.804  0.0051  0.6142  0.4464
  727MOL0     H98132   4.739   3.887   5.817  0.1310  2.1945 -0.7946
  727MOL0     H98133   4.506   3.375   5.953 -1.7144 -1.6787  1.6495
  727MOL0     H98134   4.283   3.292   5.969 -3.9775 -0.6562 -1.7196
  727MOL0     H98135   4.090   3.174   5.893  1.8175  2.0786  1.6732
  727MOL0     H98136   4.044   3.297   5.994 -3.0946 -1.0703 -0.2499
  727MOL0     H98137   3.829   3.341   5.900  0.4182  1.0919 -1.4968
  727MOL0     H98138   3.852   3.164   5.926 -0.7710  1.5666  0.0136
  727MOL0     H98139   3.902   3.173   5.659  0.0377  2.3510 -2.6299
  727MOL0     H98140   3.822   3.330   5.670  1.8919 -1.4104 -2.9793
  727MOL0     H98141   3.655   3.178   5.813 -0.4476 -0.4735 -0.3278
  727MOL0     H98142   3.707   3.053   5.694 -2.8007 -0.0802 -2.6147
  727MOL0     H98143   3.494   3.240   5.420 -0.5731 -1.4374  0.4559
  727MOL0     H98144   4.175   3.536   5.635 -1.0584  0.0318  1.1971
  727MOL0     H98145   4.402   3.629   5.627  0.9411  0.9432  2.2345
  728MOL0     O98146  10.220   3.257   8.818  0.1712  0.6696 -0.3694
  728MOL0     C98147  10.157   3.150   8.839  0.2342  0.2612  0.3309
  728MOL0     O98148  10.015   3.136   8.856  0.3451  0.2360 -0.6168
  728MOL0     C98149   9.941   3.239   8.816 -1.1800 -0.2554  0.4998
  728MOL0     C98150   9.958   3.298   8.687  0.2206  0.4230 -0.2471
  728MOL0     C98151   9.877   3.412   8.655 -0.3187 -0.1045  0.4036
  728MOL0     C98152   9.776   3.460   8.735 -0.6478  0.3717  0.1469
  728MOL0     O98153   9.699   3.553   8.686  0.5815  0.7133 -0.2876
  728MOL0     C98154   9.565   3.567   8.737  0.2670  1.1674 -0.3045
  728MOL0     C98155   9.488   3.647   8.647  0.0780 -1.1784  0.0085
  728MOL0     C98156   9.354   3.674   8.708 -0.5170  0.1601  0.0505
  728MOL0     C98157   9.275   3.780   8.635 -0.2552  0.7948 -0.6832
  728MOL0     C98158   9.137   3.790   8.700 -0.5962 -0.5808 -0.7016
  728MOL0     C98159   9.081   3.932   8.678  0.6187  0.5229 -0.4771
  728MOL0     C98160   9.004   3.944   8.543  0.1825 -0.0996  0.4969
  728MOL0     C98161   8.938   4.076   8.517  0.8343  0.2040  0.0305
  728MOL0     N98162   8.833   4.106   8.615  0.2565  0.2816  0.6786
  728MOL0     C98163   8.717   4.034   8.628 -0.0396  0.4586 -0.1189
  728MOL0     C98164   8.662   4.089   8.744 -0.0008  0.1989 -0.5495
  728MOL0     C98165   8.513   4.077   8.788  0.0059  0.4181 -0.0041
  728MOL0     C98166   8.458   3.932   8.762 -0.4999  0.1898 -0.4419
  728MOL0     C98167   8.310   3.925   8.795 -0.4282 -0.5030  0.4566
  728MOL0     C98168   8.224   3.941   8.679  0.4530 -0.4994 -0.0041
  728MOL0     O98169   8.092   3.883   8.699 -0.2525 -0.2927  0.5926
  728MOL0     C98170   7.985   3.930   8.618  0.1558  0.2309  0.4073
  728MOL0     C98171   7.862   3.896   8.661  1.2172  0.3532 -0.5631
  728MOL0     C98172   7.744   3.936   8.607  0.7494  0.2182  0.7457
  728MOL0     C98173   7.613   3.872   8.660  0.7692  0.3091 -0.4910
  728MOL0     C98174   7.746   4.017   8.489 -0.4022  0.2041 -0.4851
  728MOL0     C98175   7.627   4.093   8.438  0.1456  0.7972  0.0501
  728MOL0     O98176   7.526   4.098   8.523 -0.0350 -0.0391 -0.4667
  728MOL0     C98177   7.422   4.192   8.509 -0.0164 -0.2402  0.5859
  728MOL0     C98178   7.448   4.332   8.502  0.1051  0.1661  0.0511
  728MOL0     C98179   7.352   4.423   8.484 -0.0894  0.3637 -0.1615
  728MOL0     C98180   7.218   4.379   8.484 -0.9071 -0.0140 -0.4325
  728MOL0     O98181   7.123   4.477   8.475 -0.0997  0.0557  0.4517
  728MOL0     C98182   6.984   4.444   8.468  0.0105  0.0370  1.3799
  728MOL0     C98183   6.924   4.398   8.333 -0.0306  0.4514  0.4954
  728MOL0     C98184   6.908   4.519   8.231  0.0081 -0.3586  0.4041
  728MOL0     C98185   6.890   4.454   8.095  0.7021  0.1310 -0.4185
  728MOL0     C98186   6.765   4.367   8.084 -0.0881 -0.2408  0.1738
  728MOL0     C98187   6.641   4.445   8.129 -0.1476 -0.0849  0.6540
  728MOL0     C98188   6.517   4.365   8.101  0.1208  0.3608 -0.5723
  728MOL0     C98189   6.382   4.442   8.124  0.4156  0.2401  0.2329
  728MOL0    Cl98190   6.395   4.602   8.191  0.4256  0.3344  0.4753
  728MOL0     C98191   7.184   4.241   8.491  0.2254 -0.1187  0.4094
  728MOL0     C98192   7.288   4.148   8.499 -0.1914  0.2223  0.2298
  728MOL0     O98193   7.634   4.155   8.330 -0.1726 -0.2915  0.6756
  728MOL0     C98194   7.879   4.045   8.439 -0.2000 -0.0462  0.0566
  728MOL0     C98195   7.998   4.003   8.497  0.4975  0.6628 -0.2214
  728MOL0     N98196   8.753   4.172   8.804  0.0961  0.7422 -0.4912
  728MOL0     N98197   8.851   4.183   8.725 -0.1757  0.9668 -0.0669
  728MOL0     C98198   9.757   3.398   8.855 -0.8460  0.2098  0.0076
  728MOL0     C98199   9.844   3.298   8.903 -0.4039  0.1499  0.1986
  728MOL0     C98200  10.234   3.030   8.860 -0.1810 -0.1806 -0.3740
  728MOL0     C98201  10.348   3.004   8.791 -0.6414  0.2192  1.2063
  728MOL0     C98202  10.424   2.887   8.806  0.7736 -0.8863 -0.3090
  728MOL0     C98203  10.385   2.792   8.897 -0.6552 -0.5900 -0.7392
  728MOL0     O98204  10.463   2.679   8.909 -0.0600  0.5626 -0.1856
  728MOL0     C98205  10.423   2.567   8.825 -0.6558 -0.2527  0.8619
  728MOL0     C98206  10.539   2.555   8.714  0.6101 -0.9704 -0.7512
  728MOL0     C98207  10.686   2.558   8.765  0.6257 -0.0647  0.0480
  728MOL0     C98208  10.785   2.611   8.652 -0.7482  1.5303  0.2797
  728MOL0     C98209  10.924   2.586   8.703  0.4961 -0.1238 -0.5091
  728MOL0     C98210  11.030   2.569   8.761  0.0162 -0.6786 -0.1131
  728MOL0     C98211  10.268   2.820   8.966 -0.0043  0.2800 -0.9745
  728MOL0     C98212  10.187   2.929   8.949 -0.5493 -0.0687 -0.2698
  728MOL0     H98213  10.018   3.254   8.608  0.2277 -0.0237  0.0044
  728MOL0     H98214   9.878   3.461   8.558  0.6114 -0.3921  0.2566
  728MOL0     H98215   9.516   3.472   8.759  1.2343  0.4328 -1.2530
  728MOL0     H98216   9.566   3.624   8.831  1.3008 -0.9303  1.0535
  728MOL0     H98217   9.558   3.730   8.633 -0.4187 -0.9281 -1.0786
  728MOL0     H98218   9.481   3.602   8.547 -0.0169  2.3156 -1.7121
  728MOL0     H98219   9.319   3.570   8.706 -0.3214  0.0721  0.9253
  728MOL0     H98220   9.366   3.704   8.813  0.3428 -3.6414  1.1784
  728MOL0     H98221   9.329   3.874   8.639  1.5291 -0.2340  1.0414
  728MOL0     H98222   9.260   3.737   8.535 -0.2027 -2.5563  0.5966
  728MOL0     H98223   9.065   3.720   8.657 -2.4154  1.8470 -1.8297
  728MOL0     H98224   9.139   3.774   8.808 -1.2273 -0.1554 -0.6237
  728MOL0     H98225   8.994   3.955   8.740 -1.1172 -1.1464 -2.1475
  728MOL0     H98226   9.151   4.014   8.696 -2.0532  2.9012 -0.0414
  728MOL0     H98227   9.065   3.943   8.453 -1.4037 -0.7527 -0.6223
  728MOL0     H98228   8.934   3.861   8.534  0.1061  0.0817 -0.6982
  728MOL0     H98229   8.887   4.069   8.420 -0.2358 -0.6742  0.6536
  728MOL0     H98230   9.003   4.164   8.506 -1.8807  2.3574  0.3144
  728MOL0     H98231   8.684   3.956   8.559  0.4739  0.1491 -0.0259
  728MOL0     H98232   8.485   4.121   8.885 -0.4992  0.5113 -0.1872
  728MOL0     H98233   8.455   4.136   8.716 -0.1163  0.8033  0.4077
  728MOL0     H98234   8.514   3.868   8.830  1.6367 -0.3125 -2.5432
  728MOL0     H98235   8.472   3.886   8.664 -2.6228  0.5066 -0.9534
  728MOL0     H98236   8.298   3.998   8.876  2.3752 -0.8498  1.2663
  728MOL0     H98237   8.286   3.825   8.834  1.6322 -0.3209  2.3699
  728MOL0     H98238   8.256   3.892   8.587  0.9598  0.6000 -0.4267
  728MOL0     H98239   8.211   4.048   8.663  1.1265 -0.7555 -2.7661
  728MOL0     H98240   7.857   3.811   8.728  0.5375 -1.1697 -2.4578
  728MOL0     H98241   7.631   3.770   8.696 -1.6702 -0.6139 -1.6469
  728MOL0     H98242   7.587   3.931   8.748  4.9608  1.1923  0.3735
  728MOL0     H98243   7.541   3.859   8.579  2.4862  3.5978 -2.7374
  728MOL0     H98244   7.546   4.379   8.512  0.3045 -0.5058  1.5410
  728MOL0     H98245   7.377   4.526   8.505  1.5422 -0.3063  1.5327
  728MOL0     H98246   6.960   4.371   8.546 -1.1145  0.4598  1.4434
  728MOL0     H98247   6.928   4.528   8.509  0.6138  1.5378 -0.6878
  728MOL0     H98248   6.998   4.330   8.291 -1.6140 -1.1461  0.1694
  728MOL0     H98249   6.829   4.344   8.347  0.4800  0.0097  2.6880
  728MOL0     H98250   7.011   4.554   8.221  0.3584 -1.8849 -2.6956
  728MOL0     H98251   6.826   4.590   8.247  0.6585  0.2468  1.1144
  728MOL0     H98252   6.887   4.534   8.020 -1.3868  1.6394  1.1770
  728MOL0     H98253   6.972   4.388   8.066  0.8661  0.4926 -0.7950
  728MOL0     H98254   6.769   4.266   8.126 -0.5885 -0.8302 -1.1394
  728MOL0     H98255   6.746   4.340   7.980 -1.4057 -1.2070  0.6432
  728MOL0     H98256   6.648   4.460   8.237  0.0826 -0.5777  0.7120
  728MOL0     H98257   6.635   4.542   8.080 -1.0268 -0.9012 -0.9571
  728MOL0     H98258   6.507   4.276   8.164 -1.2187  1.8750  1.5245
  728MOL0     H98259   6.516   4.333   7.997 -0.2213  2.5229 -1.2812
  728MOL0     H98260   6.313   4.384   8.187  2.3261  0.4750  2.7316
  728MOL0     H98261   6.339   4.455   8.024 -0.3126 -0.9928  0.3637
  728MOL0     H98262   7.079   4.213   8.495  0.0370  0.6191  0.8352
  728MOL0     H98263   7.259   4.044   8.512 -1.0456  0.6397  1.9834
  728MOL0     H98264   7.872   4.106   8.350  2.2329 -1.5984 -1.3072
  728MOL0     H98265   8.091   4.043   8.457  0.2840  0.9750 -0.3974
  728MOL0     H98266   9.682   3.418   8.930 -0.3640  1.0512  0.2709
  728MOL0     H98267   9.835   3.252   9.001 -0.8538  0.5211  0.3351
  728MOL0     H98268  10.377   3.075   8.714 -0.5160 -0.2881  0.7809
  728MOL0     H98269  10.513   2.861   8.749  1.6584 -0.1308  0.6842
  728MOL0     H98270  10.419   2.474   8.883  2.8151 -1.2073 -0.2034
  728MOL0     H98271  10.324   2.585   8.782  2.1855  5.2156 -4.9896
  728MOL0     H98272  10.529   2.642   8.649 -0.8340 -0.1747  0.4898
  728MOL0     H98273  10.526   2.465   8.653  1.9452 -1.5664 -0.1966
  728MOL0     H98274  10.724   2.457   8.781  2.2428  0.1258 -2.1188
  728MOL0     H98275  10.698   2.627   8.848  1.1418  0.1272 -0.1824
  728MOL0     H98276  10.764   2.711   8.613 -2.0884  0.0411 -3.2426
  728MOL0     H98277  10.771   2.543   8.567 -1.1217  0.4880  1.1532
  728MOL0     H98278  11.102   2.525   8.827  0.7854  2.9456  1.6629
  728MOL0     H98279  10.237   2.739   9.031 -0.9872  1.6036  0.2516
  728MOL0     H98280  10.100   2.929   9.014 -0.5147 -0.1762 -0.2225
  729MOL0     O98281   7.245   0.802   9.154 -0.4342 -0.2784  0.3579
  729MOL0     C98282   7.297   0.824   9.262 -0.1244  0.1857 -0.6431
  729MOL0     O98283   7.256   0.912   9.353  0.2466  0.9560 -0.2644
  729MOL0     C98284   7.140   0.984   9.340  0.7111  0.2909  0.3370
  729MOL0     C98285   7.018   0.912   9.315 -0.3130  0.1932 -1.0961
  729MOL0     C98286   6.894   0.977   9.330 -0.4861 -0.1642  0.4233
  729MOL0     C98287   6.883   1.112   9.357  0.7029 -0.4286  0.8269
  729MOL0     O98288   6.760   1.162   9.363 -0.6040 -0.2267 -0.3002
  729MOL0     C98289   6.721   1.245   9.477 -0.5275  0.0834  0.1934
  729MOL0     C98290   6.588   1.318   9.453 -1.1338  0.1487  0.1043
  729MOL0     C98291   6.481   1.215   9.417 -0.0854  0.3133  0.8364
  729MOL0     C98292   6.350   1.288   9.446 -0.1554 -0.5013 -0.9039
  729MOL0     C98293   6.234   1.191   9.426  0.5954  0.0939  0.3280
  729MOL0     C98294   6.104   1.261   9.472 -0.4779  0.0733 -0.9554
  729MOL0     C98295   5.989   1.177   9.429  0.6874 -0.0609  0.4334
  729MOL0     C98296   5.963   1.208   9.285 -0.5302 -0.1190  0.8010
  729MOL0     N98297   5.829   1.158   9.232 -0.6979 -0.1547 -0.5552
  729MOL0     C98298   5.761   1.045   9.276  0.7677 -0.5279 -0.1953
  729MOL0     C98299   5.657   1.041   9.188 -0.8409  0.5864  0.0188
  729MOL0     C98300   5.541   0.945   9.191  0.4523 -0.6132  0.5200
  729MOL0     C98301   5.506   0.915   9.041 -0.6287  0.2384 -0.3094
  729MOL0     C98302   5.421   0.793   9.031  0.3551 -0.6450  0.0043
  729MOL0     C98303   5.269   0.807   9.062 -0.4978  0.3203 -0.4530
  729MOL0     O98304   5.201   0.675   9.039 -0.3554 -0.0870  0.1495
  729MOL0     C98305   5.097   0.638   9.123 -0.2309  0.4052  0.3978
  729MOL0     C98306   5.084   0.498   9.143  0.6043  0.5479 -1.1884
  729MOL0     C98307   4.990   0.436   9.226  0.3596 -0.1768 -0.6092
  729MOL0     C98308   4.994   0.289   9.255  0.2711 -0.0500 -0.0242
  729MOL0     C98309   4.902   0.522   9.301 -0.0858  0.2341 -0.8557
  729MOL0     C98310   4.810   0.472   9.406 -0.3639 -0.0619 -0.1319
  729MOL0     O98311   4.805   0.538   9.531 -0.0170 -0.2779  0.5471
  729MOL0     C98312   4.703   0.539   9.623  0.1573 -0.1426 -0.4979
  729MOL0     C98313   4.726   0.561   9.753  0.5430 -0.5420  0.5123
  729MOL0     C98314   4.617   0.550   9.843 -1.0208 -0.5250  0.6425
  729MOL0     C98315   4.484   0.518   9.810 -0.7122 -0.7494 -0.0474
  729MOL0     O98316   4.400   0.494   9.915  1.1056 -0.1475 -0.0098
  729MOL0     C98317   4.262   0.441   9.902 -0.2675 -0.3468 -0.8194
  729MOL0     C98318   4.265   0.288   9.878  0.2390 -0.8753  0.9361
  729MOL0     C98319   4.128   0.232   9.916 -0.0710 -0.5630 -0.2011
  729MOL0     C98320   4.099   0.244  10.063 -0.5052 -0.1221  1.2212
  729MOL0     C98321   3.983   0.335  10.104 -0.4089  0.0760 -0.2976
  729MOL0     C98322   3.928   0.302  10.246  0.1674 -0.6127 -0.0775
  729MOL0     C98323   3.836   0.175  10.239  0.5700 -0.4948 -0.8606
  729MOL0     C98324   3.725   0.172  10.344 -0.3324  0.6700 -0.6389
  729MOL0    Cl98325   3.605   0.293  10.312 -0.0759  0.2006  0.2591
  729MOL0     C98326   4.454   0.501   9.668 -0.6347  0.3686 -0.4187
  729MOL0     C98327   4.570   0.509   9.583  0.3108  0.7446 -0.8872
  729MOL0     O98328   4.744   0.374   9.376  0.9405  0.3555  0.6206
  729MOL0     C98329   4.913   0.659   9.285  0.2051  0.7103  0.5404
  729MOL0     C98330   5.014   0.720   9.196 -0.2218  0.1130 -0.0806
  729MOL0     N98331   5.657   1.146   9.100 -0.1624  0.0941 -0.0727
  729MOL0     N98332   5.759   1.221   9.133 -0.4958  0.2477 -0.7074
  729MOL0     C98333   6.999   1.185   9.379  0.4462  0.8485  0.2692
  729MOL0     C98334   7.125   1.121   9.376 -0.9993  0.0787 -0.8005
  729MOL0     C98335   7.421   0.746   9.304  0.3045 -1.2171  0.3432
  729MOL0     C98336   7.485   0.653   9.212  1.1301 -0.7279  0.2725
  729MOL0     C98337   7.603   0.583   9.236  0.9146 -0.0182 -0.2444
  729MOL0     C98338   7.651   0.590   9.369  0.5456 -1.0183  0.7743
  729MOL0     O98339   7.758   0.502   9.401  0.0201  1.3352 -0.3519
  729MOL0     C98340   7.848   0.448   9.307 -0.4388 -0.2630 -0.8626
  729MOL0     C98341   7.981   0.398   9.372  0.2688 -0.5707 -0.1104
  729MOL0     C98342   8.064   0.327   9.263 -0.5722 -0.5098  0.2836
  729MOL0     C98343   8.167   0.239   9.315  0.4648 -0.4088  0.0564
  729MOL0     C98344   8.261   0.214   9.209  0.3485  0.8005 -0.7083
  729MOL0     C98345   8.337   0.201   9.114 -0.0833 -0.7920  0.4358
  729MOL0     C98346   7.579   0.671   9.463 -0.5394 -0.1146  0.8345
  729MOL0     C98347   7.476   0.757   9.432 -0.2375  0.5221 -0.2091
  729MOL0     H98348   7.013   0.805   9.298 -2.4906  0.0583  0.0447
  729MOL0     H98349   6.803   0.920   9.315 -0.1085 -0.4626 -0.9258
  729MOL0     H98350   6.726   1.193   9.573  2.0019 -0.6817 -0.2762
  729MOL0     H98351   6.793   1.325   9.498  0.9193 -1.0384 -0.2699
  729MOL0     H98352   6.566   1.363   9.549 -0.3351  2.4990 -0.7374
  729MOL0     H98353   6.599   1.399   9.380 -1.5918 -1.5926 -2.0121
  729MOL0     H98354   6.481   1.181   9.313 -1.8082 -1.6256  1.4111
  729MOL0     H98355   6.500   1.127   9.479  2.6193 -0.0963 -0.4002
  729MOL0     H98356   6.353   1.313   9.553  0.3666  2.0335 -1.4370
  729MOL0     H98357   6.344   1.377   9.383 -0.5752  1.8348  2.1559
  729MOL0     H98358   6.228   1.161   9.321 -0.6664  0.8345  0.1612
  729MOL0     H98359   6.233   1.094   9.475  1.2394 -1.0644 -1.8411
  729MOL0     H98360   6.092   1.280   9.579 -0.6804  1.1788 -1.1629
  729MOL0     H98361   6.101   1.361   9.427 -1.7907  0.7250  0.5133
  729MOL0     H98362   5.992   1.068   9.444 -0.6366  0.0486  1.6794
  729MOL0     H98363   5.907   1.226   9.481  0.3694  1.3608 -1.3195
  729MOL0     H98364   6.042   1.164   9.223  2.1476  1.8566  2.6097
  729MOL0     H98365   5.956   1.317   9.276  1.0348  0.0727  1.5419
  729MOL0     H98366   5.782   0.986   9.365  1.2895 -2.2677 -1.4345
  729MOL0     H98367   5.576   0.854   9.242  1.1615 -1.1198 -0.8328
  729MOL0     H98368   5.461   0.989   9.251 -0.7186 -1.4285 -0.3879
  729MOL0     H98369   5.593   0.911   8.975 -1.7617  0.0658 -1.8375
  729MOL0     H98370   5.456   0.997   8.989  1.3146  0.3568 -2.1375
  729MOL0     H98371   5.464   0.718   9.099  1.0509  0.5314  0.9069
  729MOL0     H98372   5.419   0.758   8.927 -2.2267  1.7904 -0.8580
  729MOL0     H98373   5.228   0.892   9.008 -0.6103 -0.7506 -2.1236
  729MOL0     H98374   5.265   0.834   9.168 -0.6159  1.0863 -0.6522
  729MOL0     H98375   5.149   0.425   9.097  0.5724  0.7224 -1.5167
  729MOL0     H98376   5.074   0.238   9.201  2.0648  2.2126  0.3040
  729MOL0     H98377   5.011   0.281   9.363 -1.1296  2.2027  0.4305
  729MOL0     H98378   4.897   0.243   9.235  1.5189 -2.9228  0.0164
  729MOL0     H98379   4.829   0.576   9.784  0.4329  0.3431  0.4953
  729MOL0     H98380   4.651   0.555   9.945  0.7448  0.3636  0.0427
  729MOL0     H98381   4.209   0.467   9.994 -0.6345 -0.8830 -0.8743
  729MOL0     H98382   4.207   0.498   9.827 -2.9183  1.5867  2.3421
  729MOL0     H98383   4.286   0.266   9.773 -0.3259 -0.8225  0.8127
  729MOL0     H98384   4.345   0.248   9.942  1.9896 -1.4094 -1.4431
  729MOL0     H98385   4.119   0.127   9.885  3.5858 -0.7301 -1.1118
  729MOL0     H98386   4.061   0.296   9.858 -0.0638 -0.3714 -0.0001
  729MOL0     H98387   4.078   0.148  10.110  2.1002 -0.4369  1.9005
  729MOL0     H98388   4.192   0.274  10.112  1.4970 -2.2519 -1.0532
  729MOL0     H98389   3.903   0.313  10.033 -1.5950  0.9084  0.7457
  729MOL0     H98390   4.017   0.439  10.099  0.3707 -0.1677 -0.2911
  729MOL0     H98391   4.011   0.281  10.314  2.1446  0.9814 -1.8751
  729MOL0     H98392   3.870   0.387  10.281 -1.6235 -1.6798 -0.2989
  729MOL0     H98393   3.909   0.094  10.257 -0.4788 -1.2137  0.2829
  729MOL0     H98394   3.795   0.159  10.139 -1.3436 -1.4413  0.0385
  729MOL0     H98395   3.751   0.185  10.449 -1.2719 -0.7136 -0.2130
  729MOL0     H98396   3.682   0.072  10.337  2.8834 -0.9624  1.1552
  729MOL0     H98397   4.352   0.483   9.637 -0.5906  0.4167 -0.5945
  729MOL0     H98398   4.558   0.477   9.480 -1.1053  1.5408 -0.9952
  729MOL0     H98399   4.863   0.734   9.346 -0.9186  0.1369  0.3632
  729MOL0     H98400   5.024   0.828   9.189 -3.2428  0.7877  3.1099
  729MOL0     H98401   7.000   1.293   9.390  0.1485  0.9363 -0.5187
  729MOL0     H98402   7.220   1.163   9.408 -0.9674  0.6181 -1.5718
  729MOL0     H98403   7.447   0.633   9.113  1.5985  0.0863 -0.0868
  729MOL0     H98404   7.639   0.510   9.165  2.4062 -0.5385  0.9853
  729MOL0     H98405   7.799   0.364   9.258  0.2486  0.0473 -2.1288
  729MOL0     H98406   7.883   0.518   9.231 -0.0303  0.7676  0.2422
  729MOL0     H98407   7.955   0.333   9.457  3.3290 -0.8056  0.7517
  729MOL0     H98408   8.028   0.480   9.426 -2.3182  0.8679  0.1283
  729MOL0     H98409   8.111   0.406   9.204  0.8249 -1.2898  0.3090
  729MOL0     H98410   8.001   0.267   9.196 -2.0403  1.4907 -0.2150
  729MOL0     H98411   8.130   0.149   9.364  0.4513 -0.2774  0.2931
  729MOL0     H98412   8.222   0.287   9.397  0.5929 -3.4384  1.9023
  729MOL0     H98413   8.402   0.205   9.029  1.8191  1.9734  1.8890
  729MOL0     H98414   7.619   0.676   9.564  1.7653  2.4235 -0.0975
  729MOL0     H98415   7.446   0.826   9.510 -0.9839  0.6522 -0.6041
  730MOL0     O98416   1.909   5.329   5.772  0.2170 -0.5180 -0.1894
  730MOL0     C98417   1.967   5.419   5.720 -0.2762  0.0318 -0.0421
  730MOL0     O98418   1.913   5.503   5.625 -0.1542 -0.6232 -0.3247
  730MOL0     C98419   1.789   5.469   5.577 -0.4374  0.2516 -0.0033
  730MOL0     C98420   1.770   5.467   5.438 -0.4363  0.1874 -1.0796
  730MOL0     C98421   1.648   5.450   5.380  0.5310 -0.3199 -0.7972
  730MOL0     C98422   1.532   5.433   5.468  1.1605  0.4602  0.0932
  730MOL0     O98423   1.401   5.418   5.422  0.0812 -0.0793 -0.4947
  730MOL0     C98424   1.383   5.382   5.291  0.6014 -0.9008  1.2548
  730MOL0     C98425   1.244   5.361   5.239  0.0751  0.2901 -0.0667
  730MOL0     C98426   1.172   5.224   5.294 -0.1938  0.6719  0.6130
  730MOL0     C98427   1.040   5.191   5.219  0.4424 -0.2669 -0.1922
  730MOL0     C98428   0.926   5.271   5.270 -0.8851  0.0804 -0.4715
  730MOL0     C98429   0.783   5.253   5.215  0.5621  0.5047 -0.4815
  730MOL0     C98430   0.681   5.349   5.278  0.3141  0.2416  0.1178
  730MOL0     C98431   0.631   5.298   5.412 -0.0300 -0.4179 -0.1518
  730MOL0     N98432   0.529   5.388   5.471  0.8857  0.0886  0.4408
  730MOL0     C98433   0.401   5.378   5.420 -0.0238 -0.1399 -0.4052
  730MOL0     C98434   0.346   5.487   5.489 -0.1948  0.2601 -0.1526
  730MOL0     C98435   0.196   5.517   5.481 -0.0943  0.3996  0.3285
  730MOL0     C98436   0.159   5.656   5.531 -0.0044  0.1612 -0.5390
  730MOL0     C98437   0.158   5.668   5.680 -0.2057  0.0319 -0.8277
  730MOL0     C98438   0.023   5.648   5.756  0.3730  0.3486  0.2798
  730MOL0     O98439  -0.034   5.519   5.729  0.8008  0.4269  0.0239
  730MOL0     C98440  -0.167   5.507   5.722  0.4179  0.4721  0.2060
  730MOL0     C98441  -0.225   5.388   5.764 -0.2290 -0.8248 -0.6407
  730MOL0     C98442  -0.368   5.378   5.774  0.1210  0.3567 -0.5666
  730MOL0     C98443  -0.412   5.257   5.861 -0.1574 -0.1251  0.0008
  730MOL0     C98444  -0.450   5.480   5.731  0.0809  0.4223 -0.2148
  730MOL0     C98445  -0.602   5.468   5.718 -0.3691  0.7418  0.6318
  730MOL0     O98446  -0.673   5.582   5.685 -0.1605  0.2870  0.1355
  730MOL0     C98447  -0.812   5.581   5.685 -0.0051  0.0292  0.2564
  730MOL0     C98448  -0.874   5.700   5.702 -1.0202  0.0686  0.0880
  730MOL0     C98449  -1.016   5.710   5.694  0.3580 -0.1999  0.0621
  730MOL0     C98450  -1.090   5.597   5.668  0.7734 -0.5886  0.5869
  730MOL0     O98451  -1.231   5.587   5.667  0.6490  0.6450  0.2451
  730MOL0     C98452  -1.312   5.705   5.669  0.1194  0.7189  0.1056
  730MOL0     C98453  -1.360   5.738   5.809  0.5938 -0.1312  0.1105
  730MOL0     C98454  -1.463   5.635   5.865  0.0449  0.5049 -0.5195
  730MOL0     C98455  -1.493   5.672   6.004 -0.1174 -0.8473 -0.5061
  730MOL0     C98456  -1.601   5.592   6.076 -1.1884  0.3412 -0.0551
  730MOL0     C98457  -1.605   5.638   6.226  0.5184 -1.0594 -0.3234
  730MOL0     C98458  -1.712   5.549   6.298  0.1154 -0.2990  0.2745
  730MOL0     C98459  -1.705   5.562   6.446  0.1074 -0.5098 -0.5262
  730MOL0    Cl98460  -1.805   5.691   6.514  0.3043  0.5515  0.2579
  730MOL0     C98461  -1.030   5.476   5.643 -0.4198 -0.7173  0.1255
  730MOL0     C98462  -0.892   5.466   5.660 -0.1951  0.2422 -0.0814
  730MOL0     O98463  -0.655   5.364   5.756  0.1630  0.2475 -0.2109
  730MOL0     C98464  -0.390   5.594   5.681  1.0421  0.5350 -0.5625
  730MOL0     C98465  -0.252   5.615   5.678  0.5893  0.2598  0.0393
  730MOL0     N98466   0.438   5.533   5.585 -0.0293 -0.2134  0.0135
  730MOL0     N98467   0.552   5.474   5.566 -0.0514 -0.2062 -0.2827
  730MOL0     C98468   1.546   5.454   5.602 -0.1551  0.4497 -0.7162
  730MOL0     C98469   1.667   5.472   5.661  0.1346 -0.7456  0.0118
  730MOL0     C98470   2.104   5.439   5.754 -0.3533  0.6680  0.4790
  730MOL0     C98471   2.177   5.342   5.821  0.6356 -1.2621  0.3606
  730MOL0     C98472   2.315   5.366   5.842  0.0963 -0.6995 -0.3109
  730MOL0     C98473   2.381   5.477   5.786  0.2043  0.5926 -1.0050
  730MOL0     O98474   2.509   5.500   5.804 -0.6788 -0.0251  0.3009
  730MOL0     C98475   2.591   5.442   5.697  0.4299  0.2800 -0.9833
  730MOL0     C98476   2.565   5.520   5.559 -0.2927 -0.4972  0.0133
  730MOL0     C98477   2.611   5.663   5.549  0.1905  0.6621 -0.9868
  730MOL0     C98478   2.756   5.692   5.595 -0.3428  0.7678  0.4556
  730MOL0     C98479   2.842   5.728   5.474 -0.2213  0.3004 -0.5795
  730MOL0     C98480   2.898   5.759   5.376 -0.2097 -0.6632 -0.5171
  730MOL0     C98481   2.299   5.566   5.727 -0.0504  0.6081  0.4541
  730MOL0     C98482   2.170   5.553   5.704  0.5040 -0.7682  0.2643
  730MOL0     H98483   1.855   5.471   5.371  1.2029 -2.7786  0.6324
  730MOL0     H98484   1.660   5.451   5.273 -0.1548 -1.0049 -0.8888
  730MOL0     H98485   1.421   5.474   5.245  2.9652 -1.5287  1.8143
  730MOL0     H98486   1.453   5.302   5.263 -0.5473 -1.1025 -1.4064
  730MOL0     H98487   1.185   5.449   5.268 -1.9429 -0.0984 -2.5275
  730MOL0     H98488   1.254   5.370   5.130  0.1428 -0.0169 -0.0850
  730MOL0     H98489   1.244   5.148   5.264 -0.0326  2.0830 -3.0709
  730MOL0     H98490   1.159   5.229   5.403 -2.3488 -0.3165  0.4468
  730MOL0     H98491   1.043   5.214   5.112  1.6336 -1.2345 -0.3886
  730MOL0     H98492   1.032   5.082   5.232  2.0944 -0.3911 -0.0024
  730MOL0     H98493   0.920   5.241   5.375 -0.7097  1.3416 -0.0751
  730MOL0     H98494   0.955   5.376   5.255  2.9006 -0.0500  3.8121
  730MOL0     H98495   0.767   5.274   5.108 -2.1096 -0.2912 -0.3139
  730MOL0     H98496   0.750   5.151   5.233 -3.3286  1.9336  1.5357
  730MOL0     H98497   0.721   5.451   5.282 -1.1351  0.7834  2.2473
  730MOL0     H98498   0.602   5.358   5.203  2.0359 -1.2799 -2.0407
  730MOL0     H98499   0.706   5.288   5.490  0.6935 -2.9077 -1.0665
  730MOL0     H98500   0.590   5.197   5.402 -0.2876 -0.2215 -1.3395
  730MOL0     H98501   0.347   5.321   5.345 -1.3496  2.2439 -1.3987
  730MOL0     H98502   0.156   5.512   5.380  0.3349 -1.4864  0.2070
  730MOL0     H98503   0.147   5.435   5.534 -0.3749  2.6982  3.9865
  730MOL0     H98504   0.053   5.665   5.505 -1.3518 -1.8539  3.4297
  730MOL0     H98505   0.219   5.734   5.484 -2.2097  1.6804 -0.9257
  730MOL0     H98506   0.190   5.768   5.709 -1.6044  0.1560  0.4100
  730MOL0     H98507   0.235   5.607   5.728 -1.2083 -0.1865  0.5839
  730MOL0     H98508  -0.043   5.728   5.721 -2.3414 -2.2061 -0.8380
  730MOL0     H98509   0.028   5.653   5.865 -2.1107 -0.2088  0.4922
  730MOL0     H98510  -0.159   5.312   5.804  1.7077  1.1456  0.0944
  730MOL0     H98511  -0.486   5.289   5.935 -1.8969 -0.7852 -1.3769
  730MOL0     H98512  -0.462   5.186   5.794 -2.6614  2.2530 -0.8489
  730MOL0     H98513  -0.333   5.201   5.911 -1.0681 -0.4620  1.1171
  730MOL0     H98514  -0.798   5.778   5.707 -0.4669 -0.0537 -3.6587
  730MOL0     H98515  -1.063   5.807   5.707  1.1953  0.4030 -1.2383
  730MOL0     H98516  -1.255   5.790   5.630  3.0635 -1.4070 -0.5599
  730MOL0     H98517  -1.395   5.688   5.599 -0.0895 -0.4634  0.6104
  730MOL0     H98518  -1.269   5.752   5.868 -0.3427 -1.1812  1.9006
  730MOL0     H98519  -1.418   5.830   5.795 -1.8888 -1.0288  3.2929
  730MOL0     H98520  -1.420   5.535   5.856  0.7330  0.9264 -2.4723
  730MOL0     H98521  -1.557   5.637   5.809 -0.6683 -1.6650  0.4859
  730MOL0     H98522  -1.403   5.652   6.064 -0.6060 -0.8489  0.2477
  730MOL0     H98523  -1.509   5.780   6.017  0.6865 -0.2595 -3.7029
  730MOL0     H98524  -1.581   5.486   6.063  3.8578  1.1297 -0.7043
  730MOL0     H98525  -1.698   5.617   6.030 -2.4007 -2.6439  0.6934
  730MOL0     H98526  -1.503   5.632   6.266 -0.4754 -2.7228  2.2004
  730MOL0     H98527  -1.649   5.737   6.224 -0.6053 -1.5525 -1.3217
  730MOL0     H98528  -1.680   5.447   6.274  1.4742  0.5341 -1.7135
  730MOL0     H98529  -1.809   5.581   6.258  0.6334  0.2796 -0.5451
  730MOL0     H98530  -1.602   5.561   6.482 -0.2355 -0.8392  0.4964
  730MOL0     H98531  -1.760   5.477   6.489  0.2920 -0.4141 -0.0871
  730MOL0     H98532  -1.106   5.400   5.623 -2.6916  2.0978 -3.0520
  730MOL0     H98533  -0.854   5.367   5.636  0.3313  0.7018 -1.1918
  730MOL0     H98534  -0.462   5.666   5.643 -1.3384 -2.4189 -2.1239
  730MOL0     H98535  -0.225   5.709   5.631 -1.7666  1.2875  0.6253
  730MOL0     H98536   1.467   5.440   5.675  0.4454 -0.6100 -0.2452
  730MOL0     H98537   1.690   5.484   5.766 -1.7574  0.4522  0.3250
  730MOL0     H98538   2.122   5.256   5.859 -0.9346 -0.4854 -0.0433
  730MOL0     H98539   2.377   5.287   5.884  2.6906  1.5035  0.2628
  730MOL0     H98540   2.699   5.442   5.714  0.5951  1.9773 -1.8323
  730MOL0     H98541   2.562   5.337   5.683  1.4326  0.0240 -1.1636
  730MOL0     H98542   2.459   5.516   5.533 -0.7769 -0.0023  1.7932
  730MOL0     H98543   2.623   5.486   5.473  0.3988  2.5434 -0.8409
  730MOL0     H98544   2.545   5.725   5.610  1.2119  2.3007 -1.4425
  730MOL0     H98545   2.594   5.691   5.444  1.9725  0.0998 -1.4605
  730MOL0     H98546   2.814   5.617   5.649 -0.5326 -0.2000 -0.6479
  730MOL0     H98547   2.751   5.787   5.648 -0.1833  0.4412  1.0716
  730MOL0     H98548   2.951   5.803   5.294  1.4109  1.6967  1.6494
  730MOL0     H98549   2.338   5.662   5.693  1.1201 -0.1916 -0.5200
  730MOL0     H98550   2.122   5.638   5.656  1.3937  0.2241  1.0892
  731MOL0     O98551   0.441   1.859   1.150  0.1824  0.6718  0.3221
  731MOL0     C98552   0.436   1.951   1.221  0.4330 -0.3891  0.3529
  731MOL0     O98553   0.349   2.057   1.210 -0.1394 -0.2418  0.1724
  731MOL0     C98554   0.252   2.046   1.115 -0.2352 -0.0470 -0.7377
  731MOL0     C98555   0.243   2.131   1.001  0.1261  0.3104 -1.2949
  731MOL0     C98556   0.137   2.116   0.907  0.4473 -0.6577 -0.5460
  731MOL0     C98557   0.036   2.025   0.931  0.6093 -0.2251 -0.2865
  731MOL0     O98558  -0.061   2.008   0.834  0.4965 -0.5661 -0.0264
  731MOL0     C98559  -0.187   1.964   0.878 -0.2888  0.1306 -0.1853
  731MOL0     C98560  -0.274   1.983   0.749 -0.3750  1.2526 -0.4769
  731MOL0     C98561  -0.416   1.996   0.799 -1.0512 -0.5269 -0.5210
  731MOL0     C98562  -0.477   1.857   0.820 -0.1682  0.7520 -0.1121
  731MOL0     C98563  -0.625   1.848   0.816  0.2892  0.0549 -0.5984
  731MOL0     C98564  -0.661   1.705   0.851 -0.1114 -0.0658 -0.1644
  731MOL0     C98565  -0.805   1.678   0.838 -0.7442  0.8037 -0.1774
  731MOL0     C98566  -0.846   1.633   0.697 -0.1994  0.9419 -0.2014
  731MOL0     N98567  -0.986   1.626   0.685 -0.1574  0.1559 -0.2705
  731MOL0     C98568  -1.065   1.738   0.672 -0.3065  0.0403  0.3245
  731MOL0     C98569  -1.189   1.699   0.680 -0.1858  0.1164 -0.0938
  731MOL0     C98570  -1.316   1.769   0.659  0.9994 -0.9872 -0.5573
  731MOL0     C98571  -1.421   1.729   0.765  0.2255 -0.9656 -0.5008
  731MOL0     C98572  -1.505   1.609   0.715  0.1182 -0.2081  0.1804
  731MOL0     C98573  -1.602   1.556   0.823 -0.1010 -0.5980 -0.4615
  731MOL0     O98574  -1.709   1.651   0.849 -0.0651  0.5329 -0.0320
  731MOL0     C98575  -1.813   1.622   0.931 -0.3903  0.1330  0.1280
  731MOL0     C98576  -1.920   1.560   0.879  0.3638 -0.4577 -0.3220
  731MOL0     C98577  -2.034   1.527   0.947  1.8515  0.4104 -0.0316
  731MOL0     C98578  -2.129   1.428   0.881 -0.1077  0.0162  0.0423
  731MOL0     C98579  -2.048   1.583   1.078 -0.4395 -0.1995  0.2752
  731MOL0     C98580  -2.168   1.584   1.156 -1.0716 -0.4015 -0.0982
  731MOL0     O98581  -2.154   1.616   1.286 -0.0028  0.8837  0.2762
  731MOL0     C98582  -2.259   1.597   1.372  0.9240 -0.0105  0.0438
  731MOL0     C98583  -2.320   1.472   1.378 -0.1180  0.1108 -0.1678
  731MOL0     C98584  -2.421   1.444   1.471  0.2733  0.2764 -1.1620
  731MOL0     C98585  -2.478   1.543   1.556 -0.7009 -1.5876 -0.2285
  731MOL0     O98586  -2.578   1.535   1.656 -0.3657 -0.4955 -0.1999
  731MOL0     C98587  -2.621   1.399   1.672 -0.1293  0.6007  0.9026
  731MOL0     C98588  -2.744   1.389   1.753  0.4944  1.5628 -0.1322
  731MOL0     C98589  -2.861   1.474   1.708  0.1861 -0.3634 -0.1087
  731MOL0     C98590  -2.973   1.457   1.821 -0.0469 -1.2874  0.3431
  731MOL0     C98591  -3.107   1.515   1.789 -1.0525 -1.2512  0.4005
  731MOL0     C98592  -3.172   1.447   1.665 -1.1592  0.3910  0.0319
  731MOL0     C98593  -3.319   1.458   1.697  0.5657  0.5476 -0.0014
  731MOL0     C98594  -3.418   1.390   1.594  0.2926 -0.3441 -0.3060
  731MOL0    Cl98595  -3.416   1.212   1.602 -0.6071  0.0351  0.2344
  731MOL0     C98596  -2.427   1.673   1.547  0.7437 -0.6301  0.1478
  731MOL0     C98597  -2.316   1.693   1.457  0.4902 -0.0563 -1.1365
  731MOL0     O98598  -2.279   1.581   1.100  0.8674  0.3615 -0.5072
  731MOL0     C98599  -1.930   1.649   1.133 -0.5741  0.3194  1.0304
  731MOL0     C98600  -1.812   1.674   1.056  0.0184  0.6001  0.5606
  731MOL0     N98601  -1.192   1.562   0.709 -0.5252  0.0022 -0.3160
  731MOL0     N98602  -1.070   1.519   0.696  0.1810  0.4238  0.5002
  731MOL0     C98603   0.034   1.959   1.058  0.3769  0.3477 -1.2329
  731MOL0     C98604   0.130   1.984   1.153  0.6402  1.2385  0.8881
  731MOL0     C98605   0.539   1.964   1.316  0.0731 -0.2081 -0.4421
  731MOL0     C98606   0.539   2.067   1.409  0.1309 -0.8160 -1.0011
  731MOL0     C98607   0.637   2.092   1.504 -0.4078  0.0144  0.2264
  731MOL0     C98608   0.754   2.019   1.489 -0.4019 -0.6235 -0.1571
  731MOL0     O98609   0.850   2.065   1.574 -1.2114 -0.3687  0.1649
  731MOL0     C98610   0.988   2.021   1.543 -0.2752 -0.2556  0.0245
  731MOL0     C98611   1.055   2.071   1.410  0.8654  0.1506  0.0479
  731MOL0     C98612   1.075   2.221   1.406 -0.7169 -0.3592  0.3840
  731MOL0     C98613   1.199   2.271   1.485 -0.3729  0.4317  0.2341
  731MOL0     C98614   1.165   2.306   1.619  0.2231 -0.3447 -0.3969
  731MOL0     C98615   1.135   2.326   1.738  0.7677 -1.2477 -0.2465
  731MOL0     C98616   0.760   1.913   1.396  0.9166 -0.6271  0.3404
  731MOL0     C98617   0.654   1.884   1.315  0.2390 -0.8286 -0.1396
  731MOL0     H98618   0.329   2.196   0.989  0.7616 -0.1987  0.2373
  731MOL0     H98619   0.132   2.176   0.817 -0.9616 -2.1342 -1.5077
  731MOL0     H98620  -0.179   1.859   0.908  0.1673  0.3798  0.6031
  731MOL0     H98621  -0.225   2.024   0.961  0.5179  0.4730 -0.0582
  731MOL0     H98622  -0.251   2.074   0.693 -0.9942  0.7040 -1.6538
  731MOL0     H98623  -0.265   1.891   0.690 -1.7792 -1.1163  2.6906
  731MOL0     H98624  -0.431   2.052   0.892 -1.6411  0.7317 -1.3400
  731MOL0     H98625  -0.475   2.037   0.717  0.0451 -0.0688 -1.1051
  731MOL0     H98626  -0.440   1.789   0.742 -0.4116 -0.3232  0.6784
  731MOL0     H98627  -0.449   1.824   0.921 -1.5825  1.2780  0.4835
  731MOL0     H98628  -0.665   1.922   0.886  0.0749 -0.6411  0.0248
  731MOL0     H98629  -0.660   1.869   0.715 -0.4327  1.5229 -0.0708
  731MOL0     H98630  -0.592   1.642   0.794  0.6093  2.0153 -1.7369
  731MOL0     H98631  -0.628   1.698   0.955  2.9921  2.1048 -0.8484
  731MOL0     H98632  -0.833   1.606   0.915 -3.7557 -0.5151 -2.3284
  731MOL0     H98633  -0.863   1.769   0.857 -1.9860 -0.1066  0.4835
  731MOL0     H98634  -0.813   1.530   0.686 -0.1754  0.9239  0.0195
  731MOL0     H98635  -0.798   1.699   0.625 -1.8781  1.5182 -0.8516
  731MOL0     H98636  -1.019   1.836   0.661  2.0185 -0.8598  1.3382
  731MOL0     H98637  -1.293   1.876   0.660  1.6740 -1.0934  1.6429
  731MOL0     H98638  -1.361   1.757   0.560  3.0885 -0.5439 -1.6346
  731MOL0     H98639  -1.481   1.815   0.794 -1.0703 -1.9999 -0.0267
  731MOL0     H98640  -1.361   1.709   0.854 -2.5247 -0.3081  1.6501
  731MOL0     H98641  -1.440   1.524   0.691  0.8526  0.6288 -0.8780
  731MOL0     H98642  -1.570   1.639   0.632  0.7854 -2.3504 -1.2093
  731MOL0     H98643  -1.547   1.540   0.916  0.4489  1.9952 -0.2661
  731MOL0     H98644  -1.642   1.456   0.802  0.2555 -1.3482  2.0823
  731MOL0     H98645  -1.917   1.520   0.778  0.7981  0.6317 -0.7534
  731MOL0     H98646  -2.194   1.479   0.809  0.7128  1.0718  0.0173
  731MOL0     H98647  -2.084   1.346   0.824 -0.6839 -1.6256  1.8486
  731MOL0     H98648  -2.192   1.378   0.955 -2.0239 -1.1509 -2.2104
  731MOL0     H98649  -2.295   1.396   1.305 -2.8884 -3.7639  2.5186
  731MOL0     H98650  -2.467   1.346   1.479  1.9402 -0.5044 -0.6925
  731MOL0     H98651  -2.650   1.355   1.576  0.6412  1.5379  0.2233
  731MOL0     H98652  -2.543   1.337   1.718 -1.4393 -1.0454  1.0277
  731MOL0     H98653  -2.788   1.289   1.760 -1.4014  1.9605 -3.7879
  731MOL0     H98654  -2.724   1.417   1.857 -0.5404  1.0159  0.2248
  731MOL0     H98655  -2.910   1.445   1.615  3.0979  0.8587 -2.1681
  731MOL0     H98656  -2.838   1.580   1.699 -0.4614 -0.3111 -1.3162
  731MOL0     H98657  -2.987   1.358   1.867 -0.6466  0.5567  4.6102
  731MOL0     H98658  -2.929   1.512   1.904  0.8585  0.0958 -1.0198
  731MOL0     H98659  -3.103   1.623   1.771 -1.3855 -1.3082 -0.0502
  731MOL0     H98660  -3.156   1.503   1.886  0.7465  0.0884  1.5442
  731MOL0     H98661  -3.149   1.496   1.570 -0.3064  0.1814  0.1226
  731MOL0     H98662  -3.144   1.341   1.660  0.0935  0.5381  2.4224
  731MOL0     H98663  -3.346   1.564   1.701 -0.6236  0.4035 -2.3619
  731MOL0     H98664  -3.354   1.416   1.792 -1.7818 -2.0583 -1.8419
  731MOL0     H98665  -3.387   1.420   1.494 -2.0520  3.7113 -0.0575
  731MOL0     H98666  -3.520   1.426   1.615  0.1943 -0.5480 -0.4331
  731MOL0     H98667  -2.465   1.747   1.615 -1.8477 -0.5192 -1.2810
  731MOL0     H98668  -2.288   1.797   1.457 -2.3758  0.8561  1.1958
  731MOL0     H98669  -1.940   1.690   1.233  0.4829 -0.4615  1.4716
  731MOL0     H98670  -1.722   1.722   1.093  1.5917 -2.2735  0.7911
  731MOL0     H98671  -0.046   1.891   1.083  0.1431  0.7185 -0.9528
  731MOL0     H98672   0.128   1.922   1.243  1.1938  0.4609  0.3854
  731MOL0     H98673   0.458   2.140   1.409  0.2422 -0.6322  1.1883
  731MOL0     H98674   0.627   2.166   1.583 -2.3751  2.1234 -1.8244
  731MOL0     H98675   1.053   2.067   1.618 -0.1156 -1.0833  0.4049
  731MOL0     H98676   1.007   1.914   1.555  0.9049 -0.3490 -2.2322
  731MOL0     H98677   0.993   2.059   1.321  0.9144 -1.6374  0.2129
  731MOL0     H98678   1.146   2.012   1.399 -1.1367 -3.1694 -0.2451
  731MOL0     H98679   0.982   2.275   1.428 -0.6574  0.1166 -0.5125
  731MOL0     H98680   1.105   2.248   1.305  1.0276  2.4013  1.5121
  731MOL0     H98681   1.243   2.361   1.442  0.4217 -0.9654 -2.0238
  731MOL0     H98682   1.276   2.194   1.481  0.0809  0.6832  2.5157
  731MOL0     H98683   1.097   2.351   1.835 -0.8568  3.6217 -1.8429
  731MOL0     H98684   0.851   1.855   1.386  2.7492  1.6871  2.3677
  731MOL0     H98685   0.660   1.795   1.253 -3.3665 -0.0279 -1.8567
  732MOL0     O98686   6.578   3.364  10.986 -0.2386  0.2775 -0.9081
  732MOL0     C98687   6.597   3.370  10.865  0.3371 -0.9813  0.9009
  732MOL0     O98688   6.502   3.365  10.762 -0.0283 -0.1775 -0.6391
  732MOL0     C98689   6.375   3.354  10.808 -1.4552 -0.3064 -0.0894
  732MOL0     C98690   6.339   3.259  10.909 -0.1306 -0.2865  0.3868
  732MOL0     C98691   6.203   3.250  10.948  0.8672 -0.0076  0.3277
  732MOL0     C98692   6.105   3.331  10.893 -0.0143 -0.1535  0.2615
  732MOL0     O98693   5.976   3.337  10.937 -1.0112 -0.6809  0.7616
  732MOL0     C98694   5.955   3.307  11.072  1.1809 -0.1544  0.1829
  732MOL0     C98695   5.821   3.379  11.119 -0.4959 -1.1140 -0.2115
  732MOL0     C98696   5.702   3.324  11.046  1.0318  0.2116 -0.0507
  732MOL0     C98697   5.598   3.433  11.032  0.7562  0.3211  0.3669
  732MOL0     C98698   5.490   3.377  10.939 -0.1607  0.2361  0.7392
  732MOL0     C98699   5.417   3.504  10.880  0.7633  0.0834  0.1077
  732MOL0     C98700   5.302   3.459  10.777  0.9973 -0.7320 -0.5191
  732MOL0     C98701   5.219   3.567  10.712  1.3056  0.6520 -0.0683
  732MOL0     N98702   5.086   3.598  10.768 -0.5341  0.3488  0.5921
  732MOL0     C98703   5.062   3.669  10.881 -0.2668 -0.9678  0.2794
  732MOL0     C98704   4.927   3.695  10.877 -0.0228  0.1392 -0.0446
  732MOL0     C98705   4.855   3.791  10.965  0.6274 -0.2110 -0.7016
  732MOL0     C98706   4.793   3.914  10.895  0.4237  0.6195 -0.0471
  732MOL0     C98707   4.663   3.964  10.960 -0.5867 -0.0219 -0.2249
  732MOL0     C98708   4.677   4.071  11.074 -0.4958 -0.0667  0.2613
  732MOL0     O98709   4.739   4.019  11.189 -0.3081  0.0797 -0.4827
  732MOL0     C98710   4.871   4.044  11.207  0.1509 -0.4973 -0.5966
  732MOL0     C98711   4.943   4.160  11.170  0.9877 -0.2559 -0.7606
  732MOL0     C98712   5.076   4.175  11.214  0.2659 -0.6044 -0.4574
  732MOL0     C98713   5.151   4.298  11.172  0.5213  0.3187  0.2966
  732MOL0     C98714   5.138   4.066  11.280  0.2317  0.0511  0.9866
  732MOL0     C98715   5.284   4.068  11.342 -0.2684 -0.0984  0.7593
  732MOL0     O98716   5.351   3.957  11.347  0.1066  0.9730 -0.0349
  732MOL0     C98717   5.472   3.956  11.419 -0.0869  0.0772  0.8953
  732MOL0     C98718   5.470   3.911  11.549 -0.0853 -0.0747 -1.3673
  732MOL0     C98719   5.588   3.900  11.623  0.1365  0.9483 -0.1420
  732MOL0     C98720   5.709   3.933  11.572  0.4254 -0.1794  0.0472
  732MOL0     O98721   5.801   3.936  11.674  0.3147 -0.3679  0.1278
  732MOL0     C98722   5.937   3.971  11.651 -0.0606  0.4691 -0.4578
  732MOL0     C98723   6.003   3.851  11.586 -0.9595 -0.0872  0.2899
  732MOL0     C98724   6.161   3.835  11.599  0.7253 -1.4186  0.1620
  732MOL0     C98725   6.242   3.965  11.565  0.7114 -0.0336  0.7197
  732MOL0     C98726   6.366   3.922  11.485 -0.4101 -0.4024  0.0891
  732MOL0     C98727   6.470   3.839  11.566 -0.1247  0.0729  0.0956
  732MOL0     C98728   6.600   3.837  11.483  0.0305  0.2719 -0.2173
  732MOL0     C98729   6.687   3.739  11.553  0.3381  0.8441  0.0999
  732MOL0    Cl98730   6.755   3.792  11.714 -0.7888 -0.0411 -0.6533
  732MOL0     C98731   5.716   3.986  11.437 -1.1110  0.2829 -0.5810
  732MOL0     C98732   5.596   3.997  11.362  0.2114  0.5273 -1.2679
  732MOL0     O98733   5.329   4.173  11.381  1.2988 -0.7584  0.8186
  732MOL0     C98734   5.061   3.959  11.314 -0.9278  0.2579  0.6615
  732MOL0     C98735   4.923   3.950  11.293 -0.1475  0.0487  0.2558
  732MOL0     N98736   4.869   3.631  10.770  0.2161  0.3372  0.1948
  732MOL0     N98737   4.968   3.586  10.703 -0.3254  0.4945  1.0941
  732MOL0     C98738   6.138   3.412  10.784 -0.3913  1.8040 -0.6768
  732MOL0     C98739   6.273   3.423  10.745 -1.0196  0.1345  0.8419
  732MOL0     C98740   6.728   3.410  10.824 -0.4950  0.1284  1.4163
  732MOL0     C98741   6.811   3.496  10.907  0.4597 -0.5340  0.2489
  732MOL0     C98742   6.943   3.530  10.874  0.0815 -0.5143 -0.6011
  732MOL0     C98743   6.995   3.487  10.755  0.3523 -1.5535 -0.3352
  732MOL0     O98744   7.126   3.513  10.712 -0.3584 -0.4625  0.7727
  732MOL0     C98745   7.242   3.509  10.799  0.1076 -0.4774 -0.0736
  732MOL0     C98746   7.346   3.421  10.737  0.0630 -0.0421  0.1942
  732MOL0     C98747   7.278   3.280  10.719  0.1639  0.5217  0.0776
  732MOL0     C98748   7.384   3.188  10.653 -0.5578  0.4587  0.1580
  732MOL0     C98749   7.348   3.041  10.676 -0.1516 -0.4238  1.1041
  732MOL0     C98750   7.339   2.923  10.701  0.7000 -0.3519 -0.3812
  732MOL0     C98751   6.908   3.420  10.668  0.0943 -0.2089  0.3960
  732MOL0     C98752   6.785   3.371  10.696 -0.2491  0.7302 -0.8925
  732MOL0     H98753   6.409   3.192  10.959  1.6199  0.3032 -1.1691
  732MOL0     H98754   6.176   3.168  11.014  1.7457 -2.0292 -1.6913
  732MOL0     H98755   5.938   3.202  11.098 -2.8145  0.6294  1.4002
  732MOL0     H98756   6.036   3.352  11.130  0.7311 -0.9239  1.4499
  732MOL0     H98757   5.813   3.381  11.228  2.5404  1.0999  0.0773
  732MOL0     H98758   5.821   3.485  11.092 -0.4014  0.2392  4.3222
  732MOL0     H98759   5.730   3.275  10.953 -0.4022  1.5463 -1.2392
  732MOL0     H98760   5.660   3.245  11.109  0.8686 -1.0994 -1.7336
  732MOL0     H98761   5.554   3.457  11.130 -0.3597 -1.5051  0.3663
  732MOL0     H98762   5.642   3.520  10.984  1.2259  0.5926  1.2809
  732MOL0     H98763   5.533   3.322  10.855 -1.7069 -0.0863  0.1277
  732MOL0     H98764   5.422   3.316  10.999 -2.3565  0.3263 -1.5143
  732MOL0     H98765   5.364   3.559  10.959  1.1990 -2.2417  2.1419
  732MOL0     H98766   5.491   3.577  10.845  0.6751  0.4867  0.7369
  732MOL0     H98767   5.356   3.413  10.693  1.2747 -0.0343 -0.7261
  732MOL0     H98768   5.236   3.390  10.830  1.1216 -0.1589  0.4008
  732MOL0     H98769   5.202   3.528  10.612 -2.0693  1.9202 -0.0977
  732MOL0     H98770   5.263   3.661  10.680  0.5700  0.9332 -0.2617
  732MOL0     H98771   5.137   3.697  10.954  0.1985  0.3177 -0.6516
  732MOL0     H98772   4.786   3.734  11.028 -0.0108 -0.2443 -1.4223
  732MOL0     H98773   4.924   3.832  11.039  1.2796 -1.2583 -0.7042
  732MOL0     H98774   4.772   3.867  10.799 -1.3404 -4.7362  2.6151
  732MOL0     H98775   4.873   3.987  10.877 -0.4002  1.2285 -1.4206
  732MOL0     H98776   4.608   3.872  10.983  1.3716 -1.1553  0.1093
  732MOL0     H98777   4.601   4.015  10.885  1.6834  0.2730 -2.0044
  732MOL0     H98778   4.580   4.111  11.105  0.5116 -0.5615  4.8390
  732MOL0     H98779   4.730   4.157  11.032 -3.3070  1.8876  0.4745
  732MOL0     H98780   4.895   4.244  11.119  0.3728 -0.4372 -0.4904
  732MOL0     H98781   5.112   4.339  11.079 -2.2658 -0.3729  1.0550
  732MOL0     H98782   5.147   4.369  11.255 -0.4091  0.5559  0.0556
  732MOL0     H98783   5.255   4.269  11.154  0.5239  0.0911  0.6563
  732MOL0     H98784   5.372   3.897  11.593  1.5139 -1.4092  2.2086
  732MOL0     H98785   5.580   3.855  11.722 -2.7290 -0.1195 -0.7531
  732MOL0     H98786   5.936   4.068  11.600 -2.1283  1.4574  1.2958
  732MOL0     H98787   5.975   3.984  11.753 -5.4339 -1.3427  2.1836
  732MOL0     H98788   5.967   3.765  11.643  3.3331 -2.5400 -0.2166
  732MOL0     H98789   5.982   3.846  11.479  1.4217  0.6225 -0.2656
  732MOL0     H98790   6.199   3.749  11.543  1.5706 -0.0241 -1.5090
  732MOL0     H98791   6.174   3.812  11.705 -0.2555  0.9221  0.8547
  732MOL0     H98792   6.192   4.041  11.505  1.8512  0.8974  0.9011
  732MOL0     H98793   6.283   4.011  11.656  3.7209  1.6960 -1.3192
  732MOL0     H98794   6.399   4.012  11.432 -3.7107  0.4796 -0.7422
  732MOL0     H98795   6.330   3.858  11.404 -0.3750  1.4817 -1.4858
  732MOL0     H98796   6.491   3.880  11.665  2.0939 -3.8695  1.5144
  732MOL0     H98797   6.429   3.739  11.581 -0.2906 -0.2445 -2.0796
  732MOL0     H98798   6.632   3.941  11.472 -2.5557  1.7037  3.7590
  732MOL0     H98799   6.578   3.793  11.385 -0.5380  0.9145 -0.3845
  732MOL0     H98800   6.764   3.703  11.484 -0.1917  3.4222 -2.0183
  732MOL0     H98801   6.626   3.650  11.571 -0.2382  1.0906 -0.5793
  732MOL0     H98802   5.811   4.015  11.393  0.7784 -3.3278  0.7106
  732MOL0     H98803   5.610   4.038  11.263  1.2678 -0.2721 -1.4688
  732MOL0     H98804   5.111   3.878  11.366  1.2263  0.6342 -0.6880
  732MOL0     H98805   4.854   3.869  11.311  0.6038 -0.4911  0.7945
  732MOL0     H98806   6.057   3.463  10.733 -3.1175 -2.6285 -1.3217
  732MOL0     H98807   6.300   3.471  10.652  0.9996 -1.5476  0.4975
  732MOL0     H98808   6.765   3.522  11.002 -2.1410  0.5332 -1.1913
  732MOL0     H98809   7.001   3.590  10.943  0.3039 -1.2120 -0.1787
  732MOL0     H98810   7.290   3.606  10.818  0.1243 -0.1290 -1.7379
  732MOL0     H98811   7.208   3.464  10.893 -0.0766 -0.0104  0.0910
  732MOL0     H98812   7.426   3.403  10.810 -0.8000  1.1189  1.4738
  732MOL0     H98813   7.385   3.472  10.648 -0.5300  1.8357  0.9551
  732MOL0     H98814   7.192   3.292  10.652  2.0354 -0.3537 -2.6362
  732MOL0     H98815   7.259   3.249  10.822  1.6366  0.8470  0.4695
  732MOL0     H98816   7.472   3.216  10.711 -1.1164  0.4195  1.0442
  732MOL0     H98817   7.386   3.211  10.546 -2.5623 -0.1783 -0.0632
  732MOL0     H98818   7.317   2.819  10.709 -1.4404  0.0999  0.3821
  732MOL0     H98819   6.950   3.397  10.571  1.6415  1.4067  0.6321
  732MOL0     H98820   6.731   3.316  10.620 -3.5987  1.6673  0.5908
  733MOL0     O98821   4.820   5.761   3.964  0.8687 -0.2288 -0.5776
  733MOL0     C98822   4.856   5.755   3.847  0.2585  0.6134  0.2773
  733MOL0     O98823   4.778   5.687   3.752  0.7610  0.6513 -0.5647
  733MOL0     C98824   4.660   5.620   3.798 -0.7572 -1.1112  0.4961
  733MOL0     C98825   4.656   5.518   3.893 -0.0678 -0.1073 -0.1091
  733MOL0     C98826   4.547   5.435   3.905  1.6841 -0.2990  0.0670
  733MOL0     C98827   4.425   5.462   3.841 -1.0797 -0.7507 -0.1517
  733MOL0     O98828   4.317   5.374   3.869  0.3279 -0.3720 -0.0490
  733MOL0     C98829   4.184   5.407   3.822 -0.5176  0.2957  0.1028
  733MOL0     C98830   4.160   5.371   3.673 -0.4027  0.0191  0.5330
  733MOL0     C98831   4.012   5.363   3.650  0.1003 -0.6169  0.8508
  733MOL0     C98832   3.983   5.357   3.500 -0.6681  0.0472 -0.0746
  733MOL0     C98833   3.856   5.286   3.456 -0.6318 -0.3693  0.3785
  733MOL0     C98834   3.845   5.241   3.317  0.4773 -0.0349  0.7300
  733MOL0     C98835   3.698   5.207   3.264  0.6762  0.3162 -0.8753
  733MOL0     C98836   3.579   5.298   3.312 -0.9420  0.0982  0.4265
  733MOL0     N98837   3.522   5.268   3.439 -0.3302 -0.3213  0.0973
  733MOL0     C98838   3.387   5.258   3.449 -0.3728  0.3330  0.2664
  733MOL0     C98839   3.365   5.265   3.583 -0.7575  0.3022 -0.0075
  733MOL0     C98840   3.230   5.234   3.649 -0.5032 -1.3870  0.1974
  733MOL0     C98841   3.157   5.354   3.708 -0.5984  0.8805  0.3943
  733MOL0     C98842   3.116   5.454   3.608  0.6864  0.3885 -0.3165
  733MOL0     C98843   3.024   5.391   3.496  0.3426 -0.2816 -0.1891
  733MOL0     O98844   2.978   5.506   3.415  0.2909  0.2175  0.2036
  733MOL0     C98845   2.876   5.485   3.327 -0.6145 -0.4475 -0.3818
  733MOL0     C98846   2.830   5.608   3.282 -1.0035 -0.0097  0.7418
  733MOL0     C98847   2.731   5.621   3.184  0.8101  0.4272  0.4865
  733MOL0     C98848   2.688   5.758   3.142  0.0898 -0.2678 -0.1107
  733MOL0     C98849   2.684   5.500   3.117  0.5693 -0.0450  0.1930
  733MOL0     C98850   2.572   5.491   3.023  0.9470 -0.7825  0.2947
  733MOL0     O98851   2.504   5.367   3.008 -0.3331  0.6597 -0.1421
  733MOL0     C98852   2.377   5.353   2.967  0.6909 -0.1978  0.0890
  733MOL0     C98853   2.299   5.443   2.885 -0.6074  0.1400 -0.2843
  733MOL0     C98854   2.167   5.402   2.856 -0.0838 -1.0126  0.3009
  733MOL0     C98855   2.107   5.283   2.903 -0.1972  0.0754  0.0010
  733MOL0     O98856   1.981   5.267   2.856 -0.5916 -0.2855 -0.1715
  733MOL0     C98857   1.912   5.151   2.891  0.3430  0.2451  0.5848
  733MOL0     C98858   1.785   5.148   2.809  0.1143  0.4571 -0.1704
  733MOL0     C98859   1.727   5.007   2.776  0.1596  0.4571  0.5205
  733MOL0     C98860   1.580   4.984   2.804  0.0456 -0.1550 -0.0631
  733MOL0     C98861   1.509   4.859   2.741  0.0120  0.5171 -0.0040
  733MOL0     C98862   1.356   4.871   2.739 -0.2026  0.4816 -0.9551
  733MOL0     C98863   1.278   4.749   2.702  0.3916  0.6101  0.2363
  733MOL0     C98864   1.309   4.690   2.559 -0.1722  0.9786 -0.1411
  733MOL0    Cl98865   1.456   4.586   2.580 -0.0030 -0.1471  0.2633
  733MOL0     C98866   2.181   5.194   2.985  0.1394  1.1625  0.5299
  733MOL0     C98867   2.316   5.227   3.010 -0.3579  0.2866  0.1180
  733MOL0     O98868   2.559   5.589   2.948  0.3725  0.0289  0.2030
  733MOL0     C98869   2.732   5.378   3.167 -1.0948  0.5914 -0.2966
  733MOL0     C98870   2.829   5.366   3.270 -0.1305 -0.4119  0.2805
  733MOL0     N98871   3.486   5.275   3.656  0.8583 -0.5840  0.1321
  733MOL0     N98872   3.572   5.269   3.567  0.1075 -0.6929  0.9950
  733MOL0     C98873   4.425   5.571   3.754 -0.4957 -0.4426  0.3918
  733MOL0     C98874   4.543   5.640   3.727  0.3282 -0.6581  0.0787
  733MOL0     C98875   4.974   5.830   3.797 -0.1639 -0.5640 -0.7376
  733MOL0     C98876   5.043   5.783   3.682 -0.0964  0.5989  0.8967
  733MOL0     C98877   5.165   5.841   3.641  0.4561 -0.7585 -0.5134
  733MOL0     C98878   5.213   5.951   3.712  0.8138 -0.7601  0.6574
  733MOL0     O98879   5.329   6.019   3.677  0.9604  0.7489  0.2199
  733MOL0     C98880   5.386   6.017   3.550 -0.1250  0.0895 -1.2103
  733MOL0     C98881   5.312   6.080   3.430  0.1390  0.0123  0.0465
  733MOL0     C98882   5.327   6.223   3.405  0.7270 -0.0211  0.4361
  733MOL0     C98883   5.241   6.259   3.281  0.1544 -0.0255 -0.3437
  733MOL0     C98884   5.291   6.382   3.216 -0.4301  0.3196 -0.0960
  733MOL0     C98885   5.346   6.481   3.177  0.3275 -0.5208 -0.1470
  733MOL0     C98886   5.144   5.992   3.824  0.0390 -0.3955  0.2113
  733MOL0     C98887   5.023   5.936   3.861 -0.4651 -0.3116  0.5127
  733MOL0     H98888   4.741   5.497   3.958 -0.5396  2.9316  1.7300
  733MOL0     H98889   4.545   5.353   3.976  1.5739 -0.1495  0.2374
  733MOL0     H98890   4.112   5.351   3.882 -1.2055  1.3260  0.2651
  733MOL0     H98891   4.160   5.511   3.846  1.3475  0.9727 -0.7194
  733MOL0     H98892   4.201   5.450   3.610 -3.2959  0.6331 -0.7451
  733MOL0     H98893   4.200   5.275   3.640 -1.6429 -0.3135 -0.0694
  733MOL0     H98894   3.977   5.266   3.687 -0.1580 -0.4849  0.9573
  733MOL0     H98895   3.959   5.448   3.695  1.9555  0.6255  0.7567
  733MOL0     H98896   3.985   5.460   3.464 -2.7949  1.0752  2.4506
  733MOL0     H98897   4.061   5.299   3.449 -3.2296 -1.7366 -2.2655
  733MOL0     H98898   3.828   5.195   3.510  1.2717 -2.8340 -2.4211
  733MOL0     H98899   3.782   5.364   3.470  2.6348  2.8972  0.9090
  733MOL0     H98900   3.891   5.324   3.263  2.8800 -1.5888  0.2105
  733MOL0     H98901   3.916   5.160   3.297  1.5111  1.2896 -1.2821
  733MOL0     H98902   3.703   5.212   3.155  1.2893  0.9392 -0.8315
  733MOL0     H98903   3.667   5.105   3.288 -1.7167  0.3688 -3.3725
  733MOL0     H98904   3.508   5.315   3.231 -1.4149  2.2381  1.2316
  733MOL0     H98905   3.626   5.396   3.325 -0.4117 -0.3016  1.7422
  733MOL0     H98906   3.329   5.229   3.362  2.2886 -1.6987 -0.9730
  733MOL0     H98907   3.160   5.177   3.586 -1.4882  1.5845 -1.5901
  733MOL0     H98908   3.240   5.158   3.727  2.0755  0.1375  1.4528
  733MOL0     H98909   3.227   5.399   3.779  1.1876  1.2779 -1.5594
  733MOL0     H98910   3.073   5.315   3.766 -0.2112  0.1717  0.4901
  733MOL0     H98911   3.201   5.509   3.567  0.0823  1.0755 -0.6773
  733MOL0     H98912   3.059   5.526   3.667 -1.3489 -0.3310 -1.2976
  733MOL0     H98913   2.945   5.325   3.535  0.7244 -1.5270 -1.4489
  733MOL0     H98914   3.085   5.316   3.446 -0.0204 -1.0052  0.4160
  733MOL0     H98915   2.870   5.697   3.330  0.9647  0.3875 -1.4608
  733MOL0     H98916   2.729   5.783   3.044  2.1109 -0.8911  0.5208
  733MOL0     H98917   2.581   5.777   3.150  0.4675  1.2189  5.3090
  733MOL0     H98918   2.729   5.824   3.219 -0.9840 -0.7999  0.9419
  733MOL0     H98919   2.328   5.534   2.836 -1.4991  0.2483 -0.6376
  733MOL0     H98920   2.106   5.462   2.789  0.9143  0.5712  0.7749
  733MOL0     H98921   1.969   5.058   2.878 -0.2727 -0.1137  0.4313
  733MOL0     H98922   1.887   5.156   2.997 -1.7400  0.4337  0.1239
  733MOL0     H98923   1.705   5.193   2.868 -1.9987 -3.2070  0.0898
  733MOL0     H98924   1.809   5.205   2.719 -0.0718  2.6502  1.1107
  733MOL0     H98925   1.784   4.935   2.835  0.6218  2.8430  3.2749
  733MOL0     H98926   1.744   4.981   2.671  0.1956  2.2781  0.0400
  733MOL0     H98927   1.576   4.976   2.913  1.0010 -1.2436 -0.0812
  733MOL0     H98928   1.522   5.071   2.773  0.2129  0.0006  0.0603
  733MOL0     H98929   1.533   4.774   2.804 -2.5415  0.2842  0.7573
  733MOL0     H98930   1.539   4.850   2.636  1.9423 -1.0367  0.6228
  733MOL0     H98931   1.312   4.906   2.832  0.9872 -0.2048 -0.1120
  733MOL0     H98932   1.331   4.956   2.675 -2.2135  1.6332  1.2161
  733MOL0     H98933   1.174   4.782   2.698  0.0027 -0.6642 -2.2614
  733MOL0     H98934   1.277   4.664   2.771  2.7507  2.4450  2.7352
  733MOL0     H98935   1.317   4.768   2.483 -2.5326  0.5811 -0.8856
  733MOL0     H98936   1.223   4.629   2.530  0.8886 -0.0740 -1.1587
  733MOL0     H98937   2.124   5.109   3.022 -1.8257  1.8179 -0.8073
  733MOL0     H98938   2.374   5.163   3.077  1.3719  0.7939 -0.8215
  733MOL0     H98939   2.696   5.279   3.141 -0.1787 -0.8611  3.3780
  733MOL0     H98940   2.859   5.268   3.307  1.4753  1.3331  4.2129
  733MOL0     H98941   4.338   5.604   3.698  1.5674 -1.3298 -3.7169
  733MOL0     H98942   4.548   5.714   3.647  4.0140 -1.2823 -0.4350
  733MOL0     H98943   5.005   5.697   3.627  0.7731  1.4621 -1.1538
  733MOL0     H98944   5.221   5.803   3.556 -0.0253 -1.1854 -0.6444
  733MOL0     H98945   5.480   6.070   3.566 -1.2888  2.6631 -2.3762
  733MOL0     H98946   5.408   5.911   3.535  4.4635  0.7693 -0.7006
  733MOL0     H98947   5.207   6.049   3.430 -0.2749  1.3052 -1.1098
  733MOL0     H98948   5.348   6.029   3.340  0.3221  4.1869 -2.5253
  733MOL0     H98949   5.425   6.270   3.399  0.8309 -0.3263 -0.3327
  733MOL0     H98950   5.280   6.264   3.495  2.1559  0.2477  1.0811
  733MOL0     H98951   5.134   6.262   3.303 -0.2223  0.2585 -2.1099
  733MOL0     H98952   5.261   6.180   3.208  3.4748  1.0522 -0.7450
  733MOL0     H98953   5.374   6.577   3.138 -3.2912  0.5272 -0.4950
  733MOL0     H98954   5.173   6.088   3.865 -1.0256  1.3421 -2.8391
  733MOL0     H98955   4.966   5.985   3.939  0.5037 -0.1558  1.1483
  734MOL0     O98956   1.517   2.130   2.774 -0.7496  0.1589 -0.2025
  734MOL0     C98957   1.511   2.240   2.829 -0.0583 -0.2662 -0.2949
  734MOL0     O98958   1.516   2.261   2.969  0.2078 -0.1686 -0.3933
  734MOL0     C98959   1.509   2.162   3.068  0.4192 -0.0052  0.0779
  734MOL0     C98960   1.565   2.190   3.187  0.5399  0.0786 -0.2413
  734MOL0     C98961   1.554   2.104   3.296  0.1789  0.2075  0.3752
  734MOL0     C98962   1.464   1.993   3.295  1.0871 -0.4497 -0.4347
  734MOL0     O98963   1.476   1.915   3.407 -0.3299 -0.1571  0.7128
  734MOL0     C98964   1.368   1.836   3.442 -0.2539  0.5786 -0.1159
  734MOL0     C98965   1.395   1.742   3.558 -0.4361 -0.3195  1.1037
  734MOL0     C98966   1.519   1.652   3.554 -0.1103 -0.0045 -0.2824
  734MOL0     C98967   1.550   1.568   3.433  0.1233  0.1679  0.1351
  734MOL0     C98968   1.446   1.463   3.402 -0.3444  0.8666 -0.4161
  734MOL0     C98969   1.478   1.391   3.273 -0.0571 -0.6551  0.2011
  734MOL0     C98970   1.379   1.266   3.245  0.1441 -0.3521  0.2485
  734MOL0     C98971   1.407   1.205   3.105 -0.0243 -0.1810 -0.3172
  734MOL0     N98972   1.332   1.089   3.084 -0.0262  0.7811  0.1068
  734MOL0     C98973   1.369   0.953   3.099  0.2542  0.2091  0.4711
  734MOL0     C98974   1.251   0.885   3.076  0.2962  0.0949 -0.2198
  734MOL0     C98975   1.241   0.733   3.101 -0.5412 -0.6300 -1.0311
  734MOL0     C98976   1.095   0.679   3.072 -0.4976  0.0832 -0.2725
  734MOL0     C98977   1.081   0.539   3.115  0.1512 -0.1680 -0.2835
  734MOL0     C98978   1.042   0.520   3.258 -0.2097 -0.2027  0.5088
  734MOL0     O98979   0.921   0.591   3.282 -1.2196  0.6923  0.2427
  734MOL0     C98980   0.846   0.565   3.393 -0.4522 -0.3787  0.4988
  734MOL0     C98981   0.882   0.472   3.498 -0.1876 -0.5312  0.7092
  734MOL0     C98982   0.796   0.437   3.601  0.4145  0.5375  0.4473
  734MOL0     C98983   0.835   0.338   3.698 -1.0866  0.7289 -0.5498
  734MOL0     C98984   0.660   0.484   3.600 -0.4223 -0.0804 -0.4303
  734MOL0     C98985   0.555   0.454   3.708 -0.1845 -0.2414 -0.7572
  734MOL0     O98986   0.453   0.539   3.719  0.5218 -0.0838  0.6360
  734MOL0     C98987   0.340   0.511   3.798 -0.3740 -1.2384  0.9639
  734MOL0     C98988   0.324   0.528   3.930  0.4469 -0.6703  0.2045
  734MOL0     C98989   0.206   0.536   3.989 -0.3084 -0.3357 -1.2581
  734MOL0     C98990   0.099   0.477   3.913  0.2852  0.1198  0.1409
  734MOL0     O98991  -0.019   0.440   3.972  0.2141  0.4581 -0.8329
  734MOL0     C98992  -0.136   0.468   3.907  0.3093 -0.3860 -0.4758
  734MOL0     C98993  -0.236   0.483   4.025 -0.7952 -0.1594  0.0397
  734MOL0     C98994  -0.295   0.349   4.058 -0.3340 -0.4039  0.1087
  734MOL0     C98995  -0.432   0.378   4.121 -0.0989 -0.2825 -0.2849
  734MOL0     C98996  -0.477   0.259   4.197  0.3344  0.4621  0.3671
  734MOL0     C98997  -0.501   0.152   4.097  0.0669  0.2523  0.1915
  734MOL0     C98998  -0.604   0.053   4.140  0.9079 -0.0605 -0.2051
  734MOL0     C98999  -0.621  -0.044   4.026 -0.1154  0.0281  0.3300
  734MOL0    Cl99000  -0.707  -0.186   4.074  0.2938  0.0899 -0.1570
  734MOL0     C99001   0.110   0.459   3.780  0.1206 -0.6544  0.2626
  734MOL0     C99002   0.233   0.472   3.720 -0.0376 -0.1011 -0.6165
  734MOL0     O99003   0.568   0.358   3.781 -0.2137  0.4664 -0.7369
  734MOL0     C99004   0.628   0.588   3.510  0.0430 -0.2663  0.5151
  734MOL0     C99005   0.724   0.619   3.401  0.6709 -0.9581  0.6928
  734MOL0     N99006   1.148   0.972   3.056 -1.0973 -0.0344 -0.8865
  734MOL0     N99007   1.198   1.087   3.054  0.0430  0.4387  0.7696
  734MOL0     C99008   1.395   1.972   3.173 -0.4522  0.1232  0.0276
  734MOL0     C99009   1.420   2.057   3.065  0.7776  0.4420  0.3474
  734MOL0     C99010   1.510   2.367   2.738  0.3135 -0.4405  0.1547
  734MOL0     C99011   1.565   2.357   2.610  1.0547  0.2673 -0.6884
  734MOL0     C99012   1.572   2.465   2.533 -0.0901 -0.3179  0.2400
  734MOL0     C99013   1.498   2.576   2.561 -0.1327 -0.0433 -0.8444
  734MOL0     O99014   1.496   2.681   2.466  0.2016 -0.1156 -0.4712
  734MOL0     C99015   1.424   2.805   2.484 -0.1306  0.2952  0.2900
  734MOL0     C99016   1.466   2.898   2.602  0.5971  0.2604  0.0832
  734MOL0     C99017   1.604   2.943   2.592 -0.5849 -0.0235 -0.4783
  734MOL0     C99018   1.646   3.006   2.457 -0.4205 -0.4836  0.1828
  734MOL0     C99019   1.557   3.103   2.386  0.9191  0.2222 -0.2959
  734MOL0     C99020   1.471   3.169   2.332  0.0890 -0.6506  0.7028
  734MOL0     C99021   1.437   2.583   2.687 -0.1516 -0.3198 -0.1912
  734MOL0     C99022   1.454   2.484   2.779  1.4600 -0.3734 -0.3084
  734MOL0     H99023   1.625   2.280   3.195 -3.2064  2.7298  0.9859
  734MOL0     H99024   1.614   2.124   3.384 -1.9164  0.0900  1.9244
  734MOL0     H99025   1.292   1.908   3.471 -0.5956  0.8909 -1.7118
  734MOL0     H99026   1.327   1.779   3.359 -1.7800 -1.9131  2.1864
  734MOL0     H99027   1.388   1.807   3.646  1.8363  0.4707  0.7469
  734MOL0     H99028   1.312   1.670   3.564 -0.8981  0.1139  0.0887
  734MOL0     H99029   1.609   1.712   3.570  0.1246 -0.3498 -0.3174
  734MOL0     H99030   1.517   1.584   3.640  3.5207 -0.8727 -0.7236
  734MOL0     H99031   1.579   1.627   3.346 -2.6167 -2.4344 -2.8353
  734MOL0     H99032   1.645   1.519   3.454  1.5730  3.4878  1.9449
  734MOL0     H99033   1.450   1.400   3.491  1.2803  2.7245  0.9107
  734MOL0     H99034   1.345   1.506   3.398 -0.5962  0.2479 -1.0433
  734MOL0     H99035   1.484   1.461   3.190  0.2411 -0.2043  0.5980
  734MOL0     H99036   1.576   1.346   3.292 -0.9895 -1.8004  2.8181
  734MOL0     H99037   1.392   1.197   3.329  2.3919  0.5161  0.6972
  734MOL0     H99038   1.283   1.317   3.243  1.2025  1.7240 -1.4325
  734MOL0     H99039   1.516   1.197   3.107  0.0461 -1.6500  4.7458
  734MOL0     H99040   1.384   1.267   3.018  2.2021  1.3751  0.1163
  734MOL0     H99041   1.457   0.895   3.123 -0.2833 -2.1374 -2.5681
  734MOL0     H99042   1.317   0.676   3.046 -2.6661 -2.4659 -2.2567
  734MOL0     H99043   1.257   0.725   3.209 -1.2811 -1.6776 -0.9821
  734MOL0     H99044   1.085   0.684   2.964 -2.8885  0.1731 -0.1004
  734MOL0     H99045   1.018   0.746   3.111 -1.2247 -0.1330 -1.3058
  734MOL0     H99046   1.180   0.498   3.096  2.2114  4.0477  0.0663
  734MOL0     H99047   1.005   0.493   3.052 -1.5987  2.1363 -0.0023
  734MOL0     H99048   1.124   0.562   3.317  1.6521  0.1426 -2.1332
  734MOL0     H99049   1.037   0.411   3.268 -1.3031 -0.5549 -2.6719
  734MOL0     H99050   0.979   0.423   3.494  0.1912  0.2364 -1.9824
  734MOL0     H99051   0.770   0.249   3.699 -1.0575  0.7059 -0.6448
  734MOL0     H99052   0.934   0.295   3.684 -0.1249  2.3140  1.0453
  734MOL0     H99053   0.841   0.388   3.795  0.8416  0.3660 -0.4538
  734MOL0     H99054   0.416   0.558   3.979  2.9352 -2.0897 -3.3060
  734MOL0     H99055   0.200   0.578   4.089  1.8171  3.5703 -2.5478
  734MOL0     H99056  -0.123   0.555   3.841  1.9750  1.3399  1.9336
  734MOL0     H99057  -0.156   0.380   3.846 -1.2586 -1.4898  1.5015
  734MOL0     H99058  -0.188   0.532   4.110 -1.8492  0.0794  0.5107
  734MOL0     H99059  -0.311   0.554   3.989 -0.9189  0.0362  0.6717
  734MOL0     H99060  -0.235   0.295   4.132  0.5309  1.2121  0.6341
  734MOL0     H99061  -0.302   0.286   3.969 -1.3764 -0.8723  0.5167
  734MOL0     H99062  -0.434   0.459   4.194  0.2120 -2.7780  2.7387
  734MOL0     H99063  -0.510   0.397   4.047 -1.8831 -2.1217  0.9963
  734MOL0     H99064  -0.560   0.270   4.267 -0.6409 -1.1098 -0.4967
  734MOL0     H99065  -0.388   0.232   4.255  2.9375 -0.5054 -3.6151
  734MOL0     H99066  -0.528   0.193   3.999 -0.0307 -0.2552  0.0072
  734MOL0     H99067  -0.405   0.103   4.078  0.7520  0.4363  2.7083
  734MOL0     H99068  -0.701   0.104   4.134 -0.4781 -2.6369 -1.0517
  734MOL0     H99069  -0.581   0.000   4.233  0.0912 -1.6605 -0.8643
  734MOL0     H99070  -0.530  -0.070   3.970 -0.9574 -2.0599 -0.1717
  734MOL0     H99071  -0.685  -0.001   3.949  1.1455 -1.5811 -1.7296
  734MOL0     H99072   0.027   0.406   3.733  1.0755 -0.6007 -1.5812
  734MOL0     H99073   0.255   0.441   3.618  1.8707 -3.5176  0.6580
  734MOL0     H99074   0.526   0.623   3.512 -0.5019 -1.7778  1.1149
  734MOL0     H99075   0.693   0.674   3.313 -0.9600 -2.1527  0.4678
  734MOL0     H99076   1.323   1.891   3.162 -1.6626  1.2027 -0.2921
  734MOL0     H99077   1.351   2.036   2.984  2.8125 -1.5967 -0.9667
  734MOL0     H99078   1.610   2.264   2.578  0.7763 -0.6707  1.4836
  734MOL0     H99079   1.606   2.453   2.431 -1.4374  0.5270 -0.3345
  734MOL0     H99080   1.436   2.861   2.390  2.6392 -1.2861 -0.4005
  734MOL0     H99081   1.315   2.793   2.494 -0.0617 -2.8823 -1.3314
  734MOL0     H99082   1.437   2.854   2.698  0.0562 -0.5501 -0.4411
  734MOL0     H99083   1.397   2.983   2.596 -0.4587 -0.4390  1.6813
  734MOL0     H99084   1.677   2.868   2.623  1.0026  2.3220  1.8811
  734MOL0     H99085   1.616   3.020   2.669 -4.6126  0.0190  0.3017
  734MOL0     H99086   1.658   2.918   2.392  2.5194 -0.9154  1.1711
  734MOL0     H99087   1.737   3.061   2.480 -1.3863 -0.6064  5.6628
  734MOL0     H99088   1.406   3.223   2.267 -0.0866  0.2510  1.5971
  734MOL0     H99089   1.377   2.666   2.722  2.8952  1.8484  0.2688
  734MOL0     H99090   1.392   2.485   2.868 -1.2138  0.2869 -2.0420
  735MOL0     O99091   5.114   4.387   8.695  0.1971 -0.5981  0.0416
  735MOL0     C99092   5.218   4.396   8.762  0.3907 -0.6516  0.2044
  735MOL0     O99093   5.229   4.354   8.891 -0.1827  0.0031 -0.4089
  735MOL0     C99094   5.105   4.350   8.952  0.1592 -0.2238 -0.6472
  735MOL0     C99095   5.021   4.458   8.984 -0.6416  0.3151 -0.8099
  735MOL0     C99096   4.896   4.435   9.039  0.5337  0.0753  0.1767
  735MOL0     C99097   4.845   4.304   9.071 -0.5220 -0.1637 -0.3344
  735MOL0     O99098   4.722   4.267   9.118 -0.6039 -1.4151 -0.3473
  735MOL0     C99099   4.647   4.370   9.188 -0.8947 -0.3991  0.2863
  735MOL0     C99100   4.507   4.315   9.204  0.9690 -0.9154  0.3052
  735MOL0     C99101   4.434   4.321   9.067  0.1982  0.2642 -0.0842
  735MOL0     C99102   4.289   4.273   9.057 -0.3267  0.0997 -0.0288
  735MOL0     C99103   4.198   4.366   9.130 -0.0271  0.3176 -0.8885
  735MOL0     C99104   4.055   4.360   9.077 -0.3321 -0.0779 -0.1959
  735MOL0     C99105   3.974   4.469   9.156  0.6939  0.5157  0.1512
  735MOL0     C99106   3.939   4.451   9.308  0.0353 -0.1073 -0.4804
  735MOL0     N99107   3.870   4.562   9.363 -0.1935 -0.4075 -0.4176
  735MOL0     C99108   3.782   4.557   9.473  0.0451  1.0737 -0.0226
  735MOL0     C99109   3.751   4.690   9.499 -0.6574 -0.8646  0.9638
  735MOL0     C99110   3.658   4.748   9.601 -1.2400  0.1627  0.1446
  735MOL0     C99111   3.527   4.785   9.535  0.0536  0.7157  0.1246
  735MOL0     C99112   3.435   4.867   9.624 -0.1192 -0.8772 -0.7727
  735MOL0     C99113   3.323   4.948   9.564 -0.1209 -0.2957 -0.2067
  735MOL0     O99114   3.374   5.066   9.504 -0.1460  0.1348 -0.6960
  735MOL0     C99115   3.288   5.173   9.482  0.3871  0.4601 -0.1863
  735MOL0     C99116   3.147   5.159   9.482  0.1929  0.7584  0.2447
  735MOL0     C99117   3.074   5.279   9.447 -0.4412 -0.2891 -1.0034
  735MOL0     C99118   2.925   5.261   9.441 -0.1676 -0.0633  0.8846
  735MOL0     C99119   3.142   5.401   9.425  0.0676  0.1301 -0.2054
  735MOL0     C99120   3.067   5.526   9.391 -0.0379 -0.3009 -0.6631
  735MOL0     O99121   3.144   5.635   9.427 -0.0377 -0.7322  0.6552
  735MOL0     C99122   3.133   5.753   9.353 -0.0921  0.0892 -0.3223
  735MOL0     C99123   3.248   5.819   9.301  0.9789 -0.5390  0.0331
  735MOL0     C99124   3.245   5.937   9.224  0.9424 -0.0288  0.0455
  735MOL0     C99125   3.127   5.999   9.201  0.3205 -0.3358 -0.1034
  735MOL0     O99126   3.134   6.109   9.116  0.0268  0.1691  0.4562
  735MOL0     C99127   3.016   6.145   9.031 -0.0213 -0.0953 -0.7518
  735MOL0     C99128   2.930   6.232   9.116  0.7463 -0.4180  0.4409
  735MOL0     C99129   2.955   6.383   9.099  0.4397 -0.4059  0.0148
  735MOL0     C99130   2.839   6.464   9.172  0.2745 -0.5950 -1.0824
  735MOL0     C99131   2.883   6.599   9.239 -0.3161  0.9135  0.0103
  735MOL0     C99132   2.927   6.688   9.125 -0.0634 -0.7561 -0.2401
  735MOL0     C99133   2.992   6.820   9.174 -0.2539  0.1919 -0.9615
  735MOL0     C99134   2.994   6.914   9.055 -0.1201  0.5277 -0.1509
  735MOL0    Cl99135   3.163   6.989   9.049  0.4417 -0.0458 -0.0307
  735MOL0     C99136   3.011   5.936   9.258  0.0591 -0.6043  0.9526
  735MOL0     C99137   3.016   5.812   9.323 -0.4722 -0.3547  0.7197
  735MOL0     O99138   2.958   5.528   9.327  0.3192 -0.3342 -0.0682
  735MOL0     C99139   3.279   5.398   9.433 -0.2791 -0.9330 -0.2648
  735MOL0     C99140   3.351   5.293   9.462 -1.0675  0.0343  0.2523
  735MOL0     N99141   3.809   4.764   9.397  0.1269 -0.6965 -0.3641
  735MOL0     N99142   3.883   4.694   9.320 -0.4683 -0.2307 -0.0255
  735MOL0     C99143   4.925   4.196   9.032 -0.4408 -0.3645 -0.5035
  735MOL0     C99144   5.057   4.217   8.974  0.3335 -0.1879 -0.2593
  735MOL0     C99145   5.343   4.455   8.693  0.2976 -1.0519 -0.9949
  735MOL0     C99146   5.436   4.526   8.762 -0.8855  0.0698  0.7135
  735MOL0     C99147   5.562   4.552   8.703  0.2290 -0.1646 -0.0445
  735MOL0     C99148   5.586   4.520   8.566 -0.6981  0.5118 -0.9418
  735MOL0     O99149   5.716   4.529   8.525  0.0854  0.4204 -0.0799
  735MOL0     C99150   5.751   4.505   8.390  0.4458 -0.9241 -0.1422
  735MOL0     C99151   5.900   4.484   8.384 -0.6769  0.2436  0.4639
  735MOL0     C99152   5.992   4.606   8.424 -0.4211 -0.8352 -0.0788
  735MOL0     C99153   6.148   4.582   8.409  0.1293 -0.9965  0.6206
  735MOL0     C99154   6.181   4.466   8.490 -0.8690 -0.1200  1.2202
  735MOL0     C99155   6.203   4.369   8.565  0.8869 -0.2869 -0.6957
  735MOL0     C99156   5.473   4.476   8.491  0.3527  0.6467  0.4503
  735MOL0     C99157   5.367   4.425   8.561 -0.2033 -0.2134 -0.4631
  735MOL0     H99158   5.052   4.562   8.978 -0.3219  0.1469 -2.7965
  735MOL0     H99159   4.835   4.523   9.052  1.5082  0.5002  2.2471
  735MOL0     H99160   4.706   4.389   9.278  0.5256  0.5748 -0.8156
  735MOL0     H99161   4.642   4.461   9.128 -0.8445 -1.1896 -0.9428
  735MOL0     H99162   4.525   4.211   9.233  1.4178 -1.2335 -1.0359
  735MOL0     H99163   4.464   4.374   9.286  1.2054  0.8606 -0.7946
  735MOL0     H99164   4.440   4.419   9.019 -1.1748  0.1653 -0.5129
  735MOL0     H99165   4.497   4.257   9.004  0.2690  0.2698 -0.0197
  735MOL0     H99166   4.253   4.282   8.954 -0.6854  3.9297  0.2717
  735MOL0     H99167   4.284   4.175   9.105  2.5222  0.2548  0.7485
  735MOL0     H99168   4.205   4.350   9.238  2.4019  0.8266 -0.9181
  735MOL0     H99169   4.227   4.471   9.121 -1.1950  0.9105  1.3433
  735MOL0     H99170   4.057   4.373   8.968 -0.3604 -0.6282 -0.2659
  735MOL0     H99171   4.019   4.259   9.097  0.5154 -0.3531 -0.0598
  735MOL0     H99172   4.003   4.574   9.145  1.1164  0.5296  1.2699
  735MOL0     H99173   3.877   4.452   9.110 -0.3908  0.8894  2.1824
  735MOL0     H99174   4.034   4.444   9.363  0.9186  1.4119 -1.7295
  735MOL0     H99175   3.881   4.360   9.326  2.6449 -1.8245 -0.1649
  735MOL0     H99176   3.748   4.469   9.527 -1.0736 -0.6053 -3.2014
  735MOL0     H99177   3.644   4.676   9.682  0.4287  1.6498  1.8511
  735MOL0     H99178   3.705   4.844   9.627  2.1889 -1.6564  1.3093
  735MOL0     H99179   3.477   4.694   9.501  1.6787  0.7261 -2.6478
  735MOL0     H99180   3.538   4.833   9.437 -1.7589 -0.3621 -0.6635
  735MOL0     H99181   3.503   4.940   9.668  1.1572 -1.3493 -1.8950
  735MOL0     H99182   3.399   4.806   9.707 -0.2162 -1.4083 -1.1989
  735MOL0     H99183   3.253   4.981   9.641  0.1192  0.0839 -0.1485
  735MOL0     H99184   3.265   4.892   9.489  2.3934 -1.7721 -1.1895
  735MOL0     H99185   3.096   5.064   9.497 -1.1998  1.4381 -0.0200
  735MOL0     H99186   2.869   5.343   9.488 -1.2108  0.5075 -1.2350
  735MOL0     H99187   2.890   5.253   9.338 -1.4440 -0.4371  1.3234
  735MOL0     H99188   2.888   5.170   9.490  0.8567 -1.1241 -0.2281
  735MOL0     H99189   3.344   5.770   9.315  1.9852  1.1783 -0.5204
  735MOL0     H99190   3.329   5.986   9.176  3.2197 -2.1630  1.6433
  735MOL0     H99191   3.049   6.193   8.939  0.2823 -2.1455 -1.7816
  735MOL0     H99192   2.963   6.053   9.006  0.2179 -0.0712 -1.3446
  735MOL0     H99193   2.824   6.217   9.093  0.3410 -1.7653  2.8039
  735MOL0     H99194   2.940   6.214   9.224  1.4006  1.7001  0.7669
  735MOL0     H99195   2.960   6.413   8.993 -1.0584  1.5850  0.4349
  735MOL0     H99196   3.045   6.410   9.155 -0.2467 -0.0375  0.9661
  735MOL0     H99197   2.756   6.474   9.102 -0.6886 -1.2848 -0.0730
  735MOL0     H99198   2.799   6.397   9.248  2.3300 -3.8297 -2.6204
  735MOL0     H99199   2.966   6.576   9.306 -0.8274 -2.1443 -0.2300
  735MOL0     H99200   2.800   6.650   9.289  0.0016 -1.0710  2.7698
  735MOL0     H99201   3.001   6.632   9.068  1.7311  2.6705 -1.5583
  735MOL0     H99202   2.832   6.714   9.076 -2.2007 -0.5896  3.6204
  735MOL0     H99203   3.096   6.813   9.208 -0.1567 -0.4297 -1.3710
  735MOL0     H99204   2.921   6.864   9.246 -0.1897 -0.7163 -0.3241
  735MOL0     H99205   2.912   6.984   9.072 -0.9078 -0.1025 -1.2245
  735MOL0     H99206   2.979   6.861   8.960  0.6647 -1.1118  0.5932
  735MOL0     H99207   2.913   5.977   9.239 -0.5970 -2.4041  0.2760
  735MOL0     H99208   2.921   5.763   9.339 -0.6776 -0.5512 -0.9271
  735MOL0     H99209   3.332   5.492   9.415 -1.9862  0.0103 -0.5263
  735MOL0     H99210   3.458   5.303   9.475 -1.4478  3.2291  1.8619
  735MOL0     H99211   4.885   4.098   9.054 -2.6710  0.9438  1.9634
  735MOL0     H99212   5.112   4.125   8.957 -0.1736 -1.0363  2.2235
  735MOL0     H99213   5.433   4.544   8.869  0.5121  0.2030  0.7466
  735MOL0     H99214   5.642   4.590   8.765  4.3775 -3.0764 -3.0926
  735MOL0     H99215   5.713   4.410   8.352  3.3368 -0.8704 -3.7172
  735MOL0     H99216   5.727   4.585   8.319  1.4296 -0.2277  0.2703
  735MOL0     H99217   5.913   4.461   8.278  2.5253  1.8133  0.3754
  735MOL0     H99218   5.930   4.401   8.449 -2.6255 -2.0339 -1.3706
  735MOL0     H99219   5.971   4.626   8.529  0.5076 -1.8799  0.3337
  735MOL0     H99220   5.967   4.696   8.367  0.5116  1.7950  3.3105
  735MOL0     H99221   6.212   4.656   8.459  0.9840 -0.7973 -0.7255
  735MOL0     H99222   6.163   4.557   8.303  0.2594 -1.5608  0.7660
  735MOL0     H99223   6.200   4.289   8.636 -2.3857  2.5883  2.8954
  735MOL0     H99224   5.465   4.444   8.388 -2.0014  1.3413  0.3595
  735MOL0     H99225   5.297   4.357   8.514 -0.0658  0.1814 -1.2750
  736MOL0     O99226   3.995   6.862   8.062  1.2390 -0.1770  0.1508
  736MOL0     C99227   4.018   6.794   7.960  0.6338  0.3415  0.1991
  736MOL0     O99228   3.923   6.760   7.865  0.5144 -0.5715  0.4864
  736MOL0     C99229   3.788   6.782   7.862  0.2351 -0.4729 -0.0126
  736MOL0     C99230   3.705   6.859   7.955  0.1671  0.5095 -0.4757
  736MOL0     C99231   3.568   6.877   7.937 -0.3720  0.5944  1.4297
  736MOL0     C99232   3.499   6.815   7.830 -0.0642  0.0289 -0.6299
  736MOL0     O99233   3.366   6.827   7.807  0.5522 -0.0456 -0.1677
  736MOL0     C99234   3.282   6.897   7.899 -0.1224  0.0721 -0.0091
  736MOL0     C99235   3.151   6.912   7.829  1.0976 -0.5933 -0.1260
  736MOL0     C99236   3.164   7.000   7.695  0.1701 -0.7099 -0.6385
  736MOL0     C99237   3.018   7.026   7.647 -0.8589 -0.2845  0.4705
  736MOL0     C99238   3.029   7.100   7.517 -0.0239 -0.2933  0.6232
  736MOL0     C99239   2.890   7.146   7.455  0.1726 -0.8186 -0.7149
  736MOL0     C99240   2.906   7.216   7.311 -0.3388 -0.2583 -0.7990
  736MOL0     C99241   2.800   7.174   7.203 -0.0321  0.0424 -0.1399
  736MOL0     N99242   2.664   7.227   7.226 -0.0093 -0.3684 -0.1962
  736MOL0     C99243   2.632   7.360   7.203 -0.0904 -0.5963  1.0620
  736MOL0     C99244   2.494   7.363   7.220  1.3657  0.0731  0.0304
  736MOL0     C99245   2.414   7.491   7.203  0.9739  0.2818 -0.2378
  736MOL0     C99246   2.414   7.533   7.053  0.6279  0.1350  0.2771
  736MOL0     C99247   2.349   7.673   7.040 -0.7016  0.0544  0.6209
  736MOL0     C99248   2.452   7.783   7.078  0.4549  0.8350  0.5541
  736MOL0     O99249   2.586   7.760   7.052  0.4189  0.1458  0.5574
  736MOL0     C99250   2.683   7.802   7.146  1.0232  0.5332  0.5498
  736MOL0     C99251   2.793   7.721   7.166  1.4086 -0.0905  1.0535
  736MOL0     C99252   2.876   7.744   7.279 -0.0853 -0.8734  0.2203
  736MOL0     C99253   2.990   7.643   7.271  0.8477  0.8813 -1.4092
  736MOL0     C99254   2.858   7.856   7.368  0.1409  1.1241  0.1578
  736MOL0     C99255   2.935   7.887   7.495  0.2512 -0.9432  0.0385
  736MOL0     O99256   2.935   8.007   7.555 -0.1768  0.0215 -1.0831
  736MOL0     C99257   2.991   8.028   7.674 -0.4222 -0.3202  0.3598
  736MOL0     C99258   3.037   7.937   7.769  0.0181 -0.1431  0.2013
  736MOL0     C99259   3.094   7.989   7.881 -0.4960 -0.3274 -0.3625
  736MOL0     C99260   3.110   8.125   7.907 -0.2382 -0.0528 -0.1148
  736MOL0     O99261   3.173   8.145   8.027  0.2064 -0.1642 -0.1322
  736MOL0     C99262   3.141   8.269   8.095  0.0129 -0.0025 -0.2879
  736MOL0     C99263   3.238   8.368   8.046  0.1359 -0.0712 -0.1552
  736MOL0     C99264   3.197   8.503   8.099  0.3660 -0.6012  0.4644
  736MOL0     C99265   3.299   8.608   8.055 -0.1782 -0.0995 -0.0687
  736MOL0     C99266   3.223   8.741   8.039  0.0339  0.3319 -0.7339
  736MOL0     C99267   3.313   8.856   7.998  0.7609  0.2093  0.7282
  736MOL0     C99268   3.250   8.995   7.997 -0.3240 -0.7069 -0.9722
  736MOL0     C99269   3.341   9.106   7.944  0.6767  0.0585 -0.2396
  736MOL0    Cl99270   3.253   9.259   7.917  0.2969 -0.3311 -0.9574
  736MOL0     C99271   3.067   8.219   7.815 -0.0892 -0.8534 -0.2734
  736MOL0     C99272   3.008   8.165   7.695 -0.6022 -0.4109 -0.8842
  736MOL0     O99273   2.990   7.789   7.539  0.3961 -0.1537 -0.1202
  736MOL0     C99274   2.744   7.927   7.344 -0.9684  0.5645 -0.5789
  736MOL0     C99275   2.655   7.906   7.237  0.1623 -0.2851  2.1635
  736MOL0     N99276   2.441   7.234   7.241 -0.6789  0.1135 -0.0341
  736MOL0     N99277   2.545   7.157   7.263 -0.1568 -0.4621 -0.0049
  736MOL0     C99278   3.577   6.748   7.726 -0.1359  1.0943 -0.0830
  736MOL0     C99279   3.717   6.733   7.747  0.0254  0.5188  0.5440
  736MOL0     C99280   4.161   6.768   7.922 -0.0773  0.2504  0.1263
  736MOL0     C99281   4.194   6.691   7.807  0.7259 -0.5118  0.4293
  736MOL0     C99282   4.324   6.666   7.769 -0.5853 -0.1655 -0.1043
  736MOL0     C99283   4.428   6.716   7.842 -0.4284  1.0929  0.2191
  736MOL0     O99284   4.553   6.698   7.801  0.0696  0.6872 -0.1582
  736MOL0     C99285   4.616   6.813   7.747  1.1123  0.0937  0.3841
  736MOL0     C99286   4.728   6.861   7.839 -0.4246 -0.7564  0.4033
  736MOL0     C99287   4.844   6.763   7.833  0.0592 -0.2692  0.4149
  736MOL0     C99288   4.823   6.612   7.822 -0.3403 -0.7197 -0.6615
  736MOL0     C99289   4.954   6.548   7.828 -0.0634 -0.2935 -0.7239
  736MOL0     C99290   5.060   6.482   7.817 -0.4279  0.6209 -0.1965
  736MOL0     C99291   4.399   6.792   7.956  0.5009  0.1390 -0.4456
  736MOL0     C99292   4.269   6.825   7.995 -0.0231  0.3267 -0.1876
  736MOL0     H99293   3.750   6.921   8.031  2.4989  0.4053 -1.6916
  736MOL0     H99294   3.537   6.946   8.015  0.1324  0.6404  1.5940
  736MOL0     H99295   3.270   6.832   7.986  1.0007 -2.5363 -1.6682
  736MOL0     H99296   3.320   6.995   7.929  1.1437  0.2874 -2.0985
  736MOL0     H99297   3.111   6.817   7.793 -0.2866  0.5483 -1.7815
  736MOL0     H99298   3.077   6.953   7.898  0.5452  0.2365 -1.1957
  736MOL0     H99299   3.203   7.097   7.729 -3.4377  1.3629 -1.8028
  736MOL0     H99300   3.235   6.966   7.619 -1.1682  0.1172 -2.3226
  736MOL0     H99301   2.970   6.932   7.618  0.7360 -1.5427  1.7603
  736MOL0     H99302   2.957   7.076   7.723 -1.4996 -3.2227  2.0298
  736MOL0     H99303   3.083   7.192   7.541  2.0134 -0.3696 -2.9805
  736MOL0     H99304   3.103   7.045   7.458  2.8053 -0.0989  3.7174
  736MOL0     H99305   2.820   7.061   7.450 -0.1182 -0.6235 -0.1075
  736MOL0     H99306   2.844   7.223   7.518 -2.3617 -1.6661 -1.3984
  736MOL0     H99307   2.911   7.323   7.333  0.1404 -0.1108 -1.5923
  736MOL0     H99308   3.004   7.184   7.277 -0.6259 -1.2261 -0.7307
  736MOL0     H99309   2.805   7.065   7.200  2.1752  0.1176 -1.5083
  736MOL0     H99310   2.823   7.198   7.099  0.3342 -2.8896 -0.8114
  736MOL0     H99311   2.689   7.444   7.164  2.8579 -2.1363  1.6965
  736MOL0     H99312   2.319   7.467   7.250  1.8340  2.0450  2.7086
  736MOL0     H99313   2.465   7.567   7.264 -0.7235  1.1005  0.2154
  736MOL0     H99314   2.357   7.453   7.004  2.6503  0.1226 -2.2941
  736MOL0     H99315   2.509   7.533   6.999  0.5867  1.3231  0.1817
  736MOL0     H99316   2.258   7.680   7.100  0.1566  0.2625  1.9714
  736MOL0     H99317   2.326   7.692   6.935  1.9421  2.1621  0.2971
  736MOL0     H99318   2.438   7.793   7.186  1.6131 -1.6524  1.0239
  736MOL0     H99319   2.416   7.873   7.027  1.5239  0.8860 -0.1446
  736MOL0     H99320   2.831   7.653   7.090  2.9144  1.1509  0.6579
  736MOL0     H99321   2.984   7.567   7.193  2.4004 -0.9933  0.1798
  736MOL0     H99322   3.083   7.696   7.247  0.7836  2.6733  1.7126
  736MOL0     H99323   3.010   7.593   7.366  2.5412  0.8767 -1.7352
  736MOL0     H99324   3.029   7.829   7.758  1.1687 -0.0598 -1.8932
  736MOL0     H99325   3.123   7.918   7.958 -1.7978 -1.1751 -0.6227
  736MOL0     H99326   3.037   8.301   8.079  0.2590  0.3389 -1.2969
  736MOL0     H99327   3.151   8.249   8.202 -1.2288 -1.5580 -0.4277
  736MOL0     H99328   3.336   8.338   8.085 -0.9367 -5.7918 -0.9538
  736MOL0     H99329   3.248   8.374   7.937  4.3163  2.3156  0.1347
  736MOL0     H99330   3.190   8.505   8.208 -1.5996 -3.8094  0.5270
  736MOL0     H99331   3.096   8.526   8.062  0.0902 -1.0076  0.9537
  736MOL0     H99332   3.372   8.620   8.135 -1.6786 -2.2560  1.7377
  736MOL0     H99333   3.356   8.582   7.965 -0.6553  1.4288 -0.8478
  736MOL0     H99334   3.182   8.753   8.140  2.2322  0.5053  0.1779
  736MOL0     H99335   3.137   8.740   7.970 -1.8369  2.1450  1.3896
  736MOL0     H99336   3.394   8.865   8.071  0.8608  2.2680  0.4317
  736MOL0     H99337   3.358   8.832   7.901 -2.6806 -5.5916  0.0939
  736MOL0     H99338   3.218   9.029   8.096 -1.8234 -1.3737 -1.1922
  736MOL0     H99339   3.157   8.981   7.940 -0.8720  0.7713 -0.4837
  736MOL0     H99340   3.380   9.075   7.846 -1.8008 -0.3651 -1.1560
  736MOL0     H99341   3.424   9.132   8.011  1.2120  1.3541 -1.3615
  736MOL0     H99342   3.065   8.326   7.832  2.0337 -0.6727 -0.9035
  736MOL0     H99343   2.960   8.242   7.636 -3.4197 -1.3842 -0.0053
  736MOL0     H99344   2.729   8.005   7.418  2.1752 -0.8080  1.7458
  736MOL0     H99345   2.575   7.977   7.222  0.2446 -0.7333 -1.1909
  736MOL0     H99346   3.530   6.715   7.634  1.0400  1.7290 -0.9430
  736MOL0     H99347   3.771   6.688   7.664 -2.2771  1.0657 -1.3978
  736MOL0     H99348   4.121   6.658   7.734 -1.4383  0.7315  1.9235
  736MOL0     H99349   4.347   6.604   7.682 -0.5839  0.2830 -0.4284
  736MOL0     H99350   4.662   6.792   7.650  4.2575 -3.0506  2.3152
  736MOL0     H99351   4.541   6.890   7.726 -0.9066 -1.3880  1.7945
  736MOL0     H99352   4.696   6.884   7.941 -0.7004 -0.4159  0.2417
  736MOL0     H99353   4.757   6.958   7.798 -1.1398  0.7887  3.3049
  736MOL0     H99354   4.895   6.789   7.927  0.5637 -0.3901  0.1765
  736MOL0     H99355   4.906   6.787   7.746 -0.7675  0.0467 -0.0978
  736MOL0     H99356   4.777   6.596   7.724 -2.2334 -2.1062  0.3755
  736MOL0     H99357   4.758   6.568   7.899 -3.4033 -1.4816 -3.4549
  736MOL0     H99358   5.157   6.437   7.819 -1.4762 -1.7883  1.1965
  736MOL0     H99359   4.480   6.838   8.012  0.6720  5.5938 -4.3183
  736MOL0     H99360   4.249   6.885   8.083  0.3456  0.3495 -0.1173
  737MOL0     O99361  10.172   6.731  11.340  0.1124 -0.4074  0.9752
  737MOL0     C99362  10.074   6.696  11.275 -0.2837 -0.1361 -0.5346
  737MOL0     O99363   9.960   6.636  11.325  0.2479  0.1232  0.0540
  737MOL0     C99364   9.952   6.611  11.461 -0.1682  0.4534 -0.0402
  737MOL0     C99365  10.054   6.524  11.507  0.5815 -0.2479 -0.0284
  737MOL0     C99366  10.048   6.479  11.636 -0.0975  0.7040  0.1783
  737MOL0     C99367   9.942   6.514  11.720  0.7960 -0.6384 -0.2849
  737MOL0     O99368   9.926   6.471  11.848  0.3228  0.2420 -0.0963
  737MOL0     C99369  10.033   6.420  11.928  0.2716  0.0317 -0.0973
  737MOL0     C99370  10.134   6.539  11.964 -0.5532  0.3192  0.3487
  737MOL0     C99371  10.207   6.511  12.091 -0.3523 -0.0562 -0.3109
  737MOL0     C99372  10.289   6.628  12.136  0.0675  0.2219 -0.1608
  737MOL0     C99373  10.208   6.746  12.190 -0.6066  0.7746  0.3091
  737MOL0     C99374  10.127   6.718  12.315 -0.1054 -0.0101 -0.0445
  737MOL0     C99375  10.075   6.839  12.398  0.1014  0.4758  1.0697
  737MOL0     C99376   9.962   6.912  12.313 -0.5389 -0.1354 -0.3872
  737MOL0     N99377   9.845   6.822  12.290 -0.4346 -0.1311  0.4362
  737MOL0     C99378   9.820   6.771  12.162 -0.8679  0.1398 -0.0019
  737MOL0     C99379   9.684   6.722  12.167  0.6519 -0.2768 -0.2144
  737MOL0     C99380   9.620   6.641  12.059  0.8682 -0.2442 -0.4196
  737MOL0     C99381   9.545   6.732  11.957 -0.3363 -0.1166 -0.5316
  737MOL0     C99382   9.408   6.786  12.002  0.7673  1.0053 -0.0967
  737MOL0     C99383   9.391   6.931  11.991  0.0336  0.1648  0.9103
  737MOL0     O99384   9.258   6.929  12.017 -0.0985 -0.3556  0.2944
  737MOL0     C99385   9.175   7.030  11.970  0.1803 -1.0076 -0.1501
  737MOL0     C99386   9.223   7.153  11.920  0.4290 -0.7140 -0.0583
  737MOL0     C99387   9.136   7.255  11.877  0.1167 -0.0413 -0.3616
  737MOL0     C99388   9.199   7.383  11.834  0.4517 -0.2218  0.2214
  737MOL0     C99389   8.992   7.232  11.894  0.0962 -0.5567 -0.7110
  737MOL0     C99390   8.878   7.330  11.858  0.0667  0.1350  0.3954
  737MOL0     O99391   8.750   7.295  11.885 -0.6565  0.1708  0.0855
  737MOL0     C99392   8.650   7.392  11.867  0.5452  0.5561  0.5125
  737MOL0     C99393   8.628   7.467  11.746  0.2065  0.6743  0.2744
  737MOL0     C99394   8.510   7.534  11.711  0.2276 -1.0356  0.0953
  737MOL0     C99395   8.411   7.534  11.809 -0.0845 -0.1433 -0.0506
  737MOL0     O99396   8.291   7.605  11.795  0.2065  0.6180  0.0151
  737MOL0     C99397   8.220   7.602  11.673 -0.4529 -0.6901  0.3012
  737MOL0     C99398   8.076   7.560  11.722 -0.9712 -0.1906 -0.8016
  737MOL0     C99399   7.979   7.562  11.602  0.5439 -0.4293 -0.3867
  737MOL0     C99400   7.856   7.485  11.639  1.0273  0.0975  0.0924
  737MOL0     C99401   7.737   7.530  11.555  0.0428  1.1063  0.2398
  737MOL0     C99402   7.620   7.434  11.571  0.6239  0.6865 -1.1185
  737MOL0     C99403   7.516   7.449  11.460  0.1060  0.5124 -0.6639
  737MOL0     C99404   7.382   7.361  11.485  0.1667 -0.3645  0.2262
  737MOL0    Cl99405   7.417   7.186  11.484  0.0591 -0.2537  0.1311
  737MOL0     C99406   8.421   7.451  11.920  0.5915 -1.4531  0.0936
  737MOL0     C99407   8.535   7.392  11.957 -0.8881 -0.6282  0.3484
  737MOL0     O99408   8.906   7.446  11.814 -0.1276 -0.3041  0.1390
  737MOL0     C99409   8.948   7.105  11.940 -0.1493 -0.8280  1.0376
  737MOL0     C99410   9.038   7.010  11.976  0.5294 -0.8826  0.1815
  737MOL0     N99411   9.639   6.751  12.299 -0.4059 -0.7071 -0.1601
  737MOL0     N99412   9.733   6.807  12.364  0.6722 -0.1861  0.4844
  737MOL0     C99413   9.845   6.605  11.668  0.1079 -0.6704 -0.9862
  737MOL0     C99414   9.840   6.650  11.540 -0.9548  0.7986 -0.5921
  737MOL0     C99415  10.080   6.710  11.138 -0.4973  0.2660  0.0120
  737MOL0     C99416   9.983   6.655  11.057  0.3016 -1.6564  1.2174
  737MOL0     C99417   9.980   6.683  10.916 -0.1414 -0.1591 -0.1992
  737MOL0     C99418  10.086   6.746  10.854 -0.0893 -1.3692  1.2101
  737MOL0     O99419  10.098   6.737  10.719 -0.0860 -0.1883  0.4426
  737MOL0     C99420  10.171   6.841  10.647 -0.0913 -0.6393 -0.0537
  737MOL0     C99421  10.177   6.811  10.505 -0.4620 -1.1076 -0.0661
  737MOL0     C99422  10.075   6.727  10.429  0.9461  0.0324 -0.0061
  737MOL0     C99423  10.068   6.725  10.276  0.1217 -0.1786 -0.5251
  737MOL0     C99424  10.030   6.854  10.214 -0.1007 -0.4506  0.6301
  737MOL0     C99425  10.024   6.959  10.149  0.0572  0.7005  0.7052
  737MOL0     C99426  10.175   6.807  10.938 -0.4912  0.1334  0.0334
  737MOL0     C99427  10.175   6.789  11.077 -0.0277 -0.1842  0.5634
  737MOL0     H99428  10.132   6.493  11.439  1.3987 -0.2218  0.8741
  737MOL0     H99429  10.138   6.424  11.664 -0.5574 -0.9656 -1.4161
  737MOL0     H99430   9.987   6.387  12.022  0.4183  2.4104  0.8796
  737MOL0     H99431  10.084   6.335  11.882  1.1649  0.8743 -0.6914
  737MOL0     H99432  10.215   6.537  11.891  0.0321  1.8035  0.9138
  737MOL0     H99433  10.086   6.637  11.968 -0.0524  0.6171 -0.6416
  737MOL0     H99434  10.143   6.478  12.174  1.0016 -5.2254 -0.9956
  737MOL0     H99435  10.281   6.434  12.068 -0.7209  0.0743 -2.1402
  737MOL0     H99436  10.360   6.598  12.214  1.3089 -2.4282 -2.1485
  737MOL0     H99437  10.339   6.677  12.052  0.6438  0.8836  0.5490
  737MOL0     H99438  10.289   6.818  12.204  1.1271 -0.1371 -3.6908
  737MOL0     H99439  10.132   6.773  12.115 -1.9020 -5.4259 -1.1902
  737MOL0     H99440  10.054   6.641  12.288  0.4583 -0.7090  0.3748
  737MOL0     H99441  10.185   6.663  12.390  0.5400  0.1723 -0.4070
  737MOL0     H99442  10.014   6.795  12.478  0.4278 -2.4481 -0.1296
  737MOL0     H99443  10.155   6.899  12.440  2.0151 -0.2152 -1.3164
  737MOL0     H99444   9.998   6.939  12.213 -2.5177  3.6963 -0.2464
  737MOL0     H99445   9.927   7.009  12.351  3.1164  1.0053  0.4459
  737MOL0     H99446   9.882   6.786  12.075 -0.8515  0.8188  0.1234
  737MOL0     H99447   9.685   6.566  12.014 -1.9812 -2.1674 -1.6813
  737MOL0     H99448   9.541   6.583  12.108 -1.7640  2.1216 -1.5373
  737MOL0     H99449   9.534   6.671  11.866  1.4085  1.3150 -1.7694
  737MOL0     H99450   9.613   6.817  11.944  5.7897 -3.8758  2.4851
  737MOL0     H99451   9.387   6.746  12.101  0.8849 -1.1217 -0.8770
  737MOL0     H99452   9.334   6.732  11.942  2.0129 -0.2832 -0.5266
  737MOL0     H99453   9.421   6.977  11.896  2.3675  1.9851  2.4056
  737MOL0     H99454   9.455   6.996  12.052  0.9575  0.3940 -0.2568
  737MOL0     H99455   9.329   7.177  11.914  0.7241 -1.8044  0.4035
  737MOL0     H99456   9.308   7.388  11.829  0.4203 -0.1716 -0.5315
  737MOL0     H99457   9.151   7.412  11.740 -0.6230  2.2570  1.4583
  737MOL0     H99458   9.168   7.469  11.894  0.7493  0.3455 -0.4186
  737MOL0     H99459   8.707   7.456  11.671  0.0723 -0.2620  0.2495
  737MOL0     H99460   8.521   7.596  11.623  2.8723  1.6990  2.1198
  737MOL0     H99461   8.215   7.701  11.627  1.1387 -0.6103  0.2376
  737MOL0     H99462   8.257   7.528  11.601 -0.2130 -0.6653  0.3967
  737MOL0     H99463   8.096   7.456  11.750  1.8693 -0.0273 -1.8146
  737MOL0     H99464   8.043   7.619  11.807  0.4514  4.0153 -2.8980
  737MOL0     H99465   8.017   7.531  11.504  0.0172 -0.1557 -0.6784
  737MOL0     H99466   7.956   7.668  11.584 -2.2804 -1.1255 -1.3888
  737MOL0     H99467   7.872   7.377  11.625  0.5406 -0.6195  4.0385
  737MOL0     H99468   7.829   7.504  11.743  1.7138 -0.2770  0.3463
  737MOL0     H99469   7.761   7.525  11.448 -2.7884 -1.2245 -0.4078
  737MOL0     H99470   7.702   7.631  11.577 -2.4943  0.8631 -2.2246
  737MOL0     H99471   7.647   7.328  11.560 -0.5406  0.4437 -1.7626
  737MOL0     H99472   7.570   7.451  11.666 -1.1261  0.2484 -1.9249
  737MOL0     H99473   7.560   7.424  11.363  0.5676  1.6531 -0.7637
  737MOL0     H99474   7.485   7.554  11.449  0.0395  0.9221  2.4494
  737MOL0     H99475   7.313   7.395  11.407  1.9799  1.1066 -0.7976
  737MOL0     H99476   7.323   7.382  11.575 -2.7237 -1.6690 -1.2209
  737MOL0     H99477   8.344   7.442  11.996  0.7211  1.5487  0.6917
  737MOL0     H99478   8.525   7.333  12.047  1.3505 -0.8540  0.5235
  737MOL0     H99479   8.842   7.085  11.946 -0.7474  0.6306 -2.3505
  737MOL0     H99480   8.997   6.920  12.019 -1.2362  0.5138  1.6005
  737MOL0     H99481   9.765   6.643  11.731  2.3130  3.6090 -0.4181
  737MOL0     H99482   9.756   6.708  11.504 -0.6657  1.2906 -0.4892
  737MOL0     H99483   9.901   6.595  11.097 -2.6020  0.3510 -1.2115
  737MOL0     H99484   9.896   6.635  10.867 -0.2519 -0.0291 -0.1388
  737MOL0     H99485  10.114   6.934  10.656 -0.4325 -0.8012 -0.5156
  737MOL0     H99486  10.271   6.854  10.689  1.3594 -0.3597 -3.3521
  737MOL0     H99487  10.272   6.757  10.498  0.7641  0.3258  3.3644
  737MOL0     H99488  10.183   6.901  10.444  3.3846 -2.4045 -1.9495
  737MOL0     H99489   9.977   6.763  10.463 -0.4542 -0.7634 -2.8718
  737MOL0     H99490  10.084   6.622  10.456  0.8228  0.4675  1.8284
  737MOL0     H99491  10.004   6.647  10.233  2.5082 -0.9281 -3.0655
  737MOL0     H99492  10.168   6.696  10.242 -0.6039 -1.5245 -1.6388
  737MOL0     H99493  10.014   7.042  10.082 -0.0315  0.6785  0.6912
  737MOL0     H99494  10.266   6.850  10.899 -0.4055  2.0088  2.1351
  737MOL0     H99495  10.262   6.834  11.124  0.7506  0.9071 -1.7331
  738MOL0     O99496   7.374  10.147   2.441  0.4208  0.9444 -0.5689
  738MOL0     C99497   7.472  10.145   2.359 -0.2680  0.0676 -0.5692
  738MOL0     O99498   7.484  10.224   2.245  0.6806 -0.1493  0.2355
  738MOL0     C99499   7.364  10.283   2.204 -0.7641  0.6264  0.1490
  738MOL0     C99500   7.245  10.223   2.176  0.1951  0.3840  0.2948
  738MOL0     C99501   7.133  10.303   2.154  0.7035 -0.2324 -0.0070
  738MOL0     C99502   7.146  10.445   2.147 -0.2692 -0.5772  0.3333
  738MOL0     O99503   7.043  10.531   2.108 -0.0469 -0.0874 -0.3845
  738MOL0     C99504   6.924  10.512   2.187  0.3883  0.9796 -0.1331
  738MOL0     C99505   6.835  10.643   2.181  0.6984  0.3839  0.4258
  738MOL0     C99506   6.825  10.702   2.039 -0.4652  0.1756  0.6810
  738MOL0     C99507   6.679  10.724   2.000  0.2132 -0.4482  0.7127
  738MOL0     C99508   6.619  10.857   2.052  0.5475 -0.4819 -0.6764
  738MOL0     C99509   6.483  10.894   2.003  0.0750 -0.5939 -0.1371
  738MOL0     C99510   6.412  10.993   2.094 -0.1642  0.0093 -0.8825
  738MOL0     C99511   6.290  11.053   2.047 -0.5733 -0.1524 -0.6708
  738MOL0     N99512   6.194  10.965   1.978 -0.1151 -0.4200  0.3753
  738MOL0     C99513   6.201  10.922   1.851  0.3377  0.3373 -0.0179
  738MOL0     C99514   6.112  10.829   1.833 -0.1103  0.2539 -0.0357
  738MOL0     C99515   6.114  10.741   1.717  0.3075  0.5898  0.6687
  738MOL0     C99516   6.232  10.636   1.713 -0.1541 -0.0581  0.2913
  738MOL0     C99517   6.239  10.549   1.839  0.9589  0.3215 -0.4581
  738MOL0     C99518   6.335  10.436   1.817  0.1976  0.0837  0.7100
  738MOL0     O99519   6.475  10.471   1.824 -0.1769  0.0165  0.1604
  738MOL0     C99520   6.570  10.376   1.806  0.6886 -0.3256  0.9022
  738MOL0     C99521   6.552  10.239   1.797  0.2628  0.4292 -0.3515
  738MOL0     C99522   6.658  10.144   1.800  0.2045  0.4828 -0.7465
  738MOL0     C99523   6.620   9.996   1.816 -0.7420  0.3881 -0.3547
  738MOL0     C99524   6.787  10.194   1.804  0.5007 -0.7121 -1.1925
  738MOL0     C99525   6.910  10.121   1.807 -0.6135  0.2096  0.3306
  738MOL0     O99526   7.009  10.174   1.885  0.1838  0.1625 -0.0068
  738MOL0     C99527   7.138  10.128   1.864 -0.8676  0.5010  0.1791
  738MOL0     C99528   7.235  10.229   1.858  0.0010  0.4244 -0.3796
  738MOL0     C99529   7.364  10.197   1.807  0.4799 -0.0323 -0.9908
  738MOL0     C99530   7.403  10.069   1.788 -0.0412  0.3970  0.1424
  738MOL0     O99531   7.533  10.037   1.747 -0.2126  0.4873 -0.4041
  738MOL0     C99532   7.559   9.921   1.665 -0.2515 -0.3878 -0.1992
  738MOL0     C99533   7.682   9.974   1.583 -0.1175 -0.1097  0.2255
  738MOL0     C99534   7.736   9.868   1.487  0.7883 -0.2693 -0.0611
  738MOL0     C99535   7.817   9.765   1.562  0.3066  0.1435 -0.9702
  738MOL0     C99536   7.851   9.647   1.475  0.1032  0.6138  0.9584
  738MOL0     C99537   7.927   9.534   1.562  0.3455  0.1820  0.1877
  738MOL0     C99538   7.999   9.428   1.475  1.4383 -0.1844  0.7328
  738MOL0     C99539   8.082   9.315   1.533 -1.7631 -0.0148 -0.1114
  738MOL0    Cl99540   8.054   9.149   1.471  0.5029 -0.1605  0.1550
  738MOL0     C99541   7.317   9.965   1.820 -0.4166 -0.4353  1.3227
  738MOL0     C99542   7.188   9.991   1.870 -0.3190 -0.6535  0.1106
  738MOL0     O99543   6.920  10.030   1.719  0.2478  0.4558  0.2014
  738MOL0     C99544   6.798  10.336   1.799  0.4716  0.6224 -0.5333
  738MOL0     C99545   6.694  10.428   1.804  1.0288  0.3917  0.4707
  738MOL0     N99546   6.046  10.811   1.957 -0.0534 -0.6890 -0.1102
  738MOL0     N99547   6.085  10.898   2.041  0.1277 -0.7037 -0.3727
  738MOL0     C99548   7.276  10.496   2.162 -0.4694 -1.2721 -0.6300
  738MOL0     C99549   7.380  10.414   2.197  0.5426  0.5709  0.7615
  738MOL0     C99550   7.583  10.044   2.389  0.4133  0.1951 -0.7595
  738MOL0     C99551   7.582   9.966   2.505 -0.0417  0.0058 -0.7543
  738MOL0     C99552   7.686   9.885   2.536  0.5644 -0.7277  1.0008
  738MOL0     C99553   7.783   9.854   2.438 -0.2645 -1.0279 -0.4620
  738MOL0     O99554   7.889   9.774   2.475 -0.4070 -0.1243  0.1051
  738MOL0     C99555   7.948   9.692   2.371 -0.1948  0.0225 -0.3201
  738MOL0     C99556   8.045   9.593   2.443 -0.3026 -0.4135  0.2744
  738MOL0     C99557   8.000   9.525   2.571 -0.0166  0.1434  0.0250
  738MOL0     C99558   8.109   9.436   2.636 -0.9775 -0.4629  0.3862
  738MOL0     C99559   8.086   9.433   2.782  0.0413  0.2573 -0.9191
  738MOL0     C99560   8.086   9.433   2.906  0.2222  0.1774 -1.0279
  738MOL0     C99561   7.776   9.924   2.317 -0.9773 -0.9435  0.0102
  738MOL0     C99562   7.680  10.023   2.294  0.9335 -0.6271  0.0168
  738MOL0     H99563   7.232  10.115   2.167  2.9024 -0.0016 -0.1127
  738MOL0     H99564   7.035  10.262   2.134 -0.6299  1.7000  2.0669
  738MOL0     H99565   6.869  10.428   2.143 -0.3687 -0.1798  2.8240
  738MOL0     H99566   6.954  10.477   2.286 -1.3104 -1.4135 -0.3708
  738MOL0     H99567   6.735  10.612   2.214  1.5195 -2.3581  0.6302
  738MOL0     H99568   6.881  10.721   2.242  0.6939  0.3648  0.4536
  738MOL0     H99569   6.883  10.795   2.041 -0.6404  0.2838  2.0960
  738MOL0     H99570   6.869  10.635   1.965  2.6917  0.4121  2.1764
  738MOL0     H99571   6.669  10.740   1.892 -1.6342 -3.3629  0.3366
  738MOL0     H99572   6.615  10.638   2.022  1.5664 -1.4338  0.8734
  738MOL0     H99573   6.604  10.857   2.161 -0.7117 -1.6721 -0.8128
  738MOL0     H99574   6.690  10.937   2.032  1.3323  0.1787  3.7530
  738MOL0     H99575   6.493  10.935   1.902  1.6182  1.6374  0.8607
  738MOL0     H99576   6.416  10.807   2.004 -1.1802  0.3499  0.5888
  738MOL0     H99577   6.380  10.947   2.188  2.6188  0.7740  0.5372
  738MOL0     H99578   6.489  11.067   2.118  0.7900 -0.6868 -1.7115
  738MOL0     H99579   6.324  11.136   1.984  1.6711  1.3942  2.2412
  738MOL0     H99580   6.246  11.100   2.136  1.8991  1.4001 -0.1441
  738MOL0     H99581   6.275  10.930   1.772  0.0033 -1.9559 -0.6460
  738MOL0     H99582   6.026  10.676   1.719 -0.3503  1.4848  1.9272
  738MOL0     H99583   6.119  10.798   1.624  3.3528 -0.3458  0.1340
  738MOL0     H99584   6.329  10.679   1.688 -1.1393  0.7844 -2.4339
  738MOL0     H99585   6.205  10.565   1.635  0.2370 -0.8669  0.8767
  738MOL0     H99586   6.144  10.515   1.881  1.5512  2.2933  2.8199
  738MOL0     H99587   6.265  10.617   1.921 -0.4058  0.3144  0.0050
  738MOL0     H99588   6.309  10.386   1.723  0.7829 -0.6958  0.9471
  738MOL0     H99589   6.324  10.368   1.902  1.2544  1.0687  1.6628
  738MOL0     H99590   6.454  10.194   1.795 -0.2367  1.5027 -2.1844
  738MOL0     H99591   6.651   9.972   1.918  1.4706 -0.8757 -1.2472
  738MOL0     H99592   6.513   9.979   1.800 -0.5018  0.9228 -2.9952
  738MOL0     H99593   6.675   9.933   1.745 -1.2306 -0.1906 -0.2250
  738MOL0     H99594   7.206  10.331   1.884 -2.0331 -0.5343  1.4496
  738MOL0     H99595   7.427  10.285   1.811 -1.1399  1.1894 -1.1463
  738MOL0     H99596   7.581   9.839   1.733  2.5107  1.8007  1.8320
  738MOL0     H99597   7.475   9.896   1.600  0.7843  0.4996 -1.9717
  738MOL0     H99598   7.654  10.064   1.527 -1.7736 -2.0984 -2.3832
  738MOL0     H99599   7.763  10.003   1.650  0.5347 -2.2245  0.4409
  738MOL0     H99600   7.795   9.913   1.406  0.5433  0.4729  0.1754
  738MOL0     H99601   7.651   9.817   1.440  0.1477  1.0719 -0.3830
  738MOL0     H99602   7.912   9.816   1.582  1.2385 -1.1869 -1.8762
  738MOL0     H99603   7.755   9.738   1.647 -2.8329  2.5769 -2.2690
  738MOL0     H99604   7.914   9.689   1.396  0.8790  0.4645  1.4851
  738MOL0     H99605   7.765   9.601   1.425 -0.5250  2.0406  0.6719
  738MOL0     H99606   7.987   9.581   1.641 -1.7148  1.6892  0.9224
  738MOL0     H99607   7.849   9.473   1.608  0.4543 -0.2177 -0.1472
  738MOL0     H99608   8.059   9.487   1.405 -0.0802  1.9661  1.1346
  738MOL0     H99609   7.918   9.381   1.418  2.3243  0.2250 -0.9086
  738MOL0     H99610   8.057   9.319   1.640  0.9950  0.7810  0.5824
  738MOL0     H99611   8.188   9.340   1.524 -2.0120  1.5828  0.8873
  738MOL0     H99612   7.354   9.863   1.812  0.9798  0.1538 -0.3008
  738MOL0     H99613   7.111   9.920   1.897 -1.1298  0.5556  1.0647
  738MOL0     H99614   6.898  10.379   1.800 -0.0403  1.8452  0.2113
  738MOL0     H99615   6.721  10.532   1.816  3.4409  0.2047 -2.1834
  738MOL0     H99616   7.292  10.603   2.149 -0.3843 -1.0165  1.3653
  738MOL0     H99617   7.478  10.458   2.210  1.7858 -1.5570 -0.7829
  738MOL0     H99618   7.504   9.977   2.580  0.2399 -0.2379 -0.4228
  738MOL0     H99619   7.681   9.815   2.619  1.4756  0.5460  2.1741
  738MOL0     H99620   7.868   9.627   2.334 -1.3603  1.6993 -0.8477
  738MOL0     H99621   7.995   9.736   2.282 -0.6372  1.1719  0.0034
  738MOL0     H99622   8.128   9.662   2.461 -1.3744  1.4663 -1.4760
  738MOL0     H99623   8.081   9.516   2.375 -1.7471  0.6997 -1.8913
  738MOL0     H99624   7.917   9.456   2.555 -0.3713  0.1375  1.7131
  738MOL0     H99625   7.966   9.600   2.643  0.9531  1.8462 -1.2229
  738MOL0     H99626   8.212   9.470   2.621 -1.6499  2.8367  2.3248
  738MOL0     H99627   8.107   9.330   2.609 -0.5909 -0.7173  1.3246
  738MOL0     H99628   8.066   9.409   3.008  1.5369 -0.4793 -0.8982
  738MOL0     H99629   7.851   9.916   2.238  1.8374 -0.4760  2.4546
  738MOL0     H99630   7.676  10.080   2.202 -1.5954 -0.4767  0.1620
  739MOL0     O99631   5.568   5.675   9.781 -0.5226  0.0464  0.1299
  739MOL0     C99632   5.652   5.765   9.815 -0.0324  0.3116  0.1640
  739MOL0     O99633   5.618   5.896   9.848  0.4686 -0.0323 -1.2806
  739MOL0     C99634   5.489   5.940   9.825 -0.3976 -0.1178 -0.1298
  739MOL0     C99635   5.369   5.870   9.799  0.0881 -0.4053 -0.8241
  739MOL0     C99636   5.244   5.941   9.807 -0.0049  0.2969 -0.3181
  739MOL0     C99637   5.241   6.083   9.844 -0.5135 -0.2321 -0.3311
  739MOL0     O99638   5.127   6.160   9.854 -0.6676 -0.2606 -0.3549
  739MOL0     C99639   5.009   6.095   9.873  0.6550 -0.3922  0.0203
  739MOL0     C99640   4.908   6.203   9.934  0.2566 -0.5916 -0.5717
  739MOL0     C99641   4.776   6.146   9.989 -1.2204 -0.5146  0.5332
  739MOL0     C99642   4.651   6.234   9.988  0.2063  0.0412 -0.0217
  739MOL0     C99643   4.520   6.165  10.039 -0.4684 -0.8317 -0.2160
  739MOL0     C99644   4.406   6.275  10.025 -0.0428 -0.0805  0.1554
  739MOL0     C99645   4.261   6.230  10.078 -0.8709 -0.2151 -0.7376
  739MOL0     C99646   4.175   6.352  10.066  0.1123 -0.6321 -0.5442
  739MOL0     N99647   4.032   6.317  10.076  0.3089  0.0013 -0.2934
  739MOL0     C99648   3.987   6.203  10.144 -0.0232 -0.1656 -0.1110
  739MOL0     C99649   3.856   6.197  10.119  0.6113 -0.0476  0.6365
  739MOL0     C99650   3.751   6.110  10.173 -0.1211 -0.2672 -0.0608
  739MOL0     C99651   3.709   5.998  10.076 -0.2161 -0.5074  0.5050
  739MOL0     C99652   3.587   5.904  10.110  0.1224  0.1447 -0.3931
  739MOL0     C99653   3.475   5.995  10.146  0.2707  0.0948  0.0266
  739MOL0     O99654   3.358   5.915  10.142  0.8888  0.2072  0.3670
  739MOL0     C99655   3.255   5.967  10.209 -0.0256 -0.8264 -0.3057
  739MOL0     C99656   3.170   5.880  10.276  0.1240 -0.6521 -1.1163
  739MOL0     C99657   3.052   5.914  10.349 -0.2139 -0.5431 -0.5604
  739MOL0     C99658   2.981   5.801  10.419  0.2375 -0.0062 -0.1059
  739MOL0     C99659   3.007   6.048  10.336  0.5003  0.6815  0.5602
  739MOL0     C99660   2.872   6.097  10.376  0.9809 -0.2833 -0.5506
  739MOL0     O99661   2.797   6.015  10.454  0.0562 -0.4049  0.5380
  739MOL0     C99662   2.675   6.055  10.505  0.9676  0.2374  0.1213
  739MOL0     C99663   2.554   6.070  10.433 -0.8432  0.1644  0.0166
  739MOL0     C99664   2.437   6.082  10.481 -0.6983 -0.5919 -0.0689
  739MOL0     C99665   2.413   6.085  10.619  1.0190 -0.5319  1.0830
  739MOL0     O99666   2.284   6.114  10.650  0.4416 -0.6332  0.6141
  739MOL0     C99667   2.255   6.171  10.781 -0.3445  0.4748  0.0281
  739MOL0     C99668   2.101   6.204  10.777  0.6703  0.4155 -0.5299
  739MOL0     C99669   2.021   6.085  10.815 -0.7280 -0.0463 -0.0661
  739MOL0     C99670   1.868   6.112  10.825  0.2802 -0.3223  0.0755
  739MOL0     C99671   1.832   6.204  10.942  0.3521  0.5518 -0.0576
  739MOL0     C99672   1.821   6.126  11.069  0.5323  0.3024 -0.3767
  739MOL0     C99673   1.689   6.057  11.102 -0.6937  0.5773  0.5192
  739MOL0     C99674   1.588   6.166  11.157 -0.2906 -0.2509 -0.1388
  739MOL0    Cl99675   1.432   6.095  11.207  0.0192  0.0606  0.0016
  739MOL0     C99676   2.526   6.078  10.699  0.0377 -0.4611 -0.2316
  739MOL0     C99677   2.657   6.062  10.639  0.3341  0.5353  0.1619
  739MOL0     O99678   2.834   6.209  10.343 -0.2608 -0.1129 -0.2278
  739MOL0     C99679   3.089   6.141  10.273 -0.6491 -0.9867  0.8900
  739MOL0     C99680   3.209   6.100  10.206 -0.1583  0.2700 -0.2495
  739MOL0     N99681   3.825   6.296  10.025 -0.0483  0.1074 -0.3834
  739MOL0     N99682   3.929   6.376  10.004  0.2636  0.0611 -0.0914
  739MOL0     C99683   5.359   6.148   9.866 -0.0032  0.3357  0.9062
  739MOL0     C99684   5.478   6.077   9.860 -0.2417 -0.2940  0.5971
  739MOL0     C99685   5.798   5.729   9.828  0.2261  0.5626  1.1380
  739MOL0     C99686   5.837   5.596   9.800 -0.0333  0.8838 -0.1221
  739MOL0     C99687   5.966   5.550   9.811 -1.5108 -0.1810  0.6068
  739MOL0     C99688   6.067   5.646   9.843  0.1989  1.0142 -0.0229
  739MOL0     O99689   6.200   5.598   9.835 -0.8357 -0.4330 -0.1614
  739MOL0     C99690   6.306   5.687   9.823 -0.4753 -0.1171 -0.4719
  739MOL0     C99691   6.440   5.613   9.817  0.0137  0.9953 -0.1652
  739MOL0     C99692   6.548   5.708   9.814 -1.0294  0.7273  0.1425
  739MOL0     C99693   6.680   5.624   9.840  1.5049  0.4359  0.3768
  739MOL0     C99694   6.690   5.576   9.984  0.0921  1.2256  0.5233
  739MOL0     C99695   6.677   5.531  10.098  1.6255  0.0334 -0.0693
  739MOL0     C99696   6.036   5.783   9.869 -0.0894  0.5290  0.3306
  739MOL0     C99697   5.897   5.820   9.872 -0.0624 -0.0273  0.1807
  739MOL0     H99698   5.362   5.764   9.777 -0.9799 -0.3703 -0.7161
  739MOL0     H99699   5.148   5.896   9.784  0.3816 -1.2030  0.8122
  739MOL0     H99700   4.972   6.063   9.775 -1.9106 -0.0297  0.8050
  739MOL0     H99701   5.015   6.021   9.953 -1.2740  2.6720  3.2919
  739MOL0     H99702   4.969   6.239  10.018 -2.1330 -0.1254  1.0555
  739MOL0     H99703   4.881   6.283   9.865 -0.7596 -0.1539  0.3068
  739MOL0     H99704   4.750   6.051   9.942 -1.6440  0.4390 -1.2138
  739MOL0     H99705   4.778   6.123  10.096 -1.6375  1.0862  0.9023
  739MOL0     H99706   4.680   6.322  10.047 -0.4009  0.6108 -0.5483
  739MOL0     H99707   4.635   6.267   9.885 -1.5354  0.3910  0.3290
  739MOL0     H99708   4.510   6.073   9.979 -0.8698 -0.0777 -1.3334
  739MOL0     H99709   4.547   6.134  10.140  0.8413  0.0504 -0.2772
  739MOL0     H99710   4.443   6.362  10.079 -0.1733 -1.0299  1.8314
  739MOL0     H99711   4.410   6.306   9.920  3.0678  0.0967  0.2317
  739MOL0     H99712   4.220   6.148  10.018 -1.3683  1.2176 -2.4311
  739MOL0     H99713   4.272   6.201  10.183 -0.8040  0.4782 -0.5443
  739MOL0     H99714   4.190   6.402   9.970 -2.7814 -0.3458 -0.9435
  739MOL0     H99715   4.197   6.419  10.149  0.9367  0.4045 -1.5722
  739MOL0     H99716   4.041   6.128  10.200 -0.0553 -1.1350 -1.3240
  739MOL0     H99717   3.772   6.062  10.270  2.4464  1.3975  0.2969
  739MOL0     H99718   3.664   6.174  10.190 -1.0523 -1.7771  1.1876
  739MOL0     H99719   3.789   5.927  10.052 -0.6179 -1.3159  1.4586
  739MOL0     H99720   3.677   6.035   9.979 -0.4918 -0.5471  0.5786
  739MOL0     H99721   3.615   5.825  10.181  0.5720  2.2921  1.9700
  739MOL0     H99722   3.554   5.853  10.019  0.2035  0.5112 -0.6272
  739MOL0     H99723   3.469   6.074  10.070 -0.1353  1.1185  1.0868
  739MOL0     H99724   3.485   6.043  10.244  0.1705  0.9026 -0.3477
  739MOL0     H99725   3.190   5.773  10.274 -0.8379 -0.9408  1.3179
  739MOL0     H99726   3.029   5.704  10.401  0.1876 -0.9828  3.9732
  739MOL0     H99727   2.970   5.820  10.526 -0.1474  0.3110 -0.1995
  739MOL0     H99728   2.882   5.798  10.372 -1.7103  2.9317  3.3239
  739MOL0     H99729   2.569   6.060  10.326  2.8000  1.0287  0.3116
  739MOL0     H99730   2.353   6.113  10.420 -0.1873  1.9327  0.3799
  739MOL0     H99731   2.278   6.096  10.857 -1.9064  1.8230  1.9188
  739MOL0     H99732   2.323   6.255  10.795 -0.8918  1.5945 -3.1009
  739MOL0     H99733   2.080   6.291  10.840 -0.2282 -0.6282  0.6702
  739MOL0     H99734   2.079   6.233  10.674  0.8254 -0.6303 -0.8690
  739MOL0     H99735   2.060   6.063  10.914 -1.2587 -0.7027  0.0017
  739MOL0     H99736   2.049   6.006  10.745  1.3875  3.5844 -3.7509
  739MOL0     H99737   1.838   6.172  10.738 -0.7716 -0.1155  0.5646
  739MOL0     H99738   1.801   6.026  10.820  1.5273 -1.2398 -2.4846
  739MOL0     H99739   1.742   6.258  10.913  0.0896  2.4330  3.6824
  739MOL0     H99740   1.910   6.280  10.947  1.3561 -0.5027  0.9686
  739MOL0     H99741   1.893   6.043  11.071  0.2859  0.0997  0.1910
  739MOL0     H99742   1.855   6.196  11.146 -0.8907  2.6282 -1.7433
  739MOL0     H99743   1.704   5.986  11.184 -0.7551  0.3128  0.3025
  739MOL0     H99744   1.645   6.001  11.020  1.6737  1.0878 -1.1934
  739MOL0     H99745   1.573   6.248  11.086  2.2156 -0.2532 -0.7680
  739MOL0     H99746   1.640   6.200  11.248  0.6705  0.5639 -0.9597
  739MOL0     H99747   2.513   6.101  10.804 -2.8711  0.4747 -0.7083
  739MOL0     H99748   2.752   6.052  10.691  0.6974 -0.0393 -0.5897
  739MOL0     H99749   3.055   6.242  10.255 -0.8337 -1.4073 -1.6014
  739MOL0     H99750   3.279   6.166  10.157 -1.6691  2.4104  0.3126
  739MOL0     H99751   5.356   6.254   9.888 -0.5073  0.9871 -2.0165
  739MOL0     H99752   5.567   6.134   9.884 -1.1369  1.5020 -0.1816
  739MOL0     H99753   5.764   5.530   9.756 -1.1645  1.0006  1.5049
  739MOL0     H99754   5.991   5.449   9.778  1.4880  0.5325  0.4044
  739MOL0     H99755   6.300   5.742   9.729  2.1025 -2.8969 -2.4352
  739MOL0     H99756   6.313   5.758   9.906  0.4533 -3.0248  2.1062
  739MOL0     H99757   6.442   5.560   9.721  0.1601 -0.4875  0.6347
  739MOL0     H99758   6.446   5.540   9.898 -0.1685 -0.5781 -1.5017
  739MOL0     H99759   6.540   5.766   9.907 -3.4797  1.1471 -0.2657
  739MOL0     H99760   6.540   5.769   9.724 -3.3443 -0.5645 -0.5975
  739MOL0     H99761   6.775   5.671   9.814  1.5013  0.4970  0.4743
  739MOL0     H99762   6.681   5.535   9.776  0.1966  1.5964 -1.3688
  739MOL0     H99763   6.657   5.483  10.192 -0.6068 -0.8705 -0.9377
  739MOL0     H99764   6.115   5.854   9.892 -2.2431  2.9315  0.7840
  739MOL0     H99765   5.861   5.921   9.889 -0.9674 -0.4786  1.1016
  740MOL0     O99766   0.563   4.276  10.132 -0.1247 -0.3257 -0.3802
  740MOL0     C99767   0.581   4.222  10.239 -0.4789 -0.1994  0.0157
  740MOL0     O99768   0.488   4.199  10.333 -0.2376  0.7004 -0.2294
  740MOL0     C99769   0.360   4.227  10.310 -0.5036 -0.8311 -0.3194
  740MOL0     C99770   0.302   4.339  10.241  0.0689 -0.1124  0.1666
  740MOL0     C99771   0.157   4.353  10.233 -0.1361  0.1181 -0.8298
  740MOL0     C99772   0.066   4.254  10.288 -0.4426  1.0036  1.0172
  740MOL0     O99773  -0.066   4.247  10.257  0.8997 -1.0586 -0.2984
  740MOL0     C99774  -0.142   4.367  10.223  0.0001 -0.0198 -0.3083
  740MOL0     C99775  -0.216   4.339  10.090 -1.2340  0.7314 -0.0281
  740MOL0     C99776  -0.285   4.458  10.033  0.1231 -0.1222 -0.1417
  740MOL0     C99777  -0.390   4.509  10.140 -0.8151 -0.3134 -0.8069
  740MOL0     C99778  -0.510   4.585  10.088 -0.6523  1.0879 -0.1900
  740MOL0     C99779  -0.601   4.486  10.012 -0.9633  0.5470 -0.2753
  740MOL0     C99780  -0.600   4.531   9.868  0.3101 -0.8160  0.9535
  740MOL0     C99781  -0.696   4.443   9.788  0.1862 -0.7636  0.0305
  740MOL0     N99782  -0.830   4.495   9.794 -0.3840 -0.3533  0.5622
  740MOL0     C99783  -0.879   4.617   9.742  0.1723 -1.2133 -0.2449
  740MOL0     C99784  -1.014   4.609   9.769  0.1507 -0.1118 -0.8347
  740MOL0     C99785  -1.118   4.721   9.764  0.9409  0.2325  0.5839
  740MOL0     C99786  -1.162   4.756   9.908  0.6793 -0.2728  0.4733
  740MOL0     C99787  -1.296   4.684   9.941 -0.5146 -0.2345  0.2380
  740MOL0     C99788  -1.326   4.743  10.081  0.6090 -0.3422  1.1660
  740MOL0     O99789  -1.443   4.688  10.124  0.2440 -0.1680 -0.0093
  740MOL0     C99790  -1.500   4.751  10.232 -0.6137 -0.0785  0.3460
  740MOL0     C99791  -1.438   4.833  10.336 -0.5888  1.1244  0.6551
  740MOL0     C99792  -1.514   4.906  10.422  0.3776  0.0851  0.2152
  740MOL0     C99793  -1.447   5.008  10.507 -0.1318 -0.3182 -1.9352
  740MOL0     C99794  -1.659   4.880  10.435 -0.3656  0.9442 -0.5764
  740MOL0     C99795  -1.756   4.959  10.521  0.7652  0.3751  0.9647
  740MOL0     O99796  -1.856   4.882  10.581 -0.0734 -0.3292 -0.4205
  740MOL0     C99797  -1.960   4.926  10.662  0.7319  0.3857 -0.0991
  740MOL0     C99798  -2.037   5.050  10.654  0.7091  0.5046 -0.3932
  740MOL0     C99799  -2.131   5.079  10.762 -0.3241  0.0920 -0.9546
  740MOL0     C99800  -2.159   4.989  10.866  0.1555  0.2425  1.3051
  740MOL0     O99801  -2.240   5.027  10.968  0.7082 -0.7364  1.1942
  740MOL0     C99802  -2.183   5.110  11.069 -0.1271  0.1320  0.2036
  740MOL0     C99803  -2.168   5.263  11.032 -0.2535  1.0238 -0.2900
  740MOL0     C99804  -2.136   5.352  11.151 -0.2605  0.3879 -0.1215
  740MOL0     C99805  -2.263   5.369  11.231  0.2150  0.9140 -0.0193
  740MOL0     C99806  -2.255   5.488  11.336 -0.3248  1.0215  0.5069
  740MOL0     C99807  -2.394   5.479  11.408  0.2906 -1.7347 -0.1005
  740MOL0     C99808  -2.420   5.575  11.522  0.1236  0.6321  0.4530
  740MOL0     C99809  -2.563   5.569  11.570 -0.6023 -0.1005 -0.4228
  740MOL0    Cl99810  -2.613   5.395  11.608 -0.1390 -0.2070 -0.0867
  740MOL0     C99811  -2.104   4.859  10.860  0.5528 -0.3006  0.8748
  740MOL0     C99812  -2.002   4.839  10.763  0.5763  0.0116 -0.4692
  740MOL0     O99813  -1.756   5.086  10.527 -0.2583  1.2368 -0.3195
  740MOL0     C99814  -1.717   4.800  10.332 -0.5676  0.4614 -0.6207
  740MOL0     C99815  -1.640   4.733  10.243 -0.1574 -0.2074 -0.4459
  740MOL0     N99816  -1.049   4.488   9.827 -0.5324 -0.1737  0.1974
  740MOL0     N99817  -0.932   4.425   9.833  0.7648 -0.2618 -0.0550
  740MOL0     C99818   0.128   4.157  10.368 -0.3399 -0.0079 -0.0414
  740MOL0     C99819   0.270   4.142  10.372  0.8655 -0.7974  0.4472
  740MOL0     C99820   0.721   4.192  10.285 -0.3299 -0.3344  0.5749
  740MOL0     C99821   0.818   4.174  10.188 -0.2589  0.0320  0.0574
  740MOL0     C99822   0.955   4.159  10.227 -0.6369  0.0295  0.9776
  740MOL0     C99823   0.997   4.148  10.359  0.0185 -0.2023  0.2998
  740MOL0     O99824   1.124   4.113  10.400 -0.9977 -0.0664 -0.1599
  740MOL0     C99825   1.215   4.039  10.314 -0.2297 -0.8091  0.1935
  740MOL0     C99826   1.344   3.976  10.382  0.4211 -0.4486 -0.4654
  740MOL0     C99827   1.420   4.078  10.469  0.1155 -0.2869 -0.2419
  740MOL0     C99828   1.490   4.181  10.377  0.5487 -0.4249  0.2911
  740MOL0     C99829   1.571   4.110  10.279  0.3903  0.8291 -0.2116
  740MOL0     C99830   1.634   4.045  10.200  0.4741 -0.1095  0.7698
  740MOL0     C99831   0.895   4.168  10.451  0.6701  0.3731  0.5072
  740MOL0     C99832   0.755   4.204  10.420 -0.5610  0.1148 -0.5474
  740MOL0     H99833   0.361   4.425  10.212 -0.7428  1.2254  2.2831
  740MOL0     H99834   0.126   4.441  10.177 -0.4322  0.7168  0.2532
  740MOL0     H99835  -0.217   4.386  10.301 -2.7755 -1.9382 -2.3230
  740MOL0     H99836  -0.073   4.450  10.203  1.1980 -0.8123  0.4191
  740MOL0     H99837  -0.139   4.324  10.014 -0.2108 -1.2327  1.3173
  740MOL0     H99838  -0.270   4.244  10.102  1.6587 -1.0349 -0.0208
  740MOL0     H99839  -0.227   4.546  10.005  0.5345 -0.8876 -1.7802
  740MOL0     H99840  -0.338   4.424   9.944 -1.3756 -1.7096  1.2689
  740MOL0     H99841  -0.420   4.421  10.198  5.1968 -2.7170 -0.5778
  740MOL0     H99842  -0.340   4.574  10.212 -0.7245 -0.3018 -0.8801
  740MOL0     H99843  -0.571   4.626  10.169  0.5646  1.5810  0.5007
  740MOL0     H99844  -0.476   4.672  10.031  1.8489 -0.3033 -0.9947
  740MOL0     H99845  -0.585   4.378  10.018 -2.9387  0.2996  1.4166
  740MOL0     H99846  -0.704   4.502  10.047 -0.1557  0.7583  2.1713
  740MOL0     H99847  -0.631   4.636   9.871  1.3385 -0.4639  0.2143
  740MOL0     H99848  -0.502   4.535   9.820 -1.0160 -1.9739 -2.1148
  740MOL0     H99849  -0.711   4.339   9.819 -2.0668 -0.2655  0.7657
  740MOL0     H99850  -0.664   4.454   9.684 -5.6293  2.7580 -1.8211
  740MOL0     H99851  -0.820   4.695   9.695 -0.7880 -0.3328 -0.0170
  740MOL0     H99852  -1.063   4.808   9.727 -0.2366  1.6753  2.0486
  740MOL0     H99853  -1.202   4.691   9.701  1.2881  0.6589 -0.0873
  740MOL0     H99854  -1.183   4.862   9.898 -0.9283 -0.5029  1.1308
  740MOL0     H99855  -1.080   4.732   9.978  0.9558  0.4624  0.4072
  740MOL0     H99856  -1.278   4.577   9.956  1.0138  0.0262  0.3859
  740MOL0     H99857  -1.364   4.702   9.858  2.2662 -0.3039 -2.2251
  740MOL0     H99858  -1.331   4.852  10.071 -1.2449 -0.5852 -1.8954
  740MOL0     H99859  -1.243   4.713  10.145  0.8935 -3.3681 -0.4435
  740MOL0     H99860  -1.330   4.845  10.346 -0.9118  2.6359  3.3135
  740MOL0     H99861  -1.393   5.088  10.457  1.6464 -0.7531 -0.8115
  740MOL0     H99862  -1.511   5.066  10.575  0.8028 -0.0533 -1.2617
  740MOL0     H99863  -1.375   4.946  10.561 -2.2811 -1.5127 -0.2389
  740MOL0     H99864  -2.015   5.124  10.578  0.1042  0.8244 -0.2695
  740MOL0     H99865  -2.175   5.178  10.765  0.6185  0.5103 -0.6870
  740MOL0     H99866  -2.258   5.106  11.149 -1.4763 -0.0771 -1.0427
  740MOL0     H99867  -2.087   5.069  11.104  1.0129  0.4976 -2.2946
  740MOL0     H99868  -2.093   5.274  10.953 -1.0593 -1.1575 -1.4499
  740MOL0     H99869  -2.264   5.300  10.994 -0.3502  1.2182  0.1386
  740MOL0     H99870  -2.105   5.445  11.103  1.8261  0.1233  0.5987
  740MOL0     H99871  -2.059   5.313  11.218 -0.4073  0.1954 -0.0636
  740MOL0     H99872  -2.352   5.388  11.171 -1.3668  0.6305  2.1268
  740MOL0     H99873  -2.295   5.274  11.275 -1.1666  0.1155 -2.5281
  740MOL0     H99874  -2.235   5.581  11.281  0.1015 -2.1532 -5.5414
  740MOL0     H99875  -2.182   5.465  11.414  1.1584 -0.1869 -1.1697
  740MOL0     H99876  -2.466   5.508  11.331  0.3433  2.0668  1.0765
  740MOL0     H99877  -2.417   5.377  11.438  0.5273 -1.5065  0.8887
  740MOL0     H99878  -2.400   5.678  11.489 -0.7719  0.6746  0.0153
  740MOL0     H99879  -2.354   5.535  11.599  1.2237 -2.2136 -1.8081
  740MOL0     H99880  -2.626   5.604  11.488 -1.6819 -2.3313 -0.6175
  740MOL0     H99881  -2.586   5.640  11.651  0.9653 -2.0035  1.8334
  740MOL0     H99882  -2.120   4.788  10.941  0.6750 -0.9305  0.3533
  740MOL0     H99883  -1.946   4.750  10.791 -0.1232 -0.9900 -2.1303
  740MOL0     H99884  -1.822   4.772  10.318  0.3880 -3.8530 -0.6097
  740MOL0     H99885  -1.671   4.672  10.159  2.0948 -2.3785  0.1823
  740MOL0     H99886   0.074   4.080  10.422 -1.3771 -0.4759 -1.6780
  740MOL0     H99887   0.306   4.067  10.441  0.7535 -0.7759  0.5295
  740MOL0     H99888   0.797   4.161  10.083 -0.4674 -4.3006  0.4545
  740MOL0     H99889   1.028   4.142  10.149 -0.2902  0.4075  1.2103
  740MOL0     H99890   1.168   3.955  10.262 -1.9020  0.9590 -1.3502
  740MOL0     H99891   1.244   4.108  10.234  0.9026  1.6783  2.6123
  740MOL0     H99892   1.399   3.916  10.310 -0.7704 -2.3228  0.0993
  740MOL0     H99893   1.304   3.902  10.452 -1.3060  1.6242  0.8950
  740MOL0     H99894   1.491   4.021  10.529  0.7906 -1.5297 -2.1133
  740MOL0     H99895   1.357   4.127  10.543  2.0306  3.0735 -0.6179
  740MOL0     H99896   1.565   4.240  10.432  0.2543 -0.2710  0.5295
  740MOL0     H99897   1.422   4.251  10.328  1.6528 -0.6818 -1.7125
  740MOL0     H99898   1.698   3.982  10.142 -0.7531 -0.4808 -0.2108
  740MOL0     H99899   0.923   4.147  10.554 -2.3260  0.9567  1.5674
  740MOL0     H99900   0.700   4.212  10.514 -0.8396 -2.2343 -0.4492
  741MOL0     O99901   5.312   0.088   2.576  0.6307 -0.1135  0.6895
  741MOL0     C99902   5.330   0.211   2.580 -0.7090  0.3419  0.1397
  741MOL0     O99903   5.233   0.306   2.618  0.1646 -0.3338 -0.7441
  741MOL0     C99904   5.115   0.245   2.652 -0.5906 -1.0170  0.1091
  741MOL0     C99905   5.101   0.210   2.787 -0.7609 -0.3967 -0.5419
  741MOL0     C99906   4.996   0.129   2.835 -0.1699 -0.5840  0.6050
  741MOL0     C99907   4.899   0.087   2.748 -0.0334  0.9453  0.2570
  741MOL0     O99908   4.789   0.005   2.784  0.0348  0.4910 -0.4198
  741MOL0     C99909   4.751   0.004   2.921  0.2591  0.8187 -0.2211
  741MOL0     C99910   4.607  -0.056   2.941  0.6702  0.0484  0.0735
  741MOL0     C99911   4.587  -0.089   3.090  0.7095 -0.6938  0.3965
  741MOL0     C99912   4.431  -0.110   3.123 -0.8435  0.7674  0.8040
  741MOL0     C99913   4.405  -0.147   3.270  0.3656  0.1418 -0.2155
  741MOL0     C99914   4.473  -0.281   3.305 -0.3222  0.0222  0.2718
  741MOL0     C99915   4.433  -0.331   3.444 -0.2244  0.1700 -1.1392
  741MOL0     C99916   4.313  -0.427   3.449 -0.5000 -1.4759  0.8473
  741MOL0     N99917   4.290  -0.495   3.579  0.3558 -0.0705  0.2362
  741MOL0     C99918   4.253  -0.631   3.597 -0.0809 -0.0723 -0.8690
  741MOL0     C99919   4.256  -0.653   3.733 -1.1559 -0.1641  1.1323
  741MOL0     C99920   4.205  -0.777   3.799 -0.5704 -0.2017 -0.0195
  741MOL0     C99921   4.049  -0.764   3.826  0.1987  0.4399 -0.0101
  741MOL0     C99922   3.987  -0.900   3.881  1.1299 -0.7128  0.1090
  741MOL0     C99923   3.884  -0.886   3.990  1.0861 -0.1396  0.3565
  741MOL0     O99924   3.847  -1.021   4.016  0.4418 -0.8630  0.0354
  741MOL0     C99925   3.756  -1.051   4.112  0.5772 -0.0255 -0.7739
  741MOL0     C99926   3.686  -1.172   4.114 -0.8418  0.4038  0.1137
  741MOL0     C99927   3.611  -1.220   4.227  0.5547 -0.3565  0.5831
  741MOL0     C99928   3.545  -1.356   4.204 -0.0521 -1.0407 -0.4246
  741MOL0     C99929   3.587  -1.140   4.339 -0.0584 -0.4043 -0.3901
  741MOL0     C99930   3.499  -1.184   4.450  0.0533 -0.4199  0.2317
  741MOL0     O99931   3.519  -1.125   4.571  0.9912 -0.2851 -0.3119
  741MOL0     C99932   3.434  -1.164   4.676 -0.3191 -0.5241  0.3106
  741MOL0     C99933   3.310  -1.101   4.687  0.5995  0.2799 -0.3004
  741MOL0     C99934   3.228  -1.127   4.796  0.6471 -0.2254  0.2325
  741MOL0     C99935   3.264  -1.237   4.883 -0.1869 -1.0546  1.1121
  741MOL0     O99936   3.191  -1.288   4.985  0.5091  0.1161  0.2382
  741MOL0     C99937   3.108  -1.197   5.059 -0.2184 -0.4389  0.2999
  741MOL0     C99938   3.066  -1.277   5.178 -0.0477  0.4156 -0.1443
  741MOL0     C99939   2.980  -1.188   5.272  1.0821 -0.0234  0.0054
  741MOL0     C99940   2.831  -1.217   5.267 -0.4357 -0.3424 -0.3483
  741MOL0     C99941   2.755  -1.168   5.141  0.2430  0.2359 -0.6360
  741MOL0     C99942   2.640  -1.262   5.103 -0.1598 -0.0792 -0.7057
  741MOL0     C99943   2.542  -1.209   5.007 -0.6416  1.1606 -0.5492
  741MOL0     C99944   2.453  -1.100   5.070  0.2522 -0.0535 -0.1567
  741MOL0    Cl99945   2.347  -1.042   4.930  0.5202 -0.2619 -0.4237
  741MOL0     C99946   3.398  -1.288   4.863  0.7991 -0.6325  0.6471
  741MOL0     C99947   3.482  -1.261   4.757  0.0270  0.1189 -0.7469
  741MOL0     O99948   3.414  -1.263   4.428  0.0347  0.2485 -0.1323
  741MOL0     C99949   3.658  -1.021   4.339  0.5537 -0.1143 -0.5670
  741MOL0     C99950   3.728  -0.971   4.229  0.5566  0.3285  0.3558
  741MOL0     N99951   4.275  -0.528   3.786 -0.2507  0.7973 -0.2267
  741MOL0     N99952   4.297  -0.437   3.697 -0.5314 -0.1165 -0.0899
  741MOL0     C99953   4.903   0.124   2.614 -0.5436  0.6018  0.5305
  741MOL0     C99954   5.014   0.199   2.568 -0.7962  0.9213 -0.8273
  741MOL0     C99955   5.468   0.269   2.593  0.1553  0.4203 -0.4524
  741MOL0     C99956   5.575   0.184   2.634  0.5372 -1.1207  0.1247
  741MOL0     C99957   5.705   0.235   2.647 -0.1051  1.0241 -0.0564
  741MOL0     C99958   5.739   0.366   2.613  0.0179 -0.3020  0.2518
  741MOL0     O99959   5.870   0.409   2.617 -0.1495  0.3319  0.7281
  741MOL0     C99960   5.892   0.553   2.638 -0.2205  0.3177 -0.4204
  741MOL0     C99961   6.039   0.584   2.680 -0.0894 -0.1834  0.1250
  741MOL0     C99962   6.147   0.535   2.573  0.1490 -0.5799 -0.2159
  741MOL0     C99963   6.289   0.593   2.590 -0.6372  0.1846  0.4739
  741MOL0     C99964   6.284   0.744   2.584 -0.7753  0.1387  0.4709
  741MOL0     C99965   6.269   0.864   2.596  0.8187  1.0071  0.2514
  741MOL0     C99966   5.630   0.449   2.578  0.6453  0.6001  1.1086
  741MOL0     C99967   5.499   0.399   2.564 -0.3128 -0.1933  0.1174
  741MOL0     H99968   5.183   0.244   2.849 -2.7086 -0.5274  2.2721
  741MOL0     H99969   4.992   0.105   2.941  0.6871 -1.9218  0.3545
  741MOL0     H99970   4.823  -0.060   2.973  1.3871  2.0029 -0.2895
  741MOL0     H99971   4.740   0.100   2.972  0.5006  0.1306  1.1911
  741MOL0     H99972   4.530   0.013   2.905 -0.0231 -0.4134  0.6594
  741MOL0     H99973   4.597  -0.152   2.889  0.3442 -0.6094  1.3132
  741MOL0     H99974   4.642  -0.176   3.127 -0.9329 -0.9986  2.3533
  741MOL0     H99975   4.611  -0.007   3.158 -3.1427 -0.2153  1.4520
  741MOL0     H99976   4.380  -0.019   3.092 -2.3446 -0.5517 -0.8746
  741MOL0     H99977   4.386  -0.188   3.061 -0.8445  1.6243 -0.3009
  741MOL0     H99978   4.437  -0.068   3.339  0.5011 -0.8973  0.9687
  741MOL0     H99979   4.299  -0.170   3.284  0.6150 -0.6825  0.4142
  741MOL0     H99980   4.457  -0.360   3.231  0.4366  0.1919 -0.0854
  741MOL0     H99981   4.580  -0.257   3.304  0.0932 -1.4383  2.9697
  741MOL0     H99982   4.519  -0.388   3.482 -1.9064 -3.3094 -2.1348
  741MOL0     H99983   4.407  -0.246   3.508 -0.1220 -2.1535  2.2229
  741MOL0     H99984   4.324  -0.498   3.366 -1.8829 -1.7811  0.8993
  741MOL0     H99985   4.223  -0.370   3.423  0.9906 -1.1406 -4.9128
  741MOL0     H99986   4.218  -0.702   3.522 -3.0641 -0.6225  0.8850
  741MOL0     H99987   4.239  -0.858   3.733 -0.7137  0.6659 -1.1952
  741MOL0     H99988   4.248  -0.799   3.897 -2.3886 -0.4068  0.7780
  741MOL0     H99989   3.987  -0.743   3.739  0.4333 -0.5506 -0.4344
  741MOL0     H99990   4.029  -0.681   3.895 -0.2141  0.6590 -0.3888
  741MOL0     H99991   4.062  -0.968   3.920  0.1391 -1.3207  1.0184
  741MOL0     H99992   3.930  -0.946   3.799 -0.3663 -0.8919  1.2005
  741MOL0     H99993   3.794  -0.834   3.956  0.7768 -0.6943  0.3118
  741MOL0     H99994   3.928  -0.839   4.078  0.5367  0.8299  0.1237
  741MOL0     H99995   3.699  -1.238   4.028  1.4229  0.7130  0.1573
  741MOL0     H99996   3.443  -1.321   4.184  0.6110  0.4000 -1.5252
  741MOL0     H99997   3.565  -1.415   4.114  2.4716  0.7284 -1.1155
  741MOL0     H99998   3.544  -1.425   4.288 -0.5423 -1.5563 -0.8447
  741MOL0     H99999   3.277  -1.023   4.620 -0.4239  1.0971  1.0918
  741MOL0     H    0   3.138  -1.066   4.803  1.1386  0.5815 -0.3359
  741MOL0     H    1   3.163  -1.109   5.094 -3.8092  2.2187 -0.2115
  741MOL0     H    2   3.027  -1.155   5.000 -0.2658  0.7650  1.1946
  741MOL0     H    3   3.009  -1.359   5.136 -0.0262  0.7341 -0.8021
  741MOL0     H    4   3.154  -1.318   5.229  0.2237  0.6615 -0.4089
  741MOL0     H    5   2.995  -1.085   5.237 -2.0168  0.8849  1.0899
  741MOL0     H    6   3.014  -1.189   5.376 -1.0212  2.4988  0.8076
  741MOL0     H    7   2.816  -1.324   5.283 -0.5865 -0.1504  0.9036
  741MOL0     H    8   2.782  -1.171   5.354  0.4039 -2.7476  1.5245
  741MOL0     H    9   2.808  -1.164   5.046 -3.1869  1.8388 -2.6783
  741MOL0     H   10   2.725  -1.065   5.162 -0.4612  0.2254 -1.5250
  741MOL0     H   11   2.681  -1.351   5.054  1.7379  2.0613 -3.3168
  741MOL0     H   12   2.591  -1.285   5.198 -1.7600 -1.8369 -1.8990
  741MOL0     H   13   2.489  -1.293   4.961  0.6818 -0.0595  0.0675
  741MOL0     H   14   2.602  -1.156   4.933  0.2362 -1.8261 -2.1333
  741MOL0     H   15   2.517  -1.019   5.104 -0.0428 -0.2483  0.8857
  741MOL0     H   16   2.384  -1.140   5.146  1.3929 -3.0997 -0.5668
  741MOL0     H   17   3.441  -1.357   4.935  2.0517 -0.2589  0.2986
  741MOL0     H   18   3.578  -1.310   4.740 -1.0875 -2.0480 -1.0954
  741MOL0     H   19   3.640  -0.962   4.428 -1.2340 -2.0571  0.4484
  741MOL0     H   20   3.778  -0.876   4.249 -0.0084  0.5025  0.9754
  741MOL0     H   21   4.829   0.085   2.545  1.0846 -0.7785 -0.5032
  741MOL0     H   22   5.037   0.216   2.464 -2.0239  1.3204 -1.0515
  741MOL0     H   23   5.551   0.082   2.662  3.0568 -1.2723  2.0966
  741MOL0     H   24   5.784   0.167   2.676  0.5480  0.5061 -2.8387
  741MOL0     H   25   5.875   0.603   2.542  1.7426 -1.3949 -1.7647
  741MOL0     H   26   5.823   0.584   2.717 -1.3718 -0.3746 -1.1225
  741MOL0     H   27   6.049   0.539   2.780 -0.4020 -1.9327 -0.5817
  741MOL0     H   28   6.043   0.692   2.691 -0.7184 -0.2044  0.6592
  741MOL0     H   29   6.108   0.559   2.474 -0.8581 -1.5289 -0.0717
  741MOL0     H   30   6.145   0.426   2.587 -1.6795 -1.2244 -4.1242
  741MOL0     H   31   6.358   0.556   2.513 -0.3482  1.1586  0.2437
  741MOL0     H   32   6.346   0.562   2.677  0.8238 -2.8221 -1.3974
  741MOL0     H   33   6.256   0.970   2.598  0.8097  1.0278 -0.5717
  741MOL0     H   34   5.643   0.552   2.546 -0.1623 -0.1326 -1.8882
  741MOL0     H   35   5.412   0.460   2.541 -1.0537 -1.3569 -0.2981
  742MOL0     O   36   7.911  10.681   0.228  0.4766 -0.1509 -0.4174
  742MOL0     C   37   7.836  10.776   0.241  0.0231  0.4701 -0.1472
  742MOL0     O   38   7.879  10.909   0.271 -0.2348  0.1285 -0.6412
  742MOL0     C   39   8.010  10.919   0.313  0.1624  0.4146 -1.0779
  742MOL0     C   40   8.037  10.916   0.445 -0.2593 -0.1733  0.2432
  742MOL0     C   41   8.164  10.938   0.498  0.4445 -0.1372 -0.0279
  742MOL0     C   42   8.277  10.950   0.411 -0.7728  0.7931  0.1554
  742MOL0     O   43   8.405  10.987   0.448  0.0660  0.8757 -0.0862
  742MOL0     C   44   8.437  10.975   0.590 -0.5118 -0.9318 -0.1737
  742MOL0     C   45   8.551  11.076   0.621 -0.1568 -0.3138 -0.1131
  742MOL0     C   46   8.579  11.056   0.770  0.2034  0.2582  0.6131
  742MOL0     C   47   8.660  10.944   0.827  0.5976  0.2039 -0.4512
  742MOL0     C   48   8.692  10.974   0.981 -0.5063 -0.2136 -0.0872
  742MOL0     C   49   8.579  10.942   1.080  0.2698  0.3457 -0.6553
  742MOL0     C   50   8.622  10.895   1.224 -0.4993 -0.3020  0.2089
  742MOL0     C   51   8.518  10.897   1.330  1.2686 -0.0713 -0.5930
  742MOL0     N   52   8.385  10.851   1.299 -0.5201  0.5890  0.6462
  742MOL0     C   53   8.342  10.722   1.292 -1.1713  0.3941  0.8684
  742MOL0     C   54   8.214  10.725   1.240 -0.9004  0.4936 -1.0245
  742MOL0     C   55   8.118  10.611   1.218  0.1435 -0.3639 -0.3805
  742MOL0     C   56   7.974  10.655   1.192 -0.2958  0.1588  0.3218
  742MOL0     C   57   7.878  10.557   1.125 -0.0225 -0.1700 -0.3311
  742MOL0     C   58   7.730  10.592   1.166 -0.6983  0.0117  1.4576
  742MOL0     O   59   7.642  10.503   1.093  0.1468  0.0711  0.0047
  742MOL0     C   60   7.509  10.517   1.100  0.5816  0.0617  0.4015
  742MOL0     C   61   7.439  10.396   1.057 -0.2299 -0.3704 -0.1025
  742MOL0     C   62   7.299  10.388   1.055  0.4833 -0.1149  1.2307
  742MOL0     C   63   7.240  10.267   1.003 -0.1575  0.1432 -0.4317
  742MOL0     C   64   7.228  10.498   1.098  0.1741  0.7875 -0.6643
  742MOL0     C   65   7.080  10.492   1.110 -0.7216  0.2570 -0.0837
  742MOL0     O   66   7.002  10.427   1.017 -1.1903 -0.0976 -0.2267
  742MOL0     C   67   6.882  10.477   0.993  0.6516 -0.2804  0.2760
  742MOL0     C   68   6.862  10.543   0.871  0.4178  0.7380 -0.2130
  742MOL0     C   69   6.742  10.604   0.838 -0.9310 -0.3192 -0.0617
  742MOL0     C   70   6.635  10.588   0.920  1.1334 -0.4202  0.3748
  742MOL0     O   71   6.508  10.641   0.897 -0.2131  0.2832  0.4844
  742MOL0     C   72   6.481  10.696   0.766 -0.0081 -0.4848  0.5412
  742MOL0     C   73   6.331  10.750   0.765 -0.5683  0.2664  0.7678
  742MOL0     C   74   6.313  10.901   0.812  0.4686  0.4463  0.6261
  742MOL0     C   75   6.425  11.009   0.772 -0.1905 -0.2578 -0.0555
  742MOL0     C   76   6.392  11.145   0.821  0.9033 -0.1983  0.4507
  742MOL0     C   77   6.515  11.239   0.790 -0.5096  0.2434  0.1911
  742MOL0     C   78   6.531  11.357   0.880 -0.1071 -0.0270 -0.3705
  742MOL0     C   79   6.412  11.451   0.894 -0.0809  1.1626 -0.6373
  742MOL0    Cl   80   6.459  11.617   0.936 -0.4896  0.2423  0.3243
  742MOL0     C   81   6.651  10.516   1.037  0.0717  0.4846  0.2522
  742MOL0     C   82   6.771  10.452   1.069  0.3348 -0.2378  0.2426
  742MOL0     O   83   7.042  10.538   1.214 -0.5972 -0.2983  0.3811
  742MOL0     C   84   7.292  10.616   1.138 -0.2117 -1.1494  0.3546
  742MOL0     C   85   7.433  10.623   1.142 -0.4634  0.5272  0.5469
  742MOL0     N   86   8.183  10.856   1.219 -1.1565 -0.2300  0.0147
  742MOL0     N   87   8.285  10.930   1.261  0.5521 -0.3101 -0.1026
  742MOL0     C   88   8.247  10.937   0.275  0.2681 -0.0171  0.2640
  742MOL0     C   89   8.118  10.916   0.224  1.0525  0.0001 -0.6322
  742MOL0     C   90   7.688  10.754   0.241 -0.8504 -0.9160  0.8134
  742MOL0     C   91   7.601  10.865   0.226  0.5528 -0.0348 -0.2133
  742MOL0     C   92   7.464  10.846   0.225 -0.2502  0.0106  0.5185
  742MOL0     C   93   7.407  10.722   0.214  0.0245  0.1767  0.5669
  742MOL0     O   94   7.276  10.690   0.181 -0.3636 -0.1843  0.4028
  742MOL0     C   95   7.199  10.780   0.095  0.4308 -0.8133  0.3250
  742MOL0     C   96   7.054  10.740   0.123 -0.4528 -0.0798  1.2428
  742MOL0     C   97   7.001  10.623   0.038  0.4730  0.4358  0.8262
  742MOL0     C   98   6.976  10.671  -0.114 -0.7362  0.2680  0.2441
  742MOL0     C   99   6.858  10.748  -0.125 -0.2604  0.0473  0.9141
  742MOL0     C  100   6.754  10.804  -0.117  1.0541  0.2322 -1.2420
  742MOL0     C  101   7.491  10.609   0.231  0.4648 -0.6735 -0.1484
  742MOL0     C  102   7.630  10.623   0.249 -0.2478 -0.6907 -0.2545
  742MOL0     H  103   7.947  10.910   0.506 -0.7094  1.3976 -0.2164
  742MOL0     H  104   8.161  10.950   0.606  0.0938 -0.4983  0.0090
  742MOL0     H  105   8.355  10.998   0.659 -0.1547 -0.6542  0.1645
  742MOL0     H  106   8.478  10.876   0.614  0.0058 -0.6474  0.1315
  742MOL0     H  107   8.637  11.037   0.566 -0.3490 -1.5516  0.4356
  742MOL0     H  108   8.510  11.175   0.599 -2.0971 -1.4548 -2.0797
  742MOL0     H  109   8.631  11.148   0.797 -0.1227  1.8095 -3.4187
  742MOL0     H  110   8.479  11.066   0.813  0.3052 -4.4748  2.6386
  742MOL0     H  111   8.587  10.862   0.825  0.4264  0.2388  1.6672
  742MOL0     H  112   8.754  10.917   0.777  0.3907 -1.3582 -0.0738
  742MOL0     H  113   8.772  10.901   0.996  1.2947  1.9229  1.3876
  742MOL0     H  114   8.730  11.074   1.005  2.3676 -2.0266  4.3897
  742MOL0     H  115   8.507  11.022   1.098 -0.0375  0.2402 -1.3774
  742MOL0     H  116   8.536  10.852   1.034  1.4033  0.0862 -1.2390
  742MOL0     H  117   8.654  10.791   1.210  2.1000  0.5453 -0.6493
  742MOL0     H  118   8.710  10.955   1.248  0.4970 -1.7025  0.1338
  742MOL0     H  119   8.520  11.005   1.347 -1.2158  0.2084 -1.7028
  742MOL0     H  120   8.570  10.847   1.413  1.5377 -1.5599 -1.6137
  742MOL0     H  121   8.403  10.634   1.310 -2.2615 -0.9400 -1.4152
  742MOL0     H  122   8.154  10.564   1.126 -1.7587 -0.4934 -1.1080
  742MOL0     H  123   8.114  10.549   1.308 -1.0484  0.0385 -0.1391
  742MOL0     H  124   7.973  10.746   1.132 -0.3708 -0.0567 -0.0052
  742MOL0     H  125   7.942  10.669   1.296  0.9408  0.4319  0.6750
  742MOL0     H  126   7.893  10.453   1.157  0.2046 -0.2515 -0.7034
  742MOL0     H  127   7.891  10.554   1.017  4.0956 -2.4972  0.0095
  742MOL0     H  128   7.707  10.694   1.134 -0.2748 -0.1412  0.6460
  742MOL0     H  129   7.711  10.578   1.273  0.8467  0.1247  1.7602
  742MOL0     H  130   7.504  10.316   1.023  2.2025  0.1783  2.7938
  742MOL0     H  131   7.174  10.215   1.074  0.7611  2.8371  2.6284
  742MOL0     H  132   7.190  10.295   0.910 -0.1450 -0.6869 -0.6969
  742MOL0     H  133   7.331  10.210   0.981  1.4820  1.9295  1.3163
  742MOL0     H  134   6.950  10.561   0.809  2.0636 -0.8772  1.5550
  742MOL0     H  135   6.743  10.663   0.747  3.1397 -1.2859 -0.8218
  742MOL0     H  136   6.557  10.765   0.730  0.5524 -3.5465 -5.2443
  742MOL0     H  137   6.482  10.620   0.687  0.6532  2.3902 -2.3856
  742MOL0     H  138   6.313  10.761   0.658 -0.5707  0.7379  0.8159
  742MOL0     H  139   6.256  10.683   0.807  0.7965 -1.9975 -0.2024
  742MOL0     H  140   6.302  10.886   0.920 -0.6872 -3.7028  0.0822
  742MOL0     H  141   6.213  10.930   0.779  0.6783 -1.4309 -1.8863
  742MOL0     H  142   6.523  10.976   0.807  0.5194  1.2412 -0.5490
  742MOL0     H  143   6.438  11.000   0.663  0.5115  1.9669 -0.2079
  742MOL0     H  144   6.380  11.130   0.929  0.0911  1.1064  0.5597
  742MOL0     H  145   6.301  11.191   0.782  0.0771 -1.9608  0.1798
  742MOL0     H  146   6.607  11.181   0.800  0.3390  1.8728  2.8347
  742MOL0     H  147   6.509  11.285   0.691  0.1630  1.4436  0.6830
  742MOL0     H  148   6.620  11.416   0.858  1.0895 -0.9611  1.6305
  742MOL0     H  149   6.570  11.323   0.977 -0.6065 -1.1535 -0.5433
  742MOL0     H  150   6.345  11.427   0.977 -0.1232 -0.4814 -1.1209
  742MOL0     H  151   6.349  11.456   0.805 -2.5740  0.3027  0.9827
  742MOL0     H  152   6.564  10.502   1.100  1.2343  2.6863  2.4873
  742MOL0     H  153   6.784  10.392   1.159  0.9227  0.0736  0.3722
  742MOL0     H  154   7.229  10.700   1.167 -1.1899 -1.6661 -0.2048
  742MOL0     H  155   7.487  10.707   1.186 -1.1310  0.8443  0.7817
  742MOL0     H  156   8.331  10.933   0.207  0.4780 -0.2127  0.5333
  742MOL0     H  157   8.093  10.904   0.119 -4.7358 -0.3494  0.4666
  742MOL0     H  158   7.634  10.968   0.213  2.1577 -0.5470 -0.3910
  742MOL0     H  159   7.404  10.935   0.206 -2.1135 -1.3743 -0.5050
  742MOL0     H  160   7.200  10.885   0.126 -4.2725 -0.5289  0.1946
  742MOL0     H  161   7.222  10.775  -0.012 -1.2111 -1.5944 -0.0098
  742MOL0     H  162   6.997  10.832   0.105 -1.0499 -0.5967  0.4043
  742MOL0     H  163   7.043  10.713   0.228  1.9362 -1.1890  1.2791
  742MOL0     H  164   6.912  10.587   0.091 -1.5898  0.7360 -2.1962
  742MOL0     H  165   7.082  10.549   0.040 -0.9016 -1.5274 -3.5694
  742MOL0     H  166   6.964  10.582  -0.176 -2.9165 -0.2571  1.3270
  742MOL0     H  167   7.057  10.726  -0.162  1.2640 -1.3753  1.5266
  742MOL0     H  168   6.658  10.847  -0.095 -0.0582 -0.4073 -4.2975
  742MOL0     H  169   7.451  10.511   0.208  2.2240 -1.2205 -1.0148
  742MOL0     H  170   7.698  10.541   0.274  0.5780  0.0472 -0.0325
  743MOL0     O  171   4.963  11.316   3.175  0.3228  0.5147  0.6534
  743MOL0     C  172   5.041  11.255   3.097  0.1909 -0.4422  0.8180
  743MOL0     O  173   5.012  11.137   3.017 -0.2299 -0.1875  0.2334
  743MOL0     C  174   4.904  11.061   3.048  0.7233  0.4692 -0.3526
  743MOL0     C  175   4.847  11.002   2.929 -0.1750 -0.6018  0.2600
  743MOL0     C  176   4.738  10.922   2.938  0.7939 -0.2271 -0.2900
  743MOL0     C  177   4.675  10.897   3.061 -1.2779 -0.1731 -0.1797
  743MOL0     O  178   4.563  10.817   3.065 -0.2726  0.8445  0.0888
  743MOL0     C  179   4.545  10.731   3.179 -0.1924 -0.4362 -1.4317
  743MOL0     C  180   4.441  10.624   3.166 -0.3819 -0.2393  0.3489
  743MOL0     C  181   4.408  10.559   3.298  0.9738 -0.3141  0.2377
  743MOL0     C  182   4.293  10.469   3.291  0.5353 -0.1721  0.0722
  743MOL0     C  183   4.256  10.406   3.431  0.6409  0.0970 -0.3886
  743MOL0     C  184   4.113  10.339   3.426 -0.4112 -0.3976 -0.2723
  743MOL0     C  185   4.057  10.334   3.568 -1.0046 -0.1844  0.3100
  743MOL0     C  186   3.946  10.228   3.584  0.3199  0.3156 -0.1591
  743MOL0     N  187   3.808  10.281   3.543 -0.0139 -0.0132 -0.5146
  743MOL0     C  188   3.739  10.239   3.433  0.1134  0.8872  0.4540
  743MOL0     C  189   3.606  10.274   3.461 -0.9883  0.5975 -0.1108
  743MOL0     C  190   3.482  10.249   3.376  0.1547 -0.0269  0.2237
  743MOL0     C  191   3.476  10.329   3.255 -0.7560  0.8122 -0.4702
  743MOL0     C  192   3.491  10.483   3.286 -0.0515  0.4576 -0.0380
  743MOL0     C  193   3.440  10.559   3.164  0.6897  0.0634  0.8383
  743MOL0     O  194   3.292  10.564   3.147  0.5577 -0.7534 -0.4258
  743MOL0     C  195   3.214  10.654   3.226 -1.0487  0.4753  0.3673
  743MOL0     C  196   3.254  10.719   3.345  0.0942  0.3610 -0.0471
  743MOL0     C  197   3.161  10.813   3.403 -0.4546  0.8349 -0.1677
  743MOL0     C  198   3.207  10.866   3.541  0.0395 -0.5457 -0.0202
  743MOL0     C  199   3.044  10.847   3.340  0.2343  0.2988  0.2468
  743MOL0     C  200   2.944  10.948   3.391 -0.9450  0.2395 -0.2818
  743MOL0     O  201   2.986  11.028   3.490 -0.1707 -0.3373  0.3626
  743MOL0     C  202   2.899  11.092   3.578 -2.1917 -0.4268 -0.3430
  743MOL0     C  203   2.944  11.211   3.626 -0.1095 -0.3802 -0.5461
  743MOL0     C  204   2.867  11.295   3.710 -0.2528  0.3481 -0.1042
  743MOL0     C  205   2.745  11.248   3.759 -0.3628  0.0863  0.1879
  743MOL0     O  206   2.669  11.315   3.850  0.1926  0.0027  0.3400
  743MOL0     C  207   2.725  11.410   3.951 -0.7558 -0.1785  0.4441
  743MOL0     C  208   2.697  11.343   4.082  0.1770 -1.1805 -0.1181
  743MOL0     C  209   2.736  11.429   4.199  0.5685  0.4102  0.3929
  743MOL0     C  210   2.620  11.524   4.236 -0.1411 -0.5614 -0.5388
  743MOL0     C  211   2.645  11.597   4.367  0.4041 -0.2492 -0.1420
  743MOL0     C  212   2.582  11.523   4.483 -0.1733 -0.2722  0.1509
  743MOL0     C  213   2.441  11.570   4.513 -0.4394  0.8245  0.3553
  743MOL0     C  214   2.412  11.541   4.668 -0.9768  0.7726  0.1858
  743MOL0    Cl  215   2.251  11.595   4.711  0.0025  0.2272 -0.3800
  743MOL0     C  216   2.696  11.125   3.704 -0.3115 -0.2004 -0.5552
  743MOL0     C  217   2.773  11.049   3.615 -0.7035  0.1871 -0.2501
  743MOL0     O  218   2.829  10.936   3.353 -0.0455 -0.8790 -0.4587
  743MOL0     C  219   3.007  10.774   3.224 -0.0729 -0.0783  0.1661
  743MOL0     C  220   3.093  10.677   3.173  0.3326 -0.3145 -0.7602
  743MOL0     N  221   3.601  10.309   3.589  0.2771 -0.5779  0.1462
  743MOL0     N  222   3.715  10.321   3.643  0.1401  0.0110 -0.5377
  743MOL0     C  223   4.740  10.948   3.178  0.0175 -0.3188  0.4910
  743MOL0     C  224   4.845  11.037   3.175 -0.3198  0.2509  0.5599
  743MOL0     C  225   5.179  11.318   3.070  0.6145  0.1170 -0.7979
  743MOL0     C  226   5.251  11.263   2.963 -0.1750 -0.0735  1.1969
  743MOL0     C  227   5.376  11.323   2.923  1.3590  0.2565 -0.0502
  743MOL0     C  228   5.426  11.431   2.991 -0.9516 -0.6595 -0.3017
  743MOL0     O  229   5.544  11.487   2.945 -0.3267 -0.1730 -0.0494
  743MOL0     C  230   5.626  11.573   3.032 -0.2178  0.5105 -1.1767
  743MOL0     C  231   5.772  11.581   2.998  0.0486 -0.2092  0.2301
  743MOL0     C  232   5.848  11.481   3.090 -0.2449 -0.4173 -0.2646
  743MOL0     C  233   5.994  11.438   3.064 -0.1541 -0.2611  0.6659
  743MOL0     C  234   6.010  11.378   2.933  0.4301 -0.3362  0.0564
  743MOL0     C  235   6.020  11.343   2.813  0.1744  0.4822 -0.0431
  743MOL0     C  236   5.361  11.482   3.104  0.0461 -0.5689 -0.0126
  743MOL0     C  237   5.236  11.431   3.138  0.0699  0.3295  0.1738
  743MOL0     H  238   4.903  11.008   2.836  0.7175 -1.2479  0.7508
  743MOL0     H  239   4.698  10.895   2.840  4.2995  1.1430 -2.2902
  743MOL0     H  240   4.634  10.682   3.218 -1.1814  0.5238  2.4424
  743MOL0     H  241   4.517  10.792   3.265  1.2437 -2.9236  0.9494
  743MOL0     H  242   4.351  10.661   3.115 -1.8077 -3.8575 -0.0719
  743MOL0     H  243   4.484  10.548   3.099  0.9445  0.3694  0.4999
  743MOL0     H  244   4.492  10.500   3.336  0.5132  0.6823  3.0892
  743MOL0     H  245   4.386  10.640   3.369 -1.8778  0.9683 -1.9103
  743MOL0     H  246   4.202  10.523   3.263  0.5373  0.9501  2.0760
  743MOL0     H  247   4.321  10.392   3.219  4.0259  0.7971  0.2455
  743MOL0     H  248   4.331  10.339   3.475  0.6419  0.6041  0.4193
  743MOL0     H  249   4.248  10.488   3.503 -0.4374 -1.3696  1.2473
  743MOL0     H  250   4.049  10.391   3.354  3.4012  3.9182 -1.0232
  743MOL0     H  251   4.129  10.240   3.384 -1.7437 -0.4647 -0.6565
  743MOL0     H  252   4.132  10.315   3.645 -1.4184 -3.8570  0.0133
  743MOL0     H  253   4.024  10.434   3.599  1.6416 -0.0152  2.9476
  743MOL0     H  254   3.929  10.201   3.689 -3.2379  0.1522 -0.6641
  743MOL0     H  255   3.969  10.139   3.526 -1.5519  0.3240 -0.9623
  743MOL0     H  256   3.778  10.201   3.339  2.0035  0.1191  1.4765
  743MOL0     H  257   3.485  10.143   3.347 -5.6804 -0.5342  0.3685
  743MOL0     H  258   3.387  10.255   3.430 -1.5650 -1.7999 -2.3536
  743MOL0     H  259   3.382  10.326   3.200  0.3455  2.5771 -2.6685
  743MOL0     H  260   3.559  10.315   3.185 -0.1874  2.0674 -0.0713
  743MOL0     H  261   3.598  10.504   3.294  1.0045 -4.4405  3.7501
  743MOL0     H  262   3.432  10.511   3.373 -2.5095  2.5804 -2.2062
  743MOL0     H  263   3.491  10.517   3.076  1.2085  0.4131  0.9634
  743MOL0     H  264   3.474  10.663   3.168 -2.6417  1.3550 -0.6282
  743MOL0     H  265   3.352  10.699   3.386  1.3193 -1.4134 -3.4275
  743MOL0     H  266   3.214  10.975   3.544 -0.0280 -0.1516 -5.4755
  743MOL0     H  267   3.136  10.834   3.618 -0.5117  0.6887  0.0055
  743MOL0     H  268   3.300  10.814   3.567 -0.5308 -1.7457 -0.2913
  743MOL0     H  269   3.044  11.244   3.600  1.0596 -1.6177  2.0813
  743MOL0     H  270   2.913  11.385   3.750 -0.3066  0.2573  0.1638
  743MOL0     H  271   2.832  11.424   3.933 -0.5516  3.5229  3.5172
  743MOL0     H  272   2.676  11.507   3.946  1.9441  1.2514  0.3924
  743MOL0     H  273   2.590  11.322   4.095 -0.1021 -0.6005 -1.2910
  743MOL0     H  274   2.760  11.254   4.081 -0.3499 -1.6226 -2.8418
  743MOL0     H  275   2.829  11.481   4.178  1.8904 -2.2159 -0.8012
  743MOL0     H  276   2.749  11.363   4.286  0.6241  0.7273  0.6255
  743MOL0     H  277   2.623  11.602   4.159  0.2412 -0.9909 -0.9689
  743MOL0     H  278   2.521  11.479   4.224 -0.1572 -0.0250 -2.8586
  743MOL0     H  279   2.624  11.705   4.361 -0.2395 -0.1490  2.8500
  743MOL0     H  280   2.751  11.591   4.394  1.2179 -1.1863 -3.0762
  743MOL0     H  281   2.571  11.417   4.459  0.5406 -0.2426 -0.3536
  743MOL0     H  282   2.654  11.520   4.566  1.6649  3.1829 -1.0847
  743MOL0     H  283   2.366  11.527   4.446  0.7643 -2.0101  0.6838
  743MOL0     H  284   2.445  11.678   4.495  1.3742  1.1562  2.3962
  743MOL0     H  285   2.486  11.590   4.733  0.2433 -0.1931 -0.4217
  743MOL0     H  286   2.425  11.434   4.688 -1.1091  0.9176  1.0886
  743MOL0     H  287   2.595  11.101   3.733 -0.1149 -1.5787 -0.9536
  743MOL0     H  288   2.749  10.947   3.589  0.2998 -1.1346  3.3932
  743MOL0     H  289   2.916  10.805   3.173 -0.0991  0.1173  0.3285
  743MOL0     H  290   3.069  10.619   3.084 -0.8799  0.1220 -0.7364
  743MOL0     H  291   4.708  10.909   3.274 -0.4966 -3.1138 -0.7132
  743MOL0     H  292   4.891  11.058   3.271 -0.7734  0.3244  0.7626
  743MOL0     H  293   5.215  11.188   2.894  0.8349  2.4881 -2.3911
  743MOL0     H  294   5.424  11.297   2.829 -0.4933  0.2786 -1.0453
  743MOL0     H  295   5.580  11.672   3.040  0.8870  1.0597 -1.5044
  743MOL0     H  296   5.624  11.532   3.133  2.9839  1.5740 -0.5496
  743MOL0     H  297   5.797  11.687   3.011 -0.4759 -0.2833  2.3096
  743MOL0     H  298   5.786  11.547   2.896  0.4743  1.3505 -0.2605
  743MOL0     H  299   5.787  11.391   3.082 -1.7850  0.6637 -1.2621
  743MOL0     H  300   5.845  11.519   3.193 -1.8798  0.0284 -0.4437
  743MOL0     H  301   6.014  11.356   3.133  0.7098 -0.0990  0.6178
  743MOL0     H  302   6.065  11.521   3.072  0.7314 -1.0518  1.1708
  743MOL0     H  303   6.044  11.320   2.711 -1.7475 -0.8600 -0.2613
  743MOL0     H  304   5.408  11.564   3.157  0.3275  0.2729 -1.5110
  743MOL0     H  305   5.179  11.478   3.217 -0.3174  1.0930 -0.5406
  744MOL0     O  306   3.013   8.595   7.771  0.5713  0.0840 -0.2845
  744MOL0     C  307   2.964   8.696   7.712 -0.0129 -0.0885 -0.4814
  744MOL0     O  308   3.013   8.759   7.597 -0.3120 -0.5004  0.5279
  744MOL0     C  309   3.128   8.729   7.537  0.2144 -0.5462 -0.8672
  744MOL0     C  310   3.259   8.710   7.608 -0.0989  0.4292  0.0807
  744MOL0     C  311   3.378   8.700   7.534  0.1152 -0.3584  0.1834
  744MOL0     C  312   3.374   8.702   7.396  0.4311 -0.8082  0.4290
  744MOL0     O  313   3.489   8.669   7.332 -0.5781 -0.2495  0.6309
  744MOL0     C  314   3.498   8.707   7.194 -1.0574  1.2482 -0.5675
  744MOL0     C  315   3.639   8.740   7.147  0.2218 -0.3776 -0.3550
  744MOL0     C  316   3.689   8.881   7.194 -0.2187 -0.3871 -0.7378
  744MOL0     C  317   3.847   8.887   7.190 -0.2224  0.0626  0.3168
  744MOL0     C  318   3.908   8.971   7.299 -0.3941 -0.1771 -1.4037
  744MOL0     C  319   4.054   9.006   7.273 -0.2736  0.3022 -0.0923
  744MOL0     C  320   4.145   8.870   7.273  0.1747 -0.3714 -0.2381
  744MOL0     C  321   4.151   8.800   7.407 -0.4959 -0.0937 -0.3907
  744MOL0     N  322   4.214   8.670   7.399  0.4736  0.3383 -0.9060
  744MOL0     C  323   4.349   8.640   7.395 -0.1277 -0.8464  0.0381
  744MOL0     C  324   4.344   8.504   7.406  0.0703  0.4574 -0.3627
  744MOL0     C  325   4.471   8.436   7.454  0.0365  0.8922 -1.2033
  744MOL0     C  326   4.497   8.457   7.600  1.0871  0.3430 -0.1150
  744MOL0     C  327   4.367   8.431   7.683 -0.0732 -0.6117  0.0485
  744MOL0     C  328   4.397   8.423   7.839  0.0983 -0.2094  0.3547
  744MOL0     O  329   4.445   8.546   7.887 -0.0471 -0.1946  0.2430
  744MOL0     C  330   4.581   8.571   7.916 -0.0179 -0.6005 -0.3077
  744MOL0     C  331   4.614   8.702   7.963  0.4411  0.5302 -0.2216
  744MOL0     C  332   4.745   8.745   7.996  0.1994 -0.1318  0.7344
  744MOL0     C  333   4.767   8.900   8.018  0.1174 -0.8405  0.0482
  744MOL0     C  334   4.853   8.649   7.984 -0.3158  0.6467  0.1410
  744MOL0     C  335   5.002   8.673   7.995  0.4757 -0.3850 -0.6546
  744MOL0     O  336   5.095   8.581   7.958 -0.2176  0.2865 -0.4173
  744MOL0     C  337   5.224   8.618   7.949  0.3540 -0.3854 -0.5556
  744MOL0     C  338   5.276   8.628   7.827 -1.4574  0.2758  1.0464
  744MOL0     C  339   5.404   8.671   7.805 -0.1405  0.4708  0.1233
  744MOL0     C  340   5.486   8.686   7.918  0.9675  0.3167  0.8787
  744MOL0     O  341   5.610   8.702   7.883 -0.2003  0.2736 -0.2626
  744MOL0     C  342   5.707   8.651   7.966 -0.4437  0.0247 -0.5340
  744MOL0     C  343   5.704   8.503   7.992 -0.7791 -0.1709 -0.2147
  744MOL0     C  344   5.711   8.413   7.865 -0.5675  0.7766 -0.3261
  744MOL0     C  345   5.643   8.274   7.883  0.1500 -0.3751 -0.2703
  744MOL0     C  346   5.493   8.299   7.892 -0.3215  0.5945  0.2797
  744MOL0     C  347   5.418   8.164   7.888  0.4713 -0.0153 -0.6456
  744MOL0     C  348   5.262   8.185   7.875  0.0180 -0.3756 -0.4334
  744MOL0     C  349   5.209   8.237   8.007 -0.1334  0.4141 -0.4502
  744MOL0    Cl  350   5.035   8.203   8.031  0.0279 -0.0534  0.7695
  744MOL0     C  351   5.433   8.692   8.047  0.0969 -0.5430  0.0693
  744MOL0     C  352   5.298   8.657   8.063  1.5038  0.3475 -0.4492
  744MOL0     O  353   5.033   8.785   8.037 -0.0471  0.0146  0.2123
  744MOL0     C  354   4.814   8.517   7.954  0.1140  0.6568 -0.6660
  744MOL0     C  355   4.684   8.480   7.922 -0.1748  0.6765 -0.2458
  744MOL0     N  356   4.212   8.456   7.407 -0.2275  0.7270  0.7168
  744MOL0     N  357   4.135   8.553   7.391 -0.3464 -0.1793  0.1976
  744MOL0     C  358   3.245   8.723   7.329  0.3256 -0.0165  0.7267
  744MOL0     C  359   3.125   8.733   7.400 -1.0621 -0.1400  0.9875
  744MOL0     C  360   2.841   8.749   7.780  0.3183 -0.3811  0.5040
  744MOL0     C  361   2.810   8.890   7.768 -0.3708 -0.2558  0.1768
  744MOL0     C  362   2.700   8.946   7.831  0.1210 -0.5830 -0.8797
  744MOL0     C  363   2.627   8.866   7.911  0.2233 -0.2289 -0.4383
  744MOL0     O  364   2.525   8.900   7.987  0.0972  0.0386  0.0588
  744MOL0     C  365   2.535   9.039   8.035 -0.4281 -0.1667  0.2771
  744MOL0     C  366   2.457   9.067   8.153 -0.4146  0.3141 -0.4528
  744MOL0     C  367   2.481   8.949   8.261 -0.5255 -0.9238 -0.5852
  744MOL0     C  368   2.391   8.973   8.384 -0.3153  0.3393 -0.1399
  744MOL0     C  369   2.417   8.868   8.484 -0.1450  0.1151  0.8825
  744MOL0     C  370   2.442   8.803   8.588  0.7156 -0.1826 -0.3410
  744MOL0     C  371   2.649   8.726   7.920  0.8017 -0.2015  0.1168
  744MOL0     C  372   2.756   8.666   7.857 -0.8385  0.1611  0.8581
  744MOL0     H  373   3.278   8.721   7.714 -5.6804 -0.3119  1.5112
  744MOL0     H  374   3.477   8.691   7.578 -0.2621 -0.2307  1.0966
  744MOL0     H  375   3.456   8.629   7.130  0.8652  0.2071 -0.6170
  744MOL0     H  376   3.436   8.796   7.178 -0.2029  1.6026 -2.1207
  744MOL0     H  377   3.699   8.658   7.186  0.8616 -0.6023 -1.7229
  744MOL0     H  378   3.646   8.734   7.038 -2.7864 -2.4708 -0.5354
  744MOL0     H  379   3.641   8.958   7.133 -0.0197  0.7290  0.4790
  744MOL0     H  380   3.659   8.899   7.297 -1.9810  0.9534 -1.4392
  744MOL0     H  381   3.882   8.784   7.206  2.5320  0.8446 -0.1247
  744MOL0     H  382   3.882   8.928   7.095  0.9020  0.6290  0.9512
  744MOL0     H  383   3.857   9.066   7.313 -1.2761 -0.7138 -0.8316
  744MOL0     H  384   3.894   8.917   7.393 -1.5240  0.8046 -0.9957
  744MOL0     H  385   4.061   9.064   7.181  1.0415 -1.1047 -0.9214
  744MOL0     H  386   4.074   9.071   7.360 -0.4220 -1.1117  1.0439
  744MOL0     H  387   4.125   8.805   7.187  1.7052  1.1384 -1.8133
  744MOL0     H  388   4.249   8.899   7.258  0.7852 -0.7531  2.7592
  744MOL0     H  389   4.048   8.780   7.440 -0.2015  1.4908  1.7690
  744MOL0     H  390   4.196   8.871   7.477 -0.7611 -0.6525  0.3603
  744MOL0     H  391   4.432   8.707   7.380 -2.1697  1.6144 -1.0850
  744MOL0     H  392   4.458   8.328   7.438 -2.8089  0.9374  0.2164
  744MOL0     H  393   4.560   8.469   7.399 -1.2363  0.6318 -3.5911
  744MOL0     H  394   4.525   8.561   7.618  0.7185  0.7351 -1.6793
  744MOL0     H  395   4.574   8.385   7.628 -0.9571 -2.2928 -0.8829
  744MOL0     H  396   4.316   8.343   7.643 -1.3402  0.0777  0.0874
  744MOL0     H  397   4.292   8.510   7.670  0.6026  0.6840  3.2359
  744MOL0     H  398   4.473   8.345   7.855 -0.1458 -0.2133  1.6325
  744MOL0     H  399   4.311   8.397   7.901 -0.8995  0.9452 -0.5153
  744MOL0     H  400   4.533   8.773   7.968  0.9018  1.1380 -1.0444
  744MOL0     H  401   4.669   8.948   8.016  1.9720  3.4256  0.5148
  744MOL0     H  402   4.822   8.922   8.110  0.9168 -1.0726 -0.3610
  744MOL0     H  403   4.830   8.953   7.945 -2.0171 -0.4719 -1.6286
  744MOL0     H  404   5.210   8.600   7.746  0.5854 -2.0573  0.0541
  744MOL0     H  405   5.444   8.674   7.704  0.4460 -0.9130  0.2965
  744MOL0     H  406   5.800   8.669   7.911 -0.4497  0.1916 -0.4903
  744MOL0     H  407   5.715   8.713   8.056  1.3390 -0.4572 -0.3121
  744MOL0     H  408   5.793   8.486   8.053 -1.3110 -1.2676  0.2758
  744MOL0     H  409   5.619   8.479   8.056 -1.3225  0.1405 -0.8133
  744MOL0     H  410   5.819   8.395   7.853 -0.8498 -0.0967 -1.9042
  744MOL0     H  411   5.679   8.460   7.772  0.8446  0.6043 -0.9356
  744MOL0     H  412   5.665   8.210   7.797  0.2280 -0.8760  0.1155
  744MOL0     H  413   5.672   8.215   7.971 -2.8479 -2.5220 -0.5743
  744MOL0     H  414   5.456   8.351   7.803 -0.7387 -1.8224 -1.0624
  744MOL0     H  415   5.455   8.357   7.977 -3.1330  0.6662 -0.9082
  744MOL0     H  416   5.459   8.100   7.810 -0.4607 -2.9822  1.1238
  744MOL0     H  417   5.434   8.108   7.981 -3.7916  1.3910  1.1810
  744MOL0     H  418   5.214   8.091   7.849  0.3902 -0.2370 -1.6771
  744MOL0     H  419   5.243   8.255   7.793  0.2487  0.1696 -0.0279
  744MOL0     H  420   5.229   8.345   8.003  0.2669  0.3287 -0.7624
  744MOL0     H  421   5.275   8.189   8.079 -0.2287  2.0668  0.7946
  744MOL0     H  422   5.495   8.715   8.134  1.6083 -4.9145  0.4157
  744MOL0     H  423   5.254   8.661   8.161 -1.0837  1.1179 -1.5628
  744MOL0     H  424   4.885   8.436   7.946 -0.5837  0.1550 -2.0345
  744MOL0     H  425   4.658   8.377   7.896 -1.9639  1.0136  0.0615
  744MOL0     H  426   3.240   8.716   7.221 -1.5103  0.5477  0.7520
  744MOL0     H  427   3.033   8.741   7.343 -1.6946  1.0844  2.1539
  744MOL0     H  428   2.867   8.952   7.699 -1.3939  1.5980  0.9300
  744MOL0     H  429   2.663   9.047   7.817 -2.4141 -0.6176  3.5860
  744MOL0     H  430   2.639   9.067   8.054  0.4852 -4.1475  2.1671
  744MOL0     H  431   2.492   9.105   7.959 -1.5119 -1.0135  0.1162
  744MOL0     H  432   2.351   9.086   8.131 -0.5591  0.5382  0.4083
  744MOL0     H  433   2.500   9.163   8.183  0.6520 -0.3192  0.1102
  744MOL0     H  434   2.586   8.948   8.291 -0.2942  0.8136 -1.2196
  744MOL0     H  435   2.465   8.851   8.213  2.0284 -2.1707  0.9145
  744MOL0     H  436   2.285   8.965   8.355 -1.2345  1.5386  2.6169
  744MOL0     H  437   2.396   9.074   8.424 -0.8202  0.5698 -0.6430
  744MOL0     H  438   2.469   8.755   8.681 -2.0950 -1.8146 -0.2505
  744MOL0     H  439   2.591   8.661   7.984  1.3647 -1.1159 -0.2904
  744MOL0     H  440   2.775   8.561   7.876  0.2624  0.2637  0.3979
  745MOL0     O  441   5.503   4.570   3.904  0.4914 -0.3892 -0.3959
  745MOL0     C  442   5.529   4.463   3.967  0.7270  0.1860  0.5328
  745MOL0     O  443   5.645   4.423   4.014 -0.1206 -0.3439 -0.2065
  745MOL0     C  444   5.766   4.488   3.993  0.7305 -0.6252 -1.6250
  745MOL0     C  445   5.867   4.441   4.072  0.5499  0.1833  0.0465
  745MOL0     C  446   6.001   4.474   4.042  0.3570  0.5496  0.0978
  745MOL0     C  447   6.038   4.556   3.934  0.0827 -0.2424 -0.3893
  745MOL0     O  448   6.168   4.588   3.916 -0.2679  0.4682  1.1924
  745MOL0     C  449   6.199   4.721   3.857  0.4034 -0.2263 -0.5637
  745MOL0     C  450   6.260   4.718   3.718  1.3382  0.2683  0.2708
  745MOL0     C  451   6.388   4.633   3.724 -0.3590  0.0735  1.0027
  745MOL0     C  452   6.464   4.640   3.580 -0.7715  0.3626 -0.7517
  745MOL0     C  453   6.529   4.771   3.547  0.0837 -0.6130 -0.7795
  745MOL0     C  454   6.649   4.765   3.457 -0.0225  0.0977 -0.0315
  745MOL0     C  455   6.700   4.911   3.426 -0.1194 -0.5183 -0.2085
  745MOL0     C  456   6.835   4.935   3.344  0.0528 -0.4461 -0.5125
  745MOL0     N  457   6.950   4.896   3.416  0.1214  0.0780 -0.0046
  745MOL0     C  458   7.047   4.984   3.445 -0.9472 -1.1252  0.1605
  745MOL0     C  459   7.155   4.914   3.482  1.0801 -0.2562  0.6350
  745MOL0     C  460   7.290   4.968   3.514 -0.2704  0.4010 -0.3032
  745MOL0     C  461   7.325   4.929   3.658 -0.2112  0.7055  0.0223
  745MOL0     C  462   7.450   4.990   3.707 -0.5656 -0.1113 -0.4564
  745MOL0     C  463   7.573   4.908   3.695 -0.1997  0.0213  0.3159
  745MOL0     O  464   7.629   4.949   3.568  0.2468  0.1631  0.1025
  745MOL0     C  465   7.680   4.862   3.482 -0.0016  0.4358  0.0946
  745MOL0     C  466   7.701   4.726   3.509  1.4119 -0.4281 -0.3261
  745MOL0     C  467   7.751   4.639   3.412  0.0793 -0.7270 -0.6564
  745MOL0     C  468   7.799   4.507   3.460  0.7367  0.7286 -0.0218
  745MOL0     C  469   7.771   4.685   3.281  0.4667  0.7649 -0.4368
  745MOL0     C  470   7.822   4.591   3.174 -0.8270 -0.0124 -0.0740
  745MOL0     O  471   7.782   4.463   3.164  0.5277  0.0923  0.2902
  745MOL0     C  472   7.854   4.380   3.081 -0.3176 -0.3008 -0.4659
  745MOL0     C  473   7.826   4.369   2.944  0.4342 -0.2534  0.0534
  745MOL0     C  474   7.904   4.279   2.875  0.5433  0.4239  0.4188
  745MOL0     C  475   8.014   4.209   2.926  0.9905 -0.1951  0.2763
  745MOL0     O  476   8.100   4.131   2.853 -0.0361 -1.2598  0.0718
  745MOL0     C  477   8.043   4.042   2.758  0.7037 -0.7357  0.4677
  745MOL0     C  478   8.163   3.958   2.724 -0.3412  0.2435  0.5708
  745MOL0     C  479   8.162   3.901   2.572 -0.3398 -0.8657  0.2459
  745MOL0     C  480   8.163   4.013   2.470  0.3860 -0.1406  0.8538
  745MOL0     C  481   8.224   3.967   2.337  0.3417 -0.4779  0.7791
  745MOL0     C  482   8.244   4.086   2.235 -1.2982 -0.3619 -0.2609
  745MOL0     C  483   8.335   4.036   2.123 -0.2191  0.0378 -0.0727
  745MOL0     C  484   8.280   3.929   2.028 -0.0940 -0.0869 -0.0726
  745MOL0    Cl  485   8.394   3.894   1.896  0.3579  0.1738  0.2755
  745MOL0     C  486   8.041   4.215   3.067 -0.0993 -0.7707 -0.4184
  745MOL0     C  487   7.959   4.300   3.146 -0.0836 -0.9907  0.0527
  745MOL0     O  488   7.917   4.635   3.112  0.3953 -0.2417  0.3900
  745MOL0     C  489   7.756   4.823   3.261  0.6317 -0.0294  0.2833
  745MOL0     C  490   7.717   4.910   3.357 -1.0521  0.2058  0.3055
  745MOL0     N  491   7.107   4.780   3.502 -0.6089  0.0627  0.1140
  745MOL0     N  492   6.979   4.772   3.468 -0.1872  0.1904  0.5046
  745MOL0     C  493   5.928   4.603   3.852 -0.5852  0.7610 -0.1347
  745MOL0     C  494   5.801   4.574   3.884 -0.6648 -1.1517  0.6989
  745MOL0     C  495   5.412   4.388   4.002 -0.1053  0.8242 -0.2075
  745MOL0     C  496   5.412   4.287   4.103  0.0596 -0.1760  0.3616
  745MOL0     C  497   5.304   4.212   4.133  0.5086  0.4234 -0.6602
  745MOL0     C  498   5.191   4.213   4.055  0.2969  0.0901 -0.7138
  745MOL0     O  499   5.080   4.127   4.068  0.5552  0.3461 -0.0847
  745MOL0     C  500   5.083   4.000   4.141 -0.4515  0.1820  0.5490
  745MOL0     C  501   4.988   3.914   4.065 -0.8024 -0.2533  0.1760
  745MOL0     C  502   4.852   3.900   4.128 -0.6199  0.0287  0.0504
  745MOL0     C  503   4.851   3.803   4.254  0.9163  0.1166  0.9752
  745MOL0     C  504   4.889   3.667   4.216  1.1684  0.5459  0.7553
  745MOL0     C  505   4.902   3.548   4.189  0.5981 -0.1773 -0.1668
  745MOL0     C  506   5.180   4.310   3.957 -0.5788 -0.9219  0.0458
  745MOL0     C  507   5.287   4.399   3.928  0.3649  0.0954  0.3593
  745MOL0     H  508   5.852   4.382   4.162 -0.8518  2.3171  1.2993
  745MOL0     H  509   6.087   4.449   4.102  2.2513  0.0674 -2.6058
  745MOL0     H  510   6.109   4.783   3.852  0.8113  0.5349  1.0551
  745MOL0     H  511   6.265   4.776   3.924 -0.0690 -0.4524  0.0960
  745MOL0     H  512   6.187   4.672   3.651  1.5058  1.3716 -0.7060
  745MOL0     H  513   6.276   4.815   3.669 -0.0270  0.5831  0.4011
  745MOL0     H  514   6.458   4.671   3.799  2.1828 -0.9228 -0.7143
  745MOL0     H  515   6.365   4.530   3.753 -1.7029  0.2684  0.6985
  745MOL0     H  516   6.544   4.566   3.586 -1.3349 -0.1921  0.1864
  745MOL0     H  517   6.386   4.620   3.506 -2.8736 -2.6471  1.9692
  745MOL0     H  518   6.452   4.845   3.526 -0.5385  0.0877  3.1249
  745MOL0     H  519   6.567   4.825   3.635  0.5536  0.4213 -1.5974
  745MOL0     H  520   6.727   4.710   3.510 -0.6386  0.3433  1.1645
  745MOL0     H  521   6.619   4.712   3.366  1.2749  0.4228 -0.6691
  745MOL0     H  522   6.622   4.965   3.371  0.3768 -1.0377 -1.4555
  745MOL0     H  523   6.705   4.962   3.523 -2.2431 -1.5349  0.4948
  745MOL0     H  524   6.836   5.042   3.324  3.4352 -0.2649  0.0638
  745MOL0     H  525   6.836   4.871   3.256  0.1006 -1.2910  0.0826
  745MOL0     H  526   7.042   5.092   3.434 -0.6647 -0.8449  2.2524
  745MOL0     H  527   7.347   4.915   3.437 -2.0669 -1.6535 -0.3191
  745MOL0     H  528   7.280   5.076   3.503 -0.0086  0.5393  0.7563
  745MOL0     H  529   7.339   4.821   3.673  0.2340  0.8402  0.6063
  745MOL0     H  530   7.235   4.962   3.712 -0.9391 -1.1206  0.0104
  745MOL0     H  531   7.436   5.002   3.815  3.0706 -0.4064  0.1890
  745MOL0     H  532   7.466   5.090   3.666  0.2969  0.2423  0.6804
  745MOL0     H  533   7.545   4.802   3.700 -2.0021  0.3710 -1.2478
  745MOL0     H  534   7.636   4.928   3.782  0.7264 -0.9428 -0.1086
  745MOL0     H  535   7.687   4.706   3.614  1.1722 -0.0786 -0.2908
  745MOL0     H  536   7.907   4.489   3.461  0.2303 -3.3029 -0.2020
  745MOL0     H  537   7.765   4.495   3.563  1.9514 -0.4710  0.2606
  745MOL0     H  538   7.751   4.429   3.400  0.8105  2.5803 -2.6495
  745MOL0     H  539   7.745   4.416   2.891  2.6853 -0.3839 -3.8340
  745MOL0     H  540   7.879   4.280   2.769 -3.6830  0.9182  1.2511
  745MOL0     H  541   7.968   3.976   2.803  0.1694 -1.1320 -0.9385
  745MOL0     H  542   7.993   4.092   2.674 -1.4610 -3.1913  0.1831
  745MOL0     H  543   8.255   4.018   2.729 -0.9243  1.9806 -4.1036
  745MOL0     H  544   8.175   3.881   2.800  4.2317  2.1602  2.1321
  745MOL0     H  545   8.076   3.836   2.554 -0.2776 -0.9647  0.3045
  745MOL0     H  546   8.249   3.834   2.568 -0.5461 -1.2448  1.7185
  745MOL0     H  547   8.061   4.053   2.462  0.2064 -0.6191  0.7377
  745MOL0     H  548   8.221   4.094   2.515  0.1021 -0.3255  1.5704
  745MOL0     H  549   8.158   3.890   2.296 -0.9666 -0.2432  2.3553
  745MOL0     H  550   8.319   3.921   2.366  0.7532  0.0521  0.2977
  745MOL0     H  551   8.150   4.115   2.187 -0.6028  0.7434 -1.0048
  745MOL0     H  552   8.294   4.169   2.286 -1.0971 -1.7717  1.9610
  745MOL0     H  553   8.428   4.002   2.169 -0.1894  2.0368  1.4685
  745MOL0     H  554   8.349   4.125   2.062 -2.4500  1.5432  1.4516
  745MOL0     H  555   8.187   3.965   1.983  1.9022  2.7228 -2.3272
  745MOL0     H  556   8.256   3.837   2.083 -0.6583 -2.6471 -4.1587
  745MOL0     H  557   8.116   4.160   3.123 -0.7051  1.1703  2.5357
  745MOL0     H  558   7.974   4.286   3.252 -1.3411 -2.1933  0.0982
  745MOL0     H  559   7.788   4.873   3.170 -0.3306  0.6426  0.3018
  745MOL0     H  560   7.718   5.017   3.338 -0.0965  0.6966  2.8129
  745MOL0     H  561   5.954   4.675   3.775 -0.2200  0.8632  0.0808
  745MOL0     H  562   5.721   4.604   3.817  1.7590 -1.9775 -2.8586
  745MOL0     H  563   5.504   4.267   4.158  1.6699 -0.8183 -2.3910
  745MOL0     H  564   5.304   4.130   4.204  1.6443 -0.6046 -1.7956
  745MOL0     H  565   5.180   3.949   4.151 -0.0832  1.0204  1.3843
  745MOL0     H  566   5.055   4.019   4.245 -0.7105 -3.8819  1.3874
  745MOL0     H  567   5.042   3.819   4.056  1.8436  0.7424  3.3494
  745MOL0     H  568   4.970   3.948   3.963 -1.8075 -0.9514  0.1116
  745MOL0     H  569   4.773   3.868   4.060 -1.4303  3.2650 -0.7042
  745MOL0     H  570   4.833   4.005   4.153 -1.6374 -0.1361  0.0279
  745MOL0     H  571   4.745   3.795   4.280  1.0005 -2.3861  0.7822
  745MOL0     H  572   4.919   3.833   4.334  3.3830  1.0968 -1.3472
  745MOL0     H  573   4.899   3.443   4.166  3.5675 -0.2203 -0.6925
  745MOL0     H  574   5.085   4.302   3.906 -0.6819 -3.4396  0.5026
  745MOL0     H  575   5.281   4.464   3.842 -0.9172  0.1684  0.4889
  746MOL0     O  576  10.303   6.737   2.982 -0.4584 -0.3747  0.5861
  746MOL0     C  577  10.322   6.854   2.961  0.6616  0.7262  0.4825
  746MOL0     O  578  10.239   6.936   2.897  0.1446  0.1191 -0.1890
  746MOL0     C  579  10.102   6.916   2.900 -0.2486 -0.9804  0.0535
  746MOL0     C  580  10.019   6.831   2.980 -0.3910  0.0522 -0.3008
  746MOL0     C  581   9.883   6.811   2.966 -0.5403  0.9876  0.4617
  746MOL0     C  582   9.813   6.891   2.871 -0.2482 -0.1524  0.4662
  746MOL0     O  583   9.682   6.882   2.850  0.2958 -0.1735 -0.5895
  746MOL0     C  584   9.633   6.846   2.720  0.1308  0.2294 -0.2196
  746MOL0     C  585   9.538   6.954   2.677  0.1682 -0.6762  0.2374
  746MOL0     C  586   9.470   6.918   2.545 -0.1449 -0.1013  0.5533
  746MOL0     C  587   9.334   6.987   2.525  0.8733  0.2957  0.4610
  746MOL0     C  588   9.336   7.140   2.535  0.0526  0.4415  0.7739
  746MOL0     C  589   9.201   7.203   2.508 -0.7027  0.3153  0.2511
  746MOL0     C  590   9.097   7.202   2.625 -0.3050 -0.0267 -0.4997
  746MOL0     C  591   8.988   7.290   2.582  0.6112  0.3827 -0.2705
  746MOL0     N  592   9.038   7.420   2.566  0.0507  0.8647  0.0081
  746MOL0     C  593   9.079   7.505   2.672  0.0650  0.5691 -0.4158
  746MOL0     C  594   9.114   7.618   2.602 -0.1074 -0.2074  0.7537
  746MOL0     C  595   9.177   7.743   2.662  0.2285 -0.5339 -0.1364
  746MOL0     C  596   9.314   7.769   2.610 -0.6663 -0.5605  0.2205
  746MOL0     C  597   9.423   7.666   2.635  0.5884  1.0952 -0.3887
  746MOL0     C  598   9.564   7.721   2.598 -0.0180  0.3190 -1.0298
  746MOL0     O  599   9.616   7.678   2.467 -0.0897 -0.0786 -0.1120
  746MOL0     C  600   9.743   7.713   2.430  0.4656  0.1329  0.7734
  746MOL0     C  601   9.841   7.781   2.504 -0.7940  1.4141 -0.1194
  746MOL0     C  602   9.965   7.822   2.458  0.3637  0.2603  0.7897
  746MOL0     C  603  10.054   7.896   2.554  1.4455  0.1809  0.0412
  746MOL0     C  604   9.999   7.789   2.319  0.7001  0.5676  0.1007
  746MOL0     C  605  10.134   7.798   2.259 -0.4135 -0.1487 -0.5374
  746MOL0     O  606  10.145   7.743   2.135 -0.6906  0.2152  0.2828
  746MOL0     C  607  10.266   7.749   2.068 -0.8847 -0.1941 -0.4840
  746MOL0     C  608  10.389   7.719   2.131 -0.0706 -0.1680 -0.6489
  746MOL0     C  609  10.509   7.723   2.063 -0.0982 -0.2643  0.2994
  746MOL0     C  610  10.520   7.738   1.927 -0.7770  0.4676 -0.1344
  746MOL0     O  611  10.642   7.757   1.875 -0.2666 -0.3845 -0.3189
  746MOL0     C  612  10.667   7.794   1.738  0.0717 -0.2660 -0.1432
  746MOL0     C  613  10.817   7.828   1.716  0.2134  1.1570  0.1877
  746MOL0     C  614  10.887   7.883   1.839  0.5844  0.4877  0.3077
  746MOL0     C  615  11.011   7.799   1.878 -0.0942  1.3482 -0.5061
  746MOL0     C  616  11.085   7.836   2.010 -0.2159 -0.3717 -0.7453
  746MOL0     C  617  11.006   7.847   2.148  0.5463  0.2133 -0.5046
  746MOL0     C  618  10.931   7.715   2.176  1.0865 -0.1243 -0.4814
  746MOL0     C  619  11.027   7.608   2.227 -0.1889  0.4058 -1.1011
  746MOL0    Cl  620  10.929   7.447   2.204 -0.1361  0.1824  0.4033
  746MOL0     C  621  10.406   7.770   1.851 -0.8412  0.0104 -1.0833
  746MOL0     C  622  10.280   7.777   1.931 -0.8374  0.0190 -0.5669
  746MOL0     O  623  10.227   7.859   2.322  0.4804  0.4387 -0.5248
  746MOL0     C  624   9.900   7.728   2.237  1.3035  0.3907  0.0197
  746MOL0     C  625   9.769   7.699   2.293 -1.1502  0.0693  0.2564
  746MOL0     N  626   9.095   7.611   2.467  0.4243  0.7405  0.7377
  746MOL0     N  627   9.054   7.487   2.451 -0.7090 -0.3528 -0.1742
  746MOL0     C  628   9.887   6.977   2.798  1.0532  0.5032  0.0932
  746MOL0     C  629  10.028   7.000   2.821 -0.1776  0.8629  0.2149
  746MOL0     C  630  10.459   6.896   2.999 -0.4030  0.1673  0.2914
  746MOL0     C  631  10.517   6.999   2.926  0.0693  0.8164 -0.1492
  746MOL0     C  632  10.645   7.047   2.939 -1.2808 -0.0376 -0.0190
  746MOL0     C  633  10.727   6.977   3.034 -0.0399 -0.4687 -0.7722
  746MOL0     O  634  10.855   7.006   3.067 -0.0282 -0.0971 -0.4094
  746MOL0     C  635  10.871   7.105   3.172  0.0651  0.0511 -0.1271
  746MOL0     C  636  10.972   7.206   3.131  0.0101  0.5731 -0.5162
  746MOL0     C  637  11.117   7.163   3.104 -0.2854  0.2382 -0.3697
  746MOL0     C  638  11.220   7.268   3.144 -0.1861 -0.4803  0.2579
  746MOL0     C  639  11.211   7.396   3.073  1.0829  1.6238 -0.3393
  746MOL0     C  640  11.217   7.508   3.029  0.6494  0.0136  0.6361
  746MOL0     C  641  10.666   6.877   3.114  0.8225 -0.5726 -0.1033
  746MOL0     C  642  10.541   6.835   3.092  0.5332  0.6146  0.2874
  746MOL0     H  643  10.059   6.764   3.055 -0.4738 -1.3481 -1.4545
  746MOL0     H  644   9.819   6.756   3.034  0.4255  1.1205  1.5112
  746MOL0     H  645   9.717   6.840   2.650 -0.1837 -0.1465 -0.5713
  746MOL0     H  646   9.578   6.752   2.731 -1.3254  0.8940 -1.3923
  746MOL0     H  647   9.468   6.968   2.759 -0.6330  0.9033 -0.6899
  746MOL0     H  648   9.584   7.051   2.657 -0.2472 -0.9350 -2.3506
  746MOL0     H  649   9.541   6.954   2.470 -1.9500  2.1628 -0.1986
  746MOL0     H  650   9.455   6.810   2.541 -1.1807  0.0610 -0.5005
  746MOL0     H  651   9.295   6.956   2.428  1.6814 -0.2839  0.3149
  746MOL0     H  652   9.273   6.954   2.610 -0.6379  1.9160  0.0668
  746MOL0     H  653   9.366   7.173   2.635  0.3892  0.9509  0.5014
  746MOL0     H  654   9.407   7.184   2.465 -0.4108 -4.5130 -3.4330
  746MOL0     H  655   9.219   7.302   2.465  0.1646  0.7404  1.5321
  746MOL0     H  656   9.146   7.153   2.427  0.5706  0.7135 -0.9052
  746MOL0     H  657   9.057   7.103   2.651 -0.4072 -0.6149 -2.6874
  746MOL0     H  658   9.143   7.239   2.717  0.6979  1.8579 -1.7009
  746MOL0     H  659   8.921   7.287   2.668  1.7914  1.1717  0.7114
  746MOL0     H  660   8.932   7.253   2.496  0.3820  1.0240 -0.3997
  746MOL0     H  661   9.076   7.477   2.776  3.4724 -2.8960 -1.0335
  746MOL0     H  662   9.114   7.832   2.653 -0.0378 -0.4942  1.7052
  746MOL0     H  663   9.187   7.720   2.769 -3.2727 -1.9840  0.0046
  746MOL0     H  664   9.354   7.863   2.648  1.6837 -0.6969 -1.6426
  746MOL0     H  665   9.316   7.781   2.501  0.4091 -3.1092 -0.1065
  746MOL0     H  666   9.403   7.576   2.576  3.3799 -2.7401  3.8022
  746MOL0     H  667   9.411   7.617   2.732  0.5120  2.1344  0.1513
  746MOL0     H  668   9.624   7.672   2.675 -1.8634  1.1178  1.0162
  746MOL0     H  669   9.580   7.826   2.623 -0.9072 -0.0531  1.3673
  746MOL0     H  670   9.822   7.809   2.607 -3.8072  0.5124 -0.3304
  746MOL0     H  671  10.153   7.849   2.561  1.7985  0.1405 -3.5254
  746MOL0     H  672  10.070   7.997   2.516  0.0558  0.7256  0.8119
  746MOL0     H  673  10.013   7.903   2.655  1.5602  3.6544 -0.0466
  746MOL0     H  674  10.396   7.701   2.238 -1.9856 -2.3892 -0.8050
  746MOL0     H  675  10.605   7.701   2.110 -1.1536 -2.8805  1.4252
  746MOL0     H  676  10.631   7.717   1.670 -1.2829  1.9550 -2.1097
  746MOL0     H  677  10.613   7.885   1.707  1.4358  0.8497  0.6517
  746MOL0     H  678  10.862   7.731   1.695  2.4381  2.6424 -2.5534
  746MOL0     H  679  10.840   7.895   1.633  2.0915 -0.9773 -1.1351
  746MOL0     H  680  10.820   7.894   1.925  1.1552 -1.9797  1.1624
  746MOL0     H  681  10.930   7.981   1.818  1.3630  0.3919  1.3541
  746MOL0     H  682  10.975   7.696   1.887  0.5317  1.2954  2.2633
  746MOL0     H  683  11.094   7.800   1.807 -0.4384 -1.0915 -1.0113
  746MOL0     H  684  11.118   7.940   2.004 -2.5619  0.4303 -0.9967
  746MOL0     H  685  11.165   7.763   2.023  0.1633  0.1761  0.0324
  746MOL0     H  686  11.079   7.853   2.229 -0.5887 -0.4890  0.6252
  746MOL0     H  687  10.938   7.933   2.158 -0.3240 -0.4526 -0.5704
  746MOL0     H  688  10.892   7.674   2.083  0.6301  2.5092 -1.5397
  746MOL0     H  689  10.840   7.725   2.235  1.3048 -2.5838  0.3925
  746MOL0     H  690  11.045   7.627   2.333 -0.3606 -2.4227 -0.4966
  746MOL0     H  691  11.126   7.605   2.182  0.9095  2.7694  0.9241
  746MOL0     H  692  10.417   7.790   1.745  2.4949  0.3635 -0.7545
  746MOL0     H  693  10.192   7.809   1.876 -0.2085  0.3113 -1.4169
  746MOL0     H  694   9.911   7.717   2.129 -2.6946 -0.3942 -0.4597
  746MOL0     H  695   9.685   7.671   2.230  0.0068  1.0814 -1.8081
  746MOL0     H  696   9.831   7.051   2.742  0.4455  0.2999  0.4139
  746MOL0     H  697  10.091   7.064   2.760  0.0965 -0.0732 -0.5076
  746MOL0     H  698  10.457   7.044   2.847 -2.4561 -0.8447  0.6736
  746MOL0     H  699  10.696   7.125   2.882 -0.4761  0.1875  0.9887
  746MOL0     H  700  10.776   7.150   3.203  1.0504  0.4451  2.5592
  746MOL0     H  701  10.909   7.047   3.257 -1.5551 -1.0645 -0.1070
  746MOL0     H  702  10.972   7.277   3.214 -0.3834  0.1271 -0.1254
  746MOL0     H  703  10.948   7.252   3.035  6.2012  2.0894 -1.7416
  746MOL0     H  704  11.136   7.141   2.998  2.2482  1.3776 -0.2304
  746MOL0     H  705  11.127   7.067   3.154 -0.9173  0.8840  1.0676
  746MOL0     H  706  11.322   7.228   3.137 -0.1147 -0.5647  1.4782
  746MOL0     H  707  11.209   7.283   3.252  0.2188 -3.8607  0.8851
  746MOL0     H  708  11.218   7.608   2.992 -3.4846  0.8966  2.3937
  746MOL0     H  709  10.708   6.828   3.201 -1.2266 -1.5031  0.4352
  746MOL0     H  710  10.499   6.751   3.147  1.4051 -0.0041  0.0210
  747MOL0     O  711  10.918  10.075   0.313  0.5272 -0.5768 -0.0400
  747MOL0     C  712  10.864   9.988   0.375 -0.1172  0.7250  0.2893
  747MOL0     O  713  10.908   9.938   0.489 -0.3865  0.2180 -0.1287
  747MOL0     C  714  11.023   9.985   0.548  1.0424 -0.3956  0.2052
  747MOL0     C  715  11.131  10.039   0.483 -0.5425  1.0378  0.9415
  747MOL0     C  716  11.247  10.063   0.557  0.3174 -0.5553 -0.0420
  747MOL0     C  717  11.267  10.038   0.692 -0.2616 -0.6128  0.5497
  747MOL0     O  718  11.378  10.075   0.762 -0.1468 -0.7058  0.3746
  747MOL0     C  719  11.496  10.108   0.694  0.0360 -0.3969 -0.3566
  747MOL0     C  720  11.616  10.091   0.783  0.0384  0.2165 -1.0148
  747MOL0     C  721  11.612  10.176   0.917  0.1264 -0.6827 -0.0804
  747MOL0     C  722  11.741  10.150   0.995 -1.2482  0.0650  0.3282
  747MOL0     C  723  11.724  10.183   1.143  0.7952 -0.1949  0.8708
  747MOL0     C  724  11.706  10.333   1.172  0.2440  0.1967  0.1334
  747MOL0     C  725  11.722  10.362   1.326 -0.8176  0.1370 -0.7269
  747MOL0     C  726  11.685  10.505   1.379 -0.5258 -0.2456  0.1029
  747MOL0     N  727  11.738  10.617   1.295  0.6276 -0.1718  0.4923
  747MOL0     C  728  11.648  10.700   1.231 -0.6926  0.8074  0.2829
  747MOL0     C  729  11.701  10.817   1.229  0.0415  0.1575  0.3865
  747MOL0     C  730  11.629  10.924   1.153 -0.4115  0.8352 -0.0695
  747MOL0     C  731  11.567  11.032   1.241  0.5992  0.5237  0.0777
  747MOL0     C  732  11.634  11.062   1.376 -0.3556  0.5091  0.2991
  747MOL0     C  733  11.771  11.126   1.375 -0.4980  0.9507  0.1855
  747MOL0     O  734  11.777  11.260   1.333  0.0097 -0.3251  0.3269
  747MOL0     C  735  11.861  11.298   1.233 -0.0117 -0.4779 -0.6349
  747MOL0     C  736  11.799  11.345   1.114  0.7702 -0.1770 -0.9391
  747MOL0     C  737  11.870  11.397   1.004  1.1271 -0.9780 -0.0878
  747MOL0     C  738  11.794  11.453   0.885  0.7237  0.1805  0.8490
  747MOL0     C  739  12.006  11.401   1.018 -0.4815  0.5629  1.9949
  747MOL0     C  740  12.106  11.466   0.915  0.2470  0.8047 -1.4091
  747MOL0     O  741  12.224  11.528   0.962  0.1362  0.9946 -0.5748
  747MOL0     C  742  12.316  11.541   0.862 -0.7953 -0.9942  0.0460
  747MOL0     C  743  12.308  11.631   0.756  0.4033  0.3750  0.4605
  747MOL0     C  744  12.416  11.661   0.672  0.2027 -0.1386 -0.1747
  747MOL0     C  745  12.537  11.587   0.677  0.6313 -0.1484 -0.0094
  747MOL0     O  746  12.637  11.605   0.586 -0.1201  0.8938  0.4395
  747MOL0     C  747  12.770  11.556   0.619 -0.1540 -0.7327  0.1000
  747MOL0     C  748  12.890  11.611   0.533  0.5035  0.0770 -0.4790
  747MOL0     C  749  12.907  11.764   0.544 -0.7681  0.0447 -0.7341
  747MOL0     C  750  13.005  11.824   0.446 -0.2397 -1.2763 -0.4782
  747MOL0     C  751  13.014  11.980   0.442  0.3412 -0.0991  0.1564
  747MOL0     C  752  13.123  12.026   0.348  0.1117  0.3751  0.9045
  747MOL0     C  753  13.152  12.170   0.366  0.4774  1.0556  0.1129
  747MOL0     C  754  13.217  12.227   0.245  0.9510 -0.5737 -0.0607
  747MOL0    Cl  755  13.379  12.153   0.247 -0.2342  0.1281  0.1730
  747MOL0     C  756  12.552  11.496   0.790  0.8669 -0.7218  0.4665
  747MOL0     C  757  12.443  11.483   0.884 -1.3250  0.3737  0.1119
  747MOL0     O  758  12.067  11.469   0.803  1.0724  0.0916  0.5186
  747MOL0     C  759  12.074  11.358   1.140  0.0610  0.8160  0.3997
  747MOL0     C  760  11.999  11.308   1.245  0.7069 -0.4283  0.4915
  747MOL0     N  761  11.816  10.807   1.300 -0.2551 -0.1114 -1.2804
  747MOL0     N  762  11.839  10.685   1.342  1.1697  0.6480  0.2812
  747MOL0     C  763  11.153   9.999   0.751  1.4074  0.9664 -0.4996
  747MOL0     C  764  11.028   9.981   0.688  0.0045  0.1887 -0.1960
  747MOL0     C  765  10.754   9.911   0.314  0.7613  0.5429  0.6657
  747MOL0     C  766  10.666   9.962   0.211  0.1870  0.5802  0.4620
  747MOL0     C  767  10.574   9.882   0.149  0.8838  1.1308 -0.6933
  747MOL0     C  768  10.574   9.739   0.179 -0.0513 -0.8153  0.0529
  747MOL0     O  769  10.497   9.647   0.120 -0.0488 -0.6202 -0.3260
  747MOL0     C  770  10.375   9.689   0.058 -0.4682  0.3128  0.6533
  747MOL0     C  771  10.326   9.573  -0.013  0.1271  0.5449  0.1755
  747MOL0     C  772  10.192   9.605  -0.092 -0.2109 -0.2434  0.2204
  747MOL0     C  773  10.126   9.483  -0.161 -0.0689  0.2664  0.5241
  747MOL0     C  774  10.026   9.542  -0.256  0.2113  0.7486 -0.2501
  747MOL0     C  775   9.937   9.596  -0.316  0.1849 -0.1382  0.6127
  747MOL0     C  776  10.650   9.693   0.280  0.4784 -0.6439  0.5627
  747MOL0     C  777  10.730   9.782   0.350 -0.2686  0.4881 -0.6581
  747MOL0     H  778  11.131  10.051   0.375 -2.3065 -1.7938  0.5433
  747MOL0     H  779  11.331  10.104   0.503  0.2242 -0.6636 -0.2705
  747MOL0     H  780  11.501  10.048   0.603 -1.5211 -0.7148 -0.2644
  747MOL0     H  781  11.495  10.213   0.663  0.6084 -0.5437 -0.9046
  747MOL0     H  782  11.613   9.986   0.814 -1.6456  0.6480  0.4534
  747MOL0     H  783  11.701  10.128   0.726  1.1344 -0.7951 -0.0882
  747MOL0     H  784  11.597  10.281   0.890 -0.3928 -1.1640 -1.7652
  747MOL0     H  785  11.531  10.151   0.987 -0.0916 -0.5934 -0.2986
  747MOL0     H  786  11.755  10.043   0.981  1.6170  0.4654 -0.4915
  747MOL0     H  787  11.826  10.192   0.940 -0.2907 -2.5798 -0.3239
  747MOL0     H  788  11.634  10.128   1.173 -0.2261 -1.0031 -3.0939
  747MOL0     H  789  11.808  10.149   1.204  2.3004 -0.3327 -1.1466
  747MOL0     H  790  11.791  10.385   1.126  1.7681 -1.1496  1.3179
  747MOL0     H  791  11.615  10.375   1.128 -0.0608  0.1081  0.6826
  747MOL0     H  792  11.670  10.281   1.378  2.4091 -0.7095  1.4214
  747MOL0     H  793  11.829  10.348   1.344 -1.1273  0.2335  1.4335
  747MOL0     H  794  11.713  10.526   1.483 -2.6838  1.3215  0.4317
  747MOL0     H  795  11.576  10.514   1.380 -0.5736 -0.7044  1.2701
  747MOL0     H  796  11.565  10.657   1.176  2.6647 -3.4561 -2.0399
  747MOL0     H  797  11.707  10.972   1.093  0.2904 -0.1786 -0.0045
  747MOL0     H  798  11.560  10.872   1.086  0.2261  0.7338 -0.6582
  747MOL0     H  799  11.467  10.997   1.269  0.2540 -0.3508 -2.0430
  747MOL0     H  800  11.541  11.128   1.196 -3.5350  0.2867  1.4583
  747MOL0     H  801  11.638  10.966   1.428  3.1650  0.0381 -0.5771
  747MOL0     H  802  11.571  11.130   1.434 -0.1539  0.4935  0.5407
  747MOL0     H  803  11.813  11.061   1.297 -2.3121 -2.5232  1.8610
  747MOL0     H  804  11.824  11.102   1.468 -1.8016 -0.5609  0.5795
  747MOL0     H  805  11.691  11.350   1.118  0.8026  0.3809 -0.6904
  747MOL0     H  806  11.819  11.403   0.791  2.1296 -0.5270  1.5655
  747MOL0     H  807  11.686  11.437   0.899  0.0330  0.4423 -3.1103
  747MOL0     H  808  11.801  11.561   0.869 -3.5189  0.3057 -1.6224
  747MOL0     H  809  12.220  11.695   0.748  0.5902  0.5945  0.1393
  747MOL0     H  810  12.412  11.737   0.595  3.4535 -1.0208 -1.3931
  747MOL0     H  811  12.798  11.591   0.719  1.7224  0.6544 -0.8465
  747MOL0     H  812  12.770  11.447   0.605  1.6427 -0.9129  1.2037
  747MOL0     H  813  12.981  11.569   0.576  0.7110  1.2182  0.2154
  747MOL0     H  814  12.880  11.589   0.426 -3.0204 -0.5442 -0.1465
  747MOL0     H  815  12.938  11.783   0.647  2.0392  2.9561 -1.9490
  747MOL0     H  816  12.814  11.822   0.538  0.2418  1.7786 -0.5331
  747MOL0     H  817  13.098  11.772   0.472 -0.9145 -2.4814 -0.3890
  747MOL0     H  818  12.978  11.787   0.346 -2.6052 -3.3440  0.8192
  747MOL0     H  819  13.036  12.017   0.543 -2.4015  1.6610  0.2023
  747MOL0     H  820  12.921  12.024   0.408 -0.2345 -0.5759  1.0671
  747MOL0     H  821  13.216  11.967   0.355  1.5724  1.8423 -3.2066
  747MOL0     H  822  13.084  12.007   0.248  1.0462  0.3567  0.5288
  747MOL0     H  823  13.209  12.187   0.458  0.5230  1.8189 -0.0471
  747MOL0     H  824  13.060  12.228   0.379  0.2751  2.2326 -4.7203
  747MOL0     H  825  13.233  12.335   0.253 -2.0067 -0.1098  0.5907
  747MOL0     H  826  13.166  12.199   0.152  2.3155 -0.4866 -0.8711
  747MOL0     H  827  12.640  11.438   0.817  3.3195  1.2934 -2.4251
  747MOL0     H  828  12.457  11.408   0.962 -0.6349 -1.4580 -1.6906
  747MOL0     H  829  12.181  11.368   1.149 -0.0562  2.4233  0.3120
  747MOL0     H  830  12.039  11.282   1.342  1.9386  1.2665  0.4837
  747MOL0     H  831  11.172   9.990   0.857 -0.5903 -0.0844 -0.1773
  747MOL0     H  832  10.943   9.953   0.749  0.0204  0.4535 -0.0523
  747MOL0     H  833  10.676  10.068   0.191  4.2190  0.2004 -0.2973
  747MOL0     H  834  10.506   9.920   0.074 -0.0114 -2.3332 -1.8276
  747MOL0     H  835  10.309   9.727   0.136 -2.0380 -1.4225  0.2315
  747MOL0     H  836  10.394   9.765  -0.019  0.3758  1.0535  1.5593
  747MOL0     H  837  10.322   9.498   0.067  4.1566  1.4399  1.4184
  747MOL0     H  838  10.399   9.547  -0.090  1.0037  0.8541  0.8931
  747MOL0     H  839  10.204   9.679  -0.172  1.2963 -0.9347 -0.2255
  747MOL0     H  840  10.123   9.642  -0.015 -2.3173  0.6758 -1.9717
  747MOL0     H  841  10.072   9.416  -0.093  1.2962 -0.9962  0.3935
  747MOL0     H  842  10.204   9.432  -0.217 -1.3348 -1.2122  0.0125
  747MOL0     H  843   9.858   9.625  -0.382  2.4583 -0.4168 -2.4621
  747MOL0     H  844  10.639   9.588   0.305 -0.4925 -0.8984 -0.8038
  747MOL0     H  845  10.804   9.733   0.412 -1.8739 -2.9844 -1.2491
  748MOL0     O  846   9.783   4.250   6.410  0.1848 -0.8726  0.0630
  748MOL0     C  847   9.881   4.182   6.390  0.0270 -0.8676 -0.4781
  748MOL0     O  848   9.950   4.112   6.491 -0.1724  0.5945  0.4743
  748MOL0     C  849   9.905   4.086   6.621  0.4335 -0.4231  0.1539
  748MOL0     C  850   9.986   4.106   6.729 -0.5420  0.2059  0.8073
  748MOL0     C  851   9.973   4.072   6.861  0.1939 -0.0719  0.2486
  748MOL0     C  852   9.849   4.013   6.891 -0.0682  0.1268  0.0902
  748MOL0     O  853   9.805   3.959   7.013  0.0965  0.5141  0.1914
  748MOL0     C  854   9.883   3.973   7.135  0.7538 -0.2046  0.2264
  748MOL0     C  855   9.781   3.985   7.249 -0.5078  0.1613  0.6499
  748MOL0     C  856   9.685   3.869   7.263  0.4234  0.2296  0.4952
  748MOL0     C  857   9.594   3.896   7.387 -0.4299  0.0804  0.4347
  748MOL0     C  858   9.524   3.765   7.418 -0.2646 -0.7883 -0.4803
  748MOL0     C  859   9.397   3.790   7.494  0.4767 -0.2975  0.4444
  748MOL0     C  860   9.350   3.655   7.561  0.5944  0.4544  0.4533
  748MOL0     C  861   9.249   3.671   7.679 -0.1151 -0.1357 -0.0745
  748MOL0     N  862   9.321   3.725   7.798 -0.0688  0.4271  0.0299
  748MOL0     C  863   9.282   3.824   7.880  0.3546 -0.5124  0.7957
  748MOL0     C  864   9.386   3.844   7.971  0.7104 -0.2012 -0.7503
  748MOL0     C  865   9.373   3.934   8.095 -0.4298  0.9968  0.2602
  748MOL0     C  866   9.506   4.007   8.131  0.9823 -0.3770  0.8232
  748MOL0     C  867   9.488   4.131   8.225  0.8536  0.9127 -0.3427
  748MOL0     C  868   9.461   4.091   8.371 -0.0263 -0.2055  0.1349
  748MOL0     O  869   9.503   4.205   8.459 -0.2587 -0.3684  0.2379
  748MOL0     C  870   9.389   4.278   8.485 -0.3155 -0.0844  0.6455
  748MOL0     C  871   9.354   4.372   8.396 -1.4798 -0.2013 -0.0140
  748MOL0     C  872   9.245   4.455   8.421 -0.0508 -0.1750 -0.5333
  748MOL0     C  873   9.215   4.552   8.304  0.2271 -0.0191 -0.3025
  748MOL0     C  874   9.165   4.448   8.542 -0.2498 -0.2640  0.5891
  748MOL0     C  875   9.054   4.533   8.580 -0.0695  0.7233  0.6169
  748MOL0     O  876   8.989   4.590   8.480 -0.3232 -0.1423  0.3713
  748MOL0     C  877   8.897   4.691   8.500  0.7081  0.2375  0.8645
  748MOL0     C  878   8.895   4.780   8.391  0.0643 -0.6508 -0.0848
  748MOL0     C  879   8.799   4.884   8.378 -0.4591 -0.1993  0.6739
  748MOL0     C  880   8.694   4.883   8.466 -0.7556  0.3724  0.1678
  748MOL0     O  881   8.593   4.962   8.428 -0.0677  0.2291 -0.3598
  748MOL0     C  882   8.512   5.002   8.534 -0.3571 -0.1724  1.1267
  748MOL0     C  883   8.404   5.088   8.463 -0.2491  0.3482  0.3411
  748MOL0     C  884   8.302   5.150   8.565 -0.0090 -0.4009 -0.3622
  748MOL0     C  885   8.190   5.046   8.583 -1.0538  0.0345 -0.1189
  748MOL0     C  886   8.077   5.097   8.665  0.5489 -0.4141 -1.2279
  748MOL0     C  887   8.085   5.081   8.821 -0.0660  0.2922 -0.0898
  748MOL0     C  888   8.074   4.928   8.873  0.1009 -0.6067  0.2340
  748MOL0     C  889   8.083   4.935   9.022 -0.1129  0.0456 -0.3830
  748MOL0    Cl  890   8.075   4.770   9.104  0.3802  0.1559  0.1344
  748MOL0     C  891   8.697   4.799   8.585 -0.2691 -0.2238  0.2805
  748MOL0     C  892   8.795   4.704   8.598  0.4035  0.4575  0.3706
  748MOL0     O  893   9.033   4.546   8.697 -0.6644  0.4561 -0.5865
  748MOL0     C  894   9.207   4.342   8.635  0.3468 -0.4158  0.1613
  748MOL0     C  895   9.312   4.259   8.599  0.6483  0.2193 -1.1485
  748MOL0     N  896   9.476   3.740   7.959  0.3423  0.1073  0.6963
  748MOL0     N  897   9.445   3.673   7.849  0.6286  0.4635  0.4775
  748MOL0     C  898   9.749   4.004   6.786 -0.5928  0.2186  0.1855
  748MOL0     C  899   9.774   4.026   6.650 -0.0521 -0.2756 -0.1421
  748MOL0     C  900   9.940   4.192   6.255 -0.5842  1.5392 -0.4062
  748MOL0     C  901  10.047   4.098   6.230 -0.4826 -0.0304 -0.1155
  748MOL0     C  902  10.118   4.107   6.114  0.6557 -1.2004  1.4733
  748MOL0     C  903  10.078   4.207   6.018  0.7189 -1.0105  0.0922
  748MOL0     O  904  10.151   4.212   5.897  0.7342  0.4915 -0.2558
  748MOL0     C  905  10.140   4.331   5.814 -0.3425  0.8142 -0.0375
  748MOL0     C  906  10.213   4.307   5.684 -1.0958 -0.2540  0.6179
  748MOL0     C  907  10.244   4.447   5.612 -0.5584  0.4664  0.5444
  748MOL0     C  908  10.360   4.518   5.684 -0.8419 -0.9054 -0.1359
  748MOL0     C  909  10.487   4.447   5.682 -0.8664  0.4793  1.1019
  748MOL0     C  910  10.586   4.385   5.679 -0.5392 -0.1790  0.6260
  748MOL0     C  911   9.972   4.295   6.048 -0.9685 -0.4288  0.1733
  748MOL0     C  912   9.905   4.286   6.169 -0.2348  0.2054  1.5266
  748MOL0     H  913  10.083   4.141   6.695  0.1923 -1.8470  0.6920
  748MOL0     H  914  10.050   4.084   6.936  3.1014 -3.4757 -1.8532
  748MOL0     H  915   9.950   3.889   7.154 -0.6751 -1.3773  0.2479
  748MOL0     H  916   9.943   4.064   7.136 -1.0794  1.1232  3.0922
  748MOL0     H  917   9.834   3.990   7.344 -1.0006 -1.5431  1.0442
  748MOL0     H  918   9.727   4.080   7.244 -1.3822 -0.3650 -0.6682
  748MOL0     H  919   9.629   3.860   7.169 -2.4726 -1.1401  2.2007
  748MOL0     H  920   9.736   3.773   7.276  2.7842  0.7717 -3.1689
  748MOL0     H  921   9.656   3.934   7.468  2.9118  0.6528 -2.1494
  748MOL0     H  922   9.519   3.971   7.361 -2.0526 -1.8584 -0.8212
  748MOL0     H  923   9.493   3.703   7.333 -0.7846 -2.3214  0.7694
  748MOL0     H  924   9.598   3.712   7.479  0.3983  0.1292 -0.4749
  748MOL0     H  925   9.416   3.861   7.575  3.2642 -1.5325  0.9871
  748MOL0     H  926   9.324   3.830   7.423  1.6185 -0.0043 -0.6006
  748MOL0     H  927   9.311   3.590   7.483  0.6305 -0.3726  1.1126
  748MOL0     H  928   9.435   3.609   7.611  1.4033  2.5378  1.1270
  748MOL0     H  929   9.205   3.573   7.699  0.0681 -0.0715  0.7056
  748MOL0     H  930   9.159   3.731   7.663 -1.4994 -2.1738 -0.2936
  748MOL0     H  931   9.194   3.884   7.860  1.3759  0.9224  0.4840
  748MOL0     H  932   9.289   4.001   8.078 -2.1697 -1.5588 -2.0232
  748MOL0     H  933   9.342   3.866   8.175 -2.1767  0.1890 -1.0473
  748MOL0     H  934   9.546   4.041   8.035  1.9139  0.2783  1.4302
  748MOL0     H  935   9.583   3.940   8.170  0.4690 -1.6215 -0.1903
  748MOL0     H  936   9.404   4.194   8.196 -0.4274 -0.3899  0.4173
  748MOL0     H  937   9.582   4.186   8.212  0.0642  2.2438 -0.6186
  748MOL0     H  938   9.523   4.004   8.392  0.2409  0.1214  0.7207
  748MOL0     H  939   9.358   4.057   8.388 -0.0998 -0.1891 -0.2570
  748MOL0     H  940   9.419   4.378   8.309 -1.8244 -1.7766 -0.4053
  748MOL0     H  941   9.159   4.635   8.347 -0.3972 -0.1253 -0.9023
  748MOL0     H  942   9.300   4.596   8.251 -1.0708  0.3997 -2.1211
  748MOL0     H  943   9.144   4.507   8.234 -0.6993 -0.0144  0.6014
  748MOL0     H  944   8.982   4.766   8.328  2.4127 -0.3095  2.8356
  748MOL0     H  945   8.788   4.945   8.289 -3.0850  2.7335  2.8048
  748MOL0     H  946   8.459   4.922   8.587  1.4311 -1.3973  1.1620
  748MOL0     H  947   8.577   5.060   8.600 -2.3064  1.5339  1.6579
  748MOL0     H  948   8.441   5.175   8.407  0.2401  0.8521  1.4150
  748MOL0     H  949   8.348   5.038   8.384 -0.0592 -1.2198  1.1687
  748MOL0     H  950   8.257   5.234   8.511  2.0840 -0.1273 -1.7996
  748MOL0     H  951   8.356   5.184   8.654 -0.8462 -3.1988  1.3388
  748MOL0     H  952   8.155   5.009   8.486 -0.4280 -0.7962 -0.0456
  748MOL0     H  953   8.225   4.955   8.633  0.3775 -0.3473 -1.7093
  748MOL0     H  954   7.991   5.034   8.641  1.1989 -2.5398  1.4458
  748MOL0     H  955   8.057   5.201   8.641  1.3537 -0.0628 -0.4221
  748MOL0     H  956   8.169   5.126   8.875  0.1914 -0.9353  0.5748
  748MOL0     H  957   7.991   5.121   8.859  0.4106  2.5206 -1.0450
  748MOL0     H  958   8.161   4.879   8.830 -1.1593 -1.9683 -0.8889
  748MOL0     H  959   7.980   4.882   8.839  1.4988 -1.7347 -2.4145
  748MOL0     H  960   7.997   4.999   9.048  0.5459  0.9649 -0.4305
  748MOL0     H  961   8.176   4.982   9.055 -1.5391  0.8844  2.8247
  748MOL0     H  962   8.628   4.798   8.669 -0.2445 -0.9132  0.3027
  748MOL0     H  963   8.781   4.625   8.671 -0.8975 -1.8145 -2.1430
  748MOL0     H  964   9.155   4.321   8.728 -1.3133 -0.8800 -0.8147
  748MOL0     H  965   9.328   4.188   8.680  0.7417 -2.5981 -3.4739
  748MOL0     H  966   9.655   3.959   6.814  0.2696 -1.4303  0.5719
  748MOL0     H  967   9.699   3.996   6.579 -0.6314 -2.0876  1.1533
  748MOL0     H  968  10.074   4.019   6.300 -0.4307 -1.6892 -1.9360
  748MOL0     H  969  10.188   4.027   6.093  3.2775  1.8988 -3.2737
  748MOL0     H  970  10.036   4.344   5.783 -0.5354 -0.4814 -0.0098
  748MOL0     H  971  10.179   4.423   5.857  1.4782 -0.3763  0.9972
  748MOL0     H  972  10.168   4.245   5.606  3.2512 -1.3150 -1.3834
  748MOL0     H  973  10.305   4.253   5.711 -3.1740 -2.9300  3.0640
  748MOL0     H  974  10.154   4.510   5.613 -0.5932  0.7027 -3.1618
  748MOL0     H  975  10.273   4.429   5.508 -0.3238 -1.4219  0.9117
  748MOL0     H  976  10.342   4.558   5.784  1.9971  0.4206 -0.0352
  748MOL0     H  977  10.373   4.612   5.630  0.2504 -2.0157 -1.9159
  748MOL0     H  978  10.684   4.342   5.680 -0.9150 -1.1247  2.9049
  748MOL0     H  979   9.958   4.381   5.983 -0.5559 -0.7238 -0.3211
  748MOL0     H  980   9.829   4.361   6.192  0.7138  1.6669  0.1074
  749MOL0     O  981   1.436  10.305   2.223  0.0466 -0.4869 -0.1619
  749MOL0     C  982   1.481  10.325   2.333  0.3050  0.3185 -0.7111
  749MOL0     O  983   1.592  10.269   2.389 -0.5673 -0.2147 -1.0207
  749MOL0     C  984   1.681  10.192   2.320 -0.6583  0.4006 -0.4290
  749MOL0     C  985   1.744  10.081   2.389  0.2059  0.1875  0.4072
  749MOL0     C  986   1.847  10.005   2.325 -0.2356  0.8346  0.4893
  749MOL0     C  987   1.897  10.033   2.201 -0.1348  0.4912  0.2082
  749MOL0     O  988   2.006   9.964   2.147  0.8961 -0.3597 -0.5345
  749MOL0     C  989   2.058   9.995   2.017 -0.1271  1.0930  0.0297
  749MOL0     C  990   2.049   9.857   1.940 -0.6617 -0.4183 -0.1062
  749MOL0     C  991   1.908   9.821   1.886  0.9445 -0.4195  0.3802
  749MOL0     C  992   1.907   9.686   1.811  1.0969 -0.5170  0.6705
  749MOL0     C  993   1.812   9.681   1.688  1.4851  0.7978 -0.5679
  749MOL0     C  994   1.870   9.758   1.571  0.3602  0.0759 -0.2136
  749MOL0     C  995   1.779   9.752   1.442  0.5877 -0.4228 -1.0500
  749MOL0     C  996   1.855   9.818   1.329 -0.0720  0.2670 -0.6903
  749MOL0     N  997   1.771   9.908   1.250 -0.1359 -0.3951 -0.9863
  749MOL0     C  998   1.782  10.043   1.247 -0.2955  0.0559  0.2241
  749MOL0     C  999   1.691  10.082   1.151 -0.4624  0.0806  0.3769
  749MOL0     C 1000   1.659  10.218   1.095 -0.3469  0.7224 -0.4937
  749MOL0     C 1001   1.741  10.252   0.979  0.2411  0.5848 -0.4325
  749MOL0     C 1002   1.854  10.358   1.024  0.6236  0.5892  1.2517
  749MOL0     C 1003   1.933  10.394   0.905 -0.3353 -0.5455  0.6214
  749MOL0     O 1004   2.032  10.290   0.885 -0.1544 -0.0739  0.2281
  749MOL0     C 1005   2.167  10.314   0.911 -0.1390  0.3017  0.6022
  749MOL0     C 1006   2.214  10.409   1.008 -0.8315 -0.3762  0.3650
  749MOL0     C 1007   2.354  10.428   1.035 -0.3787 -1.1678 -0.0034
  749MOL0     C 1008   2.393  10.508   1.148 -0.7514 -0.0539 -0.3843
  749MOL0     C 1009   2.446  10.359   0.947  0.0769  0.2375 -0.5092
  749MOL0     C 1010   2.588  10.386   0.953 -1.3274  1.4849  0.1024
  749MOL0     O 1011   2.673  10.275   0.953  0.6100 -0.1792  0.0118
  749MOL0     C 1012   2.806  10.279   0.934 -0.3952 -0.4846 -0.6579
  749MOL0     C 1013   2.870  10.375   0.863 -0.2409 -0.4689 -0.1963
  749MOL0     C 1014   3.011  10.354   0.833 -0.3100  0.2249 -1.1712
  749MOL0     C 1015   3.085  10.255   0.886  0.5453 -0.0909  0.4507
  749MOL0     O 1016   3.217  10.256   0.861  0.5301 -0.3684 -0.4296
  749MOL0     C 1017   3.301  10.156   0.912 -0.6187 -0.0085 -0.1745
  749MOL0     C 1018   3.442  10.189   0.863 -0.7880  0.3653 -0.8518
  749MOL0     C 1019   3.503  10.312   0.935 -0.4341 -0.2761  0.3176
  749MOL0     C 1020   3.652  10.333   0.890  0.5644  0.4840 -0.0709
  749MOL0     C 1021   3.735  10.215   0.952 -0.1358  0.0955  0.0446
  749MOL0     C 1022   3.888  10.235   0.912  0.3470  0.5247 -0.0841
  749MOL0     C 1023   3.982  10.136   0.984 -0.4717 -0.1104 -0.1981
  749MOL0     C 1024   4.120  10.187   1.009  0.3608 -0.5425  0.7207
  749MOL0    Cl 1025   4.168  10.254   0.850 -0.0075 -0.5597  0.0717
  749MOL0     C 1026   3.017  10.152   0.948 -0.0486 -0.4776 -0.5343
  749MOL0     C 1027   2.877  10.163   0.969  0.0010  0.2049 -0.2068
  749MOL0     O 1028   2.628  10.500   0.966 -0.3433 -0.4178  0.1573
  749MOL0     C 1029   2.396  10.264   0.862  0.1244  0.3543 -0.4551
  749MOL0     C 1030   2.262  10.246   0.843  0.1509  0.9534 -0.9354
  749MOL0     N 1031   1.633   9.964   1.101 -0.3301 -1.4139  0.3899
  749MOL0     N 1032   1.681   9.867   1.161 -0.6302 -0.0357  1.2786
  749MOL0     C 1033   1.838  10.148   2.139  0.4489  0.5715 -0.1709
  749MOL0     C 1034   1.727  10.221   2.197 -0.3569  0.1682 -0.4250
  749MOL0     C 1035   1.392  10.400   2.420 -0.1418 -0.8640 -0.8919
  749MOL0     C 1036   1.423  10.429   2.553  0.2305 -0.1784 -0.3823
  749MOL0     C 1037   1.339  10.514   2.635 -0.4456 -0.6068 -0.2478
  749MOL0     C 1038   1.218  10.555   2.582 -0.0574  1.2791 -0.0779
  749MOL0     O 1039   1.115  10.604   2.653 -0.0821 -0.0819  0.5821
  749MOL0     C 1040   1.117  10.656   2.789 -0.2635  0.8221  0.8818
  749MOL0     C 1041   1.181  10.790   2.804 -1.0311 -0.6084 -0.0377
  749MOL0     C 1042   1.181  10.814   2.955  0.2908  0.1044  0.7012
  749MOL0     C 1043   1.239  10.944   3.000 -0.6112  0.3359 -1.1019
  749MOL0     C 1044   1.388  10.952   2.980 -0.1736  1.0708  0.2741
  749MOL0     C 1045   1.508  10.934   2.959  0.2093 -0.1095  0.0614
  749MOL0     C 1046   1.179  10.511   2.460  0.7067  0.2787  0.3594
  749MOL0     C 1047   1.266  10.446   2.375  0.7263  0.6973 -0.3435
  749MOL0     H 1048   1.715  10.058   2.491 -0.5437  0.3103  0.2292
  749MOL0     H 1049   1.895   9.921   2.375  3.3791  2.9460  0.8849
  749MOL0     H 1050   2.006  10.065   1.952  1.3015 -1.2869 -4.0328
  749MOL0     H 1051   2.165  10.015   2.027  0.3211  0.2376 -2.3843
  749MOL0     H 1052   2.112   9.870   1.851  2.0408 -1.4415  1.5379
  749MOL0     H 1053   2.095   9.777   1.998  0.1612 -0.0253 -0.2065
  749MOL0     H 1054   1.838   9.822   1.971  4.4459  1.3362  3.5621
  749MOL0     H 1055   1.873   9.897   1.816  0.6990 -1.8753 -1.1430
  749MOL0     H 1056   2.014   9.668   1.795  1.7483  3.5444 -0.7528
  749MOL0     H 1057   1.864   9.623   1.890 -1.5530  0.4653  0.1150
  749MOL0     H 1058   1.789   9.578   1.663 -0.2977  1.2103 -0.7772
  749MOL0     H 1059   1.717   9.727   1.718  1.9148  3.7024 -3.1495
  749MOL0     H 1060   1.867   9.865   1.597 -0.3059 -0.4298  1.9907
  749MOL0     H 1061   1.970   9.717   1.556  0.3115 -0.6861  1.3648
  749MOL0     H 1062   1.759   9.648   1.414 -1.2348  0.6029 -4.0252
  749MOL0     H 1063   1.685   9.803   1.466  0.8768 -0.2890 -0.1804
  749MOL0     H 1064   1.907   9.738   1.276  2.0695 -0.6197  2.4795
  749MOL0     H 1065   1.933   9.877   1.378  0.5064  0.7020 -2.1087
  749MOL0     H 1066   1.847  10.107   1.307  3.3037 -0.8492 -2.3616
  749MOL0     H 1067   1.553  10.215   1.066 -0.4785  2.0620 -0.2397
  749MOL0     H 1068   1.644  10.293   1.174  0.9252  0.2232  0.2460
  749MOL0     H 1069   1.671  10.298   0.908  0.4854  2.3178  0.3801
  749MOL0     H 1070   1.794  10.169   0.931  0.5678  1.4082 -1.5335
  749MOL0     H 1071   1.925  10.327   1.101  0.8277  1.6832  1.5199
  749MOL0     H 1072   1.797  10.447   1.053 -0.8636 -1.3865  4.9798
  749MOL0     H 1073   1.981  10.489   0.930  0.9573 -1.0811  0.2585
  749MOL0     H 1074   1.874  10.415   0.815  0.6061 -1.7941 -0.3255
  749MOL0     H 1075   2.140  10.462   1.067 -0.8591 -1.7684  1.6180
  749MOL0     H 1076   2.495  10.509   1.188 -1.4353 -0.0286  1.4428
  749MOL0     H 1077   2.362  10.611   1.130 -1.4965 -0.0668  0.7415
  749MOL0     H 1078   2.351  10.471   1.242  1.5551  1.2705  1.2792
  749MOL0     H 1079   2.823  10.462   0.818 -3.3038 -0.5776  2.4605
  749MOL0     H 1080   3.069  10.434   0.788  1.8904  0.2300  1.4609
  749MOL0     H 1081   3.294  10.152   1.022 -3.0097 -0.1563 -0.2791
  749MOL0     H 1082   3.269  10.061   0.870  2.2929 -0.7193 -1.0617
  749MOL0     H 1083   3.500  10.098   0.882 -0.9228  0.8121  2.0592
  749MOL0     H 1084   3.454  10.203   0.755  2.8782 -0.3156 -0.6574
  749MOL0     H 1085   3.482  10.316   1.042  1.5765  0.2926  0.7289
  749MOL0     H 1086   3.452  10.397   0.889 -0.3358 -2.2076 -3.8736
  749MOL0     H 1087   3.675  10.334   0.784  0.3842 -0.7275 -0.1298
  749MOL0     H 1088   3.684  10.423   0.943 -0.8964 -1.1762  4.0473
  749MOL0     H 1089   3.706  10.117   0.915  1.0869 -0.0626 -0.5622
  749MOL0     H 1090   3.735  10.212   1.062  0.7924 -0.7407  0.0325
  749MOL0     H 1091   3.894  10.207   0.806 -2.0113 -1.8720  0.3175
  749MOL0     H 1092   3.919  10.339   0.921  0.5792  0.9137 -3.8770
  749MOL0     H 1093   3.991  10.040   0.932  2.7375  0.2322 -0.4776
  749MOL0     H 1094   3.940  10.119   1.084  1.1343  0.6356  0.6427
  749MOL0     H 1095   4.186  10.109   1.048  0.0832 -0.3217  1.6573
  749MOL0     H 1096   4.117  10.268   1.082  0.3167  0.3289 -0.2275
  749MOL0     H 1097   3.079  10.068   0.979  1.0874  0.5599  0.1512
  749MOL0     H 1098   2.812  10.090   1.015 -0.7045  1.8658  1.5747
  749MOL0     H 1099   2.464  10.205   0.801  3.5384  1.1811  2.1890
  749MOL0     H 1100   2.225  10.178   0.767 -1.4552  0.3611  0.3209
  749MOL0     H 1101   1.867  10.189   2.043 -0.0784  0.4646 -0.3813
  749MOL0     H 1102   1.686  10.300   2.135  0.7292 -0.0961 -1.5317
  749MOL0     H 1103   1.514  10.392   2.598 -0.1832 -1.0069 -0.2045
  749MOL0     H 1104   1.362  10.543   2.737  0.1776 -0.2645 -0.4781
  749MOL0     H 1105   1.024  10.639   2.845 -1.7531  0.4891 -1.5422
  749MOL0     H 1106   1.172  10.584   2.850  0.1270  1.7051  1.5956
  749MOL0     H 1107   1.122  10.876   2.770 -0.1636  0.9919  2.2673
  749MOL0     H 1108   1.281  10.789   2.760  0.1209 -0.0101  2.4055
  749MOL0     H 1109   1.219  10.727   3.008 -0.1902  0.0628  0.9822
  749MOL0     H 1110   1.086  10.803   3.008 -0.5979  1.9801 -0.3615
  749MOL0     H 1111   1.230  10.940   3.109 -0.8375  0.9034 -1.1005
  749MOL0     H 1112   1.188  11.030   2.956  0.4002  1.3614 -0.3079
  749MOL0     H 1113   1.615  10.937   2.946 -0.0521 -1.1392 -3.1607
  749MOL0     H 1114   1.083  10.541   2.419 -1.5584 -3.4500  2.4300
  749MOL0     H 1115   1.224  10.429   2.276 -2.5672 -4.7862  1.5533
  750MOL0     O 1116   8.274   2.822   9.422 -0.9401 -0.2941  0.4320
  750MOL0     C 1117   8.379   2.876   9.375  0.6337  0.2320  0.6870
  750MOL0     O 1118   8.448   2.970   9.432  0.1974  0.1614 -0.4903
  750MOL0     C 1119   8.411   3.016   9.558  0.3297 -0.2028  0.4558
  750MOL0     C 1120   8.508   3.055   9.652 -0.9922  0.1574 -0.6899
  750MOL0     C 1121   8.472   3.126   9.764  0.2261  0.5902  0.4675
  750MOL0     C 1122   8.346   3.190   9.770  0.8338  1.0976  0.1188
  750MOL0     O 1123   8.328   3.259   9.882  0.1761 -0.2883 -0.6558
  750MOL0     C 1124   8.205   3.327   9.926  0.5646 -0.7970  0.5671
  750MOL0     C 1125   8.191   3.325  10.084  0.6293  0.7880 -0.5424
  750MOL0     C 1126   8.082   3.410  10.129  0.2111  0.9505 -1.3756
  750MOL0     C 1127   8.081   3.414  10.284 -0.5332 -0.1445  0.2940
  750MOL0     C 1128   8.207   3.487  10.333 -0.4368  0.5615  0.3107
  750MOL0     C 1129   8.298   3.374  10.393  0.5214 -0.3986 -0.3185
  750MOL0     C 1130   8.411   3.441  10.465  0.1297 -0.0292  0.0313
  750MOL0     C 1131   8.531   3.485  10.389 -0.1897  0.2180 -0.1954
  750MOL0     N 1132   8.595   3.372  10.318  0.4697 -0.0362 -0.3053
  750MOL0     C 1133   8.607   3.366  10.180 -0.6943  0.0704  0.2358
  750MOL0     C 1134   8.701   3.274  10.168  0.5312 -0.6380  0.1599
  750MOL0     C 1135   8.779   3.254  10.042 -0.8779  0.0448 -0.5675
  750MOL0     C 1136   8.780   3.109   9.999  0.5309 -0.5919 -0.6083
  750MOL0     C 1137   8.886   3.025  10.058  0.0061 -0.6789  0.9943
  750MOL0     C 1138   8.865   2.885  10.019 -0.3128  0.1318  0.1820
  750MOL0     O 1139   8.981   2.807  10.062  0.0406 -0.1992 -0.4797
  750MOL0     C 1140   9.089   2.830   9.983 -0.8712 -0.4319  0.2219
  750MOL0     C 1141   9.210   2.888  10.032  0.4826  0.2932  0.9439
  750MOL0     C 1142   9.325   2.881   9.962 -0.7802  0.7297  0.3474
  750MOL0     C 1143   9.453   2.925  10.020 -0.5330  0.3560 -0.7700
  750MOL0     C 1144   9.329   2.832   9.823 -0.0392 -0.2505  0.2558
  750MOL0     C 1145   9.453   2.812   9.749 -0.4160  0.3952  0.2221
  750MOL0     O 1146   9.553   2.741   9.803 -0.0822  0.0045  0.3344
  750MOL0     C 1147   9.672   2.716   9.726  0.5647 -0.0587 -0.3036
  750MOL0     C 1148   9.796   2.748   9.784  0.5124  0.5917 -0.8690
  750MOL0     C 1149   9.915   2.726   9.715 -0.4719 -0.0078  0.2328
  750MOL0     C 1150   9.913   2.694   9.580 -0.5824 -0.3364  0.6973
  750MOL0     O 1151  10.025   2.674   9.503 -0.5148 -1.2348  0.4035
  750MOL0     C 1152  10.144   2.613   9.555 -0.1213 -0.2727 -0.7000
  750MOL0     C 1153  10.233   2.574   9.439  0.1347  0.5349  0.5325
  750MOL0     C 1154  10.169   2.465   9.342 -0.0932 -0.2500  0.7288
  750MOL0     C 1155  10.262   2.413   9.233 -0.2660 -0.3396  0.1417
  750MOL0     C 1156  10.191   2.301   9.147  0.2191  0.7964 -0.7542
  750MOL0     C 1157  10.086   2.362   9.059 -0.1409  0.5135 -0.0965
  750MOL0     C 1158   9.999   2.251   8.996 -0.1034 -0.0416  0.5418
  750MOL0     C 1159  10.049   2.176   8.882 -0.6144  0.2640 -0.4032
  750MOL0    Cl 1160  10.099   2.271   8.732  0.2377 -0.1018  0.0404
  750MOL0     C 1161   9.789   2.658   9.527 -0.0169 -0.6295  1.0892
  750MOL0     C 1162   9.666   2.664   9.588 -0.0634 -0.6583  0.1651
  750MOL0     O 1163   9.453   2.852   9.635 -0.7403 -0.2518  0.6299
  750MOL0     C 1164   9.205   2.793   9.766  0.0087  0.7223 -0.7671
  750MOL0     C 1165   9.096   2.792   9.848  0.8373  0.4080 -0.1000
  750MOL0     N 1166   8.724   3.210  10.280 -0.3875 -0.8578 -0.1004
  750MOL0     N 1167   8.661   3.268  10.371 -0.6006  0.2360 -0.2280
  750MOL0     C 1168   8.249   3.160   9.672 -0.4191 -1.2237  0.0128
  750MOL0     C 1169   8.286   3.070   9.566  0.6373  0.1973 -0.8550
  750MOL0     C 1170   8.438   2.825   9.245 -0.0922  0.2214  0.3008
  750MOL0     C 1171   8.555   2.870   9.186  0.5420  0.3284 -0.5502
  750MOL0     C 1172   8.596   2.843   9.050 -0.3701  0.3552  0.1445
  750MOL0     C 1173   8.520   2.756   8.981  0.4233  0.4188  0.0567
  750MOL0     O 1174   8.532   2.703   8.854 -0.0554 -0.0288 -0.4924
  750MOL0     C 1175   8.608   2.789   8.764  0.3336 -0.8743 -0.2969
  750MOL0     C 1176   8.754   2.753   8.750  1.0457  0.1683 -0.2497
  750MOL0     C 1177   8.777   2.611   8.686  0.3859 -0.2439 -0.3997
  750MOL0     C 1178   8.777   2.607   8.532 -0.4433 -0.2631 -0.4569
  750MOL0     C 1179   8.750   2.473   8.482 -0.3624 -0.6791 -0.5610
  750MOL0     C 1180   8.728   2.352   8.469 -0.4794  0.0496 -0.0907
  750MOL0     C 1181   8.401   2.707   9.041 -1.0939  0.6157  0.4292
  750MOL0     C 1182   8.373   2.731   9.169  0.2731  0.1505 -0.0212
  750MOL0     H 1183   8.608   3.017   9.636 -0.2622  2.1421 -1.0315
  750MOL0     H 1184   8.549   3.126   9.841  0.6257  0.1398  0.0770
  750MOL0     H 1185   8.212   3.428   9.883  1.0690 -1.2550 -0.4503
  750MOL0     H 1186   8.109   3.289   9.888 -1.0382  1.2217  2.3155
  750MOL0     H 1187   8.180   3.221  10.116 -1.8184  0.3387 -2.5628
  750MOL0     H 1188   8.288   3.364  10.116  0.1393  1.3898  0.2402
  750MOL0     H 1189   8.106   3.512  10.099  2.0792  0.9669 -0.0184
  750MOL0     H 1190   7.983   3.378  10.095 -0.0150 -0.5879  0.5370
  750MOL0     H 1191   8.000   3.486  10.298  0.1981  0.9922 -1.0974
  750MOL0     H 1192   8.066   3.314  10.325  0.7319 -0.0095  1.1579
  750MOL0     H 1193   8.256   3.540  10.250  1.0350  1.1426  1.4928
  750MOL0     H 1194   8.179   3.567  10.402 -0.4622  2.1800 -1.4956
  750MOL0     H 1195   8.230   3.330  10.466 -0.9442  1.7119 -0.3204
  750MOL0     H 1196   8.329   3.300  10.318  4.1257  1.4725 -0.9180
  750MOL0     H 1197   8.380   3.527  10.525 -0.1855  1.6298 -2.3902
  750MOL0     H 1198   8.454   3.369  10.536  0.6614  0.7672  0.5329
  750MOL0     H 1199   8.607   3.508  10.464  2.0868 -2.2947 -1.5474
  750MOL0     H 1200   8.506   3.568  10.323 -0.4686 -1.2770 -2.0661
  750MOL0     H 1201   8.561   3.433  10.108  1.7524  1.1342 -0.4344
  750MOL0     H 1202   8.735   3.311   9.959 -2.2653 -2.0587 -1.3458
  750MOL0     H 1203   8.880   3.292  10.060  0.4560 -3.1260 -0.8574
  750MOL0     H 1204   8.781   3.119   9.890 -1.4484  2.0328 -0.4852
  750MOL0     H 1205   8.685   3.062  10.028  1.4740 -0.7066  2.6819
  750MOL0     H 1206   8.888   3.033  10.167  0.5089  0.7268  0.9013
  750MOL0     H 1207   8.981   3.065  10.022 -0.7053  1.5388  1.4467
  750MOL0     H 1208   8.838   2.877   9.913  2.4483  2.2829 -0.8062
  750MOL0     H 1209   8.776   2.850  10.072 -0.8050  1.9591  0.6304
  750MOL0     H 1210   9.212   2.923  10.135 -2.2285  1.6154  0.6261
  750MOL0     H 1211   9.518   2.844  10.053  2.4203  2.5587 -0.7222
  750MOL0     H 1212   9.514   2.985   9.951  0.6857  0.5115  0.3899
  750MOL0     H 1213   9.438   2.989  10.107  0.1570  0.1802 -0.5137
  750MOL0     H 1214   9.786   2.793   9.882 -0.1236 -1.4774  0.0779
  750MOL0     H 1215  10.007   2.754   9.766  0.3538 -2.1043  0.0361
  750MOL0     H 1216  10.183   2.667   9.642 -0.2302 -1.2727 -0.0026
  750MOL0     H 1217  10.113   2.520   9.604  3.9361 -1.3595  0.1681
  750MOL0     H 1218  10.274   2.660   9.385 -1.3148  0.1556 -1.2451
  750MOL0     H 1219  10.322   2.528   9.484 -0.3830  0.2468  1.2717
  750MOL0     H 1220  10.083   2.511   9.293  0.8494 -0.7368 -1.5458
  750MOL0     H 1221  10.135   2.376   9.396 -2.9827 -1.6364 -2.8750
  750MOL0     H 1222  10.289   2.495   9.167 -2.5042  1.4796  1.3474
  750MOL0     H 1223  10.350   2.366   9.278 -0.3891 -0.0056  0.7385
  750MOL0     H 1224  10.158   2.236   9.229  2.0720  1.1647  0.3414
  750MOL0     H 1225  10.269   2.241   9.099  0.8985  0.3517  0.8355
  750MOL0     H 1226  10.019   2.434   9.107  0.0329 -0.2641  1.3584
  750MOL0     H 1227  10.147   2.415   8.985  1.3236 -0.0823  0.6367
  750MOL0     H 1228   9.908   2.298   8.958  0.9668  0.9209 -0.9490
  750MOL0     H 1229   9.967   2.177   9.070  0.0834  0.2075  0.8793
  750MOL0     H 1230   9.972   2.110   8.841 -0.4409  0.1641 -0.5730
  750MOL0     H 1231  10.135   2.121   8.920 -0.8727 -0.2946 -0.6125
  750MOL0     H 1232   9.784   2.630   9.422 -2.8366 -2.9885  1.7294
  750MOL0     H 1233   9.573   2.642   9.536 -1.1341  0.5122  1.5317
  750MOL0     H 1234   9.205   2.774   9.659 -1.5239  2.9141 -1.2202
  750MOL0     H 1235   9.002   2.750   9.814  0.9633 -2.1421  2.2505
  750MOL0     H 1236   8.147   3.194   9.684  0.2317 -0.1283  4.0337
  750MOL0     H 1237   8.202   3.051   9.499  1.5533 -2.0099 -1.4704
  750MOL0     H 1238   8.621   2.928   9.250  0.6340  0.3628 -0.6770
  750MOL0     H 1239   8.683   2.886   9.002  1.5316  0.2286  3.1778
  750MOL0     H 1240   8.560   2.787   8.666 -0.2839  0.0082 -0.0188
  750MOL0     H 1241   8.601   2.895   8.789 -0.9085 -0.6613 -1.4378
  750MOL0     H 1242   8.802   2.754   8.848  0.7228  0.1859 -0.0882
  750MOL0     H 1243   8.795   2.837   8.694  0.9601  2.5193  2.9727
  750MOL0     H 1244   8.694   2.551   8.724  0.2693  0.8361  1.1901
  750MOL0     H 1245   8.876   2.580   8.721  0.3923 -1.7263 -1.6455
  750MOL0     H 1246   8.865   2.648   8.482 -0.3688  1.6268  1.0824
  750MOL0     H 1247   8.698   2.665   8.485 -0.0999  1.5755  1.0970
  750MOL0     H 1248   8.720   2.245   8.479  0.7995 -0.1299 -0.7040
  750MOL0     H 1249   8.341   2.637   8.984 -1.7828  1.4134  0.1568
  750MOL0     H 1250   8.287   2.680   9.213  1.3592 -0.8255  1.0261
  751MOL0     O 1251   5.567   5.326   7.278  0.0627 -0.5487  0.2158
  751MOL0     C 1252   5.559   5.447   7.285 -0.2409 -0.3101 -0.3068
  751MOL0     O 1253   5.662   5.538   7.302  0.5673 -0.4689  0.1133
  751MOL0     C 1254   5.782   5.480   7.311 -0.7608 -0.0483  0.3247
  751MOL0     C 1255   5.818   5.370   7.392  0.7792  0.6118  0.3595
  751MOL0     C 1256   5.945   5.309   7.379 -0.7634 -0.0189  0.3293
  751MOL0     C 1257   6.032   5.356   7.274 -0.1185  0.3458  0.5989
  751MOL0     O 1258   6.134   5.270   7.241  0.2253  0.2042  0.5432
  751MOL0     C 1259   6.256   5.321   7.186 -0.8974  0.3720 -0.4431
  751MOL0     C 1260   6.262   5.278   7.032 -1.0270 -0.5842 -0.5835
  751MOL0     C 1261   6.266   5.128   6.994 -0.8697  0.6373 -0.3508
  751MOL0     C 1262   6.358   5.097   6.879  0.0762 -0.3057 -0.7395
  751MOL0     C 1263   6.347   4.953   6.821 -0.2108  0.1433  0.0439
  751MOL0     C 1264   6.456   4.909   6.728 -0.4161 -0.2790  0.2164
  751MOL0     C 1265   6.446   4.760   6.697  0.6842  0.6643  0.0195
  751MOL0     C 1266   6.584   4.690   6.668  0.0105 -0.0948 -0.2954
  751MOL0     N 1267   6.672   4.696   6.790 -0.2771  0.6651 -1.0779
  751MOL0     C 1268   6.648   4.639   6.915 -0.6059 -0.1515  0.6423
  751MOL0     C 1269   6.760   4.673   6.987 -0.3498  0.0483  0.1526
  751MOL0     C 1270   6.790   4.635   7.126  0.0052 -0.1970 -0.9075
  751MOL0     C 1271   6.919   4.536   7.120 -0.6643  0.0521 -0.1739
  751MOL0     C 1272   7.059   4.597   7.082 -0.3664  0.3242 -1.0686
  751MOL0     C 1273   7.170   4.493   7.064 -0.2195  0.5145  0.3649
  751MOL0     O 1274   7.146   4.423   6.941  0.3440 -0.0318 -0.6345
  751MOL0     C 1275   7.249   4.351   6.889  0.2940 -0.8834 -1.0461
  751MOL0     C 1276   7.216   4.251   6.803  0.2801 -0.0350  0.2191
  751MOL0     C 1277   7.297   4.157   6.748 -0.7531 -0.2282 -0.2185
  751MOL0     C 1278   7.245   4.049   6.655  0.2211  0.1325  0.3219
  751MOL0     C 1279   7.438   4.170   6.785  0.1251  0.4157  0.0960
  751MOL0     C 1280   7.540   4.074   6.740 -0.0713 -0.3392  0.4026
  751MOL0     O 1281   7.636   4.056   6.832 -0.2795  0.4141 -0.1971
  751MOL0     C 1282   7.767   4.036   6.808 -0.4377  0.0821 -0.6018
  751MOL0     C 1283   7.831   4.073   6.690  0.5657 -0.5584 -0.0504
  751MOL0     C 1284   7.962   4.022   6.665  0.7444  0.1629 -1.1836
  751MOL0     C 1285   8.026   3.938   6.761 -0.1072 -0.4606 -0.5528
  751MOL0     O 1286   8.157   3.903   6.734 -0.1278  0.7630 -0.2359
  751MOL0     C 1287   8.237   3.840   6.837  0.0924 -0.0206 -0.1519
  751MOL0     C 1288   8.373   3.827   6.779 -0.1450  0.4883  0.2935
  751MOL0     C 1289   8.370   3.698   6.697 -0.2679  0.4935  0.1687
  751MOL0     C 1290   8.491   3.696   6.610 -0.1087 -0.2216 -0.6233
  751MOL0     C 1291   8.507   3.556   6.555  0.3589  0.3073 -0.4465
  751MOL0     C 1292   8.637   3.552   6.475 -0.0585  0.0030  0.6266
  751MOL0     C 1293   8.662   3.414   6.411 -0.1195 -0.7423 -0.5435
  751MOL0     C 1294   8.800   3.414   6.351 -0.2918 -0.2428  0.4617
  751MOL0    Cl 1295   8.874   3.265   6.288  0.1976  0.2199 -0.6952
  751MOL0     C 1296   7.960   3.895   6.874  0.4381 -0.0098 -0.1193
  751MOL0     C 1297   7.829   3.950   6.893  0.0527  0.1121  0.3485
  751MOL0     O 1298   7.537   4.036   6.622  0.0975 -0.2504  0.0512
  751MOL0     C 1299   7.478   4.277   6.867  0.6880 -0.0941  0.0937
  751MOL0     C 1300   7.381   4.360   6.926  0.0432 -0.0420 -0.0158
  751MOL0     N 1301   6.840   4.753   6.909  0.9678  0.2605 -0.2679
  751MOL0     N 1302   6.788   4.757   6.792  0.4801  0.6601 -0.1726
  751MOL0     C 1303   5.993   5.465   7.194 -0.1732  0.5803 -0.1300
  751MOL0     C 1304   5.868   5.519   7.210 -0.1561  0.3327 -1.2200
  751MOL0     C 1305   5.437   5.522   7.267  1.3972  0.1072 -0.4836
  751MOL0     C 1306   5.424   5.629   7.180 -0.1950  0.1063  0.2754
  751MOL0     C 1307   5.304   5.699   7.181 -0.4300  0.1323  0.0308
  751MOL0     C 1308   5.196   5.667   7.273 -0.2125 -0.2432 -1.0414
  751MOL0     O 1309   5.089   5.741   7.267  1.4196 -0.4471 -0.7498
  751MOL0     C 1310   4.973   5.704   7.352  0.0245 -0.0621  0.1029
  751MOL0     C 1311   4.856   5.808   7.326  0.2314 -0.3380 -0.0641
  751MOL0     C 1312   4.786   5.863   7.451 -0.5495 -0.3543 -0.4982
  751MOL0     C 1313   4.736   5.754   7.545 -0.1414 -0.4080 -0.2530
  751MOL0     C 1314   4.658   5.819   7.649  0.6718  0.8126 -1.0099
  751MOL0     C 1315   4.607   5.893   7.734  0.5895 -0.1551  0.0339
  751MOL0     C 1316   5.220   5.563   7.360 -0.3525  0.1365 -0.7006
  751MOL0     C 1317   5.332   5.486   7.355 -0.0168  0.5335 -0.5730
  751MOL0     H 1318   5.751   5.335   7.470 -0.7334 -0.2044 -1.2547
  751MOL0     H 1319   5.983   5.223   7.433  2.1563 -1.2904 -3.2808
  751MOL0     H 1320   6.265   5.429   7.198 -3.5689  0.7548 -1.1450
  751MOL0     H 1321   6.341   5.278   7.240 -0.8271  0.9692 -0.0740
  751MOL0     H 1322   6.175   5.316   6.979 -1.3117  1.2992  1.1119
  751MOL0     H 1323   6.349   5.325   6.985  0.0214  1.5067  3.0443
  751MOL0     H 1324   6.294   5.077   7.087  3.7112  2.0412 -0.7342
  751MOL0     H 1325   6.161   5.103   6.977 -0.8723 -0.1927  0.7524
  751MOL0     H 1326   6.358   5.175   6.802 -2.2110  0.5780  0.0658
  751MOL0     H 1327   6.453   5.103   6.934  0.3109  3.1089 -1.2828
  751MOL0     H 1328   6.343   4.883   6.905 -1.4532  0.8854  0.6447
  751MOL0     H 1329   6.254   4.937   6.766 -1.0439 -0.2922  1.5115
  751MOL0     H 1330   6.449   4.958   6.630 -0.3680 -0.1211  0.2911
  751MOL0     H 1331   6.551   4.929   6.779 -0.1792 -3.2157  1.1266
  751MOL0     H 1332   6.409   4.707   6.784  0.2814 -0.0132 -0.5531
  751MOL0     H 1333   6.371   4.744   6.618 -0.3893  0.2457  1.0895
  751MOL0     H 1334   6.636   4.739   6.585  0.3202  1.4433  0.7545
  751MOL0     H 1335   6.571   4.583   6.650  2.1692 -0.8665  2.0203
  751MOL0     H 1336   6.556   4.593   6.950 -2.3738  0.8613 -2.3113
  751MOL0     H 1337   6.825   4.727   7.173  1.4368  0.1626 -2.5679
  751MOL0     H 1338   6.704   4.586   7.172 -1.0464  0.2424 -2.3273
  751MOL0     H 1339   6.895   4.466   7.039 -1.5650  0.4847 -0.2921
  751MOL0     H 1340   6.914   4.473   7.209 -0.7673 -0.8007 -0.7644
  751MOL0     H 1341   7.093   4.669   7.157  2.2115 -0.1134 -1.7163
  751MOL0     H 1342   7.056   4.651   6.987  2.1882 -0.9564 -1.9685
  751MOL0     H 1343   7.163   4.420   7.146 -3.2670  0.3614  0.0778
  751MOL0     H 1344   7.256   4.561   7.069 -0.6743  1.1176  0.0895
  751MOL0     H 1345   7.115   4.253   6.764  0.4568  2.6570 -0.2660
  751MOL0     H 1346   7.139   4.024   6.667  0.3656 -2.4749 -2.3888
  751MOL0     H 1347   7.260   4.086   6.553 -2.5799  0.0614 -0.1955
  751MOL0     H 1348   7.303   3.957   6.666 -1.1389 -0.6264  1.4014
  751MOL0     H 1349   7.783   4.133   6.614  3.2042 -1.8430 -2.8996
  751MOL0     H 1350   8.004   4.040   6.567 -2.2210  3.0451 -2.1038
  751MOL0     H 1351   8.237   3.901   6.928  0.6809  0.8094 -0.6922
  751MOL0     H 1352   8.201   3.739   6.860  1.2853 -0.2564  0.8023
  751MOL0     H 1353   8.392   3.919   6.724 -0.6515 -0.5280 -1.6923
  751MOL0     H 1354   8.446   3.817   6.860 -0.0469 -4.4288 -0.0749
  751MOL0     H 1355   8.282   3.699   6.632  1.1151 -2.3682 -1.9593
  751MOL0     H 1356   8.360   3.608   6.758 -2.7084 -0.7876 -1.9545
  751MOL0     H 1357   8.468   3.766   6.530  0.7341 -1.4623 -2.0041
  751MOL0     H 1358   8.585   3.729   6.657  1.4781 -1.8881 -2.4490
  751MOL0     H 1359   8.428   3.533   6.483  0.6091  0.9554 -0.9400
  751MOL0     H 1360   8.513   3.475   6.629  0.3265  0.7855  0.0887
  751MOL0     H 1361   8.630   3.626   6.396  0.0246 -2.4325 -1.8158
  751MOL0     H 1362   8.721   3.569   6.542 -0.3914 -1.1388  1.3673
  751MOL0     H 1363   8.594   3.395   6.327  0.6378 -2.1742 -0.8643
  751MOL0     H 1364   8.650   3.341   6.491  0.7299 -0.5091 -0.1919
  751MOL0     H 1365   8.867   3.458   6.426 -1.0596 -1.9462  2.2270
  751MOL0     H 1366   8.794   3.482   6.265  0.8613  1.1441  1.4288
  751MOL0     H 1367   7.999   3.823   6.945 -1.8451 -2.8647 -1.5429
  751MOL0     H 1368   7.780   3.926   6.987  1.0888  1.5771  1.2943
  751MOL0     H 1369   7.582   4.280   6.901  1.9780 -1.3743 -3.2889
  751MOL0     H 1370   7.413   4.440   6.991  4.7715  0.5814 -2.6344
  751MOL0     H 1371   6.063   5.492   7.116  1.5201  1.0804  1.4791
  751MOL0     H 1372   5.845   5.599   7.139 -1.8416 -0.5437 -1.7267
  751MOL0     H 1373   5.500   5.664   7.111 -0.8943  1.6032  0.2295
  751MOL0     H 1374   5.302   5.783   7.114  3.0403  0.5302  0.2747
  751MOL0     H 1375   4.947   5.601   7.326  2.8105 -1.7426  3.1143
  751MOL0     H 1376   4.988   5.708   7.461 -3.4648 -0.7270  0.7195
  751MOL0     H 1377   4.780   5.760   7.263 -1.0102  1.2941  0.1177
  751MOL0     H 1378   4.900   5.892   7.272 -2.1516 -0.1406 -1.9010
  751MOL0     H 1379   4.710   5.933   7.414 -2.5709 -3.0241 -1.7100
  751MOL0     H 1380   4.861   5.911   7.515 -0.2627 -1.8658  0.3261
  751MOL0     H 1381   4.817   5.713   7.606  1.8890  2.6858 -0.6103
  751MOL0     H 1382   4.690   5.673   7.489  0.5757 -1.5296  0.7334
  751MOL0     H 1383   4.567   5.960   7.807 -1.0771  0.8309 -1.7057
  751MOL0     H 1384   5.145   5.546   7.437  0.4999 -0.0393  0.1230
  751MOL0     H 1385   5.341   5.409   7.431 -0.6159 -0.2374 -1.2592
  752MOL0     O 1386  10.719  10.418   3.283 -0.2248  0.1359  0.0444
  752MOL0     C 1387  10.829  10.420   3.223 -0.0981 -0.2188 -0.4310
  752MOL0     O 1388  10.867  10.343   3.115 -0.0419  0.5821  0.3184
  752MOL0     C 1389  10.776  10.259   3.056 -0.3513  0.6335 -0.0035
  752MOL0     C 1390  10.760  10.137   3.120 -0.0146 -0.2481 -0.1625
  752MOL0     C 1391  10.669  10.041   3.072  0.2292 -0.8616 -0.3969
  752MOL0     C 1392  10.602  10.066   2.946 -0.0638 -0.7452 -0.5698
  752MOL0     O 1393  10.524   9.979   2.870 -0.2733 -0.6300 -0.1997
  752MOL0     C 1394  10.521   9.848   2.915 -0.3068 -0.8085 -0.2405
  752MOL0     C 1395  10.423   9.776   2.821  0.0859  0.0127  0.5124
  752MOL0     C 1396  10.389   9.637   2.889  0.3457  0.4636 -0.0642
  752MOL0     C 1397  10.270   9.567   2.828  0.5968 -0.0805  0.2923
  752MOL0     C 1398  10.271   9.555   2.671 -0.0888  0.2969  0.0127
  752MOL0     C 1399  10.361   9.432   2.631  0.0169 -0.3531  0.1077
  752MOL0     C 1400  10.348   9.391   2.480  0.5839  0.0967  0.3234
  752MOL0     C 1401  10.440   9.459   2.385 -0.5745  0.3992  0.2740
  752MOL0     N 1402  10.432   9.605   2.383  0.1426  0.5464 -1.0323
  752MOL0     C 1403  10.505   9.690   2.459 -0.5267 -0.0884 -0.6151
  752MOL0     C 1404  10.469   9.814   2.418  0.2313 -0.3120  1.1712
  752MOL0     C 1405  10.532   9.943   2.474  0.7709 -0.8291 -0.3275
  752MOL0     C 1406  10.423  10.012   2.556 -0.4961 -0.1235  0.2936
  752MOL0     C 1407  10.326  10.098   2.479  0.2347  0.5220 -0.0683
  752MOL0     C 1408  10.384  10.195   2.372 -0.3353 -0.0357 -0.0937
  752MOL0     O 1409  10.291  10.275   2.288  0.0170  0.4109  0.1708
  752MOL0     C 1410  10.205  10.216   2.202  0.2468  0.3455  0.3804
  752MOL0     C 1411  10.231  10.084   2.156  0.4194 -0.0936 -0.2424
  752MOL0     C 1412  10.133  10.025   2.069 -1.0290  1.0751  0.3214
  752MOL0     C 1413  10.164   9.882   2.018  0.6932  0.4172  0.3633
  752MOL0     C 1414  10.016  10.089   2.031 -0.4785 -0.7485  0.3848
  752MOL0     C 1415   9.909  10.039   1.957  0.4208 -0.4812 -0.2515
  752MOL0     O 1416   9.883   9.901   1.978 -0.3452 -0.4873  0.6211
  752MOL0     C 1417   9.785   9.844   1.901  0.4360 -0.2879 -0.1426
  752MOL0     C 1418   9.828   9.789   1.787 -1.1341 -0.5421  0.7668
  752MOL0     C 1419   9.734   9.755   1.695 -0.3357 -0.0109  0.2360
  752MOL0     C 1420   9.595   9.742   1.737  0.0268  0.2444 -0.1008
  752MOL0     O 1421   9.494   9.682   1.660 -0.3218  0.1431  0.3434
  752MOL0     C 1422   9.490   9.681   1.517  0.3347 -0.0924 -0.2442
  752MOL0     C 1423   9.428   9.810   1.460  0.6307  0.1178  0.2219
  752MOL0     C 1424   9.330   9.788   1.346  0.0934  1.0849  0.6243
  752MOL0     C 1425   9.393   9.801   1.203 -0.0474 -0.3817  0.4743
  752MOL0     C 1426   9.298   9.769   1.088 -0.0621 -0.5829 -0.5245
  752MOL0     C 1427   9.190   9.869   1.067  0.3299 -0.3421  0.3752
  752MOL0     C 1428   9.253  10.007   1.040  0.7451 -0.3360 -0.2391
  752MOL0     C 1429   9.153  10.093   0.978 -0.4762 -0.9305 -0.1742
  752MOL0    Cl 1430   9.001  10.128   1.070 -0.7902  0.0712  0.0618
  752MOL0     C 1431   9.558   9.783   1.863 -0.4715  0.4226 -0.1876
  752MOL0     C 1432   9.650   9.842   1.942 -1.3544 -0.3245  0.3106
  752MOL0     O 1433   9.835  10.114   1.885 -0.0991  0.0339 -0.3901
  752MOL0     C 1434   9.993  10.214   2.094 -0.2827 -0.6099  0.2279
  752MOL0     C 1435  10.086  10.280   2.176  1.0614 -0.3918  0.6092
  752MOL0     N 1436  10.359   9.799   2.329  0.2796 -0.6696 -0.0279
  752MOL0     N 1437  10.337   9.670   2.308 -0.7888  0.7967  0.4811
  752MOL0     C 1438  10.620  10.191   2.886 -0.0954  0.3813  0.1264
  752MOL0     C 1439  10.693  10.289   2.949 -0.2892 -0.1643 -0.1989
  752MOL0     C 1440  10.937  10.517   3.269  0.1737  0.0590 -0.2500
  752MOL0     C 1441  11.072  10.501   3.235 -0.3286 -0.0680  0.7878
  752MOL0     C 1442  11.169  10.584   3.295  0.2228  0.3856 -0.4526
  752MOL0     C 1443  11.141  10.694   3.365 -0.3658  0.7643 -0.0552
  752MOL0     O 1444  11.249  10.771   3.410 -0.0233  0.8101  0.4837
  752MOL0     C 1445  11.238  10.831   3.539 -0.5297  0.6303 -0.6138
  752MOL0     C 1446  11.351  10.934   3.562  1.0697  0.0723  0.0692
  752MOL0     C 1447  11.491  10.875   3.576 -0.5751  0.2371 -0.4132
  752MOL0     C 1448  11.599  10.990   3.587 -0.5112 -0.3012  0.9036
  752MOL0     C 1449  11.729  10.932   3.600  0.9050  0.8294 -0.1366
  752MOL0     C 1450  11.839  10.891   3.614 -0.7571  0.2143 -0.4405
  752MOL0     C 1451  11.006  10.712   3.399 -0.4456 -0.2721 -0.8199
  752MOL0     C 1452  10.913  10.624   3.349 -0.7083 -0.4864 -0.1476
  752MOL0     H 1453  10.821  10.133   3.210  1.7137  1.0059 -1.2037
  752MOL0     H 1454  10.656   9.947   3.125  0.6937  0.0263  1.3846
  752MOL0     H 1455  10.617   9.796   2.919 -0.2674 -0.6711  1.6299
  752MOL0     H 1456  10.477   9.858   3.014 -0.8632 -2.6147 -0.2808
  752MOL0     H 1457  10.331   9.833   2.803 -1.1713 -1.9688  0.3764
  752MOL0     H 1458  10.463   9.767   2.720 -1.3037  1.5563 -0.2319
  752MOL0     H 1459  10.473   9.568   2.873  2.3685  2.3100  1.7999
  752MOL0     H 1460  10.354   9.651   2.992 -2.7824  1.1088 -1.1334
  752MOL0     H 1461  10.260   9.467   2.872  1.1614 -0.3330 -0.1364
  752MOL0     H 1462  10.179   9.624   2.847  0.0382 -0.9284  0.2242
  752MOL0     H 1463  10.168   9.527   2.647 -0.3722  0.6852  0.7297
  752MOL0     H 1464  10.307   9.644   2.619  1.1486 -0.0771  0.1742
  752MOL0     H 1465  10.467   9.453   2.649  1.2431 -4.7107 -0.9502
  752MOL0     H 1466  10.329   9.351   2.697 -1.4179  2.3231  2.9934
  752MOL0     H 1467  10.365   9.285   2.463 -2.9727 -0.4289 -0.9543
  752MOL0     H 1468  10.244   9.416   2.454  0.8641  0.4655 -0.4787
  752MOL0     H 1469  10.427   9.424   2.282 -0.6507  2.1109 -0.3414
  752MOL0     H 1470  10.538   9.422   2.415 -1.0149 -1.3382 -0.3039
  752MOL0     H 1471  10.586   9.674   2.529 -0.5318 -2.7908 -1.1201
  752MOL0     H 1472  10.613   9.920   2.543  1.0753  0.0866 -0.3654
  752MOL0     H 1473  10.574  10.008   2.397  0.1935  2.0840  1.6052
  752MOL0     H 1474  10.471  10.081   2.626  1.0943  2.8017 -3.3411
  752MOL0     H 1475  10.375   9.932   2.613  1.8567 -1.6756  0.2618
  752MOL0     H 1476  10.278  10.154   2.560 -2.2274 -1.7186  0.1662
  752MOL0     H 1477  10.254  10.025   2.440  1.5926 -2.2148  2.1329
  752MOL0     H 1478  10.451  10.130   2.314  0.2075 -1.3957  1.9356
  752MOL0     H 1479  10.450  10.256   2.435  0.4994 -0.9572 -0.0530
  752MOL0     H 1480  10.322  10.026   2.168 -0.5019 -1.1158  2.3348
  752MOL0     H 1481  10.256   9.844   2.063 -0.7566 -1.2353  2.1149
  752MOL0     H 1482  10.093   9.801   2.035  1.1085 -0.1347 -0.4980
  752MOL0     H 1483  10.175   9.882   1.909  0.2929  3.1655  0.2354
  752MOL0     H 1484   9.930   9.791   1.753 -2.5252 -0.2000 -4.1386
  752MOL0     H 1485   9.757   9.726   1.593  2.1707  0.1301  0.6917
  752MOL0     H 1486   9.588   9.671   1.469  1.1764  1.6740  1.0235
  752MOL0     H 1487   9.424   9.600   1.485  0.4206  0.2579 -1.3431
  752MOL0     H 1488   9.368   9.862   1.535 -0.0882  1.4498 -1.2425
  752MOL0     H 1489   9.512   9.870   1.426 -0.2007  0.8822 -0.5290
  752MOL0     H 1490   9.261   9.873   1.354 -0.9677  0.0787  3.4145
  752MOL0     H 1491   9.264   9.700   1.355  3.0719 -1.5386 -0.9477
  752MOL0     H 1492   9.437   9.901   1.194 -0.1032 -0.4576 -0.8892
  752MOL0     H 1493   9.480   9.736   1.205 -0.8493 -1.4682  1.3902
  752MOL0     H 1494   9.244   9.675   1.098 -0.6034 -0.2697 -0.4979
  752MOL0     H 1495   9.357   9.763   0.995  1.0399  0.8418  0.0577
  752MOL0     H 1496   9.136   9.828   0.982  0.8130  1.2325 -0.7226
  752MOL0     H 1497   9.121   9.890   1.150 -1.0649  0.4417 -0.9351
  752MOL0     H 1498   9.338  10.006   0.971  1.8194  1.5797  0.9546
  752MOL0     H 1499   9.289  10.057   1.131 -1.6509 -3.3935  2.6238
  752MOL0     H 1500   9.127  10.051   0.880  0.2919  0.2820 -0.9345
  752MOL0     H 1501   9.203  10.188   0.957 -0.8539 -0.5991  0.4211
  752MOL0     H 1502   9.454   9.767   1.889  0.0091 -0.7148  1.1172
  752MOL0     H 1503   9.615   9.885   2.036 -4.0733  2.5821 -1.8051
  752MOL0     H 1504   9.892  10.252   2.083  0.1182  1.5674  2.8876
  752MOL0     H 1505  10.059  10.367   2.235 -1.8552  1.4622 -3.0798
  752MOL0     H 1506  10.573  10.194   2.788  0.6544 -0.5089 -0.2738
  752MOL0     H 1507  10.705  10.392   2.917  0.3670  0.1681  1.0443
  752MOL0     H 1508  11.108  10.422   3.169  1.0559  0.0070  1.4045
  752MOL0     H 1509  11.270  10.583   3.254 -0.5980 -1.1695 -2.6622
  752MOL0     H 1510  11.141  10.880   3.546 -1.0862 -0.2864 -1.5840
  752MOL0     H 1511  11.241  10.756   3.619 -2.5395 -2.7189 -3.4040
  752MOL0     H 1512  11.320  10.974   3.659 -0.5206 -0.7150 -0.0838
  752MOL0     H 1513  11.343  11.011   3.486  2.4537  1.5353  1.3324
  752MOL0     H 1514  11.515  10.810   3.492  2.7822 -0.2486  0.7683
  752MOL0     H 1515  11.494  10.813   3.666  1.4369  0.4110 -0.3212
  752MOL0     H 1516  11.572  11.059   3.667 -1.8079  0.4833 -0.1516
  752MOL0     H 1517  11.594  11.038   3.488 -0.1961 -2.5259 -0.2552
  752MOL0     H 1518  11.933  10.840   3.611 -0.9109 -0.5010  3.0971
  752MOL0     H 1519  10.973  10.801   3.454  0.3383 -1.6445  2.0813
  752MOL0     H 1520  10.813  10.649   3.386 -0.2242 -0.3559  1.1397
  753MOL0     O 1521   5.061   9.925   5.327 -0.3233  0.7293  0.3497
  753MOL0     C 1522   4.992   9.980   5.412  0.6248  0.0921  0.1059
  753MOL0     O 1523   4.862  10.018   5.397  0.2059  0.7616 -0.1550
  753MOL0     C 1524   4.798  10.014   5.268  0.2620 -0.3571  0.6924
  753MOL0     C 1525   4.811   9.933   5.154 -0.2032 -0.2345 -0.3856
  753MOL0     C 1526   4.726   9.952   5.047  0.0634 -0.1911  0.0320
  753MOL0     C 1527   4.630  10.054   5.038  0.3996 -0.2241  0.2973
  753MOL0     O 1528   4.547  10.090   4.934 -0.2873  0.2279 -0.3770
  753MOL0     C 1529   4.547  10.000   4.821  0.0098  0.6400  0.0093
  753MOL0     C 1530   4.476  10.073   4.712 -0.2583  0.2100 -0.2585
  753MOL0     C 1531   4.385   9.975   4.630  0.2092 -0.1883 -0.3693
  753MOL0     C 1532   4.388  10.039   4.485  0.2263  0.4804  0.1892
  753MOL0     C 1533   4.498   9.977   4.396 -0.5787  0.1054 -0.4095
  753MOL0     C 1534   4.517  10.050   4.267  0.5349 -0.0401  0.3363
  753MOL0     C 1535   4.618  10.157   4.277 -1.0984  0.1854 -0.6715
  753MOL0     C 1536   4.761  10.089   4.257 -0.3076  0.4941  1.2713
  753MOL0     N 1537   4.864  10.195   4.250  0.0963 -0.0998 -0.9249
  753MOL0     C 1538   4.881  10.275   4.138  0.8549  0.2376 -0.9023
  753MOL0     C 1539   4.995  10.346   4.162 -0.1348  0.3413 -0.7331
  753MOL0     C 1540   5.062  10.422   4.051  0.7237  0.9303  0.4497
  753MOL0     C 1541   5.205  10.376   4.049 -0.1573 -0.1970 -0.0555
  753MOL0     C 1542   5.270  10.380   3.911  0.2605 -0.4240 -0.4850
  753MOL0     C 1543   5.419  10.347   3.917  0.3595  0.7850 -0.4069
  753MOL0     O 1544   5.480  10.374   3.796 -0.3782  0.1939  1.0119
  753MOL0     C 1545   5.594  10.312   3.753  1.0501  0.6826  0.3192
  753MOL0     C 1546   5.621  10.297   3.625 -0.1007 -0.0542 -0.4006
  753MOL0     C 1547   5.740  10.242   3.582 -0.0107  0.0765  0.1898
  753MOL0     C 1548   5.778  10.259   3.438  0.6342  0.4944 -0.8388
  753MOL0     C 1549   5.828  10.189   3.676  0.4831 -1.4087 -1.0396
  753MOL0     C 1550   5.962  10.158   3.639  0.1938  0.3173  0.4701
  753MOL0     O 1551   6.042  10.261   3.598  1.1674 -0.4142  0.8163
  753MOL0     C 1552   6.174  10.232   3.590  0.0324  0.6827  0.2969
  753MOL0     C 1553   6.271  10.288   3.674  1.1472  0.0452  0.0690
  753MOL0     C 1554   6.407  10.258   3.660 -0.5362  0.3434  0.5200
  753MOL0     C 1555   6.452  10.177   3.554  0.0576  1.3844  0.8290
  753MOL0     O 1556   6.581  10.140   3.538 -0.3315  0.5005  0.2927
  753MOL0     C 1557   6.687  10.221   3.587 -0.6166 -0.3111  0.6694
  753MOL0     C 1558   6.820  10.158   3.550  0.3815 -0.9694 -0.7915
  753MOL0     C 1559   6.939  10.258   3.530 -0.4889 -0.4715  0.1749
  753MOL0     C 1560   6.932  10.354   3.412  0.3968 -0.7706 -0.2427
  753MOL0     C 1561   7.041  10.463   3.399 -0.1985 -1.1843  0.7518
  753MOL0     C 1562   7.044  10.527   3.257  0.1621 -0.1530  0.4887
  753MOL0     C 1563   7.153  10.625   3.236  0.2593  0.5715 -0.1318
  753MOL0     C 1564   7.137  10.720   3.110 -0.5893  0.2292 -0.2862
  753MOL0    Cl 1565   7.179  10.877   3.171 -0.5091 -0.0963  0.5025
  753MOL0     C 1566   6.355  10.124   3.468  0.5987  0.3945 -0.3469
  753MOL0     C 1567   6.218  10.154   3.484  0.0732  0.2246 -0.1294
  753MOL0     O 1568   5.988  10.035   3.633 -0.0251 -0.1155 -0.4857
  753MOL0     C 1569   5.797  10.191   3.810  0.5504 -0.0985 -0.7860
  753MOL0     C 1570   5.680  10.254   3.851  0.5855 -0.1413  0.9532
  753MOL0     N 1571   5.045  10.309   4.288  0.6553 -0.0806  0.6026
  753MOL0     N 1572   4.969  10.217   4.337 -0.3453  0.2447 -0.5126
  753MOL0     C 1573   4.605  10.122   5.159 -0.2236  0.1572 -0.4885
  753MOL0     C 1574   4.678  10.090   5.273  0.5701 -0.7586 -0.3849
  753MOL0     C 1575   5.049   9.994   5.549  0.8088 -0.9341  0.1946
  753MOL0     C 1576   4.962  10.034   5.652  0.4930  0.0449  0.1036
  753MOL0     C 1577   5.020  10.059   5.779 -0.8187  0.5880  0.7595
  753MOL0     C 1578   5.154  10.045   5.807 -0.1407 -0.2415  0.3178
  753MOL0     O 1579   5.198  10.048   5.943  0.4479  0.1177  0.9316
  753MOL0     C 1580   5.327  10.088   5.983 -0.3313 -0.7652 -0.2891
  753MOL0     C 1581   5.333  10.107   6.137 -0.1472 -0.4966  0.1751
  753MOL0     C 1582   5.241  10.008   6.215  0.2003  0.5349 -0.5939
  753MOL0     C 1583   5.278  10.021   6.366  1.7027 -0.5664  1.1367
  753MOL0     C 1584   5.209   9.908   6.438  0.3660 -0.1660 -0.1472
  753MOL0     C 1585   5.128   9.839   6.500 -0.5632 -0.2777 -0.5895
  753MOL0     C 1586   5.241   9.995   5.710 -0.0094  0.5536  0.0013
  753MOL0     C 1587   5.186   9.971   5.580  0.5884 -0.3769 -0.6345
  753MOL0     H 1588   4.881   9.850   5.157 -0.3473 -0.4063 -1.4967
  753MOL0     H 1589   4.732   9.876   4.970 -1.3515 -3.8752  3.1799
  753MOL0     H 1590   4.651   9.994   4.788 -0.7492  1.8200 -2.9187
  753MOL0     H 1591   4.510   9.899   4.841 -2.1056  1.2155 -0.6567
  753MOL0     H 1592   4.416  10.153   4.754 -0.9838 -0.6239  0.3286
  753MOL0     H 1593   4.552  10.123   4.651  1.7137 -0.9932  1.0725
  753MOL0     H 1594   4.426   9.874   4.634 -1.5241 -1.0525 -2.5780
  753MOL0     H 1595   4.283   9.967   4.667  0.3431  0.3075  0.1342
  753MOL0     H 1596   4.287  10.026   4.445 -0.2423 -0.5597  1.6141
  753MOL0     H 1597   4.407  10.147   4.486  1.7053  0.2869 -1.3520
  753MOL0     H 1598   4.585   9.957   4.459  1.3726  2.8271 -2.0078
  753MOL0     H 1599   4.452   9.880   4.376 -1.2480  0.9179 -3.2466
  753MOL0     H 1600   4.548   9.972   4.197  0.9069 -1.3693  1.9204
  753MOL0     H 1601   4.417  10.086   4.241 -1.0130 -2.1378  2.8927
  753MOL0     H 1602   4.602  10.235   4.202 -2.0886  1.1262  0.4816
  753MOL0     H 1603   4.598  10.210   4.370 -5.7857 -0.3886 -1.0712
  753MOL0     H 1604   4.763  10.022   4.172 -2.5953 -1.5572  2.7009
  753MOL0     H 1605   4.773  10.027   4.346  0.7309  1.1605  1.6271
  753MOL0     H 1606   4.829  10.261   4.044  1.8927 -2.0614 -1.1941
  753MOL0     H 1607   5.017  10.405   3.953  1.0411  1.5580  0.1896
  753MOL0     H 1608   5.059  10.531   4.060 -1.5882  1.0929 -1.4966
  753MOL0     H 1609   5.210  10.269   4.073 -0.3292 -0.3235 -0.5580
  753MOL0     H 1610   5.267  10.425   4.125  0.4592 -1.2649  0.1583
  753MOL0     H 1611   5.259  10.482   3.871  0.1320  0.3193  1.3399
  753MOL0     H 1612   5.221  10.308   3.844 -1.9873 -0.5359  1.1745
  753MOL0     H 1613   5.433  10.249   3.965 -0.9653  0.9535  0.3689
  753MOL0     H 1614   5.464  10.417   3.988  1.9208 -0.9408  0.3855
  753MOL0     H 1615   5.545  10.323   3.553 -2.0889 -1.0886  1.2410
  753MOL0     H 1616   5.833  10.176   3.394  0.8546 -0.3715  0.9958
  753MOL0     H 1617   5.681  10.258   3.388  0.3213 -2.0356 -0.2985
  753MOL0     H 1618   5.832  10.354   3.424  1.5288  0.1386  0.0051
  753MOL0     H 1619   6.236  10.368   3.737  3.6520  0.4468  1.0769
  753MOL0     H 1620   6.488  10.314   3.706  0.8662 -2.2459  1.4459
  753MOL0     H 1621   6.695  10.324   3.552  1.3691 -0.4111  0.7273
  753MOL0     H 1622   6.682  10.225   3.696 -1.0197 -2.5627  0.7778
  753MOL0     H 1623   6.832  10.085   3.632 -1.8526  1.7776  2.2744
  753MOL0     H 1624   6.823  10.102   3.456  3.0594  0.3958 -1.6006
  753MOL0     H 1625   7.024  10.191   3.519 -1.3603 -1.3801 -1.3471
  753MOL0     H 1626   6.936  10.317   3.623 -0.7683  0.6367 -0.5155
  753MOL0     H 1627   6.927  10.288   3.325  1.2512 -3.0741  1.3566
  753MOL0     H 1628   6.843  10.419   3.412  1.1721  0.3305 -0.9766
  753MOL0     H 1629   7.137  10.413   3.411  0.8642 -0.3767 -3.1176
  753MOL0     H 1630   7.017  10.535   3.478  1.3872  1.7190 -1.2419
  753MOL0     H 1631   7.056  10.446   3.183 -1.0362  0.5493 -0.5091
  753MOL0     H 1632   6.952  10.577   3.225  0.2034 -1.9593 -2.9577
  753MOL0     H 1633   7.245  10.568   3.223  3.3071  5.0267 -0.2547
  753MOL0     H 1634   7.167  10.687   3.324  0.9806 -0.1827  0.2929
  753MOL0     H 1635   7.036  10.721   3.067 -0.0535  2.7516 -1.6505
  753MOL0     H 1636   7.198  10.680   3.028  0.6921  3.6028 -1.1336
  753MOL0     H 1637   6.386  10.047   3.399  0.0280  0.0564 -0.2263
  753MOL0     H 1638   6.150  10.112   3.410 -0.4242  2.4164 -0.9824
  753MOL0     H 1639   5.868  10.164   3.887 -1.9062 -0.2818  1.5569
  753MOL0     H 1640   5.686  10.273   3.958 -1.2294  0.2892  1.0174
  753MOL0     H 1641   4.537  10.207   5.165  0.0503  0.3547 -0.1477
  753MOL0     H 1642   4.655  10.151   5.359  1.2329  2.9210 -2.5868
  753MOL0     H 1643   4.855  10.052   5.646  0.6191  0.5185 -1.0023
  753MOL0     H 1644   4.953  10.089   5.859 -0.0321  1.0418  1.2579
  753MOL0     H 1645   5.396  10.007   5.959 -0.7988 -0.1599 -4.4082
  753MOL0     H 1646   5.366  10.176   5.931 -1.4778 -0.1494 -0.1506
  753MOL0     H 1647   5.297  10.204   6.171 -0.2048 -0.0556 -1.1111
  753MOL0     H 1648   5.435  10.104   6.176  0.3071  0.0602 -0.9091
  753MOL0     H 1649   5.274   9.909   6.182  0.0907  0.0473  0.6881
  753MOL0     H 1650   5.136  10.033   6.199  0.5494  2.4251 -0.0761
  753MOL0     H 1651   5.234  10.117   6.394 -2.1877 -1.6902 -0.4746
  753MOL0     H 1652   5.387  10.026   6.381  1.8802 -0.3286 -0.0984
  753MOL0     H 1653   5.059   9.773   6.549 -1.6574 -0.3736 -2.1942
  753MOL0     H 1654   5.346   9.978   5.732 -0.9450 -2.9382  2.5811
  753MOL0     H 1655   5.257   9.944   5.502  1.0749  1.1028 -0.7378
  754MOL0     O 1656  11.237   4.864   0.786 -0.1903  0.2864  0.5624
  754MOL0     C 1657  11.320   4.778   0.762  0.3232 -0.6504  1.0361
  754MOL0     O 1658  11.392   4.765   0.644  0.5710  0.0318  0.2908
  754MOL0     C 1659  11.400   4.858   0.546  0.1445 -1.3127  0.3256
  754MOL0     C 1660  11.426   4.818   0.417  0.4583  0.7809  0.6417
  754MOL0     C 1661  11.393   4.900   0.310  0.8638  0.3344 -0.1619
  754MOL0     C 1662  11.363   5.035   0.332 -0.1208 -0.2305  0.2040
  754MOL0     O 1663  11.329   5.136   0.243 -0.1546  0.0373 -0.4850
  754MOL0     C 1664  11.264   5.099   0.118 -0.4719 -0.6445 -0.2637
  754MOL0     C 1665  11.128   5.045   0.149  0.3589  0.1619 -0.0969
  754MOL0     C 1666  11.045   5.139   0.233  0.4790 -0.0408 -0.3348
  754MOL0     C 1667  10.896   5.148   0.212  0.3016  0.0686  0.0229
  754MOL0     C 1668  10.827   5.200   0.332 -0.1727 -0.5390 -1.4022
  754MOL0     C 1669  10.678   5.245   0.310 -0.6432 -0.3944 -0.0240
  754MOL0     C 1670  10.623   5.330   0.427  0.2652 -0.4609  0.8766
  754MOL0     C 1671  10.609   5.228   0.539  0.2370 -0.1338 -0.4527
  754MOL0     N 1672  10.554   5.296   0.660  0.6600  0.3935 -0.4040
  754MOL0     C 1673  10.489   5.233   0.768  1.2458  0.8978  0.2068
  754MOL0     C 1674  10.468   5.336   0.863 -0.1708  0.5875 -0.7997
  754MOL0     C 1675  10.411   5.310   0.997  0.2911 -0.2293  0.3315
  754MOL0     C 1676  10.506   5.334   1.101  0.4343 -0.4581  0.2660
  754MOL0     C 1677  10.616   5.222   1.101 -0.3789  0.1065 -0.8946
  754MOL0     C 1678  10.754   5.276   1.136  0.3328 -0.6193 -0.2226
  754MOL0     O 1679  10.782   5.370   1.035 -0.5775 -0.0661 -0.0419
  754MOL0     C 1680  10.826   5.500   1.058  0.3002  0.0809  0.2753
  754MOL0     C 1681  10.824   5.591   0.952 -0.4750 -0.0208  0.7245
  754MOL0     C 1682  10.877   5.719   0.971 -0.1153 -0.6232  0.4292
  754MOL0     C 1683  10.869   5.797   0.839 -0.4507 -0.8834  0.0487
  754MOL0     C 1684  10.938   5.763   1.088 -0.1256 -0.1373 -0.7169
  754MOL0     C 1685  10.986   5.905   1.116 -0.5128  0.2675  0.2713
  754MOL0     O 1686  10.964   6.002   1.030  0.1858  0.0867 -0.1800
  754MOL0     C 1687  11.043   6.111   1.041 -0.1360 -0.8386 -0.1778
  754MOL0     C 1688  10.993   6.229   1.098 -0.0484 -0.2261  0.1898
  754MOL0     C 1689  11.070   6.347   1.108 -0.5739  0.3463 -0.1391
  754MOL0     C 1690  11.205   6.338   1.077  0.4900  0.3033 -0.3230
  754MOL0     O 1691  11.296   6.440   1.090  0.5063 -0.2966  0.2435
  754MOL0     C 1692  11.250   6.558   1.164  0.1060 -0.5760 -0.1398
  754MOL0     C 1693  11.373   6.636   1.212  0.3064  0.4896 -0.5728
  754MOL0     C 1694  11.406   6.588   1.359 -0.3232  0.3041 -0.4054
  754MOL0     C 1695  11.518   6.675   1.412 -0.1703 -0.1818 -0.0904
  754MOL0     C 1696  11.557   6.638   1.555 -0.2027  0.5733  0.4748
  754MOL0     C 1697  11.676   6.723   1.601 -0.5724 -0.3405  0.3192
  754MOL0     C 1698  11.807   6.687   1.529 -1.0042  0.4941  0.5157
  754MOL0     C 1699  11.933   6.739   1.595  0.0832 -0.5691 -0.2032
  754MOL0    Cl 1700  11.945   6.910   1.531  0.0962 -0.6503  0.1786
  754MOL0     C 1701  11.257   6.223   1.018 -0.9765 -0.0388  1.6302
  754MOL0     C 1702  11.178   6.111   1.005  0.6640  0.6193  0.4059
  754MOL0     O 1703  11.061   5.920   1.209  0.2427  0.0305 -0.0745
  754MOL0     C 1704  10.933   5.674   1.193  0.3339  0.1517 -1.0570
  754MOL0     C 1705  10.886   5.543   1.174  0.3118  0.7547  0.0265
  754MOL0     N 1706  10.532   5.448   0.816  0.9896 -0.3483  0.8935
  754MOL0     N 1707  10.566   5.426   0.691 -0.0717 -0.1591 -0.6394
  754MOL0     C 1708  11.370   5.082   0.464 -0.1126 -0.0624 -0.6034
  754MOL0     C 1709  11.390   4.994   0.563  0.1311  1.0622 -0.1259
  754MOL0     C 1710  11.346   4.693   0.873 -0.5094  0.0989  0.3391
  754MOL0     C 1711  11.251   4.666   0.976 -0.3067  0.0226  0.4030
  754MOL0     C 1712  11.280   4.570   1.073 -0.5044 -0.4631 -0.1731
  754MOL0     C 1713  11.402   4.513   1.078 -0.6960  0.8839  0.6560
  754MOL0     O 1714  11.424   4.409   1.167 -0.9013  0.1321 -0.1601
  754MOL0     C 1715  11.555   4.361   1.199 -0.0774  1.0129  0.3914
  754MOL0     C 1716  11.546   4.293   1.329 -0.4053  0.2578 -0.5137
  754MOL0     C 1717  11.675   4.218   1.370 -0.1739  0.0681 -0.0364
  754MOL0     C 1718  11.798   4.308   1.405  0.2008  0.0265 -0.1696
  754MOL0     C 1719  11.786   4.358   1.541 -1.1206 -0.3253 -0.7238
  754MOL0     C 1720  11.770   4.391   1.653 -0.1830  0.3699 -0.4622
  754MOL0     C 1721  11.496   4.543   0.985 -0.0645  1.3743 -1.1878
  754MOL0     C 1722  11.469   4.622   0.875  0.3974  0.0364 -0.3601
  754MOL0     H 1723  11.440   4.713   0.392  0.9381  1.5224 -2.5308
  754MOL0     H 1724  11.395   4.857   0.211 -1.0788  1.1947 -0.6268
  754MOL0     H 1725  11.258   5.195   0.066 -0.5715 -0.9501 -0.8234
  754MOL0     H 1726  11.331   5.034   0.062 -0.8247  1.3369 -3.1840
  754MOL0     H 1727  11.089   5.039   0.047  0.1534 -3.4380  0.0697
  754MOL0     H 1728  11.139   4.944   0.190  1.9480  0.8077  1.1990
  754MOL0     H 1729  11.064   5.114   0.338  0.9045  1.3668 -0.0513
  754MOL0     H 1730  11.078   5.243   0.228 -0.7660  0.5336  1.9483
  754MOL0     H 1731  10.876   5.220   0.132  2.1936 -1.6279 -2.0958
  754MOL0     H 1732  10.852   5.051   0.184 -2.5399  1.8616 -2.3997
  754MOL0     H 1733  10.835   5.128   0.414 -0.7964  1.5780  0.6324
  754MOL0     H 1734  10.872   5.292   0.370 -2.0867  0.0769 -0.4745
  754MOL0     H 1735  10.666   5.301   0.217 -0.7236 -0.7837 -0.2522
  754MOL0     H 1736  10.619   5.154   0.296 -0.3918 -1.0618  2.6834
  754MOL0     H 1737  10.684   5.413   0.464  0.1086 -0.5784  1.4197
  754MOL0     H 1738  10.530   5.378   0.395 -0.3652 -1.1911  1.5508
  754MOL0     H 1739  10.712   5.209   0.572  1.1198  0.8523 -2.4696
  754MOL0     H 1740  10.555   5.135   0.518 -0.2817  0.2374 -0.7912
  754MOL0     H 1741  10.459   5.129   0.767 -2.8392  1.9128 -0.4455
  754MOL0     H 1742  10.338   5.390   1.015  0.3708 -0.1359  0.2430
  754MOL0     H 1743  10.369   5.209   1.006  2.3447 -1.4102 -1.8950
  754MOL0     H 1744  10.459   5.323   1.199 -2.3126 -1.8928 -1.1123
  754MOL0     H 1745  10.549   5.434   1.087  1.8125 -0.8047  1.7024
  754MOL0     H 1746  10.621   5.161   1.010 -0.6949 -4.1430  1.6680
  754MOL0     H 1747  10.599   5.159   1.189 -0.3458  0.2767 -0.7663
  754MOL0     H 1748  10.840   5.208   1.134  0.3157 -0.8459  2.7901
  754MOL0     H 1749  10.752   5.322   1.235 -1.6030  1.8167 -1.2871
  754MOL0     H 1750  10.795   5.558   0.853 -1.4694 -2.0690  1.6579
  754MOL0     H 1751  10.970   5.813   0.798 -0.5335 -0.4113  0.0252
  754MOL0     H 1752  10.815   5.747   0.759  0.5139  2.6327 -3.1089
  754MOL0     H 1753  10.807   5.887   0.849 -3.1373 -2.4060 -1.6985
  754MOL0     H 1754  10.891   6.224   1.133  0.6183  0.7711  2.5330
  754MOL0     H 1755  11.023   6.440   1.139 -1.0712  0.5558 -1.4197
  754MOL0     H 1756  11.190   6.630   1.106  2.1045  2.6117  1.4556
  754MOL0     H 1757  11.188   6.543   1.253  1.7827  1.7574  1.5595
  754MOL0     H 1758  11.458   6.620   1.145  1.4354 -0.0483  0.9418
  754MOL0     H 1759  11.343   6.741   1.208  1.3458  0.7848 -0.9880
  754MOL0     H 1760  11.433   6.482   1.368  1.5732  0.6243 -1.6816
  754MOL0     H 1761  11.323   6.603   1.429  0.1779  0.4148  0.1799
  754MOL0     H 1762  11.608   6.665   1.350 -0.9726 -0.3764 -1.2667
  754MOL0     H 1763  11.481   6.777   1.403  0.8286  0.4698  2.4204
  754MOL0     H 1764  11.577   6.531   1.562 -2.5312 -0.2371 -2.7814
  754MOL0     H 1765  11.471   6.654   1.620 -0.2228 -0.4028  0.7023
  754MOL0     H 1766  11.659   6.830   1.587 -1.3965 -0.4277  0.5774
  754MOL0     H 1767  11.705   6.701   1.705  1.5000  1.5263  0.2196
  754MOL0     H 1768  11.822   6.721   1.426  2.6188  1.6745  1.2889
  754MOL0     H 1769  11.808   6.578   1.517 -1.1598  0.5684 -0.1973
  754MOL0     H 1770  12.017   6.679   1.559  0.6226 -0.6920  1.1971
  754MOL0     H 1771  11.933   6.738   1.704  0.7193 -1.1107 -0.2005
  754MOL0     H 1772  11.360   6.202   0.989 -1.3929  0.3142 -0.2561
  754MOL0     H 1773  11.225   6.020   0.969 -2.7373 -0.9424 -0.5177
  754MOL0     H 1774  10.971   5.687   1.294 -1.1553  0.5292 -0.5202
  754MOL0     H 1775  10.901   5.475   1.258 -2.6628  1.0879  0.9580
  754MOL0     H 1776  11.347   5.184   0.492  0.2490 -0.6028  1.8237
  754MOL0     H 1777  11.395   5.042   0.660 -4.1810  2.7855 -0.5409
  754MOL0     H 1778  11.158   4.723   0.982 -1.2023 -1.5100  4.1541
  754MOL0     H 1779  11.214   4.545   1.155 -1.7223 -0.4295 -1.1143
  754MOL0     H 1780  11.588   4.289   1.124  2.3669 -0.4769  2.7127
  754MOL0     H 1781  11.631   4.440   1.200  1.3431 -0.2878 -0.9982
  754MOL0     H 1782  11.459   4.226   1.330 -0.4381  0.3062  0.0452
  754MOL0     H 1783  11.526   4.370   1.404 -4.0376  1.6171 -2.6200
  754MOL0     H 1784  11.708   4.150   1.290 -1.3672 -0.4993 -0.0745
  754MOL0     H 1785  11.651   4.139   1.442 -2.2841  0.4757 -0.2377
  754MOL0     H 1786  11.810   4.401   1.348  2.0876 -0.6862 -1.0052
  754MOL0     H 1787  11.888   4.248   1.413 -0.8369 -1.9546 -2.0631
  754MOL0     H 1788  11.758   4.420   1.755  2.8841 -0.9614  0.3876
  754MOL0     H 1789  11.590   4.489   0.990 -1.3776 -1.0798 -1.4707
  754MOL0     H 1790  11.547   4.625   0.800 -0.9663 -0.4685 -1.8496
  755MOL0     O 1791   5.836   9.104   4.531 -0.3546 -0.1041  0.4066
  755MOL0     C 1792   5.953   9.127   4.559 -0.1651 -0.7879  0.7231
  755MOL0     O 1793   6.003   9.107   4.674 -0.0467 -0.4828  0.6465
  755MOL0     C 1794   5.952   9.032   4.769 -0.4518  0.2504  0.2668
  755MOL0     C 1795   6.017   9.046   4.892  0.2356 -0.4859  0.1798
  755MOL0     C 1796   5.955   8.986   5.001  0.6544 -0.0549 -0.0041
  755MOL0     C 1797   5.834   8.911   4.995 -0.2138  1.0054 -0.4261
  755MOL0     O 1798   5.783   8.871   5.115 -0.6862  1.0660 -0.7898
  755MOL0     C 1799   5.671   8.790   5.117  0.1284 -0.4983  0.0909
  755MOL0     C 1800   5.599   8.817   5.250 -0.4671  0.3187 -0.2493
  755MOL0     C 1801   5.576   8.973   5.278 -0.4899  0.6039  0.5380
  755MOL0     C 1802   5.496   9.003   5.401  0.1008  0.5706  0.3253
  755MOL0     C 1803   5.429   9.145   5.390 -0.0897 -0.7321  0.2382
  755MOL0     C 1804   5.340   9.179   5.514  0.9111 -0.0880  0.0214
  755MOL0     C 1805   5.212   9.092   5.557  0.6282 -0.3428  0.1513
  755MOL0     C 1806   5.084   9.111   5.474  0.7285 -0.2854  0.9621
  755MOL0     N 1807   4.982   9.017   5.518 -0.3964  0.1671  1.2354
  755MOL0     C 1808   4.989   8.874   5.520  0.2080 -0.1613 -0.2928
  755MOL0     C 1809   4.861   8.835   5.549 -0.5856  0.8029  0.6301
  755MOL0     C 1810   4.802   8.696   5.569  0.1856  0.1892 -0.3839
  755MOL0     C 1811   4.890   8.588   5.519 -1.0480  0.3361 -0.2084
  755MOL0     C 1812   4.995   8.550   5.621  0.6605  0.4032  0.4002
  755MOL0     C 1813   5.110   8.479   5.552 -0.5426 -0.0485  0.5091
  755MOL0     O 1814   5.215   8.566   5.538  0.2280 -0.3257 -0.1508
  755MOL0     C 1815   5.328   8.512   5.484 -0.1449 -0.3941  0.3377
  755MOL0     C 1816   5.345   8.413   5.380  0.4800  0.9210 -1.1599
  755MOL0     C 1817   5.474   8.364   5.336  0.3376 -0.7566  0.6153
  755MOL0     C 1818   5.470   8.265   5.221  0.1668  0.5580 -0.7274
  755MOL0     C 1819   5.588   8.420   5.394  0.1395 -0.5400  1.2075
  755MOL0     C 1820   5.721   8.387   5.350 -0.7199  0.0590  0.8558
  755MOL0     O 1821   5.744   8.332   5.218 -0.7526 -0.1781  0.0404
  755MOL0     C 1822   5.874   8.352   5.170  0.1456  0.7166 -0.1638
  755MOL0     C 1823   5.960   8.253   5.132  0.1025  0.0409  0.1783
  755MOL0     C 1824   6.089   8.282   5.077 -0.0007 -0.5310 -0.0780
  755MOL0     C 1825   6.126   8.419   5.064  0.7760 -0.0866 -0.7799
  755MOL0     O 1826   6.256   8.450   5.030  0.6427  0.5296  0.5521
  755MOL0     C 1827   6.271   8.473   4.892  0.2606  0.3355  0.4881
  755MOL0     C 1828   6.328   8.346   4.825  0.0488 -0.6598  0.4887
  755MOL0     C 1829   6.441   8.281   4.898 -0.3184  0.0412 -0.7419
  755MOL0     C 1830   6.567   8.373   4.904  0.0231  0.5844 -0.4651
  755MOL0     C 1831   6.599   8.449   5.040 -0.4289 -0.0656  0.6197
  755MOL0     C 1832   6.720   8.542   5.025 -0.5837 -0.3223 -0.1381
  755MOL0     C 1833   6.701   8.675   4.944  0.5970  0.4794  0.0632
  755MOL0     C 1834   6.779   8.803   4.984 -0.7926 -0.9046 -0.0534
  755MOL0    Cl 1835   6.946   8.738   4.988  0.5424  0.6332  0.2174
  755MOL0     C 1836   6.044   8.523   5.122 -0.5421  1.1020  0.0511
  755MOL0     C 1837   5.921   8.482   5.167  0.4106 -0.2937 -0.8291
  755MOL0     O 1838   5.814   8.408   5.428 -0.7744 -0.2315  0.7278
  755MOL0     C 1839   5.574   8.508   5.504  0.6429 -0.1409 -0.0689
  755MOL0     C 1840   5.448   8.562   5.543 -0.8619 -0.4785 -0.0952
  755MOL0     N 1841   4.784   8.952   5.569 -0.2123 -0.0318 -0.5218
  755MOL0     N 1842   4.861   9.052   5.541  0.1055 -0.1184 -0.5293
  755MOL0     C 1843   5.783   8.884   4.871  0.4347 -0.5300 -0.7457
  755MOL0     C 1844   5.842   8.942   4.763 -0.3248 -0.5077  0.3467
  755MOL0     C 1845   6.034   9.194   4.459  0.4694 -0.3285  0.5537
  755MOL0     C 1846   6.161   9.222   4.494 -1.3910 -0.4479 -0.9501
  755MOL0     C 1847   6.236   9.305   4.416  0.1806  0.2528 -0.1759
  755MOL0     C 1848   6.184   9.359   4.301 -0.2731  0.4103  0.4035
  755MOL0     O 1849   6.261   9.446   4.223 -0.4315  0.0052 -0.2035
  755MOL0     C 1850   6.409   9.457   4.229  0.0032  1.3789  0.2607
  755MOL0     C 1851   6.442   9.580   4.312 -0.1134  0.2193  0.4833
  755MOL0     C 1852   6.599   9.578   4.324 -0.0953  0.4367  0.3102
  755MOL0     C 1853   6.645   9.677   4.434 -0.4819  0.1868  0.6493
  755MOL0     C 1854   6.795   9.679   4.439  0.0792 -0.6457  1.3804
  755MOL0     C 1855   6.914   9.686   4.432 -0.1113 -0.2228 -1.1198
  755MOL0     C 1856   6.059   9.328   4.252  0.3417 -1.0412 -0.0673
  755MOL0     C 1857   5.981   9.254   4.339 -0.5216  0.6087 -0.4320
  755MOL0     H 1858   6.110   9.100   4.900 -0.3549  0.4946  0.6046
  755MOL0     H 1859   5.992   8.984   5.103  2.2843 -0.8670 -0.5697
  755MOL0     H 1860   5.601   8.826   5.041  0.6919 -0.1992 -0.2947
  755MOL0     H 1861   5.691   8.683   5.116  0.6126 -0.4132  0.1970
  755MOL0     H 1862   5.505   8.761   5.241  0.2816 -1.0468  0.1555
  755MOL0     H 1863   5.656   8.776   5.334 -0.6324  0.6293  0.0200
  755MOL0     H 1864   5.670   9.029   5.283 -0.9853  1.4707  0.2881
  755MOL0     H 1865   5.518   9.018   5.197 -0.4578  1.5421  1.0240
  755MOL0     H 1866   5.421   8.924   5.402  0.0803  0.5569 -0.7820
  755MOL0     H 1867   5.561   8.998   5.489  0.1706 -0.9978  0.2065
  755MOL0     H 1868   5.502   9.224   5.370 -1.4772  0.9392  1.4886
  755MOL0     H 1869   5.363   9.153   5.303 -0.2348 -1.5394  0.2663
  755MOL0     H 1870   5.410   9.174   5.598  0.3212  0.1415  0.5311
  755MOL0     H 1871   5.311   9.284   5.520  2.2042  0.2089  2.2128
  755MOL0     H 1872   5.235   8.985   5.557 -0.3015 -0.5541  0.3694
  755MOL0     H 1873   5.189   9.111   5.663 -1.3500 -0.2617 -0.2583
  755MOL0     H 1874   5.104   9.083   5.370  1.3419  0.0824  0.9740
  755MOL0     H 1875   5.046   9.212   5.488 -0.1760 -0.2884 -1.1156
  755MOL0     H 1876   5.074   8.812   5.492  0.6077  0.1241  0.2586
  755MOL0     H 1877   4.771   8.686   5.674  3.6402  1.1391  0.9049
  755MOL0     H 1878   4.716   8.695   5.502 -0.6380 -2.8824  0.5471
  755MOL0     H 1879   4.945   8.635   5.437 -0.9306  0.0495 -0.2938
  755MOL0     H 1880   4.831   8.500   5.491 -0.5062 -0.3772  0.8302
  755MOL0     H 1881   4.948   8.486   5.695 -1.1342  0.1304 -0.9053
  755MOL0     H 1882   5.024   8.640   5.676 -2.0596  0.5453  1.7698
  755MOL0     H 1883   5.097   8.435   5.453  2.7125 -0.7350  0.2537
  755MOL0     H 1884   5.140   8.394   5.614 -0.0615  0.3336  0.8143
  755MOL0     H 1885   5.256   8.369   5.335  0.1723 -1.9755  1.8846
  755MOL0     H 1886   5.365   8.237   5.207  0.7516 -0.9630 -2.5741
  755MOL0     H 1887   5.495   8.326   5.134  2.8295  1.9447  0.9048
  755MOL0     H 1888   5.529   8.174   5.233 -0.2675  0.5830  2.5918
  755MOL0     H 1889   5.934   8.148   5.125  0.4684  0.0220 -1.1469
  755MOL0     H 1890   6.151   8.206   5.031  0.7174 -0.5967  0.9503
  755MOL0     H 1891   6.175   8.498   4.847  0.5656 -0.8900 -0.9033
  755MOL0     H 1892   6.343   8.554   4.877 -0.0843  1.0790  2.5119
  755MOL0     H 1893   6.243   8.279   4.820 -1.9173  1.7391 -0.2007
  755MOL0     H 1894   6.358   8.378   4.725  0.3045 -0.5357  0.6012
  755MOL0     H 1895   6.462   8.181   4.858 -3.1143 -1.1087  0.4262
  755MOL0     H 1896   6.411   8.245   4.997  1.5363 -0.9857 -0.5151
  755MOL0     H 1897   6.652   8.308   4.883  0.1272  1.3394 -2.6265
  755MOL0     H 1898   6.567   8.445   4.821 -0.7196  2.5699  1.1696
  755MOL0     H 1899   6.619   8.380   5.122  1.5257  0.4069  0.5983
  755MOL0     H 1900   6.507   8.500   5.068 -1.6237 -0.9378 -1.4650
  755MOL0     H 1901   6.744   8.573   5.127  1.9437 -1.6253 -0.2566
  755MOL0     H 1902   6.794   8.478   4.975 -1.1204  0.0255 -1.3984
  755MOL0     H 1903   6.594   8.696   4.937  0.7564  0.9597 -1.1513
  755MOL0     H 1904   6.738   8.650   4.844 -0.6293  3.5647 -1.2850
  755MOL0     H 1905   6.747   8.836   5.084  4.5404  0.2274  1.5771
  755MOL0     H 1906   6.781   8.889   4.916  2.2091  1.6115  2.8833
  755MOL0     H 1907   6.086   8.623   5.114  3.3698 -0.3826 -0.4821
  755MOL0     H 1908   5.859   8.563   5.205  1.3125 -0.1408  0.4265
  755MOL0     H 1909   5.661   8.555   5.550 -0.4310  1.2204  0.6311
  755MOL0     H 1910   5.430   8.622   5.632  0.4668 -1.0219  0.5715
  755MOL0     H 1911   5.693   8.829   4.845 -0.7076  1.3029 -0.9002
  755MOL0     H 1912   5.797   8.922   4.666  3.6750 -0.7042 -1.6466
  755MOL0     H 1913   6.196   9.209   4.596  0.3217  1.4202 -1.2351
  755MOL0     H 1914   6.335   9.333   4.450 -0.5123 -1.2883  3.6252
  755MOL0     H 1915   6.467   9.370   4.262 -1.2977  1.2902  2.4992
  755MOL0     H 1916   6.440   9.481   4.127 -2.7568  0.3778 -0.9023
  755MOL0     H 1917   6.391   9.574   4.409 -3.6324  1.8103 -1.1012
  755MOL0     H 1918   6.402   9.672   4.270 -1.9993 -1.1851 -0.9816
  755MOL0     H 1919   6.651   9.609   4.233 -0.5930  3.7580  1.0238
  755MOL0     H 1920   6.626   9.476   4.352 -0.9710  0.4735  1.3552
  755MOL0     H 1921   6.605   9.639   4.529 -2.7565 -2.2414 -1.1310
  755MOL0     H 1922   6.610   9.778   4.408  1.2690  1.1097  1.6435
  755MOL0     H 1923   7.020   9.696   4.429 -0.1969  1.1159 -0.4335
  755MOL0     H 1924   6.023   9.373   4.160 -0.2849 -1.7134 -0.1636
  755MOL0     H 1925   5.878   9.237   4.307  0.2113  0.7497 -3.1419
  756MOL0     O 1926   2.527   3.430   4.233 -0.2835  0.9205  0.3154
  756MOL0     C 1927   2.572   3.492   4.329 -0.0953 -0.7825  0.6106
  756MOL0     O 1928   2.537   3.489   4.463  0.2028 -0.0702  0.7884
  756MOL0     C 1929   2.444   3.397   4.513 -0.5902  0.1368  0.8834
  756MOL0     C 1930   2.370   3.294   4.429  0.8110 -0.2520 -0.2331
  756MOL0     C 1931   2.275   3.205   4.492 -0.0627  0.0399  0.5445
  756MOL0     C 1932   2.248   3.218   4.628  0.2724  0.6809 -0.8596
  756MOL0     O 1933   2.165   3.134   4.693  1.0368  0.3391  0.0122
  756MOL0     C 1934   2.059   3.059   4.622  0.0752 -0.1115 -0.4402
  756MOL0     C 1935   1.988   2.962   4.727  0.1686  0.3421  0.4129
  756MOL0     C 1936   1.907   3.024   4.834  0.0728  0.5866  0.2003
  756MOL0     C 1937   1.991   3.098   4.942 -0.0426 -0.2131  0.0456
  756MOL0     C 1938   1.917   3.119   5.066 -0.6938 -0.2263  0.3066
  756MOL0     C 1939   1.794   3.211   5.057 -0.3809  0.6160 -0.2816
  756MOL0     C 1940   1.702   3.196   5.171  0.9637  0.0664 -0.0713
  756MOL0     C 1941   1.700   3.329   5.243 -0.7137  0.5316  0.2890
  756MOL0     N 1942   1.639   3.313   5.371  0.0794 -0.0824  0.1974
  756MOL0     C 1943   1.692   3.252   5.480  0.4055  0.5637 -0.0855
  756MOL0     C 1944   1.598   3.266   5.573 -0.4344 -0.3489  0.2955
  756MOL0     C 1945   1.606   3.210   5.719  0.5847 -0.2058 -0.7302
  756MOL0     C 1946   1.537   3.072   5.734 -0.0877 -0.1382 -0.1517
  756MOL0     C 1947   1.386   3.078   5.758  0.3821  0.1092  0.0989
  756MOL0     C 1948   1.344   3.138   5.891 -0.2923  0.3043 -1.1809
  756MOL0     O 1949   1.206   3.159   5.874 -0.0068  0.0612 -0.2691
  756MOL0     C 1950   1.123   3.127   5.976  0.3733 -0.5267  0.1612
  756MOL0     C 1951   0.992   3.082   5.963  0.1294  0.2368  0.5108
  756MOL0     C 1952   0.904   3.060   6.069  0.0451 -0.1157 -0.6084
  756MOL0     C 1953   0.762   3.021   6.043 -0.2167  0.1692  0.0769
  756MOL0     C 1954   0.948   3.096   6.196  0.2483 -0.0113 -0.1272
  756MOL0     C 1955   0.878   3.061   6.320 -1.1599 -0.2827 -0.3513
  756MOL0     O 1956   0.895   2.943   6.367  0.9202 -0.5143 -0.1877
  756MOL0     C 1957   0.828   2.917   6.488 -0.2310  0.4336  0.4746
  756MOL0     C 1958   0.694   2.879   6.489  0.6435  0.6477 -0.4916
  756MOL0     C 1959   0.622   2.863   6.607  0.2190 -0.1751  0.4050
  756MOL0     C 1960   0.678   2.888   6.731 -0.8864 -0.5665 -0.9094
  756MOL0     O 1961   0.610   2.868   6.854  0.2270 -0.6520  0.0028
  756MOL0     C 1962   0.668   2.766   6.935 -0.2596  0.2356  0.1572
  756MOL0     C 1963   0.544   2.678   6.965 -0.0096  0.1587  0.2135
  756MOL0     C 1964   0.454   2.737   7.071 -0.3777  1.3088 -0.1614
  756MOL0     C 1965   0.389   2.873   7.060  0.0299 -0.9037 -0.0043
  756MOL0     C 1966   0.308   2.909   7.184  0.1401 -0.4350  0.6629
  756MOL0     C 1967   0.222   3.038   7.157 -0.1142  0.5554 -0.2739
  756MOL0     C 1968   0.164   3.091   7.285 -0.1157 -0.5456 -0.0300
  756MOL0     C 1969   0.060   2.995   7.342  0.4057  0.3871 -0.5014
  756MOL0    Cl 1970  -0.099   3.018   7.265 -0.1362 -0.1132  0.1209
  756MOL0     C 1971   0.817   2.903   6.731 -0.0089  0.5390 -0.1868
  756MOL0     C 1972   0.891   2.924   6.613 -0.3401  0.1303 -0.4186
  756MOL0     O 1973   0.832   3.148   6.385  0.0737  0.5727  0.4508
  756MOL0     C 1974   1.079   3.154   6.219 -0.9841 -0.4048  1.0266
  756MOL0     C 1975   1.165   3.171   6.102  0.6132  0.0494 -0.8965
  756MOL0     N 1976   1.498   3.352   5.533 -0.0938 -0.8122  0.4242
  756MOL0     N 1977   1.526   3.383   5.411  0.1698  0.0847  0.3280
  756MOL0     C 1978   2.310   3.307   4.711 -0.9541 -0.8399  0.1946
  756MOL0     C 1979   2.411   3.391   4.656 -0.8236  0.5989  0.2457
  756MOL0     C 1980   2.702   3.567   4.292  0.9278 -0.4363 -0.2791
  756MOL0     C 1981   2.780   3.531   4.179  0.0926 -1.0690  0.0012
  756MOL0     C 1982   2.879   3.618   4.133 -0.7482  0.3667  0.3213
  756MOL0     C 1983   2.929   3.726   4.211  1.2698  0.6196  0.0486
  756MOL0     O 1984   3.039   3.801   4.176 -0.3132 -0.6668  0.4867
  756MOL0     C 1985   3.144   3.733   4.106 -0.6576  0.3641 -0.0147
  756MOL0     C 1986   3.275   3.809   4.140 -0.1145 -0.9480 -0.4435
  756MOL0     C 1987   3.395   3.753   4.064 -0.2436 -0.6356 -0.8325
  756MOL0     C 1988   3.462   3.622   4.115  0.2936 -0.1880 -0.3882
  756MOL0     C 1989   3.571   3.584   4.028  0.0173 -0.6600  0.9310
  756MOL0     C 1990   3.660   3.560   3.953 -0.4622  0.4444 -0.1140
  756MOL0     C 1991   2.855   3.763   4.328 -0.1487  0.8619  0.4850
  756MOL0     C 1992   2.743   3.686   4.366 -0.8366  0.4400  0.3627
  756MOL0     H 1993   2.370   3.288   4.321 -1.9079  2.7088 -0.5399
  756MOL0     H 1994   2.236   3.125   4.430 -0.1218 -1.2390  2.1586
  756MOL0     H 1995   1.985   3.125   4.574 -0.9461  0.1475  1.4108
  756MOL0     H 1996   2.103   3.008   4.536 -0.5973  1.6539 -1.8988
  756MOL0     H 1997   1.925   2.889   4.675  0.2058  0.8828 -0.4007
  756MOL0     H 1998   2.074   2.915   4.775 -0.4639 -1.5495 -0.2017
  756MOL0     H 1999   1.828   3.088   4.793  1.3714  1.4377 -1.0731
  756MOL0     H 2000   1.851   2.949   4.890 -2.2662  2.4299  0.4900
  756MOL0     H 2001   2.089   3.054   4.961  0.3346  1.3686  2.2305
  756MOL0     H 2002   2.010   3.198   4.902 -0.6529  0.7573  2.0144
  756MOL0     H 2003   1.897   3.017   5.101 -0.5228 -0.1011  0.7700
  756MOL0     H 2004   1.990   3.152   5.140  2.1914  0.8364 -2.7588
  756MOL0     H 2005   1.821   3.311   5.022 -0.4575  0.6546 -0.2331
  756MOL0     H 2006   1.737   3.156   4.982 -1.8713 -1.2101  2.0398
  756MOL0     H 2007   1.600   3.174   5.137  0.5314 -1.0232  1.8028
  756MOL0     H 2008   1.728   3.114   5.239 -0.3992 -1.3192 -1.1395
  756MOL0     H 2009   1.648   3.394   5.172 -0.8255 -1.2086 -1.2992
  756MOL0     H 2010   1.801   3.370   5.249 -2.0144  4.2889 -0.6683
  756MOL0     H 2011   1.793   3.215   5.492  0.1068 -0.1762  0.1859
  756MOL0     H 2012   1.708   3.188   5.753 -0.2668 -4.2228 -0.2372
  756MOL0     H 2013   1.564   3.279   5.792  2.4708  0.6195 -0.3639
  756MOL0     H 2014   1.586   3.006   5.806  1.4807  0.5277 -0.5613
  756MOL0     H 2015   1.556   3.020   5.639 -0.6859  0.2235 -0.4797
  756MOL0     H 2016   1.336   2.981   5.749  3.1199 -1.3974 -0.3647
  756MOL0     H 2017   1.345   3.146   5.683 -2.6016  1.5925  2.8567
  756MOL0     H 2018   1.394   3.234   5.910  0.1165  0.0484 -0.9329
  756MOL0     H 2019   1.369   3.067   5.970 -3.2632  1.2413  0.7649
  756MOL0     H 2020   0.969   3.060   5.859  0.1634 -1.2580  0.8056
  756MOL0     H 2021   0.696   3.030   6.130  0.9531  1.9862  0.8204
  756MOL0     H 2022   0.729   3.081   5.957 -0.9380 -1.5258 -0.8790
  756MOL0     H 2023   0.747   2.916   6.017  0.2867  0.2335 -0.4805
  756MOL0     H 2024   0.658   2.885   6.387 -1.5758  4.9051  0.3188
  756MOL0     H 2025   0.519   2.832   6.616  0.2702 -0.6342 -0.4627
  756MOL0     H 2026   0.749   2.707   6.890  0.2742  1.3188 -0.3386
  756MOL0     H 2027   0.705   2.809   7.028 -1.3522 -0.1429  0.7738
  756MOL0     H 2028   0.493   2.654   6.871 -0.1675 -3.0617  1.0048
  756MOL0     H 2029   0.582   2.582   7.002  3.2607  1.9282  1.8856
  756MOL0     H 2030   0.515   2.736   7.161 -0.4422 -3.5210  0.0568
  756MOL0     H 2031   0.375   2.662   7.080  0.2486  0.4944 -1.2171
  756MOL0     H 2032   0.452   2.956   7.027 -0.6734  0.2464  1.4069
  756MOL0     H 2033   0.318   2.856   6.978 -1.0755  0.0490  0.7194
  756MOL0     H 2034   0.373   2.923   7.270  1.3033  1.3008 -0.4318
  756MOL0     H 2035   0.248   2.825   7.218  3.4352 -2.6362  1.6015
  756MOL0     H 2036   0.287   3.117   7.119  0.5989 -0.8654 -2.1990
  756MOL0     H 2037   0.138   3.032   7.087  1.1493 -1.6189 -1.7478
  756MOL0     H 2038   0.120   3.191   7.276 -0.7576 -0.8405 -0.2550
  756MOL0     H 2039   0.242   3.091   7.361 -1.2338  1.1339  1.2110
  756MOL0     H 2040   0.045   3.034   7.443  0.0825  2.0933 -1.1676
  756MOL0     H 2041   0.087   2.889   7.349 -0.6560  0.0645 -0.9762
  756MOL0     H 2042   0.871   2.908   6.825 -0.7651  0.1781  0.2749
  756MOL0     H 2043   0.997   2.946   6.616 -0.0147 -1.4375  0.9311
  756MOL0     H 2044   1.123   3.173   6.316  5.4878  1.4654 -1.7329
  756MOL0     H 2045   1.268   3.205   6.114  0.1808  0.9765  0.4805
  756MOL0     H 2046   2.289   3.291   4.816 -3.9707 -0.8205 -0.3154
  756MOL0     H 2047   2.468   3.448   4.728  1.4496 -1.9023  0.5622
  756MOL0     H 2048   2.762   3.442   4.120  1.9398  0.6152 -3.4248
  756MOL0     H 2049   2.937   3.581   4.048  2.9867 -0.6001  3.0386
  756MOL0     H 2050   3.154   3.632   4.146  0.8544  0.9710  1.2579
  756MOL0     H 2051   3.135   3.737   3.997  1.2795 -0.5363 -0.2519
  756MOL0     H 2052   3.291   3.793   4.247 -0.4649 -1.5165 -0.4774
  756MOL0     H 2053   3.260   3.917   4.128 -1.3784 -1.0860 -0.2505
  756MOL0     H 2054   3.472   3.830   4.062  1.6369 -2.0334  3.7172
  756MOL0     H 2055   3.368   3.750   3.958 -0.7508  1.1238 -0.7902
  756MOL0     H 2056   3.394   3.537   4.108  2.1505 -1.8131  0.3121
  756MOL0     H 2057   3.494   3.638   4.218  3.1105 -1.0333 -1.0140
  756MOL0     H 2058   3.742   3.535   3.889 -0.0219 -3.5982  1.7197
  756MOL0     H 2059   2.870   3.854   4.384  3.0728  1.4720 -1.0900
  756MOL0     H 2060   2.685   3.717   4.452  2.4187 -1.5576  3.5382
  757MOL0     O 2061   0.078   5.905   9.763 -0.2395  0.0761  0.2428
  757MOL0     C 2062   0.023   5.815   9.834  0.9880 -0.9482  0.5450
  757MOL0     O 2063   0.081   5.729   9.915 -0.3244  0.1580  0.3184
  757MOL0     C 2064   0.219   5.726   9.919 -1.2418 -0.2320  0.8428
  757MOL0     C 2065   0.303   5.696   9.807  0.5472  1.0401 -0.2788
  757MOL0     C 2066   0.436   5.680   9.818  0.1931 -0.4483 -0.0258
  757MOL0     C 2067   0.499   5.699   9.947 -0.0665 -0.9208  0.2324
  757MOL0     O 2068   0.635   5.690   9.969  0.2204  0.2862  0.5198
  757MOL0     C 2069   0.725   5.759   9.884  0.4584  0.4678  1.4377
  757MOL0     C 2070   0.867   5.702   9.899  0.2564 -0.2088 -0.5524
  757MOL0     C 2071   0.950   5.715   9.767 -0.4197 -0.1490 -0.0629
  757MOL0     C 2072   1.086   5.639   9.779 -0.1547 -0.0257  0.7836
  757MOL0     C 2073   1.169   5.635   9.652 -0.0987 -0.2385 -0.0167
  757MOL0     C 2074   1.301   5.562   9.668 -0.0684  0.0076 -0.1020
  757MOL0     C 2075   1.412   5.643   9.741 -0.2149  0.0597 -0.0012
  757MOL0     C 2076   1.463   5.761   9.656 -0.7483  0.0316 -0.1795
  757MOL0     N 2077   1.583   5.723   9.576  0.7649  0.0894  0.0523
  757MOL0     C 2078   1.589   5.774   9.446  0.0431 -1.0022 -0.3027
  757MOL0     C 2079   1.693   5.705   9.400  0.5046 -0.3228  0.0544
  757MOL0     C 2080   1.748   5.712   9.270 -0.3419 -0.1076  1.2138
  757MOL0     C 2081   1.718   5.587   9.175 -0.1872  0.5147 -0.0649
  757MOL0     C 2082   1.577   5.567   9.124 -0.1279  0.0710 -0.1468
  757MOL0     C 2083   1.551   5.421   9.080  0.0148 -0.5426  0.1303
  757MOL0     O 2084   1.477   5.410   8.959  0.6028  0.3965  0.0345
  757MOL0     C 2085   1.340   5.422   8.959 -0.6180  0.7389 -0.0251
  757MOL0     C 2086   1.278   5.408   8.837 -0.3572 -0.5861 -0.3081
  757MOL0     C 2087   1.140   5.395   8.823  0.3532  0.6128 -0.6215
  757MOL0     C 2088   1.092   5.386   8.679 -0.7678 -0.1749  0.7002
  757MOL0     C 2089   1.059   5.401   8.945  0.2356 -0.9237 -1.0247
  757MOL0     C 2090   0.907   5.406   8.953  1.2033  0.1451 -0.6247
  757MOL0     O 2091   0.840   5.453   8.836 -0.7771  1.2190 -0.2687
  757MOL0     C 2092   0.715   5.403   8.825  1.1902 -0.8917  0.3658
  757MOL0     C 2093   0.691   5.283   8.748 -0.5497 -1.0939 -0.9057
  757MOL0     C 2094   0.563   5.229   8.750  0.0396  0.0582 -0.0146
  757MOL0     C 2095   0.450   5.280   8.817 -0.8983 -0.0617  0.1159
  757MOL0     O 2096   0.327   5.225   8.808 -0.7535 -0.2986  0.5556
  757MOL0     C 2097   0.204   5.302   8.816  0.1479 -0.3176 -0.4613
  757MOL0     C 2098   0.195   5.411   8.695 -0.4820 -0.1110 -0.3647
  757MOL0     C 2099   0.073   5.506   8.735 -0.9711 -0.5179 -0.0219
  757MOL0     C 2100   0.021   5.598   8.623  0.6010 -0.4409 -0.0728
  757MOL0     C 2101  -0.108   5.687   8.660 -0.5139  0.5404  0.6640
  757MOL0     C 2102  -0.152   5.783   8.546  0.9024 -0.0488  0.3970
  757MOL0     C 2103  -0.264   5.873   8.596  0.6681 -0.6218 -0.7983
  757MOL0     C 2104  -0.332   5.959   8.489 -0.1711  0.2030 -0.2780
  757MOL0    Cl 2105  -0.368   5.872   8.336 -0.3098 -0.3842  0.2544
  757MOL0     C 2106   0.478   5.389   8.908  0.7696  0.6267  0.4128
  757MOL0     C 2107   0.602   5.448   8.903 -0.4777  0.3933  0.6662
  757MOL0     O 2108   0.846   5.368   9.057 -0.2428 -0.4792  0.3473
  757MOL0     C 2109   1.127   5.429   9.064 -0.2171  0.5141 -0.3010
  757MOL0     C 2110   1.268   5.442   9.072  0.6010  0.1382 -0.6650
  757MOL0     N 2111   1.768   5.648   9.500 -0.0755 -0.5398 -0.8269
  757MOL0     N 2112   1.702   5.653   9.610  0.5693 -0.3815  0.5946
  757MOL0     C 2113   0.413   5.725  10.062 -0.3045 -0.3825 -0.1661
  757MOL0     C 2114   0.279   5.733  10.042 -0.0004 -0.6394 -1.5642
  757MOL0     C 2115  -0.126   5.819   9.832  0.3184  0.1161  0.3677
  757MOL0     C 2116  -0.196   5.900   9.731  0.1981  0.3254 -0.1276
  757MOL0     C 2117  -0.337   5.891   9.727 -0.1329 -0.3491  0.6923
  757MOL0     C 2118  -0.406   5.803   9.811  0.6511 -0.8870  1.3066
  757MOL0     O 2119  -0.546   5.804   9.800 -0.2395  0.4843  0.9422
  757MOL0     C 2120  -0.624   5.684   9.820 -0.2430 -0.4242  0.1110
  757MOL0     C 2121  -0.648   5.598   9.707  0.2682 -0.6204  0.2145
  757MOL0     C 2122  -0.738   5.479   9.759 -0.0124 -0.7775 -0.8281
  757MOL0     C 2123  -0.771   5.372   9.655  0.4650 -0.4893  0.5776
  757MOL0     C 2124  -0.649   5.303   9.605  0.5542  0.7377  0.0417
  757MOL0     C 2125  -0.558   5.247   9.554 -0.0037  0.0927 -0.2211
  757MOL0     C 2126  -0.336   5.722   9.898  1.1104  0.1581  0.5576
  757MOL0     C 2127  -0.198   5.725   9.911  0.0303 -0.3720  0.3557
  757MOL0     H 2128   0.266   5.693   9.706 -1.1867 -1.9284  0.3457
  757MOL0     H 2129   0.495   5.658   9.729 -0.7663  0.0987 -0.8188
  757MOL0     H 2130   0.688   5.742   9.782  0.0626  3.9608  0.9019
  757MOL0     H 2131   0.718   5.865   9.910  0.9155  0.7671  0.3811
  757MOL0     H 2132   0.905   5.751   9.990  0.4613  2.0345 -1.7722
  757MOL0     H 2133   0.840   5.601   9.929 -3.0074  1.0042  1.1463
  757MOL0     H 2134   0.895   5.661   9.690 -1.4423 -0.3138  0.7498
  757MOL0     H 2135   0.971   5.819   9.741  0.4755 -0.5213 -0.9005
  757MOL0     H 2136   1.152   5.673   9.859  0.7103 -1.3436  0.6647
  757MOL0     H 2137   1.062   5.533   9.793  0.6190 -0.4983 -1.1853
  757MOL0     H 2138   1.109   5.572   9.586 -0.7778  0.9811 -0.6135
  757MOL0     H 2139   1.180   5.736   9.610 -0.8187  1.4538  3.4649
  757MOL0     H 2140   1.282   5.466   9.716 -1.0047 -0.0017 -0.4820
  757MOL0     H 2141   1.330   5.552   9.563 -0.8327  3.0534 -0.7126
  757MOL0     H 2142   1.372   5.676   9.837 -0.3164  0.1104 -0.0606
  757MOL0     H 2143   1.496   5.577   9.761 -1.0202 -0.7384  0.8318
  757MOL0     H 2144   1.491   5.844   9.722 -0.0104 -0.8714  0.6808
  757MOL0     H 2145   1.386   5.804   9.591 -3.0693  2.7040  3.8991
  757MOL0     H 2146   1.518   5.840   9.397  0.5030 -3.3420 -4.5687
  757MOL0     H 2147   1.712   5.806   9.227 -0.1990 -0.1458  1.0076
  757MOL0     H 2148   1.857   5.718   9.280 -0.4147  2.7254  1.0874
  757MOL0     H 2149   1.754   5.500   9.231 -0.6876  1.0063  1.0571
  757MOL0     H 2150   1.780   5.583   9.085  0.0226 -2.9953  0.1133
  757MOL0     H 2151   1.561   5.651   9.055  3.1866  1.5546  0.7131
  757MOL0     H 2152   1.513   5.582   9.211 -2.4602 -1.1056 -1.5480
  757MOL0     H 2153   1.503   5.359   9.157 -3.0536 -1.8282 -2.5954
  757MOL0     H 2154   1.649   5.378   9.058 -0.0291 -1.1939  1.1421
  757MOL0     H 2155   1.340   5.400   8.748  0.9542 -1.4136  0.6480
  757MOL0     H 2156   1.129   5.463   8.611 -2.8080 -0.4296 -0.7851
  757MOL0     H 2157   1.124   5.290   8.639 -0.4665  0.3021 -0.2383
  757MOL0     H 2158   0.985   5.371   8.662 -1.0381  0.5008  1.6816
  757MOL0     H 2159   0.774   5.234   8.699 -0.2359 -0.7218 -0.7471
  757MOL0     H 2160   0.538   5.136   8.700  0.9862 -0.8225  1.0870
  757MOL0     H 2161   0.122   5.230   8.821  0.8602 -1.1085  0.0054
  757MOL0     H 2162   0.187   5.364   8.904 -0.8379  0.7670 -1.3866
  757MOL0     H 2163   0.280   5.478   8.680 -0.4799 -0.5700 -2.8144
  757MOL0     H 2164   0.190   5.349   8.605 -2.2447 -0.8829  0.2242
  757MOL0     H 2165   0.108   5.563   8.822 -0.9675 -0.3766 -0.1151
  757MOL0     H 2166  -0.021   5.459   8.767 -0.3328 -2.6802 -1.1613
  757MOL0     H 2167   0.096   5.671   8.592  0.8495 -0.8207 -0.3677
  757MOL0     H 2168  -0.007   5.530   8.543  0.1891 -0.7777  0.3540
  757MOL0     H 2169  -0.084   5.750   8.746  2.2006  2.7866 -1.5605
  757MOL0     H 2170  -0.186   5.621   8.699  1.4364 -1.3394  1.5948
  757MOL0     H 2171  -0.078   5.851   8.502 -0.2703  3.8991  3.8267
  757MOL0     H 2172  -0.190   5.730   8.459  1.2725  1.8819 -1.0180
  757MOL0     H 2173  -0.217   5.948   8.660  3.1789 -0.1153 -3.0430
  757MOL0     H 2174  -0.342   5.806   8.633 -0.7726  0.6814 -1.3874
  757MOL0     H 2175  -0.276   6.048   8.457  0.5955 -0.2071 -0.0907
  757MOL0     H 2176  -0.432   5.992   8.520 -0.7014 -0.5926 -1.0907
  757MOL0     H 2177   0.396   5.423   8.970 -0.1445 -0.3070 -0.2642
  757MOL0     H 2178   0.613   5.542   8.956  1.9017  0.7340 -0.2846
  757MOL0     H 2179   1.075   5.440   9.159  0.9845 -2.3662  0.7954
  757MOL0     H 2180   1.304   5.443   9.175 -1.7750 -0.6401  0.2398
  757MOL0     H 2181   0.471   5.729  10.154 -0.4801 -0.6658 -0.0423
  757MOL0     H 2182   0.210   5.751  10.124 -0.3654 -0.5289 -1.8953
  757MOL0     H 2183  -0.138   5.961   9.662  1.7500 -0.2455  0.6257
  757MOL0     H 2184  -0.381   5.967   9.665 -0.3269 -1.9986 -1.2876
  757MOL0     H 2185  -0.579   5.620   9.896 -1.5628 -0.2102  1.1171
  757MOL0     H 2186  -0.721   5.715   9.859 -1.2750 -0.9316 -1.9124
  757MOL0     H 2187  -0.548   5.563   9.677  0.1384 -1.8119  1.1032
  757MOL0     H 2188  -0.698   5.649   9.624 -2.9141  0.7249  2.7383
  757MOL0     H 2189  -0.838   5.520   9.772  0.5632  2.0165 -3.8523
  757MOL0     H 2190  -0.684   5.439   9.846  0.6164  1.8942  0.0947
  757MOL0     H 2191  -0.818   5.419   9.569  2.3367  1.1000  0.3632
  757MOL0     H 2192  -0.829   5.288   9.697  2.9907 -1.3058  2.7320
  757MOL0     H 2193  -0.462   5.202   9.536  0.8465  0.4912  2.8380
  757MOL0     H 2194  -0.384   5.641   9.951 -0.5013 -0.4565 -1.6840
  757MOL0     H 2195  -0.146   5.663   9.983  1.7581 -1.1123 -1.4058
  758MOL0     O 2196  10.746   7.983   6.202 -0.5847  0.0739 -0.5628
  758MOL0     C 2197  10.786   7.879   6.145 -0.6097  0.0798  0.5566
  758MOL0     O 2198  10.715   7.798   6.063 -0.3908  0.2018 -0.5680
  758MOL0     C 2199  10.598   7.831   6.010  0.4417 -0.1229 -0.4926
  758MOL0     C 2200  10.527   7.723   5.950  0.0342 -0.1652 -0.2923
  758MOL0     C 2201  10.418   7.745   5.869 -0.4048  0.4771 -0.4528
  758MOL0     C 2202  10.375   7.866   5.834  0.8003 -0.8939 -0.2562
  758MOL0     O 2203  10.266   7.871   5.755 -0.2196 -0.5620 -0.4548
  758MOL0     C 2204  10.186   7.992   5.776  0.5301 -0.4868 -0.1800
  758MOL0     C 2205  10.044   7.950   5.722 -1.2056 -0.3655 -0.5404
  758MOL0     C 2206   9.937   8.064   5.738 -0.3861 -0.1306  0.1233
  758MOL0     C 2207   9.807   7.991   5.710 -0.0637  0.5768 -0.5672
  758MOL0     C 2208   9.689   8.075   5.754 -0.8953  0.3903  0.9721
  758MOL0     C 2209   9.562   8.020   5.688  0.1013  0.7222 -1.2067
  758MOL0     C 2210   9.438   8.100   5.736  0.0605  0.3302  0.2164
  758MOL0     C 2211   9.406   8.101   5.886  0.5288 -0.0274  0.0283
  758MOL0     N 2212   9.299   8.203   5.901 -0.8973  0.5008 -0.2126
  758MOL0     C 2213   9.304   8.342   5.885  0.9221  0.4293  0.8780
  758MOL0     C 2214   9.178   8.369   5.908 -0.4121  0.6102 -0.6511
  758MOL0     C 2215   9.109   8.504   5.902 -0.1382 -0.2793  0.7435
  758MOL0     C 2216   9.147   8.589   6.012  0.1505 -0.8628  0.4850
  758MOL0     C 2217   9.094   8.553   6.147  0.6555  0.8710 -0.3401
  758MOL0     C 2218   8.937   8.574   6.162  0.3705  0.9863 -0.5276
  758MOL0     O 2219   8.882   8.515   6.281 -0.4387  0.0486 -0.7406
  758MOL0     C 2220   8.846   8.597   6.383 -0.0703  0.0927 -0.9788
  758MOL0     C 2221   8.921   8.613   6.498 -0.3675  0.6219  0.1703
  758MOL0     C 2222   8.887   8.706   6.598 -0.4144  1.2171  0.6298
  758MOL0     C 2223   8.989   8.721   6.712  0.0456  0.0809 -1.1588
  758MOL0     C 2224   8.766   8.780   6.580  0.2330  0.4001 -0.0629
  758MOL0     C 2225   8.719   8.886   6.669  0.4400 -0.5733 -0.0663
  758MOL0     O 2226   8.812   8.939   6.759 -0.1011  0.2411  0.6379
  758MOL0     C 2227   8.772   9.028   6.851  0.7500 -0.6810 -0.1617
  758MOL0     C 2228   8.695   8.996   6.964 -0.7576 -1.1851 -0.5171
  758MOL0     C 2229   8.661   9.098   7.052 -0.2428  0.2580 -0.6219
  758MOL0     C 2230   8.697   9.239   7.031 -0.5160 -0.1871 -0.1132
  758MOL0     O 2231   8.664   9.332   7.126 -0.1670 -0.5708  0.0948
  758MOL0     C 2232   8.671   9.469   7.100  0.2494 -0.7852 -0.9724
  758MOL0     C 2233   8.756   9.542   7.214  0.5930  0.0827  0.2730
  758MOL0     C 2234   8.674   9.543   7.349 -0.3218  1.2965  0.0147
  758MOL0     C 2235   8.576   9.654   7.379 -0.0484 -0.4864  0.3409
  758MOL0     C 2236   8.478   9.619   7.489  0.1908 -0.6990  0.0269
  758MOL0     C 2237   8.520   9.674   7.627 -0.2983  0.4570 -0.2521
  758MOL0     C 2238   8.648   9.607   7.671 -0.1238  1.1549 -0.3899
  758MOL0     C 2239   8.668   9.612   7.825 -0.1085  0.3512 -0.1080
  758MOL0    Cl 2240   8.668   9.789   7.873 -0.0025  0.1378 -0.0403
  758MOL0     C 2241   8.778   9.262   6.920  0.9683 -0.2449 -0.3630
  758MOL0     C 2242   8.807   9.160   6.831  1.2500  0.8360  0.5205
  758MOL0     O 2243   8.613   8.935   6.645 -0.0662 -0.8156 -0.4023
  758MOL0     C 2244   8.694   8.766   6.458 -0.6620 -0.4011  0.0900
  758MOL0     C 2245   8.729   8.666   6.371 -0.7699 -0.0585  0.4085
  758MOL0     N 2246   9.097   8.263   5.955 -0.5336  1.0663  0.0579
  758MOL0     N 2247   9.173   8.163   5.951 -0.3976  0.6878  0.7225
  758MOL0     C 2248  10.447   7.979   5.891 -0.0266 -0.2536 -1.0362
  758MOL0     C 2249  10.554   7.969   5.985  0.4159  0.8866  0.0418
  758MOL0     C 2250  10.932   7.846   6.169  0.5079 -0.1160  0.3185
  758MOL0     C 2251  10.985   7.857   6.298 -0.1634  0.6463 -0.1199
  758MOL0     C 2252  11.119   7.855   6.313 -0.5096 -0.4008 -0.2029
  758MOL0     C 2253  11.204   7.834   6.207  0.4569  0.1319  0.8493
  758MOL0     O 2254  11.334   7.811   6.221  0.3644  0.1750  0.3509
  758MOL0     C 2255  11.417   7.928   6.259  0.0253  0.0763 -0.7308
  758MOL0     C 2256  11.541   7.871   6.313  0.6186  0.7979  0.9906
  758MOL0     C 2257  11.646   7.844   6.201 -0.3445  0.2754 -0.1676
  758MOL0     C 2258  11.792   7.816   6.247 -0.0141 -1.1291 -0.2485
  758MOL0     C 2259  11.793   7.728   6.366 -0.2515  0.3708  0.2924
  758MOL0     C 2260  11.788   7.639   6.446  0.1319  0.1272 -0.6461
  758MOL0     C 2261  11.155   7.828   6.073 -0.7215  0.0152 -0.7577
  758MOL0     C 2262  11.010   7.832   6.060 -0.2088 -1.2457 -0.5970
  758MOL0     H 2263  10.565   7.624   5.975  0.0609  0.0295  0.4618
  758MOL0     H 2264  10.359   7.661   5.834 -0.0626  0.3361 -0.6954
  758MOL0     H 2265  10.183   8.017   5.882  2.9822  5.1299 -1.0490
  758MOL0     H 2266  10.224   8.079   5.721 -2.3669  2.0709  1.5599
  758MOL0     H 2267  10.052   7.927   5.615 -0.2526  0.2090 -0.6044
  758MOL0     H 2268  10.032   7.857   5.779 -0.4565  1.3423  2.6308
  758MOL0     H 2269   9.930   8.087   5.844 -3.7875 -2.4962  0.5856
  758MOL0     H 2270   9.953   8.153   5.677 -0.0117 -0.8284 -0.8327
  758MOL0     H 2271   9.803   7.961   5.605  0.2524 -0.7921 -0.2148
  758MOL0     H 2272   9.803   7.896   5.764  1.1675 -0.4938 -2.2400
  758MOL0     H 2273   9.691   8.082   5.863 -1.1339  1.7797  0.9065
  758MOL0     H 2274   9.705   8.172   5.707 -1.1430 -1.1260 -2.5721
  758MOL0     H 2275   9.570   8.029   5.580 -0.7502 -2.1208 -1.5866
  758MOL0     H 2276   9.561   7.911   5.702 -1.2929  0.4403 -3.2223
  758MOL0     H 2277   9.441   8.203   5.698 -1.8257  0.7930  1.1828
  758MOL0     H 2278   9.353   8.050   5.689  1.6942  0.1703 -2.8527
  758MOL0     H 2279   9.500   8.118   5.940  1.5490  0.4486 -1.8079
  758MOL0     H 2280   9.360   8.004   5.907 -0.2164 -0.0551 -1.6034
  758MOL0     H 2281   9.383   8.402   5.841 -1.9852  1.1747 -4.1901
  758MOL0     H 2282   9.136   8.547   5.804  1.3082  0.4028  1.4087
  758MOL0     H 2283   9.000   8.499   5.909 -0.3521  1.6891 -0.3409
  758MOL0     H 2284   9.103   8.688   6.000 -2.1978 -1.8531  0.3717
  758MOL0     H 2285   9.256   8.595   6.023 -0.0378 -0.1517  2.4147
  758MOL0     H 2286   9.152   8.621   6.211  0.6300 -0.3061  0.9681
  758MOL0     H 2287   9.120   8.451   6.175 -3.0712 -0.3659 -0.8439
  758MOL0     H 2288   8.882   8.522   6.083 -0.6542  2.3723 -0.7744
  758MOL0     H 2289   8.916   8.681   6.155  1.5151  1.1888 -1.2708
  758MOL0     H 2290   9.016   8.561   6.497  0.0686  1.3647  1.1978
  758MOL0     H 2291   9.077   8.656   6.704  1.4054  1.5471  0.8070
  758MOL0     H 2292   9.023   8.824   6.728  0.7533 -0.0505 -1.7444
  758MOL0     H 2293   8.925   8.702   6.799 -2.3937  2.0961 -2.4054
  758MOL0     H 2294   8.659   8.895   6.977  0.8955 -1.4613  3.2336
  758MOL0     H 2295   8.608   9.080   7.145 -0.6915  1.4329 -0.6312
  758MOL0     H 2296   8.714   9.494   7.003  4.4149 -2.1527  0.3377
  758MOL0     H 2297   8.569   9.508   7.101  0.9412  1.2172 -2.3885
  758MOL0     H 2298   8.841   9.473   7.228 -1.0625 -2.0301  0.3920
  758MOL0     H 2299   8.781   9.641   7.177  0.3746  0.4345  1.0526
  758MOL0     H 2300   8.758   9.561   7.416  0.6875 -2.3735 -0.0479
  758MOL0     H 2301   8.641   9.441   7.374  0.6873  1.1339  0.7267
  758MOL0     H 2302   8.640   9.737   7.411 -0.9726  0.1434  0.6043
  758MOL0     H 2303   8.524   9.699   7.293  2.2723  1.9257  0.0698
  758MOL0     H 2304   8.467   9.511   7.495 -1.0083 -0.6611 -1.0090
  758MOL0     H 2305   8.386   9.673   7.467  1.1187  0.8930 -0.1343
  758MOL0     H 2306   8.539   9.781   7.616 -1.5251  0.6450 -0.6256
  758MOL0     H 2307   8.437   9.673   7.699  2.3720 -0.1414  3.0908
  758MOL0     H 2308   8.726   9.656   7.612 -1.3210  2.0103 -1.3184
  758MOL0     H 2309   8.647   9.503   7.638  2.2813  0.6777  0.8547
  758MOL0     H 2310   8.758   9.553   7.845  0.3198  0.7004 -0.9350
  758MOL0     H 2311   8.588   9.554   7.872 -0.0888 -1.0588 -1.7003
  758MOL0     H 2312   8.816   9.362   6.904  0.8429 -0.4761 -2.4184
  758MOL0     H 2313   8.874   9.191   6.751  0.2400 -0.6019 -0.9416
  758MOL0     H 2314   8.604   8.823   6.438  0.1835  0.3575 -1.7592
  758MOL0     H 2315   8.675   8.651   6.278  0.1714  0.3422 -0.2117
  758MOL0     H 2316  10.401   8.075   5.876  0.1647  0.0212  0.0524
  758MOL0     H 2317  10.596   8.063   6.017 -0.6332  1.4556 -0.1928
  758MOL0     H 2318  10.920   7.865   6.384 -2.2780  2.6430 -1.7644
  758MOL0     H 2319  11.155   7.851   6.416 -0.8577 -3.6326 -0.0969
  758MOL0     H 2320  11.436   7.994   6.174  1.8501  0.2317 -0.2570
  758MOL0     H 2321  11.363   7.985   6.334 -1.4004  0.0785 -1.7187
  758MOL0     H 2322  11.516   7.782   6.373  0.7048 -0.4179 -0.6874
  758MOL0     H 2323  11.594   7.949   6.368  0.8047  1.0116  0.5134
  758MOL0     H 2324  11.639   7.938   6.147 -2.5464  0.6476  0.6657
  758MOL0     H 2325  11.616   7.759   6.138  0.6509  0.9139 -1.5589
  758MOL0     H 2326  11.857   7.900   6.272  1.5046 -2.4215  0.3442
  758MOL0     H 2327  11.830   7.770   6.154 -2.8669  0.4998 -2.3617
  758MOL0     H 2328  11.765   7.561   6.516  1.0429  0.6205  0.2351
  758MOL0     H 2329  11.209   7.803   5.982 -1.2532  0.2552 -1.1483
  758MOL0     H 2330  10.955   7.834   5.967 -0.1473 -2.0515 -0.6618
  759MOL0     O 2331   2.257   3.335   8.627 -0.5309 -0.7492  0.5695
  759MOL0     C 2332   2.294   3.298   8.731 -0.7723  1.0355 -0.0792
  759MOL0     O 2333   2.216   3.299   8.839 -0.4523 -0.0907 -0.1104
  759MOL0     C 2334   2.073   3.295   8.818  0.5179 -0.5580 -0.6428
  759MOL0     C 2335   2.015   3.221   8.725 -0.3249  0.3810 -0.0133
  759MOL0     C 2336   1.871   3.210   8.734 -0.2072 -0.0658 -0.3198
  759MOL0     C 2337   1.789   3.290   8.815  0.0001  0.6078  0.0768
  759MOL0     O 2338   1.658   3.268   8.814  0.6089 -0.9679  0.1617
  759MOL0     C 2339   1.572   3.351   8.900  0.9362 -0.4933 -0.6396
  759MOL0     C 2340   1.545   3.278   9.023  0.5783  0.4704 -0.2449
  759MOL0     C 2341   1.521   3.129   9.010 -0.7682  0.1304  0.5617
  759MOL0     C 2342   1.492   3.071   9.146  0.0693  0.4087 -0.0767
  759MOL0     C 2343   1.343   3.083   9.173  0.6439 -0.1220  0.6125
  759MOL0     C 2344   1.249   2.997   9.086  0.1506  0.6307 -0.7279
  759MOL0     C 2345   1.122   2.945   9.166 -0.4517  0.2714  0.1465
  759MOL0     C 2346   1.031   3.061   9.219  0.0166 -1.1722  0.6562
  759MOL0     N 2347   0.916   3.010   9.303 -0.0189  0.5311  0.1499
  759MOL0     C 2348   0.793   2.964   9.258 -0.2225 -0.2474  0.2249
  759MOL0     C 2349   0.709   2.966   9.366 -0.0131 -0.2127 -0.1909
  759MOL0     C 2350   0.572   2.907   9.358 -1.2012  0.4334  0.2767
  759MOL0     C 2351   0.473   2.947   9.466 -0.0492 -0.2272 -1.3212
  759MOL0     C 2352   0.349   2.847   9.459  0.1739  0.3434 -0.9795
  759MOL0     C 2353   0.266   2.876   9.580  0.2459  0.2756 -0.3907
  759MOL0     O 2354   0.160   2.964   9.549 -0.3483  0.9072  0.0751
  759MOL0     C 2355   0.094   3.019   9.650  1.3421 -0.9250 -0.0237
  759MOL0     C 2356  -0.044   3.033   9.631  0.7987 -0.3319 -0.0293
  759MOL0     C 2357  -0.122   3.114   9.715  0.6686  0.1025  0.3599
  759MOL0     C 2358  -0.270   3.135   9.696  0.2378  0.6635  0.4198
  759MOL0     C 2359  -0.064   3.154   9.842 -0.7720  0.2462  0.6481
  759MOL0     C 2360  -0.132   3.220   9.955 -0.5695  0.3123 -0.0719
  759MOL0     O 2361  -0.199   3.343   9.934 -0.7849  0.6260  0.1211
  759MOL0     C 2362  -0.283   3.407  10.020  0.5514  0.0487  0.8248
  759MOL0     C 2363  -0.355   3.338  10.122  0.3183  0.4229  0.0633
  759MOL0     C 2364  -0.446   3.401  10.207 -0.2142 -0.6257  0.1458
  759MOL0     C 2365  -0.449   3.540  10.204 -0.0574  0.5274 -0.1884
  759MOL0     O 2366  -0.538   3.620  10.273 -0.0690 -0.2408 -0.4588
  759MOL0     C 2367  -0.647   3.549  10.324 -0.4540  0.4953 -0.3351
  759MOL0     C 2368  -0.738   3.659  10.375 -0.0945  0.0178 -0.9731
  759MOL0     C 2369  -0.789   3.755  10.267 -0.3855  0.6198 -0.4101
  759MOL0     C 2370  -0.832   3.891  10.332  0.1578 -0.1374  0.4505
  759MOL0     C 2371  -0.964   3.908  10.413 -0.1095 -0.0922 -0.1590
  759MOL0     C 2372  -0.968   4.029  10.509  0.3727  0.1419 -0.2091
  759MOL0     C 2373  -1.112   4.044  10.568  0.4133  0.5062  0.4067
  759MOL0     C 2374  -1.114   4.138  10.694  1.0319  0.2254 -0.1684
  759MOL0    Cl 2375  -1.092   4.303  10.642 -0.1631  0.1137  0.5789
  759MOL0     C 2376  -0.361   3.616  10.116 -0.3041 -0.4512  0.3944
  759MOL0     C 2377  -0.273   3.548  10.028  0.2900 -0.3234  0.4826
  759MOL0     O 2378  -0.126   3.158  10.067  0.2731 -0.2252  1.2088
  759MOL0     C 2379   0.077   3.136   9.859 -0.1859  0.3664  0.4618
  759MOL0     C 2380   0.152   3.074   9.762 -0.6905 -0.4871 -0.6327
  759MOL0     N 2381   0.792   2.990   9.478 -0.1870  0.2398  0.6312
  759MOL0     N 2382   0.911   3.012   9.437 -0.6713 -0.2290 -0.3312
  759MOL0     C 2383   1.864   3.356   8.914 -0.9860  0.6800 -0.2555
  759MOL0     C 2384   2.004   3.364   8.920  0.0723 -1.1601  0.2302
  759MOL0     C 2385   2.440   3.270   8.743  0.0642 -0.9046  0.6796
  759MOL0     C 2386   2.523   3.244   8.626 -0.2450  0.8317 -0.6478
  759MOL0     C 2387   2.652   3.196   8.634  0.0025 -0.1566  0.1988
  759MOL0     C 2388   2.709   3.191   8.764 -0.0884  0.1486 -1.0113
  759MOL0     O 2389   2.844   3.155   8.787 -0.1299 -0.3043  0.0278
  759MOL0     C 2390   2.920   3.150   8.673 -0.4366  0.5818  0.5253
  759MOL0     C 2391   3.062   3.112   8.704 -0.4984 -0.7593  0.5874
  759MOL0     C 2392   3.148   3.151   8.589 -0.4752  0.0930 -1.4152
  759MOL0     C 2393   3.300   3.129   8.624  0.7154  0.5195  0.8109
  759MOL0     C 2394   3.338   3.232   8.721  0.1356  0.0945 -0.4904
  759MOL0     C 2395   3.380   3.316   8.790 -0.0726 -0.2109 -0.7049
  759MOL0     C 2396   2.628   3.215   8.883 -0.8746 -0.3047  0.7037
  759MOL0     C 2397   2.493   3.254   8.873 -0.2610 -0.3792  0.6746
  759MOL0     H 2398   2.054   3.164   8.641 -1.9574 -1.9786  0.7446
  759MOL0     H 2399   1.808   3.164   8.658 -2.9504  3.1203 -0.1953
  759MOL0     H 2400   1.622   3.446   8.919  0.9195 -0.5592 -0.2530
  759MOL0     H 2401   1.471   3.372   8.864  0.0647 -1.9959  0.7994
  759MOL0     H 2402   1.636   3.286   9.082  1.3413 -0.2637 -1.2745
  759MOL0     H 2403   1.462   3.326   9.075  1.1152  0.2827  0.8211
  759MOL0     H 2404   1.446   3.108   8.933  1.7624 -0.0335 -2.0616
  759MOL0     H 2405   1.614   3.079   8.979 -0.0954  2.6911 -1.9337
  759MOL0     H 2406   1.526   2.967   9.146 -1.2436 -0.0572  1.5455
  759MOL0     H 2407   1.545   3.127   9.223 -1.3740  2.3899 -0.4411
  759MOL0     H 2408   1.329   3.059   9.279 -0.8129  1.1857  0.7443
  759MOL0     H 2409   1.324   3.190   9.175 -1.1268 -0.3751  3.8010
  759MOL0     H 2410   1.204   3.051   9.002 -1.5682 -2.2228 -1.7765
  759MOL0     H 2411   1.306   2.914   9.043  0.5232  0.6909 -0.3587
  759MOL0     H 2412   1.070   2.878   9.097 -0.5494  0.9463 -0.4400
  759MOL0     H 2413   1.161   2.891   9.253 -0.8009 -1.1932 -0.5748
  759MOL0     H 2414   0.987   3.123   9.140 -1.8820 -2.0892  0.9303
  759MOL0     H 2415   1.088   3.123   9.288  0.4282  2.1427 -2.3731
  759MOL0     H 2416   0.761   2.938   9.157 -1.7039  1.6137  0.1631
  759MOL0     H 2417   0.518   2.923   9.265 -0.8645 -1.8214 -0.3438
  759MOL0     H 2418   0.598   2.801   9.361  3.7123  1.1337 -3.4365
  759MOL0     H 2419   0.439   3.051   9.458 -5.7781 -1.6850 -0.4039
  759MOL0     H 2420   0.521   2.923   9.561  0.0769  0.2636 -1.2577
  759MOL0     H 2421   0.389   2.746   9.464 -1.1035 -0.1525 -0.3102
  759MOL0     H 2422   0.298   2.864   9.363  2.4921  1.4480 -2.1006
  759MOL0     H 2423   0.335   2.911   9.656  0.8903 -2.7467  0.5385
  759MOL0     H 2424   0.222   2.786   9.625  0.8567  0.9862  1.7184
  759MOL0     H 2425  -0.076   3.007   9.530  0.0261  1.3207 -0.2496
  759MOL0     H 2426  -0.294   3.164   9.593  0.1370 -0.9029 -0.0274
  759MOL0     H 2427  -0.326   3.042   9.710 -2.6390  1.9137 -1.8277
  759MOL0     H 2428  -0.310   3.207   9.768 -0.6597  1.8528 -1.2024
  759MOL0     H 2429  -0.340   3.231  10.118 -0.7643  0.2215  0.8034
  759MOL0     H 2430  -0.501   3.332  10.270  0.2544 -1.2223 -0.0917
  759MOL0     H 2431  -0.694   3.491  10.244  0.9838  0.2838 -1.0698
  759MOL0     H 2432  -0.617   3.479  10.402 -1.3740 -1.4584 -1.6679
  759MOL0     H 2433  -0.823   3.626  10.435  0.6234 -0.1485 -0.0120
  759MOL0     H 2434  -0.682   3.719  10.447 -0.8021  1.1815 -1.3726
  759MOL0     H 2435  -0.876   3.721  10.211 -0.9934  1.3390  0.0797
  759MOL0     H 2436  -0.710   3.773  10.192 -0.5826 -1.0253 -1.0542
  759MOL0     H 2437  -0.757   3.909  10.409  0.0073 -0.0728  0.5806
  759MOL0     H 2438  -0.838   3.961  10.248 -2.2912 -1.0008 -0.1719
  759MOL0     H 2439  -0.977   3.815  10.468  2.4360 -1.3162 -1.4467
  759MOL0     H 2440  -1.048   3.919  10.344  0.7241 -0.6021 -1.2845
  759MOL0     H 2441  -0.898   4.002  10.588  1.5099  2.2752 -0.4079
  759MOL0     H 2442  -0.935   4.119  10.455 -0.2886 -0.0842 -1.0090
  759MOL0     H 2443  -1.146   3.945  10.598 -1.1709  0.9610  0.2321
  759MOL0     H 2444  -1.189   4.081  10.500  0.1495  1.4501  1.1789
  759MOL0     H 2445  -1.051   4.100  10.775 -0.9205 -2.3510  0.3032
  759MOL0     H 2446  -1.218   4.123  10.727  0.5391  2.3248 -0.6483
  759MOL0     H 2447  -0.372   3.724  10.122 -1.3741 -0.4715 -0.6625
  759MOL0     H 2448  -0.206   3.584   9.951  0.7084 -1.4948  0.2811
  759MOL0     H 2449   0.124   3.162   9.953  1.2012 -0.4630  0.0219
  759MOL0     H 2450   0.258   3.066   9.784 -0.5858  1.0818 -0.4564
  759MOL0     H 2451   1.808   3.405   8.994 -2.2656  1.5560 -1.6475
  759MOL0     H 2452   2.051   3.416   9.003 -0.4637  0.8779 -0.6728
  759MOL0     H 2453   2.471   3.257   8.532  0.0313 -0.6544 -1.0310
  759MOL0     H 2454   2.704   3.174   8.541 -0.1814 -0.2024  0.1078
  759MOL0     H 2455   2.881   3.077   8.601  1.3285 -0.4249  0.5316
  759MOL0     H 2456   2.920   3.248   8.624  1.2539 -0.9080 -2.7733
  759MOL0     H 2457   3.069   3.003   8.708  3.3760 -0.8573 -2.2778
  759MOL0     H 2458   3.101   3.159   8.795  2.8620 -0.7991 -0.6853
  759MOL0     H 2459   3.136   3.257   8.561  2.4986  1.3136  1.3005
  759MOL0     H 2460   3.124   3.089   8.503 -0.5162 -1.3857 -0.3700
  759MOL0     H 2461   3.351   3.156   8.531 -4.9113  3.6109 -1.9254
  759MOL0     H 2462   3.320   3.023   8.643 -0.3983  0.2823  0.7360
  759MOL0     H 2463   3.426   3.393   8.848 -0.7130 -1.3208  1.3835
  759MOL0     H 2464   2.683   3.204   8.976  2.3941 -2.3549 -1.2923
  759MOL0     H 2465   2.436   3.274   8.963 -2.2259 -1.8873 -0.1738
  760MOL0     O 2466   4.027   7.699  10.441 -0.3024  0.2881 -0.4838
  760MOL0     C 2467   4.039   7.714  10.320  0.4633 -0.0689  0.6280
  760MOL0     O 2468   3.932   7.740  10.238 -0.7444  0.0575  0.1576
  760MOL0     C 2469   3.821   7.794  10.296 -0.2071  0.1816  0.2814
  760MOL0     C 2470   3.708   7.715  10.303  0.4455  0.1554 -0.8045
  760MOL0     C 2471   3.594   7.761  10.367  1.0599  0.0515  0.0132
  760MOL0     C 2472   3.578   7.896  10.408 -1.0206  0.4797 -0.6509
  760MOL0     O 2473   3.468   7.956  10.463  0.2370  0.2312 -0.2140
  760MOL0     C 2474   3.360   7.874  10.473 -0.4858 -0.0707  0.9710
  760MOL0     C 2475   3.245   7.938  10.533  0.7442  0.5224 -0.3920
  760MOL0     C 2476   3.176   8.049  10.450  0.5990 -0.0392 -0.2211
  760MOL0     C 2477   3.041   8.098  10.513 -0.1456  0.8522  0.7357
  760MOL0     C 2478   3.034   8.250  10.490  0.5478 -0.0998 -1.0851
  760MOL0     C 2479   2.987   8.305  10.351  0.5216 -0.1527 -0.5090
  760MOL0     C 2480   2.891   8.209  10.277  0.7081  0.4231 -0.5644
  760MOL0     C 2481   2.755   8.179  10.359 -0.1483 -0.7028  0.5679
  760MOL0     N 2482   2.684   8.300  10.403  0.8058  0.6232 -0.0865
  760MOL0     C 2483   2.642   8.330  10.537  0.2666 -0.5812  0.1518
  760MOL0     C 2484   2.585   8.454  10.525  0.6949  0.1137  0.1251
  760MOL0     C 2485   2.530   8.523  10.645 -0.3944  0.0655  0.7925
  760MOL0     C 2486   2.374   8.523  10.635 -0.6099  0.0642 -0.0487
  760MOL0     C 2487   2.308   8.593  10.755 -0.0966 -0.1022  0.8082
  760MOL0     C 2488   2.346   8.531  10.892  0.0793  0.0524 -0.7638
  760MOL0     O 2489   2.328   8.394  10.883 -0.0722 -0.3437  0.3495
  760MOL0     C 2490   2.206   8.352  10.911  0.1784 -0.8373  0.0496
  760MOL0     C 2491   2.082   8.427  10.921 -0.3036  0.8595 -0.2568
  760MOL0     C 2492   1.964   8.358  10.937 -0.4683  0.4593  0.2652
  760MOL0     C 2493   1.841   8.433  10.925 -0.9032  0.0988  0.2399
  760MOL0     C 2494   1.962   8.213  10.964 -0.0795 -0.8821 -0.1025
  760MOL0     C 2495   1.844   8.128  10.989  0.3415  0.3314  0.1512
  760MOL0     O 2496   1.876   8.004  11.040 -0.0522 -0.0664  0.1181
  760MOL0     C 2497   1.778   7.916  11.087  0.6552 -0.6163 -0.2714
  760MOL0     C 2498   1.699   7.944  11.201  0.3160 -0.4251  0.8338
  760MOL0     C 2499   1.593   7.862  11.233  0.4061  0.5731 -0.6361
  760MOL0     C 2500   1.566   7.744  11.158  0.3352  0.1005  1.1050
  760MOL0     O 2501   1.459   7.650  11.169 -0.1205 -0.7039  0.7274
  760MOL0     C 2502   1.380   7.650  11.288  0.7446 -0.7953 -0.1968
  760MOL0     C 2503   1.269   7.541  11.274  0.5607 -0.7937  0.1140
  760MOL0     C 2504   1.202   7.536  11.131  0.3095  0.5712 -0.6046
  760MOL0     C 2505   1.110   7.659  11.119 -0.3262  0.6285  0.1186
  760MOL0     C 2506   1.024   7.654  10.996 -0.3639  0.4005 -0.1577
  760MOL0     C 2507   0.913   7.758  11.005 -0.1513 -0.6892  0.6463
  760MOL0     C 2508   0.816   7.766  10.879 -0.5058  0.0174 -0.7108
  760MOL0     C 2509   0.866   7.833  10.755 -0.1171 -0.0559  0.7367
  760MOL0    Cl 2510   0.900   8.002  10.788  0.5736 -0.7932 -0.1837
  760MOL0     C 2511   1.659   7.717  11.060 -0.5270  0.1496  0.4322
  760MOL0     C 2512   1.770   7.799  11.023  0.6318  0.0812  0.0646
  760MOL0     O 2513   1.732   8.176  10.992 -0.1916  0.0390 -0.7907
  760MOL0     C 2514   2.090   8.153  10.974  0.5773  0.1830  0.4721
  760MOL0     C 2515   2.204   8.219  10.938 -0.4419  0.8107  0.4109
  760MOL0     N 2516   2.610   8.503  10.392  0.9975 -0.1422 -0.0222
  760MOL0     N 2517   2.646   8.398  10.317 -0.3962  0.4644 -0.6181
  760MOL0     C 2518   3.689   7.978  10.391 -0.4458 -0.2898 -0.7450
  760MOL0     C 2519   3.813   7.932  10.340 -0.0562  1.1436  0.4774
  760MOL0     C 2520   4.164   7.693  10.249 -0.5140  0.0901  0.2142
  760MOL0     C 2521   4.279   7.640  10.312 -0.5095 -0.2274  0.0784
  760MOL0     C 2522   4.400   7.617  10.244 -0.4390 -0.3456  0.3743
  760MOL0     C 2523   4.423   7.648  10.110 -0.0647 -0.4605  0.1206
  760MOL0     O 2524   4.535   7.620  10.036 -1.0190 -0.6957  0.7793
  760MOL0     C 2525   4.648   7.571  10.102  0.3548 -0.0848 -0.4153
  760MOL0     C 2526   4.760   7.577   9.998 -0.2419  0.2207 -0.1966
  760MOL0     C 2527   4.870   7.481  10.040  0.2196 -0.1993 -0.2872
  760MOL0     C 2528   4.997   7.520   9.966  0.2895  0.2588  1.0125
  760MOL0     C 2529   5.113   7.485  10.050  1.0481  0.3489 -1.6215
  760MOL0     C 2530   5.216   7.475  10.119  0.6189  0.4755  0.4269
  760MOL0     C 2531   4.312   7.693  10.035 -1.3707  0.2004  0.2977
  760MOL0     C 2532   4.187   7.721  10.111  0.0967 -0.2927  0.3829
  760MOL0     H 2533   3.711   7.620  10.251  2.0054 -0.4588  0.3446
  760MOL0     H 2534   3.509   7.694  10.371  0.3339  0.8367 -1.5398
  760MOL0     H 2535   3.343   7.841  10.370 -1.2333 -0.0369  1.0781
  760MOL0     H 2536   3.386   7.789  10.536  1.6097  1.0383  1.7058
  760MOL0     H 2537   3.175   7.854  10.538 -1.0525  1.7497 -2.9075
  760MOL0     H 2538   3.275   7.974  10.632  1.3648  1.1496 -0.8030
  760MOL0     H 2539   3.249   8.130  10.443  1.6317 -0.7215  1.9697
  760MOL0     H 2540   3.152   8.008  10.351  0.1645 -1.2820  0.3850
  760MOL0     H 2541   2.959   8.038  10.473  1.0038  1.3925 -2.7568
  760MOL0     H 2542   3.034   8.061  10.615  1.9120 -1.2747  0.1948
  760MOL0     H 2543   2.970   8.306  10.559  0.3035 -1.6318 -0.0062
  760MOL0     H 2544   3.134   8.292  10.499 -0.4527  2.4156 -0.6684
  760MOL0     H 2545   2.933   8.398  10.371  0.4959 -0.2583 -0.0987
  760MOL0     H 2546   3.076   8.332  10.293  0.1366  0.2621 -0.9224
  760MOL0     H 2547   2.871   8.252  10.179 -0.6110 -0.9494 -0.9291
  760MOL0     H 2548   2.940   8.118  10.243  1.8399  2.0677 -3.6371
  760MOL0     H 2549   2.763   8.112  10.446  0.9909 -0.4760  0.6561
  760MOL0     H 2550   2.684   8.129  10.292 -3.8004  3.5915  0.8213
  760MOL0     H 2551   2.637   8.264  10.623 -0.7156 -1.2503 -0.3897
  760MOL0     H 2552   2.576   8.473  10.731 -1.6173 -3.6694 -0.5333
  760MOL0     H 2553   2.565   8.627  10.641 -0.0604 -0.0703  0.1251
  760MOL0     H 2554   2.343   8.419  10.623 -0.0886  0.0130 -1.0392
  760MOL0     H 2555   2.344   8.584  10.549 -0.5324  1.2294  0.7166
  760MOL0     H 2556   2.200   8.587  10.744 -0.0234 -0.8979  0.4119
  760MOL0     H 2557   2.342   8.697  10.759 -2.7260  0.7991  1.6026
  760MOL0     H 2558   2.285   8.580  10.969 -2.7605 -0.4584 -2.5527
  760MOL0     H 2559   2.450   8.556  10.915 -1.0244  3.3042  1.4696
  760MOL0     H 2560   2.083   8.535  10.921 -3.2395  0.9857  1.4424
  760MOL0     H 2561   1.788   8.428  11.020 -2.0021  1.1516 -0.2750
  760MOL0     H 2562   1.863   8.539  10.910 -0.7353  0.0496  0.1300
  760MOL0     H 2563   1.781   8.393  10.843  0.2242 -0.2535 -0.4325
  760MOL0     H 2564   1.716   8.031  11.264  1.6877  1.6748 -2.1239
  760MOL0     H 2565   1.536   7.879  11.324  1.4627 -2.7764  0.8258
  760MOL0     H 2566   1.442   7.631  11.375 -0.4860 -0.3717  0.8007
  760MOL0     H 2567   1.327   7.745  11.298  0.7275 -0.5343 -2.3199
  760MOL0     H 2568   1.303   7.439  11.297 -1.6097 -0.9417  3.3490
  760MOL0     H 2569   1.192   7.566  11.347 -0.2763 -0.1984 -0.9598
  760MOL0     H 2570   1.157   7.437  11.121  2.2159 -0.4776  0.5298
  760MOL0     H 2571   1.285   7.539  11.059  1.1839 -1.1280  0.2496
  760MOL0     H 2572   1.061   7.662  11.217  1.0547 -2.8474  1.0491
  760MOL0     H 2573   1.161   7.755  11.103  1.4968 -0.5797 -1.6951
  760MOL0     H 2574   0.980   7.554  11.005  0.0423  0.2007 -0.3419
  760MOL0     H 2575   1.074   7.660  10.899  1.8381 -2.0967  0.6850
  760MOL0     H 2576   0.862   7.742  11.101  0.0364 -1.7177  0.5807
  760MOL0     H 2577   0.954   7.860  11.004 -1.9995  0.2211 -3.0832
  760MOL0     H 2578   0.719   7.814  10.899 -1.9906 -3.4706  1.4187
  760MOL0     H 2579   0.788   7.665  10.847  0.2140  0.7145 -3.8275
  760MOL0     H 2580   0.787   7.834  10.680 -0.5700  0.7293  1.2100
  760MOL0     H 2581   0.953   7.783  10.710  0.3532  2.3425 -1.2036
  760MOL0     H 2582   1.644   7.626  11.003  0.8483 -1.7775  2.9335
  760MOL0     H 2583   1.840   7.771  10.945 -0.2793 -1.1469 -0.3404
  760MOL0     H 2584   2.105   8.048  10.994 -0.0217 -0.4785 -2.1455
  760MOL0     H 2585   2.294   8.159  10.926 -1.2944 -0.9618  2.2890
  760MOL0     H 2586   3.681   8.083  10.417  2.6401  0.0250 -0.6314
  760MOL0     H 2587   3.897   8.000  10.335  0.5600  0.5231  1.9067
  760MOL0     H 2588   4.279   7.615  10.417 -0.3173 -1.2801 -0.1667
  760MOL0     H 2589   4.480   7.569  10.299  1.1215  0.0137 -1.4427
  760MOL0     H 2590   4.667   7.635  10.189 -1.5123 -2.3392  1.7646
  760MOL0     H 2591   4.632   7.472  10.145 -0.5471 -0.4149 -1.4766
  760MOL0     H 2592   4.789   7.682   9.988  0.1534 -0.0482 -2.5643
  760MOL0     H 2593   4.725   7.536   9.903 -2.5564  2.6872 -0.5376
  760MOL0     H 2594   4.841   7.375  10.041 -2.8193  0.5294  0.2694
  760MOL0     H 2595   4.894   7.497  10.146 -0.0253  0.7145 -0.3661
  760MOL0     H 2596   4.995   7.627   9.949 -2.0739  0.0749 -0.2842
  760MOL0     H 2597   5.004   7.473   9.868  1.9278  1.1533  0.6692
  760MOL0     H 2598   5.316   7.480  10.157  1.3006  1.8410 -1.3999
  760MOL0     H 2599   4.316   7.713   9.928 -0.1210  1.1778  0.4937
  760MOL0     H 2600   4.095   7.747  10.059  1.2029  0.7080 -1.1519
  761MOL0     O 2601   2.889   6.238   5.528 -0.5103 -0.4790 -0.2992
  761MOL0     C 2602   2.932   6.135   5.579  0.2138 -0.3226  0.5558
  761MOL0     O 2603   2.860   6.054   5.662 -1.1179 -0.5369  0.2000
  761MOL0     C 2604   2.755   6.113   5.739 -0.1740 -0.3945  0.1009
  761MOL0     C 2605   2.690   6.021   5.812 -1.1877  0.8574 -0.3246
  761MOL0     C 2606   2.577   6.055   5.877 -1.3471  0.1870 -0.0021
  761MOL0     C 2607   2.542   6.191   5.889 -0.0772 -0.0353 -0.0794
  761MOL0     O 2608   2.430   6.209   5.965  0.3630 -0.7021 -0.2623
  761MOL0     C 2609   2.335   6.294   5.904  0.1823 -0.7993 -0.7536
  761MOL0     C 2610   2.188   6.264   5.949  0.1432  0.2615  0.6279
  761MOL0     C 2611   2.093   6.382   5.914  0.4629  0.0734  0.2927
  761MOL0     C 2612   2.056   6.391   5.761 -0.0988  0.6949  0.2837
  761MOL0     C 2613   1.947   6.481   5.725  0.4482 -0.0072  0.7403
  761MOL0     C 2614   1.809   6.459   5.790 -0.0665 -0.6216  0.5171
  761MOL0     C 2615   1.694   6.493   5.685 -0.7071 -0.2530  0.4862
  761MOL0     C 2616   1.551   6.505   5.741 -0.4159  0.7970  0.3843
  761MOL0     N 2617   1.452   6.544   5.645 -0.5597  0.0936 -0.2880
  761MOL0     C 2618   1.420   6.484   5.523 -0.8649 -0.6284  1.3206
  761MOL0     C 2619   1.314   6.557   5.480 -0.1803 -0.0437 -0.1343
  761MOL0     C 2620   1.252   6.538   5.346 -0.4698  0.3830  0.1667
  761MOL0     C 2621   1.241   6.389   5.292 -0.0365  0.3336 -1.0446
  761MOL0     C 2622   1.151   6.386   5.171  0.3310 -0.6943  0.6454
  761MOL0     C 2623   1.119   6.245   5.122 -0.2708  0.7701 -0.6740
  761MOL0     O 2624   1.061   6.185   5.243 -0.2895 -0.2450 -0.2975
  761MOL0     C 2625   0.925   6.197   5.266 -0.2787  0.5769  0.1604
  761MOL0     C 2626   0.876   6.122   5.368  0.3650 -0.2182  0.5528
  761MOL0     C 2627   0.738   6.115   5.399  0.6226  0.5483  0.4325
  761MOL0     C 2628   0.693   6.021   5.507 -0.1628 -0.3736  0.2666
  761MOL0     C 2629   0.653   6.174   5.298 -0.2603 -0.0234 -0.0686
  761MOL0     C 2630   0.499   6.152   5.301 -0.0687 -0.2706 -0.5920
  761MOL0     O 2631   0.432   6.250   5.232 -0.0584  0.4137  0.2987
  761MOL0     C 2632   0.295   6.221   5.204 -0.6195 -1.4446  0.6520
  761MOL0     C 2633   0.204   6.314   5.263 -0.0738  0.7228 -0.2016
  761MOL0     C 2634   0.067   6.304   5.232 -1.0089 -0.4139 -0.0799
  761MOL0     C 2635   0.021   6.202   5.146 -0.3507  0.0050 -0.7105
  761MOL0     O 2636  -0.105   6.194   5.100 -1.0323  0.5173 -0.0623
  761MOL0     C 2637  -0.218   6.228   5.177  0.3829 -0.5164 -0.3934
  761MOL0     C 2638  -0.327   6.270   5.092  0.1506  0.5780  0.1639
  761MOL0     C 2639  -0.457   6.310   5.170 -0.3382  0.1939 -0.7179
  761MOL0     C 2640  -0.497   6.449   5.129  0.4022  0.0213 -0.0367
  761MOL0     C 2641  -0.631   6.491   5.198 -0.0382  0.5253  0.1855
  761MOL0     C 2642  -0.679   6.622   5.143 -0.3146  0.3072 -0.0120
  761MOL0     C 2643  -0.792   6.695   5.217 -0.0136 -0.1531  0.8417
  761MOL0     C 2644  -0.924   6.618   5.227 -0.1552  0.8498  0.7333
  761MOL0    Cl 2645  -1.009   6.634   5.062 -0.0999 -0.0634  0.2399
  761MOL0     C 2646   0.113   6.113   5.089 -0.9636 -0.1244  0.1404
  761MOL0     C 2647   0.250   6.129   5.116  1.0894 -0.7352 -0.4994
  761MOL0     O 2648   0.452   6.045   5.345 -0.0785  0.0136 -0.4895
  761MOL0     C 2649   0.708   6.256   5.201 -0.1210 -0.3500 -0.4237
  761MOL0     C 2650   0.843   6.272   5.183  0.5539 -0.3584 -0.2878
  761MOL0     N 2651   1.295   6.664   5.567  0.2150  0.4077 -1.1123
  761MOL0     N 2652   1.376   6.659   5.659 -0.4767  0.6278 -0.0950
  761MOL0     C 2653   2.617   6.290   5.835  0.8180  0.4946 -0.3372
  761MOL0     C 2654   2.729   6.251   5.759 -0.1881  0.0898 -0.0447
  761MOL0     C 2655   3.064   6.092   5.529  1.0782  1.5801 -0.6294
  761MOL0     C 2656   3.107   5.954   5.525  0.2629 -0.0537 -1.1113
  761MOL0     C 2657   3.239   5.914   5.499  0.8470 -0.3990 -0.2060
  761MOL0     C 2658   3.333   6.012   5.455  0.1525  0.1659 -1.1454
  761MOL0     O 2659   3.462   5.990   5.430 -0.2336 -0.3919 -0.2695
  761MOL0     C 2660   3.507   5.864   5.489 -0.0713  0.6549 -0.0780
  761MOL0     C 2661   3.657   5.839   5.476  0.2605  0.0620 -0.0865
  761MOL0     C 2662   3.733   5.947   5.552 -0.3574  0.1330  0.0175
  761MOL0     C 2663   3.871   5.960   5.487  1.0065 -0.5433 -1.0247
  761MOL0     C 2664   3.876   6.028   5.354 -0.5651  0.1438 -0.1283
  761MOL0     C 2665   3.882   6.070   5.244 -0.5771  0.0311  0.2970
  761MOL0     C 2666   3.289   6.148   5.447 -0.9053  0.2008  0.2627
  761MOL0     C 2667   3.154   6.187   5.486 -0.4211  0.2697  0.5082
  761MOL0     H 2668   2.712   5.916   5.794 -1.0835  0.6595  0.8509
  761MOL0     H 2669   2.520   5.974   5.920  2.1747 -1.0002  2.9548
  761MOL0     H 2670   2.354   6.397   5.936 -3.3657  0.1638 -1.2985
  761MOL0     H 2671   2.341   6.293   5.795  1.7876  0.9934 -0.7438
  761MOL0     H 2672   2.164   6.175   5.890  0.5971  0.4409  0.1608
  761MOL0     H 2673   2.182   6.235   6.055 -0.5270 -3.4586 -0.3064
  761MOL0     H 2674   2.013   6.361   5.987  1.2590  0.7305  1.3892
  761MOL0     H 2675   2.139   6.475   5.949 -2.3472  1.1980  1.2590
  761MOL0     H 2676   2.142   6.406   5.695  0.2287 -0.1193  0.5191
  761MOL0     H 2677   2.023   6.288   5.744  2.8619 -0.1545 -0.8729
  761MOL0     H 2678   1.973   6.584   5.752  0.1159 -0.0237  1.1368
  761MOL0     H 2679   1.935   6.475   5.617 -1.3080  2.4159  0.7109
  761MOL0     H 2680   1.792   6.354   5.816  0.3365 -1.1839 -1.2985
  761MOL0     H 2681   1.808   6.511   5.886  1.5115 -2.3178  1.5241
  761MOL0     H 2682   1.714   6.592   5.643  1.3578  1.5423  5.0655
  761MOL0     H 2683   1.705   6.419   5.605 -3.5075 -0.8854  0.5544
  761MOL0     H 2684   1.545   6.571   5.828 -0.4466 -1.1729  1.9641
  761MOL0     H 2685   1.535   6.399   5.764  0.5425  0.4339 -0.5548
  761MOL0     H 2686   1.445   6.387   5.480 -2.2913  0.3545 -2.0722
  761MOL0     H 2687   1.157   6.590   5.335  0.0067  1.4556  0.9595
  761MOL0     H 2688   1.327   6.586   5.282  0.0598 -0.1193  0.4069
  761MOL0     H 2689   1.184   6.340   5.372  0.5420  0.1201 -0.7614
  761MOL0     H 2690   1.340   6.346   5.274 -0.1733 -0.9218  0.8765
  761MOL0     H 2691   1.194   6.443   5.088 -0.0344  2.3875  2.3950
  761MOL0     H 2692   1.060   6.440   5.196  0.0969 -0.9184  0.2878
  761MOL0     H 2693   1.208   6.188   5.093 -2.0333 -2.2454 -0.6077
  761MOL0     H 2694   1.059   6.243   5.031 -2.7032 -0.0148  0.8734
  761MOL0     H 2695   0.955   6.084   5.432  2.1024  0.9756 -0.7612
  761MOL0     H 2696   0.604   6.058   5.560 -1.9563 -0.5559 -2.4654
  761MOL0     H 2697   0.655   5.930   5.462 -0.7270  1.3320 -2.9980
  761MOL0     H 2698   0.778   6.006   5.575 -0.9775 -0.1303  1.3829
  761MOL0     H 2699   0.251   6.398   5.313 -2.1031  4.1505 -3.4884
  761MOL0     H 2700  -0.007   6.372   5.272 -0.1500 -0.1173  1.0914
  761MOL0     H 2701  -0.249   6.138   5.231  2.5293 -1.8142 -1.1953
  761MOL0     H 2702  -0.200   6.299   5.257 -0.7564 -2.0400  1.3019
  761MOL0     H 2703  -0.298   6.364   5.044 -2.9112  0.5967 -1.9902
  761MOL0     H 2704  -0.350   6.205   5.007  0.4565  1.6478 -0.7658
  761MOL0     H 2705  -0.442   6.306   5.278 -1.5173  1.6874 -0.4687
  761MOL0     H 2706  -0.538   6.241   5.143  1.8287 -3.8516  2.0098
  761MOL0     H 2707  -0.418   6.519   5.156 -1.0033  1.9700 -0.7713
  761MOL0     H 2708  -0.520   6.452   5.022 -1.2001  2.9138  0.2917
  761MOL0     H 2709  -0.604   6.492   5.304  1.3773 -4.9727  0.2224
  761MOL0     H 2710  -0.706   6.410   5.199  0.8075 -0.3676  3.1333
  761MOL0     H 2711  -0.595   6.691   5.134 -0.2892  0.1079 -1.5021
  761MOL0     H 2712  -0.697   6.599   5.038  1.6644  1.3232 -0.6198
  761MOL0     H 2713  -0.811   6.788   5.163 -0.5691 -1.4880 -1.4112
  761MOL0     H 2714  -0.750   6.720   5.315 -1.3793 -1.0577  1.7002
  761MOL0     H 2715  -0.979   6.672   5.305 -3.2936 -0.4398 -0.4178
  761MOL0     H 2716  -0.909   6.511   5.246 -1.6537  0.5575  0.4027
  761MOL0     H 2717   0.068   6.042   5.019 -3.6788  2.4878 -1.0013
  761MOL0     H 2718   0.326   6.073   5.062  1.7762 -0.1116 -0.1938
  761MOL0     H 2719   0.646   6.320   5.140 -3.3625 -1.6114  1.2757
  761MOL0     H 2720   0.866   6.337   5.099 -0.7568 -0.5377 -0.8197
  761MOL0     H 2721   2.588   6.392   5.857 -0.4458 -0.1110  0.9809
  761MOL0     H 2722   2.783   6.334   5.714 -0.8756 -0.5537 -2.1487
  761MOL0     H 2723   3.044   5.875   5.565  0.9717 -1.4927 -2.6964
  761MOL0     H 2724   3.249   5.810   5.525 -1.4805 -0.0453  2.5922
  761MOL0     H 2725   3.493   5.868   5.597  0.4267  0.7875 -0.0150
  761MOL0     H 2726   3.456   5.775   5.452 -0.4694  0.6819  0.3966
  761MOL0     H 2727   3.685   5.844   5.371  2.9949  2.4335  0.6374
  761MOL0     H 2728   3.677   5.735   5.505  0.0230 -0.4416 -1.6294
  761MOL0     H 2729   3.746   5.910   5.654 -3.3996  0.7204  0.6928
  761MOL0     H 2730   3.682   6.043   5.553 -1.5345 -0.4849  1.0287
  761MOL0     H 2731   3.935   5.872   5.481  0.2132 -1.3973  1.9430
  761MOL0     H 2732   3.930   6.017   5.560  2.2191 -3.1530  0.1550
  761MOL0     H 2733   3.886   6.123   5.151 -2.1169  1.3627  0.9456
  761MOL0     H 2734   3.362   6.226   5.428 -1.9235  0.8688 -1.0370
  761MOL0     H 2735   3.134   6.292   5.503  4.4769  1.0907  3.0287
  762MOL0     O 2736   8.788   1.916   7.784 -0.9780 -0.1769  0.7380
  762MOL0     C 2737   8.778   1.846   7.881 -0.5382  0.1427  0.5988
  762MOL0     O 2738   8.699   1.879   7.990 -0.0698 -0.1931  1.0007
  762MOL0     C 2739   8.693   2.015   8.008  0.1047 -1.2728  0.3060
  762MOL0     C 2740   8.792   2.076   8.089  0.9157 -0.2779  0.2699
  762MOL0     C 2741   8.789   2.209   8.117 -0.1500  0.2078  0.0620
  762MOL0     C 2742   8.687   2.290   8.068  0.5944  0.6415  0.6472
  762MOL0     O 2743   8.693   2.424   8.083  0.1357  0.1636  0.8253
  762MOL0     C 2744   8.818   2.486   8.041  0.7163 -0.2780 -1.0070
  762MOL0     C 2745   8.887   2.551   8.166  0.2590 -0.6496 -0.1934
  762MOL0     C 2746   8.992   2.658   8.118 -0.5774  0.4534  0.8211
  762MOL0     C 2747   9.121   2.593   8.071  0.2036 -0.1206 -0.0762
  762MOL0     C 2748   9.222   2.705   8.047  0.5114 -0.2302  0.5725
  762MOL0     C 2749   9.359   2.663   7.987  0.2853 -1.2154 -1.1351
  762MOL0     C 2750   9.451   2.595   8.086 -0.6350  0.2008  0.6750
  762MOL0     C 2751   9.525   2.481   8.023 -0.2538 -1.0254  0.2916
  762MOL0     N 2752   9.598   2.395   8.115  0.1301 -0.2067 -0.5944
  762MOL0     C 2753   9.722   2.410   8.178 -0.0264  0.4088 -0.5200
  762MOL0     C 2754   9.741   2.277   8.228 -0.1925  0.1255 -0.3366
  762MOL0     C 2755   9.851   2.230   8.323  0.3299 -0.2369  1.4570
  762MOL0     C 2756   9.862   2.318   8.446  0.0919 -0.9084  0.3954
  762MOL0     C 2757   9.747   2.309   8.544 -0.8460 -0.2562  0.6076
  762MOL0     C 2758   9.639   2.418   8.516  0.2797  0.6918  0.5354
  762MOL0     O 2759   9.601   2.479   8.639  0.2856 -0.1723 -0.4150
  762MOL0     C 2760   9.482   2.549   8.634 -0.3393 -0.2478 -0.1301
  762MOL0     C 2761   9.404   2.563   8.745  0.3069 -0.9905  0.0681
  762MOL0     C 2762   9.289   2.651   8.751  1.1453 -0.3478  0.2806
  762MOL0     C 2763   9.206   2.678   8.868 -0.1915 -0.3605 -0.2569
  762MOL0     C 2764   9.256   2.714   8.624  0.1449  0.6449  0.2720
  762MOL0     C 2765   9.153   2.811   8.608  0.9310 -0.1272  1.0983
  762MOL0     O 2766   9.175   2.906   8.513  0.3492  0.1048 -0.6695
  762MOL0     C 2767   9.068   2.986   8.481 -0.0607 -0.5434  0.0420
  762MOL0     C 2768   9.054   3.114   8.550 -0.3320  0.4223  0.1564
  762MOL0     C 2769   8.952   3.200   8.522 -0.6626 -0.0923  0.9668
  762MOL0     C 2770   8.862   3.162   8.419 -0.2034 -1.1531 -0.4873
  762MOL0     O 2771   8.756   3.237   8.382 -0.2552  0.4310 -0.3296
  762MOL0     C 2772   8.684   3.321   8.460  0.1494 -0.7495  0.2809
  762MOL0     C 2773   8.589   3.247   8.549  1.2391 -0.5103  0.5291
  762MOL0     C 2774   8.476   3.179   8.476  0.2163 -0.5471 -0.2908
  762MOL0     C 2775   8.498   3.027   8.446  0.5488 -0.0124 -0.8305
  762MOL0     C 2776   8.370   2.961   8.405 -0.5591  0.9283  0.1587
  762MOL0     C 2777   8.414   2.808   8.386  0.0052  0.1745 -0.0312
  762MOL0     C 2778   8.313   2.720   8.305 -0.1489 -0.2038  0.2501
  762MOL0     C 2779   8.387   2.594   8.243  0.5012 -0.0090  0.0861
  762MOL0    Cl 2780   8.274   2.495   8.142 -0.0268 -0.0135 -0.0817
  762MOL0     C 2781   8.880   3.053   8.343  0.4508 -0.6921  0.6538
  762MOL0     C 2782   8.978   2.969   8.369 -0.1070  0.2423 -0.4962
  762MOL0     O 2783   9.053   2.808   8.671  0.5913  0.5974 -0.4599
  762MOL0     C 2784   9.341   2.692   8.514 -0.3887 -0.6907  0.5350
  762MOL0     C 2785   9.446   2.608   8.525 -0.4872  0.0411 -0.0991
  762MOL0     N 2786   9.636   2.192   8.199 -0.6577 -0.1332 -0.0774
  762MOL0     N 2787   9.552   2.269   8.139  0.2840  0.9636 -0.0213
  762MOL0     C 2788   8.583   2.233   7.994 -0.2180 -0.8321 -0.1627
  762MOL0     C 2789   8.581   2.093   7.966  0.4432  0.0929  0.7327
  762MOL0     C 2790   8.850   1.724   7.905 -1.4580 -0.9340 -0.5185
  762MOL0     C 2791   8.798   1.633   7.992 -0.4106  0.6728 -0.2515
  762MOL0     C 2792   8.861   1.530   8.041 -0.3798  0.0173 -0.4001
  762MOL0     C 2793   8.978   1.482   7.973 -0.3200 -0.6987 -0.8641
  762MOL0     O 2794   9.039   1.365   8.003 -0.0750 -0.6543 -0.4989
  762MOL0     C 2795   9.023   1.284   8.132  0.2047 -0.3269  0.3243
  762MOL0     C 2796   9.125   1.331   8.225  0.2353  0.3174 -0.2320
  762MOL0     C 2797   9.265   1.298   8.162  0.2122 -0.8070  0.0576
  762MOL0     C 2798   9.381   1.270   8.269  0.0662  1.1330  1.1840
  762MOL0     C 2799   9.512   1.266   8.204 -0.0037 -0.2216  0.6606
  762MOL0     C 2800   9.616   1.262   8.145  0.0863  0.4291  0.0054
  762MOL0     C 2801   9.038   1.577   7.882  0.6219  0.2857  0.3900
  762MOL0     C 2802   8.970   1.696   7.845  0.6436 -0.3321 -0.1471
  762MOL0     H 2803   8.871   2.013   8.128 -0.1927 -1.2854  0.9662
  762MOL0     H 2804   8.868   2.257   8.173  2.9835 -4.1918 -0.1296
  762MOL0     H 2805   8.881   2.409   7.995  0.0747 -1.3327 -0.1932
  762MOL0     H 2806   8.799   2.562   7.966 -1.1737  0.7991  0.4592
  762MOL0     H 2807   8.813   2.607   8.224  0.6029  1.4878 -1.7040
  762MOL0     H 2808   8.930   2.464   8.217 -0.8305 -1.4843 -0.6723
  762MOL0     H 2809   8.955   2.724   8.039  4.3054 -0.3231 -2.5903
  762MOL0     H 2810   9.034   2.700   8.210  0.3206 -1.0397  1.1330
  762MOL0     H 2811   9.146   2.516   8.145  1.2713  0.2083 -0.0904
  762MOL0     H 2812   9.088   2.546   7.978 -1.4585 -1.7986  1.2779
  762MOL0     H 2813   9.181   2.785   7.984  3.3616  1.0714  0.2450
  762MOL0     H 2814   9.233   2.752   8.145 -2.2986  0.8706  0.4613
  762MOL0     H 2815   9.333   2.604   7.899 -0.0629  0.3324 -2.1107
  762MOL0     H 2816   9.399   2.761   7.959 -2.1559  0.9261  2.1277
  762MOL0     H 2817   9.516   2.676   8.117  0.5942 -0.6614  0.4124
  762MOL0     H 2818   9.384   2.567   8.168 -1.8615  3.0414  0.7487
  762MOL0     H 2819   9.599   2.526   7.957 -2.2230  0.7454 -0.8568
  762MOL0     H 2820   9.463   2.407   7.971 -1.0626 -1.0279  1.2181
  762MOL0     H 2821   9.785   2.497   8.190  0.7835 -0.4042  1.6687
  762MOL0     H 2822   9.819   2.133   8.361  0.4545 -0.7696  0.2389
  762MOL0     H 2823   9.948   2.222   8.274  0.3045  0.5554  1.2531
  762MOL0     H 2824   9.889   2.416   8.404  0.7027 -1.4495 -0.5012
  762MOL0     H 2825   9.959   2.296   8.492 -0.4443 -4.2045  0.1802
  762MOL0     H 2826   9.798   2.312   8.641  0.7743 -4.3041  0.1039
  762MOL0     H 2827   9.697   2.212   8.536 -0.0961 -0.5505 -0.7142
  762MOL0     H 2828   9.549   2.379   8.469 -1.2018  4.8714 -0.5229
  762MOL0     H 2829   9.683   2.490   8.446 -0.3645 -2.4746 -3.4966
  762MOL0     H 2830   9.432   2.492   8.822  0.7967 -1.7254 -0.7799
  762MOL0     H 2831   9.193   2.786   8.879  2.1231  0.3163 -2.9533
  762MOL0     H 2832   9.112   2.625   8.849 -0.4689  0.0466 -0.0417
  762MOL0     H 2833   9.255   2.639   8.958 -2.4011 -2.5968  0.1023
  762MOL0     H 2834   9.136   3.133   8.619  1.1270  1.3813 -1.7565
  762MOL0     H 2835   8.933   3.292   8.575 -1.8663 -0.8720  1.9532
  762MOL0     H 2836   8.745   3.393   8.516 -0.3334 -1.5885  1.9428
  762MOL0     H 2837   8.623   3.381   8.391 -1.0970 -1.7793  0.4456
  762MOL0     H 2838   8.639   3.173   8.612 -1.2591 -0.4125  2.7942
  762MOL0     H 2839   8.555   3.326   8.616 -2.6639  2.7291 -4.5360
  762MOL0     H 2840   8.459   3.225   8.378  2.8916  0.6197 -0.3186
  762MOL0     H 2841   8.386   3.184   8.537  1.1595 -0.5378  1.1670
  762MOL0     H 2842   8.574   3.025   8.367  1.6359  2.1771  0.0679
  762MOL0     H 2843   8.541   2.986   8.538 -1.4328 -2.2604 -0.8078
  762MOL0     H 2844   8.329   3.003   8.312 -2.0523 -0.8071 -0.0355
  762MOL0     H 2845   8.294   2.977   8.481  0.2756  2.8831  0.6317
  762MOL0     H 2846   8.506   2.791   8.329 -1.3148 -2.3685 -1.6189
  762MOL0     H 2847   8.430   2.757   8.481  3.0568 -3.3907 -2.1386
  762MOL0     H 2848   8.284   2.779   8.217  3.4225  1.0868 -0.2316
  762MOL0     H 2849   8.226   2.682   8.359  0.7972 -0.7571  1.4166
  762MOL0     H 2850   8.416   2.540   8.333 -2.3161  3.3206  3.3264
  762MOL0     H 2851   8.470   2.620   8.177  1.0866 -0.3062  0.6930
  762MOL0     H 2852   8.822   3.035   8.253  0.3910  2.4785 -0.0629
  762MOL0     H 2853   8.987   2.882   8.304  0.0256 -0.5371  0.5389
  762MOL0     H 2854   9.329   2.745   8.419  1.3904 -1.7922 -0.3558
  762MOL0     H 2855   9.505   2.589   8.436  1.7170 -0.8574  1.4453
  762MOL0     H 2856   8.504   2.297   7.956  2.2094  0.5132 -3.3524
  762MOL0     H 2857   8.499   2.053   7.907  1.1809  1.2404 -1.1670
  762MOL0     H 2858   8.698   1.645   8.034 -1.6578 -0.8272 -2.5790
  762MOL0     H 2859   8.827   1.473   8.127  1.7017 -1.2580 -0.3626
  762MOL0     H 2860   8.919   1.284   8.164  0.8117  1.5850  2.5441
  762MOL0     H 2861   9.045   1.178   8.115 -3.2028 -1.0047 -0.5042
  762MOL0     H 2862   9.115   1.302   8.330  0.7073  1.8970  0.2804
  762MOL0     H 2863   9.123   1.439   8.243  0.8605  0.0314  1.9161
  762MOL0     H 2864   9.293   1.396   8.121  1.9070 -2.0859 -2.0505
  762MOL0     H 2865   9.260   1.221   8.084  1.6009 -0.5974 -0.2508
  762MOL0     H 2866   9.371   1.173   8.318 -0.0853  2.0237  2.9830
  762MOL0     H 2867   9.381   1.348   8.346  0.4892  2.2496  0.0988
  762MOL0     H 2868   9.709   1.238   8.098  0.1771  0.3001  0.2477
  762MOL0     H 2869   9.134   1.566   7.833 -0.2339  0.9580 -1.4975
  762MOL0     H 2870   9.015   1.756   7.767  0.5412 -0.8297 -0.5897
  763MOL0     O 2871   2.207   2.659   8.017  0.3243 -0.6481 -0.4255
  763MOL0     C 2872   2.210   2.781   8.042  0.2570 -0.0254  0.3434
  763MOL0     O 2873   2.108   2.850   8.102  0.1975 -0.1689  0.1958
  763MOL0     C 2874   1.993   2.786   8.134  0.0136  0.5368  0.5436
  763MOL0     C 2875   1.884   2.777   8.045 -0.4628  0.1929 -0.1765
  763MOL0     C 2876   1.761   2.720   8.092  0.5588  0.3272 -0.3555
  763MOL0     C 2877   1.751   2.676   8.224  0.4962  0.4212 -0.0845
  763MOL0     O 2878   1.631   2.635   8.280  0.1346  0.4623  0.3569
  763MOL0     C 2879   1.596   2.506   8.230  1.1173  0.1963 -0.4750
  763MOL0     C 2880   1.495   2.447   8.328  0.0594 -0.2846 -0.1534
  763MOL0     C 2881   1.360   2.533   8.331 -0.1613 -0.1092 -0.0708
  763MOL0     C 2882   1.284   2.564   8.202  0.1628 -0.3120  0.1805
  763MOL0     C 2883   1.134   2.586   8.235 -0.0097  0.0390  0.9571
  763MOL0     C 2884   1.103   2.702   8.335  0.4160  0.9230 -0.2052
  763MOL0     C 2885   0.960   2.727   8.370  0.2044  0.3213  0.4561
  763MOL0     C 2886   0.880   2.605   8.409 -0.3253  0.9072  0.1777
  763MOL0     N 2887   0.729   2.614   8.437 -0.1984 -1.0821  0.1395
  763MOL0     C 2888   0.675   2.591   8.552  0.0909  0.0550 -0.3335
  763MOL0     C 2889   0.544   2.608   8.530  0.3665  0.4912  0.3821
  763MOL0     C 2890   0.448   2.592   8.635  0.6430 -0.1311 -0.6504
  763MOL0     C 2891   0.373   2.459   8.628 -1.7246  0.3248  0.5281
  763MOL0     C 2892   0.255   2.440   8.732  0.1576 -0.9169  0.5510
  763MOL0     C 2893   0.294   2.452   8.877  0.1796  0.6611  0.0347
  763MOL0     O 2894   0.193   2.429   8.978  0.1418 -0.0591 -0.3897
  763MOL0     C 2895   0.089   2.520   8.985 -0.1304 -0.3939 -0.1516
  763MOL0     C 2896  -0.028   2.471   9.041 -0.6825 -0.0993 -0.3865
  763MOL0     C 2897  -0.133   2.559   9.091  0.5938  0.0855 -0.0752
  763MOL0     C 2898  -0.237   2.492   9.175  0.5280 -0.3449  0.4251
  763MOL0     C 2899  -0.125   2.697   9.056 -0.4516 -0.2278 -0.4733
  763MOL0     C 2900  -0.220   2.804   9.091 -0.1155 -0.9348 -0.8465
  763MOL0     O 2901  -0.172   2.916   9.156 -0.2191  0.6307  0.6741
  763MOL0     C 2902  -0.259   3.000   9.219 -0.2477  0.5500 -0.8325
  763MOL0     C 2903  -0.217   3.138   9.233  0.3198  0.5377  0.3101
  763MOL0     C 2904  -0.297   3.227   9.296 -0.2230  0.6116  0.1052
  763MOL0     C 2905  -0.411   3.181   9.360 -0.4518 -0.4267 -0.6629
  763MOL0     O 2906  -0.485   3.257   9.456 -0.2986 -0.1390 -0.3419
  763MOL0     C 2907  -0.505   3.393   9.419 -0.0802 -1.0262 -0.1668
  763MOL0     C 2908  -0.416   3.497   9.487  0.5610  0.5349  0.6207
  763MOL0     C 2909  -0.456   3.521   9.643  0.4032 -0.1517  0.2933
  763MOL0     C 2910  -0.571   3.622   9.668  0.9324  0.0896 -0.5797
  763MOL0     C 2911  -0.599   3.626   9.819  0.2812  0.4568 -0.8415
  763MOL0     C 2912  -0.693   3.508   9.864 -0.3592 -0.2703 -0.9199
  763MOL0     C 2913  -0.835   3.541   9.819  0.5704 -0.0759 -0.1007
  763MOL0     C 2914  -0.918   3.417   9.837  0.3330  0.1422 -1.0018
  763MOL0    Cl 2915  -0.886   3.291   9.717 -0.0306 -0.0348  0.1795
  763MOL0     C 2916  -0.459   3.048   9.341 -0.2033  0.7367  0.0669
  763MOL0     C 2917  -0.381   2.955   9.269 -0.4418  0.0377  0.0828
  763MOL0     O 2918  -0.333   2.781   9.064  0.2850 -0.7520  0.1585
  763MOL0     C 2919  -0.005   2.740   8.985 -0.3095 -0.0674 -0.2809
  763MOL0     C 2920   0.101   2.656   8.947 -0.2936 -0.1831 -0.7502
  763MOL0     N 2921   0.520   2.644   8.400  0.1911  0.7409  0.1041
  763MOL0     N 2922   0.636   2.635   8.342 -0.1156  0.7618 -0.4627
  763MOL0     C 2923   1.855   2.689   8.312 -0.2057  0.4447 -0.3197
  763MOL0     C 2924   1.980   2.737   8.264  0.0952  0.6854 -0.1378
  763MOL0     C 2925   2.322   2.869   7.988 -0.2209 -0.1104  0.4664
  763MOL0     C 2926   2.406   2.805   7.897 -1.0063  0.7497 -0.1640
  763MOL0     C 2927   2.512   2.875   7.840  0.6349  0.6434  0.3178
  763MOL0     C 2928   2.525   3.016   7.862 -0.2067  0.6836  1.1731
  763MOL0     O 2929   2.621   3.091   7.798 -0.8405  0.5428  0.4288
  763MOL0     C 2930   2.645   3.226   7.842  0.0462  0.4685  0.1244
  763MOL0     C 2931   2.763   3.308   7.778 -0.5036  0.5883 -0.6855
  763MOL0     C 2932   2.891   3.225   7.767 -0.0335 -0.0145  0.1026
  763MOL0     C 2933   3.012   3.321   7.725  0.3257  0.0515 -0.5209
  763MOL0     C 2934   3.138   3.270   7.773 -0.4110  0.7851  0.3939
  763MOL0     C 2935   3.241   3.245   7.826 -0.1696 -0.1808  0.5208
  763MOL0     C 2936   2.434   3.080   7.949 -0.1003  0.8049  0.7311
  763MOL0     C 2937   2.331   3.009   8.010  0.7330  0.8649 -0.1681
  763MOL0     H 2938   1.893   2.805   7.941 -1.1258 -0.0983 -0.3186
  763MOL0     H 2939   1.679   2.724   8.021 -1.7523 -0.2382  2.1040
  763MOL0     H 2940   1.555   2.516   8.129  0.1110  2.1107  0.0744
  763MOL0     H 2941   1.688   2.448   8.220  0.9848 -0.3729  1.3245
  763MOL0     H 2942   1.484   2.341   8.305  2.5915 -0.2557 -1.9773
  763MOL0     H 2943   1.542   2.446   8.427 -4.8433 -0.3965  2.4445
  763MOL0     H 2944   1.294   2.480   8.401 -0.8980  0.6270 -0.1942
  763MOL0     H 2945   1.390   2.627   8.377  1.6937 -0.4955 -0.3852
  763MOL0     H 2946   1.335   2.649   8.155 -1.4232  0.9384  0.6437
  763MOL0     H 2947   1.293   2.483   8.130  1.7509  0.5889 -0.7095
  763MOL0     H 2948   1.076   2.615   8.147  0.3699 -1.0641  0.3275
  763MOL0     H 2949   1.096   2.490   8.270  1.3327 -0.7574  0.3281
  763MOL0     H 2950   1.158   2.688   8.429  0.4354  1.2601 -0.1637
  763MOL0     H 2951   1.142   2.795   8.291  2.0115  0.2604 -0.2674
  763MOL0     H 2952   0.966   2.802   8.450 -2.0475  3.0269 -1.6638
  763MOL0     H 2953   0.910   2.776   8.285  1.1318 -0.8864 -0.8228
  763MOL0     H 2954   0.926   2.566   8.501 -2.7423  0.6808  1.3650
  763MOL0     H 2955   0.895   2.526   8.334 -1.4387 -0.7206  1.5999
  763MOL0     H 2956   0.721   2.571   8.649  0.9808 -1.8965 -1.1008
  763MOL0     H 2957   0.513   2.610   8.722  1.5681  0.8124 -1.5173
  763MOL0     H 2958   0.371   2.669   8.627  1.0986  0.1621 -2.4542
  763MOL0     H 2959   0.448   2.380   8.636 -2.4367 -0.5158 -0.6780
  763MOL0     H 2960   0.322   2.449   8.531 -0.2331  0.4457 -0.3097
  763MOL0     H 2961   0.221   2.337   8.713  4.3202 -2.0788 -1.6969
  763MOL0     H 2962   0.176   2.512   8.708 -0.4340 -1.9050 -0.6182
  763MOL0     H 2963   0.339   2.549   8.901  1.5512  0.0919 -0.1255
  763MOL0     H 2964   0.383   2.389   8.882 -0.2907  0.0827  1.5003
  763MOL0     H 2965  -0.020   2.366   9.066 -0.7164 -0.3807 -1.5028
  763MOL0     H 2966  -0.310   2.445   9.108 -0.2784  0.3399  0.8005
  763MOL0     H 2967  -0.188   2.422   9.244  1.5197 -2.4689 -2.2528
  763MOL0     H 2968  -0.300   2.566   9.225 -0.2575 -1.4194  1.0856
  763MOL0     H 2969  -0.118   3.163   9.196  1.2540 -2.2527  0.6946
  763MOL0     H 2970  -0.255   3.327   9.300 -1.2020  1.0159  0.8819
  763MOL0     H 2971  -0.513   3.399   9.310 -3.4298 -1.8599 -0.0749
  763MOL0     H 2972  -0.607   3.412   9.451  0.3238  0.4358  0.3121
  763MOL0     H 2973  -0.312   3.463   9.492  0.6116  0.5806 -0.1115
  763MOL0     H 2974  -0.443   3.581   9.422 -1.3745 -0.5403 -0.0327
  763MOL0     H 2975  -0.367   3.564   9.691 -0.2870  1.7419 -0.0192
  763MOL0     H 2976  -0.480   3.426   9.692 -0.0280  0.7205  1.8484
  763MOL0     H 2977  -0.535   3.715   9.622  0.2837  0.5294 -0.2071
  763MOL0     H 2978  -0.666   3.601   9.618 -0.9163 -0.9176  3.0208
  763MOL0     H 2979  -0.646   3.720   9.849 -0.7297  0.1930 -1.5314
  763MOL0     H 2980  -0.504   3.620   9.872  0.2979 -0.8950 -0.9870
  763MOL0     H 2981  -0.656   3.416   9.819  2.9248  0.5905 -0.2310
  763MOL0     H 2982  -0.689   3.500   9.973 -0.4274  1.7646 -0.7152
  763MOL0     H 2983  -0.839   3.588   9.720 -0.1462  0.6309  0.2584
  763MOL0     H 2984  -0.865   3.617   9.891  0.4837 -1.8136  1.7904
  763MOL0     H 2985  -1.024   3.439   9.822  0.5751 -0.2348 -3.7651
  763MOL0     H 2986  -0.908   3.384   9.941 -0.0991 -2.4717 -1.7054
  763MOL0     H 2987  -0.554   3.017   9.383  1.0210 -0.7530  1.9035
  763MOL0     H 2988  -0.412   2.851   9.269 -3.5328  0.8075 -2.5017
  763MOL0     H 2989   0.012   2.845   8.964 -0.2354 -0.0876 -0.3209
  763MOL0     H 2990   0.191   2.691   8.898  1.4463 -2.1254  0.8407
  763MOL0     H 2991   1.830   2.661   8.413 -0.7147  2.0025  0.0168
  763MOL0     H 2992   2.071   2.736   8.324 -0.0353  2.5064  0.1434
  763MOL0     H 2993   2.397   2.698   7.879 -0.3245  0.5177  0.8078
  763MOL0     H 2994   2.583   2.820   7.779  0.2581 -0.9575  1.2615
  763MOL0     H 2995   2.556   3.289   7.833  0.6509  1.3535  0.2994
  763MOL0     H 2996   2.676   3.209   7.946 -0.0767 -2.1520 -0.1862
  763MOL0     H 2997   2.782   3.400   7.836  0.4489  2.1014 -3.2349
  763MOL0     H 2998   2.741   3.342   7.677  0.1963  1.3805 -0.5847
  763MOL0     H 2999   2.877   3.143   7.695 -1.3623 -1.3120  1.7476
  763MOL0     H 3000   2.910   3.172   7.861 -1.3333 -1.7910 -0.5599
  763MOL0     H 3001   2.999   3.422   7.765  2.6178  0.3952 -0.4964
  763MOL0     H 3002   3.021   3.326   7.616  0.4520  0.0241 -0.5126
  763MOL0     H 3003   3.336   3.223   7.871  0.0324 -1.7227 -0.5819
  763MOL0     H 3004   2.439   3.186   7.970  0.6996  0.9579 -0.1794
  763MOL0     H 3005   2.277   3.070   8.082  0.0831 -1.2211  1.1970
  764MOL0     O 3006   0.245  10.572   2.033 -0.8840  0.1214  0.4086
  764MOL0     C 3007   0.263  10.622   2.147 -0.9555 -0.0456 -0.0289
  764MOL0     O 3008   0.174  10.651   2.245 -0.1115  0.1758 -0.7980
  764MOL0     C 3009   0.044  10.665   2.234  0.1135  0.4622  0.4354
  764MOL0     C 3010  -0.035  10.557   2.200 -0.3963 -0.0142  0.3943
  764MOL0     C 3011  -0.172  10.567   2.222  0.6647  0.1698  1.1333
  764MOL0     C 3012  -0.237  10.688   2.242 -1.1892 -0.7804 -0.6077
  764MOL0     O 3013  -0.372  10.696   2.252 -0.6637 -0.1551  0.2269
  764MOL0     C 3014  -0.428  10.783   2.146 -0.1996  0.3640  0.4016
  764MOL0     C 3015  -0.581  10.776   2.158 -0.6655 -0.2136 -0.5328
  764MOL0     C 3016  -0.636  10.841   2.285 -0.1096  0.1519 -0.5969
  764MOL0     C 3017  -0.793  10.839   2.285 -0.2618 -0.0282  0.9451
  764MOL0     C 3018  -0.842  10.697   2.315 -0.4291  0.3492  0.1759
  764MOL0     C 3019  -0.998  10.701   2.327 -0.7881 -0.1197 -0.1313
  764MOL0     C 3020  -1.055  10.684   2.184 -1.3145 -0.5817 -0.2641
  764MOL0     C 3021  -1.201  10.652   2.203  0.3717  0.4081 -1.0902
  764MOL0     N 3022  -1.271  10.657   2.081  0.4596 -0.0305  0.5972
  764MOL0     C 3023  -1.274  10.555   1.990  0.2966 -0.1519 -0.3669
  764MOL0     C 3024  -1.349  10.605   1.885  0.1990 -0.4421  0.3536
  764MOL0     C 3025  -1.383  10.552   1.757  0.4760  0.5471 -0.7615
  764MOL0     C 3026  -1.510  10.463   1.763 -0.1271 -0.8177 -0.8632
  764MOL0     C 3027  -1.575  10.436   1.628 -0.6853  0.7303 -0.0488
  764MOL0     C 3028  -1.698  10.344   1.651  0.1364 -0.5885  0.2254
  764MOL0     O 3029  -1.742  10.312   1.520 -0.5222  0.2328 -0.1131
  764MOL0     C 3030  -1.861  10.369   1.476 -0.5470  0.6941 -1.2070
  764MOL0     C 3031  -1.966  10.285   1.462 -0.1730 -0.3890 -0.4836
  764MOL0     C 3032  -2.096  10.326   1.418  0.5471 -0.3590 -0.7092
  764MOL0     C 3033  -2.205  10.225   1.411  0.1719  0.0982 -0.8391
  764MOL0     C 3034  -2.121  10.471   1.423 -0.5488 -0.1355 -0.0815
  764MOL0     C 3035  -2.259  10.533   1.419 -0.3528  0.1469 -0.4275
  764MOL0     O 3036  -2.361  10.451   1.430 -0.2229 -0.3959 -0.6750
  764MOL0     C 3037  -2.485  10.507   1.470  0.1116  0.6900 -0.0308
  764MOL0     C 3038  -2.501  10.529   1.610 -0.5871  0.0124  0.7318
  764MOL0     C 3039  -2.622  10.573   1.665 -0.1377  0.8007 -0.1461
  764MOL0     C 3040  -2.732  10.597   1.581 -0.2062 -0.6543 -0.3949
  764MOL0     O 3041  -2.848  10.647   1.629 -0.1700 -0.7847 -0.4097
  764MOL0     C 3042  -2.892  10.603   1.763 -0.0592 -0.5061 -1.0584
  764MOL0     C 3043  -3.036  10.648   1.790  0.7577 -0.0267  0.4814
  764MOL0     C 3044  -3.115  10.709   1.675  0.6055 -0.2501  0.0746
  764MOL0     C 3045  -3.255  10.755   1.720  0.7387 -0.0987 -0.0273
  764MOL0     C 3046  -3.357  10.767   1.598  0.1759  0.6363  0.5403
  764MOL0     C 3047  -3.497  10.816   1.643 -0.2841 -0.2890  0.0368
  764MOL0     C 3048  -3.593  10.807   1.530  0.1847 -0.3411  0.5306
  764MOL0     C 3049  -3.723  10.878   1.578 -1.5725  1.0479  0.2959
  764MOL0    Cl 3050  -3.816  10.896   1.420 -0.4082 -0.2971 -0.3861
  764MOL0     C 3051  -2.722  10.567   1.448  0.0752  0.9871  0.7916
  764MOL0     C 3052  -2.600  10.518   1.390 -0.0061  0.3751 -0.6200
  764MOL0     O 3053  -2.263  10.654   1.421 -0.1173 -0.3496  0.3205
  764MOL0     C 3054  -2.007  10.546   1.426  0.5377 -1.1952  1.5187
  764MOL0     C 3055  -1.877  10.503   1.446 -0.0290 -0.4247 -0.4593
  764MOL0     N 3056  -1.404  10.729   1.922 -0.5379  0.0571  0.4158
  764MOL0     N 3057  -1.346  10.760   2.038 -0.4291  0.4920 -0.9025
  764MOL0     C 3058  -0.155  10.803   2.258  0.8391  0.6289  0.7800
  764MOL0     C 3059  -0.014  10.783   2.265  0.8893  0.6512 -0.6974
  764MOL0     C 3060   0.396  10.622   2.195  0.5179  0.2906 -0.0239
  764MOL0     C 3061   0.477  10.516   2.150 -0.0458 -0.6143 -1.1180
  764MOL0     C 3062   0.612  10.505   2.207 -0.7636 -0.4077  0.4682
  764MOL0     C 3063   0.664  10.590   2.302 -0.4741  0.2491 -0.2320
  764MOL0     O 3064   0.795  10.564   2.357  0.7261 -1.0693  0.4822
  764MOL0     C 3065   0.834  10.658   2.460 -0.7163  0.5150 -0.6428
  764MOL0     C 3066   0.897  10.787   2.403 -0.2238 -0.2230  0.7068
  764MOL0     C 3067   0.940  10.891   2.498 -0.3562 -0.9511 -0.2656
  764MOL0     C 3068   0.878  10.907   2.635  1.2227 -0.0986  0.2365
  764MOL0     C 3069   0.739  10.958   2.609 -0.8422 -0.0697  0.2606
  764MOL0     C 3070   0.627  11.000   2.602 -0.1505  0.0904  0.2960
  764MOL0     C 3071   0.577  10.702   2.339 -0.5988  0.3838 -0.8908
  764MOL0     C 3072   0.453  10.718   2.285  0.1329 -0.6761 -0.4610
  764MOL0     H 3073   0.004  10.459   2.175  1.0967  0.6504  0.0143
  764MOL0     H 3074  -0.243  10.486   2.211  0.0354  0.9718 -1.2658
  764MOL0     H 3075  -0.395  10.886   2.164 -1.2905  0.2293  3.9127
  764MOL0     H 3076  -0.394  10.744   2.050  1.6171  1.6522  0.4763
  764MOL0     H 3077  -0.624  10.835   2.076  1.2947 -0.0984 -1.5157
  764MOL0     H 3078  -0.608  10.673   2.134  0.9416 -0.7637 -0.0645
  764MOL0     H 3079  -0.585  10.782   2.362  2.0135  3.3293  0.6453
  764MOL0     H 3080  -0.601  10.942   2.308  0.0545 -0.1185  0.4146
  764MOL0     H 3081  -0.825  10.902   2.369  1.4686  1.7652  0.3360
  764MOL0     H 3082  -0.824  10.889   2.193  0.7002  3.0362  2.1633
  764MOL0     H 3083  -0.811  10.626   2.238  1.5483  1.1209  0.1832
  764MOL0     H 3084  -0.792  10.669   2.408 -2.3354  0.2615  1.2272
  764MOL0     H 3085  -1.034  10.628   2.401  1.7909 -1.9926 -0.5926
  764MOL0     H 3086  -1.027  10.802   2.358  2.4572  1.1167 -0.7102
  764MOL0     H 3087  -1.046  10.780   2.132 -2.4979  1.1591  2.5652
  764MOL0     H 3088  -0.996  10.611   2.127  1.9835  1.0407  0.8182
  764MOL0     H 3089  -1.240  10.722   2.277 -1.0762  0.2242 -1.6515
  764MOL0     H 3090  -1.232  10.553   2.239 -4.5078  1.6543 -1.1543
  764MOL0     H 3091  -1.222  10.460   2.001 -0.5554 -0.3949  2.5646
  764MOL0     H 3092  -1.406  10.635   1.688 -3.8292  1.3062  1.2093
  764MOL0     H 3093  -1.298  10.498   1.715 -0.0918 -0.2337 -0.9146
  764MOL0     H 3094  -1.580  10.519   1.825  0.3784 -1.1218 -0.0036
  764MOL0     H 3095  -1.469  10.381   1.823  0.2536 -0.4815 -0.6586
  764MOL0     H 3096  -1.502  10.409   1.551 -1.3140  2.1476 -1.1794
  764MOL0     H 3097  -1.625  10.525   1.589 -1.7093 -0.1826 -0.8846
  764MOL0     H 3098  -1.770  10.396   1.715  3.1617  1.6258  2.1371
  764MOL0     H 3099  -1.671  10.254   1.706 -0.6885 -1.1598 -0.2854
  764MOL0     H 3100  -1.944  10.183   1.492  1.3325 -0.5054 -1.8744
  764MOL0     H 3101  -2.165  10.126   1.437 -0.0736  0.0359 -0.6962
  764MOL0     H 3102  -2.284  10.237   1.486  0.0100  4.0736 -1.4451
  764MOL0     H 3103  -2.248  10.215   1.311 -0.1251  2.3828 -1.0048
  764MOL0     H 3104  -2.415  10.521   1.676 -1.1334  0.6172  1.5353
  764MOL0     H 3105  -2.632  10.588   1.772 -0.2717 -1.7633  0.2545
  764MOL0     H 3106  -2.884  10.499   1.795  0.5555  0.0211  0.6661
  764MOL0     H 3107  -2.832  10.649   1.842  1.2673 -0.5431 -2.0201
  764MOL0     H 3108  -3.083  10.553   1.817  1.2245 -0.3225  0.2664
  764MOL0     H 3109  -3.035  10.725   1.868 -1.2318  0.0082  0.5093
  764MOL0     H 3110  -3.132  10.629   1.603 -1.0956 -1.3354  1.6103
  764MOL0     H 3111  -3.044  10.785   1.640 -0.6045  0.7238 -0.3725
  764MOL0     H 3112  -3.300  10.672   1.777  0.3741  0.1891  0.1072
  764MOL0     H 3113  -3.255  10.846   1.779 -0.2522 -1.3867  2.0763
  764MOL0     H 3114  -3.359  10.670   1.548  3.8054  0.7868 -0.1602
  764MOL0     H 3115  -3.324  10.846   1.529  2.3175 -0.1248  0.6242
  764MOL0     H 3116  -3.530  10.755   1.728  1.5012  0.8913  1.6778
  764MOL0     H 3117  -3.475  10.920   1.671  0.0950  0.5075 -2.8777
  764MOL0     H 3118  -3.603  10.703   1.497 -1.2469  0.6281 -2.3961
  764MOL0     H 3119  -3.553  10.854   1.439  1.7391 -1.4327  0.5919
  764MOL0     H 3120  -3.698  10.980   1.610 -0.1124  1.2343 -1.3048
  764MOL0     H 3121  -3.788  10.822   1.646 -0.6507 -2.3038 -1.3506
  764MOL0     H 3122  -2.809  10.576   1.383 -1.5852 -1.2398  2.5639
  764MOL0     H 3123  -2.585  10.488   1.287 -1.6363 -2.4711 -0.1204
  764MOL0     H 3124  -2.023  10.653   1.419 -0.0573 -1.4169 -2.7668
  764MOL0     H 3125  -1.796  10.572   1.466  1.3372 -1.8923 -0.7388
  764MOL0     H 3126  -0.190  10.905   2.272  1.3990  0.8093  0.9036
  764MOL0     H 3127   0.048  10.870   2.282  1.0486  1.1286 -3.3281
  764MOL0     H 3128   0.450  10.432   2.088  1.1319 -0.4923 -1.8311
  764MOL0     H 3129   0.677  10.425   2.174 -1.6858 -0.5833 -1.0316
  764MOL0     H 3130   0.744  10.681   2.518 -2.5709  0.0920 -3.1786
  764MOL0     H 3131   0.906  10.595   2.513 -0.7663 -0.5959 -1.8635
  764MOL0     H 3132   0.817  10.833   2.344  0.9316 -1.0980 -1.6300
  764MOL0     H 3133   0.977  10.763   2.333 -1.9093 -4.2926 -0.1030
  764MOL0     H 3134   0.937  10.984   2.442  3.3446  0.7780  1.9876
  764MOL0     H 3135   1.049  10.883   2.502 -0.2189 -0.9198 -2.5834
  764MOL0     H 3136   0.934  10.973   2.702 -1.2478  1.9316  0.4584
  764MOL0     H 3137   0.866  10.808   2.681 -1.3313 -0.2873 -0.6722
  764MOL0     H 3138   0.527  11.036   2.587 -0.0269  0.2386 -0.1950
  764MOL0     H 3139   0.600  10.766   2.424  0.8627 -0.9813 -0.1994
  764MOL0     H 3140   0.387  10.792   2.330  1.0544 -1.2625  1.9985
  765MOL0     O 3141   2.292   6.437  10.369  0.0710 -0.1565  0.4526
  765MOL0     C 3142   2.250   6.471  10.477  0.6634  0.3613 -0.5394
  765MOL0     O 3143   2.124   6.513  10.502 -0.7377 -0.3845  0.3131
  765MOL0     C 3144   2.053   6.562  10.392 -0.0920 -0.2929 -0.1910
  765MOL0     C 3145   2.070   6.692  10.340  0.3957  0.3405 -0.5630
  765MOL0     C 3146   1.996   6.733  10.234 -0.0256  0.1800  0.0714
  765MOL0     C 3147   1.896   6.651  10.167  0.4583 -0.1291  0.9774
  765MOL0     O 3148   1.808   6.685  10.068  0.3036 -0.0288  0.5723
  765MOL0     C 3149   1.811   6.819  10.013 -0.1597  0.3291  0.1970
  765MOL0     C 3150   1.726   6.840   9.888 -0.5461  0.4551  0.1927
  765MOL0     C 3151   1.572   6.821   9.907  0.8699 -0.7059  1.1681
  765MOL0     C 3152   1.514   6.825   9.763 -0.4389  0.6113 -0.1076
  765MOL0     C 3153   1.371   6.773   9.742 -0.4033 -0.0538 -0.7261
  765MOL0     C 3154   1.325   6.780   9.593  0.1611 -0.8651 -0.6752
  765MOL0     C 3155   1.174   6.728   9.576 -0.7481 -0.4802 -0.6160
  765MOL0     C 3156   1.138   6.585   9.626  0.5591  0.4869 -0.0837
  765MOL0     N 3157   1.000   6.546   9.586 -0.0951  0.3777  0.1144
  765MOL0     C 3158   0.881   6.612   9.623  0.0823 -0.5149  0.0798
  765MOL0     C 3159   0.787   6.543   9.551 -0.6606 -0.5852  0.6216
  765MOL0     C 3160   0.654   6.572   9.527 -0.1111  0.0145 -0.2221
  765MOL0     C 3161   0.570   6.481   9.624 -0.9217 -0.3224 -0.4765
  765MOL0     C 3162   0.432   6.538   9.638  0.0094  0.8005  0.5594
  765MOL0     C 3163   0.417   6.639   9.756 -0.8716 -0.0317 -0.1580
  765MOL0     O 3164   0.284   6.704   9.762  0.1605  0.3854  0.5412
  765MOL0     C 3165   0.178   6.636   9.819  0.0452  0.1362 -0.2155
  765MOL0     C 3166   0.063   6.711   9.846  0.4123  0.1951  0.0061
  765MOL0     C 3167  -0.045   6.670   9.918  0.4491  0.4424 -0.5816
  765MOL0     C 3168  -0.153   6.769   9.970  0.2085  0.9728 -0.4524
  765MOL0     C 3169  -0.054   6.529   9.948 -0.2595  0.3999 -0.9808
  765MOL0     C 3170  -0.179   6.459  10.001  0.5057  0.2895  0.1413
  765MOL0     O 3171  -0.156   6.329  10.033 -0.5686 -0.1491  0.4595
  765MOL0     C 3172  -0.257   6.247  10.072 -0.3132 -0.3920  0.0745
  765MOL0     C 3173  -0.299   6.252  10.205  0.2516  0.4508  0.1320
  765MOL0     C 3174  -0.405   6.174  10.265 -0.5145 -0.6337  0.2842
  765MOL0     C 3175  -0.470   6.087  10.176  0.2705 -0.8089 -0.3131
  765MOL0     O 3176  -0.583   6.029  10.229  0.0020  0.1594  0.2002
  765MOL0     C 3177  -0.644   5.921  10.148  0.2117 -0.5428 -0.2521
  765MOL0     C 3178  -0.737   5.845  10.240 -0.0866 -0.4807 -0.7931
  765MOL0     C 3179  -0.656   5.770  10.348  0.4813 -0.7406  0.3100
  765MOL0     C 3180  -0.586   5.645  10.304 -0.1941  0.2028  0.2001
  765MOL0     C 3181  -0.481   5.577  10.393  0.2214  0.0434 -0.5619
  765MOL0     C 3182  -0.356   5.653  10.407 -0.3651  0.5178  0.1907
  765MOL0     C 3183  -0.298   5.724  10.286 -0.6403 -0.1688  0.3217
  765MOL0     C 3184  -0.158   5.776  10.326 -0.2231 -0.2648  0.1801
  765MOL0    Cl 3185  -0.044   5.637  10.350  0.2379 -0.3261  0.3858
  765MOL0     C 3186  -0.430   6.079  10.042 -0.1256  0.1279  0.3857
  765MOL0     C 3187  -0.322   6.159   9.992  0.9734 -0.2163  0.0485
  765MOL0     O 3188  -0.289   6.515  10.009  0.0078 -0.4926  0.3484
  765MOL0     C 3189   0.057   6.451   9.915 -0.1348  0.1162  0.1389
  765MOL0     C 3190   0.179   6.504   9.858 -0.8526 -0.1607 -0.5889
  765MOL0     N 3191   0.838   6.424   9.499  0.4589 -0.2109  0.0042
  765MOL0     N 3192   0.966   6.429   9.523  0.7100 -0.3909 -0.3554
  765MOL0     C 3193   1.884   6.521  10.222 -0.1400  0.6256 -0.6805
  765MOL0     C 3194   1.961   6.478  10.330  0.1513  0.2410  0.0293
  765MOL0     C 3195   2.344   6.465  10.593 -0.8888 -0.5275  0.2730
  765MOL0     C 3196   2.479   6.420  10.580 -0.1406  0.5281  0.7772
  765MOL0     C 3197   2.577   6.428  10.679  0.0097  0.8153  0.1322
  765MOL0     C 3198   2.543   6.462  10.805  1.1046  0.5383 -0.1005
  765MOL0     O 3199   2.625   6.476  10.919  0.3011  0.3724  0.2545
  765MOL0     C 3200   2.753   6.424  10.916 -0.5729 -0.2988 -0.1992
  765MOL0     C 3201   2.831   6.537  10.984  0.2722  0.1409 -0.4053
  765MOL0     C 3202   2.803   6.570  11.140  0.4343  0.5128  0.1233
  765MOL0     C 3203   2.682   6.664  11.153 -0.6832  0.3163  0.8365
  765MOL0     C 3204   2.729   6.804  11.139  0.1224  1.0354 -0.6669
  765MOL0     C 3205   2.786   6.906  11.111  0.0550 -0.8850  0.4609
  765MOL0     C 3206   2.411   6.513  10.823  0.0182  0.3621  0.2613
  765MOL0     C 3207   2.317   6.511  10.721 -1.0672 -0.8146 -0.5299
  765MOL0     H 3208   2.149   6.754  10.380  0.8993  0.3376 -1.5382
  765MOL0     H 3209   2.014   6.837  10.210  0.0649 -0.0481 -0.8768
  765MOL0     H 3210   1.765   6.876  10.094 -1.1829 -2.5013  1.7599
  765MOL0     H 3211   1.915   6.843   9.989  1.3859 -2.5630  3.1140
  765MOL0     H 3212   1.758   6.940   9.857  0.6489  0.8767  2.5644
  765MOL0     H 3213   1.761   6.764   9.817  3.4150  2.4770 -0.2788
  765MOL0     H 3214   1.550   6.728   9.961 -2.6023  1.7219  4.5114
  765MOL0     H 3215   1.541   6.907   9.966 -1.8435 -1.3022  0.7726
  765MOL0     H 3216   1.517   6.923   9.713 -1.1072  1.8241  2.0754
  765MOL0     H 3217   1.584   6.767   9.703  0.6142 -0.9184  2.4818
  765MOL0     H 3218   1.365   6.667   9.766  0.6941 -0.3683 -1.7323
  765MOL0     H 3219   1.304   6.825   9.811 -2.6558 -4.2321  0.5565
  765MOL0     H 3220   1.320   6.887   9.573 -1.2344 -0.0274  3.1828
  765MOL0     H 3221   1.392   6.734   9.521  1.0770  3.3235 -2.8334
  765MOL0     H 3222   1.112   6.787   9.644  0.9918 -1.3264  1.8326
  765MOL0     H 3223   1.139   6.741   9.473  1.2856 -1.0173 -1.4266
  765MOL0     H 3224   1.144   6.589   9.736 -1.8760 -2.9076  0.3030
  765MOL0     H 3225   1.203   6.502   9.598 -1.0475 -0.9337  0.2016
  765MOL0     H 3226   0.861   6.706   9.673 -5.5030 -0.3415 -1.8251
  765MOL0     H 3227   0.642   6.675   9.561  4.5118  0.7330 -0.0220
  765MOL0     H 3228   0.630   6.558   9.421  3.1146 -1.8495 -0.8807
  765MOL0     H 3229   0.620   6.462   9.720  1.3389 -3.4733 -2.0767
  765MOL0     H 3230   0.571   6.384   9.574 -0.9043  1.4951 -4.3205
  765MOL0     H 3231   0.378   6.446   9.665 -0.1720  0.2289 -1.5194
  765MOL0     H 3232   0.410   6.584   9.541 -0.8701  2.0877  1.3313
  765MOL0     H 3233   0.489   6.719   9.733  0.2369 -2.0884 -5.3225
  765MOL0     H 3234   0.427   6.608   9.860 -2.7150  3.9733  1.4508
  765MOL0     H 3235   0.065   6.816   9.818 -2.3065  0.5385  0.8089
  765MOL0     H 3236  -0.168   6.752  10.077 -0.8671 -0.2688 -0.7731
  765MOL0     H 3237  -0.124   6.873   9.958 -1.3697  1.3183 -1.6081
  765MOL0     H 3238  -0.247   6.766   9.916  1.2991  1.4655 -2.4755
  765MOL0     H 3239  -0.255   6.329  10.267  2.0444 -0.1823 -0.3194
  765MOL0     H 3240  -0.446   6.202  10.362  1.9243  3.5637  0.3408
  765MOL0     H 3241  -0.699   5.966  10.066 -0.2734  0.5357  0.6406
  765MOL0     H 3242  -0.572   5.849  10.108 -1.0782 -0.6308 -2.5527
  765MOL0     H 3243  -0.802   5.923  10.280  1.8366  0.9034 -0.2379
  765MOL0     H 3244  -0.794   5.763  10.196 -0.0699  0.1249 -1.9621
  765MOL0     H 3245  -0.727   5.747  10.428 -3.7597  1.5976 -2.4260
  765MOL0     H 3246  -0.585   5.842  10.391 -2.4015  1.3212  1.9375
  765MOL0     H 3247  -0.663   5.570  10.284 -1.3830  1.5280 -0.4630
  765MOL0     H 3248  -0.529   5.667  10.213 -0.9397  1.5198  0.0231
  765MOL0     H 3249  -0.455   5.482  10.344  2.2996  1.6700 -2.8896
  765MOL0     H 3250  -0.526   5.569  10.492 -2.4278  3.4511 -1.2715
  765MOL0     H 3251  -0.376   5.724  10.487 -2.2616  0.5397 -0.2655
  765MOL0     H 3252  -0.289   5.575  10.443  0.5573  1.1252 -0.1559
  765MOL0     H 3253  -0.364   5.808  10.262  1.1017  1.0482 -0.4933
  765MOL0     H 3254  -0.287   5.653  10.204 -1.3499 -2.2077  1.9058
  765MOL0     H 3255  -0.165   5.826  10.423  1.4965  0.9705 -0.2752
  765MOL0     H 3256  -0.124   5.841  10.245  0.5245 -1.4133 -0.4608
  765MOL0     H 3257  -0.478   6.014   9.969  3.4112  0.4251 -2.4876
  765MOL0     H 3258  -0.296   6.143   9.888  2.8152 -3.3117  0.8285
  765MOL0     H 3259   0.059   6.346   9.942 -1.4581  0.5675  2.2623
  765MOL0     H 3260   0.269   6.444   9.849  1.4354  2.6209  1.6944
  765MOL0     H 3261   1.801   6.471  10.174 -0.6426  2.1815 -1.5030
  765MOL0     H 3262   1.948   6.375  10.362  2.3246 -0.3002 -0.6461
  765MOL0     H 3263   2.512   6.386  10.483 -2.0876 -1.4037  0.7126
  765MOL0     H 3264   2.678   6.403  10.649 -0.0990 -2.0707  1.8145
  765MOL0     H 3265   2.768   6.324  10.959 -2.7376 -1.2966 -1.5691
  765MOL0     H 3266   2.799   6.419  10.817  1.6182  1.5558  0.6312
  765MOL0     H 3267   2.825   6.625  10.919  0.3014  0.4342 -0.0138
  765MOL0     H 3268   2.937   6.510  10.986 -0.2089 -1.9007  1.6374
  765MOL0     H 3269   2.893   6.614  11.185  2.1613  0.5557 -3.0615
  765MOL0     H 3270   2.785   6.477  11.196  1.6661  0.5585  0.6303
  765MOL0     H 3271   2.631   6.642  11.247 -1.2871  1.4361  0.7778
  765MOL0     H 3272   2.607   6.650  11.075 -1.1127  0.6698  1.1860
  765MOL0     H 3273   2.844   6.995  11.095 -0.4826 -0.8842 -1.9135
  765MOL0     H 3274   2.380   6.542  10.923  2.3830  1.9111  0.6202
  765MOL0     H 3275   2.214   6.541  10.738 -2.1976 -2.8810 -3.0308
  766MOL0     O 3276  10.213  10.480   7.685 -0.0552 -0.1198  0.0724
  766MOL0     C 3277  10.240  10.362   7.679  0.0528 -1.1796 -0.3176
  766MOL0     O 3278  10.326  10.296   7.758 -0.4683 -0.0325 -0.0002
  766MOL0     C 3279  10.415  10.346   7.845 -0.2730 -0.0613  0.3432
  766MOL0     C 3280  10.546  10.287   7.844 -0.1290  0.1472 -0.1766
  766MOL0     C 3281  10.645  10.343   7.925 -0.3056  0.6591  0.4379
  766MOL0     C 3282  10.623  10.451   8.011 -0.3338  0.1184 -0.2406
  766MOL0     O 3283  10.716  10.498   8.095 -0.5220 -0.0409  0.4406
  766MOL0     C 3284  10.851  10.456   8.090 -0.2217 -0.3887 -0.3854
  766MOL0     C 3285  10.940  10.543   8.179  0.3410 -0.7967  0.4038
  766MOL0     C 3286  11.090  10.526   8.152 -0.2291 -0.0242  0.3048
  766MOL0     C 3287  11.174  10.644   8.204  0.3392  0.0068  0.8328
  766MOL0     C 3288  11.142  10.679   8.344 -0.8197  0.0845  0.6022
  766MOL0     C 3289  11.187  10.568   8.433 -0.1234  0.0491 -0.4999
  766MOL0     C 3290  11.212  10.597   8.583 -0.4883 -0.8426 -0.6549
  766MOL0     C 3291  11.100  10.698   8.648  0.1493  0.4062 -0.2427
  766MOL0     N 3292  10.970  10.634   8.636  0.0135 -0.3433 -0.0482
  766MOL0     C 3293  10.856  10.690   8.578 -0.3656  0.5096  0.5415
  766MOL0     C 3294  10.751  10.599   8.589 -0.5848 -0.9251  0.1330
  766MOL0     C 3295  10.615  10.632   8.561  0.5883 -0.8190 -0.5377
  766MOL0     C 3296  10.555  10.705   8.687  0.4831 -0.2038 -0.8649
  766MOL0     C 3297  10.401  10.687   8.689 -0.6031  0.1383 -0.1091
  766MOL0     C 3298  10.341  10.817   8.741 -0.8777 -0.4707  0.2419
  766MOL0     O 3299  10.203  10.799   8.769 -0.5715  0.0963 -0.0113
  766MOL0     C 3300  10.111  10.788   8.665  0.6827 -0.4582  0.3519
  766MOL0     C 3301  10.006  10.696   8.676 -0.0579 -0.0640  1.0064
  766MOL0     C 3302   9.897  10.693   8.589 -0.0135  0.5074 -0.5033
  766MOL0     C 3303   9.790  10.596   8.623  0.3920  0.1284  0.6501
  766MOL0     C 3304   9.890  10.793   8.486  1.2208  0.1633 -0.3335
  766MOL0     C 3305   9.760  10.809   8.405  0.1968  0.9718 -0.3638
  766MOL0     O 3306   9.643  10.744   8.438  0.0576 -0.0876 -0.4714
  766MOL0     C 3307   9.541  10.731   8.356  0.4725  0.3733 -0.4213
  766MOL0     C 3308   9.558  10.677   8.224  0.1532 -0.0008 -0.3908
  766MOL0     C 3309   9.445  10.660   8.143 -0.4300  1.0227  0.5393
  766MOL0     C 3310   9.320  10.715   8.181  0.3050 -0.2859  0.0950
  766MOL0     O 3311   9.202  10.706   8.108 -0.1716  0.2332 -0.7790
  766MOL0     C 3312   9.207  10.644   7.984  0.3320  0.8796  0.4757
  766MOL0     C 3313   9.060  10.644   7.933 -0.2537  0.9704  0.4114
  766MOL0     C 3314   9.034  10.764   7.839  0.7315 -0.2883  0.3756
  766MOL0     C 3315   8.890  10.770   7.783 -0.2058 -0.8506 -0.1334
  766MOL0     C 3316   8.858  10.655   7.685 -0.5153  0.3431  0.0761
  766MOL0     C 3317   8.723  10.674   7.616  1.1300  0.1844 -0.4038
  766MOL0     C 3318   8.618  10.679   7.732  1.2655  0.6472  0.0295
  766MOL0     C 3319   8.474  10.670   7.665  1.2016 -0.9147  0.2242
  766MOL0    Cl 3320   8.457  10.527   7.552 -0.1188  0.4532  0.6711
  766MOL0     C 3321   9.310  10.765   8.304  0.4559 -0.6729  0.5977
  766MOL0     C 3322   9.418  10.778   8.397 -0.2552 -0.0381  0.7643
  766MOL0     O 3323   9.763  10.895   8.321  0.2072 -0.1883  0.2074
  766MOL0     C 3324   9.987  10.893   8.477  0.3109  0.1965 -0.4139
  766MOL0     C 3325  10.093  10.890   8.564  0.0113 -0.6065 -0.3925
  766MOL0     N 3326  10.812  10.486   8.647  0.2912  0.6337 -0.0793
  766MOL0     N 3327  10.938  10.505   8.678  0.3183 -0.1146  0.3178
  766MOL0     C 3328  10.498  10.527   7.995 -0.3932  1.1686 -0.4992
  766MOL0     C 3329  10.399  10.469   7.922  0.2744  0.3924  0.7563
  766MOL0     C 3330  10.165  10.283   7.582 -0.4626  0.4355  0.0864
  766MOL0     C 3331  10.226  10.168   7.522  0.3112  0.4832  0.1525
  766MOL0     C 3332  10.140  10.074   7.454 -0.0984  0.0004  0.0468
  766MOL0     C 3333  10.002  10.110   7.425 -0.6883  1.0898 -0.4663
  766MOL0     O 3334   9.930  10.015   7.350 -0.2155 -0.2189 -0.2964
  766MOL0     C 3335   9.795  10.019   7.328  0.1633 -0.6070  0.9022
  766MOL0     C 3336   9.762   9.891   7.256 -0.0291 -0.2403 -0.4001
  766MOL0     C 3337   9.607   9.884   7.225 -0.4714 -0.7568  0.3949
  766MOL0     C 3338   9.562   9.781   7.124  0.4933 -0.6098 -0.2627
  766MOL0     C 3339   9.439   9.822   7.064  0.5588 -0.2375  0.4106
  766MOL0     C 3340   9.322   9.853   7.029 -0.0772  1.0317 -0.1194
  766MOL0     C 3341   9.954  10.226   7.480  0.0078  0.4691  0.5611
  766MOL0     C 3342  10.031  10.312   7.561 -0.4320 -0.0128  0.2863
  766MOL0     H 3343  10.583  10.233   7.757 -1.8754  1.0300 -1.5309
  766MOL0     H 3344  10.746  10.303   7.929  0.2396  1.8960 -0.2141
  766MOL0     H 3345  10.860  10.357   8.137 -2.3405 -1.6123 -2.3528
  766MOL0     H 3346  10.891  10.443   7.990  1.3467 -0.7088  0.2575
  766MOL0     H 3347  10.925  10.646   8.145  0.6565 -1.9170 -3.6155
  766MOL0     H 3348  10.909  10.522   8.282 -1.3231 -0.7322 -0.0534
  766MOL0     H 3349  11.116  10.428   8.192  0.6549 -0.8086 -1.9992
  766MOL0     H 3350  11.105  10.527   8.043 -3.0191 -1.6550 -0.1982
  766MOL0     H 3351  11.279  10.628   8.176 -0.6239  2.0636 -5.9041
  766MOL0     H 3352  11.146  10.724   8.135  1.5409  2.5863  3.1361
  766MOL0     H 3353  11.187  10.776   8.367  2.4398 -1.2588  0.5230
  766MOL0     H 3354  11.034  10.689   8.351 -1.0360 -0.3275 -1.5235
  766MOL0     H 3355  11.121  10.481   8.420  2.7027 -1.8902 -3.6429
  766MOL0     H 3356  11.284  10.536   8.393 -0.4709  1.3896 -2.5886
  766MOL0     H 3357  11.225  10.509   8.647  5.5293 -0.6985 -1.1516
  766MOL0     H 3358  11.304  10.655   8.593 -0.6030 -0.9225  1.3953
  766MOL0     H 3359  11.106  10.796   8.601  1.1856 -1.1102 -3.6002
  766MOL0     H 3360  11.124  10.702   8.755 -0.8605 -0.9213  0.0598
  766MOL0     H 3361  10.849  10.793   8.544 -0.4001  1.1126  2.2654
  766MOL0     H 3362  10.594  10.698   8.475 -2.8272 -2.6056 -1.2796
  766MOL0     H 3363  10.560  10.545   8.524 -2.6190  1.2006 -0.9143
  766MOL0     H 3364  10.572  10.813   8.684  2.0034 -0.1641  3.0231
  766MOL0     H 3365  10.615  10.678   8.775  2.5432 -1.1572 -2.4704
  766MOL0     H 3366  10.381  10.600   8.752 -2.7994  0.2365 -0.5818
  766MOL0     H 3367  10.357  10.670   8.591 -0.6228  1.7511 -0.4122
  766MOL0     H 3368  10.358  10.894   8.665 -1.6736 -1.4638 -0.9804
  766MOL0     H 3369  10.395  10.829   8.835  1.2149 -5.1678 -0.1012
  766MOL0     H 3370  10.029  10.634   8.762  0.5273 -0.8451  0.2966
  766MOL0     H 3371   9.752  10.547   8.532  3.9383  0.0020 -0.9166
  766MOL0     H 3372   9.824  10.520   8.693  1.0920 -0.0057  0.1761
  766MOL0     H 3373   9.706  10.655   8.660  0.2860  1.3013 -1.3236
  766MOL0     H 3374   9.656  10.642   8.194  1.8248 -0.1609  4.3054
  766MOL0     H 3375   9.449  10.603   8.051  0.9905  0.1234  1.1309
  766MOL0     H 3376   9.262  10.707   7.914 -0.6065  1.1913 -0.0111
  766MOL0     H 3377   9.238  10.539   7.985 -5.2132 -1.1188  3.3647
  766MOL0     H 3378   9.042  10.550   7.881 -1.2196  2.3286 -1.8128
  766MOL0     H 3379   8.990  10.643   8.018 -0.2707 -0.9640  0.4196
  766MOL0     H 3380   9.102  10.770   7.753  0.4063  1.0281  0.1989
  766MOL0     H 3381   9.049  10.851   7.903  1.5269 -1.8757  2.4798
  766MOL0     H 3382   8.825  10.768   7.870 -2.4344  1.1871 -1.6047
  766MOL0     H 3383   8.857  10.862   7.734 -0.9932 -1.9266 -1.7091
  766MOL0     H 3384   8.869  10.552   7.720  1.8905  0.3474 -0.4996
  766MOL0     H 3385   8.927  10.653   7.600 -0.8193 -1.0882 -0.1674
  766MOL0     H 3386   8.721  10.757   7.545  1.6175 -1.4092 -2.3947
  766MOL0     H 3387   8.698  10.591   7.550  1.3820  1.0649 -1.6417
  766MOL0     H 3388   8.621  10.766   7.798 -1.2574  0.3655  0.6185
  766MOL0     H 3389   8.625  10.592   7.797 -0.7846  0.1033 -0.4021
  766MOL0     H 3390   8.466  10.762   7.607 -2.0120 -2.0028 -1.2749
  766MOL0     H 3391   8.403  10.668   7.748  0.0086  2.9326 -0.5468
  766MOL0     H 3392   9.215  10.806   8.336  1.0245 -0.6056  2.3284
  766MOL0     H 3393   9.405  10.812   8.499  1.0009  1.2100  0.5338
  766MOL0     H 3394   9.978  10.970   8.401  0.5418  2.3636  1.6335
  766MOL0     H 3395  10.163  10.972   8.578  0.1361 -1.2290  4.7581
  766MOL0     H 3396  10.479  10.617   8.053 -0.9140  1.1144 -0.5803
  766MOL0     H 3397  10.312  10.532   7.908  0.3253  0.5582  1.1732
  766MOL0     H 3398  10.329  10.145   7.547  0.5015  1.7634  0.6631
  766MOL0     H 3399  10.170   9.971   7.439 -2.1047 -0.7567  0.9015
  766MOL0     H 3400   9.724  10.023   7.412 -0.0565 -1.3098  0.7595
  766MOL0     H 3401   9.765  10.104   7.267  0.3908  0.0349  1.6696
  766MOL0     H 3402   9.780   9.808   7.326  0.6304 -1.6105 -2.1232
  766MOL0     H 3403   9.816   9.895   7.161 -0.6121 -3.4878 -0.9879
  766MOL0     H 3404   9.567   9.981   7.195  0.9331 -0.4473 -0.6006
  766MOL0     H 3405   9.554   9.858   7.317 -1.8296 -0.6717 -0.3414
  766MOL0     H 3406   9.540   9.686   7.174  1.4046 -1.2457 -1.0336
  766MOL0     H 3407   9.633   9.775   7.041 -0.8568 -1.4987 -1.3933
  766MOL0     H 3408   9.217   9.868   7.014 -0.2426  1.0825  0.9952
  766MOL0     H 3409   9.847  10.248   7.473 -0.0306  0.1520  0.1080
  766MOL0     H 3410   9.989  10.392   7.620 -0.6494 -1.7230  2.5631
  767MOL0     O 3411   5.620   4.213   2.995 -0.2451 -0.3643  0.3257
  767MOL0     C 3412   5.674   4.103   2.960  1.1906  0.2075 -0.5191
  767MOL0     O 3413   5.629   4.033   2.847 -0.0208 -0.0678 -0.2517
  767MOL0     C 3414   5.520   4.072   2.788  0.2145  0.5351  0.7287
  767MOL0     C 3415   5.393   4.015   2.818  0.3715 -0.2483 -0.5935
  767MOL0     C 3416   5.275   4.048   2.747 -1.2336 -1.0693  0.8206
  767MOL0     C 3417   5.285   4.146   2.642  0.7103 -0.5443  0.2441
  767MOL0     O 3418   5.175   4.195   2.574 -0.5179  0.4411  0.2896
  767MOL0     C 3419   5.119   4.100   2.486  0.2834  0.2573  0.5051
  767MOL0     C 3420   5.220   4.057   2.379  1.0176  0.0895  0.4465
  767MOL0     C 3421   5.165   3.972   2.254 -1.1051 -0.7120  0.4553
  767MOL0     C 3422   5.249   3.995   2.124  0.0285 -0.4452  0.2312
  767MOL0     C 3423   5.204   3.905   2.000  0.6574 -0.4395 -0.9194
  767MOL0     C 3424   5.271   3.971   1.878  0.3656 -0.8411  0.5863
  767MOL0     C 3425   5.264   3.877   1.769 -0.0751  0.4886 -0.1406
  767MOL0     C 3426   5.130   3.861   1.700  0.5234  0.4387  0.5821
  767MOL0     N 3427   5.142   3.774   1.586  0.8019  0.3752  0.4096
  767MOL0     C 3428   5.063   3.664   1.548 -0.0194  0.1658 -0.5784
  767MOL0     C 3429   5.108   3.613   1.432 -1.5239 -0.9576 -0.6956
  767MOL0     C 3430   5.070   3.497   1.341 -0.3394 -0.1064 -0.4916
  767MOL0     C 3431   5.037   3.532   1.192 -1.4071  0.3272 -0.4809
  767MOL0     C 3432   4.902   3.613   1.188 -0.1862  0.2805  0.2259
  767MOL0     C 3433   4.772   3.545   1.222 -0.5385  0.5653  0.2501
  767MOL0     O 3434   4.648   3.617   1.204  0.3077  0.0887 -0.2291
  767MOL0     C 3435   4.591   3.613   1.075 -0.4423  0.2951 -0.5689
  767MOL0     C 3436   4.465   3.671   1.055 -0.2933  0.1087 -0.7205
  767MOL0     C 3437   4.391   3.675   0.941  0.1458  0.6662  0.1584
  767MOL0     C 3438   4.263   3.749   0.951  0.3360  1.4060  0.1748
  767MOL0     C 3439   4.443   3.616   0.829 -0.6242  0.1776  0.8262
  767MOL0     C 3440   4.381   3.608   0.690 -0.0242 -0.3413  0.1925
  767MOL0     O 3441   4.251   3.646   0.669 -0.7311 -0.2793  0.5918
  767MOL0     C 3442   4.170   3.607   0.569 -0.3341  0.0511 -0.0986
  767MOL0     C 3443   4.189   3.485   0.499 -0.0435  0.9705 -0.0146
  767MOL0     C 3444   4.097   3.441   0.400 -0.2243  0.1072  0.4397
  767MOL0     C 3445   3.985   3.524   0.370 -0.5531 -0.1967 -0.3188
  767MOL0     O 3446   3.893   3.495   0.274 -0.5135  0.4894 -0.2206
  767MOL0     C 3447   3.883   3.350   0.251  0.2292  1.1841 -0.9718
  767MOL0     C 3448   3.752   3.317   0.179 -0.1709  0.1629 -0.0078
  767MOL0     C 3449   3.629   3.302   0.262  0.2246  0.2513 -0.3236
  767MOL0     C 3450   3.494   3.288   0.181 -0.0116 -0.5036  0.1847
  767MOL0     C 3451   3.367   3.219   0.251  0.1149  0.7053  0.1048
  767MOL0     C 3452   3.302   3.319   0.343  0.7078 -0.1496 -0.0575
  767MOL0     C 3453   3.187   3.247   0.421  0.0988 -0.3093  0.4232
  767MOL0     C 3454   3.128   3.336   0.533 -0.2793  0.3114 -0.0966
  767MOL0    Cl 3455   2.992   3.235   0.597 -0.2257  0.4845  0.0669
  767MOL0     C 3456   3.968   3.643   0.442  0.2212 -0.0301  0.1227
  767MOL0     C 3457   4.056   3.686   0.538  0.6606 -0.2586  0.0317
  767MOL0     O 3458   4.460   3.578   0.601  0.2689 -0.0550 -0.2058
  767MOL0     C 3459   4.572   3.552   0.838  0.1384 -0.2366 -0.2135
  767MOL0     C 3460   4.645   3.551   0.961  1.3755  0.0965  0.9037
  767MOL0     N 3461   5.210   3.705   1.396  0.4726  0.5578  0.2674
  767MOL0     N 3462   5.233   3.790   1.492 -0.3531  0.8621 -0.3067
  767MOL0     C 3463   5.411   4.199   2.611 -0.1528  0.5678 -0.1893
  767MOL0     C 3464   5.523   4.152   2.680 -0.5240  0.0516  0.8417
  767MOL0     C 3465   5.798   4.057   3.026  0.2630  0.4347 -0.2346
  767MOL0     C 3466   5.865   3.942   2.985 -0.0822 -0.7501  0.0949
  767MOL0     C 3467   5.963   3.880   3.065  0.1158  0.1870  0.0014
  767MOL0     C 3468   6.014   3.951   3.175  0.3989 -0.2919 -0.5401
  767MOL0     O 3469   6.112   3.896   3.245  0.0216  1.0578  0.1020
  767MOL0     C 3470   6.186   3.971   3.340 -0.0645 -0.7353 -0.1888
  767MOL0     C 3471   6.312   3.891   3.361  0.0026  0.5011 -0.1292
  767MOL0     C 3472   6.418   3.965   3.441 -0.2018 -0.0902 -0.4896
  767MOL0     C 3473   6.551   3.898   3.441  0.3996  0.0900  0.0499
  767MOL0     C 3474   6.554   3.778   3.526  0.6792  0.0187 -0.5415
  767MOL0     C 3475   6.542   3.675   3.588 -0.7040 -1.4501  0.0022
  767MOL0     C 3476   5.957   4.073   3.203  0.4212  0.0544 -1.0933
  767MOL0     C 3477   5.860   4.129   3.125 -0.1107  0.3564 -0.7839
  767MOL0     H 3478   5.389   3.946   2.902  1.1843  1.6696  1.1232
  767MOL0     H 3479   5.180   3.999   2.761 -1.7445 -0.2154  0.4177
  767MOL0     H 3480   5.090   4.006   2.535  3.9195 -0.6329  1.2437
  767MOL0     H 3481   5.026   4.143   2.446 -0.8482 -3.1980 -1.0021
  767MOL0     H 3482   5.258   4.154   2.346 -4.6586  2.6310  0.3175
  767MOL0     H 3483   5.300   3.999   2.427  3.3691  2.0526 -0.9041
  767MOL0     H 3484   5.166   3.865   2.275 -2.5904 -0.9572 -0.5286
  767MOL0     H 3485   5.061   4.002   2.235 -0.8595  0.9855  1.5732
  767MOL0     H 3486   5.236   4.097   2.087  1.5636  0.6873  2.5576
  767MOL0     H 3487   5.356   3.977   2.141 -0.1043 -0.1451  1.5147
  767MOL0     H 3488   5.241   3.803   2.011  2.7937  0.3572 -0.1941
  767MOL0     H 3489   5.095   3.901   1.988  0.6144  1.0148 -1.2921
  767MOL0     H 3490   5.215   4.058   1.841  1.6821 -1.7260 -4.2909
  767MOL0     H 3491   5.376   3.995   1.893  0.1226  1.1021 -0.4824
  767MOL0     H 3492   5.329   3.914   1.690  0.1589  1.0104  0.2851
  767MOL0     H 3493   5.307   3.782   1.803 -0.8177 -0.4048 -1.6205
  767MOL0     H 3494   5.092   3.957   1.665  1.3177 -0.1938 -2.2313
  767MOL0     H 3495   5.069   3.819   1.781  2.8449 -3.2103  0.6695
  767MOL0     H 3496   4.982   3.630   1.611  0.4656 -1.3408 -0.7435
  767MOL0     H 3497   5.155   3.428   1.344 -0.0635  0.2612  1.3835
  767MOL0     H 3498   4.986   3.449   1.392 -0.6662  0.8733 -0.0819
  767MOL0     H 3499   5.033   3.434   1.144  1.9586 -1.7797  2.9677
  767MOL0     H 3500   5.121   3.584   1.146  0.2123 -2.4556 -0.9069
  767MOL0     H 3501   4.892   3.639   1.082 -0.0280 -0.9543 -0.1104
  767MOL0     H 3502   4.916   3.706   1.243  0.0008 -0.8784  2.2114
  767MOL0     H 3503   4.777   3.512   1.326 -2.9785 -2.6748 -0.4972
  767MOL0     H 3504   4.761   3.451   1.166 -0.6962  1.7086 -1.7392
  767MOL0     H 3505   4.438   3.722   1.147  1.0020  0.2215 -0.3923
  767MOL0     H 3506   4.177   3.682   0.945  0.5264  0.9999  1.6981
  767MOL0     H 3507   4.260   3.792   1.051  0.1837 -1.2088  1.3548
  767MOL0     H 3508   4.254   3.825   0.873 -1.8411  2.5763  1.4790
  767MOL0     H 3509   4.267   3.421   0.539 -2.0067 -0.1218  2.3205
  767MOL0     H 3510   4.115   3.343   0.359  1.9137  1.3551 -1.8540
  767MOL0     H 3511   3.973   3.322   0.195  1.0141 -0.1744  0.8877
  767MOL0     H 3512   3.888   3.288   0.341  0.6026  0.5529 -1.4231
  767MOL0     H 3513   3.747   3.393   0.100 -0.4597 -0.5402 -0.6842
  767MOL0     H 3514   3.770   3.217   0.138  1.4280  0.6691 -0.5949
  767MOL0     H 3515   3.609   3.391   0.323 -0.5666  0.7427 -1.2642
  767MOL0     H 3516   3.645   3.223   0.335  4.7765  1.8969  0.7951
  767MOL0     H 3517   3.468   3.388   0.144 -1.0183 -1.0814 -0.7281
  767MOL0     H 3518   3.520   3.220   0.100 -0.9654 -0.7194  0.0477
  767MOL0     H 3519   3.404   3.128   0.299 -0.7512 -0.8490 -2.0156
  767MOL0     H 3520   3.294   3.184   0.178 -2.4142 -2.4970  3.7381
  767MOL0     H 3521   3.375   3.369   0.409 -2.1435  1.7324  1.8977
  767MOL0     H 3522   3.263   3.405   0.288 -0.7323  0.5217  1.8890
  767MOL0     H 3523   3.236   3.155   0.451  1.8675 -0.0180 -1.3704
  767MOL0     H 3524   3.107   3.208   0.358 -0.0994 -2.7870  2.0722
  767MOL0     H 3525   3.096   3.438   0.508  0.6644  0.4234 -0.9194
  767MOL0     H 3526   3.200   3.341   0.615 -0.0613 -2.3474 -0.0410
  767MOL0     H 3527   3.879   3.699   0.414  1.4002  1.0566 -1.7205
  767MOL0     H 3528   4.031   3.780   0.588  0.2984 -0.7728  0.8566
  767MOL0     H 3529   4.622   3.502   0.755  1.0874  1.1130 -0.4803
  767MOL0     H 3530   4.733   3.489   0.953  1.1517 -0.0599 -0.5036
  767MOL0     H 3531   5.421   4.273   2.533 -1.1824 -1.1862 -2.1155
  767MOL0     H 3532   5.623   4.190   2.659  1.0330 -1.9841  3.8093
  767MOL0     H 3533   5.827   3.888   2.899 -1.0860  2.7393 -1.8367
  767MOL0     H 3534   5.989   3.776   3.047  3.9274  0.4537  2.6801
  767MOL0     H 3535   6.213   4.070   3.302  1.1986 -0.1173  2.1421
  767MOL0     H 3536   6.140   3.980   3.439 -0.8912 -1.0139 -0.5298
  767MOL0     H 3537   6.351   3.854   3.265 -0.9939 -1.6128  0.2292
  767MOL0     H 3538   6.286   3.803   3.421  1.2551  0.4322  0.3217
  767MOL0     H 3539   6.383   3.973   3.544 -0.4396 -3.3071 -0.2232
  767MOL0     H 3540   6.428   4.065   3.399  0.7080 -0.5923 -1.5108
  767MOL0     H 3541   6.627   3.969   3.473 -1.3127  1.8418  0.4461
  767MOL0     H 3542   6.566   3.853   3.342 -1.6938 -1.8589  0.5094
  767MOL0     H 3543   6.542   3.582   3.642  4.0105 -0.8439  1.4750
  767MOL0     H 3544   5.997   4.123   3.290  0.1856 -1.7604  0.1180
  767MOL0     H 3545   5.819   4.221   3.166 -0.2068 -0.5619  1.2836
  768MOL0     O 3546   4.377   6.886   1.279  0.0742  0.2121 -0.3376
  768MOL0     C 3547   4.352   6.770   1.311  1.3935 -0.1038 -0.7907
  768MOL0     O 3548   4.317   6.733   1.438 -0.7680  0.5112 -0.4160
  768MOL0     C 3549   4.313   6.822   1.542  0.5283 -0.8198 -0.2627
  768MOL0     C 3550   4.406   6.932   1.565  1.0047  0.5662 -0.3314
  768MOL0     C 3551   4.387   7.025   1.669 -0.3475 -0.3271  0.3190
  768MOL0     C 3552   4.275   7.019   1.757  0.4684 -0.7289  0.7493
  768MOL0     O 3553   4.260   7.102   1.871 -0.2478  0.1952 -0.1542
  768MOL0     C 3554   4.144   7.096   1.951 -0.1996  0.3738 -0.2724
  768MOL0     C 3555   4.147   7.193   2.072  0.3115  0.4662  0.4994
  768MOL0     C 3556   4.276   7.175   2.156  0.2063 -0.2248  0.8372
  768MOL0     C 3557   4.367   7.308   2.159  0.8024 -0.3688 -0.3508
  768MOL0     C 3558   4.489   7.295   2.232 -0.0931 -0.1968 -0.0283
  768MOL0     C 3559   4.554   7.428   2.236  0.2192 -0.2694 -0.0627
  768MOL0     C 3560   4.694   7.431   2.306  0.6117  0.7083 -0.1626
  768MOL0     C 3561   4.801   7.351   2.239  0.2289 -0.0317 -0.1690
  768MOL0     N 3562   4.918   7.325   2.331  0.5433 -0.6935  0.1991
  768MOL0     C 3563   5.020   7.422   2.345 -1.1378 -0.0748 -1.3235
  768MOL0     C 3564   5.125   7.356   2.403 -0.3932 -0.0824  0.8048
  768MOL0     C 3565   5.254   7.418   2.446 -0.1422 -0.7327  0.4193
  768MOL0     C 3566   5.374   7.389   2.355 -0.2833 -0.3916  0.6710
  768MOL0     C 3567   5.353   7.407   2.206 -0.4476 -0.0645 -0.7706
  768MOL0     C 3568   5.485   7.450   2.130 -1.0580  0.8405  0.3297
  768MOL0     O 3569   5.471   7.473   1.988 -0.2390  0.4073  0.1087
  768MOL0     C 3570   5.582   7.448   1.914  1.3240  0.7113 -0.3984
  768MOL0     C 3571   5.718   7.442   1.955 -0.2768  0.0895  0.0709
  768MOL0     C 3572   5.818   7.419   1.863 -0.8977  0.1448 -0.0161
  768MOL0     C 3573   5.959   7.399   1.922  0.3655  0.2864 -0.1016
  768MOL0     C 3574   5.784   7.393   1.721  1.1665  0.4610 -0.6673
  768MOL0     C 3575   5.876   7.355   1.608 -0.5905  0.1645  0.3337
  768MOL0     O 3576   6.013   7.369   1.627  0.3880 -0.3781  0.5712
  768MOL0     C 3577   6.100   7.311   1.540  0.1942 -0.1998  0.8436
  768MOL0     C 3578   6.191   7.405   1.477 -0.1555  0.5013 -0.1372
  768MOL0     C 3579   6.285   7.346   1.388 -0.1784  0.0323  0.0370
  768MOL0     C 3580   6.308   7.210   1.379  0.5876  0.2686  0.9782
  768MOL0     O 3581   6.417   7.163   1.301 -0.5222 -0.3449  0.1267
  768MOL0     C 3582   6.454   7.020   1.311  0.5312 -0.4767 -0.9635
  768MOL0     C 3583   6.580   6.988   1.226 -0.0164  0.9464 -0.4783
  768MOL0     C 3584   6.700   6.938   1.318  0.3129 -0.8548  0.3612
  768MOL0     C 3585   6.822   6.921   1.228  0.7915 -0.3583 -0.3433
  768MOL0     C 3586   6.836   6.781   1.159  1.1482 -0.3347  0.0599
  768MOL0     C 3587   6.939   6.773   1.043  0.3965  0.3599  0.7266
  768MOL0     C 3588   6.942   6.631   0.982  1.0078  0.3693 -0.5771
  768MOL0     C 3589   7.042   6.617   0.867 -0.6316 -0.6667  0.5701
  768MOL0    Cl 3590   6.996   6.717   0.741 -0.4303 -0.2151  0.5087
  768MOL0     C 3591   6.225   7.124   1.446  0.4269 -0.3954 -0.4867
  768MOL0     C 3592   6.114   7.174   1.527  0.0912 -0.3762 -0.1065
  768MOL0     O 3593   5.818   7.303   1.513 -0.1937  0.2265 -0.0604
  768MOL0     C 3594   5.641   7.399   1.682  0.2944  0.2661  0.3961
  768MOL0     C 3595   5.544   7.433   1.784  0.0204 -0.0518  0.6749
  768MOL0     N 3596   5.083   7.226   2.426  0.0886 -0.6163 -0.0931
  768MOL0     N 3597   4.961   7.207   2.385 -0.8528  0.0989  0.2507
  768MOL0     C 3598   4.189   6.913   1.739  0.1574 -0.1674  0.1415
  768MOL0     C 3599   4.211   6.823   1.636  0.6662  0.7631 -0.8666
  768MOL0     C 3600   4.338   6.658   1.212 -0.2168  0.2289  0.7485
  768MOL0     C 3601   4.382   6.678   1.084 -0.5817 -0.2542 -0.5025
  768MOL0     C 3602   4.365   6.591   0.985  0.3317  0.9961 -0.7533
  768MOL0     C 3603   4.303   6.466   1.009 -0.4740  0.5421 -0.2742
  768MOL0     O 3604   4.294   6.372   0.905  0.1695 -0.2966  0.1185
  768MOL0     C 3605   4.196   6.274   0.910 -0.4138 -0.0887  0.7032
  768MOL0     C 3606   4.182   6.200   0.771 -0.3157  0.7834  0.8251
  768MOL0     C 3607   4.315   6.138   0.734  0.6266  0.7288 -0.4014
  768MOL0     C 3608   4.298   6.067   0.601 -0.2708  0.1751 -0.8553
  768MOL0     C 3609   4.412   6.054   0.517 -0.2956 -0.3178 -0.2170
  768MOL0     C 3610   4.495   6.074   0.432  0.1146  0.0476 -0.3542
  768MOL0     C 3611   4.257   6.442   1.133  0.0726 -0.1034  0.2406
  768MOL0     C 3612   4.273   6.537   1.237 -0.0982  0.4903  0.6456
  768MOL0     H 3613   4.494   6.936   1.501  0.9842 -0.8232 -0.4786
  768MOL0     H 3614   4.467   7.096   1.681 -0.4060 -0.4107  1.3041
  768MOL0     H 3615   4.054   7.102   1.889  0.7821  0.1022 -1.7664
  768MOL0     H 3616   4.136   6.996   1.995 -0.4249  0.3806 -0.2942
  768MOL0     H 3617   4.133   7.293   2.031 -0.3950 -0.1056 -0.7140
  768MOL0     H 3618   4.056   7.180   2.131 -0.2017 -1.9073 -0.7073
  768MOL0     H 3619   4.249   7.147   2.258 -2.9409  0.6095  0.3533
  768MOL0     H 3620   4.333   7.098   2.103  0.3401 -1.4460  2.6841
  768MOL0     H 3621   4.402   7.326   2.057  4.1714  0.5477  0.8600
  768MOL0     H 3622   4.302   7.387   2.199  0.3442 -2.1844  2.7669
  768MOL0     H 3623   4.475   7.252   2.332  1.8178  0.1133  0.4143
  768MOL0     H 3624   4.555   7.223   2.183 -0.9980 -2.1223  1.4412
  768MOL0     H 3625   4.556   7.469   2.135  1.7724 -1.7645 -0.6855
  768MOL0     H 3626   4.483   7.492   2.289  1.2764  0.6571  0.2889
  768MOL0     H 3627   4.738   7.529   2.323  1.6975  0.0788  0.7809
  768MOL0     H 3628   4.680   7.396   2.409 -3.1550  0.3535 -0.6440
  768MOL0     H 3629   4.839   7.410   2.155 -1.1727  1.2698  0.0629
  768MOL0     H 3630   4.760   7.258   2.198  0.6727 -0.6922  0.8312
  768MOL0     H 3631   5.021   7.528   2.321 -0.1779  0.1300 -0.4634
  768MOL0     H 3632   5.247   7.527   2.450  1.4538 -0.5106 -1.4119
  768MOL0     H 3633   5.269   7.380   2.548 -1.8692 -1.9423  0.2798
  768MOL0     H 3634   5.418   7.290   2.371 -0.8157 -0.8289 -0.4182
  768MOL0     H 3635   5.457   7.448   2.394 -0.2905 -1.1252  1.8341
  768MOL0     H 3636   5.276   7.482   2.185  0.5892  1.0294 -0.8055
  768MOL0     H 3637   5.320   7.313   2.162 -1.0169 -1.8869  3.1987
  768MOL0     H 3638   5.537   7.355   2.148 -3.7204 -0.3979  2.0862
  768MOL0     H 3639   5.546   7.530   2.174 -0.0358  0.5824 -0.5749
  768MOL0     H 3640   5.752   7.454   2.058 -1.0361  3.7442  0.0129
  768MOL0     H 3641   6.005   7.301   1.905  1.3004  0.9957 -2.0497
  768MOL0     H 3642   6.029   7.461   1.865 -0.4622 -1.3298 -3.0977
  768MOL0     H 3643   5.963   7.417   2.029  0.5724  1.6014 -0.3067
  768MOL0     H 3644   6.206   7.504   1.518  1.1243 -0.0202  0.6885
  768MOL0     H 3645   6.349   7.417   1.337  1.1461  0.1396  1.7323
  768MOL0     H 3646   6.479   6.997   1.415 -1.5024 -2.0593 -0.7628
  768MOL0     H 3647   6.374   6.953   1.280  1.2004 -2.4018  1.1895
  768MOL0     H 3648   6.540   6.913   1.158 -0.5769 -0.5999  1.4586
  768MOL0     H 3649   6.608   7.077   1.168  2.6420 -0.6598 -1.8664
  768MOL0     H 3650   6.670   6.848   1.373  0.9402 -0.2636  1.7445
  768MOL0     H 3651   6.723   7.020   1.387  1.8063  0.6057 -1.7444
  768MOL0     H 3652   6.825   6.989   1.142  1.7657  0.3373  0.2252
  768MOL0     H 3653   6.916   6.938   1.281  1.4196 -0.5088 -1.3853
  768MOL0     H 3654   6.738   6.763   1.114  1.7560  2.2140 -2.5642
  768MOL0     H 3655   6.869   6.708   1.233  4.3023  0.0091 -0.8606
  768MOL0     H 3656   6.905   6.839   0.963 -0.1148 -0.2368  0.4434
  768MOL0     H 3657   7.035   6.811   1.079 -0.0782  0.6424  1.7371
  768MOL0     H 3658   6.843   6.617   0.938  1.3394  1.8777 -1.8673
  768MOL0     H 3659   6.946   6.554   1.060 -1.0145  0.2685 -0.5359
  768MOL0     H 3660   7.049   6.518   0.821 -1.8427 -0.0700 -0.9939
  768MOL0     H 3661   7.140   6.649   0.903 -0.1519 -1.7555  0.2595
  768MOL0     H 3662   6.223   7.016   1.438  1.6616 -0.5322  0.6767
  768MOL0     H 3663   6.027   7.123   1.567 -0.1137  0.4469  0.5250
  768MOL0     H 3664   5.618   7.397   1.576 -0.7724  3.5358  0.4665
  768MOL0     H 3665   5.441   7.432   1.748  0.3530 -1.3458 -0.2933
  768MOL0     H 3666   4.112   6.890   1.812 -0.6458 -1.9640 -1.2137
  768MOL0     H 3667   4.139   6.742   1.624  1.1673  0.5005 -2.2687
  768MOL0     H 3668   4.418   6.776   1.055 -2.7214  2.3131  4.2796
  768MOL0     H 3669   4.390   6.620   0.883  2.0057  0.6403 -0.4736
  768MOL0     H 3670   4.224   6.209   0.993 -0.1504  1.5263  1.9146
  768MOL0     H 3671   4.104   6.331   0.924 -0.5541  0.2614 -1.3556
  768MOL0     H 3672   4.160   6.268   0.687 -0.2161 -0.9378 -0.6642
  768MOL0     H 3673   4.104   6.124   0.778 -1.7163  1.7384 -2.3107
  768MOL0     H 3674   4.346   6.065   0.810  1.2353  0.6380 -0.7295
  768MOL0     H 3675   4.399   6.208   0.733  1.0722  0.3337  2.0898
  768MOL0     H 3676   4.218   6.104   0.536 -0.0428  0.6545 -0.8681
  768MOL0     H 3677   4.265   5.967   0.630  1.0564  0.1166  0.5394
  768MOL0     H 3678   4.573   6.092   0.362  1.4977 -2.5148  0.4198
  768MOL0     H 3679   4.219   6.340   1.144  2.6067 -1.0752  0.7195
  768MOL0     H 3680   4.235   6.506   1.334 -0.4536 -1.5638 -0.0942
  769MOL0     O 3681   2.143   6.974   5.994  0.2214 -0.5133 -0.2749
  769MOL0     C 3682   2.184   6.859   5.981  1.2978 -0.9022 -1.3183
  769MOL0     O 3683   2.113   6.749   5.958 -0.0973 -0.0566 -0.6069
  769MOL0     C 3684   1.981   6.752   5.982 -0.9275 -0.1579  0.2463
  769MOL0     C 3685   1.914   6.668   6.079 -0.2567  0.3125 -0.2714
  769MOL0     C 3686   1.781   6.669   6.103 -0.9913 -0.3760  0.1167
  769MOL0     C 3687   1.701   6.766   6.043  0.4556  0.6297 -0.7383
  769MOL0     O 3688   1.565   6.760   6.071 -0.0393 -1.2344  1.1068
  769MOL0     C 3689   1.471   6.838   5.996 -0.3157 -0.7707  0.6128
  769MOL0     C 3690   1.320   6.814   6.030 -0.0394 -0.4695 -0.3099
  769MOL0     C 3691   1.219   6.920   5.996  0.5676 -0.3726 -0.3570
  769MOL0     C 3692   1.203   6.930   5.844  0.1862 -0.1750  0.5989
  769MOL0     C 3693   1.096   7.022   5.807  0.8497  0.0016 -0.8537
  769MOL0     C 3694   1.056   6.981   5.667  0.2885 -0.9548 -0.1772
  769MOL0     C 3695   0.937   7.076   5.622 -0.4414 -0.6356 -0.1424
  769MOL0     C 3696   0.918   7.072   5.469 -0.0042 -0.0856 -0.0947
  769MOL0     N 3697   0.907   6.931   5.415 -0.0944  0.1611 -0.1364
  769MOL0     C 3698   0.832   6.836   5.475 -0.0662  0.2672 -0.2732
  769MOL0     C 3699   0.866   6.727   5.403  0.2464  0.7397 -0.3657
  769MOL0     C 3700   0.813   6.591   5.429  0.2912 -0.0789  0.0578
  769MOL0     C 3701   0.811   6.545   5.572 -0.2723  0.1320 -0.0174
  769MOL0     C 3702   0.757   6.406   5.608  0.1136  0.1819 -0.2107
  769MOL0     C 3703   0.601   6.378   5.611  0.5239  0.1668  0.2854
  769MOL0     O 3704   0.521   6.446   5.708 -0.0799  0.1662 -0.6947
  769MOL0     C 3705   0.402   6.383   5.739 -0.3175  0.6238 -0.1080
  769MOL0     C 3706   0.335   6.289   5.659  0.0415 -0.4567  0.4417
  769MOL0     C 3707   0.208   6.233   5.687 -0.5102  0.1016  1.0331
  769MOL0     C 3708   0.165   6.120   5.593 -0.0641 -0.4995  0.0258
  769MOL0     C 3709   0.147   6.275   5.802 -0.0798  0.2644  0.0894
  769MOL0     C 3710   0.009   6.227   5.840  0.5025  0.4512  1.4222
  769MOL0     O 3711  -0.035   6.265   5.952 -0.6066  0.0553  0.0008
  769MOL0     C 3712  -0.174   6.286   5.970  0.7767  0.3596  0.1361
  769MOL0     C 3713  -0.240   6.205   6.059 -0.1354 -0.1791  0.2804
  769MOL0     C 3714  -0.371   6.232   6.087  0.0696 -0.3742 -0.2214
  769MOL0     C 3715  -0.446   6.342   6.028 -0.6175  0.0231 -0.1216
  769MOL0     O 3716  -0.574   6.373   6.056  0.0188 -0.1421 -0.2676
  769MOL0     C 3717  -0.636   6.324   6.176  0.2655  0.2254  0.9311
  769MOL0     C 3718  -0.776   6.382   6.196 -0.5757 -0.0163 -0.2186
  769MOL0     C 3719  -0.854   6.356   6.324  0.0667  0.4297  0.9094
  769MOL0     C 3720  -0.995   6.391   6.301 -0.5139  0.0434 -0.2471
  769MOL0     C 3721  -1.097   6.364   6.418  0.2054  0.9633  0.0500
  769MOL0     C 3722  -1.236   6.411   6.370 -0.5435 -0.2170 -0.2469
  769MOL0     C 3723  -1.346   6.392   6.467 -0.0501 -0.0565 -0.6302
  769MOL0     C 3724  -1.341   6.506   6.576 -0.5398  0.3343 -0.4726
  769MOL0    Cl 3725  -1.433   6.470   6.714 -0.2142 -0.1477  0.3058
  769MOL0     C 3726  -0.380   6.417   5.931 -0.0831  0.1633 -0.6569
  769MOL0     C 3727  -0.245   6.399   5.910 -0.6058  0.4009 -0.1278
  769MOL0     O 3728  -0.068   6.190   5.750 -0.2513  0.1289 -0.0848
  769MOL0     C 3729   0.211   6.371   5.882  0.2552  0.5777 -0.6547
  769MOL0     C 3730   0.331   6.423   5.845 -0.9641  0.1734  0.1086
  769MOL0     N 3731   0.937   6.760   5.289 -0.6023  0.0306  0.0924
  769MOL0     N 3732   0.954   6.889   5.294 -1.1134  0.5206  0.1082
  769MOL0     C 3733   1.763   6.855   5.952  0.3252  0.0039  0.5268
  769MOL0     C 3734   1.898   6.845   5.919  0.2068  0.3922 -0.1702
  769MOL0     C 3735   2.324   6.853   5.959  0.5435  0.3557  0.2835
  769MOL0     C 3736   2.419   6.949   6.000  1.2424  0.9929 -0.5582
  769MOL0     C 3737   2.555   6.928   5.998  0.0802 -0.1059 -0.0574
  769MOL0     C 3738   2.609   6.810   5.942  0.9116  0.0694 -0.2670
  769MOL0     O 3739   2.737   6.780   5.918 -0.4987 -0.4368 -0.2051
  769MOL0     C 3740   2.844   6.874   5.968  0.8796  0.9455  0.2074
  769MOL0     C 3741   2.975   6.803   5.934 -0.1776  0.7572  0.8163
  769MOL0     C 3742   3.066   6.881   5.837  0.1546 -0.4488 -0.0305
  769MOL0     C 3743   3.158   6.960   5.930 -0.0312 -0.0993  0.0776
  769MOL0     C 3744   3.202   7.076   5.849 -0.4171 -0.3500  0.3518
  769MOL0     C 3745   3.227   7.162   5.771 -0.2239 -0.2949  0.1269
  769MOL0     C 3746   2.521   6.714   5.901  0.3811  0.2258 -0.7402
  769MOL0     C 3747   2.383   6.730   5.915 -0.8169 -0.3631 -0.5977
  769MOL0     H 3748   1.966   6.592   6.137 -0.3307  0.8311  0.4848
  769MOL0     H 3749   1.736   6.593   6.167 -0.3862  1.0453  2.3781
  769MOL0     H 3750   1.492   6.944   6.010  0.3294 -0.2619 -3.1328
  769MOL0     H 3751   1.487   6.830   5.888 -0.9956  1.0014  0.3464
  769MOL0     H 3752   1.298   6.718   5.982 -1.7433  0.6320 -1.9159
  769MOL0     H 3753   1.308   6.796   6.137  0.0023  0.0613 -0.2137
  769MOL0     H 3754   1.129   6.891   6.051  1.0166  0.2800  0.7432
  769MOL0     H 3755   1.241   7.020   6.033 -1.0758 -0.4824  1.0767
  769MOL0     H 3756   1.292   6.952   5.785 -1.1561 -2.5306 -2.6355
  769MOL0     H 3757   1.181   6.828   5.811  0.3523 -0.3501  1.0171
  769MOL0     H 3758   1.010   7.010   5.873  1.2030  3.0333  0.3284
  769MOL0     H 3759   1.127   7.127   5.810 -2.1000  0.9738 -1.0157
  769MOL0     H 3760   1.138   6.986   5.594 -1.3703  0.7344 -2.0401
  769MOL0     H 3761   1.021   6.878   5.680 -4.5429  0.4847  0.2566
  769MOL0     H 3762   0.838   7.054   5.663 -3.0175  1.7074 -4.4064
  769MOL0     H 3763   0.962   7.179   5.648  0.2784 -0.4646 -1.4160
  769MOL0     H 3764   1.010   7.104   5.419 -1.5675  2.1470 -1.7589
  769MOL0     H 3765   0.852   7.146   5.423  2.3704  1.3184 -1.5024
  769MOL0     H 3766   0.775   6.842   5.568  1.8631  0.3652  0.9490
  769MOL0     H 3767   0.712   6.585   5.386  1.0984  0.9606 -2.1617
  769MOL0     H 3768   0.876   6.521   5.374  0.8939 -1.2646  2.1704
  769MOL0     H 3769   0.740   6.613   5.620  0.7148  2.1953 -1.3405
  769MOL0     H 3770   0.908   6.569   5.617 -0.2542  0.3502 -0.1727
  769MOL0     H 3771   0.782   6.391   5.714  1.9504 -0.9413 -0.7623
  769MOL0     H 3772   0.820   6.336   5.553 -0.9620  1.0722 -2.7028
  769MOL0     H 3773   0.580   6.274   5.635  0.1476  0.4705  1.3327
  769MOL0     H 3774   0.560   6.387   5.510 -0.4283 -2.8522  0.2969
  769MOL0     H 3775   0.367   6.237   5.569 -1.4480  0.5989 -0.7573
  769MOL0     H 3776   0.230   6.101   5.507  0.3808 -1.7763  0.6217
  769MOL0     H 3777   0.160   6.028   5.651  0.1816 -0.5505 -0.0335
  769MOL0     H 3778   0.067   6.139   5.548  0.2196 -1.7093 -1.2006
  769MOL0     H 3779  -0.176   6.134   6.110 -1.8229  0.9984  4.4608
  769MOL0     H 3780  -0.423   6.168   6.158 -2.5158 -1.2210 -2.6698
  769MOL0     H 3781  -0.649   6.215   6.171  1.9112  0.0657 -0.8857
  769MOL0     H 3782  -0.575   6.351   6.263  1.2645  1.5743 -0.1573
  769MOL0     H 3783  -0.766   6.491   6.187 -0.8698  0.0845  0.6269
  769MOL0     H 3784  -0.839   6.342   6.116 -1.0484 -0.8919  0.5761
  769MOL0     H 3785  -0.818   6.430   6.396  1.8024  0.3964  0.1237
  769MOL0     H 3786  -0.853   6.256   6.367  1.3867  0.8396  1.8927
  769MOL0     H 3787  -0.999   6.497   6.276 -1.2322  0.0401 -0.1659
  769MOL0     H 3788  -1.025   6.326   6.218 -2.2217  2.9670 -2.1110
  769MOL0     H 3789  -1.071   6.436   6.497  2.4182  1.2881 -0.9190
  769MOL0     H 3790  -1.091   6.260   6.449  0.6376  0.3982 -1.8454
  769MOL0     H 3791  -1.229   6.518   6.350  2.5370 -0.9176 -3.8975
  769MOL0     H 3792  -1.266   6.366   6.275  1.4559 -1.3733 -0.3773
  769MOL0     H 3793  -1.339   6.294   6.514 -0.3569  0.2916  0.1692
  769MOL0     H 3794  -1.441   6.390   6.414 -0.8831  0.0636  0.8025
  769MOL0     H 3795  -1.379   6.602   6.541  3.4569  1.7389 -1.4733
  769MOL0     H 3796  -1.239   6.520   6.615 -1.8033  1.2166  2.8982
  769MOL0     H 3797  -0.430   6.503   5.886  1.8827  1.0959 -1.1449
  769MOL0     H 3798  -0.182   6.469   5.857 -0.0280  0.1295  0.1900
  769MOL0     H 3799   0.179   6.392   5.984 -2.2619 -3.1070 -0.4828
  769MOL0     H 3800   0.377   6.499   5.906 -2.0263  0.5094  0.5123
  769MOL0     H 3801   1.700   6.919   5.893 -0.5695 -2.2447 -1.1030
  769MOL0     H 3802   1.943   6.914   5.848  0.8618  0.7365  0.5591
  769MOL0     H 3803   2.368   7.042   6.022 -1.4674  0.1314 -2.5879
  769MOL0     H 3804   2.613   7.006   6.047  0.2259 -1.6722  2.4563
  769MOL0     H 3805   2.824   6.975   5.934 -1.2598  0.7537  0.7737
  769MOL0     H 3806   2.837   6.876   6.078  0.0757  1.0197  0.1532
  769MOL0     H 3807   2.952   6.710   5.882  3.5598  0.6671 -0.9995
  769MOL0     H 3808   3.032   6.765   6.020  4.1351 -0.5251 -2.2484
  769MOL0     H 3809   3.006   6.927   5.758  0.2494 -0.3458 -0.0437
  769MOL0     H 3810   3.134   6.814   5.785 -0.7676 -1.7034  0.3351
  769MOL0     H 3811   3.237   6.912   5.989  1.5542 -0.2508 -2.0669
  769MOL0     H 3812   3.105   7.018   6.006  0.1065  2.7202 -1.8309
  769MOL0     H 3813   3.250   7.239   5.699 -1.7011  1.8497  1.8145
  769MOL0     H 3814   2.565   6.626   5.857 -2.5822 -1.1314 -1.2452
  769MOL0     H 3815   2.323   6.644   5.885 -0.4449 -1.8952  2.6377
  770MOL0     O 3816  10.885  11.225   8.558 -0.3317 -0.8049  0.2668
  770MOL0     C 3817  10.900  11.122   8.496  0.7651  0.8636 -0.0940
  770MOL0     O 3818  11.018  11.054   8.473 -0.1889  0.5552  0.8042
  770MOL0     C 3819  11.137  11.069   8.532 -0.8763 -0.1195 -0.3718
  770MOL0     C 3820  11.246  11.031   8.447  0.1480 -0.1471 -0.0112
  770MOL0     C 3821  11.370  11.042   8.501 -0.5965 -0.2163  0.1779
  770MOL0     C 3822  11.397  11.067   8.632  0.8608  0.0260  0.5593
  770MOL0     O 3823  11.515  11.073   8.697 -0.3082  0.0327 -0.4463
  770MOL0     C 3824  11.598  10.953   8.685  0.4670  0.3760 -0.1924
  770MOL0     C 3825  11.723  10.985   8.763 -0.1135  0.3258 -0.3164
  770MOL0     C 3826  11.836  11.042   8.664  0.2721 -0.0535  1.0696
  770MOL0     C 3827  11.962  11.082   8.740 -0.1419 -1.6019  0.1518
  770MOL0     C 3828  12.070  11.162   8.655  0.5408 -0.1131 -0.8535
  770MOL0     C 3829  12.132  11.078   8.551 -0.5228  0.3929 -0.4066
  770MOL0     C 3830  12.231  11.159   8.466  1.2371 -1.2032 -0.0449
  770MOL0     C 3831  12.291  11.083   8.343 -0.4774 -0.9359  0.1825
  770MOL0     N 3832  12.410  11.159   8.297 -0.2901 -0.0195 -0.3273
  770MOL0     C 3833  12.444  11.214   8.172 -0.5135 -0.2321  0.4855
  770MOL0     C 3834  12.570  11.256   8.193  0.0785 -1.1682  0.4772
  770MOL0     C 3835  12.656  11.304   8.083  0.9972 -0.2264  0.4237
  770MOL0     C 3836  12.805  11.286   8.100 -0.0444 -0.0288 -0.2325
  770MOL0     C 3837  12.870  11.380   8.206  0.1276 -0.7846 -0.6422
  770MOL0     C 3838  12.998  11.452   8.149  0.1633 -0.0456 -0.9267
  770MOL0     O 3839  13.101  11.354   8.130  1.1232 -0.1479  0.3522
  770MOL0     C 3840  13.217  11.398   8.060  0.0992  0.2197  0.2967
  770MOL0     C 3841  13.232  11.530   8.004  0.1837  0.4290 -0.2711
  770MOL0     C 3842  13.351  11.570   7.944 -0.6862  1.3477 -0.3019
  770MOL0     C 3843  13.362  11.710   7.896  0.6211  0.5702 -0.5359
  770MOL0     C 3844  13.460  11.469   7.924 -0.1594 -0.3295  0.4200
  770MOL0     C 3845  13.590  11.492   7.868  0.1655  0.6764  0.4799
  770MOL0     O 3846  13.680  11.399   7.892 -1.5606 -0.1484 -0.1113
  770MOL0     C 3847  13.815  11.427   7.869  0.0139  1.5981  0.7609
  770MOL0     C 3848  13.866  11.470   7.741 -0.6718  0.5623 -0.9279
  770MOL0     C 3849  14.008  11.481   7.733 -0.3137 -0.6278  1.0270
  770MOL0     C 3850  14.098  11.447   7.842  0.5857  0.0761 -0.0623
  770MOL0     O 3851  14.238  11.456   7.845  0.4983 -0.2333 -0.7700
  770MOL0     C 3852  14.282  11.583   7.802  0.0120  0.7059 -0.6535
  770MOL0     C 3853  14.416  11.616   7.857 -0.3681 -0.8170 -1.2138
  770MOL0     C 3854  14.468  11.741   7.784 -0.0621  0.2002  0.1997
  770MOL0     C 3855  14.586  11.807   7.864 -0.5022 -0.5434 -0.1283
  770MOL0     C 3856  14.544  11.858   8.006  0.6332  0.4044 -0.4258
  770MOL0     C 3857  14.630  11.965   8.060  0.5296 -0.2933  0.2754
  770MOL0     C 3858  14.612  11.991   8.211  0.0243 -0.6467 -1.0223
  770MOL0     C 3859  14.469  12.019   8.248  0.1924  0.0285 -0.5621
  770MOL0    Cl 3860  14.460  12.099   8.402  0.1294 -0.4602  0.2228
  770MOL0     C 3861  14.042  11.404   7.958  0.7433  0.1859 -0.0719
  770MOL0     C 3862  13.897  11.405   7.971 -0.3389  0.9160  0.0726
  770MOL0     O 3863  13.611  11.591   7.808 -0.4215 -0.2655  0.0917
  770MOL0     C 3864  13.435  11.337   7.980 -0.6205  0.2991 -0.6701
  770MOL0     C 3865  13.315  11.304   8.039  0.6448  0.6642 -0.3329
  770MOL0     N 3866  12.607  11.240   8.318 -0.7324 -0.1160 -0.3845
  770MOL0     N 3867  12.522  11.173   8.379 -0.9583 -0.2491  0.5511
  770MOL0     C 3868  11.287  11.104   8.717  0.7713 -0.2736  0.9029
  770MOL0     C 3869  11.157  11.108   8.664 -0.6625 -0.5287  0.2495
  770MOL0     C 3870  10.784  11.059   8.427 -0.4813  1.3770 -0.3414
  770MOL0     C 3871  10.655  11.113   8.445 -0.1464 -0.2788 -0.1015
  770MOL0     C 3872  10.544  11.050   8.378 -0.4590 -0.0881 -0.7957
  770MOL0     C 3873  10.568  10.941   8.296  0.4278  0.5505  0.9417
  770MOL0     O 3874  10.462  10.860   8.237 -0.0437 -0.7743  0.5098
  770MOL0     C 3875  10.337  10.920   8.212 -0.2931 -0.0268 -0.0751
  770MOL0     C 3876  10.254  10.831   8.115  0.0831  0.5388  1.3138
  770MOL0     C 3877  10.125  10.906   8.080  0.3890 -0.6381  0.6153
  770MOL0     C 3878  10.020  10.831   8.003 -0.3416  0.4084 -0.9678
  770MOL0     C 3879   9.966  10.721   8.089  0.3639  0.1976 -0.1966
  770MOL0     C 3880   9.932  10.639   8.176 -0.4601 -0.5196 -0.0528
  770MOL0     C 3881  10.692  10.891   8.276  0.0835  0.7420 -0.6445
  770MOL0     C 3882  10.798  10.947   8.347 -0.0799  0.5206  0.1852
  770MOL0     H 3883  11.234  11.000   8.343  1.6211  0.6120 -0.4286
  770MOL0     H 3884  11.451  11.017   8.433 -0.4154  1.4231 -0.2590
  770MOL0     H 3885  11.540  10.870   8.727  0.7394 -0.5213 -1.5141
  770MOL0     H 3886  11.629  10.924   8.584  0.9759  1.8931 -0.4994
  770MOL0     H 3887  11.706  11.056   8.844  1.3609  1.1519 -0.7056
  770MOL0     H 3888  11.758  10.891   8.808 -1.6712 -0.0389  0.2025
  770MOL0     H 3889  11.862  10.961   8.596 -0.3742  1.1527 -0.6910
  770MOL0     H 3890  11.798  11.131   8.613  0.7885  3.4899  6.0953
  770MOL0     H 3891  11.929  11.150   8.820  0.1461 -2.3897  0.9629
  770MOL0     H 3892  12.001  10.993   8.790  1.7280 -0.3435  1.0407
  770MOL0     H 3893  12.017  11.249   8.617  0.8326  0.9801  1.0992
  770MOL0     H 3894  12.141  11.200   8.730 -1.0242 -2.0643  1.8351
  770MOL0     H 3895  12.192  10.993   8.584  0.3180  0.9190 -0.5402
  770MOL0     H 3896  12.046  11.041   8.494  0.7915 -1.7796 -1.1285
  770MOL0     H 3897  12.177  11.245   8.428  0.2027 -2.8402 -2.5285
  770MOL0     H 3898  12.318  11.188   8.525  2.4336  0.4017 -2.4548
  770MOL0     H 3899  12.221  11.091   8.259  0.2609 -1.2983 -0.4861
  770MOL0     H 3900  12.315  10.979   8.367 -1.5855 -1.1890  0.2217
  770MOL0     H 3901  12.384  11.219   8.082 -0.5504 -1.8792  0.3866
  770MOL0     H 3902  12.629  11.265   7.984  2.2681 -0.5226  0.1850
  770MOL0     H 3903  12.636  11.411   8.066  1.7894 -0.5033 -2.9794
  770MOL0     H 3904  12.855  11.306   8.005  2.0757 -1.4521  0.5161
  770MOL0     H 3905  12.831  11.185   8.133  2.0040  1.0973  1.9039
  770MOL0     H 3906  12.897  11.323   8.295  0.1976 -1.2715 -0.9747
  770MOL0     H 3907  12.794  11.454   8.231 -1.3724 -2.3538 -0.3536
  770MOL0     H 3908  13.034  11.519   8.228  0.7052 -2.4380  0.9601
  770MOL0     H 3909  12.969  11.503   8.056 -0.0263 -0.3795 -1.0551
  770MOL0     H 3910  13.151  11.602   8.003  1.5848  2.0980 -2.2205
  770MOL0     H 3911  13.296  11.771   7.959  2.0063 -0.9140  2.5876
  770MOL0     H 3912  13.459  11.754   7.920  0.4772  0.0876  1.0746
  770MOL0     H 3913  13.346  11.716   7.788  2.0748  1.2610 -0.7348
  770MOL0     H 3914  13.802  11.504   7.660  0.2545  1.6577 -1.2259
  770MOL0     H 3915  14.055  11.525   7.646 -0.2292  1.6605  2.1700
  770MOL0     H 3916  14.282  11.586   7.693 -1.7847 -0.8575 -0.7303
  770MOL0     H 3917  14.229  11.674   7.834 -0.8775 -0.2456  0.6751
  770MOL0     H 3918  14.390  11.638   7.961 -4.4286  1.7316 -2.5226
  770MOL0     H 3919  14.486  11.532   7.848  0.5634 -0.4637  1.7944
  770MOL0     H 3920  14.386  11.812   7.766 -0.4602 -0.2606  0.1772
  770MOL0     H 3921  14.501  11.707   7.685  2.1952  2.3389  0.1127
  770MOL0     H 3922  14.672  11.739   7.863  0.4232  0.5844 -1.0905
  770MOL0     H 3923  14.631  11.889   7.806 -2.9925 -0.0214 -1.4630
  770MOL0     H 3924  14.539  11.768   8.067 -1.6514 -3.3128 -5.3862
  770MOL0     H 3925  14.438  11.886   7.995 -0.8054 -3.4146  1.5595
  770MOL0     H 3926  14.732  11.931   8.042  1.0155  2.0547 -1.8818
  770MOL0     H 3927  14.607  12.054   8.001 -0.7516 -1.6642 -1.3696
  770MOL0     H 3928  14.686  12.069   8.232  0.4209 -1.4644  0.7628
  770MOL0     H 3929  14.656  11.909   8.268  1.4214  0.1937 -0.8574
  770MOL0     H 3930  14.418  11.923   8.244  1.3597 -0.6200 -0.5244
  770MOL0     H 3931  14.426  12.089   8.177  3.9004  3.4915  0.2110
  770MOL0     H 3932  14.109  11.389   8.043 -1.5037 -0.2667  1.7076
  770MOL0     H 3933  13.851  11.393   8.069  0.5474 -1.5588  0.2492
  770MOL0     H 3934  13.510  11.258   7.982 -0.7185  0.2273  0.4338
  770MOL0     H 3935  13.292  11.206   8.080 -0.7359  0.2197 -2.0691
  770MOL0     H 3936  11.310  11.130   8.820  3.9346 -3.1612  1.0956
  770MOL0     H 3937  11.065  11.136   8.714 -1.3178 -0.2729 -1.0789
  770MOL0     H 3938  10.646  11.207   8.497  0.9309  0.1091 -0.5901
  770MOL0     H 3939  10.452  11.106   8.386 -0.8982 -0.4394 -2.8217
  770MOL0     H 3940  10.282  10.942   8.304  1.1650  3.5255  0.1147
  770MOL0     H 3941  10.359  11.015   8.164 -2.0268 -0.0272 -0.9464
  770MOL0     H 3942  10.231  10.744   8.177 -1.8714  1.1982  1.5771
  770MOL0     H 3943  10.304  10.789   8.028  1.8363  1.8797  1.6047
  770MOL0     H 3944  10.154  10.996   8.025  1.1560 -1.3607 -0.1838
  770MOL0     H 3945  10.075  10.944   8.170 -1.9499  0.4224 -1.0148
  770MOL0     H 3946  10.060  10.785   7.912 -4.0986 -0.5666 -2.3079
  770MOL0     H 3947   9.935  10.892   7.973 -1.1940 -0.6283 -0.7256
  770MOL0     H 3948   9.907  10.557   8.240 -1.4928 -0.3278 -0.1812
  770MOL0     H 3949  10.701  10.794   8.228  4.0357  0.2516  0.7180
  770MOL0     H 3950  10.892  10.898   8.323 -0.7773 -0.4895 -0.5845
  771MOL0     O 3951   0.937   4.224   7.865  0.5835  0.4035  0.3872
  771MOL0     C 3952   0.953   4.284   7.760  0.2808  0.4796 -0.1925
  771MOL0     O 3953   0.856   4.349   7.690  0.0857  0.5038 -0.8605
  771MOL0     C 3954   0.727   4.337   7.733 -0.0779  0.0257  0.3440
  771MOL0     C 3955   0.659   4.445   7.805 -0.1414 -0.3115  0.2836
  771MOL0     C 3956   0.521   4.437   7.827 -0.1757  0.2372 -0.9229
  771MOL0     C 3957   0.448   4.318   7.794  0.0983  0.3987  0.2316
  771MOL0     O 3958   0.319   4.329   7.831 -0.5998 -0.2655  1.0662
  771MOL0     C 3959   0.243   4.208   7.800  0.3427 -0.0915 -0.7466
  771MOL0     C 3960   0.096   4.230   7.847  0.0975 -0.0073  0.2451
  771MOL0     C 3961   0.003   4.127   7.793  0.1763  0.7197  0.1465
  771MOL0     C 3962  -0.134   4.150   7.860 -0.5871 -0.9352 -0.8156
  771MOL0     C 3963  -0.234   4.030   7.830 -0.2381 -0.4926  0.0389
  771MOL0     C 3964  -0.284   4.052   7.687 -0.3179  0.2414 -0.2736
  771MOL0     C 3965  -0.378   4.171   7.662 -0.0735  0.2224  0.2135
  771MOL0     C 3966  -0.464   4.156   7.531 -0.3933  0.4984  0.3555
  771MOL0     N 3967  -0.535   4.030   7.520  0.0446  0.6375  0.3973
  771MOL0     C 3968  -0.656   3.991   7.579 -0.4495 -0.7377  0.0997
  771MOL0     C 3969  -0.684   3.873   7.540  0.2129  0.9286 -0.9851
  771MOL0     C 3970  -0.791   3.781   7.605  0.2439 -0.6431 -0.4452
  771MOL0     C 3971  -0.926   3.840   7.652 -0.5511  0.5339  0.3207
  771MOL0     C 3972  -1.024   3.735   7.678  0.3739 -0.6141 -0.6562
  771MOL0     C 3973  -1.146   3.815   7.739 -0.2831  0.3924 -0.4362
  771MOL0     O 3974  -1.192   3.903   7.640 -0.1920  0.1094  0.5508
  771MOL0     C 3975  -1.306   3.976   7.671  1.0304  0.0258 -0.9833
  771MOL0     C 3976  -1.359   3.980   7.802 -0.2773  0.0916  0.2831
  771MOL0     C 3977  -1.481   4.050   7.822  0.2557  0.4000 -0.1534
  771MOL0     C 3978  -1.529   4.065   7.956  1.1998  0.4759 -1.3256
  771MOL0     C 3979  -1.554   4.107   7.715 -0.1066 -0.1716  0.6156
  771MOL0     C 3980  -1.675   4.185   7.722  0.1192  0.8806 -0.9406
  771MOL0     O 3981  -1.670   4.321   7.708 -0.8223  0.4356 -0.1837
  771MOL0     C 3982  -1.784   4.386   7.743 -0.0165  0.2686 -0.5775
  771MOL0     C 3983  -1.869   4.457   7.653  0.3361  0.3768 -0.2911
  771MOL0     C 3984  -1.977   4.531   7.704 -0.8989  0.6154  0.1459
  771MOL0     C 3985  -1.991   4.529   7.845 -0.6234 -0.4688 -0.1280
  771MOL0     O 3986  -2.079   4.614   7.910 -0.2322 -0.2915  0.1550
  771MOL0     C 3987  -2.120   4.728   7.837 -0.5330 -1.1820  0.6947
  771MOL0     C 3988  -2.226   4.805   7.901 -0.2239  0.0335 -1.0579
  771MOL0     C 3989  -2.350   4.720   7.899  0.4629 -0.1403  0.8938
  771MOL0     C 3990  -2.450   4.784   7.992  0.2125  1.2119 -0.5492
  771MOL0     C 3991  -2.580   4.703   7.993 -0.4133  0.4216 -0.0193
  771MOL0     C 3992  -2.709   4.784   8.008  0.6381  0.2550  0.8027
  771MOL0     C 3993  -2.833   4.703   8.051  0.0158  0.9814 -0.4918
  771MOL0     C 3994  -2.958   4.799   8.070 -0.2468  0.2588  0.5149
  771MOL0    Cl 3995  -3.022   4.800   8.249 -0.3645 -0.4566  0.0815
  771MOL0     C 3996  -1.916   4.460   7.932 -0.9680 -0.0104 -0.5739
  771MOL0     C 3997  -1.806   4.395   7.881  0.0443  0.4214 -0.8878
  771MOL0     O 3998  -1.775   4.112   7.739 -0.3498  0.6588  0.4371
  771MOL0     C 3999  -1.502   4.093   7.586  0.2174  1.3290  0.0111
  771MOL0     C 4000  -1.376   4.032   7.563  0.9383  0.3982 -0.3720
  771MOL0     N 4001  -0.583   3.832   7.458 -0.2110 -0.6771  0.3736
  771MOL0     N 4002  -0.494   3.926   7.438 -0.0566 -0.5805 -0.1956
  771MOL0     C 4003   0.509   4.205   7.728 -0.3030 -0.3670 -0.6444
  771MOL0     C 4004   0.652   4.219   7.700  0.5107  0.5128 -1.0716
  771MOL0     C 4005   1.093   4.305   7.709  0.3585  0.8842  1.5989
  771MOL0     C 4006   1.117   4.400   7.607 -0.6662  0.6266  0.2691
  771MOL0     C 4007   1.250   4.415   7.560  1.2765  0.1664  0.0410
  771MOL0     C 4008   1.355   4.348   7.620  0.5955 -0.1989  0.0265
  771MOL0     O 4009   1.482   4.393   7.600  0.5959 -0.7245 -0.2538
  771MOL0     C 4010   1.548   4.367   7.477  0.0000  0.6655 -1.0270
  771MOL0     C 4011   1.652   4.254   7.502  1.1479 -0.1429  0.2628
  771MOL0     C 4012   1.724   4.218   7.367 -0.5820 -0.3082 -0.0833
  771MOL0     C 4013   1.845   4.130   7.396 -0.1613  0.4122 -0.1852
  771MOL0     C 4014   1.955   4.207   7.449 -0.7179 -0.1914  0.2113
  771MOL0     C 4015   2.033   4.280   7.507 -0.3416 -0.1594 -0.8598
  771MOL0     C 4016   1.331   4.257   7.713  0.0556  1.3072 -1.0595
  771MOL0     C 4017   1.200   4.226   7.757  0.0008 -0.4889  0.1854
  771MOL0     H 4018   0.713   4.535   7.833  0.6729 -0.3965 -0.9318
  771MOL0     H 4019   0.466   4.520   7.871 -1.6289 -2.2477  2.3913
  771MOL0     H 4020   0.244   4.175   7.696  0.4921 -2.2536 -0.0944
  771MOL0     H 4021   0.289   4.126   7.856  0.6941  0.0137 -0.8845
  771MOL0     H 4022   0.097   4.229   7.956  0.0036  1.0661  0.2633
  771MOL0     H 4023   0.054   4.325   7.813 -2.2368 -1.0750 -0.1052
  771MOL0     H 4024  -0.014   4.136   7.685 -1.8947 -1.8529  0.1612
  771MOL0     H 4025   0.050   4.032   7.819 -0.1797  0.6159  0.4250
  771MOL0     H 4026  -0.122   4.147   7.969 -2.9987  0.6625 -0.4439
  771MOL0     H 4027  -0.172   4.249   7.834  4.1092  1.1354 -0.9003
  771MOL0     H 4028  -0.181   3.937   7.848  3.3375  1.2632 -0.4513
  771MOL0     H 4029  -0.314   4.031   7.905  0.8914  0.1365  1.2773
  771MOL0     H 4030  -0.197   4.072   7.624 -1.2053  0.0088 -1.6231
  771MOL0     H 4031  -0.330   3.959   7.653 -1.7995  0.1008  1.9459
  771MOL0     H 4032  -0.453   4.180   7.741  0.0520 -2.6049  0.7641
  771MOL0     H 4033  -0.329   4.269   7.665  1.0092 -0.3114  2.1108
  771MOL0     H 4034  -0.398   4.150   7.444 -0.1710 -0.4299  0.5751
  771MOL0     H 4035  -0.542   4.230   7.514 -1.3494 -0.9288 -1.9206
  771MOL0     H 4036  -0.714   4.059   7.640 -0.9022 -1.4920  0.5126
  771MOL0     H 4037  -0.811   3.695   7.540 -0.4024 -0.6640 -0.2232
  771MOL0     H 4038  -0.740   3.752   7.697 -1.3575 -1.3490  0.2725
  771MOL0     H 4039  -0.961   3.916   7.580  1.2939  0.0843 -1.1320
  771MOL0     H 4040  -0.896   3.873   7.752  3.6825 -3.6005  0.7364
  771MOL0     H 4041  -0.974   3.672   7.752 -1.8724 -0.7446  0.8418
  771MOL0     H 4042  -1.061   3.679   7.592 -2.9466 -0.2980  0.4345
  771MOL0     H 4043  -1.115   3.866   7.831  0.0480  0.9992 -0.8768
  771MOL0     H 4044  -1.219   3.737   7.760  1.0065 -0.4257  1.3564
  771MOL0     H 4045  -1.313   3.930   7.887  3.4954  1.4987 -0.7642
  771MOL0     H 4046  -1.542   4.171   7.979  0.8127  0.3116 -0.7871
  771MOL0     H 4047  -1.627   4.016   7.957  1.7341 -0.6431  0.6400
  771MOL0     H 4048  -1.466   4.018   8.031 -0.2549  1.3042  0.5060
  771MOL0     H 4049  -1.855   4.474   7.547 -0.4280 -2.5973 -0.9466
  771MOL0     H 4050  -2.022   4.596   7.630  0.3325  2.1771  0.6969
  771MOL0     H 4051  -2.026   4.784   7.830  0.6548 -2.9176  1.8326
  771MOL0     H 4052  -2.160   4.703   7.738  0.5632 -1.2172  0.2434
  771MOL0     H 4053  -2.202   4.836   8.003 -1.9060 -0.5246 -0.4584
  771MOL0     H 4054  -2.245   4.896   7.844 -3.2764 -0.9923 -1.8755
  771MOL0     H 4055  -2.324   4.618   7.929 -0.9548 -0.4497  1.1667
  771MOL0     H 4056  -2.390   4.712   7.797  1.5628  0.8519  0.3569
  771MOL0     H 4057  -2.401   4.785   8.090 -0.7690 -1.0558  0.0433
  771MOL0     H 4058  -2.474   4.886   7.961 -1.0978  1.3639  0.8621
  771MOL0     H 4059  -2.576   4.640   8.083  1.3459 -0.1226 -0.4518
  771MOL0     H 4060  -2.591   4.641   7.904  1.6619  0.3553 -0.2744
  771MOL0     H 4061  -2.679   4.860   8.081  1.1569 -0.6996  1.6030
  771MOL0     H 4062  -2.728   4.837   7.913 -2.0080  1.7651  2.0494
  771MOL0     H 4063  -2.805   4.650   8.143  0.2849  0.7614 -0.6969
  771MOL0     H 4064  -2.857   4.621   7.982 -2.0823  0.9591  0.1924
  771MOL0     H 4065  -3.043   4.765   8.011 -0.1800  1.9608 -0.6156
  771MOL0     H 4066  -2.934   4.900   8.036  0.1422 -1.0314 -3.5339
  771MOL0     H 4067  -1.923   4.452   8.040  3.2123 -0.9571 -0.2261
  771MOL0     H 4068  -1.727   4.345   7.936  2.3220  1.4056 -3.0609
  771MOL0     H 4069  -1.555   4.137   7.502 -0.8848  0.9290  0.4855
  771MOL0     H 4070  -1.318   4.020   7.472  0.6295 -1.0206 -0.4054
  771MOL0     H 4071   0.443   4.128   7.690 -2.8352  2.8134 -3.2477
  771MOL0     H 4072   0.697   4.134   7.650 -0.2808 -1.2175  1.0132
  771MOL0     H 4073   1.042   4.470   7.571  1.3303  1.5392 -2.3824
  771MOL0     H 4074   1.278   4.480   7.477  0.9391 -1.5324 -1.4741
  771MOL0     H 4075   1.466   4.335   7.414 -3.1452  3.5804  1.2284
  771MOL0     H 4076   1.590   4.461   7.440  1.5960 -0.0434 -1.1261
  771MOL0     H 4077   1.609   4.167   7.553  0.7288  0.7471  1.4836
  771MOL0     H 4078   1.727   4.276   7.578 -1.8027 -1.3926  3.8416
  771MOL0     H 4079   1.749   4.308   7.310 -6.1171  1.2199 -0.6407
  771MOL0     H 4080   1.668   4.154   7.299  0.8895 -1.4902 -0.2366
  771MOL0     H 4081   1.877   4.088   7.301 -1.7200 -2.4658  0.4388
  771MOL0     H 4082   1.819   4.046   7.462  3.0452 -0.3611  0.2456
  771MOL0     H 4083   2.118   4.330   7.548  0.4803 -1.2985 -1.1061
  771MOL0     H 4084   1.408   4.209   7.772 -3.8132 -0.7918  2.8689
  771MOL0     H 4085   1.193   4.161   7.844 -1.0333 -2.3813 -1.2287
  772MOL0     O 4086   8.969   0.303   9.665 -0.0782 -0.5791 -0.0850
  772MOL0     C 4087   8.952   0.394   9.579 -0.5432  0.4493  0.0186
  772MOL0     O 4088   8.892   0.378   9.457  0.7713 -0.7650 -0.4606
  772MOL0     C 4089   8.810   0.273   9.436 -0.1118  0.4623  0.1177
  772MOL0     C 4090   8.675   0.290   9.459 -0.4119 -0.1914  0.6877
  772MOL0     C 4091   8.581   0.188   9.449 -0.6091  1.1379  0.0099
  772MOL0     C 4092   8.632   0.066   9.412 -0.5319 -0.3564  0.5737
  772MOL0     O 4093   8.539  -0.030   9.400  0.8426 -0.4305  0.0498
  772MOL0     C 4094   8.541  -0.133   9.501 -0.1700  0.7729  0.2616
  772MOL0     C 4095   8.411  -0.203   9.536 -0.0311  0.2104  0.6801
  772MOL0     C 4096   8.330  -0.138   9.646  0.0332 -0.2344  0.2040
  772MOL0     C 4097   8.262  -0.014   9.593  0.9421 -0.2423  0.6709
  772MOL0     C 4098   8.178   0.047   9.706  0.0136  0.2559  0.0685
  772MOL0     C 4099   8.080   0.152   9.658  0.5548  0.0674  0.0761
  772MOL0     C 4100   8.019   0.239   9.779  0.0388 -0.6094 -0.0107
  772MOL0     C 4101   7.952   0.162   9.892  0.9686  0.5564 -0.3565
  772MOL0     N 4102   7.812   0.106   9.862 -0.0748 -0.2517 -0.3363
  772MOL0     C 4103   7.702   0.190   9.866  0.2405  1.5265  0.0576
  772MOL0     C 4104   7.603   0.103   9.820 -1.3873 -0.6623  0.0793
  772MOL0     C 4105   7.454   0.125   9.829 -0.1709 -0.6347 -0.0691
  772MOL0     C 4106   7.413   0.110   9.976 -0.1884 -0.6272  0.0518
  772MOL0     C 4107   7.269   0.156   9.982  0.6177 -0.0375 -0.4927
  772MOL0     C 4108   7.227   0.172  10.130 -0.0911  0.5183  0.0322
  772MOL0     O 4109   7.084   0.166  10.106  0.6349 -0.5506 -0.2278
  772MOL0     C 4110   7.001   0.206  10.209  0.3228  0.0338  0.6581
  772MOL0     C 4111   7.038   0.175  10.341 -0.3954 -0.6070 -0.3235
  772MOL0     C 4112   6.946   0.209  10.442 -0.3869 -0.7844 -0.2950
  772MOL0     C 4113   6.980   0.156  10.578 -0.0337  0.5180  0.2938
  772MOL0     C 4114   6.829   0.281  10.407  0.9569 -0.1868 -0.5202
  772MOL0     C 4115   6.737   0.323  10.514  0.5840  0.8104 -0.6169
  772MOL0     O 4116   6.617   0.352  10.476 -0.9805 -0.5513  0.0426
  772MOL0     C 4117   6.519   0.321  10.561  0.3735 -0.4612 -0.8055
  772MOL0     C 4118   6.399   0.389  10.536  0.0400  0.2590  0.4047
  772MOL0     C 4119   6.284   0.370  10.605  0.7944 -0.3223 -0.2659
  772MOL0     C 4120   6.270   0.275  10.709 -1.2661 -0.6922 -0.0487
  772MOL0     O 4121   6.155   0.267  10.771  0.3964  0.0960 -1.1548
  772MOL0     C 4122   6.116   0.140  10.827  0.2929 -0.5378  0.0190
  772MOL0     C 4123   5.971   0.148  10.871  0.1013 -0.6981  1.2130
  772MOL0     C 4124   5.876   0.204  10.759  0.1276  0.0954  0.5931
  772MOL0     C 4125   5.725   0.227  10.809 -0.3648 -0.8596 -0.1509
  772MOL0     C 4126   5.645   0.096  10.799 -0.0394  0.6511  0.4667
  772MOL0     C 4127   5.521   0.091  10.899  0.0530  0.5326  0.0564
  772MOL0     C 4128   5.426   0.202  10.875 -0.3622  0.0660 -0.2458
  772MOL0     C 4129   5.359   0.208  10.741  0.3951 -0.5459 -0.4042
  772MOL0    Cl 4130   5.253   0.065  10.704 -0.4922  0.0478 -0.1464
  772MOL0     C 4131   6.390   0.202  10.739 -0.6500  0.1900  0.1042
  772MOL0     C 4132   6.513   0.220  10.663 -0.1936  0.1004 -0.3445
  772MOL0     O 4133   6.779   0.339  10.632 -0.5973 -0.4619  0.2255
  772MOL0     C 4134   6.803   0.320  10.280 -1.1407 -0.2443  0.2023
  772MOL0     C 4135   6.891   0.279  10.180  0.1633 -0.5255 -0.1468
  772MOL0     N 4136   7.651  -0.028   9.801 -0.5076  0.1968  0.0959
  772MOL0     N 4137   7.781  -0.018   9.823 -0.5113  0.3866  0.3900
  772MOL0     C 4138   8.770   0.043   9.385 -0.5962  0.0384 -0.6730
  772MOL0     C 4139   8.861   0.146   9.400  0.4593 -0.1566  0.3739
  772MOL0     C 4140   8.996   0.526   9.614  0.4924 -1.0017  0.4299
  772MOL0     C 4141   9.063   0.554   9.738  0.3169  0.0267  0.5732
  772MOL0     C 4142   9.126   0.671   9.767  0.3513  0.7478 -0.1784
  772MOL0     C 4143   9.094   0.776   9.678 -0.2437 -0.5321  1.0165
  772MOL0     O 4144   9.159   0.898   9.678 -0.0954  0.2263 -0.0942
  772MOL0     C 4145   9.247   0.909   9.792  0.3936  0.6061 -0.0487
  772MOL0     C 4146   9.306   1.048   9.807  0.0518  0.5960 -0.7195
  772MOL0     C 4147   9.438   1.049   9.708 -0.4621 -0.4431  0.2157
  772MOL0     C 4148   9.573   1.078   9.777 -0.1473 -0.1479 -0.4840
  772MOL0     C 4149   9.607   0.978   9.878 -0.4544 -0.3090 -0.3317
  772MOL0     C 4150   9.614   0.900   9.976 -0.9842  0.2285  0.5498
  772MOL0     C 4151   9.020   0.758   9.561  0.6888 -0.2170  0.1212
  772MOL0     C 4152   8.972   0.630   9.530 -0.0452  0.5846 -0.1933
  772MOL0     H 4153   8.632   0.389   9.467  0.3689  0.0866  1.5109
  772MOL0     H 4154   8.474   0.205   9.453 -0.8047  0.1295 -0.6563
  772MOL0     H 4155   8.611  -0.213   9.475 -1.5290 -0.5366  0.5205
  772MOL0     H 4156   8.575  -0.083   9.592  2.2553  2.3945 -1.4153
  772MOL0     H 4157   8.354  -0.225   9.445  1.9800 -2.4029 -0.0554
  772MOL0     H 4158   8.438  -0.303   9.571  0.9018  0.5386  0.9073
  772MOL0     H 4159   8.262  -0.215   9.683  0.1667 -0.0694  0.8031
  772MOL0     H 4160   8.395  -0.102   9.727  0.6015  0.8961 -0.7262
  772MOL0     H 4161   8.334   0.056   9.549  1.6748 -0.2169  1.8377
  772MOL0     H 4162   8.203  -0.050   9.509 -0.3183  1.8943  0.5735
  772MOL0     H 4163   8.132  -0.040   9.753  0.8157 -0.0245  0.3538
  772MOL0     H 4164   8.242   0.099   9.778  0.7517 -0.3395 -0.1470
  772MOL0     H 4165   8.143   0.221   9.602  2.9852 -1.3124  0.9609
  772MOL0     H 4166   7.993   0.113   9.603 -0.6661  2.9934 -0.2351
  772MOL0     H 4167   8.102   0.291   9.826  0.1962 -2.8930  2.4628
  772MOL0     H 4168   7.945   0.309   9.739  1.6978  2.5051  2.0086
  772MOL0     H 4169   7.958   0.202   9.993  1.7522 -3.2314  1.2878
  772MOL0     H 4170   8.001   0.064   9.903  0.7239  0.1285 -2.5646
  772MOL0     H 4171   7.693   0.291   9.905 -3.0725  0.3918  2.7232
  772MOL0     H 4172   7.449   0.229   9.794  0.1774 -1.0388 -1.3795
  772MOL0     H 4173   7.396   0.065   9.758  1.3148 -1.1746 -0.8602
  772MOL0     H 4174   7.483   0.167  10.038  0.5826 -2.3061  0.7934
  772MOL0     H 4175   7.423   0.004   9.999 -0.5460 -0.7408 -0.3038
  772MOL0     H 4176   7.212   0.075   9.934 -0.2851 -0.8117  1.7603
  772MOL0     H 4177   7.239   0.239   9.917 -1.6318  0.1545  0.6830
  772MOL0     H 4178   7.268   0.268  10.163  3.6382  1.0431 -4.9350
  772MOL0     H 4179   7.258   0.086  10.190  0.1189  1.5912  1.5280
  772MOL0     H 4180   7.127   0.118  10.365  0.4982 -0.0336 -2.1150
  772MOL0     H 4181   6.902   0.092  10.619  0.6351  0.1182  0.9705
  772MOL0     H 4182   7.072   0.096  10.585 -1.6147 -1.8609  2.1217
  772MOL0     H 4183   7.004   0.244  10.639 -1.9367  2.2568 -1.3486
  772MOL0     H 4184   6.411   0.456  10.451  0.5022 -2.0001 -1.4072
  772MOL0     H 4185   6.194   0.424  10.578  1.0703 -0.3376 -1.2314
  772MOL0     H 4186   6.106   0.067  10.747 -2.1524 -1.6306  1.2133
  772MOL0     H 4187   6.188   0.106  10.903  1.7414  0.4227 -0.8902
  772MOL0     H 4188   5.934   0.046  10.889  1.5966 -1.5885 -0.5247
  772MOL0     H 4189   5.975   0.197  10.969  1.9324  0.2279  0.7038
  772MOL0     H 4190   5.872   0.137  10.672  1.0645  1.6551 -0.6926
  772MOL0     H 4191   5.930   0.293  10.727  2.9762 -1.3750  1.0053
  772MOL0     H 4192   5.708   0.260  10.911 -0.0962 -1.1492 -0.0108
  772MOL0     H 4193   5.677   0.298  10.740  2.9076  0.4142 -1.2973
  772MOL0     H 4194   5.724   0.022  10.814 -2.3393 -2.2979 -0.8160
  772MOL0     H 4195   5.610   0.091  10.695 -6.0875  0.4823  2.0935
  772MOL0     H 4196   5.468   0.002  10.863  1.5179 -0.1604 -0.5095
  772MOL0     H 4197   5.550   0.094  11.004  0.9361  2.7057 -0.1880
  772MOL0     H 4198   5.475   0.300  10.881  2.0183 -1.1264  1.0458
  772MOL0     H 4199   5.340   0.198  10.943 -2.2498 -3.7683 -2.5065
  772MOL0     H 4200   5.431   0.226  10.660  0.5819 -2.8314 -0.7888
  772MOL0     H 4201   5.301   0.301  10.731  1.5187  0.0982 -1.2224
  772MOL0     H 4202   6.399   0.111  10.797  1.2656  0.2224 -0.0930
  772MOL0     H 4203   6.603   0.164  10.690 -0.6073  0.4881  2.0550
  772MOL0     H 4204   6.720   0.384  10.254 -0.9696 -0.2823 -0.4556
  772MOL0     H 4205   6.883   0.309  10.076  1.2685 -1.9312 -0.6666
  772MOL0     H 4206   8.808  -0.057   9.367  1.4149  0.1639  2.1392
  772MOL0     H 4207   8.966   0.144   9.373 -0.2821 -0.5896 -2.8664
  772MOL0     H 4208   9.065   0.468   9.804 -0.3863 -0.8967 -0.5746
  772MOL0     H 4209   9.185   0.683   9.857 -0.6537  1.3162  0.4167
  772MOL0     H 4210   9.196   0.899   9.888  2.4891  3.2903  1.5179
  772MOL0     H 4211   9.317   0.826   9.783 -3.2809 -2.6053 -2.1427
  772MOL0     H 4212   9.330   1.055   9.913 -2.6760  1.7153 -0.0799
  772MOL0     H 4213   9.235   1.130   9.794 -0.6958  1.5828  5.9689
  772MOL0     H 4214   9.439   1.149   9.663  1.3053 -0.6995 -0.3643
  772MOL0     H 4215   9.428   0.967   9.636 -0.1503  0.3158 -0.7125
  772MOL0     H 4216   9.565   1.176   9.825  1.3326 -0.5162  0.6119
  772MOL0     H 4217   9.644   1.086   9.694 -0.2429 -0.6462 -0.6195
  772MOL0     H 4218   9.615   0.833  10.059 -2.0072  1.7978  1.8904
  772MOL0     H 4219   9.012   0.838   9.489  2.6365  1.0352  1.2076
  772MOL0     H 4220   8.934   0.609   9.430  1.9480  0.4923 -0.9693
  773MOL0     O 4221   7.532  11.057   6.812  0.4209  0.3768 -0.4324
  773MOL0     C 4222   7.581  11.077   6.925  0.2929  0.9748 -0.2511
  773MOL0     O 4223   7.691  11.005   6.975  0.3006 -0.1608  0.9321
  773MOL0     C 4224   7.771  10.925   6.897  0.6732  0.9132 -0.0708
  773MOL0     C 4225   7.845  10.973   6.793 -0.6498  0.0345  0.3657
  773MOL0     C 4226   7.952  10.893   6.741 -0.0133 -0.6089  0.3672
  773MOL0     C 4227   7.975  10.766   6.779 -0.9255 -0.1230  0.1848
  773MOL0     O 4228   8.065  10.686   6.713 -0.3014 -0.4987 -0.2377
  773MOL0     C 4229   8.105  10.556   6.771 -0.4680 -0.1800  0.9992
  773MOL0     C 4230   8.225  10.487   6.691 -0.6623  0.2653  0.0796
  773MOL0     C 4231   8.185  10.463   6.543 -0.0631 -0.4267  0.3954
  773MOL0     C 4232   8.297  10.388   6.471 -0.7860  0.2568  0.0905
  773MOL0     C 4233   8.252  10.385   6.323 -0.4788  0.2722 -0.9073
  773MOL0     C 4234   8.346  10.292   6.238 -0.0373  0.5618  0.3340
  773MOL0     C 4235   8.296  10.315   6.096  0.9673  0.9488  0.4397
  773MOL0     C 4236   8.413  10.335   5.995  0.1705  0.0087  0.5156
  773MOL0     N 4237   8.479  10.201   5.968 -0.3004  0.0980 -0.3185
  773MOL0     C 4238   8.423  10.083   5.923 -0.6096 -0.1924 -0.3442
  773MOL0     C 4239   8.518   9.990   5.896  0.1644 -0.8010 -1.2832
  773MOL0     C 4240   8.502   9.855   5.844 -0.3144  0.2520 -0.5891
  773MOL0     C 4241   8.509   9.854   5.690 -0.0258 -0.7353 -0.0170
  773MOL0     C 4242   8.484   9.701   5.637  0.1512 -0.5183 -0.0198
  773MOL0     C 4243   8.395   9.705   5.503 -1.4579 -0.1545  0.3606
  773MOL0     O 4244   8.467   9.772   5.399  0.4779 -0.4533  0.2157
  773MOL0     C 4245   8.406   9.784   5.271 -0.2954 -0.3686  0.0167
  773MOL0     C 4246   8.483   9.850   5.177 -0.0250 -0.2954 -0.5071
  773MOL0     C 4247   8.430   9.911   5.061  1.2800  0.0370 -0.1038
  773MOL0     C 4248   8.531   9.983   4.972  0.7384  0.3257  0.2555
  773MOL0     C 4249   8.296   9.883   5.029 -0.5715  0.1637  0.7461
  773MOL0     C 4250   8.228   9.949   4.914  0.2543  0.2597 -0.4091
  773MOL0     O 4251   8.133   9.879   4.842 -0.7543 -0.7822 -0.6961
  773MOL0     C 4252   8.063   9.943   4.748  0.1565 -0.0593 -0.1153
  773MOL0     C 4253   7.926   9.975   4.776 -0.7613  0.7786  0.4542
  773MOL0     C 4254   7.851  10.057   4.697 -0.1248  0.1984 -0.1025
  773MOL0     C 4255   7.888  10.095   4.567 -0.4871 -0.7055  0.6565
  773MOL0     O 4256   7.812  10.160   4.469 -0.2471 -0.2101 -0.4496
  773MOL0     C 4257   7.854  10.167   4.328  0.1759 -0.2431  0.2637
  773MOL0     C 4258   7.734  10.215   4.239  0.0900 -0.0671  1.1193
  773MOL0     C 4259   7.611  10.116   4.256  0.4369 -0.5292  0.1150
  773MOL0     C 4260   7.480  10.190   4.281 -0.3239  0.1632 -0.2768
  773MOL0     C 4261   7.362  10.092   4.294  0.3058 -0.0159  0.8068
  773MOL0     C 4262   7.223  10.155   4.299  0.0494  0.0258  0.2519
  773MOL0     C 4263   7.119  10.049   4.320 -0.7183  0.1738 -0.4481
  773MOL0     C 4264   6.973  10.097   4.304  0.6098  0.1654 -0.2131
  773MOL0    Cl 4265   6.937  10.277   4.304 -0.3772  0.5545  0.5712
  773MOL0     C 4266   8.022  10.067   4.540 -0.0352  0.5444  0.2084
  773MOL0     C 4267   8.107   9.996   4.628  0.4366  0.5238 -0.0353
  773MOL0     O 4268   8.253  10.068   4.900  0.4273  0.6162 -0.3354
  773MOL0     C 4269   8.223   9.807   5.112  0.2226  0.8876 -0.3859
  773MOL0     C 4270   8.274   9.753   5.234 -0.3954 -0.0266 -0.0297
  773MOL0     N 4271   8.636  10.053   5.937  0.6806 -0.2197 -0.0747
  773MOL0     N 4272   8.610  10.176   5.979 -0.2445  0.3322  0.3138
  773MOL0     C 4273   7.889  10.711   6.877  1.0138  0.1420  0.1968
  773MOL0     C 4274   7.801  10.801   6.947  0.3383  0.5537  0.6663
  773MOL0     C 4275   7.508  11.156   7.025 -0.4696 -0.1445 -0.5151
  773MOL0     C 4276   7.406  11.240   6.990  0.0834 -0.4741 -0.0075
  773MOL0     C 4277   7.345  11.324   7.090  0.4417  0.3258  0.6063
  773MOL0     C 4278   7.385  11.321   7.222 -0.4708 -0.3245 -0.5855
  773MOL0     O 4279   7.326  11.395   7.326  0.7506  0.0576  0.8694
  773MOL0     C 4280   7.242  11.502   7.294  0.4395  0.0066 -0.3108
  773MOL0     C 4281   7.191  11.580   7.417  0.3307  0.7097  0.4381
  773MOL0     C 4282   7.112  11.487   7.512  0.0334 -0.1611  0.3010
  773MOL0     C 4283   6.970  11.456   7.469  0.1636  0.4267 -0.3776
  773MOL0     C 4284   6.907  11.358   7.561 -0.1473  0.8636  0.6949
  773MOL0     C 4285   6.854  11.284   7.635 -0.5333  0.5491  0.5880
  773MOL0     C 4286   7.502  11.249   7.259  0.8588  0.7355  0.3281
  773MOL0     C 4287   7.556  11.165   7.160  0.5159 -0.3109  0.8039
  773MOL0     H 4288   7.831  11.075   6.759 -1.0709  1.2270  3.7181
  773MOL0     H 4289   8.004  10.937   6.656 -2.5907  1.0461 -0.4916
  773MOL0     H 4290   8.155  10.579   6.866  1.8695 -1.6885  0.2415
  773MOL0     H 4291   8.022  10.486   6.783 -1.8876  0.3565 -3.8062
  773MOL0     H 4292   8.316  10.547   6.701 -0.5970  0.0520  0.7800
  773MOL0     H 4293   8.252  10.390   6.732  0.7309  1.2425  1.5958
  773MOL0     H 4294   8.085  10.420   6.557 -1.5541  2.6836 -0.0263
  773MOL0     H 4295   8.168  10.555   6.487 -1.2574 -1.7487 -1.5228
  773MOL0     H 4296   8.387  10.449   6.480 -2.4103  2.7247  0.6218
  773MOL0     H 4297   8.310  10.285   6.504 -2.0666 -0.0351 -0.2362
  773MOL0     H 4298   8.150  10.346   6.317  0.5777 -2.5562 -2.8946
  773MOL0     H 4299   8.256  10.486   6.283 -1.8602  0.3910 -0.7656
  773MOL0     H 4300   8.450  10.319   6.257  0.1121  0.4754 -0.3135
  773MOL0     H 4301   8.334  10.190   6.275  1.5921 -1.3785 -3.8774
  773MOL0     H 4302   8.234  10.229   6.068  0.4570  1.3541  0.3082
  773MOL0     H 4303   8.224  10.398   6.093 -0.6117 -0.3824 -0.8518
  773MOL0     H 4304   8.484  10.403   6.044 -1.8861  2.2402  0.5911
  773MOL0     H 4305   8.378  10.389   5.907 -0.8327 -0.0092  0.8947
  773MOL0     H 4306   8.315  10.079   5.906 -0.6057 -2.0863 -0.0833
  773MOL0     H 4307   8.585   9.793   5.876 -1.6018 -0.9620  0.5409
  773MOL0     H 4308   8.406   9.814   5.877 -0.5189  1.8665  1.0150
  773MOL0     H 4309   8.608   9.882   5.654  0.1744 -3.9997 -2.4624
  773MOL0     H 4310   8.432   9.921   5.651  0.0711 -1.2517 -1.1436
  773MOL0     H 4311   8.433   9.644   5.714 -2.2888 -0.7401 -1.6959
  773MOL0     H 4312   8.579   9.654   5.609 -0.9895 -0.8371 -4.1387
  773MOL0     H 4313   8.310   9.763   5.539  1.9223  4.0517  2.5452
  773MOL0     H 4314   8.367   9.608   5.461 -1.6667 -0.7167  1.7554
  773MOL0     H 4315   8.581   9.881   5.210 -1.6966  2.4827  2.3575
  773MOL0     H 4316   8.634   9.955   4.996  0.9435  0.0212 -0.9138
  773MOL0     H 4317   8.518   9.970   4.864  2.5371  2.2722 -0.2448
  773MOL0     H 4318   8.520  10.092   4.972  0.9055  0.3450  1.2694
  773MOL0     H 4319   7.877   9.947   4.869 -1.9106 -1.5158 -0.7552
  773MOL0     H 4320   7.746  10.070   4.721 -0.6349  0.2343 -2.1756
  773MOL0     H 4321   7.939  10.235   4.316  0.7784 -0.6559  1.8813
  773MOL0     H 4322   7.895  10.075   4.288  1.8095  0.5806 -0.0303
  773MOL0     H 4323   7.709  10.319   4.261  1.9363  0.8197 -0.6163
  773MOL0     H 4324   7.771  10.219   4.136 -0.4996  1.1142  0.9452
  773MOL0     H 4325   7.634  10.060   4.348  0.7578 -1.8329 -0.7385
  773MOL0     H 4326   7.600  10.053   4.167 -1.0870 -0.5970  0.3239
  773MOL0     H 4327   7.486  10.251   4.371 -0.3132  0.2857 -0.3609
  773MOL0     H 4328   7.456  10.257   4.198 -1.8815  1.6359  1.3003
  773MOL0     H 4329   7.389  10.026   4.377  0.1980 -0.6843  0.3140
  773MOL0     H 4330   7.375  10.045   4.196 -1.4983  0.3913  0.3371
  773MOL0     H 4331   7.211  10.223   4.384 -4.2054 -3.6233  2.9870
  773MOL0     H 4332   7.198  10.214   4.210  1.4610  0.3438  0.0529
  773MOL0     H 4333   7.129  10.008   4.420 -1.4486 -1.4787 -1.0282
  773MOL0     H 4334   7.139   9.952   4.273 -2.3386  0.2983 -1.4883
  773MOL0     H 4335   6.912  10.050   4.381  0.5330  0.7680  0.0967
  773MOL0     H 4336   6.929  10.056   4.212 -2.4513  0.1218  1.1426
  773MOL0     H 4337   8.067  10.099   4.446 -0.4476 -2.5784 -1.1924
  773MOL0     H 4338   8.214   9.985   4.609  0.6469  0.8260  0.9125
  773MOL0     H 4339   8.119   9.789   5.089  0.7092 -2.1207 -0.6308
  773MOL0     H 4340   8.200   9.705   5.298 -0.2050 -0.3251 -0.0331
  773MOL0     H 4341   7.896  10.607   6.909  1.6149 -0.4171 -1.5985
  773MOL0     H 4342   7.754  10.770   7.040  1.4774 -1.2183  0.6938
  773MOL0     H 4343   7.371  11.267   6.891 -0.1935 -3.8341 -0.9502
  773MOL0     H 4344   7.263  11.391   7.064 -0.0698 -0.2531  0.7166
  773MOL0     H 4345   7.293  11.572   7.228 -2.5261  0.0037 -2.8138
  773MOL0     H 4346   7.152  11.471   7.241  0.4112  1.4629 -1.1582
  773MOL0     H 4347   7.119  11.657   7.389  1.8541  2.6096  1.5198
  773MOL0     H 4348   7.283  11.613   7.467 -0.2040 -1.0813  2.7611
  773MOL0     H 4349   7.103  11.538   7.609 -4.1026 -0.4302  0.2173
  773MOL0     H 4350   7.167  11.394   7.530 -1.9991 -1.4405  0.1709
  773MOL0     H 4351   6.972  11.425   7.365  3.7232 -0.2337 -0.2363
  773MOL0     H 4352   6.906  11.545   7.479  1.3770  1.5882 -2.2826
  773MOL0     H 4353   6.812  11.215   7.704  0.5692 -1.9427 -1.0742
  773MOL0     H 4354   7.536  11.251   7.362 -1.3316 -1.3024  1.1770
  773MOL0     H 4355   7.636  11.104   7.200  0.0127 -0.7396  1.1561
  774MOL0     O 4356   7.607   6.579   0.270 -0.7121  0.1092 -0.2109
  774MOL0     C 4357   7.653   6.462   0.267  0.2831  0.1624  0.3638
  774MOL0     O 4358   7.576   6.348   0.265  0.4927  0.1923  0.2437
  774MOL0     C 4359   7.445   6.373   0.286  0.4753  0.0541  0.3149
  774MOL0     C 4360   7.365   6.409   0.176 -0.9063 -0.8327  0.2460
  774MOL0     C 4361   7.225   6.432   0.187  0.2196  0.0851  0.3602
  774MOL0     C 4362   7.164   6.422   0.312  1.0301  0.7804 -0.3622
  774MOL0     O 4363   7.027   6.448   0.321 -0.4109  0.6674 -0.1249
  774MOL0     C 4364   6.980   6.584   0.314  0.6534 -0.4467  0.8595
  774MOL0     C 4365   6.859   6.606   0.405  0.7614 -1.4125  1.1395
  774MOL0     C 4366   6.743   6.691   0.335 -0.9089  0.2065 -0.2617
  774MOL0     C 4367   6.679   6.615   0.232 -1.1189 -0.1291 -0.0285
  774MOL0     C 4368   6.570   6.714   0.172 -0.0352 -0.1495  0.3097
  774MOL0     C 4369   6.527   6.657   0.043  0.4462  0.1678  0.2823
  774MOL0     C 4370   6.383   6.698   0.002 -0.4352 -0.7419  0.3169
  774MOL0     C 4371   6.322   6.626  -0.116 -0.6819  0.2065 -0.2141
  774MOL0     N 4372   6.400   6.661  -0.244  0.2138 -0.2671  0.0643
  774MOL0     C 4373   6.490   6.583  -0.302 -0.9347  0.0035 -0.0778
  774MOL0     C 4374   6.511   6.636  -0.431 -0.7435 -0.5909  0.2169
  774MOL0     C 4375   6.601   6.599  -0.550  0.0757 -0.5951  0.8619
  774MOL0     C 4376   6.736   6.658  -0.536 -0.5712 -0.7074 -0.0975
  774MOL0     C 4377   6.817   6.588  -0.432 -0.2302  0.3998  0.1549
  774MOL0     C 4378   6.966   6.620  -0.446 -0.3989 -0.7370  0.1039
  774MOL0     O 4379   7.001   6.762  -0.440  0.3514  0.3044  0.0029
  774MOL0     C 4380   7.135   6.785  -0.448 -0.1546  0.6998 -0.2021
  774MOL0     C 4381   7.233   6.686  -0.447  0.3603 -0.1717  0.1792
  774MOL0     C 4382   7.365   6.717  -0.448 -0.4224  0.8941  0.3727
  774MOL0     C 4383   7.452   6.587  -0.450 -0.1215  0.1716  0.5457
  774MOL0     C 4384   7.407   6.851  -0.454  0.0717 -0.7711  0.8442
  774MOL0     C 4385   7.546   6.890  -0.457 -1.0587 -0.4485  0.2528
  774MOL0     O 4386   7.574   7.020  -0.473  0.1976 -0.0129 -0.1614
  774MOL0     C 4387   7.705   7.065  -0.485  0.0292 -0.6615  0.1774
  774MOL0     C 4388   7.741   7.189  -0.415  0.3380 -0.5418  0.5752
  774MOL0     C 4389   7.871   7.229  -0.426  0.7196 -0.2142 -0.4335
  774MOL0     C 4390   7.965   7.175  -0.505  0.8535  0.7423 -0.3558
  774MOL0     O 4391   8.094   7.220  -0.505 -0.0014 -0.4353 -0.1937
  774MOL0     C 4392   8.175   7.136  -0.424  0.5092 -0.6885 -0.8459
  774MOL0     C 4393   8.309   7.090  -0.490 -0.5805 -0.4552 -0.1345
  774MOL0     C 4394   8.411   7.205  -0.526  0.1671 -0.0163 -0.1836
  774MOL0     C 4395   8.558   7.164  -0.507  0.1864  0.0006 -0.7855
  774MOL0     C 4396   8.665   7.281  -0.515 -1.0139  0.1946 -0.8706
  774MOL0     C 4397   8.804   7.205  -0.535  0.5505  0.1429  0.4990
  774MOL0     C 4398   8.928   7.294  -0.537  0.9315  0.7839 -1.0489
  774MOL0     C 4399   9.034   7.225  -0.610  0.3918 -1.1450 -0.7841
  774MOL0    Cl 4400   9.175   7.340  -0.607  0.0092  0.3144 -0.2245
  774MOL0     C 4401   7.927   7.067  -0.589  0.3563  0.0511 -0.3792
  774MOL0     C 4402   7.797   7.012  -0.581 -0.2965  0.0690 -0.0000
  774MOL0     O 4403   7.628   6.800  -0.423  0.0560  0.4931  0.6037
  774MOL0     C 4404   7.316   6.957  -0.439  0.2072 -0.2442  0.2095
  774MOL0     C 4405   7.180   6.918  -0.440  0.3914  0.1155  0.4727
  774MOL0     N 4406   6.451   6.755  -0.427 -0.1304 -0.0376 -0.3967
  774MOL0     N 4407   6.395   6.779  -0.312  0.1936  0.3839  0.0756
  774MOL0     C 4408   7.244   6.395   0.421  0.5741  0.2851  0.3133
  774MOL0     C 4409   7.379   6.369   0.410 -0.6252  0.2835  0.1762
  774MOL0     C 4410   7.801   6.448   0.273 -0.1305  0.3749  0.0083
  774MOL0     C 4411   7.879   6.562   0.247 -0.2292 -0.2888 -0.4176
  774MOL0     C 4412   8.018   6.550   0.238  0.2396  0.3010  0.5780
  774MOL0     C 4413   8.080   6.427   0.249 -0.2623 -0.3168  0.1031
  774MOL0     O 4414   8.222   6.425   0.235 -0.8231  0.2211  0.0545
  774MOL0     C 4415   8.300   6.307   0.238  0.4756 -0.0820  0.1714
  774MOL0     C 4416   8.434   6.311   0.176 -0.5492  0.4028  0.1512
  774MOL0     C 4417   8.513   6.435   0.230  1.3614  0.2613  0.0286
  774MOL0     C 4418   8.616   6.481   0.130  0.4443 -0.3500  0.5252
  774MOL0     C 4419   8.701   6.367   0.088  0.1224  0.7615 -0.4945
  774MOL0     C 4420   8.774   6.280   0.055  0.4471 -0.1941  0.1299
  774MOL0     C 4421   8.004   6.318   0.294 -0.0269  0.3000 -0.5065
  774MOL0     C 4422   7.866   6.333   0.304 -0.2757  0.7614 -0.0720
  774MOL0     H 4423   7.418   6.404   0.081  0.8118 -2.6469  1.2108
  774MOL0     H 4424   7.159   6.449   0.102 -0.0265  2.8970  1.0119
  774MOL0     H 4425   7.049   6.667   0.329 -3.2423  3.6593 -1.4414
  774MOL0     H 4426   6.959   6.602   0.209  0.5464  1.6579  1.1946
  774MOL0     H 4427   6.824   6.510   0.445 -2.0368 -0.7118  0.6115
  774MOL0     H 4428   6.892   6.669   0.488 -0.2283  1.9559 -0.8727
  774MOL0     H 4429   6.665   6.733   0.401 -2.5854 -0.4999 -1.7090
  774MOL0     H 4430   6.796   6.782   0.305 -0.0089  0.6553  2.3952
  774MOL0     H 4431   6.750   6.587   0.153  0.5144 -1.2237  1.7267
  774MOL0     H 4432   6.630   6.521   0.260 -0.0381 -1.6335 -2.7916
  774MOL0     H 4433   6.483   6.726   0.238 -0.7887  0.1103 -0.7102
  774MOL0     H 4434   6.615   6.811   0.150  1.7867 -0.5922  1.8328
  774MOL0     H 4435   6.600   6.700  -0.026  0.3224 -0.2414 -0.1005
  774MOL0     H 4436   6.528   6.548   0.050  0.1401  0.2542  3.1511
  774MOL0     H 4437   6.312   6.693   0.085  0.0106 -2.1656  0.6334
  774MOL0     H 4438   6.378   6.806  -0.017 -0.0399 -0.5125  1.3811
  774MOL0     H 4439   6.219   6.661  -0.114 -1.8335 -2.8872  0.4940
  774MOL0     H 4440   6.315   6.519  -0.094  1.4965  0.7819  4.5357
  774MOL0     H 4441   6.532   6.488  -0.271  0.9116  0.5921 -0.6560
  774MOL0     H 4442   6.610   6.491  -0.565  0.4601 -1.4578  5.7345
  774MOL0     H 4443   6.541   6.639  -0.632  0.1129  0.3273  1.2766
  774MOL0     H 4444   6.729   6.765  -0.516  1.2534 -0.8146  1.4325
  774MOL0     H 4445   6.789   6.647  -0.630  1.3959 -1.8770  1.0636
  774MOL0     H 4446   6.824   6.482  -0.456  2.4390  1.1466 -3.0746
  774MOL0     H 4447   6.777   6.611  -0.332 -1.2826 -2.1987  0.4002
  774MOL0     H 4448   6.999   6.574  -0.540 -3.2585 -0.1495 -1.3039
  774MOL0     H 4449   7.021   6.575  -0.363 -0.0071  0.3100  0.4275
  774MOL0     H 4450   7.210   6.580  -0.453 -0.1661 -0.0627 -5.9461
  774MOL0     H 4451   7.538   6.590  -0.518 -0.4364  1.0034  0.1716
  774MOL0     H 4452   7.489   6.565  -0.349  2.6363  1.9328  0.0386
  774MOL0     H 4453   7.394   6.502  -0.487 -1.5457  1.9236 -1.4413
  774MOL0     H 4454   7.679   7.242  -0.344  2.8076 -0.8001  3.1192
  774MOL0     H 4455   7.904   7.308  -0.361 -2.4895  1.2410 -0.3897
  774MOL0     H 4456   8.185   7.189  -0.329  2.4493 -1.0873 -0.8007
  774MOL0     H 4457   8.128   7.042  -0.395 -0.6230  0.5294  1.5116
  774MOL0     H 4458   8.362   7.016  -0.430  2.5944  0.6817 -1.3304
  774MOL0     H 4459   8.286   7.041  -0.585  0.5922  0.5649 -0.9898
  774MOL0     H 4460   8.411   7.298  -0.470  2.4577 -0.2174  0.2520
  774MOL0     H 4461   8.404   7.221  -0.634 -0.8404 -1.3170 -0.3359
  774MOL0     H 4462   8.558   7.118  -0.407 -3.4536 -0.6455 -0.9533
  774MOL0     H 4463   8.581   7.083  -0.576 -0.5190 -2.8673  2.1188
  774MOL0     H 4464   8.674   7.334  -0.420  0.1065 -1.6094  0.0719
  774MOL0     H 4465   8.654   7.357  -0.593  2.9797  1.0465 -0.7996
  774MOL0     H 4466   8.825   7.129  -0.459  1.4084  0.2466  0.3714
  774MOL0     H 4467   8.796   7.146  -0.627 -4.6058  0.5548  0.3552
  774MOL0     H 4468   8.965   7.316  -0.437 -0.8301 -2.9658  0.6455
  774MOL0     H 4469   8.888   7.376  -0.597 -2.3126 -0.5556 -0.9595
  774MOL0     H 4470   9.021   7.200  -0.716  0.1153  0.8064 -1.2415
  774MOL0     H 4471   9.067   7.140  -0.550  1.7771  0.0231  0.1773
  774MOL0     H 4472   8.003   7.025  -0.654  1.6139  1.0945  0.3830
  774MOL0     H 4473   7.771   6.922  -0.636 -3.0849  0.4811  0.4983
  774MOL0     H 4474   7.341   7.060  -0.420 -2.6217  0.8311 -1.3366
  774MOL0     H 4475   7.105   6.997  -0.435  1.9369  1.5589  4.4948
  774MOL0     H 4476   7.191   6.403   0.516 -1.6698 -0.6000 -0.7757
  774MOL0     H 4477   7.429   6.347   0.504  0.5167  1.1092 -0.2030
  774MOL0     H 4478   7.832   6.658   0.224 -0.4476 -0.7616 -2.0947
  774MOL0     H 4479   8.079   6.634   0.206 -0.1280  0.4217  0.1897
  774MOL0     H 4480   8.304   6.274   0.342 -0.5788 -1.8475 -0.3170
  774MOL0     H 4481   8.249   6.231   0.177  1.0247 -0.1738 -0.1863
  774MOL0     H 4482   8.417   6.323   0.068  0.3728  0.0338 -0.0461
  774MOL0     H 4483   8.480   6.213   0.190  0.2678  0.5913 -1.0697
  774MOL0     H 4484   8.555   6.436   0.331  2.5961  3.3893 -0.4020
  774MOL0     H 4485   8.445   6.520   0.246 -1.7446 -1.7852 -1.2630
  774MOL0     H 4486   8.660   6.571   0.173 -3.2196  0.2925  3.5159
  774MOL0     H 4487   8.570   6.514   0.036  1.2731 -3.0902 -0.9621
  774MOL0     H 4488   8.845   6.209   0.016  1.6337  0.7890  0.4064
  774MOL0     H 4489   8.060   6.226   0.309  3.6341  2.5667  1.1592
  774MOL0     H 4490   7.813   6.242   0.332  2.1208 -0.9240 -0.7034
  775MOL0     O 4491  10.025   7.028   7.853 -0.3104 -0.0060 -0.4465
  775MOL0     C 4492  10.047   6.992   7.967  0.3452 -0.3190  0.2666
  775MOL0     O 4493  10.168   6.942   8.015  0.0323 -0.3031  0.2610
  775MOL0     C 4494  10.253   6.902   7.918 -1.0047  0.1398  1.2893
  775MOL0     C 4495  10.356   6.997   7.876  0.0809  0.3817 -0.5126
  775MOL0     C 4496  10.457   6.944   7.788  0.3370  0.5355 -0.1776
  775MOL0     C 4497  10.462   6.812   7.754  0.5795  0.7015  0.5151
  775MOL0     O 4498  10.563   6.763   7.675 -0.2857  0.7592 -0.3696
  775MOL0     C 4499  10.559   6.810   7.541  0.2222 -0.1205 -0.4051
  775MOL0     C 4500  10.682   6.870   7.492 -0.8502  1.0530  0.2846
  775MOL0     C 4501  10.707   6.876   7.339  0.1881  0.0138 -0.5873
  775MOL0     C 4502  10.743   6.738   7.282  0.5968 -0.2204  0.0958
  775MOL0     C 4503  10.792   6.733   7.136  1.1777 -0.1881  0.2030
  775MOL0     C 4504  10.773   6.601   7.068 -0.5185  0.1423 -0.5496
  775MOL0     C 4505  10.824   6.627   6.928 -0.5897 -0.9975  0.9339
  775MOL0     C 4506  10.803   6.506   6.840  0.2158 -0.2033 -1.0716
  775MOL0     N 4507  10.866   6.547   6.712 -0.1442  0.3656 -0.2526
  775MOL0     C 4508  10.998   6.566   6.682  0.0838  0.1677 -0.3941
  775MOL0     C 4509  10.991   6.600   6.555  0.2763  0.0831  0.7113
  775MOL0     C 4510  11.108   6.630   6.461  0.2313 -0.1818  0.4714
  775MOL0     C 4511  11.192   6.507   6.429  0.6107 -0.3717  0.4027
  775MOL0     C 4512  11.297   6.540   6.329  0.0931  0.3498  0.3851
  775MOL0     C 4513  11.424   6.445   6.315  0.7169 -0.8273 -0.2969
  775MOL0     O 4514  11.400   6.323   6.381 -0.2088 -0.4294 -0.4802
  775MOL0     C 4515  11.497   6.232   6.372  0.2759 -0.0602  0.1540
  775MOL0     C 4516  11.492   6.138   6.471 -1.0917  0.3734 -0.3825
  775MOL0     C 4517  11.586   6.035   6.471 -0.0168 -0.3493 -0.1847
  775MOL0     C 4518  11.562   5.920   6.572  0.0749  0.1959  0.9327
  775MOL0     C 4519  11.691   6.031   6.370  0.2393  0.8473 -0.0262
  775MOL0     C 4520  11.782   5.908   6.345 -0.2680 -0.6553 -0.2036
  775MOL0     O 4521  11.764   5.794   6.415  0.0303 -0.6094  0.3637
  775MOL0     C 4522  11.858   5.694   6.406 -0.1611 -0.3626 -0.1466
  775MOL0     C 4523  11.855   5.599   6.299 -0.6492  0.4925 -0.1744
  775MOL0     C 4524  11.953   5.508   6.278  0.0442 -0.4539 -0.8250
  775MOL0     C 4525  12.058   5.502   6.371  0.2170  0.7143  0.4299
  775MOL0     O 4526  12.157   5.409   6.344  0.6897 -0.0838 -0.4616
  775MOL0     C 4527  12.201   5.334   6.464  0.3589  0.1650 -0.1440
  775MOL0     C 4528  12.207   5.175   6.432  0.1002 -0.4320  0.6317
  775MOL0     C 4529  12.222   5.095   6.553  0.4469  1.2504 -0.6553
  775MOL0     C 4530  12.367   5.082   6.611  0.1397 -0.2255  0.5221
  775MOL0     C 4531  12.388   4.963   6.698 -0.0349  0.5485 -0.5138
  775MOL0     C 4532  12.400   4.844   6.612  0.0155  0.4426 -0.7477
  775MOL0     C 4533  12.462   4.718   6.688  0.3355  0.5946 -0.8596
  775MOL0     C 4534  12.397   4.585   6.655  0.8190 -0.1480  0.5312
  775MOL0    Cl 4535  12.437   4.540   6.485 -0.1468 -0.3263  0.0739
  775MOL0     C 4536  12.051   5.584   6.485  0.2047  0.0550 -0.1082
  775MOL0     C 4537  11.957   5.686   6.510 -0.6307  0.1540 -0.3098
  775MOL0     O 4538  11.880   5.922   6.271 -0.6224  0.3281 -0.2188
  775MOL0     C 4539  11.683   6.117   6.270  0.3293 -0.6633 -0.1821
  775MOL0     C 4540  11.590   6.221   6.261 -0.3973 -0.9851 -1.1958
  775MOL0     N 4541  10.869   6.586   6.508 -0.9214  0.3176  0.4302
  775MOL0     N 4542  10.793   6.543   6.601  0.1560 -0.2340  0.0732
  775MOL0     C 4543  10.364   6.724   7.800 -1.2853  0.3692 -0.0401
  775MOL0     C 4544  10.259   6.766   7.878  0.1400  0.5149 -1.1869
  775MOL0     C 4545   9.928   6.989   8.059  0.0267  0.5024  1.1588
  775MOL0     C 4546   9.796   7.005   8.030  0.3802 -1.0382  0.4260
  775MOL0     C 4547   9.692   6.994   8.117 -1.1416  0.8532  0.9707
  775MOL0     C 4548   9.718   6.972   8.251 -0.4535 -0.2584 -0.0675
  775MOL0     O 4549   9.624   6.954   8.348  0.0456  0.2693 -0.6473
  775MOL0     C 4550   9.477   6.960   8.317 -1.0177  1.1633 -0.5071
  775MOL0     C 4551   9.392   6.885   8.425 -0.4401 -1.2241 -0.9418
  775MOL0     C 4552   9.380   6.965   8.563 -0.7139  1.0251 -1.1548
  775MOL0     C 4553   9.503   6.985   8.652 -0.3224 -0.3399 -0.2652
  775MOL0     C 4554   9.591   7.088   8.597  0.5802  0.5209 -0.4931
  775MOL0     C 4555   9.642   7.192   8.563 -0.0675  0.2631 -0.0849
  775MOL0     C 4556   9.843   6.956   8.288  0.4138  0.6027 -0.4838
  775MOL0     C 4557   9.950   6.956   8.198  0.3320 -0.6301  0.0750
  775MOL0     H 4558  10.361   7.103   7.898  0.0762  0.4287 -0.7355
  775MOL0     H 4559  10.552   6.987   7.759  1.9069 -1.4819  1.6662
  775MOL0     H 4560  10.538   6.720   7.483  0.8713 -0.3119 -0.3532
  775MOL0     H 4561  10.479   6.882   7.522 -0.4413  0.3078  3.3782
  775MOL0     H 4562  10.688   6.974   7.527 -1.4689  0.8749  0.9589
  775MOL0     H 4563  10.763   6.810   7.532 -0.1062  2.1321  0.4426
  775MOL0     H 4564  10.619   6.927   7.300 -0.9528 -0.4721  1.2114
  775MOL0     H 4565  10.794   6.940   7.322 -0.5931  1.4294  0.6062
  775MOL0     H 4566  10.810   6.684   7.350  0.8952 -2.8680 -2.1382
  775MOL0     H 4567  10.650   6.680   7.282 -0.2276  0.8169 -4.0236
  775MOL0     H 4568  10.721   6.805   7.093 -0.5243 -2.2328 -0.5821
  775MOL0     H 4569  10.895   6.769   7.134  0.5032  1.9395  1.0342
  775MOL0     H 4570  10.838   6.521   7.104 -0.0299  0.1722 -1.3249
  775MOL0     H 4571  10.668   6.569   7.067 -0.1267 -1.4449  1.6822
  775MOL0     H 4572  10.763   6.707   6.885 -3.2457 -3.3989 -0.0203
  775MOL0     H 4573  10.932   6.643   6.930 -0.0567 -3.9533 -0.1119
  775MOL0     H 4574  10.697   6.476   6.833  0.1300  0.0638 -0.9015
  775MOL0     H 4575  10.859   6.417   6.872 -0.8658 -0.4544  0.2378
  775MOL0     H 4576  11.084   6.572   6.749  0.7159 -0.3558 -1.1343
  775MOL0     H 4577  11.063   6.668   6.369 -2.1075 -0.3547  1.4884
  775MOL0     H 4578  11.169   6.705   6.513  1.7387 -1.5314  0.7638
  775MOL0     H 4579  11.127   6.425   6.394 -0.3587 -0.0838  1.4726
  775MOL0     H 4580  11.238   6.464   6.519  0.1716 -3.0753 -0.5553
  775MOL0     H 4581  11.339   6.636   6.361  4.0857 -1.2743  0.6349
  775MOL0     H 4582  11.254   6.555   6.230  1.6755 -0.1843 -0.4180
  775MOL0     H 4583  11.510   6.499   6.357  0.7146 -0.3230 -0.9220
  775MOL0     H 4584  11.442   6.431   6.208  2.0331 -2.2650  0.0854
  775MOL0     H 4585  11.411   6.139   6.543  0.7962 -0.8591  1.8982
  775MOL0     H 4586  11.556   5.818   6.533 -3.2254 -0.1353  1.9657
  775MOL0     H 4587  11.629   5.926   6.658 -0.5620 -2.0685  1.6718
  775MOL0     H 4588  11.464   5.935   6.619  0.5194  2.5697  1.2225
  775MOL0     H 4589  11.782   5.596   6.218 -2.7015  2.9527  1.4014
  775MOL0     H 4590  11.966   5.445   6.191  2.7947 -2.1236  0.6496
  775MOL0     H 4591  12.301   5.369   6.491 -1.0350  3.0630  1.8018
  775MOL0     H 4592  12.138   5.348   6.553  2.1716  1.1784  1.0388
  775MOL0     H 4593  12.118   5.147   6.376  1.1166 -0.9016 -0.8121
  775MOL0     H 4594  12.293   5.165   6.366  1.3498  2.1974  1.6991
  775MOL0     H 4595  12.179   4.998   6.527 -3.2398  2.5847 -0.0982
  775MOL0     H 4596  12.151   5.138   6.624 -2.5675 -1.6792 -1.6325
  775MOL0     H 4597  12.439   5.096   6.530  1.5342  0.3087  1.8050
  775MOL0     H 4598  12.384   5.169   6.675  0.7360 -1.6520  2.3830
  775MOL0     H 4599  12.308   4.937   6.768  2.0386 -2.2437  1.0474
  775MOL0     H 4600  12.482   4.962   6.755  0.2106 -2.8437 -0.7312
  775MOL0     H 4601  12.303   4.817   6.571 -0.7392  1.2007  0.4835
  775MOL0     H 4602  12.455   4.874   6.522 -0.9560  1.9461 -0.8712
  775MOL0     H 4603  12.465   4.738   6.796  1.0427  0.0143 -0.7696
  775MOL0     H 4604  12.568   4.709   6.665  0.9218  0.4558  1.5754
  775MOL0     H 4605  12.293   4.583   6.687  0.6222 -0.1800 -0.1009
  775MOL0     H 4606  12.453   4.518   6.720 -0.0232 -1.6861 -0.2795
  775MOL0     H 4607  12.126   5.579   6.564 -1.7621 -0.2964  1.8520
  775MOL0     H 4608  11.966   5.763   6.585  2.1132  0.5684 -0.9686
  775MOL0     H 4609  11.754   6.115   6.188  0.5144  1.2378 -0.1196
  775MOL0     H 4610  11.593   6.280   6.170  1.8137 -3.8978 -3.2133
  775MOL0     H 4611  10.374   6.619   7.774 -1.5259  0.5399 -0.8588
  775MOL0     H 4612  10.196   6.684   7.910  0.3668  0.9730  0.5057
  775MOL0     H 4613   9.774   7.025   7.926  1.9258  0.0266  0.2679
  775MOL0     H 4614   9.586   6.994   8.092 -1.3152 -0.8889  1.5144
  775MOL0     H 4615   9.439   7.062   8.300 -1.6574  0.4833 -3.7070
  775MOL0     H 4616   9.456   6.918   8.219 -2.1566  1.1494 -0.2735
  775MOL0     H 4617   9.419   6.780   8.441  2.0147 -0.2836  1.8513
  775MOL0     H 4618   9.291   6.883   8.382 -2.1763 -0.5044  2.7644
  775MOL0     H 4619   9.298   6.928   8.625 -1.3675  2.7986 -0.9028
  775MOL0     H 4620   9.340   7.064   8.540 -1.4886  0.6561 -1.4339
  775MOL0     H 4621   9.559   6.891   8.663  1.8716  0.7404 -1.5412
  775MOL0     H 4622   9.464   7.012   8.750 -1.4508  0.5708 -0.9416
  775MOL0     H 4623   9.679   7.282   8.517 -0.3713  1.0838  1.2320
  775MOL0     H 4624   9.861   6.936   8.393 -0.4662 -3.1429 -0.9193
  775MOL0     H 4625  10.050   6.925   8.225  0.6873 -0.2174 -0.7358
  776MOL0     O 4626   7.998   6.725   5.320 -0.5634  0.0110 -1.0141
  776MOL0     C 4627   7.983   6.666   5.426  1.0598  1.3134 -0.4813
  776MOL0     O 4628   8.079   6.594   5.492 -0.1238  0.1069  0.4100
  776MOL0     C 4629   8.208   6.609   5.458 -0.6810 -0.6466 -0.3500
  776MOL0     C 4630   8.274   6.728   5.481  0.4078 -0.0832  0.8533
  776MOL0     C 4631   8.410   6.746   5.434 -0.4512 -0.2726  1.3418
  776MOL0     C 4632   8.482   6.638   5.387 -0.4630  0.2120  0.6642
  776MOL0     O 4633   8.614   6.668   5.353 -0.4608 -0.0178 -0.8282
  776MOL0     C 4634   8.682   6.564   5.282 -0.2179 -0.2466  0.7228
  776MOL0     C 4635   8.815   6.620   5.223  0.0911 -0.0114 -0.4856
  776MOL0     C 4636   8.921   6.516   5.216 -0.4192  0.1405 -0.2401
  776MOL0     C 4637   8.878   6.385   5.139  0.0555  0.0119 -0.6613
  776MOL0     C 4638   8.993   6.309   5.074 -0.5876  0.9855  0.5676
  776MOL0     C 4639   9.096   6.244   5.169  0.2083 -0.1883  0.2555
  776MOL0     C 4640   9.207   6.175   5.085 -0.2079 -0.6202 -0.6809
  776MOL0     C 4641   9.290   6.079   5.167 -0.2755 -0.8806  0.3803
  776MOL0     N 4642   9.367   6.131   5.280  1.2055 -0.4056 -0.0827
  776MOL0     C 4643   9.481   6.214   5.281  0.1766 -0.3571  0.3742
  776MOL0     C 4644   9.523   6.202   5.402  0.2555 -0.0967  0.0506
  776MOL0     C 4645   9.633   6.274   5.466 -0.1429  0.0274  0.2644
  776MOL0     C 4646   9.746   6.175   5.502 -0.2056 -0.2836 -0.4697
  776MOL0     C 4647   9.871   6.260   5.540  1.0444  0.0968  0.0567
  776MOL0     C 4648   9.994   6.159   5.539  0.2073 -0.8148 -0.7755
  776MOL0     O 4649  10.109   6.247   5.548  0.8950  0.1700  0.9991
  776MOL0     C 4650  10.224   6.195   5.503  0.7558  0.3279  0.1947
  776MOL0     C 4651  10.248   6.058   5.473 -0.3024 -0.1118 -0.3802
  776MOL0     C 4652  10.365   6.024   5.420 -1.2358  0.2597 -0.2232
  776MOL0     C 4653  10.374   5.873   5.381  1.2416 -0.3599  0.0538
  776MOL0     C 4654  10.467   6.117   5.388 -0.1415 -0.1448 -0.8493
  776MOL0     C 4655  10.600   6.077   5.324 -0.6157 -0.0853 -0.4771
  776MOL0     O 4656  10.624   5.955   5.276 -0.9826  0.5683 -0.4795
  776MOL0     C 4657  10.754   5.920   5.271  0.2609  0.2539  0.0201
  776MOL0     C 4658  10.815   5.849   5.370 -0.2749 -0.0637 -0.3102
  776MOL0     C 4659  10.950   5.792   5.345  0.0019 -0.3703 -0.8087
  776MOL0     C 4660  11.010   5.803   5.225  0.1498 -0.1332 -0.1492
  776MOL0     O 4661  11.137   5.744   5.213  0.2118  0.1070 -0.4146
  776MOL0     C 4662  11.248   5.831   5.184  0.2923  0.6674 -0.1909
  776MOL0     C 4663  11.371   5.744   5.168  1.0342 -0.5864  0.4936
  776MOL0     C 4664  11.382   5.680   5.029 -0.7180 -0.1266 -0.3843
  776MOL0     C 4665  11.530   5.629   5.003  0.7770  0.1732 -0.4652
  776MOL0     C 4666  11.524   5.493   4.936 -0.1276  0.3121 -0.1484
  776MOL0     C 4667  11.666   5.445   4.920  0.1574  0.5467 -0.2009
  776MOL0     C 4668  11.689   5.305   4.864 -0.4039 -0.6933 -0.1645
  776MOL0     C 4669  11.822   5.250   4.910  1.3473 -0.8819  0.6982
  776MOL0    Cl 4670  11.812   5.209   5.079 -0.0333  0.2595  0.3545
  776MOL0     C 4671  10.957   5.900   5.143 -0.2658  0.4706 -0.0672
  776MOL0     C 4672  10.829   5.949   5.163  0.2870 -1.8881 -0.3777
  776MOL0     O 4673  10.684   6.164   5.342 -0.1695  0.3824  0.3057
  776MOL0     C 4674  10.451   6.253   5.423  0.6739 -0.7134 -0.0519
  776MOL0     C 4675  10.328   6.288   5.481 -0.3579  0.4239 -0.0526
  776MOL0     N 4676   9.427   6.131   5.478  0.3488 -0.4544 -0.2690
  776MOL0     N 4677   9.334   6.091   5.404 -0.4045  0.2953 -0.4954
  776MOL0     C 4678   8.411   6.529   5.366  0.1722  0.2424  0.1494
  776MOL0     C 4679   8.281   6.505   5.399  0.1179  0.5691  0.1769
  776MOL0     C 4680   7.855   6.661   5.495  1.2678 -0.7815  0.0882
  776MOL0     C 4681   7.741   6.744   5.461  0.7614 -0.8052 -0.8400
  776MOL0     C 4682   7.616   6.730   5.517  0.6426 -1.2887  0.2603
  776MOL0     C 4683   7.592   6.630   5.620  0.3244  0.4613 -0.1405
  776MOL0     O 4684   7.472   6.593   5.681  0.2953  0.1795 -0.4768
  776MOL0     C 4685   7.366   6.680   5.700 -0.5969 -0.0117  0.0049
  776MOL0     C 4686   7.302   6.638   5.820  0.3521  0.1498 -0.2279
  776MOL0     C 4687   7.394   6.616   5.939 -0.2143 -0.3902  0.6836
  776MOL0     C 4688   7.519   6.704   5.964  0.4622  0.2026 -0.3891
  776MOL0     C 4689   7.573   6.689   6.096 -0.7050  0.0949 -0.4459
  776MOL0     C 4690   7.626   6.673   6.203  0.3410  0.3906 -0.3039
  776MOL0     C 4691   7.703   6.555   5.652  0.0961  1.5163 -0.8564
  776MOL0     C 4692   7.829   6.571   5.594  0.6689  0.3987 -0.7655
  776MOL0     H 4693   8.229   6.804   5.544 -2.5514 -1.3861  0.4795
  776MOL0     H 4694   8.468   6.837   5.451 -0.4163 -0.2733  1.2286
  776MOL0     H 4695   8.702   6.479   5.348 -1.4398 -2.2357 -1.3380
  776MOL0     H 4696   8.632   6.523   5.194  1.2704 -0.9200  0.1504
  776MOL0     H 4697   8.790   6.646   5.120 -0.7823  1.1279 -0.0154
  776MOL0     H 4698   8.851   6.707   5.279 -1.3913 -0.4177  1.1915
  776MOL0     H 4699   9.005   6.561   5.161 -1.0011 -2.0701 -3.2077
  776MOL0     H 4700   8.949   6.492   5.319 -2.3110 -2.2574 -0.2026
  776MOL0     H 4701   8.827   6.322   5.213 -0.0023  0.2907 -0.4645
  776MOL0     H 4702   8.807   6.403   5.058 -1.4550 -3.0955 -0.1877
  776MOL0     H 4703   8.952   6.226   5.015  0.9022  0.6318 -0.0220
  776MOL0     H 4704   9.031   6.372   4.993 -1.5087 -1.3536 -1.8223
  776MOL0     H 4705   9.137   6.329   5.222  2.1083  1.0616 -2.9145
  776MOL0     H 4706   9.050   6.172   5.237  2.0870 -0.3435  1.4185
  776MOL0     H 4707   9.172   6.122   4.996 -2.6987 -4.1872  2.1565
  776MOL0     H 4708   9.278   6.252   5.053 -1.6373  0.8663 -0.4606
  776MOL0     H 4709   9.350   6.021   5.096 -2.1092 -1.5390 -0.7059
  776MOL0     H 4710   9.226   6.004   5.214  2.0711 -2.0597  1.8983
  776MOL0     H 4711   9.520   6.267   5.194 -0.7886  0.7839  0.6039
  776MOL0     H 4712   9.680   6.346   5.398  2.8465 -3.0367 -1.2355
  776MOL0     H 4713   9.601   6.315   5.562 -0.6626 -3.5053  1.7428
  776MOL0     H 4714   9.759   6.108   5.416 -0.6613 -1.0016  0.0002
  776MOL0     H 4715   9.716   6.108   5.583  1.8554  2.0004  2.3862
  776MOL0     H 4716   9.862   6.297   5.643  1.2040  0.6661 -0.1276
  776MOL0     H 4717   9.889   6.344   5.472  1.2715 -0.3906 -0.4913
  776MOL0     H 4718   9.996   6.119   5.437  2.3924 -1.0427 -0.6996
  776MOL0     H 4719   9.984   6.084   5.617 -1.9837 -1.1318 -1.2914
  776MOL0     H 4720  10.171   5.983   5.489  0.1651 -1.1448 -2.5468
  776MOL0     H 4721  10.449   5.815   5.437 -1.2263 -3.0577  0.8468
  776MOL0     H 4722  10.289   5.820   5.427 -0.4285  1.5276 -0.7023
  776MOL0     H 4723  10.368   5.863   5.272  0.9891  0.8746 -0.0546
  776MOL0     H 4724  10.767   5.842   5.467 -1.2841  0.7017 -0.7299
  776MOL0     H 4725  11.001   5.738   5.424  0.6931  0.0054 -0.9850
  776MOL0     H 4726  11.228   5.888   5.093  2.4185 -0.4051 -1.3848
  776MOL0     H 4727  11.259   5.901   5.268 -1.1440  1.7331 -0.8450
  776MOL0     H 4728  11.460   5.802   5.194  0.6783  0.3524 -0.3359
  776MOL0     H 4729  11.375   5.672   5.250  0.4613 -3.5065 -1.8410
  776MOL0     H 4730  11.366   5.751   4.948 -0.4053 -0.5592 -0.8290
  776MOL0     H 4731  11.313   5.596   5.020  0.4570 -1.6168  2.7959
  776MOL0     H 4732  11.584   5.701   4.941 -0.8626 -0.5055 -2.8085
  776MOL0     H 4733  11.579   5.623   5.101  1.9878 -1.1613 -1.1087
  776MOL0     H 4734  11.473   5.500   4.839 -3.4688  1.8853  1.5478
  776MOL0     H 4735  11.460   5.429   4.998  1.6710 -0.6138  0.8340
  776MOL0     H 4736  11.731   5.502   4.853  0.3015  0.5643 -0.0476
  776MOL0     H 4737  11.711   5.454   5.019 -0.8159 -1.4172  0.4754
  776MOL0     H 4738  11.674   5.304   4.756 -2.3242 -0.4351  0.0580
  776MOL0     H 4739  11.613   5.232   4.894 -0.6010 -0.4098  0.0268
  776MOL0     H 4740  11.902   5.323   4.894 -0.4090  0.6721 -1.7371
  776MOL0     H 4741  11.843   5.163   4.847  3.0166  1.6099 -2.5026
  776MOL0     H 4742  11.016   5.926   5.055 -0.0463 -1.2553 -0.4569
  776MOL0     H 4743  10.778   5.999   5.081  1.4694  0.2197  0.1053
  776MOL0     H 4744  10.532   6.325   5.424 -1.6278  2.0499  0.4661
  776MOL0     H 4745  10.302   6.393   5.491  1.4603  0.7749  2.0185
  776MOL0     H 4746   8.468   6.449   5.320  0.3045  0.8837 -0.8367
  776MOL0     H 4747   8.221   6.420   5.371 -2.2368  2.0173  0.5524
  776MOL0     H 4748   7.758   6.828   5.393 -0.8468 -0.5627 -0.9750
  776MOL0     H 4749   7.528   6.791   5.502  0.9769 -0.8362  0.1486
  776MOL0     H 4750   7.399   6.784   5.698 -2.2299  0.5346  0.2594
  776MOL0     H 4751   7.304   6.678   5.610  0.1608 -1.1880 -0.5049
  776MOL0     H 4752   7.239   6.549   5.806  0.3310 -0.2306  1.9686
  776MOL0     H 4753   7.224   6.712   5.837 -0.9745 -1.0562 -0.8027
  776MOL0     H 4754   7.435   6.515   5.938  2.3326  0.5062  2.9843
  776MOL0     H 4755   7.332   6.617   6.029  0.3546  2.0731  1.1190
  776MOL0     H 4756   7.499   6.808   5.940 -0.4228  1.0019  3.2207
  776MOL0     H 4757   7.600   6.670   5.900 -0.6274  1.2745 -2.4327
  776MOL0     H 4758   7.673   6.651   6.297  0.3074  0.5082 -0.2598
  776MOL0     H 4759   7.682   6.470   5.717  0.4209  1.5564 -0.6953
  776MOL0     H 4760   7.899   6.499   5.635 -1.8864 -2.4931 -1.0795
  777MOL0     O 4761  10.862   5.634   0.280 -0.5080  0.7734  0.3602
  777MOL0     C 4762  10.922   5.744   0.264  0.0646 -0.6456 -0.1915
  777MOL0     O 4763  10.873   5.861   0.313  0.4901  0.1398 -0.1361
  777MOL0     C 4764  10.754   5.869   0.382 -0.5631  0.1825  0.2678
  777MOL0     C 4765  10.723   5.806   0.496  0.7656  0.2644 -0.7516
  777MOL0     C 4766  10.601   5.838   0.565 -0.7967 -0.2954 -0.2432
  777MOL0     C 4767  10.516   5.929   0.512 -0.6780 -0.5625 -0.0065
  777MOL0     O 4768  10.400   5.936   0.586  0.1945 -0.2922  0.2252
  777MOL0     C 4769  10.293   6.016   0.531  0.0996  0.1870 -0.5535
  777MOL0     C 4770  10.200   5.953   0.425  0.4959 -0.1990 -0.0797
  777MOL0     C 4771  10.075   6.038   0.383 -0.1868 -0.4415 -0.3252
  777MOL0     C 4772   9.969   5.966   0.302 -0.4187  0.9850  0.4392
  777MOL0     C 4773   9.846   6.050   0.289 -0.0576  0.2246  0.2221
  777MOL0     C 4774   9.877   6.177   0.223  0.4995 -0.6079  0.1933
  777MOL0     C 4775   9.753   6.249   0.172  0.5765 -0.6723 -0.9190
  777MOL0     C 4776   9.652   6.272   0.288 -0.7327  0.3260 -1.0565
  777MOL0     N 4777   9.537   6.360   0.242  0.4285  0.8177  0.0513
  777MOL0     C 4778   9.471   6.346   0.117  0.0796 -0.0355  0.0540
  777MOL0     C 4779   9.385   6.454   0.127 -1.1059 -0.4529  1.3289
  777MOL0     C 4780   9.294   6.517   0.030 -0.6825  0.7115  0.1448
  777MOL0     C 4781   9.153   6.453   0.054 -0.2940 -0.2682  0.3080
  777MOL0     C 4782   9.042   6.490  -0.053 -0.2191 -0.5593 -0.7030
  777MOL0     C 4783   9.060   6.425  -0.194 -0.6955 -0.1373 -0.1036
  777MOL0     O 4784   8.963   6.473  -0.283  0.7249  0.2812  0.8188
  777MOL0     C 4785   8.841   6.414  -0.297  0.5182  0.0302  0.2952
  777MOL0     C 4786   8.835   6.300  -0.373  0.7917  0.5946  0.7444
  777MOL0     C 4787   8.714   6.226  -0.380  0.0680  0.5000  0.7165
  777MOL0     C 4788   8.730   6.097  -0.457  0.2281  0.1570  0.2818
  777MOL0     C 4789   8.596   6.280  -0.314  1.2681 -0.5581 -0.4984
  777MOL0     C 4790   8.465   6.213  -0.305  0.0954 -0.7363 -0.5451
  777MOL0     O 4791   8.358   6.280  -0.251  0.1350 -0.2676  0.1074
  777MOL0     C 4792   8.234   6.219  -0.268  0.5518  0.6144  0.3318
  777MOL0     C 4793   8.171   6.148  -0.163  0.3415 -0.4474  0.1277
  777MOL0     C 4794   8.048   6.082  -0.196  0.0013 -1.1907  0.5622
  777MOL0     C 4795   7.984   6.088  -0.321  0.2027 -0.3120 -0.6767
  777MOL0     O 4796   7.862   6.025  -0.335  0.7105  0.1756 -0.2445
  777MOL0     C 4797   7.829   5.943  -0.449 -0.5513  0.1463 -0.1280
  777MOL0     C 4798   7.692   5.886  -0.434  0.5984 -0.2555  0.1498
  777MOL0     C 4799   7.636   5.813  -0.562 -0.2992 -0.2614  0.6169
  777MOL0     C 4800   7.497   5.754  -0.544  0.7167  0.3507 -0.0797
  777MOL0     C 4801   7.444   5.703  -0.674 -0.4108  0.3455  0.4732
  777MOL0     C 4802   7.309   5.630  -0.660  0.7866 -0.2367  0.2774
  777MOL0     C 4803   7.222   5.613  -0.797 -0.2076  0.2879 -0.3564
  777MOL0     C 4804   7.070   5.615  -0.784 -0.4319  0.4310 -0.8877
  777MOL0    Cl 4805   7.017   5.494  -0.657  0.1169 -0.1060 -0.2926
  777MOL0     C 4806   8.048   6.165  -0.420 -0.6973  0.7606  0.2508
  777MOL0     C 4807   8.173   6.228  -0.394 -0.1732 -0.1963  0.7863
  777MOL0     O 4808   8.458   6.100  -0.347 -0.5499  0.5343  0.1861
  777MOL0     C 4809   8.609   6.406  -0.251  0.2627  0.1554 -0.2303
  777MOL0     C 4810   8.732   6.471  -0.245  0.3041 -0.0805 -0.2124
  777MOL0     N 4811   9.395   6.517   0.247 -0.4224 -0.5475  0.5485
  777MOL0     N 4812   9.497   6.470   0.310 -0.2839 -0.6240  0.6252
  777MOL0     C 4813  10.552   5.997   0.396  0.2301 -0.1648 -0.4418
  777MOL0     C 4814  10.674   5.970   0.336  0.2760  0.5120 -0.1529
  777MOL0     C 4815  11.055   5.746   0.191  0.3782  0.1264 -0.2066
  777MOL0     C 4816  11.119   5.622   0.147 -0.6247 -0.2392 -0.1237
  777MOL0     C 4817  11.254   5.631   0.102  0.7319 -0.3199 -0.1966
  777MOL0     C 4818  11.319   5.757   0.078 -0.2177 -0.1278 -0.1357
  777MOL0     O 4819  11.429   5.766   0.002  0.4700  0.4711  0.0175
  777MOL0     C 4820  11.521   5.872   0.046  0.7805 -0.0277  0.4930
  777MOL0     C 4821  11.521   5.994  -0.042  0.2171  0.8767  0.0539
  777MOL0     C 4822  11.583   5.973  -0.190  0.6032 -0.3295  0.4592
  777MOL0     C 4823  11.561   6.109  -0.266 -0.1787 -0.0794 -0.5182
  777MOL0     C 4824  11.426   6.118  -0.321 -0.3513  0.3498  0.3671
  777MOL0     C 4825  11.313   6.122  -0.373 -0.3985 -1.0233  0.6802
  777MOL0     C 4826  11.245   5.875   0.101 -0.1018  0.3564 -0.1341
  777MOL0     C 4827  11.119   5.874   0.164  0.3563  0.4738  0.1633
  777MOL0     H 4828  10.801   5.735   0.523  2.4880  0.8693 -3.6918
  777MOL0     H 4829  10.568   5.800   0.661 -1.0111  1.0946  0.2460
  777MOL0     H 4830  10.233   6.037   0.620  0.3084 -0.6782 -0.2032
  777MOL0     H 4831  10.330   6.114   0.501  0.8120  0.0131 -0.2466
  777MOL0     H 4832  10.262   5.939   0.336  0.9003 -0.9757  0.3120
  777MOL0     H 4833  10.164   5.862   0.473 -1.4372  0.3794 -0.3128
  777MOL0     H 4834  10.040   6.077   0.479  0.9060 -1.3908  0.4887
  777MOL0     H 4835  10.115   6.116   0.317 -2.3013 -1.6133 -3.2293
  777MOL0     H 4836  10.018   5.937   0.208  1.2284 -2.4825  2.1887
  777MOL0     H 4837   9.940   5.875   0.355  1.2548  1.2774  1.9444
  777MOL0     H 4838   9.775   5.988   0.234 -0.9251  0.7563  0.7311
  777MOL0     H 4839   9.808   6.064   0.391 -0.5761 -1.3100  0.2608
  777MOL0     H 4840   9.918   6.239   0.303 -1.3247 -0.6901  1.2262
  777MOL0     H 4841   9.947   6.165   0.139 -0.1276 -0.5753 -0.3479
  777MOL0     H 4842   9.783   6.348   0.137  1.1387 -0.5692 -0.1746
  777MOL0     H 4843   9.702   6.196   0.092 -1.5569  1.1999 -0.9105
  777MOL0     H 4844   9.688   6.319   0.380 -1.7955  2.7504 -1.7768
  777MOL0     H 4845   9.615   6.177   0.326 -2.1818  1.8705  1.7090
  777MOL0     H 4846   9.498   6.287   0.030  0.8707 -0.1545  0.3679
  777MOL0     H 4847   9.293   6.625   0.050  1.5919  0.2292  3.7720
  777MOL0     H 4848   9.323   6.497  -0.074  1.7797  2.4814  0.3883
  777MOL0     H 4849   9.120   6.495   0.150  0.1440  1.6135 -0.3258
  777MOL0     H 4850   9.170   6.345   0.050  0.1019 -0.1673 -1.1877
  777MOL0     H 4851   9.036   6.599  -0.054  0.6762 -0.5004 -1.0266
  777MOL0     H 4852   8.952   6.459   0.001  2.6997 -3.2745  3.1997
  777MOL0     H 4853   9.069   6.316  -0.195  0.1167 -0.1246 -3.0327
  777MOL0     H 4854   9.154   6.455  -0.242 -0.0453 -0.9739  0.6092
  777MOL0     H 4855   8.924   6.262  -0.423 -0.9241 -1.4735 -0.9016
  777MOL0     H 4856   8.820   6.046  -0.422  0.9443  0.4568 -1.0697
  777MOL0     H 4857   8.645   6.028  -0.459 -0.8719  1.4588 -2.4039
  777MOL0     H 4858   8.749   6.110  -0.564  0.4336  1.0309  0.4167
  777MOL0     H 4859   8.213   6.131  -0.065  0.2478 -0.4473  0.1680
  777MOL0     H 4860   7.996   6.019  -0.125 -0.8101 -1.8722 -0.6143
  777MOL0     H 4861   7.837   5.990  -0.547 -3.5416 -0.0084 -0.5551
  777MOL0     H 4862   7.889   5.852  -0.446 -1.4460 -0.4244  1.4327
  777MOL0     H 4863   7.690   5.810  -0.355 -1.9916 -1.1898 -0.7178
  777MOL0     H 4864   7.633   5.975  -0.411  3.0364  1.8522 -1.2031
  777MOL0     H 4865   7.710   5.736  -0.588  2.2696  1.8423  1.3077
  777MOL0     H 4866   7.634   5.893  -0.637  0.2867 -0.6268  0.2009
  777MOL0     H 4867   7.496   5.664  -0.481  0.0884 -0.2297 -0.8849
  777MOL0     H 4868   7.422   5.823  -0.504 -0.4262 -0.7745 -0.1799
  777MOL0     H 4869   7.516   5.632  -0.717  1.3136  0.2267  3.3158
  777MOL0     H 4870   7.422   5.792  -0.735 -4.0398  1.9508  3.6797
  777MOL0     H 4871   7.319   5.534  -0.608 -3.5367 -3.2223 -3.6581
  777MOL0     H 4872   7.239   5.693  -0.605 -0.8627  0.1917 -2.1829
  777MOL0     H 4873   7.255   5.524  -0.852 -1.8217  0.9940 -2.5957
  777MOL0     H 4874   7.247   5.694  -0.866 -0.5695 -0.8633 -1.9173
  777MOL0     H 4875   7.019   5.577  -0.874 -0.3325  0.6437 -1.0330
  777MOL0     H 4876   7.028   5.713  -0.761 -0.0006  0.7467 -1.4120
  777MOL0     H 4877   8.003   6.177  -0.518 -0.7809 -2.7408 -0.2745
  777MOL0     H 4878   8.232   6.290  -0.460  1.6586 -0.5735  1.9813
  777MOL0     H 4879   8.520   6.451  -0.208 -1.4522 -1.1236 -2.2611
  777MOL0     H 4880   8.744   6.567  -0.198 -0.1248 -0.0687 -0.1181
  777MOL0     H 4881  10.487   6.075   0.357 -0.5956  0.1039  1.3651
  777MOL0     H 4882  10.717   6.026   0.253  0.5191  3.8079  2.0228
  777MOL0     H 4883  11.055   5.536   0.160 -1.3034  0.2116 -0.4261
  777MOL0     H 4884  11.306   5.539   0.080  1.5456 -0.3582  1.6782
  777MOL0     H 4885  11.487   5.911   0.142 -5.3662  0.1527 -1.3519
  777MOL0     H 4886  11.620   5.830   0.065  0.9468  0.8290  1.6387
  777MOL0     H 4887  11.577   6.073   0.010  1.6758  0.1102 -0.2784
  777MOL0     H 4888  11.419   6.030  -0.054  0.4083  0.9684 -1.5789
  777MOL0     H 4889  11.545   5.882  -0.236 -1.3103  0.9872 -0.7271
  777MOL0     H 4890  11.692   5.971  -0.178  1.2667  4.5383 -1.9130
  777MOL0     H 4891  11.627   6.113  -0.353  0.6350 -0.5116  0.0556
  777MOL0     H 4892  11.584   6.193  -0.201  0.1926 -0.7174  0.1971
  777MOL0     H 4893  11.212   6.107  -0.406  1.3280 -2.7773 -4.8006
  777MOL0     H 4894  11.284   5.973   0.078  0.4735  0.2484  0.3276
  777MOL0     H 4895  11.085   5.970   0.202  0.4810 -0.0751  1.7260
  778MOL0     O 4896   5.403   8.377   4.774 -0.0580  0.1417 -0.1708
  778MOL0     C 4897   5.380   8.467   4.858  0.4166  0.1913 -0.0305
  778MOL0     O 4898   5.460   8.569   4.886 -0.1630 -0.3161 -0.2886
  778MOL0     C 4899   5.578   8.566   4.817  0.1223  0.2258 -0.8894
  778MOL0     C 4900   5.686   8.505   4.874  0.8028  0.0051  0.0016
  778MOL0     C 4901   5.811   8.515   4.811  0.3256 -0.0590  0.1081
  778MOL0     C 4902   5.832   8.600   4.699 -0.2011  0.5506  0.6351
  778MOL0     O 4903   5.964   8.614   4.677  0.1117  0.4751  0.3107
  778MOL0     C 4904   6.003   8.694   4.572 -0.0371 -0.7663 -0.2490
  778MOL0     C 4905   6.153   8.687   4.553  0.3530 -0.3014 -0.4994
  778MOL0     C 4906   6.194   8.783   4.440  0.3320  0.0930  0.6189
  778MOL0     C 4907   6.348   8.813   4.437  0.7173 -0.9482  0.5229
  778MOL0     C 4908   6.379   8.946   4.353  0.0058  0.5801  0.3759
  778MOL0     C 4909   6.527   8.954   4.338  0.0450  0.0030  0.5294
  778MOL0     C 4910   6.561   9.074   4.252 -0.0768 -0.2494 -0.9445
  778MOL0     C 4911   6.717   9.079   4.226 -0.3431  0.3345 -0.1103
  778MOL0     N 4912   6.740   9.154   4.102 -0.3972 -0.0035  0.6327
  778MOL0     C 4913   6.709   9.286   4.089  0.0892  0.0143 -0.2425
  778MOL0     C 4914   6.739   9.311   3.955  0.5734  0.3118  0.3771
  778MOL0     C 4915   6.749   9.436   3.880  0.8950 -0.2767 -0.0601
  778MOL0     C 4916   6.884   9.483   3.816 -0.0498 -0.3942 -0.0060
  778MOL0     C 4917   6.865   9.604   3.719 -0.4292 -0.4072  0.2910
  778MOL0     C 4918   7.009   9.642   3.668  0.1600 -0.0590  0.4288
  778MOL0     O 4919   6.969   9.746   3.575  0.2218 -0.5465  0.2229
  778MOL0     C 4920   7.077   9.813   3.519  0.7522  0.0234 -0.7383
  778MOL0     C 4921   7.043   9.905   3.421 -0.4259  0.0381  0.0409
  778MOL0     C 4922   7.138   9.991   3.356 -0.4047 -0.3121  1.0861
  778MOL0     C 4923   7.073  10.078   3.249 -1.6217 -0.6181  0.0768
  778MOL0     C 4924   7.274   9.970   3.382  0.8975  0.4506 -0.2322
  778MOL0     C 4925   7.382  10.041   3.323  0.2250 -0.1128 -0.5148
  778MOL0     O 4926   7.376  10.179   3.320 -0.1095 -0.0458 -0.2202
  778MOL0     C 4927   7.488  10.261   3.276 -0.1266  0.2144 -0.0257
  778MOL0     C 4928   7.465  10.358   3.177  0.1868  1.0088 -0.6869
  778MOL0     C 4929   7.573  10.443   3.140 -0.1887 -0.4484  1.1397
  778MOL0     C 4930   7.706  10.432   3.186  0.2349 -0.1677 -0.2392
  778MOL0     O 4931   7.813  10.498   3.126 -0.2298  0.7065  0.1122
  778MOL0     C 4932   7.926  10.405   3.105 -0.2720 -0.1468  0.5090
  778MOL0     C 4933   8.010  10.453   2.995  0.4096  0.2852  0.0224
  778MOL0     C 4934   8.157  10.409   3.016  0.0889  0.3457 -0.1396
  778MOL0     C 4935   8.180  10.261   3.027  0.3195 -0.4284  1.0050
  778MOL0     C 4936   8.330  10.210   3.042 -0.7874  0.3143 -1.0008
  778MOL0     C 4937   8.421  10.279   2.942 -0.2552 -0.7547  0.5026
  778MOL0     C 4938   8.564  10.236   2.956 -0.0562  0.4411  0.4105
  778MOL0     C 4939   8.587  10.098   2.900 -0.0462 -0.3817  1.1877
  778MOL0    Cl 4940   8.745  10.020   2.946 -0.1439  0.5564  0.4640
  778MOL0     C 4941   7.725  10.336   3.288 -0.2910  0.1466 -0.6245
  778MOL0     C 4942   7.616  10.258   3.337 -1.7197 -0.1455 -0.6804
  778MOL0     O 4943   7.480   9.976   3.296 -0.2397  0.4366  0.0477
  778MOL0     C 4944   7.302   9.871   3.473  0.0241  0.4742  0.2711
  778MOL0     C 4945   7.211   9.791   3.545  0.3016  0.3171 -0.2563
  778MOL0     N 4946   6.763   9.188   3.894 -0.6152  0.5456 -0.6607
  778MOL0     N 4947   6.758   9.090   3.982  0.5350 -0.5381  1.3536
  778MOL0     C 4948   5.724   8.655   4.636 -0.7442 -0.0661 -0.2195
  778MOL0     C 4949   5.592   8.637   4.693  0.6961 -0.5728 -0.2607
  778MOL0     C 4950   5.250   8.463   4.943 -0.3613  0.1411 -1.0699
  778MOL0     C 4951   5.144   8.371   4.924 -1.1200 -0.7491  0.0093
  778MOL0     C 4952   5.043   8.356   5.013  0.6447 -0.4200  0.2024
  778MOL0     C 4953   5.032   8.436   5.127  0.5453 -0.2632  1.0763
  778MOL0     O 4954   4.930   8.421   5.217 -0.4867  0.0612  0.2564
  778MOL0     C 4955   4.839   8.311   5.189 -0.5423 -0.7163 -0.4003
  778MOL0     C 4956   4.714   8.346   5.097 -0.0073  0.2737 -0.3835
  778MOL0     C 4957   4.680   8.490   5.109 -0.4744  0.1802 -0.2656
  778MOL0     C 4958   4.521   8.508   5.110 -0.1578  0.7872  0.7973
  778MOL0     C 4959   4.488   8.647   5.129  0.4083  0.4097  0.9842
  778MOL0     C 4960   4.459   8.766   5.135  0.0057 -1.0917  0.5664
  778MOL0     C 4961   5.125   8.543   5.140  0.2404  1.1411 -1.1412
  778MOL0     C 4962   5.234   8.555   5.059 -0.0306 -0.0738  0.4683
  778MOL0     H 4963   5.668   8.473   4.976  0.0556 -1.0023 -0.4258
  778MOL0     H 4964   5.895   8.468   4.861  0.3770 -2.0781 -1.7159
  778MOL0     H 4965   5.970   8.671   4.470  0.1427  1.7902 -0.9585
  778MOL0     H 4966   5.980   8.799   4.593  1.7598 -0.1878 -0.9636
  778MOL0     H 4967   6.203   8.719   4.645 -1.3624  3.0404 -0.6221
  778MOL0     H 4968   6.181   8.582   4.535  0.1237 -1.0666  2.9206
  778MOL0     H 4969   6.154   8.745   4.346  0.3300  4.5072 -1.4092
  778MOL0     H 4970   6.138   8.876   4.456 -0.4489  0.1670 -2.1090
  778MOL0     H 4971   6.380   8.835   4.539  1.1928 -0.6623  0.3183
  778MOL0     H 4972   6.401   8.726   4.397 -1.1259 -0.9916 -2.1466
  778MOL0     H 4973   6.337   8.928   4.254  0.1622 -1.7034  0.6684
  778MOL0     H 4974   6.338   9.032   4.407  1.0485 -0.3780  2.8361
  778MOL0     H 4975   6.573   8.959   4.437  2.8863 -0.6042 -0.6506
  778MOL0     H 4976   6.562   8.867   4.282  0.5756  0.4715  0.1247
  778MOL0     H 4977   6.513   9.055   4.156  2.0080 -0.8051 -1.9480
  778MOL0     H 4978   6.537   9.168   4.303 -1.0569  0.2063 -2.1795
  778MOL0     H 4979   6.756   8.980   4.201 -0.8269  0.6265 -2.1754
  778MOL0     H 4980   6.774   9.110   4.314 -1.4611  2.5838 -0.1089
  778MOL0     H 4981   6.692   9.359   4.167 -1.5647 -0.5866 -0.0065
  778MOL0     H 4982   6.677   9.428   3.799  1.9942  1.5357 -1.2871
  778MOL0     H 4983   6.699   9.519   3.932  0.5564  0.8085 -2.0177
  778MOL0     H 4984   6.934   9.400   3.765  0.3335  0.0780 -0.4004
  778MOL0     H 4985   6.946   9.517   3.900 -0.8966  0.7340  0.1806
  778MOL0     H 4986   6.820   9.694   3.761 -2.6520 -0.6909 -1.3568
  778MOL0     H 4987   6.805   9.573   3.633  0.9895 -2.5151 -0.0163
  778MOL0     H 4988   7.046   9.561   3.605  1.3261  1.3382 -0.7475
  778MOL0     H 4989   7.076   9.672   3.749 -1.2546  4.1615  0.3110
  778MOL0     H 4990   6.937   9.917   3.405 -0.4315 -0.7187 -0.5619
  778MOL0     H 4991   7.117  10.051   3.152  0.2052  0.9989  0.3770
  778MOL0     H 4992   6.964  10.073   3.254 -1.8207  2.0909 -0.0344
  778MOL0     H 4993   7.100  10.183   3.263 -0.6822 -0.7734 -0.4196
  778MOL0     H 4994   7.366  10.377   3.137  0.2445 -0.7882 -1.8088
  778MOL0     H 4995   7.545  10.526   3.075 -1.0566  0.0760  2.1361
  778MOL0     H 4996   7.998  10.399   3.187 -3.1197 -0.2217  3.1463
  778MOL0     H 4997   7.890  10.305   3.079  0.0802 -0.4728  1.2421
  778MOL0     H 4998   7.971  10.428   2.895  0.9856  0.4255 -0.2409
  778MOL0     H 4999   8.022  10.561   3.002  3.2094 -0.0706  1.8161
  778MOL0     H 5000   8.208  10.452   3.102  2.9042 -0.7285 -1.1416
  778MOL0     H 5001   8.205  10.430   2.920  0.4200 -2.6468 -0.7366
  778MOL0     H 5002   8.122  10.213   3.106 -1.3374  1.7262  1.1810
  778MOL0     H 5003   8.142  10.214   2.936 -0.3961 -0.2405  1.2038
  778MOL0     H 5004   8.326  10.104   3.016  1.6354 -0.5237  1.6106
  778MOL0     H 5005   8.366  10.206   3.145 -1.5505 -0.8965 -0.7541
  778MOL0     H 5006   8.396  10.269   2.837 -0.3380  1.8120  0.2204
  778MOL0     H 5007   8.418  10.387   2.959 -2.5206  0.4279 -5.1627
  778MOL0     H 5008   8.609  10.234   3.056  3.4146  0.2505 -1.0149
  778MOL0     H 5009   8.612  10.307   2.888 -1.4116  0.6791 -0.3353
  778MOL0     H 5010   8.560  10.116   2.796 -1.5121  1.5787  1.8443
  778MOL0     H 5011   8.511  10.034   2.948 -0.4427 -0.2466  0.7540
  778MOL0     H 5012   7.823  10.339   3.333  0.4373 -1.3193 -2.0132
  778MOL0     H 5013   7.641  10.187   3.416 -2.0348  0.4990  0.0157
  778MOL0     H 5014   7.402   9.854   3.511  1.8428  2.3493 -3.1788
  778MOL0     H 5015   7.252   9.733   3.627  3.1890 -0.3327 -2.0293
  778MOL0     H 5016   5.748   8.720   4.553 -0.1219 -2.8256 -2.3687
  778MOL0     H 5017   5.512   8.694   4.646 -1.7818 -3.9786 -0.5313
  778MOL0     H 5018   5.158   8.314   4.833 -0.3351 -0.9104  0.2202
  778MOL0     H 5019   4.977   8.274   4.990 -1.0997  1.0746 -0.3644
  778MOL0     H 5020   4.887   8.217   5.162 -0.5927 -0.3923 -1.6386
  778MOL0     H 5021   4.802   8.278   5.287  4.2606 -1.2994  1.5091
  778MOL0     H 5022   4.632   8.276   5.114  0.0710 -0.7390 -3.5294
  778MOL0     H 5023   4.728   8.337   4.989 -0.3593 -2.8375 -0.2411
  778MOL0     H 5024   4.725   8.541   5.023  0.8910  0.9139  0.8514
  778MOL0     H 5025   4.720   8.536   5.199  0.7823 -2.0219  0.3799
  778MOL0     H 5026   4.460   8.452   5.181 -0.8371  1.9491  1.1540
  778MOL0     H 5027   4.487   8.489   5.008 -1.5638  3.0728  0.7639
  778MOL0     H 5028   4.442   8.870   5.156  0.9812 -1.3870  3.1617
  778MOL0     H 5029   5.136   8.606   5.228  3.0353 -0.3898 -0.2666
  778MOL0     H 5030   5.317   8.617   5.092  0.8640 -1.1200  0.2271
  779MOL0     O 5031   9.979   7.525   9.766 -0.0572 -0.0601  0.1199
  779MOL0     C 5032  10.019   7.488   9.875  0.5755 -0.1369  0.2763
  779MOL0     O 5033  10.149   7.445   9.912  0.0337  0.0154 -0.6465
  779MOL0     C 5034  10.230   7.422   9.809 -0.8443 -0.2022  0.4866
  779MOL0     C 5035  10.291   7.519   9.721 -0.2762 -0.1091 -0.7276
  779MOL0     C 5036  10.400   7.483   9.643 -0.4664  0.9744 -0.3151
  779MOL0     C 5037  10.443   7.350   9.628  0.4620  0.3142  0.5441
  779MOL0     O 5038  10.543   7.325   9.532 -0.7999 -0.1316 -0.3097
  779MOL0     C 5039  10.591   7.190   9.523 -0.1904  0.3018  1.1486
  779MOL0     C 5040  10.718   7.168   9.437  0.3676 -0.2281 -0.3182
  779MOL0     C 5041  10.799   7.293   9.414 -0.2524  0.0471 -0.5253
  779MOL0     C 5042  10.933   7.257   9.364 -0.4179 -0.2300  0.0368
  779MOL0     C 5043  10.932   7.168   9.242 -0.6972  0.2855  0.0186
  779MOL0     C 5044  11.078   7.145   9.180  0.4407  0.5084  0.0003
  779MOL0     C 5045  11.082   7.045   9.063 -0.0445  0.7994  0.1804
  779MOL0     C 5046  11.211   7.056   8.976  0.5424 -0.3533 -0.1013
  779MOL0     N 5047  11.182   7.120   8.853  0.0973 -0.7799 -0.2061
  779MOL0     C 5048  11.136   7.248   8.850 -0.4957 -0.0305 -0.1447
  779MOL0     C 5049  11.102   7.261   8.724  0.6251 -0.9615  0.1156
  779MOL0     C 5050  11.018   7.380   8.675 -0.4671  0.4878  0.0075
  779MOL0     C 5051  10.873   7.338   8.678  0.2149 -0.5743  0.5134
  779MOL0     C 5052  10.789   7.446   8.599  0.8515 -0.0128 -0.3745
  779MOL0     C 5053  10.638   7.441   8.603 -0.4286 -1.3028 -0.0079
  779MOL0     O 5054  10.575   7.553   8.531  0.1953 -0.2355  0.0746
  779MOL0     C 5055  10.440   7.547   8.557  1.1148  0.3065  0.2743
  779MOL0     C 5056  10.361   7.466   8.478 -0.2699 -1.7701 -0.1128
  779MOL0     C 5057  10.229   7.449   8.496  0.3032  0.5633 -0.2857
  779MOL0     C 5058  10.154   7.362   8.396 -0.1667 -0.1838 -0.4608
  779MOL0     C 5059  10.165   7.519   8.600 -0.7216 -0.8373  0.2044
  779MOL0     C 5060  10.019   7.512   8.617 -0.3257  0.4824  0.4876
  779MOL0     O 5061   9.976   7.541   8.737 -0.1677 -0.2711  0.6149
  779MOL0     C 5062   9.841   7.530   8.761  0.2914  0.1160 -0.0784
  779MOL0     C 5063   9.768   7.640   8.747 -0.1034  0.4292  0.2523
  779MOL0     C 5064   9.629   7.632   8.772 -0.8977  0.2153 -0.7190
  779MOL0     C 5065   9.569   7.518   8.811 -0.3059  0.5678 -0.6820
  779MOL0     O 5066   9.439   7.503   8.838  0.3316 -0.0431 -0.4736
  779MOL0     C 5067   9.378   7.427   8.733 -0.1110  0.7329 -0.2557
  779MOL0     C 5068   9.232   7.399   8.746  0.4188 -0.7447  0.7188
  779MOL0     C 5069   9.147   7.543   8.751  0.9554  0.3748  0.0123
  779MOL0     C 5070   8.990   7.529   8.756  0.0604  0.1830 -0.2440
  779MOL0     C 5071   8.928   7.546   8.893 -0.0414 -0.8320  0.0208
  779MOL0     C 5072   8.800   7.470   8.901 -0.1865  0.2895 -0.6186
  779MOL0     C 5073   8.681   7.545   8.828  0.0254  0.6929 -0.6747
  779MOL0     C 5074   8.544   7.469   8.807 -0.8352 -0.0344 -0.0902
  779MOL0    Cl 5075   8.571   7.296   8.761  0.2363  0.8238 -0.3622
  779MOL0     C 5076   9.645   7.398   8.819  0.5209 -0.2513  0.3899
  779MOL0     C 5077   9.783   7.408   8.792 -1.0910  0.4693  0.5831
  779MOL0     O 5078   9.943   7.488   8.528  0.2945  0.2482 -0.3446
  779MOL0     C 5079  10.245   7.605   8.680 -0.2347  0.5404  0.1434
  779MOL0     C 5080  10.383   7.619   8.659 -0.0803 -0.4249 -0.4987
  779MOL0     N 5081  11.148   7.158   8.649  0.1617 -0.2777 -0.2702
  779MOL0     N 5082  11.193   7.071   8.724 -0.1343 -0.6033 -0.3399
  779MOL0     C 5083  10.386   7.262   9.716 -0.3625 -0.1093  0.5805
  779MOL0     C 5084  10.284   7.295   9.799 -0.5438 -0.3980  0.2031
  779MOL0     C 5085   9.922   7.484   9.985  0.5258 -0.3560 -0.2615
  779MOL0     C 5086   9.956   7.432  10.114 -0.0664 -1.3549 -0.4697
  779MOL0     C 5087   9.864   7.437  10.221  0.5209  0.3434  0.3885
  779MOL0     C 5088   9.741   7.484  10.203 -0.4623 -0.0613  0.5351
  779MOL0     O 5089   9.654   7.468  10.309  0.2034  0.1006  0.4474
  779MOL0     C 5090   9.543   7.548  10.327  0.3674 -0.3955  0.1657
  779MOL0     C 5091   9.447   7.474  10.424  0.2794  0.0936  1.0545
  779MOL0     C 5092   9.390   7.341  10.364 -0.6099  0.0113  0.0005
  779MOL0     C 5093   9.295   7.286  10.468  0.2161  0.6648  0.3204
  779MOL0     C 5094   9.212   7.171  10.446  0.0268 -0.0747  0.3398
  779MOL0     C 5095   9.150   7.065  10.433  0.1512  0.1877  0.4661
  779MOL0     C 5096   9.694   7.530  10.076  0.0249  0.4936  0.3718
  779MOL0     C 5097   9.791   7.530   9.968  0.0456  0.0651 -0.4534
  779MOL0     H 5098  10.249   7.618   9.712 -2.8513 -1.1327 -0.7077
  779MOL0     H 5099  10.454   7.561   9.591  2.1714 -0.2972  0.3217
  779MOL0     H 5100  10.624   7.142   9.616 -2.9143 -1.4896  1.2994
  779MOL0     H 5101  10.515   7.126   9.477  0.2508  1.2005 -0.9308
  779MOL0     H 5102  10.792   7.101   9.481  1.7258  1.4843  0.1269
  779MOL0     H 5103  10.681   7.122   9.345 -2.7446 -0.5876  0.9935
  779MOL0     H 5104  10.749   7.345   9.331 -0.8211  0.4412  0.0591
  779MOL0     H 5105  10.817   7.348   9.506 -1.6703 -0.0847 -0.1446
  779MOL0     H 5106  10.987   7.349   9.341  2.1636 -2.3708 -3.5130
  779MOL0     H 5107  10.997   7.205   9.435  0.2786  0.5932  0.0246
  779MOL0     H 5108  10.890   7.073   9.278 -2.5992  1.9120  2.4568
  779MOL0     H 5109  10.848   7.204   9.181  1.0668  0.3595 -2.4826
  779MOL0     H 5110  11.117   7.240   9.143 -0.7245  0.4564 -1.4851
  779MOL0     H 5111  11.137   7.103   9.262  1.5553 -0.0519 -1.0630
  779MOL0     H 5112  11.075   6.940   9.094  1.7292 -0.8563 -4.2136
  779MOL0     H 5113  10.999   7.068   8.995 -0.1075  0.4109  0.1246
  779MOL0     H 5114  11.261   6.961   8.954  3.1721  0.6291  1.1254
  779MOL0     H 5115  11.288   7.116   9.025  1.2988 -3.0206  2.2059
  779MOL0     H 5116  11.129   7.321   8.930  1.4001 -0.1753  0.1933
  779MOL0     H 5117  11.046   7.474   8.724  0.1480  1.5284 -2.2253
  779MOL0     H 5118  11.038   7.393   8.569 -1.2807  0.0079 -0.2121
  779MOL0     H 5119  10.836   7.343   8.781  0.0814 -0.2123  0.4475
  779MOL0     H 5120  10.871   7.237   8.635 -0.0945  0.4068 -1.9652
  779MOL0     H 5121  10.814   7.454   8.493  0.8913 -3.5959 -0.7611
  779MOL0     H 5122  10.797   7.540   8.655 -1.9765 -0.6675  1.3645
  779MOL0     H 5123  10.622   7.423   8.709 -0.3086 -1.0425  0.0555
  779MOL0     H 5124  10.608   7.351   8.548  0.2482 -1.2887 -0.4059
  779MOL0     H 5125  10.417   7.411   8.403  0.9032  1.2678 -1.6176
  779MOL0     H 5126  10.232   7.295   8.358  1.3548  0.6627  1.0116
  779MOL0     H 5127  10.071   7.302   8.435 -0.1021  0.2871  0.4405
  779MOL0     H 5128  10.106   7.427   8.323  2.8444  1.1924 -1.4140
  779MOL0     H 5129   9.818   7.733   8.727 -0.7940  0.6941 -0.2790
  779MOL0     H 5130   9.579   7.727   8.764  0.0900  1.1283  2.4106
  779MOL0     H 5131   9.409   7.464   8.635  1.5592  0.0497 -0.0208
  779MOL0     H 5132   9.418   7.325   8.739 -1.3861  0.2953  2.3018
  779MOL0     H 5133   9.188   7.342   8.663 -0.3140  2.0047 -0.8938
  779MOL0     H 5134   9.222   7.345   8.841 -0.5304 -0.5264  0.7571
  779MOL0     H 5135   9.157   7.593   8.654 -0.3714 -1.6913 -1.2747
  779MOL0     H 5136   9.177   7.611   8.831 -3.2784 -0.7244  2.9086
  779MOL0     H 5137   8.955   7.618   8.701 -0.1371 -0.3802 -1.0539
  779MOL0     H 5138   8.960   7.446   8.691 -0.0668 -0.9590  1.2396
  779MOL0     H 5139   8.900   7.649   8.913 -2.1960 -1.3125 -0.2992
  779MOL0     H 5140   8.995   7.497   8.964  3.1961  3.2434  0.1508
  779MOL0     H 5141   8.823   7.368   8.870  0.2339 -0.0268  0.7052
  779MOL0     H 5142   8.762   7.442   8.999 -3.6212 -0.0791 -1.8921
  779MOL0     H 5143   8.705   7.585   8.729 -2.5530 -3.2617 -3.1874
  779MOL0     H 5144   8.651   7.628   8.892  0.5315  0.8914 -0.6925
  779MOL0     H 5145   8.482   7.527   8.738  3.2456  1.6084 -2.7982
  779MOL0     H 5146   8.502   7.482   8.907  1.9581 -2.9064  1.6272
  779MOL0     H 5147   9.606   7.300   8.843  1.7246  0.2892  5.8679
  779MOL0     H 5148   9.846   7.322   8.810  0.6493  1.9446  1.8171
  779MOL0     H 5149  10.200   7.672   8.754 -1.6668 -0.9974  0.7185
  779MOL0     H 5150  10.448   7.687   8.713  2.0142 -2.0027 -0.9319
  779MOL0     H 5151  10.408   7.156   9.717  2.7324  0.4149  0.0456
  779MOL0     H 5152  10.245   7.212   9.858 -1.8692 -2.5140 -3.3261
  779MOL0     H 5153  10.053   7.388  10.136  1.0714  0.1205 -2.2723
  779MOL0     H 5154   9.892   7.383  10.311  1.2425 -1.0655 -0.6496
  779MOL0     H 5155   9.576   7.638  10.380 -2.2669  0.3395  0.6989
  779MOL0     H 5156   9.485   7.586  10.243  0.8259  2.2167  0.9535
  779MOL0     H 5157   9.365   7.540  10.454 -0.8756 -2.1595  3.2276
  779MOL0     H 5158   9.509   7.454  10.512  1.8359 -2.7853 -0.5389
  779MOL0     H 5159   9.479   7.283  10.342 -0.0390  1.2156 -0.9524
  779MOL0     H 5160   9.345   7.363  10.267 -0.6836 -0.8943 -0.1800
  779MOL0     H 5161   9.227   7.367  10.497 -0.3190  1.1537 -2.0667
  779MOL0     H 5162   9.351   7.262  10.559 -0.7320 -0.3501  0.6517
  779MOL0     H 5163   9.092   6.975  10.430  0.2633  0.1348 -1.3720
  779MOL0     H 5164   9.591   7.560  10.060  0.4515  0.7522 -2.4631
  779MOL0     H 5165   9.759   7.563   9.869  2.0278 -3.7673 -2.5823
  780MOL0     O 5166   2.622   4.233   2.479 -0.4134  0.0310 -0.0528
  780MOL0     C 5167   2.733   4.270   2.492 -0.2205  0.1229 -0.2504
  780MOL0     O 5168   2.778   4.346   2.602 -0.6036  0.4489  0.9033
  780MOL0     C 5169   2.894   4.409   2.602  0.2169  0.3486 -0.1063
  780MOL0     C 5170   2.984   4.374   2.705  1.0863 -0.5620  0.6127
  780MOL0     C 5171   3.091   4.455   2.737 -0.1217  1.0924 -0.0349
  780MOL0     C 5172   3.130   4.564   2.659  0.5703 -0.5205 -0.1026
  780MOL0     O 5173   3.251   4.630   2.697 -0.2239  0.3781  0.5670
  780MOL0     C 5174   3.356   4.630   2.593  1.0501 -0.3941 -0.0975
  780MOL0     C 5175   3.375   4.763   2.523  0.1777 -0.0406 -1.0370
  780MOL0     C 5176   3.430   4.884   2.613  0.0430  0.1545  0.1633
  780MOL0     C 5177   3.581   4.864   2.637 -0.4886 -0.5642 -0.4423
  780MOL0     C 5178   3.631   4.958   2.746 -0.0985 -1.9030 -0.8633
  780MOL0     C 5179   3.774   4.922   2.780 -0.2852  0.8798 -0.2666
  780MOL0     C 5180   3.835   4.998   2.898 -0.0160  0.7941  0.7504
  780MOL0     C 5181   3.981   4.959   2.913  0.1228 -0.4858 -0.2749
  780MOL0     N 5182   4.061   4.998   3.026  0.2794  0.5307 -0.1841
  780MOL0     C 5183   4.051   4.965   3.159 -0.0683  1.0500  0.4749
  780MOL0     C 5184   4.166   5.014   3.215 -0.2248  0.3063 -0.7987
  780MOL0     C 5185   4.217   4.969   3.351 -0.7054  0.0186  0.2048
  780MOL0     C 5186   4.329   5.057   3.423 -1.0063 -0.4795 -0.5524
  780MOL0     C 5187   4.365   5.020   3.572 -0.0271 -0.2560  0.8273
  780MOL0     C 5188   4.500   5.087   3.617  0.2471  0.3670  0.3506
  780MOL0     O 5189   4.609   5.002   3.572 -0.5760  0.2211 -0.8652
  780MOL0     C 5190   4.742   5.049   3.574  0.0843 -0.4068  0.5740
  780MOL0     C 5191   4.770   5.183   3.597 -0.7032  0.9506 -0.8723
  780MOL0     C 5192   4.898   5.234   3.580 -0.3750  0.0026 -0.1938
  780MOL0     C 5193   4.909   5.381   3.614  0.0331 -0.0382 -0.1293
  780MOL0     C 5194   5.008   5.157   3.534 -0.0603 -0.4555 -0.3158
  780MOL0     C 5195   5.145   5.215   3.499  2.0953 -0.5774  0.7864
  780MOL0     O 5196   5.225   5.133   3.430 -0.2724 -0.0493 -0.4789
  780MOL0     C 5197   5.363   5.150   3.435  1.0585 -0.6851 -1.5344
  780MOL0     C 5198   5.432   5.191   3.554 -0.2227  0.3674  0.7641
  780MOL0     C 5199   5.569   5.193   3.544 -0.9469 -0.2827 -0.7764
  780MOL0     C 5200   5.631   5.168   3.419 -0.6699  0.1216 -1.2247
  780MOL0     O 5201   5.767   5.198   3.397 -0.5121 -0.0451 -0.1979
  780MOL0     C 5202   5.848   5.260   3.505  0.1193  0.7395  0.2133
  780MOL0     C 5203   5.968   5.318   3.444 -0.3373  0.6232  0.1689
  780MOL0     C 5204   5.953   5.476   3.416 -0.6830  0.3286  0.9180
  780MOL0     C 5205   6.077   5.531   3.367 -0.4349 -0.8254  0.2162
  780MOL0     C 5206   6.086   5.681   3.323  0.3460  0.0026  0.1342
  780MOL0     C 5207   6.223   5.723   3.264 -0.0489 -0.4933  0.3849
  780MOL0     C 5208   6.199   5.849   3.173  0.9692 -0.2106 -0.0587
  780MOL0     C 5209   6.324   5.917   3.134 -0.3500 -0.0277  0.5742
  780MOL0    Cl 5210   6.426   5.793   3.056  0.3419  0.1253  0.3244
  780MOL0     C 5211   5.564   5.131   3.308 -0.7445  0.3686  0.4017
  780MOL0     C 5212   5.425   5.130   3.319  0.1359 -0.2649  0.2735
  780MOL0     O 5213   5.166   5.339   3.505  0.1756  0.0027 -0.0892
  780MOL0     C 5214   4.981   5.015   3.524  0.1521  0.6444 -0.1973
  780MOL0     C 5215   4.850   4.962   3.542 -0.2892 -0.1614 -0.0928
  780MOL0     N 5216   4.234   5.091   3.116 -1.1180 -0.5115 -0.1446
  780MOL0     N 5217   4.161   5.083   3.007  0.1281 -0.2905 -0.7241
  780MOL0     C 5218   3.048   4.592   2.544  0.6786  0.3549  0.0626
  780MOL0     C 5219   2.926   4.525   2.525 -0.2999 -0.3501 -0.3567
  780MOL0     C 5220   2.823   4.223   2.395 -0.4240  0.4276 -0.8360
  780MOL0     C 5221   2.799   4.230   2.261  0.0960  0.1794  0.3227
  780MOL0     C 5222   2.880   4.155   2.167  1.0289 -0.6091 -0.2589
  780MOL0     C 5223   2.968   4.061   2.211 -0.3109  0.2005 -0.7949
  780MOL0     O 5224   3.031   3.977   2.128  0.0893  0.1990  0.4402
  780MOL0     C 5225   3.097   3.851   2.170  0.3630 -0.1654 -0.0952
  780MOL0     C 5226   3.014   3.740   2.226  1.1930 -0.3857 -0.0925
  780MOL0     C 5227   2.886   3.724   2.136  0.9757  0.2752  0.2151
  780MOL0     C 5228   2.821   3.584   2.152  0.3084 -1.1303 -0.4610
  780MOL0     C 5229   2.894   3.499   2.063 -0.8507 -0.9225 -0.1812
  780MOL0     C 5230   2.956   3.431   1.984 -0.3115 -0.1672 -0.1233
  780MOL0     C 5231   2.989   4.060   2.356 -0.6226 -0.7502 -0.1448
  780MOL0     C 5232   2.926   4.142   2.442  0.2999  0.5991 -0.0788
  780MOL0     H 5233   2.963   4.279   2.754 -0.9257 -0.5538 -0.1451
  780MOL0     H 5234   3.156   4.429   2.821 -0.0378 -0.2021 -0.4725
  780MOL0     H 5235   3.451   4.588   2.627 -0.0473 -1.5774  1.7107
  780MOL0     H 5236   3.323   4.568   2.510 -0.3938  0.7250 -0.4096
  780MOL0     H 5237   3.447   4.755   2.441  0.9200 -0.3282 -0.3697
  780MOL0     H 5238   3.287   4.795   2.467  0.7053  2.3541 -0.6104
  780MOL0     H 5239   3.414   4.982   2.567  0.2308  0.5802  0.9751
  780MOL0     H 5240   3.365   4.886   2.701 -2.3794  0.3056 -1.5319
  780MOL0     H 5241   3.613   4.762   2.661  0.6583 -0.6343 -2.1645
  780MOL0     H 5242   3.623   4.903   2.544 -1.2933  2.7659  0.4258
  780MOL0     H 5243   3.623   5.063   2.715  0.7903 -2.3434 -2.7269
  780MOL0     H 5244   3.570   4.952   2.837  0.5363  2.5528  0.0935
  780MOL0     H 5245   3.773   4.816   2.808  1.2827 -0.1871 -3.6583
  780MOL0     H 5246   3.844   4.927   2.696  3.9634  1.0836  2.9066
  780MOL0     H 5247   3.840   5.104   2.870 -0.8450  1.0447  1.4627
  780MOL0     H 5248   3.784   4.997   2.995 -0.1685 -1.2140  0.6818
  780MOL0     H 5249   4.032   4.998   2.824  2.5706  1.4247  1.8239
  780MOL0     H 5250   4.001   4.852   2.904  2.2311 -0.2343  0.7998
  780MOL0     H 5251   3.980   4.893   3.199  2.0443 -1.5164 -0.0896
  780MOL0     H 5252   4.122   4.967   3.406 -1.7594 -2.3513 -1.5534
  780MOL0     H 5253   4.241   4.863   3.345  1.8817  0.4815  0.9629
  780MOL0     H 5254   4.290   5.159   3.429  0.8394  0.1787  3.8449
  780MOL0     H 5255   4.418   5.061   3.359  1.2282  2.3585  2.4008
  780MOL0     H 5256   4.373   4.911   3.572 -2.7116 -0.6252 -2.1360
  780MOL0     H 5257   4.278   5.040   3.635 -2.0185 -0.2820 -1.7366
  780MOL0     H 5258   4.499   5.081   3.726 -1.2079 -1.0821  0.3090
  780MOL0     H 5259   4.511   5.188   3.576 -0.2321 -0.3548 -1.7191
  780MOL0     H 5260   4.696   5.251   3.637 -0.0010  1.0087  0.3906
  780MOL0     H 5261   4.887   5.436   3.522 -1.3506 -1.0326 -0.4284
  780MOL0     H 5262   4.840   5.421   3.689 -1.9298  0.3215 -2.0451
  780MOL0     H 5263   5.008   5.410   3.651  0.3771  0.9700 -1.7709
  780MOL0     H 5264   5.384   5.204   3.650 -0.6237 -0.9413  0.7646
  780MOL0     H 5265   5.622   5.230   3.631 -2.3146  0.3481 -0.1970
  780MOL0     H 5266   5.784   5.334   3.555 -2.6565 -2.1853  1.3265
  780MOL0     H 5267   5.887   5.196   3.586  3.2022  1.5500 -0.5003
  780MOL0     H 5268   6.051   5.297   3.511 -1.2569 -3.5471  0.2786
  780MOL0     H 5269   5.996   5.263   3.354  0.9825 -0.9532  1.4814
  780MOL0     H 5270   5.919   5.527   3.507 -0.2822  0.9128  0.7467
  780MOL0     H 5271   5.876   5.501   3.343 -0.8778 -0.5923  0.8059
  780MOL0     H 5272   6.159   5.514   3.438 -1.1663  0.1106  1.3090
  780MOL0     H 5273   6.086   5.473   3.275 -1.0316  1.1526 -1.1476
  780MOL0     H 5274   6.058   5.740   3.410 -2.2348  2.1588 -1.9883
  780MOL0     H 5275   6.006   5.699   3.251 -0.4918 -1.1792  0.7381
  780MOL0     H 5276   6.301   5.734   3.340  2.9785 -2.9522 -2.0610
  780MOL0     H 5277   6.264   5.642   3.202  1.4957  2.2213 -2.4331
  780MOL0     H 5278   6.124   5.909   3.225 -1.3268 -2.5700 -0.3776
  780MOL0     H 5279   6.145   5.817   3.083 -1.9053 -0.5162  1.6315
  780MOL0     H 5280   6.375   5.970   3.216 -1.2691  4.7548 -1.5663
  780MOL0     H 5281   6.316   6.002   3.065  2.2174  0.6137  0.9539
  780MOL0     H 5282   5.607   5.094   3.215  2.1178  1.5236  1.1664
  780MOL0     H 5283   5.368   5.106   3.230 -1.4640 -0.4410  1.3002
  780MOL0     H 5284   5.066   4.947   3.515 -0.8294 -0.8989  1.6292
  780MOL0     H 5285   4.831   4.857   3.526 -3.1227  0.3489 -0.6399
  780MOL0     H 5286   3.062   4.680   2.483  1.9985  0.2101  0.1198
  780MOL0     H 5287   2.860   4.558   2.445 -0.0514 -1.8808 -1.2307
  780MOL0     H 5288   2.718   4.296   2.233 -1.2763 -0.8163  1.7636
  780MOL0     H 5289   2.870   4.160   2.059 -0.4823 -1.4227 -0.1758
  780MOL0     H 5290   3.142   3.812   2.078  0.0916 -0.4843 -0.0976
  780MOL0     H 5291   3.172   3.872   2.247 -3.6070 -0.0089  4.1358
  780MOL0     H 5292   2.985   3.749   2.331 -0.4028 -0.4573 -0.5106
  780MOL0     H 5293   3.072   3.647   2.218  0.1435 -1.0978  0.4110
  780MOL0     H 5294   2.893   3.745   2.029 -0.7370  3.0737  0.5375
  780MOL0     H 5295   2.818   3.801   2.175  0.3887 -0.6007  0.9471
  780MOL0     H 5296   2.716   3.586   2.123 -0.1699 -2.1762  1.1126
  780MOL0     H 5297   2.821   3.555   2.258  2.0224 -1.9512 -0.6372
  780MOL0     H 5298   3.016   3.374   1.916 -2.4666  0.9423 -3.1592
  780MOL0     H 5299   3.071   3.999   2.392  1.2316 -1.7248 -5.1843
  780MOL0     H 5300   2.931   4.109   2.546  0.4823 -2.2329 -0.8960
  781MOL0     O 5301  11.330   9.684  10.267  0.8170  0.1719 -0.8904
  781MOL0     C 5302  11.312   9.740  10.375  0.5351  0.1177  0.4617
  781MOL0     O 5303  11.203   9.820  10.411  0.6581  0.8738 -0.4309
  781MOL0     C 5304  11.108   9.862  10.314 -0.2762 -0.0828 -0.1311
  781MOL0     C 5305  11.082   9.800  10.186 -0.3829 -0.8374 -0.3470
  781MOL0     C 5306  11.002   9.863  10.091 -0.1239 -0.6299  0.3103
  781MOL0     C 5307  10.951   9.994  10.110 -1.2828  0.4005 -0.7063
  781MOL0     O 5308  10.870  10.068  10.019 -0.7726 -0.1647 -0.1553
  781MOL0     C 5309  10.895  10.045   9.884 -0.4640 -0.0812 -0.1629
  781MOL0     C 5310  11.035  10.107   9.850 -0.4224  1.0203  1.1584
  781MOL0     C 5311  11.073  10.094   9.703  0.1218 -0.2573 -0.5229
  781MOL0     C 5312  11.218  10.150   9.701 -0.9490  0.8558  0.0410
  781MOL0     C 5313  11.271  10.125   9.560 -0.2986 -0.6014  0.2102
  781MOL0     C 5314  11.417  10.164   9.537 -0.6262 -0.1035 -0.5520
  781MOL0     C 5315  11.518  10.058   9.589  0.2510  0.1175  0.1829
  781MOL0     C 5316  11.649  10.118   9.559  0.3093  0.0334  0.0560
  781MOL0     N 5317  11.737  10.050   9.656  0.3422 -0.0560 -0.0913
  781MOL0     C 5318  11.738  10.072   9.793  0.5875  0.1771  0.6934
  781MOL0     C 5319  11.853  10.016   9.840 -0.1884  0.5136 -0.5591
  781MOL0     C 5320  11.913  10.032   9.982 -0.0228 -0.0456  0.1387
  781MOL0     C 5321  12.058   9.986   9.979  0.2861 -0.5923  0.1004
  781MOL0     C 5322  12.147  10.098   9.910  0.0707  1.0423  0.4860
  781MOL0     C 5323  12.295  10.079   9.934  0.7369 -0.5806  0.0924
  781MOL0     O 5324  12.378  10.193   9.888 -0.7831 -0.6347  0.4448
  781MOL0     C 5325  12.412  10.205   9.757 -0.7888  0.7831  0.1042
  781MOL0     C 5326  12.435  10.103   9.668 -0.5414 -0.9758  0.4464
  781MOL0     C 5327  12.481  10.126   9.539 -1.0077 -0.4270 -0.3936
  781MOL0     C 5328  12.479  10.014   9.439  0.5184  0.8234 -0.4105
  781MOL0     C 5329  12.523  10.255   9.497 -0.1806 -0.4141  0.5854
  781MOL0     C 5330  12.595  10.291   9.369 -0.1002  0.4384  0.3895
  781MOL0     O 5331  12.621  10.424   9.334  0.4884 -0.1648  0.2565
  781MOL0     C 5332  12.724  10.450   9.242 -0.0559 -0.2120 -0.6232
  781MOL0     C 5333  12.852  10.406   9.271 -0.2891 -0.3357 -0.6492
  781MOL0     C 5334  12.965  10.426   9.190 -0.1627 -1.0991  0.2749
  781MOL0     C 5335  12.945  10.513   9.080 -0.4335  0.6245  0.1206
  781MOL0     O 5336  13.049  10.535   8.985  0.8560  0.8139 -0.0200
  781MOL0     C 5337  13.183  10.509   8.999 -0.2310  0.4418 -0.3572
  781MOL0     C 5338  13.223  10.391   8.914  0.2771  0.0772  0.4114
  781MOL0     C 5339  13.366  10.406   8.874 -0.0971 -0.1291  1.0944
  781MOL0     C 5340  13.394  10.293   8.761  0.2032 -0.4809  0.5652
  781MOL0     C 5341  13.537  10.299   8.722 -0.8500 -1.2330  0.4311
  781MOL0     C 5342  13.560  10.426   8.642  0.3853 -0.0773 -0.3131
  781MOL0     C 5343  13.703  10.430   8.579 -1.0157  0.1036  0.2241
  781MOL0     C 5344  13.728  10.340   8.460 -0.4993 -0.3698  0.4892
  781MOL0    Cl 5345  13.908  10.339   8.421 -0.0176  0.0167 -0.2407
  781MOL0     C 5346  12.820  10.558   9.042  0.2334  0.0247 -0.5219
  781MOL0     C 5347  12.708  10.528   9.123 -0.4443  0.1035  0.8447
  781MOL0     O 5348  12.612  10.196   9.288  0.3329 -0.0436 -0.4235
  781MOL0     C 5349  12.501  10.363   9.586 -0.6473 -0.5157 -0.7072
  781MOL0     C 5350  12.442  10.333   9.709  0.4245  0.0454  1.0622
  781MOL0     N 5351  11.906   9.939   9.741 -0.2033 -0.5903  0.1301
  781MOL0     N 5352  11.845   9.968   9.631  1.0493  0.4438  0.0833
  781MOL0     C 5353  10.978  10.055  10.232  0.1095  0.0795 -0.4603
  781MOL0     C 5354  11.048   9.986  10.332  0.0321  0.6913  0.1721
  781MOL0     C 5355  11.416   9.703  10.473  0.1050  0.4814  0.2642
  781MOL0     C 5356  11.393   9.740  10.602 -0.4537  0.0265 -0.3455
  781MOL0     C 5357  11.492   9.733  10.700 -0.0756  0.6994  0.3068
  781MOL0     C 5358  11.627   9.679  10.666  0.6906  0.0734 -0.2274
  781MOL0     O 5359  11.735   9.663  10.750  0.1574 -0.1654 -0.0029
  781MOL0     C 5360  11.730   9.746  10.871 -0.2767  0.5564 -0.0996
  781MOL0     C 5361  11.865   9.755  10.941 -0.3075 -0.1160 -0.1861
  781MOL0     C 5362  11.982   9.787  10.846  0.7068  0.0003 -1.5928
  781MOL0     C 5363  12.093   9.674  10.842 -0.0924  0.4087 -0.4253
  781MOL0     C 5364  12.136   9.627  10.973 -0.4737 -0.3115  0.9087
  781MOL0     C 5365  12.184   9.597  11.077  0.8286  0.4848  0.2241
  781MOL0     C 5366  11.643   9.634  10.529 -0.2036 -0.3688 -0.5992
  781MOL0     C 5367  11.535   9.642  10.439 -0.5245  0.3943 -0.0027
  781MOL0     H 5368  11.123   9.704  10.157  0.6534 -1.7122  3.4161
  781MOL0     H 5369  10.968   9.806  10.006 -1.2874  0.4181  0.0337
  781MOL0     H 5370  10.871   9.941   9.858 -0.8764  0.7867 -3.6559
  781MOL0     H 5371  10.816  10.101   9.834 -1.2212  1.9516  3.0233
  781MOL0     H 5372  11.038  10.214   9.869  1.0525  0.8984  1.7095
  781MOL0     H 5373  11.116  10.057   9.904 -0.2446 -2.4482 -1.8912
  781MOL0     H 5374  11.063   9.988   9.674 -2.0419  0.2661 -1.9634
  781MOL0     H 5375  11.000  10.141   9.637 -0.6638 -0.4010  0.2265
  781MOL0     H 5376  11.217  10.258   9.719 -2.0828  0.9039 -0.2730
  781MOL0     H 5377  11.280  10.095   9.773  1.0155  0.3943 -1.8762
  781MOL0     H 5378  11.248  10.024   9.525 -2.4826  0.0098 -0.2931
  781MOL0     H 5379  11.226  10.199   9.493  4.2307  1.2642 -1.1565
  781MOL0     H 5380  11.444  10.185   9.432 -0.3971 -1.3580 -0.7568
  781MOL0     H 5381  11.432  10.258   9.592 -0.7560 -0.0748 -0.5665
  781MOL0     H 5382  11.505  10.047   9.697 -0.2419  1.6002  0.3013
  781MOL0     H 5383  11.504   9.963   9.538 -1.6638 -0.7721  2.1931
  781MOL0     H 5384  11.658  10.226   9.574  0.8572 -0.1704  1.2862
  781MOL0     H 5385  11.681  10.094   9.458  0.3811 -0.2489  0.1438
  781MOL0     H 5386  11.660  10.133   9.837 -0.3151 -2.0100  2.2968
  781MOL0     H 5387  11.894  10.134  10.018  0.3864 -0.4671  1.6208
  781MOL0     H 5388  11.855   9.971  10.052  1.7814 -1.4067  0.5278
  781MOL0     H 5389  12.071   9.892   9.926 -0.8345 -0.2446 -0.8157
  781MOL0     H 5390  12.088   9.981  10.085 -1.2529  0.1257  0.5990
  781MOL0     H 5391  12.119  10.194   9.952  0.2349  0.0870  2.9565
  781MOL0     H 5392  12.133  10.092   9.801  1.3123  0.7943  0.3133
  781MOL0     H 5393  12.331   9.983   9.897 -0.1177 -1.1007  0.5922
  781MOL0     H 5394  12.306  10.074  10.042 -1.2962  1.4406  0.4686
  781MOL0     H 5395  12.400  10.003   9.693 -2.6964 -0.8328 -1.6308
  781MOL0     H 5396  12.450   9.929   9.502 -1.9431  1.0127 -1.1856
  781MOL0     H 5397  12.406  10.031   9.360 -1.0033  0.0466  0.7596
  781MOL0     H 5398  12.574   9.992   9.390 -0.2299  1.1187 -2.0780
  781MOL0     H 5399  12.876  10.339   9.352  1.9038  0.6856 -0.3844
  781MOL0     H 5400  13.056  10.373   9.218  2.1471  2.0094 -0.8713
  781MOL0     H 5401  13.240  10.597   8.969  0.2970 -0.4694 -2.1595
  781MOL0     H 5402  13.210  10.493   9.104  4.2040  1.5504 -1.0915
  781MOL0     H 5403  13.205  10.292   8.956 -0.0037 -0.0583 -0.0202
  781MOL0     H 5404  13.155  10.402   8.829 -0.4637 -1.8869  0.6902
  781MOL0     H 5405  13.435  10.395   8.959 -1.6053  2.3560  2.7651
  781MOL0     H 5406  13.380  10.504   8.827  2.1834 -0.6903  0.4560
  781MOL0     H 5407  13.370  10.193   8.799 -1.9956  0.4189  1.7564
  781MOL0     H 5408  13.330  10.318   8.676  1.4186  2.8159  0.4782
  781MOL0     H 5409  13.559  10.212   8.659  1.8677  0.0777 -0.6366
  781MOL0     H 5410  13.612  10.294   8.802 -0.0822  1.3055 -0.0480
  781MOL0     H 5411  13.484  10.440   8.565  0.4984 -2.2207 -0.8793
  781MOL0     H 5412  13.550  10.511   8.711 -1.9417  0.1567 -0.8464
  781MOL0     H 5413  13.775  10.406   8.658  0.8638 -0.1902 -1.4830
  781MOL0     H 5414  13.721  10.534   8.551 -2.7210  0.3940  0.0747
  781MOL0     H 5415  13.660  10.360   8.378 -2.1052 -3.5710  0.8830
  781MOL0     H 5416  13.706  10.241   8.500  1.4728 -1.6675 -1.4157
  781MOL0     H 5417  12.793  10.623   8.960 -3.7394 -2.6462 -1.5850
  781MOL0     H 5418  12.611  10.555   9.083 -1.3460 -0.7110  2.3877
  781MOL0     H 5419  12.519  10.469   9.566 -0.9174 -0.7875 -2.6315
  781MOL0     H 5420  12.429  10.418   9.776  0.5375 -0.2874  1.5109
  781MOL0     H 5421  10.919  10.145  10.245  0.5845  0.2826  0.3344
  781MOL0     H 5422  11.061  10.038  10.426  1.1037  3.3851 -1.3426
  781MOL0     H 5423  11.296   9.778  10.632  1.2946  2.2945  3.1609
  781MOL0     H 5424  11.468   9.756  10.803  1.0371 -0.6539  0.9053
  781MOL0     H 5425  11.697   9.845  10.838  0.1728 -0.6924 -4.9770
  781MOL0     H 5426  11.662   9.702  10.945 -1.6993  3.8178  0.6855
  781MOL0     H 5427  11.880   9.676  11.015  1.3196  0.0685 -0.2893
  781MOL0     H 5428  11.862   9.829  11.022  0.8539 -1.0882  0.7632
  781MOL0     H 5429  12.038   9.878  10.868 -0.1491 -0.1236  1.6871
  781MOL0     H 5430  11.944   9.810  10.746 -1.5854  0.8503 -0.6055
  781MOL0     H 5431  12.176   9.718  10.787 -0.1589  0.7174 -0.2795
  781MOL0     H 5432  12.042   9.596  10.784 -1.0544  0.5715  0.1765
  781MOL0     H 5433  12.211   9.571  11.177 -0.9966 -1.2958  0.3059
  781MOL0     H 5434  11.737   9.588  10.501  0.8796  0.5492  1.2769
  781MOL0     H 5435  11.554   9.604  10.339  0.7591 -1.7682  0.9815
  782MOL0     O 5436   9.734   1.327   7.808  1.0155 -0.3321 -0.8154
  782MOL0     C 5437   9.796   1.430   7.845  1.1437  0.5492  0.1712
  782MOL0     O 5438   9.748   1.556   7.842  0.0389 -0.1302 -0.4922
  782MOL0     C 5439   9.623   1.565   7.785  0.1622 -0.5195 -0.7114
  782MOL0     C 5440   9.601   1.641   7.666 -0.2342 -0.3188  0.2910
  782MOL0     C 5441   9.479   1.656   7.619 -0.0615 -0.7349 -0.1970
  782MOL0     C 5442   9.367   1.610   7.681  0.6648  0.0358 -0.4163
  782MOL0     O 5443   9.235   1.627   7.637 -0.8006 -0.2110 -0.0635
  782MOL0     C 5444   9.228   1.591   7.494 -0.3763 -0.1022 -0.6091
  782MOL0     C 5445   9.092   1.532   7.462 -1.1012 -0.7321  0.1986
  782MOL0     C 5446   8.968   1.625   7.464 -1.0790  0.1047  0.0633
  782MOL0     C 5447   8.842   1.558   7.504  0.8103  0.1996  1.1623
  782MOL0     C 5448   8.722   1.652   7.508 -0.3141 -0.5802  0.2845
  782MOL0     C 5449   8.600   1.596   7.584 -0.2249  0.9873  0.1686
  782MOL0     C 5450   8.464   1.657   7.558  0.0826 -0.5220 -0.5502
  782MOL0     C 5451   8.455   1.804   7.603  0.2520 -0.0453 -0.5895
  782MOL0     N 5452   8.318   1.864   7.613 -0.3095 -0.1393 -0.1118
  782MOL0     C 5453   8.231   1.885   7.505 -0.2795 -0.5023  0.3659
  782MOL0     C 5454   8.120   1.937   7.553 -0.4864  0.6131 -0.8751
  782MOL0     C 5455   8.002   1.981   7.478 -0.5898  0.9949  0.2984
  782MOL0     C 5456   7.925   1.869   7.403  1.4000  0.4322 -0.4204
  782MOL0     C 5457   7.865   1.760   7.497  0.8834  0.6080 -0.7090
  782MOL0     C 5458   7.942   1.623   7.510 -0.3982 -0.7933 -0.1841
  782MOL0     O 5459   7.964   1.584   7.376  0.2443 -0.2143 -0.0194
  782MOL0     C 5460   8.012   1.462   7.345 -0.8006  1.0356 -0.0815
  782MOL0     C 5461   8.124   1.406   7.419 -0.6442 -0.8971 -0.1016
  782MOL0     C 5462   8.172   1.280   7.400 -0.6715  0.7593 -0.2119
  782MOL0     C 5463   8.257   1.219   7.509 -0.4087  0.5255 -0.3272
  782MOL0     C 5464   8.117   1.199   7.294  0.6985  0.1476  0.3163
  782MOL0     C 5465   8.137   1.055   7.275  0.3241  0.1632  0.5546
  782MOL0     O 5466   8.159   1.017   7.150  0.6258 -0.6295  0.4186
  782MOL0     C 5467   8.184   0.884   7.126  0.5845 -0.3545  0.4179
  782MOL0     C 5468   8.311   0.838   7.097 -0.1778  0.1832  0.9458
  782MOL0     C 5469   8.331   0.702   7.082 -0.0382  0.0200 -0.1628
  782MOL0     C 5470   8.223   0.614   7.066  0.5083  0.3902 -0.9291
  782MOL0     O 5471   8.240   0.484   7.055  0.1471 -0.0224  0.2317
  782MOL0     C 5472   8.360   0.415   7.052 -0.6386 -0.3990 -0.1112
  782MOL0     C 5473   8.333   0.269   7.081 -0.0943  0.1201 -0.2022
  782MOL0     C 5474   8.285   0.248   7.222  0.3232  0.6330  0.3697
  782MOL0     C 5475   8.301   0.095   7.253 -0.3028  0.7687  0.4554
  782MOL0     C 5476   8.246   0.079   7.393 -1.0644 -0.0450  0.4990
  782MOL0     C 5477   8.094   0.066   7.399  0.1819  0.1199 -0.3723
  782MOL0     C 5478   8.048  -0.008   7.523  0.3440 -0.1744 -1.5357
  782MOL0     C 5479   7.895   0.004   7.542  0.2420 -0.9633 -0.0317
  782MOL0    Cl 5480   7.868   0.167   7.608  0.4599 -0.4125  0.4350
  782MOL0     C 5481   8.091   0.664   7.075 -0.1338 -0.3767 -0.1159
  782MOL0     C 5482   8.075   0.795   7.109  0.5973 -1.0156  0.0703
  782MOL0     O 5483   8.132   0.985   7.373  0.4342 -0.1664  0.5049
  782MOL0     C 5484   8.022   1.267   7.212  0.7236  1.0848 -0.4642
  782MOL0     C 5485   7.977   1.400   7.230 -0.3105 -0.1950 -0.8319
  782MOL0     N 5486   8.132   1.959   7.694  0.0820  0.0810 -0.1239
  782MOL0     N 5487   8.254   1.916   7.728 -0.6952 -0.2241  0.8634
  782MOL0     C 5488   9.393   1.520   7.779 -0.3754  0.3827 -0.5929
  782MOL0     C 5489   9.515   1.501   7.843  0.0432  0.8539 -0.1289
  782MOL0     C 5490   9.938   1.412   7.874  0.7833 -0.5997  0.8839
  782MOL0     C 5491  10.035   1.501   7.834 -0.0608  0.1602 -0.1048
  782MOL0     C 5492  10.169   1.477   7.858  0.1568 -0.3236  1.4577
  782MOL0     C 5493  10.215   1.355   7.903 -0.2414 -0.1904 -0.3746
  782MOL0     O 5494  10.352   1.338   7.913 -0.1302 -0.2830 -0.0610
  782MOL0     C 5495  10.407   1.207   7.932  0.8906 -0.5884  0.4683
  782MOL0     C 5496  10.550   1.227   7.901 -0.1265  0.1469  0.2291
  782MOL0     C 5497  10.583   1.256   7.757 -0.2191 -0.3344  0.6652
  782MOL0     C 5498  10.570   1.405   7.720 -0.2727 -0.0511 -0.4958
  782MOL0     C 5499  10.606   1.430   7.578  0.0417  0.3627 -0.2028
  782MOL0     C 5500  10.638   1.453   7.465 -0.1360 -0.4105 -0.2482
  782MOL0     C 5501  10.125   1.253   7.933 -0.1658 -1.0540  0.4597
  782MOL0     C 5502   9.984   1.283   7.917  0.2569  0.5914 -0.6495
  782MOL0     H 5503   9.692   1.689   7.631  1.9146 -1.0363  4.2794
  782MOL0     H 5504   9.461   1.723   7.536 -2.0761 -0.3797  0.4729
  782MOL0     H 5505   9.256   1.671   7.425  1.0291 -0.2312 -0.2268
  782MOL0     H 5506   9.298   1.508   7.480 -2.5927 -2.8853  2.9552
  782MOL0     H 5507   9.091   1.479   7.366 -1.8998  0.1828 -0.3169
  782MOL0     H 5508   9.066   1.446   7.524 -1.5833 -0.9618 -0.2996
  782MOL0     H 5509   8.992   1.701   7.539 -2.1356  1.7850 -1.2139
  782MOL0     H 5510   8.959   1.673   7.367 -1.6354  1.6559  0.8432
  782MOL0     H 5511   8.812   1.479   7.435 -0.4243  2.9578 -1.7133
  782MOL0     H 5512   8.846   1.519   7.607  0.9070  0.7902  1.3847
  782MOL0     H 5513   8.760   1.748   7.544  0.6992 -0.8019 -0.1532
  782MOL0     H 5514   8.683   1.663   7.406 -1.5599 -0.0990  0.7982
  782MOL0     H 5515   8.584   1.490   7.564 -2.3583  0.9290  1.7475
  782MOL0     H 5516   8.617   1.590   7.692 -1.6584 -1.2394  0.3430
  782MOL0     H 5517   8.463   1.654   7.448  1.3572  0.3837 -0.6031
  782MOL0     H 5518   8.382   1.602   7.605  0.2427 -1.8263 -1.7528
  782MOL0     H 5519   8.511   1.857   7.525  1.8550  1.0642  1.2322
  782MOL0     H 5520   8.490   1.814   7.706 -3.6621  1.5298  0.7403
  782MOL0     H 5521   8.235   1.853   7.402 -0.7314  0.7889 -0.0762
  782MOL0     H 5522   7.939   2.030   7.553 -3.0930  0.2151 -1.1785
  782MOL0     H 5523   8.039   2.054   7.405  2.6622 -1.2939 -0.5399
  782MOL0     H 5524   7.982   1.813   7.329 -1.2605 -2.1530 -0.7062
  782MOL0     H 5525   7.849   1.920   7.344  1.7379  2.9258  1.1815
  782MOL0     H 5526   7.770   1.716   7.466  2.5755 -5.1082  0.9395
  782MOL0     H 5527   7.853   1.808   7.595 -2.3692 -0.2209 -0.6053
  782MOL0     H 5528   7.883   1.552   7.570 -0.1832  1.3143  2.7538
  782MOL0     H 5529   8.033   1.632   7.570  0.4673 -2.3409 -1.1930
  782MOL0     H 5530   8.153   1.460   7.508 -2.6918  2.3713 -1.2025
  782MOL0     H 5531   8.296   1.119   7.487 -0.9130  0.1338  0.4669
  782MOL0     H 5532   8.344   1.283   7.519  1.4515 -2.0082  0.9053
  782MOL0     H 5533   8.197   1.216   7.601  0.5510 -0.5022  0.2961
  782MOL0     H 5534   8.391   0.912   7.089 -2.7368  3.0404 -0.0351
  782MOL0     H 5535   8.435   0.670   7.078  0.6042  1.6659  1.8688
  782MOL0     H 5536   8.405   0.433   6.954  0.3701 -0.9793  0.2275
  782MOL0     H 5537   8.432   0.446   7.129 -0.9740 -0.4644  0.2363
  782MOL0     H 5538   8.259   0.234   7.009 -0.5887 -1.2403  0.9222
  782MOL0     H 5539   8.418   0.202   7.064 -1.7738 -2.7689  1.8235
  782MOL0     H 5540   8.180   0.278   7.224 -0.4961 -2.0228  0.9287
  782MOL0     H 5541   8.341   0.313   7.290  0.2410 -0.3784  1.4468
  782MOL0     H 5542   8.244   0.035   7.181 -1.1577  1.4718  0.5327
  782MOL0     H 5543   8.408   0.072   7.252 -0.1149  1.6301  0.0270
  782MOL0     H 5544   8.279   0.161   7.457  1.0515 -0.4251 -0.0303
  782MOL0     H 5545   8.291  -0.014   7.429  2.7833  0.0328 -3.2791
  782MOL0     H 5546   8.038   0.159   7.386 -0.9873  0.2825  4.0548
  782MOL0     H 5547   8.058   0.007   7.315  0.5323 -0.6128 -0.0150
  782MOL0     H 5548   8.106   0.038   7.604  0.7580  3.5181 -3.7093
  782MOL0     H 5549   8.061  -0.115   7.502 -2.4224 -1.0615  0.6843
  782MOL0     H 5550   7.862  -0.068   7.618  1.1427 -1.8724 -0.4795
  782MOL0     H 5551   7.835  -0.016   7.454  1.5022  2.4345 -1.8272
  782MOL0     H 5552   8.003   0.600   7.077  0.4766 -1.3007 -1.4977
  782MOL0     H 5553   7.976   0.834   7.126  0.2275 -1.3758 -1.1395
  782MOL0     H 5554   7.988   1.215   7.123 -1.0479  3.0065 -0.9791
  782MOL0     H 5555   7.906   1.440   7.158 -1.5783 -1.0307 -0.0870
  782MOL0     H 5556   9.310   1.465   7.823  0.6216 -0.4568  0.2812
  782MOL0     H 5557   9.505   1.440   7.932 -2.1623  0.7141 -0.4290
  782MOL0     H 5558   9.996   1.590   7.785  1.3620  0.7792 -0.1483
  782MOL0     H 5559  10.240   1.549   7.820  2.2077 -3.1613 -0.4540
  782MOL0     H 5560  10.394   1.185   8.038  0.4294  2.7175  1.1965
  782MOL0     H 5561  10.341   1.129   7.892 -2.3115  2.1560 -0.0350
  782MOL0     H 5562  10.602   1.134   7.927 -0.2133 -0.5674 -1.9408
  782MOL0     H 5563  10.592   1.301   7.969 -3.8262  1.0999  1.7126
  782MOL0     H 5564  10.518   1.196   7.693 -0.0309 -2.0663  2.0218
  782MOL0     H 5565  10.679   1.214   7.728 -1.9585 -3.5920 -0.9393
  782MOL0     H 5566  10.641   1.466   7.776  0.4092  1.4979 -2.8736
  782MOL0     H 5567  10.469   1.444   7.737  0.5020  2.4831 -1.1451
  782MOL0     H 5568  10.677   1.469   7.367 -1.7376  0.9036 -0.7030
  782MOL0     H 5569  10.157   1.158   7.976 -1.1011 -2.3245 -1.5173
  782MOL0     H 5570   9.905   1.214   7.944  0.0232  1.4227  0.9256
  783MOL0     O 5571   5.394   0.721   9.509 -0.1478  0.3254 -0.2832
  783MOL0     C 5572   5.440   0.822   9.564  0.6966 -1.0123  0.1727
  783MOL0     O 5573   5.362   0.922   9.622 -0.3163 -0.2150  0.2744
  783MOL0     C 5574   5.227   0.895   9.636 -0.4606  0.5570 -0.6581
  783MOL0     C 5575   5.183   0.961   9.751  0.7565  1.1055  0.7511
  783MOL0     C 5576   5.046   0.954   9.794 -0.3141 -0.0583  0.2597
  783MOL0     C 5577   4.963   0.867   9.733 -0.5025 -1.3133  0.3811
  783MOL0     O 5578   4.838   0.844   9.779  1.0419 -0.1374 -0.3118
  783MOL0     C 5579   4.742   0.899   9.690 -0.4586 -0.3901 -0.1471
  783MOL0     C 5580   4.603   0.922   9.748  0.1358 -0.5648  0.5024
  783MOL0     C 5581   4.492   0.969   9.648  0.7721  0.3846 -0.0529
  783MOL0     C 5582   4.424   0.850   9.590  0.5055 -0.1309  0.8226
  783MOL0     C 5583   4.283   0.892   9.532 -0.9317  0.1534  0.1638
  783MOL0     C 5584   4.220   0.780   9.443 -0.0386  0.3557 -0.2699
  783MOL0     C 5585   4.139   0.696   9.539 -0.2357 -0.1677  1.1519
  783MOL0     C 5586   4.015   0.752   9.602 -0.1561  0.1997 -1.0390
  783MOL0     N 5587   3.923   0.649   9.666  1.2141 -0.1441 -0.1772
  783MOL0     C 5588   3.854   0.670   9.784  0.5423  0.2087 -0.1080
  783MOL0     C 5589   3.787   0.557   9.812 -0.2684  0.3368 -0.4946
  783MOL0     C 5590   3.684   0.527   9.921 -0.5330  0.0230  0.5674
  783MOL0     C 5591   3.619   0.652   9.985 -0.2639  0.9333 -0.7932
  783MOL0     C 5592   3.518   0.614  10.093 -0.0324 -0.1128 -0.2192
  783MOL0     C 5593   3.404   0.722  10.097 -0.6594  0.7784 -0.6770
  783MOL0     O 5594   3.315   0.687  10.200 -0.3391 -0.3758  0.3710
  783MOL0     C 5595   3.172   0.691  10.177 -1.0648  0.0000  0.0261
  783MOL0     C 5596   3.093   0.612  10.256  0.3352  0.3191  0.8093
  783MOL0     C 5597   2.961   0.596  10.223 -1.2024  0.8896  0.3349
  783MOL0     C 5598   2.887   0.509  10.328 -0.0727 -0.6715 -0.4446
  783MOL0     C 5599   2.901   0.661  10.108 -0.2519 -0.0866  0.1776
  783MOL0     C 5600   2.761   0.637  10.063 -0.2103 -0.7093 -0.4535
  783MOL0     O 5601   2.727   0.690   9.946  0.7159 -0.0057 -0.1576
  783MOL0     C 5602   2.620   0.642   9.882 -0.5794  0.6137  0.2000
  783MOL0     C 5603   2.490   0.618   9.932 -0.7097 -0.3740 -0.4569
  783MOL0     C 5604   2.400   0.569   9.847  0.5801 -0.4552  0.6583
  783MOL0     C 5605   2.427   0.537   9.723  0.6768  0.0036  0.9941
  783MOL0     O 5606   2.314   0.491   9.654 -0.3843  0.1973  0.4346
  783MOL0     C 5607   2.303   0.529   9.514 -0.6195  0.6836 -0.1857
  783MOL0     C 5608   2.170   0.474   9.462 -0.6888 -0.7844 -0.8150
  783MOL0     C 5609   2.175   0.320   9.457  0.4782 -0.2240 -0.2410
  783MOL0     C 5610   2.047   0.262   9.391  0.6605 -0.7213 -0.1554
  783MOL0     C 5611   2.070   0.121   9.330  0.3582 -0.7300 -0.3989
  783MOL0     C 5612   2.072   0.027   9.447  0.2374  0.8470  0.3575
  783MOL0     C 5613   2.079  -0.116   9.391  0.2222  0.4240  0.0029
  783MOL0     C 5614   1.946  -0.181   9.356 -0.7532 -0.0044 -0.0682
  783MOL0    Cl 5615   1.954  -0.355   9.349 -0.4093 -0.0253  0.4321
  783MOL0     C 5616   2.550   0.538   9.661  0.4599 -0.3427 -0.1081
  783MOL0     C 5617   2.654   0.589   9.746  0.3088  1.3340 -0.7469
  783MOL0     O 5618   2.697   0.542  10.115  0.3779 -0.2116 -1.1499
  783MOL0     C 5619   2.980   0.756  10.044  0.2930 -0.1530  0.1656
  783MOL0     C 5620   3.118   0.781  10.081  0.4360  0.5236  0.1428
  783MOL0     N 5621   3.821   0.469   9.703  0.4828 -1.1489  0.0321
  783MOL0     N 5622   3.893   0.532   9.612  0.3841  0.2285 -0.6424
  783MOL0     C 5623   5.008   0.796   9.617  0.5565  0.0309  1.1721
  783MOL0     C 5624   5.131   0.819   9.563  0.1663  0.3361  0.0396
  783MOL0     C 5625   5.586   0.836   9.576  0.0227 -0.5610 -0.7094
  783MOL0     C 5626   5.671   0.729   9.577  0.6975 -0.1131 -0.1551
  783MOL0     C 5627   5.810   0.732   9.589  0.8370 -0.0558 -0.7866
  783MOL0     C 5628   5.872   0.854   9.606 -0.3493 -0.3660 -0.5506
  783MOL0     O 5629   6.006   0.878   9.603  0.1810 -0.0170 -0.9548
  783MOL0     C 5630   6.095   0.761   9.586  0.6595  0.5309 -0.6216
  783MOL0     C 5631   6.231   0.815   9.622  0.1443  0.9444  0.4069
  783MOL0     C 5632   6.334   0.733   9.545  0.7787  0.3557 -0.0239
  783MOL0     C 5633   6.470   0.782   9.591 -0.4883  0.3638 -0.4608
  783MOL0     C 5634   6.587   0.756   9.501 -0.2467  0.4950  0.1412
  783MOL0     C 5635   6.673   0.712   9.436 -0.1077 -0.5086 -0.0118
  783MOL0     C 5636   5.791   0.968   9.639  0.2015  0.1081 -0.2099
  783MOL0     C 5637   5.647   0.958   9.619 -0.5327  0.2497 -0.3566
  783MOL0     H 5638   5.253   1.031   9.795  2.5759 -1.6225  2.4299
  783MOL0     H 5639   5.011   1.028   9.866 -1.1796  1.3457 -1.5221
  783MOL0     H 5640   4.774   0.996   9.651 -1.9410  0.4033  0.5224
  783MOL0     H 5641   4.723   0.832   9.606 -1.3086 -2.2526  1.4491
  783MOL0     H 5642   4.573   0.822   9.783 -1.5080 -1.3542 -2.7219
  783MOL0     H 5643   4.598   0.988   9.835 -2.2277 -1.0008  0.7907
  783MOL0     H 5644   4.414   1.018   9.707  0.3712 -2.4013  1.9556
  783MOL0     H 5645   4.524   1.026   9.560  1.8487 -1.3331 -0.8310
  783MOL0     H 5646   4.489   0.806   9.513  0.2159 -3.1101  2.1620
  783MOL0     H 5647   4.399   0.775   9.665 -1.5365 -2.6195 -2.0868
  783MOL0     H 5648   4.219   0.938   9.609 -1.7906  1.0179 -1.0277
  783MOL0     H 5649   4.291   0.973   9.459  2.0280 -0.6572 -0.5217
  783MOL0     H 5650   4.156   0.809   9.359 -1.8878 -1.4683  0.4361
  783MOL0     H 5651   4.304   0.724   9.399  0.0624 -2.5867  3.2117
  783MOL0     H 5652   4.100   0.610   9.484 -0.9795 -0.4744  2.1286
  783MOL0     H 5653   4.208   0.650   9.610 -0.5031 -2.0567  0.2376
  783MOL0     H 5654   3.950   0.807   9.534 -0.2166  1.6508  0.1498
  783MOL0     H 5655   4.043   0.826   9.678 -1.2537 -0.3735 -0.0310
  783MOL0     H 5656   3.856   0.768   9.831 -0.5214  2.3121 -4.0498
  783MOL0     H 5657   3.604   0.464   9.882  1.4751 -2.9052  0.8802
  783MOL0     H 5658   3.739   0.464   9.991  0.5102  0.5334  0.2358
  783MOL0     H 5659   3.572   0.702   9.900  0.5320  1.6542 -0.8211
  783MOL0     H 5660   3.692   0.715  10.037 -2.6808  2.4539  0.9823
  783MOL0     H 5661   3.565   0.600  10.191 -1.5449  2.9753  1.0743
  783MOL0     H 5662   3.481   0.513  10.072  3.3048 -1.4019 -0.5568
  783MOL0     H 5663   3.369   0.734   9.994 -0.1807 -0.0113 -0.9388
  783MOL0     H 5664   3.448   0.820  10.117 -2.3815  1.0897  2.0689
  783MOL0     H 5665   3.126   0.560  10.346  1.2992 -0.9538 -0.2302
  783MOL0     H 5666   2.849   0.410  10.299  1.4937 -0.9372 -1.7121
  783MOL0     H 5667   2.945   0.490  10.418 -1.4800 -1.5991  0.3124
  783MOL0     H 5668   2.811   0.574  10.373  1.3274 -0.3390  1.5621
  783MOL0     H 5669   2.459   0.636  10.034 -2.6448 -0.3747 -1.0162
  783MOL0     H 5670   2.301   0.545   9.887  0.4926 -2.4345 -0.5577
  783MOL0     H 5671   2.322   0.636   9.504  0.0460  0.5937  0.0313
  783MOL0     H 5672   2.380   0.486   9.449  0.7862  0.7635  1.3535
  783MOL0     H 5673   2.094   0.513   9.530 -0.7109  0.4256 -1.5083
  783MOL0     H 5674   2.155   0.520   9.364  1.8796 -0.0481 -0.9467
  783MOL0     H 5675   2.161   0.283   9.559 -0.3062  1.6788  0.3977
  783MOL0     H 5676   2.261   0.275   9.406 -1.0314 -2.6722 -0.7908
  783MOL0     H 5677   1.961   0.264   9.458  0.3017  0.6829 -0.6260
  783MOL0     H 5678   2.019   0.333   9.313 -1.4376  0.6543  1.7467
  783MOL0     H 5679   2.165   0.103   9.278  1.0492  0.3942  0.4118
  783MOL0     H 5680   1.986   0.109   9.261 -0.5919  1.9380  0.1798
  783MOL0     H 5681   2.166   0.039   9.502  1.7217 -3.4771 -0.7845
  783MOL0     H 5682   1.977   0.035   9.500 -0.2527 -2.2679  0.1679
  783MOL0     H 5683   2.122  -0.170   9.476 -1.2682 -2.7592 -1.0896
  783MOL0     H 5684   2.148  -0.130   9.308 -1.3229 -0.4131 -1.1824
  783MOL0     H 5685   1.913  -0.153   9.255  1.0711  0.1390 -0.6618
  783MOL0     H 5686   1.871  -0.155   9.431  1.0575 -0.6162  2.0303
  783MOL0     H 5687   2.575   0.493   9.566 -0.0699 -0.3708 -0.2363
  783MOL0     H 5688   2.759   0.583   9.718  0.5601  1.1912  0.1818
  783MOL0     H 5689   2.946   0.819   9.962  0.6373 -0.5601 -0.2949
  783MOL0     H 5690   3.174   0.852  10.022 -2.4091  0.8393 -2.4500
  783MOL0     H 5691   4.946   0.719   9.572 -0.1097  1.8244 -1.1836
  783MOL0     H 5692   5.152   0.771   9.468 -1.1375  0.2377 -0.2221
  783MOL0     H 5693   5.632   0.628   9.567 -0.2793  0.1474  0.8559
  783MOL0     H 5694   5.853   0.633   9.600 -0.2659 -0.4858 -0.2550
  783MOL0     H 5695   6.070   0.669   9.640  0.0182 -1.0818 -3.4561
  783MOL0     H 5696   6.089   0.725   9.483 -2.2844  1.3335 -0.8293
  783MOL0     H 5697   6.254   0.804   9.728 -0.3734  0.7915  0.5057
  783MOL0     H 5698   6.241   0.922   9.599 -0.2690  1.2951  1.7626
  783MOL0     H 5699   6.326   0.756   9.439  0.8135  0.9924  0.1083
  783MOL0     H 5700   6.316   0.625   9.555 -0.5233  0.4413 -1.1029
  783MOL0     H 5701   6.500   0.737   9.686  0.4569 -0.5553 -1.1661
  783MOL0     H 5702   6.460   0.888   9.617 -2.4461  0.2850 -0.7372
  783MOL0     H 5703   6.754   0.681   9.372 -0.2140  0.5640 -0.6974
  783MOL0     H 5704   5.838   1.063   9.662 -0.0907 -0.0531  1.1419
  783MOL0     H 5705   5.583   1.044   9.628  0.5385  1.5485 -3.8636
  784MOL0     O 5706  10.676   5.861   3.209 -0.5303 -0.3125 -0.2281
  784MOL0     C 5707  10.686   5.985   3.210 -0.5058  0.0981 -0.2087
  784MOL0     O 5708  10.586   6.069   3.200  0.6418 -0.2830  0.0850
  784MOL0     C 5709  10.447   6.042   3.206  0.3271  0.3272 -0.2232
  784MOL0     C 5710  10.388   5.932   3.274 -0.4670  1.1816  0.0074
  784MOL0     C 5711  10.247   5.912   3.279  0.0626  0.2805 -0.1394
  784MOL0     C 5712  10.163   6.006   3.222  0.2555 -0.5393 -0.4400
  784MOL0     O 5713  10.031   5.960   3.208 -0.5774  0.2210  0.2754
  784MOL0     C 5714   9.936   6.065   3.196  0.4604 -0.7486  0.0686
  784MOL0     C 5715   9.790   6.011   3.179  0.7194  0.2204 -0.3338
  784MOL0     C 5716   9.750   5.913   3.292  1.0156  0.6007 -0.5040
  784MOL0     C 5717   9.787   5.772   3.249 -0.1479  0.2686  0.7275
  784MOL0     C 5718   9.767   5.672   3.355  1.3114  0.2703 -1.0725
  784MOL0     C 5719   9.613   5.637   3.373 -0.1695  0.3316  1.1829
  784MOL0     C 5720   9.570   5.562   3.510  1.0124 -0.7622  0.0347
  784MOL0     C 5721   9.635   5.628   3.629  0.4932 -0.3815  0.5992
  784MOL0     N 5722   9.576   5.754   3.678 -0.8253  0.5778  0.6548
  784MOL0     C 5723   9.621   5.879   3.648 -0.0722 -0.7509  1.0943
  784MOL0     C 5724   9.517   5.962   3.690  0.8319  0.1923 -0.0718
  784MOL0     C 5725   9.512   6.105   3.659  0.6594  0.0179 -0.0009
  784MOL0     C 5726   9.485   6.135   3.509  0.4417  0.6517  0.7256
  784MOL0     C 5727   9.337   6.111   3.472 -0.6927  0.6332 -0.7687
  784MOL0     C 5728   9.323   6.087   3.322  0.1828 -0.8350  0.3757
  784MOL0     O 5729   9.331   6.223   3.272 -0.2105  0.1300 -0.1438
  784MOL0     C 5730   9.240   6.237   3.171  0.2880 -0.7604 -0.0671
  784MOL0     C 5731   9.112   6.303   3.199 -0.2257 -0.1832 -0.1614
  784MOL0     C 5732   9.012   6.312   3.103 -0.3939 -0.0106  0.1241
  784MOL0     C 5733   8.877   6.348   3.147  0.7173  0.0787  0.5038
  784MOL0     C 5734   9.041   6.268   2.974  0.7063  1.0046 -0.0633
  784MOL0     C 5735   8.945   6.262   2.864  0.9987  0.1860  0.3579
  784MOL0     O 5736   8.841   6.349   2.862  0.3547 -0.3810  0.0051
  784MOL0     C 5737   8.765   6.351   2.750  0.0455  0.0064  0.5098
  784MOL0     C 5738   8.805   6.403   2.628 -0.1497 -0.5623  0.2091
  784MOL0     C 5739   8.723   6.387   2.517 -0.3546 -0.2176  0.0655
  784MOL0     C 5740   8.600   6.317   2.524 -0.5605  0.2712  0.7071
  784MOL0     O 5741   8.519   6.290   2.411  0.0574 -0.0527 -0.5015
  784MOL0     C 5742   8.572   6.302   2.276  0.5551  0.3170  0.2125
  784MOL0     C 5743   8.450   6.314   2.176  0.3057 -0.6023  0.1511
  784MOL0     C 5744   8.385   6.181   2.154 -0.3222 -0.3400  0.2617
  784MOL0     C 5745   8.276   6.209   2.049  0.1906  0.0330 -0.2719
  784MOL0     C 5746   8.221   6.083   1.981 -0.0024  0.7896  0.3225
  784MOL0     C 5747   8.209   5.954   2.061 -0.4840 -0.3276 -0.1718
  784MOL0     C 5748   8.143   5.841   1.975  1.0991  0.0095 -0.9549
  784MOL0     C 5749   8.234   5.776   1.878 -0.5150  0.3948  0.8257
  784MOL0    Cl 5750   8.140   5.648   1.803  0.3156  0.3375  0.1983
  784MOL0     C 5751   8.553   6.284   2.649  0.8192 -0.0634  0.2710
  784MOL0     C 5752   8.634   6.303   2.759  0.4846 -0.4353 -0.0048
  784MOL0     O 5753   8.960   6.175   2.785 -0.7547  0.6401  0.0977
  784MOL0     C 5754   9.168   6.215   2.939  0.2807 -0.2779 -0.5814
  784MOL0     C 5755   9.262   6.186   3.044  0.5866 -0.9015  0.1650
  784MOL0     N 5756   9.413   5.879   3.734  0.1116  0.1997  1.0184
  784MOL0     N 5757   9.458   5.757   3.738 -0.6226  0.0143  0.5355
  784MOL0     C 5758  10.216   6.123   3.159 -0.0002  0.2234 -0.3472
  784MOL0     C 5759  10.359   6.139   3.154  0.6807  0.0559  0.0537
  784MOL0     C 5760  10.814   6.055   3.230  0.7922 -0.3378 -0.4443
  784MOL0     C 5761  10.922   5.993   3.298 -0.2500 -0.1107 -1.0708
  784MOL0     C 5762  11.050   6.059   3.305 -0.3321  0.0593 -0.9021
  784MOL0     C 5763  11.070   6.180   3.237 -0.2348  0.3367 -0.0144
  784MOL0     O 5764  11.197   6.233   3.230  0.7580 -0.0805  0.4914
  784MOL0     C 5765  11.218   6.333   3.333  0.0263  0.0605  0.3203
  784MOL0     C 5766  11.237   6.281   3.474  0.3924 -0.4932 -0.5296
  784MOL0     C 5767  11.359   6.188   3.517  0.0963  0.6926  0.7186
  784MOL0     C 5768  11.487   6.267   3.511 -0.2824 -0.0831 -0.9661
  784MOL0     C 5769  11.609   6.208   3.577 -0.7051  0.2559  0.1773
  784MOL0     C 5770  11.707   6.164   3.639 -0.8263  0.2538 -0.2946
  784MOL0     C 5771  10.960   6.239   3.178 -0.9520  0.0336  0.4344
  784MOL0     C 5772  10.834   6.181   3.180 -0.5139  0.4515  0.6188
  784MOL0     H 5773  10.454   5.857   3.317  2.1965  1.7948 -2.6808
  784MOL0     H 5774  10.209   5.822   3.326  3.4322 -1.5363 -0.5712
  784MOL0     H 5775   9.946   6.146   3.269  0.1889 -0.3530 -0.3213
  784MOL0     H 5776   9.955   6.120   3.103 -3.0033  1.1955  0.3405
  784MOL0     H 5777   9.721   6.095   3.170  1.7631  0.9679 -1.9138
  784MOL0     H 5778   9.780   5.954   3.085 -0.9178 -1.3851  0.7350
  784MOL0     H 5779   9.805   5.939   3.383  0.0204 -0.0367  0.2988
  784MOL0     H 5780   9.643   5.917   3.312  1.4831 -1.1982  2.9884
  784MOL0     H 5781   9.741   5.744   3.154  0.8687 -2.1169  0.8805
  784MOL0     H 5782   9.894   5.766   3.225 -0.7455 -2.2684 -1.8336
  784MOL0     H 5783   9.828   5.585   3.327  0.5043  0.3197 -3.1095
  784MOL0     H 5784   9.804   5.701   3.454 -1.0474 -0.6574  0.1742
  784MOL0     H 5785   9.555   5.730   3.368 -0.5600  0.1326  1.8547
  784MOL0     H 5786   9.579   5.574   3.290 -2.6903  1.8875  0.9294
  784MOL0     H 5787   9.461   5.560   3.519  1.0448  0.4847  0.8911
  784MOL0     H 5788   9.609   5.461   3.497 -1.7618 -1.6610 -2.9356
  784MOL0     H 5789   9.744   5.629   3.624  0.4880 -2.0756 -1.6938
  784MOL0     H 5790   9.620   5.561   3.714 -2.4894  1.4954  1.6825
  784MOL0     H 5791   9.711   5.912   3.598 -1.0009  1.3663  0.7003
  784MOL0     H 5792   9.421   6.139   3.710 -1.2275 -2.0370 -1.8133
  784MOL0     H 5793   9.600   6.161   3.693  0.7574  0.4108 -0.8918
  784MOL0     H 5794   9.547   6.067   3.449 -1.6786 -1.1829  0.4858
  784MOL0     H 5795   9.513   6.235   3.477  2.8784 -0.0169  0.5690
  784MOL0     H 5796   9.289   6.205   3.503 -2.7731 -1.1870  2.0584
  784MOL0     H 5797   9.297   6.027   3.530  0.0247  1.1722  0.5425
  784MOL0     H 5798   9.228   6.038   3.296  0.4536 -1.0681 -0.2082
  784MOL0     H 5799   9.408   6.031   3.282  0.5447  0.9325 -1.5152
  784MOL0     H 5800   9.086   6.338   3.298  2.8143  0.8992  0.3702
  784MOL0     H 5801   8.877   6.370   3.254 -1.3292  0.3313  0.4953
  784MOL0     H 5802   8.840   6.440   3.102  0.0093  0.8388  2.5235
  784MOL0     H 5803   8.809   6.264   3.128 -0.1163  1.1225 -1.4579
  784MOL0     H 5804   8.902   6.451   2.623 -0.9484  0.9966 -1.2715
  784MOL0     H 5805   8.766   6.407   2.420  1.3822  2.9121  1.3534
  784MOL0     H 5806   8.640   6.384   2.253  0.0947  0.4280 -0.8296
  784MOL0     H 5807   8.635   6.218   2.246  0.6721  0.8217 -1.0283
  784MOL0     H 5808   8.387   6.399   2.202 -0.6115 -1.6206  1.4191
  784MOL0     H 5809   8.496   6.348   2.083 -1.4367  0.7215 -0.2653
  784MOL0     H 5810   8.340   6.145   2.247  0.7257  0.0456  0.9223
  784MOL0     H 5811   8.457   6.113   2.107 -0.7282  0.4264 -1.5429
  784MOL0     H 5812   8.192   6.258   2.100 -1.2755  0.0176 -2.5083
  784MOL0     H 5813   8.310   6.285   1.977  3.4305  1.5198  2.5643
  784MOL0     H 5814   8.283   6.046   1.899  0.6018 -0.2407  1.2154
  784MOL0     H 5815   8.119   6.111   1.955 -0.7042 -2.4650 -0.8123
  784MOL0     H 5816   8.310   5.921   2.089 -0.9247  1.0053  3.4655
  784MOL0     H 5817   8.158   5.983   2.153  1.6644  4.8299 -0.3052
  784MOL0     H 5818   8.048   5.877   1.935  0.1634 -0.2411  0.9522
  784MOL0     H 5819   8.105   5.768   2.048  1.0892 -0.0093 -0.9786
  784MOL0     H 5820   8.307   5.720   1.938 -0.9794  0.2636  1.2843
  784MOL0     H 5821   8.285   5.834   1.801 -1.3818 -0.3849 -0.3578
  784MOL0     H 5822   8.455   6.239   2.647 -0.5075  2.5526  1.3957
  784MOL0     H 5823   8.603   6.269   2.858  2.2255  0.3723  0.8694
  784MOL0     H 5824   9.188   6.179   2.839 -1.7987  0.7049 -1.4128
  784MOL0     H 5825   9.352   6.131   3.017  0.4741  0.6222 -3.9604
  784MOL0     H 5826  10.150   6.188   3.103  1.3838  0.3563 -1.9212
  784MOL0     H 5827  10.386   6.234   3.108 -0.3522 -1.0213 -3.0313
  784MOL0     H 5828  10.919   5.892   3.337  1.2287 -0.3977 -1.6200
  784MOL0     H 5829  11.126   6.013   3.368 -1.8376  2.0080  2.6411
  784MOL0     H 5830  11.308   6.388   3.304 -2.5437  3.8552 -1.1641
  784MOL0     H 5831  11.135   6.403   3.341 -1.8629 -2.0428  0.0621
  784MOL0     H 5832  11.145   6.226   3.500 -1.2818  2.6622  0.7508
  784MOL0     H 5833  11.237   6.373   3.533 -0.7675  1.1921 -2.9645
  784MOL0     H 5834  11.359   6.101   3.451 -1.7098  1.0513  0.1770
  784MOL0     H 5835  11.351   6.155   3.621  2.9093  1.4388  1.2601
  784MOL0     H 5836  11.479   6.367   3.555  0.3318 -1.0822  1.6276
  784MOL0     H 5837  11.512   6.284   3.406  0.5234 -5.4288 -1.9029
  784MOL0     H 5838  11.789   6.112   3.684 -0.0417 -2.9026 -4.7492
  784MOL0     H 5839  10.959   6.341   3.143  1.7847 -0.7937 -2.5599
  784MOL0     H 5840  10.754   6.229   3.124 -1.6971  1.2370  2.8612
  785MOL0     O 5841   1.259   9.753  10.957 -0.0114 -0.2451  0.5717
  785MOL0     C 5842   1.235   9.786  11.066 -0.8601 -0.9092  0.5419
  785MOL0     O 5843   1.238   9.700  11.182 -0.2061  0.1918  0.4621
  785MOL0     C 5844   1.265   9.569  11.150  1.1120 -0.1363  0.4528
  785MOL0     C 5845   1.161   9.480  11.121  0.7144  0.3675 -0.3033
  785MOL0     C 5846   1.195   9.349  11.102 -0.3074  1.2716  0.0911
  785MOL0     C 5847   1.325   9.305  11.116 -0.8233  0.4584 -0.4083
  785MOL0     O 5848   1.328   9.177  11.086 -0.1098  0.6918  0.3511
  785MOL0     C 5849   1.451   9.122  11.041  0.0438  1.1728  0.3915
  785MOL0     C 5850   1.411   9.006  10.948  0.2470 -0.1602 -0.5061
  785MOL0     C 5851   1.315   9.057  10.842  0.1993  0.7484 -0.0793
  785MOL0     C 5852   1.297   8.934  10.749 -0.1427  0.9552  0.9455
  785MOL0     C 5853   1.201   8.955  10.626  0.2612 -0.7301  0.1606
  785MOL0     C 5854   1.272   9.023  10.511 -0.8997  1.5559  1.0161
  785MOL0     C 5855   1.394   8.947  10.454  0.0710  0.1783 -0.9130
  785MOL0     C 5856   1.417   8.962  10.303 -0.2894 -0.1918 -0.3746
  785MOL0     N 5857   1.410   9.100  10.268  0.4591 -0.2487  0.4327
  785MOL0     C 5858   1.505   9.187  10.315  0.1922  0.0297 -0.3131
  785MOL0     C 5859   1.499   9.285  10.220 -0.7604 -0.7009  0.6283
  785MOL0     C 5860   1.603   9.397  10.199  0.7929 -0.9376 -0.3185
  785MOL0     C 5861   1.528   9.538  10.239  0.0129  0.4989  0.6123
  785MOL0     C 5862   1.622   9.655  10.295 -0.0227  0.4183  0.8712
  785MOL0     C 5863   1.713   9.633  10.413  0.5392 -0.5936  0.0217
  785MOL0     O 5864   1.770   9.764  10.427  0.8426  1.1890 -0.0240
  785MOL0     C 5865   1.876   9.782  10.505 -0.2014 -0.4515 -0.1200
  785MOL0     C 5866   1.990   9.692  10.495  0.4988 -0.2957 -0.4671
  785MOL0     C 5867   2.085   9.689  10.588  0.2741 -0.1678 -1.2484
  785MOL0     C 5868   2.184   9.574  10.588 -0.4339  0.1703  0.2475
  785MOL0     C 5869   2.086   9.776  10.694  0.9053 -0.0661 -0.1249
  785MOL0     C 5870   2.183   9.786  10.812 -0.7812  0.9422 -0.3553
  785MOL0     O 5871   2.159   9.878  10.912 -0.1391  0.4926  0.1533
  785MOL0     C 5872   2.230   9.873  11.029 -0.6311 -0.2620  0.1559
  785MOL0     C 5873   2.274   9.755  11.087 -0.3888  0.4976 -0.2056
  785MOL0     C 5874   2.339   9.751  11.208  0.3389 -0.5989  1.1245
  785MOL0     C 5875   2.367   9.872  11.275  0.1177  0.5056 -0.0157
  785MOL0     O 5876   2.429   9.873  11.396  0.0472  0.6431 -0.4306
  785MOL0     C 5877   2.342   9.875  11.508  0.0868  0.2633  0.8724
  785MOL0     C 5878   2.416   9.808  11.615 -0.6303  0.6091 -0.4822
  785MOL0     C 5879   2.515   9.895  11.685  0.5832  0.0140  0.5200
  785MOL0     C 5880   2.625   9.805  11.730 -0.1058  1.0806  0.0403
  785MOL0     C 5881   2.738   9.879  11.785 -0.1428  0.0067  0.2661
  785MOL0     C 5882   2.852   9.780  11.834  0.1048  0.0997 -0.4580
  785MOL0     C 5883   2.976   9.854  11.883 -0.2854  0.2992  0.1337
  785MOL0     C 5884   3.068   9.876  11.764 -0.5167  0.1226 -0.1681
  785MOL0    Cl 5885   3.199   9.979  11.815  0.0061  0.1710 -0.0334
  785MOL0     C 5886   2.335   9.991  11.204 -0.0740 -0.4463 -0.0942
  785MOL0     C 5887   2.263   9.998  11.089  0.5937  0.4384 -0.3190
  785MOL0     O 5888   2.287   9.712  10.805  0.2000 -0.7300 -0.2436
  785MOL0     C 5889   1.985   9.873  10.694  0.4404 -0.2801 -0.6572
  785MOL0     C 5890   1.884   9.877  10.607  1.2019  0.1246  0.5214
  785MOL0     N 5891   1.391   9.266  10.135 -1.2284 -0.8677 -0.2442
  785MOL0     N 5892   1.341   9.148  10.163 -0.9940  0.0115  0.2772
  785MOL0     C 5893   1.431   9.399  11.139 -0.2134  0.2049  1.0252
  785MOL0     C 5894   1.398   9.532  11.155 -1.3189 -0.3071 -0.8774
  785MOL0     C 5895   1.185   9.919  11.081 -0.1222 -0.3377  0.0918
  785MOL0     C 5896   1.189  10.023  10.982 -0.2944  0.8110  0.4050
  785MOL0     C 5897   1.152  10.150  11.007  0.6352  0.3440 -0.1162
  785MOL0     C 5898   1.091  10.181  11.132 -0.9155 -0.6544  0.1651
  785MOL0     O 5899   1.036  10.311  11.138 -0.0205 -0.1604  0.3253
  785MOL0     C 5900   0.966  10.350  11.260  0.6018 -1.0977 -1.1950
  785MOL0     C 5901   0.860  10.460  11.239 -0.2888  0.0026  0.4968
  785MOL0     C 5902   0.809  10.456  11.093 -0.2096  0.4343 -0.0692
  785MOL0     C 5903   0.742  10.316  11.056  0.4969  0.3560 -0.4741
  785MOL0     C 5904   0.796  10.272  10.929 -0.1399 -0.2069  0.2407
  785MOL0     C 5905   0.842  10.233  10.820  0.7037  0.9535  0.1430
  785MOL0     C 5906   1.088  10.084  11.231 -0.6460  0.4371  0.0005
  785MOL0     C 5907   1.125   9.953  11.205 -0.4560 -0.6618 -0.4927
  785MOL0     H 5908   1.061   9.522  11.121 -0.8564 -3.0617 -1.2236
  785MOL0     H 5909   1.110   9.286  11.078  0.8689 -0.1657 -0.4024
  785MOL0     H 5910   1.518   9.185  10.981  2.3887 -1.5563 -0.1200
  785MOL0     H 5911   1.507   9.068  11.119 -3.1567 -2.9682  0.1458
  785MOL0     H 5912   1.496   8.951  10.907 -0.0700 -2.8885  2.1208
  785MOL0     H 5913   1.360   8.931  11.009  1.4248  0.2847  1.1076
  785MOL0     H 5914   1.217   9.086  10.880 -0.0456  2.3994 -1.8039
  785MOL0     H 5915   1.344   9.145  10.783 -1.7738  0.5942 -1.3863
  785MOL0     H 5916   1.393   8.893  10.717  1.9325 -0.5966  7.6074
  785MOL0     H 5917   1.268   8.846  10.808  1.1808  1.2141  2.0198
  785MOL0     H 5918   1.176   8.856  10.586  3.7206 -0.9518 -1.8817
  785MOL0     H 5919   1.105   8.997  10.657  0.1955 -0.6174 -0.1912
  785MOL0     H 5920   1.203   9.032  10.427  0.1840  0.4440 -0.0144
  785MOL0     H 5921   1.297   9.122  10.551 -0.7108  2.3062 -0.8513
  785MOL0     H 5922   1.479   8.970  10.520 -0.8263  1.0564 -0.0198
  785MOL0     H 5923   1.377   8.841  10.476  1.4289  0.4963  2.3424
  785MOL0     H 5924   1.346   8.904  10.243  1.9788 -2.4228 -1.1084
  785MOL0     H 5925   1.518   8.924  10.282  0.1832  1.5401 -1.4615
  785MOL0     H 5926   1.581   9.178  10.392 -1.9270  0.3898  1.9678
  785MOL0     H 5927   1.679   9.382  10.276 -1.4046 -0.9351  1.9842
  785MOL0     H 5928   1.650   9.393  10.100 -0.4465 -1.2501 -0.9068
  785MOL0     H 5929   1.447   9.522  10.311 -1.5517  2.9379 -0.4600
  785MOL0     H 5930   1.476   9.579  10.151 -0.4510 -1.3742 -0.0479
  785MOL0     H 5931   1.569   9.750  10.301  0.3657  0.6220  1.1259
  785MOL0     H 5932   1.685   9.686  10.211 -1.3997 -0.2526 -0.4607
  785MOL0     H 5933   1.789   9.563  10.376 -1.8609 -1.8789 -2.9211
  785MOL0     H 5934   1.658   9.591  10.498 -2.0125 -4.3496 -3.1319
  785MOL0     H 5935   1.980   9.613  10.421 -3.4953  1.0426 -1.5798
  785MOL0     H 5936   2.152   9.504  10.511  0.7954  0.5556 -0.6375
  785MOL0     H 5937   2.279   9.624  10.568 -0.3811  0.1892  0.5309
  785MOL0     H 5938   2.188   9.509  10.676  4.4777 -2.1110 -1.3319
  785MOL0     H 5939   2.253   9.659  11.041  1.1819 -0.9124  1.8344
  785MOL0     H 5940   2.379   9.656  11.242  3.2511 -1.5491 -3.8998
  785MOL0     H 5941   2.325   9.977  11.543 -0.2584 -0.4238  2.8393
  785MOL0     H 5942   2.245   9.826  11.495  0.4798 -0.5420  0.9168
  785MOL0     H 5943   2.343   9.769  11.686 -0.2884 -1.9585 -1.4338
  785MOL0     H 5944   2.476   9.728  11.571 -0.1841  0.1446  0.9131
  785MOL0     H 5945   2.454   9.929  11.770 -0.4365 -1.3642  0.3683
  785MOL0     H 5946   2.547   9.979  11.623 -0.3860 -0.8193 -1.1714
  785MOL0     H 5947   2.594   9.738  11.811 -1.4361  2.5249  0.7799
  785MOL0     H 5948   2.659   9.741  11.647 -0.3754  0.0834  0.6750
  785MOL0     H 5949   2.700   9.954  11.856  0.6516  1.1204 -0.4412
  785MOL0     H 5950   2.775   9.941  11.703 -0.6846 -0.6231 -0.4663
  785MOL0     H 5951   2.818   9.714  11.915 -4.1242 -1.2240 -2.9846
  785MOL0     H 5952   2.882   9.706  11.759 -0.8321 -2.2921  1.3725
  785MOL0     H 5953   3.022   9.798  11.964 -0.4399  2.6420  1.9605
  785MOL0     H 5954   2.950   9.948  11.933  2.2531 -0.3004  2.8884
  785MOL0     H 5955   3.019   9.941  11.691 -0.1818 -1.3294 -1.7678
  785MOL0     H 5956   3.109   9.783  11.721  0.1120 -0.5466  1.7991
  785MOL0     H 5957   2.360  10.088  11.244 -0.9725 -0.2614  0.0309
  785MOL0     H 5958   2.233  10.091  11.042  1.7135  1.6754  1.2660
  785MOL0     H 5959   1.996   9.958  10.761 -2.3906 -0.8010  0.6131
  785MOL0     H 5960   1.801   9.946  10.602  0.3586 -0.7095  2.0178
  785MOL0     H 5961   1.538   9.382  11.142 -0.2774 -0.4086  0.2552
  785MOL0     H 5962   1.480   9.601  11.174 -3.0535  2.2337 -2.0380
  785MOL0     H 5963   1.233   9.993  10.888 -1.2888 -0.9855  0.4691
  785MOL0     H 5964   1.161  10.222  10.925  1.6297 -1.3805 -1.5934
  785MOL0     H 5965   0.908  10.268  11.304  0.3288  0.0957  0.7972
  785MOL0     H 5966   1.043  10.385  11.329  2.0370 -0.1669 -3.1461
  785MOL0     H 5967   0.908  10.555  11.264  0.6021 -0.0789 -0.8139
  785MOL0     H 5968   0.775  10.453  11.308  1.5598  0.2534  2.9361
  785MOL0     H 5969   0.890  10.477  11.024  0.6301 -1.0579  0.4357
  785MOL0     H 5970   0.736  10.536  11.075 -3.0658 -1.8218  0.5973
  785MOL0     H 5971   0.634  10.331  11.056  0.6514  1.6906  0.4452
  785MOL0     H 5972   0.775  10.236  11.123 -0.0022  0.8651  0.3992
  785MOL0     H 5973   0.889  10.191  10.733  2.8452 -0.7568  2.0276
  785MOL0     H 5974   1.062  10.121  11.329 -1.9708 -0.9470  0.2053
  785MOL0     H 5975   1.123   9.875  11.280 -1.3935  0.9280  1.2109
  786MOL0     O 5976   1.845   3.760  10.031  0.0252  0.1001 -0.3912
  786MOL0     C 5977   1.902   3.654  10.041  0.5513  0.4632  0.4743
  786MOL0     O 5978   1.848   3.538  10.071 -0.6584  0.3794 -0.1729
  786MOL0     C 5979   1.724   3.531  10.135  0.0972 -0.0818 -0.0051
  786MOL0     C 5980   1.648   3.420  10.107  0.1782  0.1706  0.5464
  786MOL0     C 5981   1.528   3.393  10.184 -0.2164  0.4244 -0.2082
  786MOL0     C 5982   1.482   3.480  10.280  0.6146 -0.1422 -0.3434
  786MOL0     O 5983   1.371   3.433  10.348  0.9332  0.5056  0.5449
  786MOL0     C 5984   1.274   3.521  10.399 -0.1422 -0.3337 -1.0597
  786MOL0     C 5985   1.221   3.608  10.283  0.3061  0.0502  0.0990
  786MOL0     C 5986   1.071   3.653  10.296  0.7545 -0.4214 -0.8116
  786MOL0     C 5987   1.051   3.720  10.444  0.5503 -1.2608 -0.2403
  786MOL0     C 5988   0.923   3.810  10.458 -1.4151  0.3140  0.4420
  786MOL0     C 5989   0.811   3.715  10.506  0.2103 -0.4311  0.0515
  786MOL0     C 5990   0.681   3.796  10.558 -0.7205  0.6753 -0.8646
  786MOL0     C 5991   0.703   3.886  10.682 -0.9622 -0.6149  0.7604
  786MOL0     N 5992   0.579   3.921  10.742 -0.7676 -0.7609 -0.8527
  786MOL0     C 5993   0.480   4.002  10.680  0.0275 -0.0191 -0.0724
  786MOL0     C 5994   0.373   4.003  10.773 -0.1545  0.1308  0.8137
  786MOL0     C 5995   0.235   4.061  10.731 -0.2180 -0.9361  0.2931
  786MOL0     C 5996   0.136   4.072  10.854  0.0996 -0.3991  0.1691
  786MOL0     C 5997   0.172   4.177  10.953 -0.1661 -0.3241 -0.0015
  786MOL0     C 5998   0.053   4.170  11.051 -0.2281  0.0452 -0.2922
  786MOL0     O 5999  -0.063   4.243  10.991  0.1879  0.4800 -0.2973
  786MOL0     C 6000  -0.179   4.196  11.038  0.3327  0.5198 -0.4409
  786MOL0     C 6001  -0.194   4.117  11.162  0.1508 -0.2644  0.2792
  786MOL0     C 6002  -0.317   4.091  11.218 -0.5323  0.8839  0.9305
  786MOL0     C 6003  -0.321   4.041  11.360 -0.0701  0.8928 -0.2915
  786MOL0     C 6004  -0.439   4.138  11.149  0.3403 -0.0705 -0.9353
  786MOL0     C 6005  -0.568   4.150  11.224 -1.3366  0.7859 -0.0859
  786MOL0     O 6006  -0.566   4.220  11.346  0.6098  0.0349  0.0930
  786MOL0     C 6007  -0.696   4.254  11.396 -0.2761 -0.3125  1.3403
  786MOL0     C 6008  -0.790   4.326  11.320 -0.1945 -0.7619 -0.9624
  786MOL0     C 6009  -0.924   4.338  11.370  0.2937  0.7161 -0.6303
  786MOL0     C 6010  -0.953   4.275  11.500 -0.1477 -0.0511 -0.2740
  786MOL0     O 6011  -1.073   4.273  11.572 -0.2754  0.8733  0.3550
  786MOL0     C 6012  -1.184   4.278  11.475 -0.3080  0.6067  1.1316
  786MOL0     C 6013  -1.321   4.274  11.534  0.8723  0.6260  0.3926
  786MOL0     C 6014  -1.377   4.132  11.543 -0.2836  0.2959 -0.2944
  786MOL0     C 6015  -1.512   4.121  11.619  0.1870 -0.7533 -0.0916
  786MOL0     C 6016  -1.584   3.992  11.579  0.1433 -0.1712 -0.0776
  786MOL0     C 6017  -1.712   3.966  11.654  0.6340  0.2156  0.0138
  786MOL0     C 6018  -1.817   4.073  11.642  1.1628 -0.1019 -1.0055
  786MOL0     C 6019  -1.922   4.056  11.762  0.5617  0.8141  0.0245
  786MOL0    Cl 6020  -2.008   4.207  11.794 -0.3167  0.3070  0.2162
  786MOL0     C 6021  -0.847   4.212  11.562  0.1192 -0.6817 -0.3484
  786MOL0     C 6022  -0.720   4.202  11.516  0.8292  0.1778 -0.4774
  786MOL0     O 6023  -0.664   4.118  11.160 -0.3403  0.0259 -0.0729
  786MOL0     C 6024  -0.429   4.216  11.034 -0.9106 -0.9086 -0.2768
  786MOL0     C 6025  -0.302   4.242  10.986  0.5169  0.8478  0.0418
  786MOL0     N 6026   0.409   3.921  10.876 -0.3206 -0.1629  0.5357
  786MOL0     N 6027   0.529   3.877  10.860 -0.1751  0.2655 -0.5022
  786MOL0     C 6028   1.558   3.593  10.309  0.3061 -0.3313  0.3243
  786MOL0     C 6029   1.673   3.620  10.234 -0.5277  0.0138  0.6853
  786MOL0     C 6030   2.048   3.656  10.034 -0.3519  0.3606  1.0613
  786MOL0     C 6031   2.124   3.552  10.092  0.5820  0.0751 -0.8968
  786MOL0     C 6032   2.267   3.544  10.092  0.4453  0.4999 -0.4432
  786MOL0     C 6033   2.338   3.651  10.041  0.2180  0.0418  0.3898
  786MOL0     O 6034   2.471   3.670  10.043 -0.6657 -0.5803  0.8804
  786MOL0     C 6035   2.558   3.555  10.044 -0.6116  0.8829 -0.7298
  786MOL0     C 6036   2.555   3.481   9.911  0.4273 -0.6190 -0.2109
  786MOL0     C 6037   2.677   3.397   9.884  0.2462  0.7665  0.4183
  786MOL0     C 6038   2.685   3.364   9.736  0.1825  0.1131 -0.3669
  786MOL0     C 6039   2.729   3.480   9.651  0.3811  0.4525  0.9323
  786MOL0     C 6040   2.745   3.574   9.579 -0.2885 -0.7293  0.0262
  786MOL0     C 6041   2.259   3.755   9.984  0.3403  0.7122 -0.1703
  786MOL0     C 6042   2.119   3.758   9.974  0.0667  0.1319 -0.3902
  786MOL0     H 6043   1.681   3.349  10.031  0.2888  0.9435 -0.1351
  786MOL0     H 6044   1.474   3.300  10.165  0.6965  0.1753 -1.7162
  786MOL0     H 6045   1.194   3.462  10.445 -0.3452  1.4868  1.0397
  786MOL0     H 6046   1.326   3.575  10.478 -0.5190  0.2453 -1.1990
  786MOL0     H 6047   1.278   3.701  10.284  0.4664 -0.0470  1.0086
  786MOL0     H 6048   1.239   3.564  10.185 -2.5910  0.4842 -0.7450
  786MOL0     H 6049   1.040   3.731  10.226  0.1868 -0.6788 -0.8561
  786MOL0     H 6050   0.999   3.571  10.280  2.0667 -2.0478  1.1368
  786MOL0     H 6051   1.045   3.636  10.513  0.4562 -1.0994 -0.0519
  786MOL0     H 6052   1.142   3.774  10.474 -0.4737 -1.2416  3.2562
  786MOL0     H 6053   0.944   3.880  10.540  0.3801 -0.3106  0.5517
  786MOL0     H 6054   0.902   3.866  10.366 -0.0654  1.5900  0.8730
  786MOL0     H 6055   0.796   3.650  10.419  2.4806  2.1610 -2.4936
  786MOL0     H 6056   0.850   3.653  10.587 -1.0096 -2.3360 -0.7551
  786MOL0     H 6057   0.660   3.854  10.468  2.6600  1.4938 -1.2800
  786MOL0     H 6058   0.604   3.724  10.588 -0.8148  2.0438  2.6104
  786MOL0     H 6059   0.753   3.971  10.634 -1.7122 -2.8437 -4.5863
  786MOL0     H 6060   0.778   3.847  10.752 -0.4582 -2.7993 -0.8947
  786MOL0     H 6061   0.486   4.049  10.583 -1.2306  0.4780  0.0751
  786MOL0     H 6062   0.257   4.165  10.705 -1.4759 -0.4282  1.1974
  786MOL0     H 6063   0.203   4.017  10.636 -0.6494  1.1543 -0.6065
  786MOL0     H 6064   0.151   3.975  10.902  2.3219 -1.3043 -2.1281
  786MOL0     H 6065   0.035   4.094  10.819  0.0458  2.0356  1.6094
  786MOL0     H 6066   0.163   4.278  10.913 -0.7653 -0.5100 -0.3592
  786MOL0     H 6067   0.275   4.172  10.987  0.3948 -1.2898 -1.7429
  786MOL0     H 6068   0.076   4.233  11.137 -0.0183 -2.4344  1.5680
  786MOL0     H 6069   0.036   4.064  11.072  0.9653  0.1750  1.4685
  786MOL0     H 6070  -0.111   4.083  11.223 -1.0276 -5.4085 -0.5882
  786MOL0     H 6071  -0.405   3.976  11.388  0.9237 -0.5016 -0.4475
  786MOL0     H 6072  -0.231   3.982  11.374 -0.4356  0.6232  1.1226
  786MOL0     H 6073  -0.325   4.136  11.416  2.5082  0.5625  0.5902
  786MOL0     H 6074  -0.771   4.365  11.221  0.8546  0.3655 -0.3398
  786MOL0     H 6075  -0.999   4.391  11.312  0.5396  1.1694 -0.5325
  786MOL0     H 6076  -1.173   4.370  11.416 -2.6317  0.4648  0.3984
  786MOL0     H 6077  -1.176   4.200  11.398  0.4301  1.3104  0.4752
  786MOL0     H 6078  -1.308   4.320  11.633  2.6538 -0.0261  0.4881
  786MOL0     H 6079  -1.387   4.337  11.473 -0.2661 -2.1612 -1.4295
  786MOL0     H 6080  -1.312   4.059  11.591  1.0787  0.7118 -1.4509
  786MOL0     H 6081  -1.390   4.107  11.437  1.2265  1.6159 -0.8265
  786MOL0     H 6082  -1.505   4.122  11.729 -0.6332  0.3614 -0.0312
  786MOL0     H 6083  -1.570   4.208  11.588 -0.1579 -0.8710  0.2112
  786MOL0     H 6084  -1.510   3.913  11.593  0.1233  0.0921  1.6736
  786MOL0     H 6085  -1.599   3.994  11.470 -0.3046  4.7842 -0.1305
  786MOL0     H 6086  -1.754   3.876  11.607  1.0841  1.2732 -2.5349
  786MOL0     H 6087  -1.693   3.947  11.761  3.0280  1.4022 -0.1515
  786MOL0     H 6088  -1.857   4.081  11.541  0.0975  3.9808 -0.4431
  786MOL0     H 6089  -1.778   4.174  11.655 -0.9247  0.5088  1.2918
  786MOL0     H 6090  -1.869   4.026  11.853  1.4867 -0.9353 -1.0413
  786MOL0     H 6091  -1.987   3.981  11.716  1.5716  1.3584 -2.4529
  786MOL0     H 6092  -0.852   4.157  11.656  0.5218 -1.0453 -0.5411
  786MOL0     H 6093  -0.646   4.134  11.557 -0.4485 -0.4389  0.9169
  786MOL0     H 6094  -0.515   4.263  10.986  0.7306  1.3809 -1.1448
  786MOL0     H 6095  -0.294   4.305  10.898  1.0809  1.7080  0.7050
  786MOL0     H 6096   1.512   3.667  10.373 -1.0056 -0.4248 -0.4610
  786MOL0     H 6097   1.734   3.709  10.248 -0.1419  0.0509 -1.1060
  786MOL0     H 6098   2.071   3.471  10.141 -0.6214  0.8022 -0.9544
  786MOL0     H 6099   2.308   3.457  10.141  0.7860  1.0168  0.2107
  786MOL0     H 6100   2.659   3.593  10.059  0.1516 -1.9026  2.0378
  786MOL0     H 6101   2.540   3.488  10.128  2.6464 -2.5028 -2.4521
  786MOL0     H 6102   2.562   3.554   9.830 -0.0744 -1.1490 -0.7397
  786MOL0     H 6103   2.465   3.420   9.902  2.1228 -3.6994  1.8290
  786MOL0     H 6104   2.663   3.295   9.921  1.3026 -0.0369 -1.2784
  786MOL0     H 6105   2.764   3.444   9.931  0.4959 -0.5794  1.3573
  786MOL0     H 6106   2.585   3.335   9.705 -0.5956  2.9312 -0.8152
  786MOL0     H 6107   2.760   3.288   9.713 -1.8331 -1.2717 -2.7564
  786MOL0     H 6108   2.748   3.658   9.511 -1.0063 -1.8367 -1.4306
  786MOL0     H 6109   2.314   3.838   9.941  0.3053  1.0415  0.4161
  786MOL0     H 6110   2.066   3.841   9.927 -0.0348  0.2672 -0.0387
  787MOL0     O 6111  11.173   9.785   9.229 -0.2895 -0.1081  0.4248
  787MOL0     C 6112  11.211   9.901   9.220  0.5100  0.6170 -0.2607
  787MOL0     O 6113  11.121  10.008   9.224 -0.2374 -0.2740  0.8490
  787MOL0     C 6114  10.988  10.000   9.240  0.4873 -0.2208  0.1315
  787MOL0     C 6115  10.915  10.093   9.319 -0.3406  0.0329  0.2738
  787MOL0     C 6116  10.775  10.087   9.332  0.8655 -0.1355  0.0010
  787MOL0     C 6117  10.698   9.980   9.274 -0.5137 -0.0285  0.4607
  787MOL0     O 6118  10.561   9.974   9.275 -0.1584 -0.5402  0.2673
  787MOL0     C 6119  10.507   9.982   9.404  0.7974  0.0111  0.1064
  787MOL0     C 6120  10.369   9.921   9.438  0.5957 -0.7537  0.0467
  787MOL0     C 6121  10.252  10.004   9.371  0.9477  0.4121  0.1521
  787MOL0     C 6122  10.122   9.930   9.395  0.4499 -0.0191  0.3773
  787MOL0     C 6123   9.998   9.998   9.341  0.0961 -0.5015  0.1383
  787MOL0     C 6124   9.871   9.921   9.381 -0.1980  0.8215  0.0612
  787MOL0     C 6125   9.744   9.996   9.329  1.6264 -0.7947  0.4262
  787MOL0     C 6126   9.615   9.924   9.381  0.5096  0.6961  0.3325
  787MOL0     N 6127   9.498   9.995   9.337 -0.3132  0.3706  0.0313
  787MOL0     C 6128   9.463  10.021   9.201 -0.2225  0.5974 -0.0157
  787MOL0     C 6129   9.346  10.081   9.214  0.3518  0.2994  0.1810
  787MOL0     C 6130   9.271  10.156   9.108 -0.1518  0.3999  0.7204
  787MOL0     C 6131   9.198  10.055   9.012  0.4171 -1.0372  0.3517
  787MOL0     C 6132   9.123  10.146   8.907  0.9203  0.3778 -0.0329
  787MOL0     C 6133   9.004  10.081   8.830  0.1252  0.5610  0.2503
  787MOL0     O 6134   8.898  10.048   8.919 -0.4412  0.4484  0.0741
  787MOL0     C 6135   8.772  10.026   8.871 -0.2917 -0.2149  0.1742
  787MOL0     C 6136   8.672   9.982   8.960  0.2493  0.9321  0.1646
  787MOL0     C 6137   8.541   9.945   8.929 -0.4245  0.0990  0.2954
  787MOL0     C 6138   8.445   9.900   9.041 -0.1614  0.4380 -0.1409
  787MOL0     C 6139   8.501   9.957   8.795 -0.4178  0.0099  0.3734
  787MOL0     C 6140   8.361   9.929   8.754  0.0593  0.3386  0.1877
  787MOL0     O 6141   8.337   9.844   8.647  0.8065  0.4261  0.0286
  787MOL0     C 6142   8.209   9.845   8.592  0.0475 -0.0797  0.4088
  787MOL0     C 6143   8.107   9.761   8.623  0.2082  0.2491  0.0382
  787MOL0     C 6144   7.986   9.754   8.553 -0.0188 -0.1870  0.2064
  787MOL0     C 6145   7.963   9.846   8.453 -0.9367  0.3569  0.6670
  787MOL0     O 6146   7.852   9.832   8.372 -0.2955 -0.6008  0.5001
  787MOL0     C 6147   7.840   9.912   8.253 -0.8357  0.5569 -0.9229
  787MOL0     C 6148   7.910   9.846   8.145  0.9399 -0.3242  0.1837
  787MOL0     C 6149   7.850   9.723   8.078 -0.0200 -0.1855  0.1973
  787MOL0     C 6150   7.939   9.660   7.975 -0.2011  0.0182  0.1276
  787MOL0     C 6151   7.873   9.655   7.834 -0.4789 -0.5504  0.9507
  787MOL0     C 6152   7.972   9.600   7.731 -0.9338 -0.3265  0.9492
  787MOL0     C 6153   7.916   9.605   7.593  0.7040  0.3531  0.8038
  787MOL0     C 6154   8.006   9.551   7.470  0.1337 -0.4586 -0.6179
  787MOL0    Cl 6155   8.102   9.690   7.418  0.1207  0.3402  0.1101
  787MOL0     C 6156   8.059   9.943   8.430  0.0636  0.4163  0.1225
  787MOL0     C 6157   8.182   9.938   8.498  0.7490  0.1038 -0.4446
  787MOL0     O 6158   8.275   9.993   8.810 -0.2505 -0.3287 -0.2498
  787MOL0     C 6159   8.603   9.989   8.703  0.2865  0.4397  0.3114
  787MOL0     C 6160   8.732  10.024   8.737  0.0284 -0.5863 -0.0874
  787MOL0     N 6161   9.298  10.076   9.348  0.7096 -0.2312  0.1023
  787MOL0     N 6162   9.394  10.019   9.418 -0.5109 -0.8500  0.3551
  787MOL0     C 6163  10.763   9.893   9.186  0.3746 -0.5332 -0.1765
  787MOL0     C 6164  10.907   9.904   9.173  0.5963 -0.4534  0.6602
  787MOL0     C 6165  11.353   9.925   9.194 -0.0868  0.6408 -0.7208
  787MOL0     C 6166  11.458   9.845   9.248 -0.8668 -0.3311 -0.1869
  787MOL0     C 6167  11.588   9.873   9.215 -0.3413 -0.5981  0.2947
  787MOL0     C 6168  11.623   9.994   9.153 -0.4132 -0.1075  0.2124
  787MOL0     O 6169  11.758  10.021   9.135 -0.2686  0.3105  0.4351
  787MOL0     C 6170  11.803  10.148   9.109 -0.1169  0.0432  0.5028
  787MOL0     C 6171  11.940  10.150   9.172 -0.6993 -0.3745  0.2695
  787MOL0     C 6172  11.937  10.146   9.326  0.1508  0.2407  0.0348
  787MOL0     C 6173  12.079  10.142   9.400 -0.0664 -0.1981 -0.4621
  787MOL0     C 6174  12.158  10.260   9.349 -0.0784 -0.4001  0.3711
  787MOL0     C 6175  12.220  10.354   9.307  0.1663  0.2969 -0.0245
  787MOL0     C 6176  11.524  10.083   9.108  0.1257 -0.0269 -0.6138
  787MOL0     C 6177  11.386  10.049   9.124 -0.5862 -0.3469 -0.0927
  787MOL0     H 6178  10.974  10.163   9.378  2.1467 -0.2804 -1.6767
  787MOL0     H 6179  10.727  10.174   9.375  0.2887  0.8760 -2.5065
  787MOL0     H 6180  10.567   9.915   9.465 -0.8643 -1.1735  0.5254
  787MOL0     H 6181  10.515  10.083   9.446  0.6215  0.8819 -1.8237
  787MOL0     H 6182  10.369   9.823   9.389 -0.1375 -1.5627  1.6135
  787MOL0     H 6183  10.354   9.914   9.546 -1.6283  3.0611  0.1339
  787MOL0     H 6184  10.251  10.104   9.415  2.4799 -0.3241  2.0147
  787MOL0     H 6185  10.267  10.007   9.262 -1.2705 -0.1469 -0.2181
  787MOL0     H 6186  10.137   9.829   9.355  1.8992 -0.0443  0.9239
  787MOL0     H 6187  10.117   9.902   9.500 -1.0661 -2.3074 -0.2179
  787MOL0     H 6188   9.984  10.099   9.379 -1.8228 -1.0695  1.0716
  787MOL0     H 6189  10.011  10.014   9.233 -0.5863  1.9531  0.3579
  787MOL0     H 6190   9.887   9.819   9.345  0.7105  0.0937  2.3191
  787MOL0     H 6191   9.874   9.897   9.488 -0.5722  0.3764 -0.0237
  787MOL0     H 6192   9.746  10.104   9.346  2.4328 -0.7442  0.0179
  787MOL0     H 6193   9.746   9.995   9.220  0.9017 -2.0411  0.3940
  787MOL0     H 6194   9.614   9.914   9.490  0.1984  0.8897  0.3477
  787MOL0     H 6195   9.608   9.822   9.341 -3.9124  0.5144  1.0473
  787MOL0     H 6196   9.505  10.024   9.101 -1.7640 -2.8828 -0.9247
  787MOL0     H 6197   9.207  10.236   9.146  0.1837  1.9802 -1.8347
  787MOL0     H 6198   9.349  10.206   9.050  0.3846 -2.7614 -1.5356
  787MOL0     H 6199   9.131  10.004   9.081 -0.0010  0.1196  0.8348
  787MOL0     H 6200   9.268   9.987   8.962 -1.0361 -2.2446 -0.1008
  787MOL0     H 6201   9.202  10.179   8.838  1.2591  0.0476  0.1937
  787MOL0     H 6202   9.085  10.232   8.963  0.1827 -0.0048  0.0598
  787MOL0     H 6203   9.037   9.986   8.787 -1.8285 -0.1271  0.1696
  787MOL0     H 6204   8.958  10.155   8.764 -1.3600 -1.7537 -1.4679
  787MOL0     H 6205   8.692   9.973   9.066 -0.1017  1.1349  0.2503
  787MOL0     H 6206   8.366   9.834   9.004  0.1634 -0.0391  0.0089
  787MOL0     H 6207   8.486   9.831   9.115 -0.7102  0.8034  0.5063
  787MOL0     H 6208   8.400   9.986   9.091  1.1127 -0.0958  2.0725
  787MOL0     H 6209   8.119   9.681   8.696 -2.7942 -2.0592 -1.7369
  787MOL0     H 6210   7.905   9.684   8.573 -1.1818  0.9185 -0.4906
  787MOL0     H 6211   7.735   9.911   8.221 -0.7432  0.6872 -1.2407
  787MOL0     H 6212   7.874  10.013   8.278 -0.2654  0.5424 -1.6052
  787MOL0     H 6213   7.921   9.929   8.075 -0.0761  0.4020  0.8489
  787MOL0     H 6214   8.012   9.814   8.167  1.9536 -0.9597 -4.4540
  787MOL0     H 6215   7.755   9.758   8.037  0.1515 -0.5283 -0.5023
  787MOL0     H 6216   7.820   9.645   8.150  0.2086 -0.1778  0.3060
  787MOL0     H 6217   8.037   9.708   7.967  0.9472 -2.4124 -1.9905
  787MOL0     H 6218   7.961   9.555   7.997  0.9660  0.0128 -0.9715
  787MOL0     H 6219   7.858   9.756   7.794  2.8669  0.2798  1.4477
  787MOL0     H 6220   7.780   9.599   7.825  0.7582 -2.4144 -2.4378
  787MOL0     H 6221   8.067   9.655   7.731 -0.7128 -0.7024  1.4676
  787MOL0     H 6222   8.010   9.499   7.750  3.4455  1.0142  0.4104
  787MOL0     H 6223   7.873   9.701   7.563  0.2493  0.2696  1.1761
  787MOL0     H 6224   7.846   9.520   7.591  1.1140 -0.0375 -2.4542
  787MOL0     H 6225   7.945   9.511   7.388 -2.4666  2.4752 -0.2941
  787MOL0     H 6226   8.071   9.475   7.515  0.4435  2.5481  4.7649
  787MOL0     H 6227   8.040  10.023   8.358 -2.5905 -0.1591  0.1126
  787MOL0     H 6228   8.261  10.008   8.473  2.3448 -1.7801 -0.9293
  787MOL0     H 6229   8.565  10.003   8.602  0.6478 -1.0276 -0.0489
  787MOL0     H 6230   8.802  10.059   8.662  0.2859  1.6394  1.1265
  787MOL0     H 6231  10.706   9.823   9.125  0.5675 -2.7289  2.0236
  787MOL0     H 6232  10.945   9.840   9.094 -0.2194  1.2606 -1.2156
  787MOL0     H 6233  11.439   9.758   9.310 -0.2111  0.7069  1.5373
  787MOL0     H 6234  11.669   9.804   9.237  3.0679  3.0118  0.3489
  787MOL0     H 6235  11.821  10.163   9.002  1.8287  0.3652  0.8280
  787MOL0     H 6236  11.740  10.232   9.140  0.4944  1.5321 -1.9680
  787MOL0     H 6237  11.993  10.242   9.146 -0.1448 -0.5712  0.6922
  787MOL0     H 6238  12.007  10.074   9.131 -0.4685 -0.6799  1.1876
  787MOL0     H 6239  11.883  10.060   9.367 -0.5113  0.3305 -0.6341
  787MOL0     H 6240  11.877  10.226   9.371  0.0239  0.1917 -0.0474
  787MOL0     H 6241  12.134  10.053   9.370 -0.7462 -2.1554  3.4685
  787MOL0     H 6242  12.081  10.127   9.508  2.1236 -1.8931 -0.6866
  787MOL0     H 6243  12.272  10.444   9.282  0.1309  0.9463  2.0878
  787MOL0     H 6244  11.549  10.180   9.066  3.8290 -1.2632 -1.6298
  787MOL0     H 6245  11.300  10.108   9.091 -0.1356 -0.5704 -1.7273
  788MOL0     O 6246   7.577  10.273   6.055  0.7002 -0.2711  0.0208
  788MOL0     C 6247   7.549  10.386   6.028  0.0006 -1.1364 -0.3910
  788MOL0     O 6248   7.445  10.457   6.072  0.4885  0.2256 -0.4935
  788MOL0     C 6249   7.392  10.422   6.192 -0.1101  0.3337  0.0126
  788MOL0     C 6250   7.257  10.472   6.210  0.3313  0.0843  0.9030
  788MOL0     C 6251   7.181  10.428   6.310 -0.1944 -0.0075  0.6402
  788MOL0     C 6252   7.232  10.352   6.417  0.8439  0.0849 -0.4698
  788MOL0     O 6253   7.143  10.329   6.523 -0.1197 -0.0284  0.2802
  788MOL0     C 6254   7.202  10.284   6.641 -1.2763  0.7092 -0.0364
  788MOL0     C 6255   7.098  10.253   6.751 -0.9838 -0.5005  1.0366
  788MOL0     C 6256   7.017  10.377   6.793 -0.5002  0.3000  0.0943
  788MOL0     C 6257   6.929  10.371   6.916  0.3274 -0.1693 -0.7459
  788MOL0     C 6258   6.830  10.484   6.915  0.8037 -0.0138 -0.2285
  788MOL0     C 6259   6.741  10.491   7.045  0.7613  0.2292 -0.4348
  788MOL0     C 6260   6.689  10.632   7.098 -0.0066  0.5834 -0.0787
  788MOL0     C 6261   6.802  10.726   7.120 -0.2892  0.2334 -0.7906
  788MOL0     N 6262   6.749  10.849   7.188  0.0969  0.5863  0.3693
  788MOL0     C 6263   6.725  10.873   7.322  0.3132 -0.6340  0.7400
  788MOL0     C 6264   6.678  11.002   7.314  1.4036 -0.1152 -0.0197
  788MOL0     C 6265   6.652  11.090   7.431 -0.5537 -0.1499 -1.1642
  788MOL0     C 6266   6.502  11.129   7.460 -0.9506 -0.6941  0.2067
  788MOL0     C 6267   6.495  11.212   7.576  0.3036 -0.0893  0.5841
  788MOL0     C 6268   6.345  11.220   7.628  0.3177 -0.3187 -0.1081
  788MOL0     O 6269   6.255  11.266   7.530  0.1158  0.1216  0.4005
  788MOL0     C 6270   6.124  11.262   7.563 -0.0043 -0.3987  0.3908
  788MOL0     C 6271   6.031  11.264   7.463 -0.1374 -1.1288  0.2064
  788MOL0     C 6272   5.894  11.263   7.481 -0.0982  0.5390  0.4270
  788MOL0     C 6273   5.814  11.247   7.356 -0.1789  0.1215  0.1033
  788MOL0     C 6274   5.845  11.257   7.613 -0.6370  0.1739  0.0860
  788MOL0     C 6275   5.701  11.245   7.649  0.1212  0.7038  0.6236
  788MOL0     O 6276   5.673  11.223   7.781  0.2921 -0.4414  0.5140
  788MOL0     C 6277   5.538  11.234   7.825 -0.5846  0.3914  0.4770
  788MOL0     C 6278   5.454  11.128   7.799  0.3058 -0.2114  0.7493
  788MOL0     C 6279   5.319  11.126   7.840  0.3180  0.1580  0.0224
  788MOL0     C 6280   5.266  11.240   7.909 -0.2376 -0.4095 -0.1505
  788MOL0     O 6281   5.134  11.250   7.943 -0.4973 -0.5503  0.6419
  788MOL0     C 6282   5.036  11.205   7.853  0.9212  0.0082  0.1233
  788MOL0     C 6283   4.909  11.170   7.931  0.3797 -0.4627  0.0803
  788MOL0     C 6284   4.779  11.152   7.838 -1.3958 -0.2013 -0.2719
  788MOL0     C 6285   4.673  11.049   7.885  0.3968  0.1895 -0.2042
  788MOL0     C 6286   4.581  11.010   7.770  0.0947 -0.1107  0.1699
  788MOL0     C 6287   4.451  10.929   7.807 -1.0059  0.6975 -0.3919
  788MOL0     C 6288   4.351  10.924   7.689 -0.2525 -0.4450  0.1474
  788MOL0     C 6289   4.235  10.828   7.717 -0.4142 -0.0707  0.0686
  788MOL0    Cl 6290   4.098  10.921   7.784 -0.3361 -0.3538  0.4505
  788MOL0     C 6291   5.351  11.346   7.940 -0.6983  0.6518  0.2013
  788MOL0     C 6292   5.488  11.343   7.896 -0.0807  0.0426  0.0622
  788MOL0     O 6293   5.616  11.287   7.571  0.4852 -0.6113 -0.0620
  788MOL0     C 6294   5.934  11.247   7.716 -0.2802  0.1828  0.5247
  788MOL0     C 6295   6.073  11.250   7.690 -0.3808 -0.0616 -0.3208
  788MOL0     N 6296   6.668  11.045   7.179  0.3144  0.1969 -0.1751
  788MOL0     N 6297   6.710  10.951   7.108 -0.9739  0.1491 -0.2923
  788MOL0     C 6298   7.364  10.313   6.408  0.2822  0.2682  0.6137
  788MOL0     C 6299   7.444  10.342   6.297 -0.4396 -0.4417 -0.0039
  788MOL0     C 6300   7.644  10.456   5.927 -0.4746 -0.2337 -1.3300
  788MOL0     C 6301   7.777  10.410   5.901 -0.3388 -0.4367  0.2845
  788MOL0     C 6302   7.865  10.489   5.835 -0.0400 -0.7107 -0.0762
  788MOL0     C 6303   7.819  10.609   5.769 -0.3959 -0.3535 -0.3518
  788MOL0     O 6304   7.912  10.673   5.695 -0.2066 -1.1973 -0.3972
  788MOL0     C 6305   7.902  10.823   5.687 -0.1007  0.0522 -0.3721
  788MOL0     C 6306   7.891  10.895   5.818  0.0266 -0.7007 -0.4825
  788MOL0     C 6307   7.987  10.852   5.923  0.2472  0.3097 -0.2469
  788MOL0     C 6308   7.994  10.960   6.036 -0.0195 -0.0001 -0.7612
  788MOL0     C 6309   7.883  10.974   6.128  0.1696 -0.0517 -0.1345
  788MOL0     C 6310   7.776  10.995   6.184 -0.6909 -0.9119  0.5296
  788MOL0     C 6311   7.685  10.647   5.780  0.2897  0.2253 -0.2966
  788MOL0     C 6312   7.599  10.579   5.869  0.2322  0.4766 -0.8888
  788MOL0     H 6313   7.221  10.545   6.138 -2.0339 -2.4271 -0.6641
  788MOL0     H 6314   7.076  10.455   6.316  0.1833  1.5638  0.5190
  788MOL0     H 6315   7.245  10.187   6.616 -0.7892  1.1644 -1.0170
  788MOL0     H 6316   7.274  10.352   6.690 -1.6519  0.6574  0.6008
  788MOL0     H 6317   7.035  10.171   6.716  0.0981 -2.9201  4.2556
  788MOL0     H 6318   7.158  10.218   6.836  0.6739 -1.3047 -0.3974
  788MOL0     H 6319   7.088  10.459   6.804  0.5447 -0.7313  1.4427
  788MOL0     H 6320   6.937  10.396   6.720 -1.3564 -0.1300  0.8910
  788MOL0     H 6321   6.876  10.277   6.937  1.8185 -0.7862  0.4476
  788MOL0     H 6322   6.997  10.383   7.001 -0.3507  1.3391 -0.3974
  788MOL0     H 6323   6.889  10.576   6.916  0.0826  0.4691 -1.1101
  788MOL0     H 6324   6.765  10.467   6.829 -1.3055 -0.4221  1.3763
  788MOL0     H 6325   6.653  10.434   7.014  0.8246 -1.0792  1.6138
  788MOL0     H 6326   6.784  10.435   7.128 -0.6365 -2.6405 -1.4925
  788MOL0     H 6327   6.633  10.680   7.017 -2.3471  0.5064  1.4132
  788MOL0     H 6328   6.616  10.624   7.178 -0.7412  1.5095 -0.6377
  788MOL0     H 6329   6.850  10.752   7.025 -1.0994 -0.2275 -1.3436
  788MOL0     H 6330   6.881  10.672   7.172  0.4134  1.0689 -0.9679
  788MOL0     H 6331   6.753  10.810   7.406 -0.4760 -2.0238 -0.0043
  788MOL0     H 6332   6.698  11.032   7.511 -1.1604  0.1473 -0.5864
  788MOL0     H 6333   6.711  11.180   7.416  0.1148  0.6734  4.3308
  788MOL0     H 6334   6.456  11.034   7.488  0.9373 -1.8645 -0.4696
  788MOL0     H 6335   6.450  11.168   7.372 -2.2336  1.1972  1.7146
  788MOL0     H 6336   6.510  11.316   7.545 -3.7708  0.5770  0.3042
  788MOL0     H 6337   6.560  11.185   7.660 -0.4988  0.9100  1.5612
  788MOL0     H 6338   6.340  11.285   7.716 -3.2476  4.3331 -3.2349
  788MOL0     H 6339   6.321  11.122   7.669  2.1532 -0.5465  0.5243
  788MOL0     H 6340   6.060  11.264   7.358  0.0554  0.7667  0.2259
  788MOL0     H 6341   5.866  11.202   7.271 -0.0553  2.2136 -0.9814
  788MOL0     H 6342   5.728  11.182   7.375  0.1447 -0.4734 -0.4169
  788MOL0     H 6343   5.778  11.343   7.318 -0.6427 -0.1277 -0.0986
  788MOL0     H 6344   5.493  11.047   7.737  1.7948 -0.7656  2.3333
  788MOL0     H 6345   5.255  11.043   7.812 -2.0099  1.2815  1.6664
  788MOL0     H 6346   5.004  11.289   7.791 -0.3598  0.7007  1.6587
  788MOL0     H 6347   5.073  11.120   7.795  1.3584  1.1237 -1.3055
  788MOL0     H 6348   4.922  11.079   7.990 -2.4300 -0.1130  1.4067
  788MOL0     H 6349   4.888  11.252   8.000 -1.3414 -1.0799  0.3240
  788MOL0     H 6350   4.819  11.102   7.749 -1.6480 -0.6312 -0.1495
  788MOL0     H 6351   4.733  11.245   7.804 -1.0499  0.3134  0.6273
  788MOL0     H 6352   4.716  10.953   7.916 -0.7981  0.0018  0.9885
  788MOL0     H 6353   4.607  11.082   7.966  1.0454  0.8002  0.0849
  788MOL0     H 6354   4.643  10.958   7.696 -0.0222  2.5990 -1.9814
  788MOL0     H 6355   4.541  11.101   7.725  0.4466  0.6579  1.3729
  788MOL0     H 6356   4.480  10.827   7.833 -0.5758  0.2973 -2.3072
  788MOL0     H 6357   4.407  10.992   7.885 -0.4877  0.7800 -0.1576
  788MOL0     H 6358   4.424  10.893   7.614 -2.5427 -1.8770 -1.6136
  788MOL0     H 6359   4.313  11.023   7.663 -3.8039 -0.7339  3.3482
  788MOL0     H 6360   4.265  10.760   7.798 -1.0872  2.0767  2.2335
  788MOL0     H 6361   4.202  10.781   7.624 -3.1721  1.9285 -0.0882
  788MOL0     H 6362   5.319  11.436   7.993  1.9604  1.2646  0.9330
  788MOL0     H 6363   5.567  11.416   7.912  0.6897 -0.5159 -1.0704
  788MOL0     H 6364   5.909  11.232   7.820  1.1639 -0.2890  0.8311
  788MOL0     H 6365   6.134  11.233   7.779  0.1652  1.6788 -0.3352
  788MOL0     H 6366   7.413  10.264   6.492  1.4711  3.0627  1.6641
  788MOL0     H 6367   7.549  10.320   6.306 -0.4575 -0.9836 -0.9266
  788MOL0     H 6368   7.821  10.320   5.942  0.9081 -0.3222 -0.7467
  788MOL0     H 6369   7.970  10.466   5.819 -0.5346 -1.6504 -2.5177
  788MOL0     H 6370   7.981  10.867   5.625  0.3586 -1.2556 -0.7637
  788MOL0     H 6371   7.815  10.848   5.625 -2.0654 -1.3347  1.6858
  788MOL0     H 6372   7.786  10.892   5.851 -1.0802  3.4157 -2.9512
  788MOL0     H 6373   7.912  11.000   5.797 -0.4361 -0.8368 -1.7083
  788MOL0     H 6374   8.086  10.839   5.878 -0.4670 -1.1667 -1.4573
  788MOL0     H 6375   7.947  10.758   5.961 -0.3844  1.4132  2.0165
  788MOL0     H 6376   8.024  11.060   6.003 -0.1363  0.2301 -0.1805
  788MOL0     H 6377   8.071  10.937   6.110 -1.2839  1.4011  1.0960
  788MOL0     H 6378   7.679  11.000   6.230 -0.7728 -3.0721  0.7047
  788MOL0     H 6379   7.652  10.728   5.715 -0.6610 -0.0881 -0.2041
  788MOL0     H 6380   7.499  10.620   5.871  0.2560  0.7853  3.2608
  789MOL0     O 6381   3.653   2.865   8.002 -0.2440  0.2949 -0.1535
  789MOL0     C 6382   3.778   2.874   7.983  0.0494  0.9606 -0.7531
  789MOL0     O 6383   3.836   2.973   7.917 -0.2753 -0.1557 -0.0361
  789MOL0     C 6384   3.760   3.065   7.843  0.5231 -0.3309  0.5133
  789MOL0     C 6385   3.650   3.036   7.757 -0.1648 -0.9701 -0.4120
  789MOL0     C 6386   3.571   3.130   7.683  0.1387 -0.0252 -0.5320
  789MOL0     C 6387   3.627   3.251   7.664 -1.3242  0.3632  0.2070
  789MOL0     O 6388   3.560   3.333   7.578  0.0401 -0.0315  0.0030
  789MOL0     C 6389   3.596   3.473   7.572 -0.3618 -0.1515  0.3605
  789MOL0     C 6390   3.476   3.564   7.543  0.2183 -0.5842 -0.4138
  789MOL0     C 6391   3.358   3.525   7.622  1.5351  0.1508 -0.3107
  789MOL0     C 6392   3.227   3.591   7.582 -0.9370  0.3092  0.9006
  789MOL0     C 6393   3.243   3.742   7.612 -0.4110 -0.6460 -1.2640
  789MOL0     C 6394   3.122   3.831   7.580  1.5929 -0.2186 -0.2718
  789MOL0     C 6395   2.994   3.801   7.660 -0.1435  0.7922 -0.3837
  789MOL0     C 6396   2.857   3.861   7.598 -0.5833 -0.5525  0.1004
  789MOL0     N 6397   2.741   3.791   7.655  0.5164  0.4203  0.8290
  789MOL0     C 6398   2.712   3.799   7.791  0.0533  0.7187  0.4273
  789MOL0     C 6399   2.615   3.698   7.803 -0.2712  0.7309  0.9247
  789MOL0     C 6400   2.566   3.639   7.939  0.1461  0.1917 -0.4533
  789MOL0     C 6401   2.442   3.718   7.976  0.2270  0.9981  0.3959
  789MOL0     C 6402   2.458   3.829   8.088 -0.5185  0.3125 -0.1719
  789MOL0     C 6403   2.317   3.883   8.109 -0.3971 -0.6441  0.1123
  789MOL0     O 6404   2.267   3.970   8.001 -0.3821  0.2037  0.0066
  789MOL0     C 6405   2.158   4.049   8.029  0.3734 -0.4454  0.3559
  789MOL0     C 6406   2.170   4.167   8.099 -0.1625 -0.1180 -0.7505
  789MOL0     C 6407   2.062   4.247   8.141  0.1025 -0.7732 -0.3211
  789MOL0     C 6408   2.102   4.368   8.223 -0.0836  0.0867  0.4131
  789MOL0     C 6409   1.932   4.213   8.092  0.4520  0.3160  0.6997
  789MOL0     C 6410   1.803   4.292   8.112  0.0540 -0.5051 -0.6712
  789MOL0     O 6411   1.689   4.259   8.048  0.1178  0.4697  0.0517
  789MOL0     C 6412   1.572   4.326   8.095  0.1816 -0.6016  0.0238
  789MOL0     C 6413   1.501   4.404   7.994  0.1601  0.5849 -0.2360
  789MOL0     C 6414   1.371   4.450   8.011 -0.6793  0.6444 -0.1291
  789MOL0     C 6415   1.318   4.437   8.142  0.3479  0.3163  1.2026
  789MOL0     O 6416   1.201   4.495   8.161  0.2494 -0.5774 -0.3892
  789MOL0     C 6417   1.092   4.403   8.164 -0.7945 -0.8537 -0.4880
  789MOL0     C 6418   0.970   4.471   8.214 -0.0011  1.0110 -0.8333
  789MOL0     C 6419   0.833   4.404   8.182  0.5273 -0.4598  0.1532
  789MOL0     C 6420   0.722   4.508   8.218 -0.4535 -0.8727  0.2259
  789MOL0     C 6421   0.592   4.447   8.207 -0.5906  0.2260  0.0135
  789MOL0     C 6422   0.470   4.543   8.216 -0.9699  0.4678 -0.0041
  789MOL0     C 6423   0.338   4.480   8.171 -0.0342 -0.2319  0.2060
  789MOL0     C 6424   0.276   4.378   8.275 -0.8415  0.2225  0.3831
  789MOL0    Cl 6425   0.116   4.332   8.238  0.5468  0.2287  0.1520
  789MOL0     C 6426   1.386   4.369   8.251  0.0904 -0.1895  0.5260
  789MOL0     C 6427   1.520   4.318   8.227 -0.1809 -0.2539 -0.1764
  789MOL0     O 6428   1.811   4.387   8.186 -0.4392 -0.0708 -0.1790
  789MOL0     C 6429   1.913   4.089   8.014 -0.1104  0.5938  0.0236
  789MOL0     C 6430   2.028   4.013   7.985 -0.2173  0.3921  0.1148
  789MOL0     N 6431   2.595   3.636   7.685  0.4134 -0.1375  0.6494
  789MOL0     N 6432   2.665   3.699   7.592  0.1041 -0.0696  0.2712
  789MOL0     C 6433   3.737   3.288   7.752 -0.4998  0.0631 -0.9386
  789MOL0     C 6434   3.803   3.198   7.833  0.3539  0.0075 -0.4867
  789MOL0     C 6435   3.866   2.773   8.055 -0.4925  0.0179 -0.7986
  789MOL0     C 6436   3.809   2.684   8.146  0.5501 -0.2440  1.3715
  789MOL0     C 6437   3.890   2.582   8.195  0.0437  0.0438 -0.5414
  789MOL0     C 6438   4.022   2.560   8.162 -0.2648  0.6591  0.4083
  789MOL0     O 6439   4.097   2.451   8.217 -0.3670  0.2729 -0.7150
  789MOL0     C 6440   4.231   2.425   8.169 -0.1241 -0.2063 -0.5511
  789MOL0     C 6441   4.226   2.364   8.025  0.0379 -0.3731  0.1164
  789MOL0     C 6442   4.186   2.221   8.021  0.7549  1.3009 -0.2988
  789MOL0     C 6443   4.272   2.122   8.103  0.6359  0.4714  0.1034
  789MOL0     C 6444   4.400   2.116   8.032  0.7708 -0.2570 -0.5329
  789MOL0     C 6445   4.500   2.115   7.966 -0.5119 -0.0529  0.2142
  789MOL0     C 6446   4.084   2.651   8.072  0.7004 -0.6593  0.3491
  789MOL0     C 6447   4.006   2.759   8.022  0.6733  0.6308 -0.3191
  789MOL0     H 6448   3.624   2.931   7.751  1.5954 -1.3983 -1.0414
  789MOL0     H 6449   3.484   3.087   7.635 -2.2927  1.3304  2.2979
  789MOL0     H 6450   3.645   3.507   7.664 -1.3805 -0.9427  1.2225
  789MOL0     H 6451   3.672   3.488   7.495  2.0831 -4.0026  1.7139
  789MOL0     H 6452   3.503   3.670   7.546 -2.2057  0.0594  0.9097
  789MOL0     H 6453   3.446   3.538   7.441 -0.9720  0.5005 -0.3614
  789MOL0     H 6454   3.343   3.417   7.630 -1.2772  0.6037  2.9854
  789MOL0     H 6455   3.372   3.559   7.725 -0.4464 -0.6899  0.2814
  789MOL0     H 6456   3.214   3.588   7.473  1.3725  1.8466  0.5228
  789MOL0     H 6457   3.141   3.540   7.627 -0.4447  1.2031  2.9434
  789MOL0     H 6458   3.259   3.762   7.719 -2.6476 -2.3356 -0.5299
  789MOL0     H 6459   3.329   3.777   7.555 -0.8528 -1.7192 -2.6316
  789MOL0     H 6460   3.143   3.936   7.601  2.8137  0.2297 -3.2715
  789MOL0     H 6461   3.100   3.809   7.475 -3.0143  1.8077  0.0069
  789MOL0     H 6462   2.984   3.693   7.648 -1.7594  1.0697 -1.9560
  789MOL0     H 6463   3.015   3.827   7.764  0.1846 -0.4552 -0.1263
  789MOL0     H 6464   2.864   3.866   7.489 -3.1922 -4.1328 -0.3966
  789MOL0     H 6465   2.857   3.966   7.629 -0.6277 -0.9333  1.4620
  789MOL0     H 6466   2.779   3.827   7.871  1.4597 -0.1426 -0.4086
  789MOL0     H 6467   2.554   3.530   7.933 -0.6250  0.1468  1.1488
  789MOL0     H 6468   2.643   3.654   8.017 -0.4219 -2.4700  0.7535
  789MOL0     H 6469   2.382   3.640   8.024 -0.0545  1.1353  0.2705
  789MOL0     H 6470   2.402   3.756   7.882  1.2924 -1.0864 -0.9719
  789MOL0     H 6471   2.533   3.905   8.070  1.2754 -1.5877 -1.1632
  789MOL0     H 6472   2.497   3.772   8.173  0.3701  3.6401  1.8141
  789MOL0     H 6473   2.310   3.921   8.211  1.9054 -2.4559  1.0266
  789MOL0     H 6474   2.248   3.798   8.109  0.0460 -1.0065 -0.2821
  789MOL0     H 6475   2.269   4.192   8.136 -0.3882 -1.0562  0.5567
  789MOL0     H 6476   2.108   4.461   8.165 -0.9124 -0.5021 -0.6549
  789MOL0     H 6477   2.025   4.376   8.300  1.5621  0.7344  2.0653
  789MOL0     H 6478   2.195   4.350   8.277 -1.2693 -0.7595  2.2934
  789MOL0     H 6479   1.546   4.404   7.895  2.9132  0.3571  0.9312
  789MOL0     H 6480   1.315   4.508   7.938  0.5260  1.4800 -0.4124
  789MOL0     H 6481   1.070   4.381   8.059 -1.9375  2.5537 -1.0935
  789MOL0     H 6482   1.116   4.318   8.228  2.0572  0.0406 -0.2671
  789MOL0     H 6483   0.993   4.475   8.321  1.4866  1.6856 -1.1505
  789MOL0     H 6484   0.975   4.576   8.182  3.8513  0.8323 -1.2478
  789MOL0     H 6485   0.825   4.309   8.235  1.7926  0.0136  1.2765
  789MOL0     H 6486   0.819   4.389   8.075 -1.2798  0.6717  0.1973
  789MOL0     H 6487   0.730   4.547   8.320  1.0977 -1.0638  0.2037
  789MOL0     H 6488   0.716   4.589   8.145 -3.1926 -3.2658 -2.4617
  789MOL0     H 6489   0.595   4.367   8.281  3.0987  0.1326 -0.0729
  789MOL0     H 6490   0.568   4.402   8.111  0.3290  0.5176 -0.3685
  789MOL0     H 6491   0.454   4.587   8.314  0.3760 -1.3222  1.0946
  789MOL0     H 6492   0.499   4.620   8.145  1.2050 -1.9184 -1.9199
  789MOL0     H 6493   0.351   4.440   8.070 -0.8317 -3.8070  1.3917
  789MOL0     H 6494   0.264   4.560   8.170  0.6155  0.3943 -1.8527
  789MOL0     H 6495   0.265   4.432   8.370 -1.2374 -0.4161  0.7094
  789MOL0     H 6496   0.336   4.289   8.298  1.1253  1.0627 -1.2322
  789MOL0     H 6497   1.354   4.362   8.355 -1.1355  0.1870  0.1917
  789MOL0     H 6498   1.575   4.276   8.311  1.5536  0.3258 -1.0006
  789MOL0     H 6499   1.818   4.043   7.992 -0.4360  1.3453 -0.2031
  789MOL0     H 6500   2.038   3.929   7.918  1.4909  0.2390  0.5139
  789MOL0     H 6501   3.771   3.391   7.762 -1.7730  0.5443 -1.3232
  789MOL0     H 6502   3.886   3.239   7.889 -0.3768  1.1650 -0.2384
  789MOL0     H 6503   3.707   2.700   8.178  0.3118  2.2272 -0.3566
  789MOL0     H 6504   3.840   2.503   8.248 -0.9114 -0.2364 -1.8136
  789MOL0     H 6505   4.298   2.511   8.178 -0.6877  0.3292 -1.3815
  789MOL0     H 6506   4.268   2.353   8.242 -0.4515  1.0179  0.8647
  789MOL0     H 6507   4.314   2.397   7.970 -0.2424  3.5091  1.6688
  789MOL0     H 6508   4.143   2.413   7.972 -0.4375 -2.2023 -0.9255
  789MOL0     H 6509   4.172   2.185   7.919  1.1373 -2.2353  0.7637
  789MOL0     H 6510   4.088   2.209   8.070  0.4351 -2.5190 -1.5063
  789MOL0     H 6511   4.229   2.022   8.103  1.9387 -0.2173 -3.1550
  789MOL0     H 6512   4.301   2.142   8.207  1.5303  0.3669 -0.1142
  789MOL0     H 6513   4.594   2.099   7.917 -1.3909 -0.9050 -1.2779
  789MOL0     H 6514   4.188   2.635   8.045  0.7075 -1.8645  0.9975
  789MOL0     H 6515   4.041   2.830   7.948  3.1366 -1.1418 -1.0119
  790MOL0     O 6516   1.720   0.391   7.416  0.2715 -0.4096  0.0958
  790MOL0     C 6517   1.758   0.335   7.316 -0.6744  1.0264 -0.3555
  790MOL0     O 6518   1.681   0.303   7.206  0.0015 -0.0377  0.5514
  790MOL0     C 6519   1.547   0.341   7.188 -0.2693  0.7697 -0.5827
  790MOL0     C 6520   1.486   0.263   7.088  0.5035  0.1502 -0.1241
  790MOL0     C 6521   1.354   0.291   7.033  0.0570 -0.9072 -0.4089
  790MOL0     C 6522   1.291   0.413   7.084  0.5190  0.2760 -0.2202
  790MOL0     O 6523   1.167   0.454   7.060  0.5649  0.2279  0.5786
  790MOL0     C 6524   1.131   0.457   6.924 -0.4331  0.4697  0.3209
  790MOL0     C 6525   0.989   0.496   6.891  0.2967 -0.1684 -0.6110
  790MOL0     C 6526   0.899   0.375   6.875 -0.2586 -0.7339 -0.0830
  790MOL0     C 6527   0.761   0.407   6.919  0.0040  0.3846 -0.3592
  790MOL0     C 6528   0.673   0.280   6.898 -0.0156 -0.7588  0.0483
  790MOL0     C 6529   0.548   0.289   6.991  0.0837  0.3364  0.2805
  790MOL0     C 6530   0.441   0.388   6.946  0.6670 -0.2212 -0.9572
  790MOL0     C 6531   0.318   0.365   7.025  0.7439 -0.1561 -0.2746
  790MOL0     N 6532   0.194   0.427   6.973  0.1515 -0.3643 -0.6319
  790MOL0     C 6533   0.147   0.405   6.849  0.1404 -0.0680  0.3663
  790MOL0     C 6534   0.046   0.497   6.841  0.1774  0.8062  0.5060
  790MOL0     C 6535  -0.055   0.494   6.720 -0.3180 -0.3262 -0.0569
  790MOL0     C 6536  -0.163   0.395   6.763  0.0323 -0.2853 -0.1468
  790MOL0     C 6537  -0.259   0.335   6.648 -0.4299 -0.0340 -0.1505
  790MOL0     C 6538  -0.360   0.433   6.594 -0.1093  0.8167  0.0783
  790MOL0     O 6539  -0.444   0.471   6.703  0.3971  0.2038  0.5315
  790MOL0     C 6540  -0.548   0.554   6.665  0.6927 -0.6313 -0.9276
  790MOL0     C 6541  -0.529   0.690   6.636  0.6320 -0.7262  0.4589
  790MOL0     C 6542  -0.633   0.774   6.601  0.6203 -0.6282  0.5866
  790MOL0     C 6543  -0.602   0.919   6.556 -0.1670 -0.1589 -0.7545
  790MOL0     C 6544  -0.765   0.731   6.625 -1.1369 -0.3561 -0.6264
  790MOL0     C 6545  -0.886   0.812   6.614  0.2153  0.0188 -0.5119
  790MOL0     O 6546  -0.987   0.755   6.558  0.4649 -0.0574  0.1094
  790MOL0     C 6547  -1.114   0.803   6.583 -0.3005 -0.2173  0.6510
  790MOL0     C 6548  -1.165   0.804   6.717  0.8292  0.5245  0.2432
  790MOL0     C 6549  -1.302   0.821   6.745 -0.4934  0.0091  1.1628
  790MOL0     C 6550  -1.393   0.853   6.648  0.2697  0.6726  0.4893
  790MOL0     O 6551  -1.525   0.880   6.652 -0.1874  0.5016  0.4190
  790MOL0     C 6552  -1.599   0.829   6.773 -0.0762 -0.0593 -0.2328
  790MOL0     C 6553  -1.749   0.810   6.739  0.1226 -0.1049 -0.1062
  790MOL0     C 6554  -1.822   0.940   6.687 -0.2130 -0.1856 -0.6061
  790MOL0     C 6555  -1.854   1.034   6.802  0.4362 -1.0790  0.7321
  790MOL0     C 6556  -1.973   1.138   6.770 -0.1549  1.0285 -0.0107
  790MOL0     C 6557  -1.994   1.229   6.888 -0.2356 -0.3619  0.1019
  790MOL0     C 6558  -2.086   1.172   6.998 -0.3865  0.9401 -0.8429
  790MOL0     C 6559  -2.052   1.242   7.132 -0.5667  1.4376 -0.4194
  790MOL0    Cl 6560  -2.102   1.412   7.133  0.0717 -0.1174  0.4258
  790MOL0     C 6561  -1.342   0.853   6.515 -0.0729 -0.1241  0.1110
  790MOL0     C 6562  -1.202   0.824   6.481 -0.2108 -0.5203  0.2078
  790MOL0     O 6563  -0.880   0.933   6.663 -0.4151  0.3803 -0.4693
  790MOL0     C 6564  -0.782   0.594   6.650 -0.4389  0.0857  0.7420
  790MOL0     C 6565  -0.678   0.505   6.668  0.5973 -1.1716  0.2889
  790MOL0     N 6566   0.037   0.574   6.949 -0.2639  0.0765 -0.2924
  790MOL0     N 6567   0.128   0.532   7.032  0.3844  0.1626 -0.0787
  790MOL0     C 6568   1.347   0.477   7.196 -0.5142 -0.0376  0.6005
  790MOL0     C 6569   1.471   0.440   7.247 -0.0915 -0.4457 -0.0699
  790MOL0     C 6570   1.904   0.289   7.314 -0.2750 -0.3387  0.4506
  790MOL0     C 6571   1.999   0.352   7.393 -0.0563  0.1317  0.2171
  790MOL0     C 6572   2.132   0.322   7.381  1.4525 -0.1905 -0.6554
  790MOL0     C 6573   2.178   0.226   7.281  0.2561  0.1281 -0.1926
  790MOL0     O 6574   2.308   0.190   7.253  0.1381 -0.0264  0.4297
  790MOL0     C 6575   2.409   0.235   7.352 -0.9138 -0.0549 -0.8110
  790MOL0     C 6576   2.541   0.147   7.326  0.3680  0.5859  0.8706
  790MOL0     C 6577   2.511  -0.003   7.363  0.5817  0.3725  0.5328
  790MOL0     C 6578   2.620  -0.094   7.307  0.1997 -0.4552  0.5495
  790MOL0     C 6579   2.720  -0.112   7.403 -0.2312 -0.6570 -0.2570
  790MOL0     C 6580   2.808  -0.120   7.480  0.4829  0.5559  0.6062
  790MOL0     C 6581   2.081   0.161   7.211 -0.4514  0.6435 -0.5440
  790MOL0     C 6582   1.951   0.189   7.222  0.0758  0.1004 -0.3502
  790MOL0     H 6583   1.534   0.172   7.052 -2.7159 -1.3428 -0.9729
  790MOL0     H 6584   1.311   0.225   6.959  0.0094 -0.8094 -0.4694
  790MOL0     H 6585   1.194   0.528   6.869 -0.2158  1.3672  1.6659
  790MOL0     H 6586   1.150   0.360   6.878 -0.6101  0.5387  0.1010
  790MOL0     H 6587   0.948   0.554   6.974 -2.5084 -1.9669 -0.6063
  790MOL0     H 6588   0.987   0.562   6.805  0.4822 -1.1077 -1.3592
  790MOL0     H 6589   0.891   0.333   6.774  1.4471  0.9598 -0.9654
  790MOL0     H 6590   0.932   0.293   6.940  1.3936 -1.5756 -1.8849
  790MOL0     H 6591   0.766   0.431   7.026  2.2734  0.3684 -0.3999
  790MOL0     H 6592   0.723   0.499   6.873 -2.6495 -0.0488  0.7727
  790MOL0     H 6593   0.634   0.273   6.796 -1.5280 -1.4246  0.6336
  790MOL0     H 6594   0.726   0.189   6.929 -1.5165  0.1105  6.7384
  790MOL0     H 6595   0.507   0.187   6.996 -0.2159  0.2794 -2.0887
  790MOL0     H 6596   0.583   0.317   7.091 -1.1704  0.4758  0.6984
  790MOL0     H 6597   0.479   0.489   6.967  1.1206 -0.7088  0.7610
  790MOL0     H 6598   0.427   0.390   6.838 -0.0140 -1.9826 -0.9305
  790MOL0     H 6599   0.322   0.398   7.130 -2.1182 -0.9792  0.1819
  790MOL0     H 6600   0.303   0.258   7.039  0.5822 -0.3642 -1.9251
  790MOL0     H 6601   0.163   0.310   6.797  1.4137  1.8140 -3.0198
  790MOL0     H 6602  -0.098   0.594   6.716  0.1508 -0.1443 -0.5784
  790MOL0     H 6603  -0.012   0.452   6.628 -1.8361 -0.2828 -0.8128
  790MOL0     H 6604  -0.228   0.449   6.832  1.7881  3.4079 -1.1444
  790MOL0     H 6605  -0.117   0.315   6.822  1.8497  0.3510 -0.6109
  790MOL0     H 6606  -0.315   0.247   6.682  0.9855 -0.4276  1.2765
  790MOL0     H 6607  -0.200   0.306   6.560 -1.1287 -0.2089 -0.5674
  790MOL0     H 6608  -0.413   0.383   6.512 -0.3417  1.5702 -0.2324
  790MOL0     H 6609  -0.320   0.523   6.547  1.1164 -0.1467 -0.7991
  790MOL0     H 6610  -0.425   0.723   6.628  0.3604 -0.1294 -0.8239
  790MOL0     H 6611  -0.508   0.914   6.500 -0.2735 -3.4383 -0.8057
  790MOL0     H 6612  -0.686   0.967   6.504  0.4742  1.4914 -0.3395
  790MOL0     H 6613  -0.572   0.979   6.642  0.1351 -0.1771 -0.8442
  790MOL0     H 6614  -1.094   0.786   6.796  1.2765  2.4883  0.3457
  790MOL0     H 6615  -1.332   0.823   6.850 -4.6182  1.2568  0.1394
  790MOL0     H 6616  -1.556   0.736   6.809 -2.0380  0.4334  4.1498
  790MOL0     H 6617  -1.580   0.896   6.858  0.5161 -2.0225  1.2426
  790MOL0     H 6618  -1.739   0.754   6.645  1.5815  0.4531 -0.3177
  790MOL0     H 6619  -1.806   0.750   6.810 -1.6759  0.0120 -1.3797
  790MOL0     H 6620  -1.911   0.912   6.630 -0.8010 -0.6437  0.5009
  790MOL0     H 6621  -1.749   0.988   6.621 -0.3996 -0.2172 -0.8355
  790MOL0     H 6622  -1.885   0.978   6.891  0.3480  0.3097  1.5997
  790MOL0     H 6623  -1.762   1.091   6.820 -0.6517  1.4210 -1.0370
  790MOL0     H 6624  -2.064   1.083   6.745  1.2756 -1.5302  0.0149
  790MOL0     H 6625  -1.944   1.202   6.687  1.3306 -2.1151 -2.1397
  790MOL0     H 6626  -1.896   1.261   6.924  0.9328 -3.3032 -0.1818
  790MOL0     H 6627  -2.039   1.322   6.850  1.8560  0.2664 -0.9849
  790MOL0     H 6628  -2.060   1.066   7.007 -0.1328  0.9289 -1.6453
  790MOL0     H 6629  -2.194   1.183   6.982 -0.3646  2.3899 -0.1054
  790MOL0     H 6630  -1.944   1.237   7.150 -0.5132 -2.5475 -0.8974
  790MOL0     H 6631  -2.093   1.195   7.222  2.5602 -0.6708  0.0637
  790MOL0     H 6632  -1.417   0.871   6.438  1.1160  0.9265 -0.8459
  790MOL0     H 6633  -1.171   0.830   6.377  0.0748  0.7059  0.3404
  790MOL0     H 6634  -0.870   0.538   6.679  1.5484 -1.7036  3.9580
  790MOL0     H 6635  -0.707   0.404   6.696  1.0901 -1.5328 -0.4599
  790MOL0     H 6636   1.288   0.562   7.230 -2.0531  0.9088 -3.8079
  790MOL0     H 6637   1.512   0.508   7.322 -1.4950 -0.1017  0.4017
  790MOL0     H 6638   1.974   0.442   7.449 -3.0464  1.2738 -2.6095
  790MOL0     H 6639   2.202   0.384   7.435  1.7838 -1.5024  0.4752
  790MOL0     H 6640   2.441   0.339   7.344  1.7212 -0.8510 -1.7809
  790MOL0     H 6641   2.376   0.222   7.455 -0.4819  1.8989 -0.3881
  790MOL0     H 6642   2.633   0.175   7.378  1.5221 -2.5503  0.7142
  790MOL0     H 6643   2.563   0.155   7.219  1.2951 -1.7740  0.8330
  790MOL0     H 6644   2.423  -0.031   7.304  1.2173 -2.6505  0.8636
  790MOL0     H 6645   2.482  -0.013   7.468 -0.3975  0.9098  0.3264
  790MOL0     H 6646   2.668  -0.045   7.221 -0.2606 -0.2596  0.3997
  790MOL0     H 6647   2.577  -0.191   7.279 -0.0666 -0.2137  0.1061
  790MOL0     H 6648   2.893  -0.136   7.544  0.1304 -0.7205  0.7917
  790MOL0     H 6649   2.112   0.091   7.134 -0.9124  2.0675 -2.0890
  790MOL0     H 6650   1.884   0.139   7.152  0.8799 -0.2117 -0.9113
  791MOL0     O 6651   1.652   1.687   0.506 -0.5766 -0.7610  0.8405
  791MOL0     C 6652   1.634   1.670   0.627 -0.7452  0.1796 -0.1446
  791MOL0     O 6653   1.517   1.619   0.687  0.5888  0.2703 -0.1220
  791MOL0     C 6654   1.409   1.587   0.612  0.5919  0.4029  0.7393
  791MOL0     C 6655   1.298   1.599   0.689 -0.0349  0.5805  0.5847
  791MOL0     C 6656   1.170   1.569   0.648  0.1482  0.2304  0.4210
  791MOL0     C 6657   1.153   1.532   0.515  0.6608 -0.1584 -0.9370
  791MOL0     O 6658   1.024   1.499   0.469  0.3954  0.2283 -0.0241
  791MOL0     C 6659   0.911   1.570   0.518 -0.5720 -0.3687  0.3821
  791MOL0     C 6660   0.845   1.485   0.630  0.5728 -0.8087  0.0793
  791MOL0     C 6661   0.730   1.569   0.703 -0.0725 -0.4125 -0.5442
  791MOL0     C 6662   0.687   1.490   0.830 -0.0732 -0.1605  1.2156
  791MOL0     C 6663   0.562   1.555   0.887  0.7614 -0.4423  0.5153
  791MOL0     C 6664   0.431   1.519   0.816  0.2628  0.5340 -0.2826
  791MOL0     C 6665   0.318   1.574   0.894 -0.2125 -0.2794  0.1338
  791MOL0     C 6666   0.292   1.724   0.855  0.3932  0.4934 -0.6108
  791MOL0     N 6667   0.218   1.742   0.729 -1.0832 -0.8911 -0.2619
  791MOL0     C 6668   0.086   1.755   0.711  0.8863  0.0155 -0.3648
  791MOL0     C 6669   0.077   1.764   0.574 -0.4793 -0.0435  0.0476
  791MOL0     C 6670  -0.047   1.761   0.492  0.1731  0.6851  0.2287
  791MOL0     C 6671  -0.083   1.899   0.428  0.0632 -0.5751 -0.5184
  791MOL0     C 6672  -0.172   1.890   0.304 -0.1069  0.6613 -1.2830
  791MOL0     C 6673  -0.310   1.866   0.350  0.1222 -0.7455  1.0729
  791MOL0     O 6674  -0.391   1.866   0.231 -1.1274 -0.2066 -0.3660
  791MOL0     C 6675  -0.524   1.862   0.254 -0.0176  0.6321 -0.0535
  791MOL0     C 6676  -0.589   1.950   0.341  0.3226 -0.5116 -0.3528
  791MOL0     C 6677  -0.726   1.950   0.355 -0.4176 -0.8266 -0.7465
  791MOL0     C 6678  -0.776   2.059   0.443  0.5079 -0.3977  0.0789
  791MOL0     C 6679  -0.804   1.846   0.293  0.0113 -0.1970  1.0123
  791MOL0     C 6680  -0.946   1.816   0.306 -0.6749 -0.7839 -0.1366
  791MOL0     O 6681  -1.009   1.722   0.230 -0.6843  0.0072 -0.8209
  791MOL0     C 6682  -1.141   1.697   0.257 -0.7489  0.3422 -0.1800
  791MOL0     C 6683  -1.231   1.745   0.157 -0.2501 -0.5130 -0.0104
  791MOL0     C 6684  -1.364   1.702   0.166 -0.1622 -0.2834 -0.2397
  791MOL0     C 6685  -1.408   1.621   0.271  0.5248  0.4077 -1.0795
  791MOL0     O 6686  -1.527   1.565   0.294  0.2500  0.4160 -0.4882
  791MOL0     C 6687  -1.636   1.603   0.209  0.3587 -0.5668  0.0079
  791MOL0     C 6688  -1.689   1.743   0.253  0.0086  0.3711 -0.0823
  791MOL0     C 6689  -1.751   1.734   0.398 -0.3161 -0.3902 -0.4700
  791MOL0     C 6690  -1.899   1.693   0.398  0.3766 -0.2049  0.4327
  791MOL0     C 6691  -1.942   1.618   0.529  0.0537 -0.2443  0.3788
  791MOL0     C 6692  -2.097   1.576   0.522 -0.5704  0.0658 -0.7816
  791MOL0     C 6693  -2.184   1.690   0.459  0.2264  0.1616  0.0226
  791MOL0     C 6694  -2.331   1.660   0.469  0.5110 -0.9468 -0.1049
  791MOL0    Cl 6695  -2.402   1.667   0.623 -0.0866 -0.3412  0.3016
  791MOL0     C 6696  -1.321   1.590   0.370 -1.0528 -0.1227 -0.3274
  791MOL0     C 6697  -1.181   1.616   0.367 -0.9040 -0.1645 -0.8467
  791MOL0     O 6698  -0.999   1.872   0.405  0.0385  0.0942 -0.1288
  791MOL0     C 6699  -0.739   1.756   0.193  0.7858 -0.4103 -0.4516
  791MOL0     C 6700  -0.598   1.767   0.175 -0.2663  0.3735 -0.1197
  791MOL0     N 6701   0.208   1.761   0.511 -0.0003 -0.0342 -0.2526
  791MOL0     N 6702   0.281   1.762   0.617  0.6602  0.4421 -0.1232
  791MOL0     C 6703   1.267   1.505   0.441 -0.2788  0.5053 -1.4475
  791MOL0     C 6704   1.396   1.534   0.484 -0.4187  0.5086 -0.0300
  791MOL0     C 6705   1.748   1.696   0.716 -0.2175 -0.1902  0.5092
  791MOL0     C 6706   1.830   1.816   0.697  0.2935  1.0834 -0.4248
  791MOL0     C 6707   1.925   1.851   0.800  0.3905  0.3698  0.9306
  791MOL0     C 6708   1.950   1.773   0.910 -0.7871 -0.1301  0.3145
  791MOL0     O 6709   2.055   1.795   1.001  0.2784 -0.1384  0.4611
  791MOL0     C 6710   2.031   1.770   1.140 -0.0226  0.7493  0.0182
  791MOL0     C 6711   2.164   1.812   1.220  0.6977 -0.3235 -0.1694
  791MOL0     C 6712   2.189   1.756   1.359 -0.2645  0.4552  0.7850
  791MOL0     C 6713   2.320   1.807   1.413  0.4893 -0.6145  0.0087
  791MOL0     C 6714   2.436   1.776   1.318  0.0888  0.2136  0.6166
  791MOL0     C 6715   2.517   1.749   1.231  0.6940  0.0291  0.4647
  791MOL0     C 6716   1.871   1.655   0.931  1.1325 -0.4428 -0.2905
  791MOL0     C 6717   1.774   1.621   0.838 -0.3048  0.6774  0.0956
  791MOL0     H 6718   1.306   1.648   0.786 -1.6934  0.4383  0.8305
  791MOL0     H 6719   1.104   1.590   0.731 -3.2810  0.2292 -2.1120
  791MOL0     H 6720   0.943   1.667   0.558 -0.0721 -0.4018  0.0583
  791MOL0     H 6721   0.844   1.601   0.437 -0.0925 -0.0599  0.0966
  791MOL0     H 6722   0.803   1.395   0.586 -0.1381 -0.4298 -0.0246
  791MOL0     H 6723   0.924   1.469   0.705  2.0923 -1.5126 -1.6064
  791MOL0     H 6724   0.758   1.672   0.724 -1.4833  0.3705 -2.2510
  791MOL0     H 6725   0.656   1.573   0.622  1.2328 -3.5983 -2.0824
  791MOL0     H 6726   0.670   1.385   0.802 -3.3300  0.0923  1.7799
  791MOL0     H 6727   0.761   1.490   0.910  2.2899 -0.3297 -0.8658
  791MOL0     H 6728   0.550   1.531   0.993  1.5649  0.5774  0.8597
  791MOL0     H 6729   0.574   1.664   0.889 -4.9692  0.5131 -0.7946
  791MOL0     H 6730   0.449   1.553   0.714  3.2459  2.7002  0.8332
  791MOL0     H 6731   0.410   1.413   0.799  1.4641 -0.4750  3.4633
  791MOL0     H 6732   0.222   1.523   0.880  0.6925 -1.8681 -0.6654
  791MOL0     H 6733   0.341   1.571   1.001 -2.1690  2.7458  0.7497
  791MOL0     H 6734   0.385   1.780   0.855  1.8987 -1.8358 -1.7920
  791MOL0     H 6735   0.223   1.765   0.930 -0.4807  0.8470 -1.5779
  791MOL0     H 6736   0.010   1.740   0.787  3.5751 -2.6077  2.0880
  791MOL0     H 6737  -0.023   1.685   0.416 -0.5061  2.5554 -1.9787
  791MOL0     H 6738  -0.131   1.730   0.555 -1.9174  0.6856 -2.3722
  791MOL0     H 6739   0.013   1.936   0.391 -0.5713  1.0328 -0.6505
  791MOL0     H 6740  -0.119   1.977   0.495 -0.3475 -0.4631 -0.8639
  791MOL0     H 6741  -0.150   1.829   0.216 -1.2946 -1.1624 -0.3708
  791MOL0     H 6742  -0.166   1.994   0.270  2.2281  0.6097 -1.2124
  791MOL0     H 6743  -0.337   1.944   0.422 -0.0504  1.0349 -0.8271
  791MOL0     H 6744  -0.319   1.773   0.406  2.0881 -2.1386 -0.7724
  791MOL0     H 6745  -0.534   2.019   0.404  0.2709  0.8129 -1.6958
  791MOL0     H 6746  -0.791   2.016   0.543 -3.5916  1.4886  0.4492
  791MOL0     H 6747  -0.701   2.138   0.448  0.8977 -0.6871 -0.9356
  791MOL0     H 6748  -0.873   2.092   0.407  0.7351  2.3304  1.7359
  791MOL0     H 6749  -1.212   1.823   0.083 -0.9575  2.0223  2.3248
  791MOL0     H 6750  -1.429   1.740   0.088 -0.5981 -0.4897  0.0189
  791MOL0     H 6751  -1.599   1.595   0.106 -1.6036  0.6844 -0.8590
  791MOL0     H 6752  -1.722   1.536   0.212 -2.0986  2.1871 -2.3056
  791MOL0     H 6753  -1.610   1.816   0.235  1.1066 -1.1646 -1.7880
  791MOL0     H 6754  -1.771   1.774   0.187 -1.0558  0.0457  1.0396
  791MOL0     H 6755  -1.745   1.829   0.452  0.2564 -0.6316 -0.0905
  791MOL0     H 6756  -1.690   1.678   0.470 -1.2154  1.8339  2.2138
  791MOL0     H 6757  -1.960   1.783   0.389  0.5353 -0.2327 -1.1259
  791MOL0     H 6758  -1.921   1.639   0.305  2.6427 -0.7161  0.1410
  791MOL0     H 6759  -1.909   1.679   0.614  2.1428 -0.0795 -0.4882
  791MOL0     H 6760  -1.880   1.528   0.536 -0.4471 -1.0150 -3.2254
  791MOL0     H 6761  -2.123   1.482   0.474 -0.5673  0.7146 -2.0790
  791MOL0     H 6762  -2.134   1.576   0.625  0.4051 -0.3051 -0.4113
  791MOL0     H 6763  -2.147   1.687   0.357  0.7204 -1.1713  0.2099
  791MOL0     H 6764  -2.168   1.790   0.501  0.9380 -0.0787  0.3461
  791MOL0     H 6765  -2.350   1.560   0.429  1.7792 -0.7534 -1.2756
  791MOL0     H 6766  -2.382   1.735   0.407  1.4092  0.6999  1.0620
  791MOL0     H 6767  -1.370   1.537   0.450  1.3867 -4.6715 -1.4830
  791MOL0     H 6768  -1.113   1.587   0.446 -0.1809  0.9722 -1.0306
  791MOL0     H 6769  -0.809   1.688   0.148 -0.8181  1.3948 -0.8230
  791MOL0     H 6770  -0.546   1.703   0.104 -0.9534  0.0718 -0.3582
  791MOL0     H 6771   1.247   1.468   0.341 -1.7000 -1.6997 -0.4198
  791MOL0     H 6772   1.483   1.502   0.428  0.9339  1.6283  1.3707
  791MOL0     H 6773   1.816   1.878   0.610  1.6261  2.4814  0.3113
  791MOL0     H 6774   1.989   1.937   0.783  3.6370 -2.0699 -0.3942
  791MOL0     H 6775   1.945   1.830   1.171  0.3498  1.5314 -0.4200
  791MOL0     H 6776   2.016   1.665   1.169  0.0099  0.4941 -0.8529
  791MOL0     H 6777   2.163   1.920   1.234 -0.9399  0.2298 -3.5279
  791MOL0     H 6778   2.248   1.781   1.156  1.8518  1.7380  0.2674
  791MOL0     H 6779   2.192   1.647   1.362 -1.5616  0.0821 -4.0363
  791MOL0     H 6780   2.112   1.780   1.433  0.6719  1.2532  1.5335
  791MOL0     H 6781   2.356   1.774   1.511 -0.4552  2.5890  1.5793
  791MOL0     H 6782   2.303   1.914   1.427  3.4030  0.1488 -1.4633
  791MOL0     H 6783   2.591   1.746   1.153  2.2480  3.3266  1.6397
  791MOL0     H 6784   1.893   1.582   1.008 -2.8931  0.0357  1.5587
  791MOL0     H 6785   1.711   1.533   0.842 -0.5258  0.8554  0.8335
  792MOL0     O 6786  10.721   9.363   5.042 -0.1444 -0.3025  0.7476
  792MOL0     C 6787  10.681   9.448   5.114 -0.1781  0.3707  0.1715
  792MOL0     O 6788  10.553   9.500   5.106  0.5226 -0.0864 -1.0820
  792MOL0     C 6789  10.460   9.477   5.007  1.6907 -0.5881 -0.1239
  792MOL0     C 6790  10.329   9.446   5.046 -0.4894  0.1885 -0.7997
  792MOL0     C 6791  10.235   9.412   4.944 -0.1071  0.3277 -0.4166
  792MOL0     C 6792  10.265   9.424   4.808  0.4907 -0.9931  0.7392
  792MOL0     O 6793  10.165   9.413   4.714 -0.1430  0.2677 -0.3647
  792MOL0     C 6794  10.190   9.458   4.571 -0.2709  0.7772  1.0954
  792MOL0     C 6795  10.060   9.481   4.504 -0.1620 -0.2444 -0.0363
  792MOL0     C 6796   9.969   9.349   4.503 -0.4246  0.1402  0.3600
  792MOL0     C 6797   9.825   9.376   4.470  0.4404 -0.2991 -0.3499
  792MOL0     C 6798   9.741   9.240   4.447  0.1556  0.8130 -0.4329
  792MOL0     C 6799   9.613   9.265   4.378 -0.2475  0.7458  0.6569
  792MOL0     C 6800   9.554   9.137   4.326 -0.7505  1.1477 -0.2924
  792MOL0     C 6801   9.558   9.018   4.431  1.3090  0.6762  0.0147
  792MOL0     N 6802   9.463   9.048   4.543  0.3082  0.5567 -0.2857
  792MOL0     C 6803   9.457   8.966   4.647  0.1534  0.4040  0.0647
  792MOL0     C 6804   9.360   9.011   4.727  0.9149  0.6621  0.4313
  792MOL0     C 6805   9.320   8.946   4.857  0.6713  0.1530 -0.9056
  792MOL0     C 6806   9.444   8.900   4.938  0.1767  0.0686  0.3150
  792MOL0     C 6807   9.398   8.840   5.068  0.0258 -0.0934  0.0418
  792MOL0     C 6808   9.524   8.788   5.149 -0.4511  0.4763 -1.8492
  792MOL0     O 6809   9.629   8.885   5.179 -0.6710  1.0679 -0.1273
  792MOL0     C 6810   9.752   8.842   5.225 -0.6395 -0.0889 -0.4934
  792MOL0     C 6811   9.830   8.938   5.280  0.3362  0.1999  0.3553
  792MOL0     C 6812   9.951   8.911   5.333 -0.2273  0.0210 -1.0289
  792MOL0     C 6813  10.030   9.039   5.359 -0.2542  1.1609  0.2143
  792MOL0     C 6814  10.001   8.786   5.357  0.2045 -0.5173  0.4646
  792MOL0     C 6815  10.118   8.749   5.435 -0.5132 -0.0229 -0.8842
  792MOL0     O 6816  10.143   8.611   5.432 -0.2445 -0.4946 -0.5641
  792MOL0     C 6817  10.259   8.555   5.488  0.8570 -0.2239  0.3552
  792MOL0     C 6818  10.319   8.605   5.605 -0.5446 -0.2630  0.3740
  792MOL0     C 6819  10.440   8.558   5.658  0.4290  0.5103  0.6732
  792MOL0     C 6820  10.502   8.454   5.577 -0.4571  0.7940 -0.4464
  792MOL0     O 6821  10.623   8.411   5.614 -0.4933  0.2724  0.7676
  792MOL0     C 6822  10.690   8.473   5.729 -0.7764  0.4955  0.4054
  792MOL0     C 6823  10.828   8.411   5.750 -0.2398  0.0166 -1.0781
  792MOL0     C 6824  10.815   8.261   5.777  0.1767  0.4381 -0.6371
  792MOL0     C 6825  10.932   8.194   5.840  0.1446  0.1435  0.9470
  792MOL0     C 6826  11.059   8.182   5.751 -0.7333  0.6671 -0.7681
  792MOL0     C 6827  11.178   8.143   5.839  0.2169  0.1020 -0.7087
  792MOL0     C 6828  11.306   8.151   5.763  0.0769 -0.3422 -0.2481
  792MOL0     C 6829  11.424   8.117   5.863  0.3898  0.0751 -0.0064
  792MOL0    Cl 6830  11.431   7.941   5.898 -0.3826  0.0889 -0.2876
  792MOL0     C 6831  10.442   8.400   5.464  0.2554 -0.6693  0.0222
  792MOL0     C 6832  10.327   8.451   5.420  0.3229  0.0340  0.3360
  792MOL0     O 6833  10.186   8.835   5.496  0.1389  0.2129 -0.7006
  792MOL0     C 6834   9.926   8.683   5.304  0.4415 -0.0714  0.8086
  792MOL0     C 6835   9.802   8.713   5.233  0.0392  0.8986 -0.9188
  792MOL0     N 6836   9.298   9.123   4.665  0.0574  0.0531  0.6779
  792MOL0     N 6837   9.375   9.149   4.571  0.3635  0.1640  0.1407
  792MOL0     C 6838  10.395   9.454   4.774 -0.0214  0.3010 -0.8838
  792MOL0     C 6839  10.487   9.469   4.873 -0.3253 -0.5399  0.1229
  792MOL0     C 6840  10.758   9.478   5.243 -0.0359  1.1519 -0.0353
  792MOL0     C 6841  10.880   9.415   5.267  0.6488  0.7198 -0.1035
  792MOL0     C 6842  10.940   9.448   5.387  0.4213 -0.2205  0.1463
  792MOL0     C 6843  10.869   9.512   5.488 -0.4889 -0.6829 -0.7011
  792MOL0     O 6844  10.936   9.526   5.605 -0.2949  0.0261 -0.0468
  792MOL0     C 6845  10.860   9.549   5.715  0.2382 -0.6336 -0.5285
  792MOL0     C 6846  10.918   9.477   5.841  0.6177 -0.2194 -0.0810
  792MOL0     C 6847  10.850   9.533   5.965 -0.6777 -0.8924  0.3716
  792MOL0     C 6848  10.861   9.440   6.088 -0.8612 -0.0047  0.7265
  792MOL0     C 6849  10.996   9.444   6.136  0.3233 -0.0909 -0.3440
  792MOL0     C 6850  11.115   9.441   6.183  1.0991 -0.5617 -0.0923
  792MOL0     C 6851  10.750   9.575   5.458  0.0345  0.6002  0.6386
  792MOL0     C 6852  10.700   9.563   5.332  0.1011 -0.9375  0.5039
  792MOL0     H 6853  10.304   9.440   5.151  1.1628 -0.9335 -0.4159
  792MOL0     H 6854  10.128   9.400   4.956 -0.3366 -1.4653 -3.2751
  792MOL0     H 6855  10.250   9.549   4.556 -1.0300  0.7353 -3.6128
  792MOL0     H 6856  10.256   9.382   4.527 -1.2483 -0.0521  1.0487
  792MOL0     H 6857  10.012   9.561   4.562 -0.1859  0.5880 -1.1751
  792MOL0     H 6858  10.068   9.514   4.400 -1.5517  0.0021 -0.0804
  792MOL0     H 6859  10.011   9.270   4.439 -1.4384 -0.3989  0.3419
  792MOL0     H 6860   9.982   9.300   4.600  0.1610 -0.2465  0.0933
  792MOL0     H 6861   9.779   9.449   4.538  3.1168  0.3915  0.8912
  792MOL0     H 6862   9.822   9.429   4.374 -1.6735  1.2039  0.4708
  792MOL0     H 6863   9.810   9.174   4.394  1.0356 -0.5353  2.1799
  792MOL0     H 6864   9.720   9.195   4.545 -0.5856  3.5615  0.7643
  792MOL0     H 6865   9.541   9.311   4.445  1.0929  2.3226  1.0808
  792MOL0     H 6866   9.617   9.326   4.287 -0.8251 -3.2877 -2.3842
  792MOL0     H 6867   9.453   9.146   4.284 -2.5618 -2.8506  2.6173
  792MOL0     H 6868   9.611   9.100   4.240 -1.9204  0.3705 -0.7587
  792MOL0     H 6869   9.658   8.992   4.466  1.9040  4.3635  1.5201
  792MOL0     H 6870   9.514   8.924   4.398  0.7231  0.6945  0.7152
  792MOL0     H 6871   9.524   8.880   4.656  1.1264  0.8902 -1.9224
  792MOL0     H 6872   9.277   9.026   4.918  3.1908  1.8889 -1.2602
  792MOL0     H 6873   9.238   8.876   4.841 -3.0481  3.1392  2.8599
  792MOL0     H 6874   9.493   8.996   4.955 -0.8444  1.1392 -2.2136
  792MOL0     H 6875   9.519   8.840   4.885  0.3164  0.4029  0.1326
  792MOL0     H 6876   9.332   8.759   5.036  0.3621  0.0169 -0.9710
  792MOL0     H 6877   9.342   8.910   5.130 -0.6803 -0.2217 -0.4396
  792MOL0     H 6878   9.577   8.700   5.113  3.6363  1.5498  0.8132
  792MOL0     H 6879   9.484   8.750   5.243 -1.8609 -2.1353 -3.3807
  792MOL0     H 6880   9.784   9.036   5.278 -1.6198 -0.6957  0.1884
  792MOL0     H 6881  10.127   9.051   5.309  0.5590 -0.1332  1.4133
  792MOL0     H 6882   9.990   9.127   5.307  3.1752  0.7341 -3.6351
  792MOL0     H 6883  10.043   9.051   5.467  2.1210 -1.5908  0.3460
  792MOL0     H 6884  10.261   8.677   5.662  3.3233  1.4203  2.5391
  792MOL0     H 6885  10.475   8.608   5.747 -0.0091  0.4549  0.8746
  792MOL0     H 6886  10.695   8.578   5.700  3.7519 -0.1106 -1.9456
  792MOL0     H 6887  10.632   8.449   5.819 -2.5918 -2.0736 -1.3180
  792MOL0     H 6888  10.884   8.424   5.657  2.2195  0.8171  0.4247
  792MOL0     H 6889  10.891   8.459   5.825  1.1530 -3.0737 -0.1033
  792MOL0     H 6890  10.791   8.222   5.677 -0.5625  1.3109 -0.8241
  792MOL0     H 6891  10.725   8.243   5.835  0.9308  1.3761  0.8793
  792MOL0     H 6892  10.956   8.238   5.937  1.6160  1.8177 -0.1225
  792MOL0     H 6893  10.896   8.093   5.863  1.1591 -0.4041  0.2363
  792MOL0     H 6894  11.088   8.279   5.709 -0.1135  1.2565  0.9249
  792MOL0     H 6895  11.058   8.113   5.666 -0.4952  1.8270 -1.7389
  792MOL0     H 6896  11.182   8.205   5.929  1.1438 -2.9588  1.5476
  792MOL0     H 6897  11.170   8.041   5.879  1.2720 -0.3560 -1.6299
  792MOL0     H 6898  11.323   8.254   5.728  2.9171 -0.2680  1.0724
  792MOL0     H 6899  11.307   8.082   5.678 -0.2104 -0.5051 -0.1198
  792MOL0     H 6900  11.392   8.178   5.948  0.9125  2.6293 -1.5306
  792MOL0     H 6901  11.523   8.142   5.825  0.3870 -3.4239 -2.7596
  792MOL0     H 6902  10.494   8.317   5.418  0.9993  0.9705 -2.2695
  792MOL0     H 6903  10.290   8.409   5.327  2.5805  0.7720 -0.9994
  792MOL0     H 6904   9.944   8.576   5.309 -2.8103 -0.6791  1.3221
  792MOL0     H 6905   9.752   8.625   5.194 -0.5695  0.3577  1.0105
  792MOL0     H 6906  10.429   9.449   4.671  1.8146  0.7204 -0.3430
  792MOL0     H 6907  10.590   9.497   4.852 -0.9528  0.9980 -1.0625
  792MOL0     H 6908  10.922   9.339   5.201 -0.4137 -0.4046  0.4576
  792MOL0     H 6909  11.037   9.401   5.404  1.0469  0.9872  0.0261
  792MOL0     H 6910  10.846   9.657   5.730 -0.2214 -0.7900  0.2221
  792MOL0     H 6911  10.761   9.503   5.712 -0.3673  0.6707 -1.6798
  792MOL0     H 6912  11.027   9.488   5.839  0.4615  2.1205  1.1882
  792MOL0     H 6913  10.902   9.369   5.829 -1.2737 -0.0467  0.5220
  792MOL0     H 6914  10.745   9.549   5.941  0.2039  2.1591 -2.0432
  792MOL0     H 6915  10.893   9.630   5.989  1.1959 -1.8722  1.1772
  792MOL0     H 6916  10.834   9.340   6.053 -1.3561  0.7201 -1.0591
  792MOL0     H 6917  10.799   9.475   6.171 -3.0646 -0.1843 -0.7716
  792MOL0     H 6918  11.219   9.453   6.206  1.6670  0.4275 -2.7899
  792MOL0     H 6919  10.697   9.624   5.538 -0.1731  2.1174 -0.3824
  792MOL0     H 6920  10.608   9.610   5.300  1.4174  0.6088 -1.1797
  793MOL0     O 6921  11.188   6.088   3.853  0.4787 -0.1401 -0.1009
  793MOL0     C 6922  11.172   6.189   3.920  0.3228 -0.6213  0.6315
  793MOL0     O 6923  11.067   6.212   4.003 -0.5411  0.2029 -0.0748
  793MOL0     C 6924  11.022   6.094   4.061  0.1118 -0.4875  0.2507
  793MOL0     C 6925  10.885   6.097   4.105 -0.3935  0.9272  0.2574
  793MOL0     C 6926  10.833   5.988   4.167 -0.8579  0.0620  0.7826
  793MOL0     C 6927  10.906   5.873   4.195  0.8588 -0.6058 -0.6997
  793MOL0     O 6928  10.854   5.771   4.272 -0.3998 -0.3816 -0.7186
  793MOL0     C 6929  10.712   5.756   4.282 -0.5630  0.9111  0.5880
  793MOL0     C 6930  10.681   5.618   4.321 -0.1603  0.1420  0.3933
  793MOL0     C 6931  10.549   5.615   4.381  1.5759  1.2329 -0.2062
  793MOL0     C 6932  10.415   5.591   4.293  0.1175  0.7138  0.0787
  793MOL0     C 6933  10.291   5.554   4.364  0.9928 -0.1937 -0.3638
  793MOL0     C 6934  10.198   5.671   4.346  0.3665 -0.7780 -0.3002
  793MOL0     C 6935  10.071   5.667   4.433  1.2115 -0.3841 -0.0511
  793MOL0     C 6936   9.992   5.798   4.396 -0.0472 -0.1351 -0.4307
  793MOL0     N 6937   9.897   5.768   4.283 -0.3634 -0.7930  0.6127
  793MOL0     C 6938   9.761   5.766   4.295  0.3287 -0.1850  0.3836
  793MOL0     C 6939   9.714   5.755   4.170 -0.2538  0.2794 -0.4959
  793MOL0     C 6940   9.570   5.750   4.120  0.3386  1.1689  0.0141
  793MOL0     C 6941   9.519   5.613   4.122 -0.3822  0.0402  0.3037
  793MOL0     C 6942   9.371   5.616   4.082 -0.4838  0.1128 -0.2720
  793MOL0     C 6943   9.308   5.473   4.074 -0.0133  0.2264 -0.1465
  793MOL0     O 6944   9.168   5.471   4.051 -0.6220 -0.2901 -0.0246
  793MOL0     C 6945   9.112   5.547   3.957  0.2155  0.5773 -0.5741
  793MOL0     C 6946   9.001   5.625   3.989  0.0380  0.8379 -1.0659
  793MOL0     C 6947   8.940   5.701   3.883 -1.4950  0.5815  0.0904
  793MOL0     C 6948   8.800   5.752   3.903 -0.1590  0.7030 -0.4191
  793MOL0     C 6949   9.012   5.725   3.763 -0.1584  0.4305  0.2039
  793MOL0     C 6950   8.973   5.809   3.650  0.3451 -0.3380 -0.4248
  793MOL0     O 6951   8.850   5.801   3.581  0.3169 -0.3045  0.2242
  793MOL0     C 6952   8.831   5.857   3.460  0.8972  0.3504  0.2828
  793MOL0     C 6953   8.921   5.927   3.378 -0.1791  0.9176  0.2596
  793MOL0     C 6954   8.885   5.982   3.251 -0.1924  0.2672  0.1463
  793MOL0     C 6955   8.754   5.961   3.208 -0.2707 -0.4241  0.5540
  793MOL0     O 6956   8.708   6.008   3.087  0.7026  0.1717  0.0025
  793MOL0     C 6957   8.665   5.908   2.993 -0.6516  0.1874  0.2664
  793MOL0     C 6958   8.686   5.966   2.862  0.1923  0.5235 -0.6881
  793MOL0     C 6959   8.626   5.871   2.759  0.6902  0.4370 -0.0488
  793MOL0     C 6960   8.643   5.933   2.619 -0.4041 -0.5331 -0.1947
  793MOL0     C 6961   8.551   5.853   2.529 -0.4471  0.0128 -0.4766
  793MOL0     C 6962   8.411   5.903   2.527 -0.0555  0.2447  0.1870
  793MOL0     C 6963   8.293   5.793   2.516 -0.4056 -0.0615  0.1959
  793MOL0     C 6964   8.270   5.745   2.371  0.4950  0.1974 -0.1779
  793MOL0    Cl 6965   8.413   5.685   2.280 -0.0923 -0.6229 -0.4801
  793MOL0     C 6966   8.662   5.896   3.288  0.6006  1.1215 -0.2143
  793MOL0     C 6967   8.701   5.853   3.413  0.5736  0.6873 -0.3387
  793MOL0     O 6968   9.058   5.889   3.619 -1.0448 -0.1754 -0.4183
  793MOL0     C 6969   9.124   5.648   3.744  0.2173  0.2757  0.4459
  793MOL0     C 6970   9.171   5.557   3.834 -0.4040  0.0582  0.1807
  793MOL0     N 6971   9.820   5.743   4.082  0.2052 -0.2570  0.0894
  793MOL0     N 6972   9.926   5.745   4.153  0.1900 -0.0795  0.0218
  793MOL0     C 6973  11.038   5.875   4.167 -0.6844 -0.5066 -0.6557
  793MOL0     C 6974  11.096   5.982   4.102  0.4961 -0.1551 -0.8097
  793MOL0     C 6975  11.260   6.302   3.884 -0.4090  0.1784 -0.4452
  793MOL0     C 6976  11.400   6.286   3.865 -0.2692 -0.0546 -0.9907
  793MOL0     C 6977  11.493   6.400   3.859 -0.5555  0.5205 -0.8581
  793MOL0     C 6978  11.445   6.530   3.864 -0.4439 -0.1981 -0.1621
  793MOL0     O 6979  11.527   6.641   3.848 -0.0421  0.0916 -0.1158
  793MOL0     C 6980  11.669   6.644   3.835  0.6658  0.0906  0.4669
  793MOL0     C 6981  11.710   6.609   3.688  0.0240 -0.1248  0.6330
  793MOL0     C 6982  11.693   6.729   3.595 -1.0745  0.3602  0.3921
  793MOL0     C 6983  11.736   6.721   3.454  0.7757 -0.5094  0.3624
  793MOL0     C 6984  11.630   6.661   3.366  0.9712 -0.4054  1.0373
  793MOL0     C 6985  11.534   6.612   3.307 -0.6590  0.4250  0.1217
  793MOL0     C 6986  11.306   6.545   3.891 -0.1803 -0.1313 -0.0982
  793MOL0     C 6987  11.222   6.431   3.902 -0.1530 -0.8677  0.9410
  793MOL0     H 6988  10.822   6.182   4.082 -1.6077  0.4842  1.7838
  793MOL0     H 6989  10.735   5.996   4.213 -0.2096  2.0250  1.9671
  793MOL0     H 6990  10.673   5.833   4.350  1.3879  1.2728  1.3590
  793MOL0     H 6991  10.673   5.771   4.181 -0.5189  0.2634  0.4754
  793MOL0     H 6992  10.690   5.559   4.229  0.4529  1.4901 -0.4383
  793MOL0     H 6993  10.750   5.573   4.394 -0.3772  0.0616  0.5502
  793MOL0     H 6994  10.552   5.538   4.458  1.2757 -1.2148 -2.5106
  793MOL0     H 6995  10.523   5.705   4.438  1.4781  1.0635  0.0180
  793MOL0     H 6996  10.405   5.678   4.227 -0.1545  0.5447 -0.1055
  793MOL0     H 6997  10.435   5.509   4.223 -3.0692  1.5371 -2.0391
  793MOL0     H 6998  10.241   5.468   4.318 -0.8896  0.6452  0.0008
  793MOL0     H 6999  10.314   5.527   4.468  1.7297 -0.4575 -0.5884
  793MOL0     H 7000  10.248   5.759   4.388 -1.3974 -1.5274  3.9701
  793MOL0     H 7001  10.175   5.699   4.243 -1.4028 -0.3344  0.1725
  793MOL0     H 7002  10.009   5.579   4.414  0.7091 -0.0521  0.0512
  793MOL0     H 7003  10.105   5.663   4.537  2.4329  0.4938 -0.3984
  793MOL0     H 7004  10.058   5.881   4.369  1.4221 -1.9804 -3.0150
  793MOL0     H 7005   9.926   5.821   4.480 -1.0524 -0.9482 -0.9753
  793MOL0     H 7006   9.692   5.762   4.378 -0.9982 -1.8212 -0.7226
  793MOL0     H 7007   9.509   5.808   4.190 -0.6195  0.5952 -0.3269
  793MOL0     H 7008   9.563   5.784   4.016 -1.2287  1.5397  0.2143
  793MOL0     H 7009   9.515   5.571   4.223 -1.3365 -3.2033 -0.9443
  793MOL0     H 7010   9.566   5.550   4.047  1.8669  2.3933 -0.4005
  793MOL0     H 7011   9.360   5.667   3.986 -1.0061  0.7594  0.1252
  793MOL0     H 7012   9.318   5.675   4.157  1.2196 -0.9190  1.8623
  793MOL0     H 7013   9.316   5.438   4.177 -0.0393 -0.8860 -0.5077
  793MOL0     H 7014   9.365   5.405   4.011 -2.2792 -0.6470 -1.3636
  793MOL0     H 7015   8.952   5.627   4.086  1.9662  0.5291 -0.0212
  793MOL0     H 7016   8.779   5.735   4.009  1.3577 -2.2217 -0.4733
  793MOL0     H 7017   8.802   5.858   3.878  1.3847  0.3000 -2.2064
  793MOL0     H 7018   8.727   5.699   3.842 -1.2061  1.6594 -0.0389
  793MOL0     H 7019   9.028   5.941   3.394  0.3660  0.5828 -2.4554
  793MOL0     H 7020   8.956   6.031   3.184 -0.8174 -0.2353 -0.9028
  793MOL0     H 7021   8.720   5.815   3.009  1.2864  1.2961  0.2811
  793MOL0     H 7022   8.558   5.900   3.014 -0.7150  1.6802  0.6149
  793MOL0     H 7023   8.625   6.057   2.864  0.7203  0.9803 -2.6903
  793MOL0     H 7024   8.791   5.990   2.843  1.1654 -1.9358  1.0582
  793MOL0     H 7025   8.520   5.847   2.768  0.2980  1.7976 -0.7717
  793MOL0     H 7026   8.669   5.770   2.763  0.0943  0.1631 -0.3653
  793MOL0     H 7027   8.619   6.039   2.606 -1.3163 -0.6163  0.7189
  793MOL0     H 7028   8.746   5.927   2.580 -0.5033  0.3804 -0.6281
  793MOL0     H 7029   8.562   5.748   2.557  2.1672  0.3543  0.0961
  793MOL0     H 7030   8.590   5.864   2.428  2.4877  2.4183  0.7248
  793MOL0     H 7031   8.386   5.975   2.606 -0.4084  0.4613 -0.1189
  793MOL0     H 7032   8.419   5.958   2.433  0.4165 -0.2982 -0.0978
  793MOL0     H 7033   8.200   5.835   2.556 -0.6379 -1.8406  1.6230
  793MOL0     H 7034   8.319   5.717   2.590 -0.0371 -0.3879 -0.2656
  793MOL0     H 7035   8.243   5.827   2.305  3.3081  1.7167  0.3910
  793MOL0     H 7036   8.182   5.680   2.375 -2.5361  3.9568  0.2562
  793MOL0     H 7037   8.557   5.886   3.262  0.7397 -2.2073  0.1023
  793MOL0     H 7038   8.622   5.808   3.472  1.2644  0.2094  0.2419
  793MOL0     H 7039   9.177   5.644   3.649  0.5808 -0.9189  0.6882
  793MOL0     H 7040   9.259   5.505   3.798 -0.8604 -0.7663  0.2211
  793MOL0     H 7041  11.106   5.793   4.187 -0.3971  0.0532  0.7498
  793MOL0     H 7042  11.204   5.990   4.088  0.6762  0.5724  0.7528
  793MOL0     H 7043  11.427   6.181   3.859  0.5658  0.1990 -1.8779
  793MOL0     H 7044  11.595   6.374   3.833 -0.2879 -0.2688  0.8243
  793MOL0     H 7045  11.701   6.746   3.856 -1.5973  0.6115  1.6433
  793MOL0     H 7046  11.710   6.575   3.910 -0.5099  0.8751  1.8650
  793MOL0     H 7047  11.649   6.528   3.647 -3.5200  2.3497  0.5025
  793MOL0     H 7048  11.815   6.582   3.676 -0.1333 -1.6478  2.2512
  793MOL0     H 7049  11.742   6.818   3.636 -0.7827  0.4877 -0.2138
  793MOL0     H 7050  11.586   6.748   3.604 -1.3394 -0.7468 -0.3079
  793MOL0     H 7051  11.826   6.663   3.433  1.7562  0.9652  0.3389
  793MOL0     H 7052  11.753   6.822   3.414  2.2212 -1.1855 -0.8190
  793MOL0     H 7053  11.456   6.568   3.247  0.1644 -2.0844  0.7667
  793MOL0     H 7054  11.258   6.642   3.901  0.1783  0.2145 -1.5099
  793MOL0     H 7055  11.119   6.453   3.929  0.6436  1.4916  2.3400
  794MOL0     O 7056   6.763   1.325   8.135 -0.4042 -0.0321  0.4013
  794MOL0     C 7057   6.827   1.231   8.186  0.2416  0.7751  0.3494
  794MOL0     O 7058   6.817   1.093   8.148  0.3439 -0.0183  0.1723
  794MOL0     C 7059   6.759   1.073   8.028  1.0623  0.3198 -0.0970
  794MOL0     C 7060   6.625   1.031   8.034  0.3378  0.2691 -0.6131
  794MOL0     C 7061   6.561   0.988   7.924 -0.1743 -0.6581  0.6480
  794MOL0     C 7062   6.628   0.983   7.797  0.7277  0.1508  0.4576
  794MOL0     O 7063   6.564   0.940   7.676 -0.3181  0.0278 -0.2782
  794MOL0     C 7064   6.419   0.937   7.660 -0.2596 -0.1949 -0.7217
  794MOL0     C 7065   6.370   0.995   7.519 -0.4699 -0.5122  0.0844
  794MOL0     C 7066   6.215   1.007   7.497 -0.3398 -0.4459  0.1507
  794MOL0     C 7067   6.200   1.011   7.346 -0.8593  0.2618  0.3231
  794MOL0     C 7068   6.183   0.879   7.274  0.1738 -0.3338  0.6437
  794MOL0     C 7069   6.143   0.880   7.123  0.7095 -0.1376  0.2577
  794MOL0     C 7070   5.991   0.848   7.087  0.7375 -0.1612  0.2091
  794MOL0     C 7071   5.949   0.704   7.088 -0.3028 -1.0102 -0.3245
  794MOL0     N 7072   5.806   0.699   7.139 -1.0644 -0.5183 -0.1129
  794MOL0     C 7073   5.753   0.695   7.266  0.6723 -0.0870  0.1198
  794MOL0     C 7074   5.620   0.660   7.258  0.8460 -0.1529  0.7966
  794MOL0     C 7075   5.543   0.616   7.380 -0.5952 -0.4796 -0.7459
  794MOL0     C 7076   5.397   0.648   7.368  0.1978 -0.3893  0.1619
  794MOL0     C 7077   5.349   0.802   7.361 -0.5996 -0.0146  0.5680
  794MOL0     C 7078   5.420   0.894   7.464 -0.4183 -1.1401 -0.0537
  794MOL0     O 7079   5.540   0.930   7.411 -0.3327 -0.3191  0.3887
  794MOL0     C 7080   5.620   1.008   7.491  0.0093  0.5083  0.4179
  794MOL0     C 7081   5.595   1.028   7.628 -0.2974 -0.4809 -0.1509
  794MOL0     C 7082   5.692   1.099   7.703 -0.5372 -0.8967 -0.9048
  794MOL0     C 7083   5.672   1.106   7.852  0.5947  0.3770  0.1836
  794MOL0     C 7084   5.814   1.154   7.644 -0.2714 -1.1408 -0.4458
  794MOL0     C 7085   5.924   1.224   7.709 -0.6858 -0.2843  0.3990
  794MOL0     O 7086   5.999   1.325   7.637  0.0764  0.3788  0.1116
  794MOL0     C 7087   6.094   1.388   7.721  0.3501  0.1198  0.9654
  794MOL0     C 7088   6.212   1.324   7.774 -0.2792  0.6149  0.4843
  794MOL0     C 7089   6.297   1.397   7.854 -0.8700 -1.1211 -0.1027
  794MOL0     C 7090   6.290   1.534   7.875  0.8028 -0.0740  0.0399
  794MOL0     O 7091   6.379   1.614   7.937 -0.8027  1.0066  0.2947
  794MOL0     C 7092   6.511   1.553   7.972  0.6943 -0.2420  0.4663
  794MOL0     C 7093   6.606   1.652   8.045 -0.1654  0.4597  0.4666
  794MOL0     C 7094   6.574   1.661   8.192  0.8093  0.6524 -0.6044
  794MOL0     C 7095   6.670   1.765   8.258  0.3319 -0.0934  0.2717
  794MOL0     C 7096   6.659   1.789   8.404  1.1644  0.6505 -0.0861
  794MOL0     C 7097   6.778   1.853   8.470 -0.0364 -0.2795  0.2322
  794MOL0     C 7098   6.763   1.871   8.618 -0.1432  0.7631  0.3893
  794MOL0     C 7099   6.878   1.938   8.696  0.1736 -0.0892  0.0184
  794MOL0    Cl 7100   7.025   1.859   8.670 -0.2990 -0.1040  0.0707
  794MOL0     C 7101   6.177   1.599   7.826 -0.9322 -0.4618  0.0026
  794MOL0     C 7102   6.080   1.522   7.756 -0.0615  0.3434  1.0704
  794MOL0     O 7103   5.941   1.195   7.827  0.3838 -0.0157 -0.0301
  794MOL0     C 7104   5.835   1.134   7.509  0.1275 -0.9028  0.4148
  794MOL0     C 7105   5.737   1.062   7.435 -0.0678 -0.2065  0.3598
  794MOL0     N 7106   5.605   0.626   7.125 -0.2903 -0.0536  0.1017
  794MOL0     N 7107   5.713   0.656   7.049 -0.0336  0.4660  0.0563
  794MOL0     C 7108   6.767   1.009   7.794  0.2042  0.9035 -0.0802
  794MOL0     C 7109   6.825   1.062   7.909 -0.1203 -0.2974  0.4730
  794MOL0     C 7110   6.912   1.272   8.304 -0.3805 -0.0867  1.0403
  794MOL0     C 7111   7.020   1.198   8.350 -0.5568 -0.4040  0.5520
  794MOL0     C 7112   7.089   1.240   8.459  0.2634 -0.3591 -0.0793
  794MOL0     C 7113   7.055   1.349   8.533 -0.9911  0.6109 -0.9085
  794MOL0     O 7114   7.120   1.396   8.642 -0.0503  0.3089  0.4356
  794MOL0     C 7115   7.075   1.487   8.746  0.7638 -0.5300  0.7277
  794MOL0     C 7116   7.167   1.513   8.858  0.4172 -0.5990  0.5781
  794MOL0     C 7117   7.189   1.408   8.967  0.1364 -0.1406 -0.5389
  794MOL0     C 7118   7.295   1.484   9.051 -0.2248  0.3990  0.4300
  794MOL0     C 7119   7.335   1.407   9.166  0.0697  0.2470 -0.0116
  794MOL0     C 7120   7.375   1.358   9.261  0.1740 -0.2481  0.1674
  794MOL0     C 7121   6.947   1.417   8.493 -0.7747  0.0826  0.4859
  794MOL0     C 7122   6.873   1.386   8.372 -0.7954 -0.5470 -0.0292
  794MOL0     H 7123   6.557   1.034   8.119 -0.9483  0.8187 -1.6164
  794MOL0     H 7124   6.452   0.986   7.921 -0.1741 -3.8833 -1.5154
  794MOL0     H 7125   6.385   0.833   7.671  1.0280 -0.8110 -2.1215
  794MOL0     H 7126   6.361   0.996   7.731  0.0152  1.4239 -1.7991
  794MOL0     H 7127   6.413   1.096   7.523  1.9397 -1.5043  3.0142
  794MOL0     H 7128   6.409   0.933   7.437  1.0328  1.2883 -0.6432
  794MOL0     H 7129   6.158   0.922   7.536 -0.9052  0.6847  1.8984
  794MOL0     H 7130   6.180   1.096   7.550 -0.7708 -1.3011  1.3612
  794MOL0     H 7131   6.113   1.070   7.317 -2.5481 -3.3731 -2.8136
  794MOL0     H 7132   6.291   1.052   7.300  1.9052 -2.7204  2.6340
  794MOL0     H 7133   6.278   0.828   7.286  1.5667  1.3099 -2.3255
  794MOL0     H 7134   6.112   0.819   7.332  1.1442 -1.9506  0.2209
  794MOL0     H 7135   6.171   0.972   7.071 -3.2536  0.0824 -1.9150
  794MOL0     H 7136   6.205   0.802   7.077 -2.1739 -2.2789 -0.2852
  794MOL0     H 7137   5.929   0.917   7.144  3.5700  2.3057  0.5396
  794MOL0     H 7138   5.974   0.884   6.985 -0.5227 -0.9259  0.1383
  794MOL0     H 7139   6.014   0.676   7.171 -0.7511  2.7528  1.5548
  794MOL0     H 7140   5.964   0.651   6.994  0.4082  0.8037 -1.2933
  794MOL0     H 7141   5.814   0.713   7.354 -0.3313 -0.6826  0.9573
  794MOL0     H 7142   5.554   0.508   7.392 -1.4379 -0.7078 -1.8525
  794MOL0     H 7143   5.592   0.660   7.467 -0.0154 -1.2151 -0.7021
  794MOL0     H 7144   5.345   0.598   7.451 -0.0972 -0.9792 -0.3733
  794MOL0     H 7145   5.371   0.598   7.274  1.3430  1.7330 -1.3620
  794MOL0     H 7146   5.244   0.802   7.393 -0.7807  0.2839 -0.0058
  794MOL0     H 7147   5.375   0.841   7.262  3.1077 -2.4990  0.3840
  794MOL0     H 7148   5.428   0.833   7.555  1.4157  0.8722  1.2613
  794MOL0     H 7149   5.369   0.989   7.485  3.9630  2.1281 -2.5314
  794MOL0     H 7150   5.512   0.982   7.679 -1.0556  1.5975  0.5991
  794MOL0     H 7151   5.644   1.207   7.884 -0.5116  0.0176  0.3822
  794MOL0     H 7152   5.584   1.044   7.867  1.2071 -0.8536 -1.1156
  794MOL0     H 7153   5.758   1.069   7.909 -0.2650 -0.5581  0.9002
  794MOL0     H 7154   6.236   1.226   7.736  1.3875  1.5975 -1.1990
  794MOL0     H 7155   6.390   1.349   7.885 -0.1900 -0.8811 -1.6809
  794MOL0     H 7156   6.489   1.475   8.045 -0.0174 -1.3661 -0.9058
  794MOL0     H 7157   6.573   1.515   7.890  2.0736  1.5597  0.5979
  794MOL0     H 7158   6.710   1.620   8.043  0.1578  1.3675  1.6351
  794MOL0     H 7159   6.597   1.748   7.992  0.4750  0.1608 -0.1991
  794MOL0     H 7160   6.587   1.565   8.243 -0.1783  0.9113  0.1753
  794MOL0     H 7161   6.472   1.698   8.203  0.0293 -1.5123  0.0100
  794MOL0     H 7162   6.769   1.723   8.239 -0.4343 -1.4434 -0.8373
  794MOL0     H 7163   6.667   1.866   8.215 -1.0001 -0.2091  0.0355
  794MOL0     H 7164   6.650   1.691   8.453  1.0320  1.0021  0.6091
  794MOL0     H 7165   6.566   1.843   8.424  0.2602 -0.7230 -0.4046
  794MOL0     H 7166   6.875   1.805   8.452  1.3145  2.3704 -0.1012
  794MOL0     H 7167   6.797   1.946   8.417 -0.7352 -1.4465 -2.2129
  794MOL0     H 7168   6.750   1.770   8.658  0.3664  1.0386  1.2625
  794MOL0     H 7169   6.672   1.929   8.638  2.0066  4.0578  1.3470
  794MOL0     H 7170   6.855   1.948   8.802 -0.2176  5.2584 -0.2899
  794MOL0     H 7171   6.888   2.038   8.653 -1.4326  0.1452  0.1328
  794MOL0     H 7172   6.176   1.707   7.830  1.9813 -0.3322 -0.6821
  794MOL0     H 7173   6.002   1.578   7.705  1.2168  3.3150  2.1376
  794MOL0     H 7174   5.930   1.159   7.462  0.1522  0.3010  1.0696
  794MOL0     H 7175   5.742   1.035   7.330 -1.6914 -0.9662  0.4526
  794MOL0     H 7176   6.829   1.004   7.705 -2.2225  4.1865 -2.2324
  794MOL0     H 7177   6.932   1.077   7.906 -0.2575  0.6870  0.3270
  794MOL0     H 7178   7.074   1.118   8.301  2.2177  0.0803  2.5361
  794MOL0     H 7179   7.177   1.187   8.493  0.6529 -0.1014 -0.6629
  794MOL0     H 7180   7.045   1.581   8.701 -0.9672 -0.7420  1.3719
  794MOL0     H 7181   6.981   1.442   8.780  1.2261 -0.2679  2.4571
  794MOL0     H 7182   7.121   1.598   8.908 -2.3817 -0.9906 -1.1180
  794MOL0     H 7183   7.259   1.562   8.825  1.5698 -3.4959 -0.8885
  794MOL0     H 7184   7.221   1.311   8.927  1.8197  0.1734 -0.0092
  794MOL0     H 7185   7.094   1.381   9.015 -0.1386  0.8144 -0.5202
  794MOL0     H 7186   7.253   1.582   9.079  0.6198  0.9510 -0.1904
  794MOL0     H 7187   7.385   1.498   8.991 -0.2717  1.0748  0.4997
  794MOL0     H 7188   7.423   1.332   9.353  0.0250 -0.6261  0.1383
  794MOL0     H 7189   6.907   1.506   8.542 -1.1216  0.4122 -0.3678
  794MOL0     H 7190   6.795   1.456   8.345  0.7855  1.3941  0.2108
  795MOL0     O 7191   0.396   6.800   8.136 -0.3253  0.0088  0.7012
  795MOL0     C 7192   0.402   6.821   8.009  0.3219  0.0581 -0.4589
  795MOL0     O 7193   0.291   6.861   7.930  0.7405 -0.4247 -0.0293
  795MOL0     C 7194   0.183   6.877   8.002  0.6311 -0.0593 -1.2931
  795MOL0     C 7195   0.153   6.971   8.094  0.1987 -0.1579  0.0993
  795MOL0     C 7196   0.036   6.970   8.173 -0.0266  0.2946 -0.9313
  795MOL0     C 7197  -0.055   6.871   8.160  0.1338 -0.0071  0.1396
  795MOL0     O 7198  -0.176   6.854   8.225 -0.7701  0.1989  0.7183
  795MOL0     C 7199  -0.259   6.962   8.261 -1.1689  0.0110 -0.1531
  795MOL0     C 7200  -0.398   6.915   8.309  0.5345  0.3583 -0.1465
  795MOL0     C 7201  -0.475   7.037   8.362  0.3039  0.1205  0.2294
  795MOL0     C 7202  -0.615   7.017   8.413  0.3885 -0.3145  0.3556
  795MOL0     C 7203  -0.724   7.036   8.305  0.4677 -0.3039  0.1089
  795MOL0     C 7204  -0.863   7.020   8.368 -0.1168  0.6716 -0.5874
  795MOL0     C 7205  -0.982   7.068   8.282 -0.7857  0.3001  0.1859
  795MOL0     C 7206  -1.114   7.030   8.343 -0.1110 -0.7349  0.0776
  795MOL0     N 7207  -1.142   6.887   8.343  1.0089 -0.6627  0.1684
  795MOL0     C 7208  -1.121   6.794   8.244 -0.3643 -0.7764 -0.8556
  795MOL0     C 7209  -1.191   6.677   8.287 -0.3459  0.4037  0.4031
  795MOL0     C 7210  -1.209   6.550   8.204  0.1625  0.1514 -0.5963
  795MOL0     C 7211  -1.066   6.492   8.185 -0.1412 -0.6374  0.5234
  795MOL0     C 7212  -1.065   6.346   8.136  0.4764  0.6880 -0.8025
  795MOL0     C 7213  -0.934   6.307   8.073 -0.7437  0.7506  0.6533
  795MOL0     O 7214  -0.913   6.408   7.966 -1.2673 -0.6487  0.6776
  795MOL0     C 7215  -0.782   6.437   7.944 -0.3513 -0.6692 -0.6871
  795MOL0     C 7216  -0.737   6.576   7.948  0.0684  0.8588  0.2939
  795MOL0     C 7217  -0.610   6.614   7.924 -0.2370  0.1542  1.0357
  795MOL0     C 7218  -0.576   6.760   7.907 -0.8848  0.0315 -0.3462
  795MOL0     C 7219  -0.513   6.508   7.911 -0.9130  0.4047 -0.8617
  795MOL0     C 7220  -0.369   6.521   7.891 -0.7001 -0.0216 -0.7636
  795MOL0     O 7221  -0.293   6.412   7.850  0.5219  0.3326 -0.6264
  795MOL0     C 7222  -0.166   6.440   7.815 -0.8055 -0.8329  0.2112
  795MOL0     C 7223  -0.131   6.544   7.720 -0.9957 -0.2882  0.3842
  795MOL0     C 7224   0.003   6.560   7.681  0.2477 -0.0372 -0.5165
  795MOL0     C 7225   0.102   6.477   7.734  0.3361  0.3146  0.2873
  795MOL0     O 7226   0.227   6.495   7.693  0.2231  0.4336  0.9265
  795MOL0     C 7227   0.325   6.395   7.725  0.4601 -0.5013 -0.6353
  795MOL0     C 7228   0.451   6.450   7.650 -0.3412  0.4540  0.6770
  795MOL0     C 7229   0.571   6.355   7.644 -0.3714  0.1396  0.6873
  795MOL0     C 7230   0.701   6.422   7.584  0.1698 -0.2390  0.7250
  795MOL0     C 7231   0.837   6.353   7.644 -0.4846  0.6776  0.3849
  795MOL0     C 7232   0.961   6.427   7.594 -0.0369 -0.0693 -0.0288
  795MOL0     C 7233   0.977   6.448   7.443 -0.4374 -0.6759  0.0888
  795MOL0     C 7234   0.957   6.319   7.359 -0.7944 -1.4237  0.2823
  795MOL0    Cl 7235   0.986   6.384   7.195  0.0446 -0.3729  0.4165
  795MOL0     C 7236   0.067   6.378   7.830 -0.3893  0.2208  0.6025
  795MOL0     C 7237  -0.068   6.359   7.867  0.3611  0.1968  0.5135
  795MOL0     O 7238  -0.317   6.628   7.937 -0.5303 -1.1380 -0.4485
  795MOL0     C 7239  -0.554   6.373   7.924  0.0238  0.0184  0.5403
  795MOL0     C 7240  -0.685   6.337   7.932 -0.4357  0.1715 -0.3177
  795MOL0     N 7241  -1.241   6.709   8.405  1.0124 -0.2128  0.6861
  795MOL0     N 7242  -1.217   6.830   8.439  0.2628 -0.3960  0.0349
  795MOL0     C 7243  -0.034   6.772   8.059 -0.1841 -0.2957  0.3119
  795MOL0     C 7244   0.077   6.778   7.985  0.5738  0.7086 -0.3271
  795MOL0     C 7245   0.530   6.802   7.949 -0.1275 -0.7906 -0.0613
  795MOL0     C 7246   0.542   6.808   7.808  0.2715 -0.5106 -0.0985
  795MOL0     C 7247   0.667   6.799   7.740 -0.4131 -0.0116 -0.9047
  795MOL0     C 7248   0.783   6.785   7.823  0.6425 -0.1375 -0.2718
  795MOL0     O 7249   0.903   6.766   7.764  0.9063 -0.4021  0.8839
  795MOL0     C 7250   1.021   6.801   7.836  0.4198 -0.1825 -0.7664
  795MOL0     C 7251   1.034   6.957   7.851 -0.3372  0.9313 -0.0244
  795MOL0     C 7252   1.168   6.982   7.920 -0.1457 -0.3213  0.8402
  795MOL0     C 7253   1.174   7.123   7.954  0.0155 -0.9520  0.0468
  795MOL0     C 7254   1.304   7.162   8.008 -0.0824  0.0280 -0.1609
  795MOL0     C 7255   1.412   7.203   8.060  0.0023  1.0606  0.5259
  795MOL0     C 7256   0.768   6.773   7.967 -0.3740  0.1876  0.4974
  795MOL0     C 7257   0.644   6.777   8.024  0.6719 -0.6095  0.6617
  795MOL0     H 7258   0.225   7.049   8.114 -1.6346  1.0259  2.6051
  795MOL0     H 7259   0.019   7.047   8.248 -0.4535 -2.2065  1.7013
  795MOL0     H 7260  -0.215   7.019   8.343  0.6545  1.0952 -1.7982
  795MOL0     H 7261  -0.256   7.031   8.176  2.7631 -1.1522 -1.1611
  795MOL0     H 7262  -0.453   6.877   8.223  2.1364 -1.6019 -0.3590
  795MOL0     H 7263  -0.395   6.842   8.390 -0.0660 -0.0618 -0.4936
  795MOL0     H 7264  -0.430   7.090   8.447 -3.0731 -2.9235  4.3691
  795MOL0     H 7265  -0.480   7.094   8.269  0.5512 -0.6790 -0.2899
  795MOL0     H 7266  -0.628   6.917   8.454 -1.4355 -0.1969  0.1497
  795MOL0     H 7267  -0.622   7.096   8.489  2.0459  2.5512 -2.2226
  795MOL0     H 7268  -0.713   7.135   8.262 -0.6263 -0.8690 -1.5699
  795MOL0     H 7269  -0.713   6.959   8.227 -0.4815 -1.9941  1.5507
  795MOL0     H 7270  -0.868   6.916   8.399 -2.5544  0.7709 -0.4631
  795MOL0     H 7271  -0.849   7.074   8.462  0.9132  0.5714 -0.6704
  795MOL0     H 7272  -0.975   7.176   8.267  1.1307  0.3455  1.1922
  795MOL0     H 7273  -0.980   7.013   8.187 -2.7319  0.5173 -0.0319
  795MOL0     H 7274  -1.193   7.081   8.287  1.3057  1.2925 -0.2232
  795MOL0     H 7275  -1.123   7.075   8.442 -0.0891  1.2056 -0.7447
  795MOL0     H 7276  -1.069   6.816   8.152 -0.2125 -0.7035 -0.7529
  795MOL0     H 7277  -1.274   6.484   8.262 -1.0834 -1.4484 -3.6015
  795MOL0     H 7278  -1.269   6.563   8.113  1.9286  1.3500 -1.6406
  795MOL0     H 7279  -1.031   6.496   8.288 -0.4428  0.4783  0.6003
  795MOL0     H 7280  -0.992   6.555   8.134  0.9894 -3.0854 -1.0088
  795MOL0     H 7281  -1.155   6.338   8.074 -0.5192  1.3631  0.4991
  795MOL0     H 7282  -1.088   6.282   8.221  0.4185 -1.4445 -2.3433
  795MOL0     H 7283  -0.935   6.211   8.019 -0.8031  0.0137  1.9272
  795MOL0     H 7284  -0.849   6.309   8.142 -0.4048 -0.0858  0.2765
  795MOL0     H 7285  -0.823   6.640   7.964 -0.2202  0.8255 -1.0159
  795MOL0     H 7286  -0.506   6.793   7.984 -0.0178 -0.8423 -0.7437
  795MOL0     H 7287  -0.531   6.759   7.807 -1.1938 -2.4787 -0.5189
  795MOL0     H 7288  -0.661   6.828   7.925 -0.3895  0.2481  1.3375
  795MOL0     H 7289  -0.206   6.616   7.689  0.1632  0.6226 -0.4177
  795MOL0     H 7290   0.034   6.634   7.608  1.3612 -0.1688 -0.1919
  795MOL0     H 7291   0.342   6.383   7.832  4.2337 -0.7331 -1.1351
  795MOL0     H 7292   0.291   6.298   7.688  1.9197 -1.0302 -0.6572
  795MOL0     H 7293   0.436   6.457   7.541 -0.7772  1.0146  0.7709
  795MOL0     H 7294   0.475   6.549   7.689  1.0662  0.7283 -0.7338
  795MOL0     H 7295   0.545   6.267   7.585 -1.1215  0.5406  0.4094
  795MOL0     H 7296   0.597   6.318   7.743  1.5271 -0.8709 -0.1295
  795MOL0     H 7297   0.703   6.409   7.475  1.1328 -1.1306  0.8298
  795MOL0     H 7298   0.710   6.530   7.596 -0.8635  0.1232 -1.3423
  795MOL0     H 7299   0.842   6.246   7.624 -1.4665  0.6117  0.4678
  795MOL0     H 7300   0.838   6.357   7.753 -0.3624  0.0675  0.4098
  795MOL0     H 7301   0.957   6.521   7.651  2.8530 -1.7436  3.3011
  795MOL0     H 7302   1.053   6.381   7.630 -1.2650 -3.7560 -1.2026
  795MOL0     H 7303   1.080   6.478   7.420  0.5817 -3.3719  0.7322
  795MOL0     H 7304   0.899   6.518   7.413 -1.1860 -0.9901  1.2292
  795MOL0     H 7305   0.862   6.264   7.368 -1.0387 -1.4910 -1.9790
  795MOL0     H 7306   1.034   6.247   7.389  0.3214 -0.6023 -0.5618
  795MOL0     H 7307   0.141   6.313   7.875  0.4615 -0.8803 -2.1277
  795MOL0     H 7308  -0.097   6.296   7.951  1.3556  0.7180  1.2713
  795MOL0     H 7309  -0.487   6.289   7.906 -4.8045 -4.0331 -1.0895
  795MOL0     H 7310  -0.710   6.233   7.919 -0.2373 -0.4186  3.0436
  795MOL0     H 7311  -0.087   6.679   8.039 -0.9468 -0.0307  1.0535
  795MOL0     H 7312   0.103   6.696   7.918  1.6646 -0.6686  1.6905
  795MOL0     H 7313   0.457   6.822   7.742  1.3167  5.1178 -0.6839
  795MOL0     H 7314   0.676   6.818   7.634  2.2740  0.6106 -0.6458
  795MOL0     H 7315   1.032   6.748   7.932  0.4589 -1.1858 -1.3095
  795MOL0     H 7316   1.102   6.762   7.774 -0.3829 -3.0272 -0.1837
  795MOL0     H 7317   0.955   7.010   7.905  1.6007  3.2899  0.7292
  795MOL0     H 7318   1.036   7.004   7.752  2.7742 -2.2055 -1.6801
  795MOL0     H 7319   1.241   6.965   7.840  1.0849  2.4171  1.2661
  795MOL0     H 7320   1.175   6.921   8.011 -0.3961 -0.8107  0.5384
  795MOL0     H 7321   1.099   7.130   8.033 -0.4543  0.0218 -0.4666
  795MOL0     H 7322   1.145   7.187   7.870  0.4034  0.2214  0.7693
  795MOL0     H 7323   1.500   7.216   8.120  0.3122 -3.0962  1.2303
  795MOL0     H 7324   0.848   6.755   8.038 -0.6410 -1.7416  0.3884
  795MOL0     H 7325   0.637   6.759   8.131 -1.9047 -1.2321  0.4419
  796MOL0     O 7326  11.012   2.770   5.370 -0.3499 -0.1447 -0.0873
  796MOL0     C 7327  10.946   2.849   5.443  0.5001  0.3407  0.2823
  796MOL0     O 7328  10.980   2.979   5.474  0.2514  0.7393  1.1287
  796MOL0     C 7329  11.095   3.048   5.436  0.0378 -0.6731 -0.2441
  796MOL0     C 7330  11.223   2.988   5.455  0.5076 -0.9439  0.0797
  796MOL0     C 7331  11.341   3.052   5.407 -0.2905  0.6288 -0.5981
  796MOL0     C 7332  11.334   3.168   5.332  0.4983  0.1205  1.2484
  796MOL0     O 7333  11.445   3.218   5.266 -0.0972  0.7898  0.0312
  796MOL0     C 7334  11.492   3.345   5.281  0.8270 -0.7017  0.2910
  796MOL0     C 7335  11.642   3.340   5.239 -0.5713 -0.9022 -0.6895
  796MOL0     C 7336  11.717   3.248   5.340  1.2786 -0.2011  0.9550
  796MOL0     C 7337  11.743   3.319   5.474 -0.4087 -0.4724  0.1987
  796MOL0     C 7338  11.786   3.468   5.484  0.0074 -0.1706 -0.0919
  796MOL0     C 7339  11.815   3.512   5.629  0.4030 -0.4955  0.6150
  796MOL0     C 7340  11.823   3.663   5.638  0.6157 -1.1580 -0.0424
  796MOL0     C 7341  11.903   3.718   5.765 -0.2658 -0.0031 -0.4287
  796MOL0     N 7342  11.845   3.651   5.878 -0.1149 -0.3594  0.4629
  796MOL0     C 7343  11.904   3.573   5.972 -0.2259  0.0072  0.8278
  796MOL0     C 7344  11.815   3.518   6.047 -0.8210  0.0303  0.2006
  796MOL0     C 7345  11.851   3.398   6.141  0.3717 -0.6801  0.0706
  796MOL0     C 7346  11.914   3.459   6.278  0.0340  0.4009 -0.5326
  796MOL0     C 7347  11.800   3.480   6.380 -1.1242  0.1853  0.5248
  796MOL0     C 7348  11.853   3.545   6.509 -1.2639  0.4665 -0.1129
  796MOL0     O 7349  11.726   3.577   6.566 -0.3071 -0.0145 -0.1995
  796MOL0     C 7350  11.657   3.474   6.630 -0.1382  0.2170 -0.1867
  796MOL0     C 7351  11.711   3.357   6.678 -0.2506  0.0339 -0.8154
  796MOL0     C 7352  11.629   3.259   6.751  0.2509  0.0242  0.0192
  796MOL0     C 7353  11.706   3.148   6.821  1.0423 -0.0707 -0.1610
  796MOL0     C 7354  11.486   3.281   6.749  0.7366 -0.4789 -0.5857
  796MOL0     C 7355  11.379   3.197   6.820  0.2528 -0.4415  0.7815
  796MOL0     O 7356  11.248   3.255   6.822 -0.0903 -0.4123 -0.4677
  796MOL0     C 7357  11.144   3.169   6.843  0.2217 -0.5196 -0.5033
  796MOL0     C 7358  11.061   3.133   6.739  0.2816  0.6494 -1.0297
  796MOL0     C 7359  10.952   3.046   6.756 -0.1360 -0.1471 -0.5431
  796MOL0     C 7360  10.919   2.991   6.882 -0.5802 -0.0304  0.2306
  796MOL0     O 7361  10.831   2.892   6.876 -0.1009 -0.4825  0.5666
  796MOL0     C 7362  10.788   2.813   6.991  0.9532  1.1910 -0.1129
  796MOL0     C 7363  10.689   2.891   7.068  0.2968  0.8374  0.5475
  796MOL0     C 7364  10.622   2.792   7.175 -0.2254 -0.1474  0.0959
  796MOL0     C 7365  10.513   2.865   7.236  1.0517 -0.0126  0.4405
  796MOL0     C 7366  10.438   2.798   7.350 -0.0237  0.2275 -0.2267
  796MOL0     C 7367  10.385   2.657   7.335  0.5913  0.5016 -0.2055
  796MOL0     C 7368  10.367   2.586   7.465 -0.0318  0.0248 -1.5402
  796MOL0     C 7369  10.258   2.636   7.554 -0.2070  0.0938 -0.2499
  796MOL0    Cl 7370  10.108   2.602   7.458 -0.1897  0.3839 -0.5713
  796MOL0     C 7371  11.008   3.022   6.988  0.3009 -0.1446 -0.1938
  796MOL0     C 7372  11.111   3.128   6.974  0.9001  0.0701  0.5246
  796MOL0     O 7373  11.408   3.088   6.861 -0.8198  1.0584 -0.7481
  796MOL0     C 7374  11.441   3.398   6.696  0.2676  0.5895  0.6622
  796MOL0     C 7375  11.518   3.498   6.635  0.5924 -0.0023 -0.0051
  796MOL0     N 7376  11.688   3.561   6.005 -0.1787 -0.2739  0.6202
  796MOL0     N 7377  11.712   3.639   5.907 -0.0201 -0.4144 -0.3691
  796MOL0     C 7378  11.208   3.231   5.320 -0.7282 -0.2461 -0.2179
  796MOL0     C 7379  11.090   3.176   5.379  0.6078 -0.1898 -0.8712
  796MOL0     C 7380  10.813   2.800   5.493 -0.4063  0.0834 -0.3232
  796MOL0     C 7381  10.791   2.666   5.498 -0.3279  0.7392  0.8458
  796MOL0     C 7382  10.678   2.609   5.559 -0.2150 -0.1257 -0.9651
  796MOL0     C 7383  10.576   2.685   5.617 -0.0342 -0.2638  0.1297
  796MOL0     O 7384  10.465   2.636   5.683  0.0745  0.5021  0.2174
  796MOL0     C 7385  10.446   2.501   5.733 -0.2654 -0.0436 -0.0783
  796MOL0     C 7386  10.310   2.495   5.792 -0.6891  0.6583  0.1050
  796MOL0     C 7387  10.276   2.602   5.892  0.0878  0.6626 -0.4893
  796MOL0     C 7388  10.135   2.573   5.943  0.3941  0.1099  0.6856
  796MOL0     C 7389  10.037   2.594   5.834 -0.0204 -0.0993 -0.5783
  796MOL0     C 7390   9.944   2.592   5.747 -0.4321  0.3129 -0.1171
  796MOL0     C 7391  10.588   2.827   5.598  0.0143  0.4372  0.1882
  796MOL0     C 7392  10.710   2.881   5.550  0.3098  0.4860  0.1514
  796MOL0     H 7393  11.229   2.890   5.501 -2.6501 -2.0678 -1.5493
  796MOL0     H 7394  11.431   2.999   5.437 -1.5389 -1.2086  0.0491
  796MOL0     H 7395  11.436   3.392   5.200  0.7524 -0.1361  0.6587
  796MOL0     H 7396  11.462   3.394   5.375 -1.5851 -0.3651 -0.5810
  796MOL0     H 7397  11.660   3.312   5.135  1.6548  0.4004 -0.7122
  796MOL0     H 7398  11.689   3.438   5.248 -3.5001  0.4120  2.3497
  796MOL0     H 7399  11.659   3.158   5.366  1.4811 -0.9222 -0.9508
  796MOL0     H 7400  11.806   3.208   5.291  0.7426  1.2454 -1.3375
  796MOL0     H 7401  11.648   3.311   5.527  0.7093  1.5137  2.7142
  796MOL0     H 7402  11.812   3.263   5.537 -0.4222 -2.2160 -1.2660
  796MOL0     H 7403  11.871   3.490   5.419  0.3221  2.4612  1.0949
  796MOL0     H 7404  11.695   3.522   5.455 -1.0025 -0.8812  1.5886
  796MOL0     H 7405  11.750   3.475   5.709 -3.5842 -1.5939 -2.8145
  796MOL0     H 7406  11.917   3.472   5.634 -0.4652 -3.7193 -3.2152
  796MOL0     H 7407  11.871   3.709   5.551  0.8306 -0.2613  0.5321
  796MOL0     H 7408  11.721   3.698   5.657  0.0979 -2.8687  0.5049
  796MOL0     H 7409  11.886   3.827   5.767 -1.4709 -0.1250 -1.9160
  796MOL0     H 7410  12.010   3.697   5.758 -0.1531  0.2645  0.3230
  796MOL0     H 7411  12.011   3.550   5.971  0.0745  1.2068  2.3141
  796MOL0     H 7412  11.762   3.337   6.162  1.8914 -2.9228  0.3533
  796MOL0     H 7413  11.919   3.329   6.091 -1.0994 -0.8949 -1.7394
  796MOL0     H 7414  11.957   3.557   6.256 -2.0563  1.4815 -0.0847
  796MOL0     H 7415  11.985   3.391   6.325 -3.3962 -1.8713  1.8858
  796MOL0     H 7416  11.760   3.378   6.386 -2.8756  0.9012  1.5566
  796MOL0     H 7417  11.723   3.547   6.339  1.2664  2.2682 -0.8349
  796MOL0     H 7418  11.924   3.625   6.486 -1.6024  0.5258 -0.9960
  796MOL0     H 7419  11.913   3.474   6.566 -1.0518 -0.4082 -1.3909
  796MOL0     H 7420  11.818   3.347   6.685 -0.0773  0.3809 -2.5018
  796MOL0     H 7421  11.802   3.144   6.768  0.8598  2.7723 -0.8995
  796MOL0     H 7422  11.719   3.167   6.928 -1.5890 -1.7087  0.5259
  796MOL0     H 7423  11.658   3.052   6.803  0.4332  0.3049 -0.6010
  796MOL0     H 7424  11.069   3.160   6.634 -1.5364 -1.4799 -1.7987
  796MOL0     H 7425  10.886   3.022   6.673 -3.4232  4.4674  0.4069
  796MOL0     H 7426  10.752   2.721   6.944  0.2009  2.4024 -2.0731
  796MOL0     H 7427  10.877   2.782   7.046  0.0031 -2.8126 -0.5596
  796MOL0     H 7428  10.742   2.969   7.125 -1.2915  0.7639  2.2338
  796MOL0     H 7429  10.609   2.929   7.004  0.6111  0.1023 -0.2871
  796MOL0     H 7430  10.684   2.770   7.262  0.8339 -1.9830 -1.0577
  796MOL0     H 7431  10.582   2.713   7.112 -2.5979  2.6543 -2.2092
  796MOL0     H 7432  10.543   2.963   7.275  0.9556  0.8298 -1.4804
  796MOL0     H 7433  10.438   2.875   7.156  1.5731  1.4649  0.0985
  796MOL0     H 7434  10.349   2.856   7.374 -1.2773 -1.5151 -0.5061
  796MOL0     H 7435  10.511   2.801   7.432  1.0266 -1.8090 -1.0140
  796MOL0     H 7436  10.302   2.662   7.263 -0.2243  0.7082  0.7287
  796MOL0     H 7437  10.468   2.604   7.287  0.6086 -0.1694  0.5501
  796MOL0     H 7438  10.458   2.593   7.525  0.2648 -1.1368 -1.8226
  796MOL0     H 7439  10.349   2.481   7.438 -1.8311  0.2929 -1.5357
  796MOL0     H 7440  10.273   2.744   7.562 -0.4613  0.3940 -2.8812
  796MOL0     H 7441  10.260   2.586   7.651 -0.4542  2.6810  1.1940
  796MOL0     H 7442  10.998   2.969   7.083  3.3027 -1.0086 -0.2539
  796MOL0     H 7443  11.171   3.150   7.061 -0.6606  1.7205  1.2502
  796MOL0     H 7444  11.335   3.415   6.685  0.2630  0.5712  0.6805
  796MOL0     H 7445  11.491   3.597   6.599 -0.8814 -0.1266  0.6577
  796MOL0     H 7446  11.203   3.321   5.259 -0.8944 -0.1914 -0.1257
  796MOL0     H 7447  10.995   3.217   5.347 -0.9219 -3.1995 -0.4853
  796MOL0     H 7448  10.870   2.595   5.476  1.1626  2.1360  1.4745
  796MOL0     H 7449  10.668   2.501   5.562  2.8431 -0.4964 -0.2852
  796MOL0     H 7450  10.456   2.434   5.647  0.5146 -1.5989  1.1741
  796MOL0     H 7451  10.515   2.463   5.810 -1.7461 -2.9367 -0.0389
  796MOL0     H 7452  10.306   2.403   5.850  0.0835  0.7466  0.3146
  796MOL0     H 7453  10.246   2.483   5.704  1.1912  0.0509 -1.2401
  796MOL0     H 7454  10.272   2.697   5.838 -0.3104 -0.4440 -2.5102
  796MOL0     H 7455  10.348   2.602   5.974 -1.3407 -1.3235  0.8508
  796MOL0     H 7456  10.103   2.638   6.025 -1.6576 -0.8277  0.7069
  796MOL0     H 7457  10.136   2.467   5.971 -0.2183  0.3998  1.9078
  796MOL0     H 7458   9.870   2.583   5.671 -1.2409  0.9923  0.5668
  796MOL0     H 7459  10.509   2.887   5.641  0.8620  2.1665 -0.5975
  796MOL0     H 7460  10.720   2.989   5.550  0.0855  0.5070 -0.0391
  797MOL0     O 7461   1.279   0.910   9.694  0.9102  0.2712  0.9685
  797MOL0     C 7462   1.302   1.020   9.740  0.0911  1.4239  0.3049
  797MOL0     O 7463   1.218   1.087   9.820  0.0725 -0.6682  0.3907
  797MOL0     C 7464   1.085   1.084   9.782  0.3872 -0.4037 -0.4344
  797MOL0     C 7465   1.003   0.980   9.745 -0.0825  0.4050  0.4063
  797MOL0     C 7466   0.866   1.000   9.730  0.9602  0.0723  0.2547
  797MOL0     C 7467   0.809   1.134   9.757  0.4172 -0.2145 -0.0329
  797MOL0     O 7468   0.670   1.144   9.749 -0.6717 -0.5351 -0.4157
  797MOL0     C 7469   0.600   1.225   9.849  0.6078 -0.1458 -1.2060
  797MOL0     C 7470   0.454   1.179   9.892 -0.0092  0.1753  0.0977
  797MOL0     C 7471   0.463   1.030   9.935  0.1874  0.4479  0.6592
  797MOL0     C 7472   0.318   0.969   9.972 -0.0427  0.2086  0.7954
  797MOL0     C 7473   0.342   0.816  10.006  0.2657 -0.7139  0.5314
  797MOL0     C 7474   0.218   0.741  10.007  0.3139 -0.1806 -0.4732
  797MOL0     C 7475   0.248   0.601  10.062 -0.1906  0.0351  0.8030
  797MOL0     C 7476   0.310   0.495   9.971 -0.8795 -0.1296  0.1474
  797MOL0     N 7477   0.234   0.426   9.868 -0.1751  0.2300 -0.7806
  797MOL0     C 7478   0.289   0.323   9.793 -0.2163 -0.3944 -0.0242
  797MOL0     C 7479   0.198   0.296   9.704 -0.3519 -0.4717  0.6156
  797MOL0     C 7480   0.202   0.194   9.589  0.6617  0.2483  0.6886
  797MOL0     C 7481   0.339   0.193   9.518 -1.0262  0.4625 -1.0488
  797MOL0     C 7482   0.359   0.078   9.424  0.4185  0.2411  0.1685
  797MOL0     C 7483   0.496   0.058   9.365  0.3566  0.5009  0.6205
  797MOL0     O 7484   0.522   0.168   9.272  0.6172  0.7941 -0.0325
  797MOL0     C 7485   0.648   0.213   9.248 -0.4158 -0.2714 -0.2311
  797MOL0     C 7486   0.765   0.133   9.270 -0.6637 -0.4518  0.4470
  797MOL0     C 7487   0.895   0.189   9.236 -0.4721 -0.0137 -1.0273
  797MOL0     C 7488   1.018   0.101   9.268  0.8512 -0.3959  0.7653
  797MOL0     C 7489   0.898   0.302   9.156 -0.4022  0.1956  0.4351
  797MOL0     C 7490   1.019   0.357   9.112 -0.2591 -0.4140 -0.1953
  797MOL0     O 7491   1.131   0.338   9.190 -0.0387 -0.0104  0.7763
  797MOL0     C 7492   1.251   0.401   9.160  0.2357 -0.1013  0.6376
  797MOL0     C 7493   1.327   0.378   9.042 -0.7452  0.5342 -0.8346
  797MOL0     C 7494   1.443   0.448   9.028  0.3419  0.0316  0.6953
  797MOL0     C 7495   1.502   0.524   9.126  0.6827  0.4322  0.0692
  797MOL0     O 7496   1.626   0.589   9.111 -0.8282  0.1897 -0.2745
  797MOL0     C 7497   1.722   0.556   9.207 -0.1825 -0.5401 -0.1143
  797MOL0     C 7498   1.860   0.557   9.149 -0.2655 -0.2330 -0.9234
  797MOL0     C 7499   1.912   0.698   9.123 -0.0095  0.7864 -0.4781
  797MOL0     C 7500   2.017   0.697   9.012 -0.7692 -0.7931  0.1181
  797MOL0     C 7501   2.033   0.845   8.965 -1.1527  0.5015 -0.1314
  797MOL0     C 7502   2.125   0.849   8.843  0.6167 -0.0137  0.5765
  797MOL0     C 7503   2.092   0.970   8.750  0.3517 -0.3902  0.7478
  797MOL0     C 7504   2.220   1.021   8.683  0.1180 -0.0565  0.2490
  797MOL0    Cl 7505   2.316   1.102   8.809 -0.3375 -0.0910 -0.3746
  797MOL0     C 7506   1.430   0.538   9.243 -0.6824  0.4367  0.8593
  797MOL0     C 7507   1.304   0.482   9.254  0.0291 -0.3864 -0.5328
  797MOL0     O 7508   1.015   0.424   9.013 -0.3132 -0.2857 -0.7100
  797MOL0     C 7509   0.778   0.376   9.131  0.8615  0.4484 -0.0239
  797MOL0     C 7510   0.653   0.332   9.171  0.1113  0.4600 -0.0331
  797MOL0     N 7511   0.090   0.375   9.734  1.0532  0.2592  0.3696
  797MOL0     N 7512   0.104   0.444   9.838 -0.1794 -0.0995  0.2587
  797MOL0     C 7513   0.894   1.231   9.789 -0.8206  0.1589 -1.2750
  797MOL0     C 7514   1.028   1.207   9.807 -0.2454  0.4623  0.5306
  797MOL0     C 7515   1.440   1.075   9.723  0.5662  0.6597  0.0546
  797MOL0     C 7516   1.466   1.207   9.749  0.2068 -0.2049  0.0637
  797MOL0     C 7517   1.594   1.264   9.735 -0.4771 -0.1999 -0.0935
  797MOL0     C 7518   1.707   1.192   9.699  1.3589  0.1047 -0.0455
  797MOL0     O 7519   1.830   1.250   9.701  0.2078  0.2502  0.1019
  797MOL0     C 7520   1.939   1.162   9.746 -0.4197 -0.1448  0.0808
  797MOL0     C 7521   1.910   1.112   9.887 -0.2068  0.3275 -0.7422
  797MOL0     C 7522   2.016   1.023   9.959  0.0300 -0.1255  0.2594
  797MOL0     C 7523   2.143   1.101  10.005 -0.4239  0.6164  0.3932
  797MOL0     C 7524   2.227   1.003  10.083 -0.5133 -0.2990  0.6777
  797MOL0     C 7525   2.298   0.920  10.119 -0.3945  0.3796  0.3357
  797MOL0     C 7526   1.672   1.057   9.661  0.4248 -0.3019  0.4602
  797MOL0     C 7527   1.544   1.003   9.666 -0.4273  0.6384 -0.4935
  797MOL0     H 7528   1.045   0.883   9.719  1.3862  1.7317 -2.5827
  797MOL0     H 7529   0.797   0.922   9.699  1.8120 -0.4924 -0.2618
  797MOL0     H 7530   0.659   1.222   9.942  1.3077 -0.4509 -1.6541
  797MOL0     H 7531   0.600   1.331   9.822  1.0519 -0.4923 -2.6329
  797MOL0     H 7532   0.422   1.236   9.980  1.7542 -1.1529  1.6847
  797MOL0     H 7533   0.380   1.187   9.812  0.2506 -3.4728 -0.6889
  797MOL0     H 7534   0.509   0.960   9.865 -1.5293 -2.5719  2.3237
  797MOL0     H 7535   0.519   1.023  10.029 -1.6958  4.1068  2.2830
  797MOL0     H 7536   0.274   1.026  10.055 -1.7817 -1.2281  0.9147
  797MOL0     H 7537   0.245   0.972   9.891 -0.9986 -0.6317  1.6025
  797MOL0     H 7538   0.412   0.766   9.940  0.2881  0.0688 -0.0588
  797MOL0     H 7539   0.387   0.815  10.106  2.6010  0.3632 -0.4400
  797MOL0     H 7540   0.149   0.777  10.085  0.8036 -2.1951  0.9587
  797MOL0     H 7541   0.177   0.742   9.906  1.1932 -2.3830 -0.8826
  797MOL0     H 7542   0.304   0.609  10.155  2.1518 -2.6910 -0.2078
  797MOL0     H 7543   0.150   0.562  10.090 -1.4175  1.8262 -0.7897
  797MOL0     H 7544   0.346   0.421  10.043  1.6355  2.1618  1.4198
  797MOL0     H 7545   0.398   0.546   9.930  1.1407 -2.6598  1.0728
  797MOL0     H 7546   0.392   0.288   9.798 -0.2426 -0.6846 -1.1122
  797MOL0     H 7547   0.182   0.097   9.633 -2.2352 -0.3866 -1.6594
  797MOL0     H 7548   0.133   0.221   9.508 -0.4420 -3.3478  0.2518
  797MOL0     H 7549   0.423   0.195   9.588 -0.6961  1.5446 -1.4588
  797MOL0     H 7550   0.356   0.277   9.451  0.7096 -0.7284 -2.1924
  797MOL0     H 7551   0.284   0.091   9.345 -2.3871  1.0178  2.7870
  797MOL0     H 7552   0.347  -0.021   9.468 -2.8290 -0.3840 -1.7701
  797MOL0     H 7553   0.492  -0.036   9.309 -1.4037  1.2334 -0.5852
  797MOL0     H 7554   0.570   0.047   9.444  0.1159 -3.0916  0.5339
  797MOL0     H 7555   0.758   0.036   9.318 -1.2367 -0.6834 -0.0995
  797MOL0     H 7556   1.098   0.153   9.323  2.3490  1.1774 -2.6279
  797MOL0     H 7557   0.991   0.017   9.333  2.9983 -0.1358  2.1355
  797MOL0     H 7558   1.056   0.063   9.173  0.2781 -1.2913  0.8849
  797MOL0     H 7559   1.301   0.316   8.957  1.0672 -1.1964 -0.2038
  797MOL0     H 7560   1.506   0.443   8.940  1.1973  4.5926  0.7854
  797MOL0     H 7561   1.720   0.627   9.290  1.7467 -1.3035  0.6366
  797MOL0     H 7562   1.714   0.451   9.238 -0.8596 -1.2716 -2.5369
  797MOL0     H 7563   1.921   0.503   9.222 -0.9412  0.8389  0.4676
  797MOL0     H 7564   1.863   0.490   9.062  3.9363 -0.5051 -0.7642
  797MOL0     H 7565   1.949   0.738   9.218  0.0843 -0.8526  0.2001
  797MOL0     H 7566   1.827   0.755   9.084 -1.3077 -0.0811  0.9853
  797MOL0     H 7567   2.107   0.652   9.057 -1.8338 -2.9551  0.2012
  797MOL0     H 7568   1.994   0.638   8.924  1.3902  2.2301 -2.7350
  797MOL0     H 7569   2.069   0.897   9.055 -0.5410 -3.9319  2.4642
  797MOL0     H 7570   1.933   0.870   8.931 -1.4709 -0.4868  0.0546
  797MOL0     H 7571   2.228   0.854   8.879  0.8847 -0.2078 -0.1425
  797MOL0     H 7572   2.112   0.764   8.775 -0.2574  1.8796 -1.7688
  797MOL0     H 7573   2.046   1.052   8.806 -1.7973 -1.0147 -0.0007
  797MOL0     H 7574   2.015   0.935   8.681  1.5430  0.1849 -0.9291
  797MOL0     H 7575   2.188   1.088   8.602 -1.2241 -0.3594  0.5055
  797MOL0     H 7576   2.278   0.936   8.645 -1.1361 -0.9673  0.3182
  797MOL0     H 7577   1.483   0.598   9.317  1.0896  1.5955 -1.2488
  797MOL0     H 7578   1.260   0.509   9.350  2.7173  0.5302  0.5553
  797MOL0     H 7579   0.784   0.451   9.052 -0.9556 -0.7801 -1.4156
  797MOL0     H 7580   0.570   0.397   9.144  0.1366 -0.0050 -1.2726
  797MOL0     H 7581   0.861   1.321   9.840  3.0648 -1.5386  5.4928
  797MOL0     H 7582   1.094   1.290   9.828 -1.4473  2.1377 -1.8596
  797MOL0     H 7583   1.385   1.275   9.772  0.5497 -0.1856  1.2858
  797MOL0     H 7584   1.604   1.370   9.753 -0.7669 -0.2876  0.6342
  797MOL0     H 7585   1.962   1.071   9.690 -0.0684 -0.4124  0.6409
  797MOL0     H 7586   2.031   1.222   9.744 -1.7970  2.0653  0.0488
  797MOL0     H 7587   1.817   1.053   9.887 -0.0649 -0.0572  2.1321
  797MOL0     H 7588   1.888   1.203   9.944 -1.1630  0.2262 -0.9315
  797MOL0     H 7589   2.050   0.945   9.890 -0.7126 -0.7138  0.5465
  797MOL0     H 7590   1.970   0.971  10.043 -2.2561 -0.7528 -1.2910
  797MOL0     H 7591   2.109   1.187  10.062  1.0782  3.1868 -2.3280
  797MOL0     H 7592   2.199   1.141   9.920  0.6431 -0.2984  0.6295
  797MOL0     H 7593   2.347   0.829  10.149 -3.6857 -0.9451  2.1911
  797MOL0     H 7594   1.754   1.002   9.615  0.4554  1.0577 -1.1920
  797MOL0     H 7595   1.525   0.906   9.623 -0.0946  0.3741 -0.0540
  798MOL0     O 7596   2.417  10.363   1.632  0.3833 -0.3174  0.1416
  798MOL0     C 7597   2.447  10.318   1.521  0.5732  0.7212 -0.3730
  798MOL0     O 7598   2.359  10.270   1.427  0.2151 -1.1720  0.1821
  798MOL0     C 7599   2.233  10.242   1.469 -0.0384 -0.1270  0.0638
  798MOL0     C 7600   2.137  10.340   1.449  0.5660 -0.7353  0.2211
  798MOL0     C 7601   2.006  10.304   1.485  0.4775  0.1508 -0.6456
  798MOL0     C 7602   1.981  10.198   1.572 -0.4491  0.3910  0.5750
  798MOL0     O 7603   1.858  10.169   1.625 -0.4653 -0.8072 -0.1317
  798MOL0     C 7604   1.746  10.246   1.606 -0.5979  0.6342  0.3003
  798MOL0     C 7605   1.618  10.162   1.597  0.5994 -0.0060 -0.4119
  798MOL0     C 7606   1.599  10.077   1.726  0.5299  0.3564 -0.2305
  798MOL0     C 7607   1.470   9.986   1.695 -0.5117 -0.6385  0.1140
  798MOL0     C 7608   1.343  10.061   1.754  1.0798 -0.1453  0.3318
  798MOL0     C 7609   1.214   9.972   1.736 -0.1924 -0.1468  0.0122
  798MOL0     C 7610   1.090  10.022   1.807 -0.6334 -0.5595 -0.6441
  798MOL0     C 7611   1.110  10.003   1.960 -0.2330  0.2624  0.2837
  798MOL0     N 7612   1.002  10.048   2.033  0.9693  0.0045  0.0344
  798MOL0     C 7613   0.886   9.981   2.049  0.0090  0.6475  0.3570
  798MOL0     C 7614   0.817  10.047   2.150  0.1456  0.0672  0.3876
  798MOL0     C 7615   0.679  10.007   2.212  0.1600  0.8710  1.2948
  798MOL0     C 7616   0.570  10.110   2.164 -0.0411  0.4421 -0.2146
  798MOL0     C 7617   0.437  10.059   2.195 -0.3332 -1.1649 -0.6129
  798MOL0     C 7618   0.324  10.128   2.124  0.2477 -1.1782 -0.8896
  798MOL0     O 7619   0.205  10.065   2.160  0.3986 -0.3884  0.0456
  798MOL0     C 7620   0.074  10.101   2.124  0.3475 -1.2702  0.1177
  798MOL0     C 7621  -0.029  10.041   2.189  0.3355  0.1694  0.3390
  798MOL0     C 7622  -0.166  10.074   2.162  0.4158  0.0623 -0.0196
  798MOL0     C 7623  -0.270  10.011   2.265  0.2910 -0.6503 -0.1472
  798MOL0     C 7624  -0.197  10.177   2.073  0.4502  0.1012 -0.5765
  798MOL0     C 7625  -0.327  10.225   2.048 -0.3779  0.1019 -0.0652
  798MOL0     O 7626  -0.342  10.357   2.034  0.3226  0.1582  0.4204
  798MOL0     C 7627  -0.467  10.395   1.982  0.0945 -0.8337 -0.4955
  798MOL0     C 7628  -0.487  10.433   1.849 -0.5536 -0.3976 -0.2953
  798MOL0     C 7629  -0.615  10.467   1.804 -0.4165 -0.3947 -0.5855
  798MOL0     C 7630  -0.729  10.451   1.880 -0.2844 -0.3161  0.1435
  798MOL0     O 7631  -0.849  10.475   1.823 -0.1899  0.0449  1.1329
  798MOL0     C 7632  -0.960  10.398   1.858  0.4398 -0.6471  0.2831
  798MOL0     C 7633  -0.951  10.253   1.804  0.4658  0.7337  0.5882
  798MOL0     C 7634  -1.046  10.221   1.692 -0.5324 -0.4412  1.0001
  798MOL0     C 7635  -1.194  10.189   1.743 -0.9352 -0.7588  0.6462
  798MOL0     C 7636  -1.305  10.148   1.655 -0.8647  0.0080  0.2494
  798MOL0     C 7637  -1.268  10.136   1.509 -0.3311 -0.8249  0.5224
  798MOL0     C 7638  -1.393  10.110   1.426  0.2916 -0.1610 -0.3054
  798MOL0     C 7639  -1.476   9.991   1.481  0.4613  0.6079 -0.1614
  798MOL0    Cl 7640  -1.617   9.952   1.382  0.0855  0.4867  0.3005
  798MOL0     C 7641  -0.719  10.405   2.015 -0.4308 -0.8034  1.5043
  798MOL0     C 7642  -0.580  10.393   2.067  0.8727 -0.0232  0.0856
  798MOL0     O 7643  -0.419  10.143   2.037  0.0089  0.0623  0.3412
  798MOL0     C 7644  -0.094  10.240   2.003 -0.3823 -0.5174 -0.7700
  798MOL0     C 7645   0.041  10.201   2.028 -1.0725 -0.7690 -0.6572
  798MOL0     N 7646   0.893  10.154   2.185  1.7981 -0.5640 -0.0437
  798MOL0     N 7647   1.005  10.155   2.120  0.6697  0.1975 -0.1098
  798MOL0     C 7648   2.081  10.112   1.588  0.2770  0.3449  0.3760
  798MOL0     C 7649   2.210  10.124   1.542  0.5947 -0.0978  1.0181
  798MOL0     C 7650   2.583  10.343   1.472  0.2336 -0.9995  0.0694
  798MOL0     C 7651   2.632  10.263   1.372 -1.0161 -0.2496 -0.4441
  798MOL0     C 7652   2.766  10.283   1.330  0.9357  0.5497 -0.0199
  798MOL0     C 7653   2.838  10.387   1.382 -0.6497  0.0105 -0.4426
  798MOL0     O 7654   2.974  10.398   1.364  0.3743 -0.9982  0.2802
  798MOL0     C 7655   3.035  10.405   1.236  0.2152 -0.0266  0.4133
  798MOL0     C 7656   3.182  10.444   1.242 -0.6090 -0.1145  0.5228
  798MOL0     C 7657   3.267  10.347   1.329 -0.1748 -0.1360 -0.0837
  798MOL0     C 7658   3.403  10.405   1.378  0.4219 -0.3114  0.4220
  798MOL0     C 7659   3.471  10.501   1.283 -0.1767 -0.0749  0.3456
  798MOL0     C 7660   3.520  10.587   1.212  0.4451 -0.1692  0.7194
  798MOL0     C 7661   2.781  10.462   1.484 -0.5304  0.2882 -0.7009
  798MOL0     C 7662   2.656  10.441   1.534  0.1174 -0.1088  0.4790
  798MOL0     H 7663   2.160  10.436   1.404 -1.4789 -1.2982 -2.2621
  798MOL0     H 7664   1.926  10.373   1.459 -0.3065 -0.6763 -0.4979
  798MOL0     H 7665   1.735  10.309   1.695  0.3448  1.5323 -0.2030
  798MOL0     H 7666   1.751  10.310   1.517 -1.4767 -1.4123 -1.2883
  798MOL0     H 7667   1.528  10.225   1.592  0.1658 -0.6873 -1.9880
  798MOL0     H 7668   1.618  10.099   1.508 -1.0918 -0.4349 -0.1466
  798MOL0     H 7669   1.678  10.001   1.728  1.0421  0.8796 -0.1508
  798MOL0     H 7670   1.583  10.137   1.816 -0.5295  0.8733 -0.7459
  798MOL0     H 7671   1.459   9.987   1.586  1.5981  1.2709 -0.1667
  798MOL0     H 7672   1.483   9.882   1.727 -0.9585 -0.9854 -0.7768
  798MOL0     H 7673   1.359  10.073   1.862  0.5987 -1.6159  0.5947
  798MOL0     H 7674   1.318  10.155   1.705  1.7534 -0.1861 -0.0910
  798MOL0     H 7675   1.199   9.964   1.628  3.2018 -1.9791 -0.4370
  798MOL0     H 7676   1.242   9.876   1.779  1.1965  0.4244  0.4368
  798MOL0     H 7677   1.064  10.126   1.787 -0.8838 -0.5101 -0.0895
  798MOL0     H 7678   1.004   9.957   1.789  0.9351 -2.5452 -1.3327
  798MOL0     H 7679   1.198  10.057   1.995 -0.0300  0.8477 -1.0532
  798MOL0     H 7680   1.121   9.895   1.975 -2.2748 -0.2169 -1.1406
  798MOL0     H 7681   0.847   9.894   1.996 -0.6394 -0.6300  2.7603
  798MOL0     H 7682   0.649   9.909   2.174 -0.8166  1.0399  1.6027
  798MOL0     H 7683   0.691  10.000   2.321 -4.1286  0.9706  1.9431
  798MOL0     H 7684   0.573  10.129   2.057  2.8336  2.6263  0.1489
  798MOL0     H 7685   0.590  10.203   2.219 -2.9947 -0.2631  2.3563
  798MOL0     H 7686   0.418  10.062   2.302 -3.0895  0.1982 -1.0629
  798MOL0     H 7687   0.420   9.957   2.159  0.3945 -1.9529  1.1616
  798MOL0     H 7688   0.333  10.119   2.015  2.9387 -0.1188 -0.8168
  798MOL0     H 7689   0.328  10.232   2.159 -2.9062 -1.9634  2.4985
  798MOL0     H 7690  -0.007   9.966   2.264  1.5001  0.6981  0.5508
  798MOL0     H 7691  -0.240  10.014   2.370 -0.3180 -1.3397  0.0470
  798MOL0     H 7692  -0.367  10.061   2.258  1.8573  2.8899  0.7854
  798MOL0     H 7693  -0.288   9.905   2.244  2.2024 -0.7266 -1.7672
  798MOL0     H 7694  -0.398  10.421   1.787 -0.1094  2.1850 -0.2825
  798MOL0     H 7695  -0.644  10.454   1.700  2.0210 -1.2144 -1.2143
  798MOL0     H 7696  -0.962  10.395   1.967  1.4491 -0.6751  0.3120
  798MOL0     H 7697  -1.056  10.441   1.828  0.9391  0.5214  0.2790
  798MOL0     H 7698  -0.845  10.237   1.780  0.9463  0.2750  2.8203
  798MOL0     H 7699  -0.959  10.190   1.893  1.2330 -0.7166 -0.3062
  798MOL0     H 7700  -0.996  10.135   1.648  3.5033  1.1106  2.1367
  798MOL0     H 7701  -1.050  10.294   1.610 -0.0145 -1.4372  0.0735
  798MOL0     H 7702  -1.173  10.103   1.808 -0.4669 -1.2596 -0.1525
  798MOL0     H 7703  -1.224  10.268   1.812  0.2455 -3.4995  4.6729
  798MOL0     H 7704  -1.386  10.219   1.675 -2.2105 -1.4467  0.1907
  798MOL0     H 7705  -1.341  10.053   1.696 -1.2072  0.6187  1.4067
  798MOL0     H 7706  -1.226  10.227   1.466  1.1648 -3.3765 -4.1972
  798MOL0     H 7707  -1.187  10.063   1.496  0.2268 -0.4429  1.7069
  798MOL0     H 7708  -1.357  10.102   1.323 -0.4532 -2.5995 -0.4495
  798MOL0     H 7709  -1.450  10.203   1.430 -0.2492 -0.5155  2.4875
  798MOL0     H 7710  -1.517  10.017   1.579  1.8602  2.1024  0.0733
  798MOL0     H 7711  -1.409   9.904   1.485 -0.7003 -0.4761 -2.4500
  798MOL0     H 7712  -0.800  10.371   2.079 -2.2797  0.3122 -0.1150
  798MOL0     H 7713  -0.565  10.350   2.165 -3.6011 -2.3630 -0.0143
  798MOL0     H 7714  -0.108  10.324   1.936  1.9981  1.1140  0.6428
  798MOL0     H 7715   0.121  10.253   1.976  0.1121  2.0521  3.4973
  798MOL0     H 7716   2.056  10.015   1.631 -1.6163 -0.6822 -2.7492
  798MOL0     H 7717   2.280  10.042   1.556 -0.9099 -1.2929  1.9511
  798MOL0     H 7718   2.582  10.175   1.333 -0.2280 -0.3337 -1.2921
  798MOL0     H 7719   2.812  10.218   1.256 -0.4679  0.7690 -1.1057
  798MOL0     H 7720   3.022  10.303   1.199 -2.2526 -0.4194  2.1240
  798MOL0     H 7721   2.976  10.467   1.168 -3.6023 -4.0687 -0.4322
  798MOL0     H 7722   3.193  10.546   1.281  1.0298 -0.1644  0.2389
  798MOL0     H 7723   3.230  10.428   1.145 -2.8830 -0.4753 -0.6075
  798MOL0     H 7724   3.288  10.262   1.264  0.8870  0.0134  0.0358
  798MOL0     H 7725   3.220  10.325   1.425 -1.6698  1.9597 -0.2686
  798MOL0     H 7726   3.468  10.320   1.400  3.1865  1.6071  0.1907
  798MOL0     H 7727   3.389  10.467   1.467  1.7157  0.5321  0.0636
  798MOL0     H 7728   3.558  10.648   1.132  1.0786  0.4191  1.4556
  798MOL0     H 7729   2.835  10.550   1.519 -2.0517  0.1286  2.3648
  798MOL0     H 7730   2.615  10.505   1.612 -3.7751 -2.6013  0.7727
  799MOL0     O 7731   8.830   7.862   3.754 -0.4028 -0.2184  0.6772
  799MOL0     C 7732   8.891   7.838   3.650  0.4986  0.1238  0.3373
  799MOL0     O 7733   8.834   7.779   3.536 -0.0499  0.2728 -0.2100
  799MOL0     C 7734   8.701   7.793   3.504 -0.2742  0.2184  0.6767
  799MOL0     C 7735   8.633   7.677   3.461 -0.5060 -0.0510 -0.5727
  799MOL0     C 7736   8.498   7.676   3.428  0.3716  0.1751 -0.6868
  799MOL0     C 7737   8.438   7.799   3.420 -0.0147 -0.3486  0.3934
  799MOL0     O 7738   8.304   7.815   3.399 -0.3756  0.7377  0.2286
  799MOL0     C 7739   8.220   7.700   3.371  0.7023  0.2363 -0.5483
  799MOL0     C 7740   8.068   7.746   3.343 -0.1116  0.5208  1.3991
  799MOL0     C 7741   8.053   7.822   3.209  0.7468  0.2228 -0.4214
  799MOL0     C 7742   8.065   7.724   3.089 -0.3023 -0.0717  0.4577
  799MOL0     C 7743   8.130   7.794   2.962  0.8025 -0.4463  0.0600
  799MOL0     C 7744   8.282   7.790   2.989  0.1582  0.7626  0.0441
  799MOL0     C 7745   8.356   7.862   2.864  0.1797 -0.0650 -0.2148
  799MOL0     C 7746   8.345   8.012   2.862 -0.0155 -0.5582 -0.3386
  799MOL0     N 7747   8.372   8.064   2.997 -0.6356 -0.6184 -0.1439
  799MOL0     C 7748   8.283   8.104   3.089  0.2842 -0.5208  0.1562
  799MOL0     C 7749   8.349   8.168   3.185 -0.0029  0.2667 -0.9863
  799MOL0     C 7750   8.282   8.236   3.295  0.7878 -1.1304 -0.0334
  799MOL0     C 7751   8.320   8.383   3.320 -0.2510  0.1054  0.8605
  799MOL0     C 7752   8.265   8.429   3.457  0.5103  0.0323 -0.8646
  799MOL0     C 7753   8.318   8.568   3.488  1.1559 -0.8103  0.0942
  799MOL0     O 7754   8.285   8.659   3.376 -0.3544 -0.4675 -0.2778
  799MOL0     C 7755   8.325   8.794   3.400  0.8033  1.0476 -1.1644
  799MOL0     C 7756   8.417   8.839   3.497  0.2181  0.1108  0.3164
  799MOL0     C 7757   8.448   8.977   3.523 -0.2326  0.0522  0.4288
  799MOL0     C 7758   8.557   9.009   3.628 -0.0974  0.1301  0.4229
  799MOL0     C 7759   8.389   9.071   3.428 -0.2629 -0.3164  0.6225
  799MOL0     C 7760   8.432   9.220   3.428 -0.3140 -0.3146 -0.4738
  799MOL0     O 7761   8.359   9.301   3.344  0.3791  0.1343  0.4296
  799MOL0     C 7762   8.371   9.442   3.344 -0.6933  1.3282 -1.0264
  799MOL0     C 7763   8.361   9.511   3.222  0.4984 -0.2978 -0.3632
  799MOL0     C 7764   8.376   9.658   3.206  0.0650 -0.0173 -0.3092
  799MOL0     C 7765   8.406   9.729   3.322  1.7551 -0.0455 -0.8612
  799MOL0     O 7766   8.423   9.865   3.316  0.7498  0.5942  0.2347
  799MOL0     C 7767   8.557   9.911   3.283 -0.1976 -0.3277  0.4458
  799MOL0     C 7768   8.667   9.904   3.383  0.1951 -0.9880 -0.1681
  799MOL0     C 7769   8.804   9.929   3.312 -0.7010  0.1825 -0.5294
  799MOL0     C 7770   8.910   9.946   3.420  0.7700 -0.0763 -0.3246
  799MOL0     C 7771   9.053   9.991   3.375  0.4265 -0.0460  0.0567
  799MOL0     C 7772   9.154  10.004   3.497 -0.3145 -0.0546 -0.1390
  799MOL0     C 7773   9.301  10.016   3.439 -0.5273  0.0692 -0.1012
  799MOL0     C 7774   9.400  10.056   3.543 -0.4315  0.3297 -0.0929
  799MOL0    Cl 7775   9.379   9.961   3.709  0.2506  0.2070 -0.1219
  799MOL0     C 7776   8.423   9.656   3.447  0.1197  0.4843  0.7608
  799MOL0     C 7777   8.403   9.515   3.453  0.3387 -0.0942 -0.0362
  799MOL0     O 7778   8.519   9.257   3.502 -0.0072  0.1518  0.4534
  799MOL0     C 7779   8.301   9.023   3.327  0.3522 -0.2676  0.5122
  799MOL0     C 7780   8.270   8.888   3.317  0.1836 -0.3713  0.2380
  799MOL0     N 7781   8.483   8.163   3.152 -0.1906 -0.1374 -0.7143
  799MOL0     N 7782   8.496   8.099   3.045 -0.0822 -0.5649  0.1443
  799MOL0     C 7783   8.507   7.911   3.446 -0.1685  0.1632  0.5182
  799MOL0     C 7784   8.637   7.915   3.485  0.0617  0.6971  0.2382
  799MOL0     C 7785   9.033   7.858   3.639  0.3879  0.5232  0.1408
  799MOL0     C 7786   9.097   7.869   3.511  0.1569  0.0556  0.5703
  799MOL0     C 7787   9.234   7.891   3.512 -0.9439 -0.2061  1.0611
  799MOL0     C 7788   9.314   7.911   3.631 -0.1347  0.6712  1.2348
  799MOL0     O 7789   9.446   7.938   3.618  0.2493  0.4751 -0.2900
  799MOL0     C 7790   9.496   8.062   3.679  0.5073 -0.2991 -0.3055
  799MOL0     C 7791   9.632   8.041   3.722  0.4886 -0.0431  0.6158
  799MOL0     C 7792   9.657   7.915   3.803 -0.9143 -0.5713  0.1219
  799MOL0     C 7793   9.806   7.904   3.856  0.6700  0.5793  1.4495
  799MOL0     C 7794   9.821   8.009   3.962 -0.3720 -0.6871 -0.4321
  799MOL0     C 7795   9.823   8.103   4.040  0.2874 -0.2722 -0.5757
  799MOL0     C 7796   9.251   7.883   3.752 -0.1330 -0.2208  0.7088
  799MOL0     C 7797   9.111   7.865   3.763  0.0100  0.1802 -0.1303
  799MOL0     H 7798   8.684   7.581   3.457 -2.6900 -1.3206  0.0293
  799MOL0     H 7799   8.441   7.589   3.397 -1.1539 -0.0478  2.3733
  799MOL0     H 7800   8.255   7.639   3.288 -0.0362 -0.9031 -0.0419
  799MOL0     H 7801   8.216   7.652   3.470 -2.0350  1.7336  0.1756
  799MOL0     H 7802   8.010   7.653   3.350  1.9923 -0.9079  0.9446
  799MOL0     H 7803   8.045   7.819   3.421  1.1323  2.9480 -0.3719
  799MOL0     H 7804   7.951   7.862   3.204  0.1564 -1.0999  0.5318
  799MOL0     H 7805   8.121   7.907   3.213  1.2427 -0.1961  0.2804
  799MOL0     H 7806   8.119   7.633   3.117 -2.1058 -1.5758 -0.7263
  799MOL0     H 7807   7.964   7.688   3.068 -1.1635  2.0432  0.7144
  799MOL0     H 7808   8.117   7.740   2.867 -0.9206 -2.2118  1.2286
  799MOL0     H 7809   8.095   7.898   2.955 -1.4617 -1.1606 -0.1073
  799MOL0     H 7810   8.305   7.842   3.083  1.2072 -1.9538  1.4034
  799MOL0     H 7811   8.325   7.691   3.008 -0.3490  0.1713 -1.7066
  799MOL0     H 7812   8.465   7.857   2.875  0.7205  3.9919 -1.9538
  799MOL0     H 7813   8.337   7.821   2.765 -2.0321  1.7696 -0.6348
  799MOL0     H 7814   8.242   8.038   2.835 -0.2040 -0.7063  0.2227
  799MOL0     H 7815   8.417   8.054   2.791  1.5539 -2.2906  0.1311
  799MOL0     H 7816   8.179   8.074   3.088  0.4701 -1.5971  3.0992
  799MOL0     H 7817   8.175   8.243   3.272  0.4500  1.4670  1.8289
  799MOL0     H 7818   8.300   8.182   3.388 -0.4943  0.9683  1.5323
  799MOL0     H 7819   8.272   8.447   3.246 -0.2553  1.7865  2.2497
  799MOL0     H 7820   8.428   8.403   3.315  0.2689 -1.8194  2.6598
  799MOL0     H 7821   8.287   8.356   3.535  3.6188 -0.3527 -1.9539
  799MOL0     H 7822   8.157   8.439   3.463  0.1309 -3.2732 -0.5440
  799MOL0     H 7823   8.424   8.545   3.501  1.9344 -0.2816 -3.9988
  799MOL0     H 7824   8.288   8.605   3.587  1.8129  0.3360 -0.1198
  799MOL0     H 7825   8.460   8.757   3.554 -3.3521 -1.0385  1.5741
  799MOL0     H 7826   8.653   9.028   3.579  0.4871  2.0927  2.1508
  799MOL0     H 7827   8.524   9.095   3.688 -2.7270  2.6646 -4.0895
  799MOL0     H 7828   8.574   8.925   3.696 -2.5896  0.2643  1.3144
  799MOL0     H 7829   8.336   9.446   3.139 -2.4152  2.1150 -1.5479
  799MOL0     H 7830   8.378   9.708   3.110  1.4207  0.2700 -0.1603
  799MOL0     H 7831   8.599   9.867   3.193  0.3166  1.0432 -0.0041
  799MOL0     H 7832   8.538  10.017   3.262  1.6268  0.1221  0.9477
  799MOL0     H 7833   8.648   9.980   3.459  1.4061  0.8906 -1.6510
  799MOL0     H 7834   8.677   9.811   3.440  2.1319 -0.1152  1.0044
  799MOL0     H 7835   8.794  10.016   3.246  0.0809  0.4509 -0.3029
  799MOL0     H 7836   8.825   9.840   3.252  0.3387 -0.6023  0.9372
  799MOL0     H 7837   8.870  10.019   3.492  0.9914  0.1610 -0.4450
  799MOL0     H 7838   8.907   9.850   3.472 -0.4951 -0.1804 -0.5490
  799MOL0     H 7839   9.060  10.087   3.324 -0.2890 -0.4208 -0.7816
  799MOL0     H 7840   9.088   9.909   3.312  0.5209 -2.5852  3.1642
  799MOL0     H 7841   9.130  10.089   3.561  1.1515 -1.5751  2.6045
  799MOL0     H 7842   9.155   9.913   3.557 -0.5964  0.2469  0.3304
  799MOL0     H 7843   9.298  10.093   3.362 -3.3338  1.5729  1.3547
  799MOL0     H 7844   9.328   9.917   3.401 -0.9413  0.5700 -1.7958
  799MOL0     H 7845   9.385  10.162   3.563 -1.0392  0.4557 -1.1460
  799MOL0     H 7846   9.501  10.048   3.500 -0.8625 -1.6967 -0.8488
  799MOL0     H 7847   8.455   9.715   3.532 -1.9369  2.3656  0.3187
  799MOL0     H 7848   8.390   9.474   3.553  0.7324  1.3904  0.6504
  799MOL0     H 7849   8.248   9.088   3.257  2.1989  2.2650  1.3345
  799MOL0     H 7850   8.197   8.864   3.240  1.5560 -1.0795 -0.8922
  799MOL0     H 7851   8.452   8.005   3.454  0.9789  0.7990  1.2477
  799MOL0     H 7852   8.692   8.009   3.489 -2.0197  1.9792  0.9414
  799MOL0     H 7853   9.048   7.860   3.414 -2.7644  2.5379  1.6426
  799MOL0     H 7854   9.290   7.909   3.421 -0.9229  1.0243  1.2985
  799MOL0     H 7855   9.495   8.145   3.606  0.9965  1.5765  1.7066
  799MOL0     H 7856   9.436   8.092   3.765 -0.0820 -2.8542  0.2535
  799MOL0     H 7857   9.677   8.127   3.774 -0.1457  1.9223 -1.8752
  799MOL0     H 7858   9.683   8.040   3.625  0.0007  0.0713  0.3568
  799MOL0     H 7859   9.630   7.829   3.740 -1.4318  0.0720 -0.5525
  799MOL0     H 7860   9.585   7.905   3.884 -2.9946 -0.5934 -1.6465
  799MOL0     H 7861   9.878   7.913   3.774  2.1594 -1.3044  2.4669
  799MOL0     H 7862   9.814   7.806   3.905  2.0749 -0.1375 -0.1091
  799MOL0     H 7863   9.832   8.182   4.112  2.9140 -1.3580  0.4105
  799MOL0     H 7864   9.312   7.887   3.842  1.1488 -2.2858  0.0035
  799MOL0     H 7865   9.070   7.829   3.856  1.1898 -1.7026 -0.3049
  800MOL0     O 7866   8.047   2.578   3.949  0.6308 -0.5946  0.5633
  800MOL0     C 7867   8.027   2.691   3.907  0.4868 -1.0261  0.2949
  800MOL0     O 7868   7.914   2.771   3.940  0.5035 -0.2316  0.3724
  800MOL0     C 7869   7.817   2.717   4.027  0.8803 -0.4187  0.3771
  800MOL0     C 7870   7.824   2.722   4.164 -0.6001 -1.0255 -0.4397
  800MOL0     C 7871   7.712   2.684   4.243 -0.1407  0.0238  0.8794
  800MOL0     C 7872   7.595   2.645   4.184  0.5146  0.1635 -0.2630
  800MOL0     O 7873   7.486   2.628   4.277 -0.3797 -0.5402  0.4726
  800MOL0     C 7874   7.351   2.615   4.235  0.2759 -0.3546 -0.6774
  800MOL0     C 7875   7.265   2.712   4.320 -0.4734 -0.3411  0.3380
  800MOL0     C 7876   7.116   2.677   4.317  0.1552  0.5201  0.0988
  800MOL0     C 7877   7.080   2.522   4.354  1.1332 -0.4530 -1.5306
  800MOL0     C 7878   7.123   2.498   4.500  0.0459 -0.3625 -0.3105
  800MOL0     C 7879   7.106   2.354   4.522 -0.1275 -0.4820  0.3617
  800MOL0     C 7880   7.135   2.330   4.674 -0.4373 -0.4965  0.8977
  800MOL0     C 7881   7.268   2.262   4.718  0.4236 -0.8152  0.3230
  800MOL0     N 7882   7.392   2.310   4.657 -0.4301 -0.1372 -0.3580
  800MOL0     C 7883   7.430   2.293   4.531  0.0092 -0.4530 -0.2615
  800MOL0     C 7884   7.547   2.352   4.522 -0.0156  0.0265 -0.3177
  800MOL0     C 7885   7.643   2.381   4.406 -0.7177 -0.2024 -0.0615
  800MOL0     C 7886   7.775   2.306   4.412  0.0712 -0.2069 -0.5579
  800MOL0     C 7887   7.868   2.398   4.489  0.1905  0.4025  0.0799
  800MOL0     C 7888   8.000   2.325   4.518  0.0860 -0.2559 -0.1934
  800MOL0     O 7889   8.068   2.308   4.385  0.0869  0.1513 -0.0580
  800MOL0     C 7890   8.207   2.291   4.381 -0.5796 -0.5674 -0.3067
  800MOL0     C 7891   8.258   2.294   4.252 -0.0547  0.8029  0.4224
  800MOL0     C 7892   8.400   2.253   4.242  1.1651 -0.1342  0.9964
  800MOL0     C 7893   8.448   2.243   4.098 -0.3584  0.5179  0.8455
  800MOL0     C 7894   8.484   2.237   4.357 -0.2522  0.3932 -0.2642
  800MOL0     C 7895   8.630   2.232   4.351  0.0440  0.7635 -0.2012
  800MOL0     O 7896   8.699   2.201   4.461 -0.5925  0.2545 -0.8747
  800MOL0     C 7897   8.839   2.208   4.464 -0.3760  0.0013  0.5987
  800MOL0     C 7898   8.903   2.318   4.513 -0.1047  0.8090  0.0682
  800MOL0     C 7899   9.041   2.339   4.483 -0.3412  0.1151 -0.4055
  800MOL0     C 7900   9.107   2.234   4.416  0.6155 -0.0723 -0.3314
  800MOL0     O 7901   9.243   2.252   4.383  0.8159  0.5021  0.0428
  800MOL0     C 7902   9.270   2.256   4.235  0.5114  0.3179 -0.6448
  800MOL0     C 7903   9.258   2.401   4.182  0.0605 -0.3827 -0.6444
  800MOL0     C 7904   9.206   2.414   4.040  0.4799 -0.3324  0.2714
  800MOL0     C 7905   9.309   2.357   3.938  0.9803 -0.1846 -0.8907
  800MOL0     C 7906   9.262   2.406   3.805  0.9896 -0.5035  0.2336
  800MOL0     C 7907   9.365   2.383   3.701 -0.5128 -0.3556 -0.9126
  800MOL0     C 7908   9.338   2.410   3.552 -0.9013 -0.4079 -0.2856
  800MOL0     C 7909   9.270   2.540   3.531 -0.3372 -0.9335 -0.4766
  800MOL0    Cl 7910   9.259   2.601   3.356  0.3515  0.3071  0.0973
  800MOL0     C 7911   9.043   2.122   4.376  0.0930 -0.0755  0.2437
  800MOL0     C 7912   8.907   2.116   4.390  0.6091 -0.5993  0.5441
  800MOL0     O 7913   8.687   2.233   4.240  0.4050  0.2421 -0.1317
  800MOL0     C 7914   8.421   2.238   4.481 -0.7676  0.7231 -0.0204
  800MOL0     C 7915   8.282   2.245   4.495 -0.1282  0.4797  0.8271
  800MOL0     N 7916   7.588   2.393   4.645  0.3514  0.2851 -0.6740
  800MOL0     N 7917   7.490   2.365   4.727  0.3070  0.4693  0.5688
  800MOL0     C 7918   7.585   2.632   4.045  0.4776 -1.1691  0.1227
  800MOL0     C 7919   7.693   2.673   3.965 -1.0769 -0.9845 -0.6420
  800MOL0     C 7920   8.127   2.745   3.813 -0.8415  0.6153  0.4933
  800MOL0     C 7921   8.236   2.655   3.782 -0.0968 -0.2892  0.6790
  800MOL0     C 7922   8.342   2.689   3.703 -1.2447 -0.1753  0.6531
  800MOL0     C 7923   8.339   2.815   3.640  0.7284  0.1279  0.2007
  800MOL0     O 7924   8.450   2.849   3.572 -0.1177  0.5541  0.5484
  800MOL0     C 7925   8.485   2.989   3.554 -0.1418  0.2871  0.3332
  800MOL0     C 7926   8.632   2.983   3.515  0.9456  0.5451  0.4337
  800MOL0     C 7927   8.661   3.125   3.484 -0.2405  0.0531  0.3366
  800MOL0     C 7928   8.809   3.154   3.448  0.0754  0.0688 -0.4080
  800MOL0     C 7929   8.846   3.298   3.432  0.0603  0.2687  0.0661
  800MOL0     C 7930   8.895   3.414   3.414 -0.0825  0.1059 -0.7052
  800MOL0     C 7931   8.232   2.904   3.662 -0.0950  0.0795 -0.8006
  800MOL0     C 7932   8.128   2.867   3.749 -0.4563 -0.3317  0.0381
  800MOL0     H 7933   7.907   2.770   4.214 -1.7723  1.2828 -0.5764
  800MOL0     H 7934   7.715   2.690   4.351  2.5699  0.2541  0.8696
  800MOL0     H 7935   7.336   2.635   4.128  0.1395 -0.1204 -0.6144
  800MOL0     H 7936   7.322   2.513   4.261 -0.6550 -0.4604 -2.0199
  800MOL0     H 7937   7.307   2.710   4.421  1.6017  1.7785 -0.3904
  800MOL0     H 7938   7.291   2.812   4.283  3.0423  1.3425  5.9905
  800MOL0     H 7939   7.055   2.745   4.377 -3.9961 -2.9579  0.2976
  800MOL0     H 7940   7.085   2.694   4.213 -0.0851  3.0326  0.5424
  800MOL0     H 7941   6.974   2.500   4.341  0.7565  0.5773 -0.3419
  800MOL0     H 7942   7.141   2.455   4.292  4.5644 -0.2859  1.2886
  800MOL0     H 7943   7.229   2.525   4.505 -0.5854  2.4816 -0.9122
  800MOL0     H 7944   7.060   2.560   4.565 -2.6879 -2.1971 -1.0364
  800MOL0     H 7945   7.004   2.323   4.497 -0.2647 -0.3795  0.7801
  800MOL0     H 7946   7.168   2.289   4.459 -1.9632 -3.5306  1.4909
  800MOL0     H 7947   7.143   2.428   4.722 -1.4101 -0.4687  1.0207
  800MOL0     H 7948   7.049   2.278   4.718 -2.3467  0.5451 -1.3622
  800MOL0     H 7949   7.266   2.152   4.718 -1.2108 -0.8169  0.0718
  800MOL0     H 7950   7.281   2.287   4.823 -0.7043 -1.9518  0.7630
  800MOL0     H 7951   7.364   2.266   4.449  0.0614 -0.7444 -0.2089
  800MOL0     H 7952   7.585   2.359   4.316 -0.1174 -1.2843 -0.1961
  800MOL0     H 7953   7.655   2.490   4.398  1.7852 -0.2865  1.4401
  800MOL0     H 7954   7.796   2.306   4.305 -2.3441 -3.4418 -1.1778
  800MOL0     H 7955   7.777   2.203   4.449  1.9312  0.6906  2.2023
  800MOL0     H 7956   7.812   2.413   4.581 -3.5643 -0.5992 -1.8406
  800MOL0     H 7957   7.892   2.489   4.433  1.5189  0.0300  0.0218
  800MOL0     H 7958   7.992   2.233   4.576  2.3692  0.2075  0.9694
  800MOL0     H 7959   8.064   2.385   4.584 -1.4062 -1.9373  2.9997
  800MOL0     H 7960   8.190   2.319   4.171 -2.3976  0.7055  2.2815
  800MOL0     H 7961   8.466   2.346   4.065  1.2579  0.3738  1.1758
  800MOL0     H 7962   8.541   2.186   4.085  1.2884  2.7067  2.1268
  800MOL0     H 7963   8.370   2.187   4.046  2.0658 -3.1076  0.7187
  800MOL0     H 7964   8.843   2.393   4.563 -0.9255  1.2738 -1.5393
  800MOL0     H 7965   9.094   2.431   4.507  3.7909 -2.3745  0.8823
  800MOL0     H 7966   9.374   2.225   4.227  0.7214  1.0554 -0.8763
  800MOL0     H 7967   9.210   2.193   4.169  0.7559 -0.3141 -0.2664
  800MOL0     H 7968   9.188   2.464   4.238 -1.1847  0.3998 -2.9667
  800MOL0     H 7969   9.358   2.444   4.191 -0.5052  0.8311  0.1448
  800MOL0     H 7970   9.204   2.522   4.022  1.8178 -0.3582 -0.1191
  800MOL0     H 7971   9.106   2.371   4.032 -0.7351  2.3185 -0.1069
  800MOL0     H 7972   9.401   2.405   3.972  0.2362  2.0568 -1.8729
  800MOL0     H 7973   9.330   2.249   3.935  4.3268  0.3559 -0.8140
  800MOL0     H 7974   9.241   2.513   3.814 -0.5439 -0.8539  1.1396
  800MOL0     H 7975   9.170   2.358   3.770  0.7787 -0.2851  0.4893
  800MOL0     H 7976   9.455   2.437   3.732  0.2091 -3.2632  2.7144
  800MOL0     H 7977   9.389   2.277   3.697 -0.1347 -0.2390 -2.8490
  800MOL0     H 7978   9.276   2.332   3.506 -1.6686  0.5629 -0.9208
  800MOL0     H 7979   9.434   2.407   3.499  0.7433 -0.2282  2.5211
  800MOL0     H 7980   9.314   2.606   3.607  2.4195  0.0009 -2.7353
  800MOL0     H 7981   9.171   2.528   3.577  0.9532 -0.5358  2.6849
  800MOL0     H 7982   9.097   2.049   4.316  2.1212  0.8427  0.8399
  800MOL0     H 7983   8.845   2.035   4.353  0.2366 -1.2624  2.4659
  800MOL0     H 7984   8.481   2.230   4.572 -0.7914 -1.1276 -0.1349
  800MOL0     H 7985   8.232   2.232   4.590  2.8884 -3.3442  2.2044
  800MOL0     H 7986   7.491   2.618   3.993  0.6314 -1.1271 -0.1720
  800MOL0     H 7987   7.687   2.664   3.857  0.4353 -2.1091 -0.6635
  800MOL0     H 7988   8.241   2.561   3.837 -0.1859 -1.2713 -0.9242
  800MOL0     H 7989   8.414   2.614   3.675 -1.2591  0.8755 -2.5904
  800MOL0     H 7990   8.440   3.024   3.461  1.0088  1.1412  0.0764
  800MOL0     H 7991   8.465   3.057   3.638  4.4276  1.1185  0.9833
  800MOL0     H 7992   8.629   2.927   3.421 -0.4484  0.7609  0.3187
  800MOL0     H 7993   8.692   2.937   3.593  0.5162 -2.6112 -0.9758
  800MOL0     H 7994   8.624   3.180   3.571  1.4498 -0.4337  1.4192
  800MOL0     H 7995   8.599   3.163   3.402 -0.7170 -0.6364  0.3700
  800MOL0     H 7996   8.823   3.097   3.356 -0.1571 -1.0773  0.2431
  800MOL0     H 7997   8.862   3.105   3.530  0.2495  0.2914 -0.3894
  800MOL0     H 7998   8.944   3.509   3.406  1.3581  0.0865  4.4142
  800MOL0     H 7999   8.234   3.010   3.641  3.4261  0.1585 -0.6690
  800MOL0     H 8000   8.048   2.940   3.755  0.9959  1.2868  0.6787
  801MOL0     O 8001   8.325   3.978   4.146 -0.1952 -0.8577  0.6094
  801MOL0     C 8002   8.313   3.863   4.104  0.3043  0.8648  0.7159
  801MOL0     O 8003   8.198   3.803   4.070 -0.3216  0.8774  0.4071
  801MOL0     C 8004   8.083   3.868   4.064 -0.0787 -0.4513 -0.1019
  801MOL0     C 8005   7.978   3.843   4.147  1.1023 -0.3955  0.2101
  801MOL0     C 8006   7.857   3.909   4.128 -0.4761  0.3579  0.6393
  801MOL0     C 8007   7.840   4.010   4.037  0.3684 -0.2941 -0.2545
  801MOL0     O 8008   7.717   4.072   4.035 -0.1476  0.0444  0.4654
  801MOL0     C 8009   7.699   4.183   3.946 -0.1212 -0.2525  0.6379
  801MOL0     C 8010   7.557   4.227   3.966  0.5871 -0.4218  0.2698
  801MOL0     C 8011   7.507   4.311   3.839 -0.9799  0.9909 -0.5345
  801MOL0     C 8012   7.352   4.334   3.853  0.5693  0.2465  0.1040
  801MOL0     C 8013   7.291   4.389   3.727 -0.6687 -0.2969 -0.4830
  801MOL0     C 8014   7.140   4.374   3.741 -0.1578 -0.6621  0.2052
  801MOL0     C 8015   7.063   4.443   3.624  0.5249  0.0886 -0.0193
  801MOL0     C 8016   7.056   4.374   3.490  0.1391  0.3357  0.3229
  801MOL0     N 8017   7.179   4.384   3.417  0.0260  0.2817  1.0393
  801MOL0     C 8018   7.230   4.499   3.369 -0.4438  0.4362  0.6672
  801MOL0     C 8019   7.342   4.470   3.310 -0.7315 -0.0655  0.1539
  801MOL0     C 8020   7.438   4.553   3.230  1.0062 -0.1675  0.2860
  801MOL0     C 8021   7.385   4.580   3.089  0.5370 -0.6555  1.2496
  801MOL0     C 8022   7.476   4.692   3.011 -0.0423  0.4348 -0.6848
  801MOL0     C 8023   7.423   4.707   2.868  0.7039 -0.2833  0.0931
  801MOL0     O 8024   7.459   4.816   2.781  0.6083 -0.0672 -0.1605
  801MOL0     C 8025   7.583   4.818   2.722  0.1543 -0.1236 -0.7696
  801MOL0     C 8026   7.624   4.935   2.648  0.2797  0.6930  0.1718
  801MOL0     C 8027   7.738   4.941   2.572  0.1765 -0.2049 -0.3098
  801MOL0     C 8028   7.771   5.078   2.506  0.0464 -0.5246  0.4264
  801MOL0     C 8029   7.829   4.834   2.582 -1.0247  1.1781  0.4098
  801MOL0     C 8030   7.961   4.820   2.504  0.8998  0.5801  0.7218
  801MOL0     O 8031   7.998   4.926   2.424  0.5248  0.1497  0.0164
  801MOL0     C 8032   8.127   4.923   2.379  0.6434  0.8915  0.4009
  801MOL0     C 8033   8.151   4.954   2.244  0.1015 -0.1228 -0.3919
  801MOL0     C 8034   8.281   4.946   2.199 -0.0958 -0.1203 -0.1125
  801MOL0     C 8035   8.387   4.918   2.281  0.1489 -0.8238 -0.7360
  801MOL0     O 8036   8.505   4.892   2.219  0.1761  0.2818  0.7385
  801MOL0     C 8037   8.626   4.905   2.287  0.1787  0.1136  0.3021
  801MOL0     C 8038   8.737   4.956   2.203 -0.3890  0.6668 -1.1084
  801MOL0     C 8039   8.743   5.101   2.174  0.7111 -0.3825 -0.4023
  801MOL0     C 8040   8.857   5.131   2.069  0.7233 -0.8710  0.4826
  801MOL0     C 8041   8.823   5.279   2.027 -0.2416 -0.4839 -0.3622
  801MOL0     C 8042   8.941   5.355   1.954 -0.0439  0.4022 -1.1383
  801MOL0     C 8043   8.970   5.306   1.812 -0.7974  0.4146 -0.2858
  801MOL0     C 8044   9.074   5.386   1.742 -0.2249 -0.3344  0.4254
  801MOL0    Cl 8045   9.229   5.336   1.804  0.1843  0.6326  0.1071
  801MOL0     C 8046   8.372   4.892   2.413  0.6034 -0.4379 -0.8767
  801MOL0     C 8047   8.236   4.900   2.470 -0.4732 -0.3466  0.4816
  801MOL0     O 8048   8.016   4.710   2.510  0.1721 -1.3506 -0.0548
  801MOL0     C 8049   7.796   4.724   2.662 -0.1814 -0.4174 -0.2101
  801MOL0     C 8050   7.673   4.711   2.728  0.1900  0.3549  0.8667
  801MOL0     N 8051   7.355   4.326   3.315 -0.7993  0.6270 -0.3721
  801MOL0     N 8052   7.247   4.277   3.367  0.4755 -0.4217  0.2808
  801MOL0     C 8053   7.950   4.052   3.954 -0.6497  0.2959 -0.5699
  801MOL0     C 8054   8.075   3.974   3.972  0.7702 -0.5869 -0.5418
  801MOL0     C 8055   8.430   3.780   4.087 -0.9674 -0.0766 -0.5579
  801MOL0     C 8056   8.424   3.648   4.045 -0.0428 -0.6769  0.6784
  801MOL0     C 8057   8.544   3.574   4.026  0.2654  0.5729 -0.1738
  801MOL0     C 8058   8.670   3.639   4.030 -0.4573 -0.2026 -0.7524
  801MOL0     O 8059   8.797   3.585   3.997  0.1217 -0.2951  0.9178
  801MOL0     C 8060   8.791   3.463   3.918 -0.6317  0.6014  0.4472
  801MOL0     C 8061   8.927   3.401   3.890  0.0628 -0.2223 -0.1656
  801MOL0     C 8062   8.926   3.280   3.799  0.8648  0.1415  0.5963
  801MOL0     C 8063   9.071   3.226   3.793  0.6193  0.4263  0.6575
  801MOL0     C 8064   9.147   3.300   3.690 -1.0132 -0.2926 -0.0135
  801MOL0     C 8065   9.204   3.395   3.626  0.3390  0.1941 -0.0687
  801MOL0     C 8066   8.677   3.768   4.078 -0.9044 -0.3257 -0.6323
  801MOL0     C 8067   8.563   3.832   4.118 -0.9459  0.6826  0.0798
  801MOL0     H 8068   7.984   3.766   4.224 -1.2824 -2.1573 -1.2298
  801MOL0     H 8069   7.775   3.891   4.197 -2.3535  1.1782 -1.2774
  801MOL0     H 8070   7.766   4.264   3.977 -0.9033  0.5269  0.3220
  801MOL0     H 8071   7.724   4.161   3.841 -2.4387  0.5915 -0.1531
  801MOL0     H 8072   7.489   4.149   3.998  0.4993 -1.1443 -1.5618
  801MOL0     H 8073   7.543   4.304   4.042 -0.9089  1.6159 -1.9152
  801MOL0     H 8074   7.558   4.407   3.823  0.7815  0.1097 -0.4245
  801MOL0     H 8075   7.530   4.254   3.748  0.0600  2.6073 -1.3398
  801MOL0     H 8076   7.301   4.238   3.864 -2.5542  1.2478 -3.5057
  801MOL0     H 8077   7.323   4.392   3.941  0.6961 -0.0869  0.3686
  801MOL0     H 8078   7.306   4.496   3.711 -1.9203 -0.3066 -2.0784
  801MOL0     H 8079   7.330   4.330   3.643  1.3344  0.5853 -0.2246
  801MOL0     H 8080   7.110   4.269   3.747  2.0062 -1.7173 -3.6665
  801MOL0     H 8081   7.108   4.429   3.830  0.9562  1.6392 -0.7306
  801MOL0     H 8082   6.960   4.462   3.655  0.9366  0.2924  1.3160
  801MOL0     H 8083   7.113   4.538   3.603 -1.3674  0.6499 -2.3752
  801MOL0     H 8084   6.997   4.440   3.427  2.3488  2.6190  0.4862
  801MOL0     H 8085   7.011   4.274   3.493 -1.2542  0.8405 -1.7904
  801MOL0     H 8086   7.187   4.598   3.383  0.2731  0.4982  2.6694
  801MOL0     H 8087   7.461   4.646   3.283 -0.0628  0.5704 -0.5016
  801MOL0     H 8088   7.532   4.496   3.228  0.2934 -1.5620  2.7720
  801MOL0     H 8089   7.277   4.597   3.092  0.5060  0.1504 -1.6982
  801MOL0     H 8090   7.391   4.486   3.032 -0.9318 -0.6971  1.1377
  801MOL0     H 8091   7.583   4.669   3.012 -0.0846  0.2407 -0.5126
  801MOL0     H 8092   7.457   4.790   3.057  4.2770  1.1338  0.0095
  801MOL0     H 8093   7.314   4.714   2.873  0.7280  1.4974 -0.9066
  801MOL0     H 8094   7.448   4.612   2.820 -0.9992 -2.5159  3.2403
  801MOL0     H 8095   7.557   5.020   2.658 -0.6296  0.2392 -1.6012
  801MOL0     H 8096   7.863   5.122   2.544  1.9429 -1.7046 -2.4943
  801MOL0     H 8097   7.775   5.073   2.397  3.1570 -1.2056  0.4921
  801MOL0     H 8098   7.697   5.155   2.529 -2.8374 -2.5256 -1.4669
  801MOL0     H 8099   8.078   4.975   2.166  2.4814  3.4655 -1.9155
  801MOL0     H 8100   8.303   4.966   2.095  1.6390  2.1209  0.5801
  801MOL0     H 8101   8.619   4.968   2.377 -1.6692 -0.4967  0.6310
  801MOL0     H 8102   8.658   4.809   2.328 -0.9419 -0.2804  0.2786
  801MOL0     H 8103   8.824   4.935   2.267 -1.3867 -0.6384 -0.1310
  801MOL0     H 8104   8.748   4.906   2.107  1.8120  1.0875 -1.1260
  801MOL0     H 8105   8.763   5.153   2.268  0.3648 -2.8615  1.1237
  801MOL0     H 8106   8.646   5.142   2.145 -0.3812  0.2239  3.5796
  801MOL0     H 8107   8.958   5.119   2.110  1.3346 -1.5664 -1.1225
  801MOL0     H 8108   8.851   5.062   1.984 -1.1872 -0.9833  0.6848
  801MOL0     H 8109   8.782   5.337   2.110  0.6254  1.3850 -1.1555
  801MOL0     H 8110   8.743   5.268   1.954  0.4564 -1.4068 -1.0130
  801MOL0     H 8111   8.919   5.460   1.972 -2.3727 -0.4606  1.9090
  801MOL0     H 8112   9.030   5.326   2.011  0.1718  0.7440 -1.2971
  801MOL0     H 8113   8.881   5.316   1.749 -0.1019 -0.1414 -1.3908
  801MOL0     H 8114   8.981   5.198   1.803  2.5387  0.7799 -2.8438
  801MOL0     H 8115   9.059   5.494   1.736 -4.1947 -0.7684 -1.0966
  801MOL0     H 8116   9.067   5.352   1.638 -2.5416 -1.0673  0.7625
  801MOL0     H 8117   8.453   4.856   2.476 -1.0849  0.1842  1.8296
  801MOL0     H 8118   8.223   4.869   2.573  4.1875  2.9215  2.4161
  801MOL0     H 8119   7.861   4.637   2.669  2.3313  1.2954 -0.9192
  801MOL0     H 8120   7.645   4.618   2.776 -0.4800 -0.4895 -1.0723
  801MOL0     H 8121   7.940   4.127   3.876 -1.8665 -2.0200 -2.8057
  801MOL0     H 8122   8.167   3.989   3.916  1.1762 -3.2951 -0.7477
  801MOL0     H 8123   8.332   3.591   4.041  0.1313 -0.9131 -0.7726
  801MOL0     H 8124   8.521   3.472   3.995  0.3481  0.5761 -0.2472
  801MOL0     H 8125   8.729   3.388   3.968  0.1565 -0.2535  0.1452
  801MOL0     H 8126   8.751   3.491   3.820  0.4231  1.7044  0.3024
  801MOL0     H 8127   8.977   3.385   3.986 -2.0314  2.0541  1.4569
  801MOL0     H 8128   8.996   3.474   3.847  1.8536 -1.5916  0.2869
  801MOL0     H 8129   8.894   3.316   3.701 -0.1575  0.8650  1.1717
  801MOL0     H 8130   8.860   3.200   3.833  0.3346 -0.4934 -1.7392
  801MOL0     H 8131   9.083   3.121   3.766 -1.9939 -0.2413  1.7486
  801MOL0     H 8132   9.116   3.232   3.893  0.2802  2.5971  0.7265
  801MOL0     H 8133   9.254   3.475   3.576  1.2248  0.9754  1.9639
  801MOL0     H 8134   8.774   3.813   4.091 -1.0448 -0.7140  2.4935
  801MOL0     H 8135   8.570   3.936   4.150  0.4408  0.9594 -1.0332
  802MOL0     O 8136   1.972  10.820   3.790  0.0401  0.0613  0.0916
  802MOL0     C 8137   2.055  10.850   3.692  0.1326 -0.0567  0.6095
  802MOL0     O 8138   2.022  10.888   3.565 -0.2588 -0.7304  0.3296
  802MOL0     C 8139   1.889  10.889   3.544  1.0347  0.0426 -1.1836
  802MOL0     C 8140   1.832  10.788   3.471  0.5424  0.7112 -0.6539
  802MOL0     C 8141   1.702  10.773   3.459  0.0174 -1.0222  0.3454
  802MOL0     C 8142   1.617  10.879   3.498  0.0139  0.4409 -0.1672
  802MOL0     O 8143   1.478  10.849   3.480 -0.5961 -0.0779  0.4686
  802MOL0     C 8144   1.405  10.977   3.445 -0.0476  0.2919  0.1056
  802MOL0     C 8145   1.273  10.941   3.377 -0.1941 -0.3727  0.1336
  802MOL0     C 8146   1.160  10.893   3.478 -0.0114  0.0442  0.1944
  802MOL0     C 8147   1.022  10.890   3.403 -0.4093  0.7369  0.3217
  802MOL0     C 8148   0.964  11.035   3.409 -0.4486 -0.3733  0.6148
  802MOL0     C 8149   0.821  11.036   3.444 -0.0979  0.6092  0.2089
  802MOL0     C 8150   0.724  11.135   3.388  0.6586  0.0495  0.1482
  802MOL0     C 8151   0.654  11.083   3.260  1.1677  0.3737 -0.6195
  802MOL0     N 8152   0.732  11.120   3.149  0.1158  0.6035  0.5788
  802MOL0     C 8153   0.690  11.226   3.065  0.9217  0.2759 -0.4959
  802MOL0     C 8154   0.766  11.197   2.957 -0.2976 -0.0665 -0.0384
  802MOL0     C 8155   0.770  11.270   2.829 -0.0134  0.1590 -0.2575
  802MOL0     C 8156   0.780  11.431   2.864 -0.9634  0.1375 -0.0372
  802MOL0     C 8157   0.740  11.520   2.750 -0.6346  0.2214  0.2264
  802MOL0     C 8158   0.788  11.665   2.752 -0.2582  0.6481  0.6145
  802MOL0     O 8159   0.931  11.667   2.774 -0.4968  0.2832  0.1236
  802MOL0     C 8160   0.998  11.776   2.736 -0.1121  0.5859 -0.2182
  802MOL0     C 8161   0.952  11.898   2.672  0.9919  0.6087 -0.8783
  802MOL0     C 8162   1.035  12.005   2.658  0.2482 -0.8461 -0.3836
  802MOL0     C 8163   0.989  12.120   2.574  0.4146  0.6971 -0.3792
  802MOL0     C 8164   1.166  12.004   2.703 -0.6219 -0.1995  0.0520
  802MOL0     C 8165   1.276  12.108   2.677 -0.6753 -0.8504 -0.1400
  802MOL0     O 8166   1.328  12.180   2.780 -0.1854  0.8013 -0.6584
  802MOL0     C 8167   1.383  12.296   2.742 -0.0674  0.9769  0.8875
  802MOL0     C 8168   1.517  12.306   2.732  0.3232 -1.0048 -0.2357
  802MOL0     C 8169   1.577  12.435   2.717 -0.9198 -1.0101 -1.1236
  802MOL0     C 8170   1.505  12.554   2.705  0.6030 -1.2126  0.5511
  802MOL0     O 8171   1.564  12.670   2.679  0.1023  0.6346  0.4041
  802MOL0     C 8172   1.655  12.716   2.782  0.4122  0.5565 -0.5665
  802MOL0     C 8173   1.654  12.862   2.744 -0.7590  0.0038  0.4479
  802MOL0     C 8174   1.536  12.948   2.778 -0.2168 -0.5501 -0.3651
  802MOL0     C 8175   1.539  13.077   2.687  0.1135  0.6238 -0.1007
  802MOL0     C 8176   1.416  13.175   2.691 -0.8772  0.3426 -0.4418
  802MOL0     C 8177   1.378  13.208   2.545 -0.2153  0.6025  0.0028
  802MOL0     C 8178   1.490  13.292   2.479 -0.3887  0.1784 -0.1639
  802MOL0     C 8179   1.519  13.240   2.338 -0.3543  0.7654  0.3632
  802MOL0    Cl 8180   1.631  13.349   2.257  0.4190 -0.7247 -0.0874
  802MOL0     C 8181   1.360  12.548   2.715 -0.9504  0.3716  0.6535
  802MOL0     C 8182   1.306  12.415   2.733 -0.6915  0.1059  0.2630
  802MOL0     O 8183   1.310  12.129   2.561  0.4386 -0.2548  0.2161
  802MOL0     C 8184   1.202  11.896   2.785  0.5979 -0.1177  0.4504
  802MOL0     C 8185   1.121  11.785   2.794 -0.6137 -0.3715 -0.0248
  802MOL0     N 8186   0.846  11.089   2.975  0.1194  0.5175 -0.3590
  802MOL0     N 8187   0.818  11.040   3.086 -0.5005  0.2002 -0.3503
  802MOL0     C 8188   1.667  10.991   3.561  0.4041 -0.3793 -0.3905
  802MOL0     C 8189   1.804  10.998   3.583 -0.4550 -0.1783  0.4461
  802MOL0     C 8190   2.198  10.842   3.728  0.0018  0.5750 -0.4942
  802MOL0     C 8191   2.241  10.832   3.861  0.1536  0.4309  0.6407
  802MOL0     C 8192   2.376  10.816   3.888 -0.0574  0.4055  0.3754
  802MOL0     C 8193   2.466  10.814   3.787 -1.3115  0.0925 -0.3837
  802MOL0     O 8194   2.601  10.784   3.812 -0.7072  0.4036  0.5037
  802MOL0     C 8195   2.670  10.861   3.900  0.1096 -0.3531  0.6910
  802MOL0     C 8196   2.815  10.806   3.884  0.1194 -0.1861  0.2664
  802MOL0     C 8197   2.890  10.865   3.997 -0.6355  0.2634 -0.6733
  802MOL0     C 8198   3.022  10.792   4.017 -0.1523 -0.3648 -0.9392
  802MOL0     C 8199   3.102  10.851   4.128 -1.0760 -0.8844  0.4552
  802MOL0     C 8200   3.185  10.904   4.210 -0.0212  0.1290 -0.0697
  802MOL0     C 8201   2.426  10.819   3.658  0.4478  0.0855  0.3119
  802MOL0     C 8202   2.296  10.826   3.632 -0.0058 -0.0117 -0.1530
  802MOL0     H 8203   1.892  10.706   3.433  1.7184  1.7314 -1.0699
  802MOL0     H 8204   1.644  10.686   3.430  0.1602 -1.4637  1.3575
  802MOL0     H 8205   1.393  11.041   3.533  4.1149 -0.1159  1.1639
  802MOL0     H 8206   1.469  11.036   3.377 -0.0727  0.8407  0.5512
  802MOL0     H 8207   1.238  11.023   3.314  2.4571  1.2110  0.5508
  802MOL0     H 8208   1.302  10.858   3.313 -2.0752 -0.1639 -1.0735
  802MOL0     H 8209   1.200  10.798   3.513 -0.4419  0.4088  1.7280
  802MOL0     H 8210   1.149  10.954   3.568  1.2449 -0.4861  0.7262
  802MOL0     H 8211   1.042  10.850   3.303 -0.5817 -2.4664  1.4493
  802MOL0     H 8212   0.971  10.817   3.466 -1.1242  1.3435  0.4564
  802MOL0     H 8213   1.020  11.103   3.474  0.2192 -0.6491  0.3343
  802MOL0     H 8214   1.002  11.078   3.316  3.7064 -4.7056 -0.0915
  802MOL0     H 8215   0.772  10.940   3.427  0.8755 -0.2181  1.9045
  802MOL0     H 8216   0.821  11.043   3.553  2.3707 -0.0148  0.3044
  802MOL0     H 8217   0.638  11.134   3.456 -1.3910  0.6938 -2.2939
  802MOL0     H 8218   0.753  11.240   3.384  3.2807 -0.5901  0.5769
  802MOL0     H 8219   0.551  11.121   3.262  1.1188  0.2320 -0.1291
  802MOL0     H 8220   0.640  10.974   3.263 -2.5590  0.6909  2.2701
  802MOL0     H 8221   0.621  11.306   3.092  1.1299 -0.0311  1.0337
  802MOL0     H 8222   0.861  11.237   2.777  1.3823  2.0785  0.8411
  802MOL0     H 8223   0.677  11.264   2.772 -0.9848  0.4800  1.2731
  802MOL0     H 8224   0.881  11.453   2.902 -1.4662  1.5990  0.5594
  802MOL0     H 8225   0.717  11.470   2.945  2.9391  2.5438  2.2122
  802MOL0     H 8226   0.632  11.515   2.732 -0.3258  1.8680 -2.7384
  802MOL0     H 8227   0.793  11.483   2.661  1.0862 -0.5734  1.5321
  802MOL0     H 8228   0.739  11.717   2.835  1.6939  0.1981  2.1125
  802MOL0     H 8229   0.766  11.709   2.654  0.2470 -2.2254 -0.8825
  802MOL0     H 8230   0.849  11.906   2.639 -0.0962 -1.9076  1.5331
  802MOL0     H 8231   0.881  12.130   2.579  0.2881  0.6133 -2.1686
  802MOL0     H 8232   1.034  12.212   2.611 -0.0808 -0.0977  2.4113
  802MOL0     H 8233   1.012  12.099   2.469  3.7844 -0.5131  0.4536
  802MOL0     H 8234   1.569  12.212   2.744  1.0891 -0.4464  1.1095
  802MOL0     H 8235   1.685  12.440   2.708 -0.9719  2.7267 -1.4211
  802MOL0     H 8236   1.617  12.703   2.884 -1.2696  2.8879 -0.8197
  802MOL0     H 8237   1.757  12.679   2.772  0.0163 -0.6533 -0.2566
  802MOL0     H 8238   1.743  12.906   2.789  1.2644 -1.1026 -2.1666
  802MOL0     H 8239   1.669  12.863   2.635 -0.3364 -2.8816  0.4040
  802MOL0     H 8240   1.549  12.968   2.884  2.5666 -2.2787 -0.2973
  802MOL0     H 8241   1.434  12.917   2.753 -0.5131 -1.0970  1.4218
  802MOL0     H 8242   1.627  13.142   2.697  0.5770 -0.2515  1.7766
  802MOL0     H 8243   1.544  13.039   2.584  1.4325  2.0006 -0.5909
  802MOL0     H 8244   1.419  13.266   2.751 -0.9583  1.7548 -2.4990
  802MOL0     H 8245   1.330  13.126   2.739 -0.7995  2.1434  1.7121
  802MOL0     H 8246   1.373  13.114   2.488 -2.7351  0.7432 -0.1183
  802MOL0     H 8247   1.276  13.247   2.538 -0.0555  1.1960  0.8388
  802MOL0     H 8248   1.579  13.306   2.540  0.0089 -0.5963 -0.5392
  802MOL0     H 8249   1.439  13.387   2.460  1.5294  1.3098  0.1577
  802MOL0     H 8250   1.432  13.240   2.272  0.1637  1.5639 -0.3446
  802MOL0     H 8251   1.563  13.141   2.332  1.0034  1.4063 -0.9299
  802MOL0     H 8252   1.293  12.634   2.714  0.6563  1.7775  2.8650
  802MOL0     H 8253   1.201  12.395   2.750 -0.2257 -1.0875  1.9673
  802MOL0     H 8254   1.300  11.890   2.831  0.1460 -0.6400  1.3653
  802MOL0     H 8255   1.170  11.707   2.851  1.0954 -0.5362 -1.6356
  802MOL0     H 8256   1.604  11.074   3.590  0.2582 -1.3511  2.3907
  802MOL0     H 8257   1.863  11.081   3.620  1.3260 -1.2123  0.0264
  802MOL0     H 8258   2.158  10.828   3.932 -1.2502  1.6785 -0.8535
  802MOL0     H 8259   2.414  10.804   3.989  2.1992  2.4808 -0.1155
  802MOL0     H 8260   2.681  10.966   3.871  3.0097  0.2952  3.5387
  802MOL0     H 8261   2.626  10.849   3.999 -0.5809  3.5224  1.0044
  802MOL0     H 8262   2.859  10.837   3.788 -2.2623  0.4086 -0.7047
  802MOL0     H 8263   2.813  10.697   3.888  0.8501 -0.2437 -0.6533
  802MOL0     H 8264   2.831  10.862   4.088 -0.1624  0.1710 -0.3649
  802MOL0     H 8265   2.914  10.970   3.975  2.6227 -0.3679 -0.6417
  802MOL0     H 8266   3.078  10.783   3.924 -3.4569  2.2394 -3.3989
  802MOL0     H 8267   3.005  10.690   4.054  1.8596 -0.0825  1.0680
  802MOL0     H 8268   3.262  10.951   4.269 -2.1355 -1.5368  4.4991
  802MOL0     H 8269   2.491  10.816   3.571 -0.9229 -1.0998 -0.7163
  802MOL0     H 8270   2.260  10.820   3.530  0.9338  0.7237 -0.5408
  803MOL0     O 8271  10.385  10.871   0.995 -0.6255 -0.3269  0.2953
  803MOL0     C 8272  10.387  10.920   1.111  0.0026 -0.5433 -0.8934
  803MOL0     O 8273  10.285  10.922   1.201  0.2760  0.1016 -0.0666
  803MOL0     C 8274  10.156  10.899   1.153  0.4128  0.2750 -0.0137
  803MOL0     C 8275  10.065  11.005   1.150 -0.5415  0.0301  0.2614
  803MOL0     C 8276   9.936  10.986   1.109  0.0852  0.0132  0.7572
  803MOL0     C 8277   9.895  10.864   1.060  0.2632 -0.7805 -0.3595
  803MOL0     O 8278   9.778  10.850   0.992  0.8589  0.2994 -0.6100
  803MOL0     C 8279   9.684  10.750   1.044  0.8260 -0.6272 -0.1820
  803MOL0     C 8280   9.628  10.781   1.185 -0.9975  0.2031 -0.2911
  803MOL0     C 8281   9.554  10.923   1.184 -0.7243  0.2708  0.5008
  803MOL0     C 8282   9.461  10.949   1.301  0.8245 -0.2054  0.1890
  803MOL0     C 8283   9.375  11.072   1.270  0.5606 -0.0053 -0.7004
  803MOL0     C 8284   9.286  11.113   1.392 -0.2803 -0.5045  0.1139
  803MOL0     C 8285   9.245  11.262   1.368 -0.1648  0.2815 -0.4432
  803MOL0     C 8286   9.136  11.308   1.467  0.0309 -0.3825 -0.2887
  803MOL0     N 8287   9.003  11.271   1.421  0.2086  1.3724  0.1829
  803MOL0     C 8288   8.923  11.328   1.330 -0.0449  0.2475  0.3338
  803MOL0     C 8289   8.811  11.248   1.313 -0.1378 -1.3284 -0.0578
  803MOL0     C 8290   8.687  11.289   1.239  0.7004 -1.3619 -0.1291
  803MOL0     C 8291   8.639  11.435   1.238 -0.0672 -0.4148  0.6235
  803MOL0     C 8292   8.615  11.482   1.379 -0.4794 -0.4741  0.5972
  803MOL0     C 8293   8.528  11.604   1.377 -0.0999 -0.6712 -0.2673
  803MOL0     O 8294   8.422  11.577   1.464  0.6148 -0.3899 -0.9515
  803MOL0     C 8295   8.431  11.636   1.591  0.0572  0.3198  0.3838
  803MOL0     C 8296   8.410  11.771   1.602  0.1600  0.7524 -0.1570
  803MOL0     C 8297   8.423  11.836   1.722  0.2659  0.1512 -0.0049
  803MOL0     C 8298   8.392  11.983   1.726 -0.3224 -0.0192  0.7687
  803MOL0     C 8299   8.453  11.759   1.831  0.0955  0.5015 -0.0588
  803MOL0     C 8300   8.482  11.825   1.961 -0.2791 -0.0043  0.8684
  803MOL0     O 8301   8.495  11.735   2.067 -0.4933  0.4229  0.2058
  803MOL0     C 8302   8.523  11.786   2.190 -0.2319 -0.7258  0.2703
  803MOL0     C 8303   8.445  11.876   2.262 -0.0731  0.6546  0.9199
  803MOL0     C 8304   8.492  11.930   2.384  0.1902  0.0342 -0.6561
  803MOL0     C 8305   8.620  11.894   2.439  0.7217  0.1221  0.0285
  803MOL0     O 8306   8.668  11.933   2.556  0.2586  0.3790  0.3058
  803MOL0     C 8307   8.712  12.073   2.552  0.6412 -0.3395  0.2193
  803MOL0     C 8308   8.721  12.144   2.680  0.5608 -0.5806  0.1224
  803MOL0     C 8309   8.592  12.207   2.726  0.4522 -0.0434  0.3197
  803MOL0     C 8310   8.569  12.350   2.659  0.4044 -0.7812  0.2591
  803MOL0     C 8311   8.611  12.469   2.746 -0.8534 -0.5929  0.1569
  803MOL0     C 8312   8.543  12.585   2.662 -0.2347  1.0941 -0.0899
  803MOL0     C 8313   8.575  12.710   2.733  0.5160  0.6918  0.5933
  803MOL0     C 8314   8.492  12.833   2.704  0.2461  0.0207  0.4850
  803MOL0    Cl 8315   8.322  12.787   2.728 -0.9055  0.7365  0.0021
  803MOL0     C 8316   8.691  11.796   2.368 -0.1143  0.2309 -0.4895
  803MOL0     C 8317   8.648  11.748   2.240  0.3174  0.2121  0.0282
  803MOL0     O 8318   8.502  11.945   1.972  0.6591 -0.0582 -0.2494
  803MOL0     C 8319   8.466  11.620   1.820 -0.8350 -0.0584  0.3962
  803MOL0     C 8320   8.448  11.551   1.701  0.5915 -0.4252  1.0035
  803MOL0     N 8321   8.820  11.147   1.406  0.1632 -0.8397  0.5964
  803MOL0     N 8322   8.929  11.166   1.481  0.1758  0.1400  0.7777
  803MOL0     C 8323   9.987  10.756   1.061 -0.0346  0.6152  1.1232
  803MOL0     C 8324  10.117  10.776   1.103 -1.0214 -0.1671 -0.6329
  803MOL0     C 8325  10.513  10.955   1.164 -0.5900 -0.5163 -0.7531
  803MOL0     C 8326  10.546  10.900   1.298 -0.6959  0.0793  0.1016
  803MOL0     C 8327  10.660  10.946   1.370 -0.2149  0.3090  0.2140
  803MOL0     C 8328  10.746  11.033   1.309 -0.1109 -0.3051 -0.1033
  803MOL0     O 8329  10.846  11.092   1.381 -1.2359  0.2122  0.3475
  803MOL0     C 8330  10.812  11.226   1.420  0.2564  0.3037 -0.3591
  803MOL0     C 8331  10.941  11.289   1.496  0.4456  1.1526  0.7470
  803MOL0     C 8332  11.064  11.299   1.400  0.4828  0.6287 -0.2630
  803MOL0     C 8333  11.186  11.349   1.481  0.7798  0.0637 -0.5429
  803MOL0     C 8334  11.312  11.344   1.408  0.0143  0.1534 -0.8725
  803MOL0     C 8335  11.416  11.377   1.362 -0.6749 -0.1138 -0.0173
  803MOL0     C 8336  10.726  11.078   1.179  0.7389  0.3926  0.6048
  803MOL0     C 8337  10.609  11.043   1.105 -0.3261  0.9778 -0.2034
  803MOL0     H 8338  10.111  11.103   1.165  0.2724  0.6628 -4.7182
  803MOL0     H 8339   9.869  11.069   1.092  1.5209  0.8199 -1.3849
  803MOL0     H 8340   9.614  10.733   0.962 -1.0403  2.3965  0.6390
  803MOL0     H 8341   9.739  10.657   1.062  0.1516 -1.3683 -1.7639
  803MOL0     H 8342   9.561  10.700   1.214 -0.7108  0.1542  0.2506
  803MOL0     H 8343   9.707  10.786   1.260  1.6661 -0.6145 -2.8586
  803MOL0     H 8344   9.622  11.008   1.192 -0.6164  0.0199  3.0500
  803MOL0     H 8345   9.503  10.912   1.088 -0.0699  1.2658  0.0237
  803MOL0     H 8346   9.399  10.861   1.320 -0.0782  0.1670 -0.9346
  803MOL0     H 8347   9.512  10.973   1.395 -2.5074  2.6987  1.4836
  803MOL0     H 8348   9.442  11.155   1.246  0.6997  0.6945  1.8613
  803MOL0     H 8349   9.305  11.050   1.188 -1.3594  3.2538 -0.1425
  803MOL0     H 8350   9.195  11.053   1.401 -1.4892  0.7266 -2.6635
  803MOL0     H 8351   9.331  11.103   1.491 -3.7785  1.4874  2.1019
  803MOL0     H 8352   9.326  11.332   1.389 -0.3320  0.2162  0.4546
  803MOL0     H 8353   9.221  11.275   1.262  0.1097  0.1271 -0.5254
  803MOL0     H 8354   9.152  11.417   1.470  2.3992 -0.7030 -0.1274
  803MOL0     H 8355   9.156  11.261   1.564  0.6127 -1.4810 -0.9323
  803MOL0     H 8356   8.928  11.420   1.273  0.5092 -1.1215 -1.9462
  803MOL0     H 8357   8.694  11.261   1.133 -1.4572  2.0341 -1.3156
  803MOL0     H 8358   8.598  11.235   1.272 -1.2175  0.8620 -1.3298
  803MOL0     H 8359   8.540  11.436   1.193  0.9143 -1.2232 -1.6741
  803MOL0     H 8360   8.725  11.488   1.197  0.6183 -1.4823  0.6224
  803MOL0     H 8361   8.704  11.504   1.438 -0.9523  0.3145  1.0264
  803MOL0     H 8362   8.566  11.403   1.436 -0.0900 -2.3261 -1.4900
  803MOL0     H 8363   8.483  11.637   1.283  0.0803  0.1583 -0.0648
  803MOL0     H 8364   8.580  11.698   1.396 -0.2322 -1.0279  2.1407
  803MOL0     H 8365   8.364  11.837   1.530  1.9035  0.7631 -1.3290
  803MOL0     H 8366   8.481  12.027   1.771  1.6782 -3.5078  0.6104
  803MOL0     H 8367   8.400  12.024   1.625 -0.9225  1.1570  1.1837
  803MOL0     H 8368   8.299  12.005   1.780 -0.4871 -0.2518  0.5824
  803MOL0     H 8369   8.352  11.912   2.220 -0.0516  0.2562  0.5247
  803MOL0     H 8370   8.432  11.993   2.449  0.9015 -1.6245  1.7190
  803MOL0     H 8371   8.819  12.077   2.527  0.8711 -1.0344  1.0546
  803MOL0     H 8372   8.656  12.134   2.481 -2.1051 -0.9846  1.7153
  803MOL0     H 8373   8.745  12.066   2.754 -2.7923 -0.8900  1.0549
  803MOL0     H 8374   8.785  12.232   2.677 -0.3314  0.2148  2.3383
  803MOL0     H 8375   8.592  12.214   2.835 -2.1226 -0.7773  0.4341
  803MOL0     H 8376   8.516  12.141   2.683  2.0390 -3.1668  1.9688
  803MOL0     H 8377   8.618  12.364   2.562 -4.1203  1.3021 -2.0107
  803MOL0     H 8378   8.460  12.359   2.653  0.0753  2.1722  4.9976
  803MOL0     H 8379   8.719  12.482   2.751 -1.2129  3.1947  1.8962
  803MOL0     H 8380   8.569  12.472   2.847  0.5730  1.1971  0.7514
  803MOL0     H 8381   8.587  12.586   2.562 -2.3920 -1.0955 -1.1622
  803MOL0     H 8382   8.437  12.568   2.643  0.1562  1.6190 -3.3152
  803MOL0     H 8383   8.676  12.736   2.699  0.4263  0.1244 -0.1531
  803MOL0     H 8384   8.570  12.696   2.841  1.6395 -1.3741  0.4483
  803MOL0     H 8385   8.504  12.856   2.597  0.2699  0.2960  0.5462
  803MOL0     H 8386   8.511  12.924   2.762 -0.3764 -1.2881  2.8344
  803MOL0     H 8387   8.792  11.780   2.405 -0.1768  0.0029 -0.4125
  803MOL0     H 8388   8.707  11.687   2.173 -3.1121 -0.1388 -3.0315
  803MOL0     H 8389   8.487  11.560   1.908 -1.8091 -1.7116 -0.4406
  803MOL0     H 8390   8.454  11.442   1.703 -0.2317 -0.4893  0.5568
  803MOL0     H 8391   9.961  10.656   1.028  0.9716 -0.1842  2.6618
  803MOL0     H 8392  10.176  10.685   1.099 -0.3722  0.1305  1.0648
  803MOL0     H 8393  10.475  10.840   1.354  0.0108  0.5816  1.5924
  803MOL0     H 8394  10.686  10.923   1.473 -0.1809 -2.0868 -0.2643
  803MOL0     H 8395  10.796  11.282   1.327  0.7149 -1.3797 -1.5163
  803MOL0     H 8396  10.720  11.216   1.477  0.1185  0.0220 -0.6248
  803MOL0     H 8397  10.971  11.232   1.584 -0.4173  3.1645  2.4215
  803MOL0     H 8398  10.915  11.389   1.532 -2.8300  0.5686  0.3548
  803MOL0     H 8399  11.040  11.358   1.311  2.4958  0.7096 -0.7963
  803MOL0     H 8400  11.088  11.197   1.366 -0.7775 -0.3699  1.6575
  803MOL0     H 8401  11.207  11.285   1.567 -1.4260 -0.7758 -0.5589
  803MOL0     H 8402  11.174  11.449   1.525 -2.5797  1.0330 -3.2267
  803MOL0     H 8403  11.507  11.410   1.316 -0.4561 -0.8889 -0.1451
  803MOL0     H 8404  10.802  11.147   1.143  1.8244 -0.4556  1.1784
  803MOL0     H 8405  10.591  11.075   1.002 -0.3080  2.0784  0.1251
  804MOL0     O 8406   9.770   0.573   2.591 -0.1354  0.5576 -0.6306
  804MOL0     C 8407   9.754   0.696   2.586  0.6898 -0.0039 -0.3236
  804MOL0     O 8408   9.678   0.771   2.661 -0.1180 -0.0760 -0.0764
  804MOL0     C 8409   9.604   0.721   2.759 -0.9069  0.4840  0.6504
  804MOL0     C 8410   9.465   0.705   2.735 -0.4821 -0.1250 -0.1023
  804MOL0     C 8411   9.397   0.617   2.820  0.0281 -1.6238 -0.3575
  804MOL0     C 8412   9.452   0.559   2.926 -0.5140 -0.3224  0.8462
  804MOL0     O 8413   9.380   0.470   3.004 -0.2469 -0.2707  0.1564
  804MOL0     C 8414   9.410   0.459   3.147 -0.0171 -0.1713  0.8400
  804MOL0     C 8415   9.323   0.357   3.217 -0.5501  0.3152 -0.3451
  804MOL0     C 8416   9.348   0.356   3.370 -0.5283  0.2870 -0.2161
  804MOL0     C 8417   9.273   0.236   3.435  0.0158  0.1373 -0.3446
  804MOL0     C 8418   9.266   0.233   3.586  0.1397  0.9007 -0.1699
  804MOL0     C 8419   9.189   0.350   3.655  0.5180 -0.7636  0.4180
  804MOL0     C 8420   9.042   0.314   3.690 -0.8741 -0.8541  0.2108
  804MOL0     C 8421   9.000   0.420   3.796 -0.3864  0.2098 -0.0864
  804MOL0     N 8422   8.864   0.410   3.839 -0.5944 -0.5620  0.1341
  804MOL0     C 8423   8.761   0.415   3.756  0.2253 -0.6473  0.8911
  804MOL0     C 8424   8.659   0.464   3.832  0.0828  1.0212  0.3275
  804MOL0     C 8425   8.515   0.488   3.791 -1.0306 -0.5071 -0.3769
  804MOL0     C 8426   8.424   0.437   3.911 -0.1676  0.7116 -0.1079
  804MOL0     C 8427   8.277   0.465   3.884  1.5566  0.8595  0.1280
  804MOL0     C 8428   8.169   0.424   3.985  0.0359 -0.0691  1.0471
  804MOL0     O 8429   8.051   0.496   3.942  0.5690  0.0588  0.3992
  804MOL0     C 8430   7.973   0.443   3.846  0.1316  0.4106 -0.0856
  804MOL0     C 8431   7.958   0.313   3.799  0.1159  0.3649 -0.2242
  804MOL0     C 8432   7.858   0.276   3.704 -0.4009  0.6184  0.5820
  804MOL0     C 8433   7.875   0.144   3.638 -1.1541  0.1485 -0.0972
  804MOL0     C 8434   7.757   0.362   3.665  0.3615 -0.8735 -1.0351
  804MOL0     C 8435   7.649   0.347   3.568 -0.1186 -0.0383 -0.5131
  804MOL0     O 8436   7.568   0.459   3.535  0.7622 -0.2630 -0.0094
  804MOL0     C 8437   7.479   0.455   3.432 -0.0820 -1.0568  0.2193
  804MOL0     C 8438   7.410   0.346   3.385 -0.8591  0.0545  0.8335
  804MOL0     C 8439   7.314   0.361   3.277 -0.1114 -0.6303  0.1563
  804MOL0     C 8440   7.290   0.485   3.218 -0.2251  0.8381 -0.2522
  804MOL0     O 8441   7.214   0.506   3.107 -0.0445  1.2900 -0.6427
  804MOL0     C 8442   7.116   0.398   3.076 -0.3409  0.7437  0.7687
  804MOL0     C 8443   7.037   0.445   2.959 -0.1359  0.5058  0.7970
  804MOL0     C 8444   6.901   0.396   2.945  1.0910  0.2528 -0.2452
  804MOL0     C 8445   6.843   0.462   2.821  0.7260  0.5995  0.6463
  804MOL0     C 8446   6.692   0.424   2.797 -0.5919  0.1013 -0.0271
  804MOL0     C 8447   6.677   0.274   2.750  0.4818  0.1137  0.7716
  804MOL0     C 8448   6.526   0.279   2.723  0.8701 -0.8961 -0.1390
  804MOL0     C 8449   6.475   0.135   2.728  0.0983  0.1897  0.9943
  804MOL0    Cl 8450   6.301   0.147   2.699 -0.3134  0.2715  0.1252
  804MOL0     C 8451   7.364   0.591   3.264  0.0796 -0.0255 -0.2940
  804MOL0     C 8452   7.454   0.579   3.372 -0.0810 -0.6553  0.3490
  804MOL0     O 8453   7.628   0.232   3.528 -0.2367 -0.0167 -0.5577
  804MOL0     C 8454   7.765   0.492   3.724 -0.1072 -1.0374  0.5938
  804MOL0     C 8455   7.880   0.532   3.789  0.7547  0.0176 -0.4267
  804MOL0     N 8456   8.711   0.499   3.960  0.1777 -0.2711 -0.3211
  804MOL0     N 8457   8.831   0.455   3.965  0.0144  0.0203  0.5873
  804MOL0     C 8458   9.588   0.579   2.952 -0.0331 -1.2112 -0.3136
  804MOL0     C 8459   9.664   0.664   2.875 -0.0489 -0.8675 -0.0887
  804MOL0     C 8460   9.818   0.767   2.478  0.1490  1.2180 -0.0114
  804MOL0     C 8461   9.814   0.904   2.460  0.1136 -0.2807 -0.4345
  804MOL0     C 8462   9.860   0.964   2.345  1.0208  0.3756 -0.1371
  804MOL0     C 8463   9.925   0.894   2.243  0.7474  0.4186  0.3737
  804MOL0     O 8464   9.980   0.941   2.125 -0.8717 -0.3418  0.0198
  804MOL0     C 8465   9.930   1.054   2.056 -1.1971 -0.5465 -0.6456
  804MOL0     C 8466   9.955   1.023   1.904  1.0659  0.2339  0.1972
  804MOL0     C 8467  10.102   1.030   1.859  1.2876 -0.3032 -0.3415
  804MOL0     C 8468  10.148   1.173   1.847  0.1083  0.6036  0.0451
  804MOL0     C 8469  10.294   1.175   1.837 -1.3555 -0.4640  0.6948
  804MOL0     C 8470  10.417   1.182   1.825  0.7513  0.3329  0.4826
  804MOL0     C 8471   9.944   0.768   2.261 -0.6936 -0.6776  0.5432
  804MOL0     C 8472   9.881   0.697   2.371 -0.3381  1.5146 -0.3515
  804MOL0     H 8473   9.408   0.760   2.661 -0.2506 -1.0559 -0.9898
  804MOL0     H 8474   9.294   0.594   2.793 -0.3118 -1.4361  0.7514
  804MOL0     H 8475   9.514   0.433   3.173 -0.2304 -0.1719  1.7119
  804MOL0     H 8476   9.389   0.556   3.193 -0.6121  0.2748 -0.3208
  804MOL0     H 8477   9.220   0.394   3.213 -1.2949 -0.9675  3.5493
  804MOL0     H 8478   9.328   0.258   3.171  1.5608 -0.1226  0.7405
  804MOL0     H 8479   9.455   0.347   3.389 -0.5078  1.3869  0.2152
  804MOL0     H 8480   9.322   0.451   3.416 -0.6128  0.4958 -0.6928
  804MOL0     H 8481   9.169   0.251   3.407 -0.4608  2.3256  2.2020
  804MOL0     H 8482   9.312   0.140   3.400  1.5579  1.3684 -2.1696
  804MOL0     H 8483   9.237   0.130   3.611  5.6721 -0.2453  3.1220
  804MOL0     H 8484   9.368   0.244   3.623 -0.9427  1.7443  2.8068
  804MOL0     H 8485   9.230   0.356   3.757  0.1374 -1.5855  0.6348
  804MOL0     H 8486   9.205   0.450   3.616 -2.1192  0.4019  2.0256
  804MOL0     H 8487   8.991   0.318   3.593 -1.1652 -0.9203  0.3572
  804MOL0     H 8488   9.032   0.218   3.742  1.2762 -1.3863 -0.2953
  804MOL0     H 8489   9.006   0.524   3.762 -0.5518  0.7182  1.3524
  804MOL0     H 8490   9.056   0.407   3.888  2.5185 -0.7640 -1.8738
  804MOL0     H 8491   8.774   0.381   3.654  0.3426  1.6051  0.1011
  804MOL0     H 8492   8.499   0.594   3.771 -2.2043 -0.8210 -1.1881
  804MOL0     H 8493   8.496   0.430   3.701  1.6850  0.7006 -1.8402
  804MOL0     H 8494   8.458   0.469   4.010 -0.8121  1.9936 -0.2772
  804MOL0     H 8495   8.423   0.328   3.910 -1.8308  0.6635  1.4641
  804MOL0     H 8496   8.247   0.402   3.800 -1.9808  0.7409  1.3041
  804MOL0     H 8497   8.272   0.569   3.851 -0.3595  0.5737 -0.6345
  804MOL0     H 8498   8.199   0.462   4.083  0.5478  0.0242  0.8597
  804MOL0     H 8499   8.163   0.315   3.989 -1.9301 -0.0438  0.0283
  804MOL0     H 8500   8.034   0.243   3.833  0.4803  0.4775 -0.7888
  804MOL0     H 8501   7.979   0.112   3.649 -1.1058  0.3377  0.0074
  804MOL0     H 8502   7.811   0.078   3.698 -1.2707  0.2634 -0.0941
  804MOL0     H 8503   7.850   0.149   3.532  2.0980  3.3788 -0.9045
  804MOL0     H 8504   7.426   0.246   3.425  3.7290  0.2486 -0.0598
  804MOL0     H 8505   7.255   0.276   3.246  0.5830 -0.8278 -0.6878
  804MOL0     H 8506   7.165   0.302   3.059  0.0428  0.7531  1.7503
  804MOL0     H 8507   7.057   0.396   3.169 -0.5320 -0.8106  0.6390
  804MOL0     H 8508   7.043   0.555   2.960  0.8852  0.4542  1.4034
  804MOL0     H 8509   7.100   0.413   2.875  0.4398  0.3106  1.2986
  804MOL0     H 8510   6.847   0.440   3.030  1.2516  3.0681 -1.5136
  804MOL0     H 8511   6.901   0.287   2.941  2.3278  0.2792 -3.1572
  804MOL0     H 8512   6.842   0.572   2.825  0.2849  0.6237  0.0652
  804MOL0     H 8513   6.900   0.428   2.735 -1.5923  1.6486 -1.4425
  804MOL0     H 8514   6.649   0.495   2.726  0.9734  0.1421 -0.9796
  804MOL0     H 8515   6.643   0.431   2.894  0.3776 -0.3529  0.5143
  804MOL0     H 8516   6.746   0.264   2.666 -0.4692 -1.1498  0.1261
  804MOL0     H 8517   6.708   0.202   2.826  1.6730 -1.7954 -1.4138
  804MOL0     H 8518   6.512   0.320   2.622  1.9574  0.5911  0.2810
  804MOL0     H 8519   6.474   0.340   2.797  0.4208  0.2828 -1.3649
  804MOL0     H 8520   6.506   0.100   2.827  3.6415  0.6623  0.1945
  804MOL0     H 8521   6.532   0.081   2.652  3.4648 -1.7740  4.5363
  804MOL0     H 8522   7.345   0.675   3.198  0.0088  0.3434  0.1922
  804MOL0     H 8523   7.504   0.670   3.403  0.0743 -1.1137  1.5129
  804MOL0     H 8524   7.693   0.569   3.700  1.6227  0.4536 -0.0209
  804MOL0     H 8525   7.902   0.634   3.820  3.8414 -0.5007 -0.5713
  804MOL0     H 8526   9.635   0.538   3.040 -2.9440 -1.5232  1.2267
  804MOL0     H 8527   9.767   0.685   2.900  0.0247 -1.0221 -0.2622
  804MOL0     H 8528   9.758   0.972   2.524  0.1675 -0.7044  0.0633
  804MOL0     H 8529   9.834   1.068   2.325 -0.8084 -0.0417 -0.0580
  804MOL0     H 8530   9.825   1.057   2.086 -0.9573 -0.1818  0.1683
  804MOL0     H 8531   9.988   1.140   2.092  1.8311 -1.5346 -2.7409
  804MOL0     H 8532   9.890   1.075   1.833  0.6660 -1.5290 -0.7871
  804MOL0     H 8533   9.918   0.921   1.884 -0.7783  1.4097 -3.2885
  804MOL0     H 8534  10.132   0.960   1.781  0.1497  0.7863 -1.8058
  804MOL0     H 8535  10.153   0.986   1.945 -0.9249  0.8652  1.6983
  804MOL0     H 8536  10.118   1.232   1.934 -3.4389 -0.9758  0.0669
  804MOL0     H 8537  10.104   1.222   1.760 -2.4122  1.2600  1.5954
  804MOL0     H 8538  10.524   1.192   1.832  0.8457 -1.5154  2.3411
  804MOL0     H 8539   9.999   0.711   2.188 -1.3050  1.4431 -1.7258
  804MOL0     H 8540   9.890   0.588   2.370  2.7376  1.6599  0.5484
  805MOL0     O 8541   6.274   9.450   2.071  0.1789 -0.2643 -0.8145
  805MOL0     C 8542   6.329   9.453   2.184  0.4025  0.1827 -0.1666
  805MOL0     O 8543   6.280   9.518   2.292  0.5607  0.0296 -0.4408
  805MOL0     C 8544   6.153   9.573   2.293  0.9366  0.5586  0.5897
  805MOL0     C 8545   6.138   9.710   2.293 -0.8138  0.6412 -0.6011
  805MOL0     C 8546   6.018   9.766   2.305  0.2963  0.7045 -0.3166
  805MOL0     C 8547   5.902   9.690   2.316  0.4378 -0.6150  0.7615
  805MOL0     O 8548   5.784   9.761   2.332 -0.0968  0.5192  0.4434
  805MOL0     C 8549   5.675   9.685   2.393 -0.1569  0.0998  0.0781
  805MOL0     C 8550   5.556   9.790   2.396  0.1699  0.5645  0.1858
  805MOL0     C 8551   5.424   9.726   2.445 -0.3617 -0.2768  0.1817
  805MOL0     C 8552   5.369   9.622   2.339  1.2007  0.4737  0.6868
  805MOL0     C 8553   5.240   9.563   2.399 -0.6329 -0.1854 -0.2177
  805MOL0     C 8554   5.155   9.487   2.289  0.7485  1.1224 -0.5223
  805MOL0     C 8555   5.025   9.436   2.346  0.4647 -0.0289 -0.2575
  805MOL0     C 8556   5.059   9.313   2.438 -0.2133 -0.6507  0.2105
  805MOL0     N 8557   4.940   9.234   2.486 -0.2163  0.7562 -1.4400
  805MOL0     C 8558   4.828   9.208   2.415  0.0376  0.0656 -0.2293
  805MOL0     C 8559   4.758   9.139   2.506  0.2510 -0.2794 -0.0039
  805MOL0     C 8560   4.624   9.080   2.489  0.0509  0.2477  0.1771
  805MOL0     C 8561   4.525   9.193   2.451 -0.7190  1.4934  0.1733
  805MOL0     C 8562   4.404   9.159   2.534  0.1585 -0.2901  0.3130
  805MOL0     C 8563   4.292   9.257   2.503 -1.1116  0.0493  0.1595
  805MOL0     O 8564   4.183   9.209   2.589 -0.8399  0.9087  0.6828
  805MOL0     C 8565   4.083   9.295   2.608 -0.2280  0.2617 -0.1393
  805MOL0     C 8566   3.966   9.244   2.665  0.1084 -0.8073 -0.8694
  805MOL0     C 8567   3.845   9.320   2.679  0.6463 -1.2434  0.4471
  805MOL0     C 8568   3.730   9.246   2.737  0.1043  0.3062 -1.0748
  805MOL0     C 8569   3.847   9.455   2.634  0.1627 -0.4572  0.3957
  805MOL0     C 8570   3.725   9.549   2.634  0.3216 -0.5289 -0.7823
  805MOL0     O 8571   3.593   9.494   2.627  1.1707  0.3290 -0.1187
  805MOL0     C 8572   3.487   9.575   2.670 -0.2636 -0.2893  1.0395
  805MOL0     C 8573   3.431   9.671   2.582  0.1897  0.4764  0.2938
  805MOL0     C 8574   3.318   9.746   2.628  0.4644 -0.0003 -0.6581
  805MOL0     C 8575   3.250   9.720   2.753 -0.3614 -0.1195 -0.0901
  805MOL0     O 8576   3.135   9.785   2.785  0.5913 -0.1958 -0.0179
  805MOL0     C 8577   3.026   9.685   2.770 -0.0050  0.6469 -0.3264
  805MOL0     C 8578   2.921   9.716   2.871 -0.2047  0.6519  0.4611
  805MOL0     C 8579   2.902   9.611   2.989  0.0032 -0.0967  0.8426
  805MOL0     C 8580   2.830   9.476   2.951  0.0418 -1.2411 -0.0114
  805MOL0     C 8581   2.840   9.372   3.059 -0.3220  0.0341 -0.3126
  805MOL0     C 8582   2.820   9.227   2.994 -0.5034 -0.8599 -0.5562
  805MOL0     C 8583   2.858   9.108   3.082 -0.1890  0.0176 -0.3023
  805MOL0     C 8584   2.815   8.981   3.021 -1.0055  0.1660 -0.5253
  805MOL0    Cl 8585   2.945   8.896   2.931 -0.0629  0.1822 -0.2259
  805MOL0     C 8586   3.318   9.628   2.840  0.3121 -0.6215  1.0084
  805MOL0     C 8587   3.436   9.557   2.796 -0.7664 -0.5399 -0.0303
  805MOL0     O 8588   3.745   9.667   2.648 -0.4566  0.1099  0.4095
  805MOL0     C 8589   3.966   9.504   2.577  0.7088  0.5205  0.0649
  805MOL0     C 8590   4.076   9.424   2.555 -0.2525 -0.6329  0.1161
  805MOL0     N 8591   4.833   9.107   2.617 -0.5588 -0.2271 -0.2288
  805MOL0     N 8592   4.946   9.160   2.599 -0.1878  0.0026  0.0389
  805MOL0     C 8593   5.915   9.556   2.316  0.6893 -1.4061 -0.1153
  805MOL0     C 8594   6.038   9.489   2.305  1.1972  0.0263 -0.1631
  805MOL0     C 8595   6.446   9.367   2.209 -0.6792 -1.0444 -0.3783
  805MOL0     C 8596   6.479   9.272   2.115  0.0032 -0.5692  0.3208
  805MOL0     C 8597   6.596   9.196   2.133  0.3785  0.4833  0.3986
  805MOL0     C 8598   6.680   9.212   2.242  0.4933 -0.3329 -0.2550
  805MOL0     O 8599   6.805   9.158   2.242  0.4330  0.1361  0.5072
  805MOL0     C 8600   6.876   9.142   2.365 -0.2266  0.5804  0.0436
  805MOL0     C 8601   7.011   9.073   2.334 -0.2905  0.7175  0.3437
  805MOL0     C 8602   7.008   8.929   2.288 -0.7459  0.6175  0.5293
  805MOL0     C 8603   7.141   8.883   2.241 -0.1757 -0.3983 -0.1098
  805MOL0     C 8604   7.191   8.963   2.119 -1.0959 -0.4156 -0.6382
  805MOL0     C 8605   7.226   9.016   2.020  0.0267  0.8235  0.2633
  805MOL0     C 8606   6.647   9.312   2.336 -0.0891  0.1856 -0.1755
  805MOL0     C 8607   6.531   9.386   2.316 -0.0917  0.5001  0.5654
  805MOL0     H 8608   6.229   9.769   2.301 -0.5088  0.0617  0.2908
  805MOL0     H 8609   6.010   9.874   2.306 -1.4540  0.5979  0.8602
  805MOL0     H 8610   5.643   9.605   2.326 -0.3813  0.1613  0.1114
  805MOL0     H 8611   5.687   9.639   2.492  0.3765  0.5660  0.2348
  805MOL0     H 8612   5.582   9.861   2.475  1.4705 -0.2614  0.5455
  805MOL0     H 8613   5.553   9.838   2.298  2.3340 -0.4708 -0.4688
  805MOL0     H 8614   5.446   9.680   2.542  2.8329 -1.1873 -0.8681
  805MOL0     H 8615   5.349   9.806   2.448 -1.2217 -0.9258 -2.0577
  805MOL0     H 8616   5.354   9.655   2.235  2.4845 -2.6019 -0.5882
  805MOL0     H 8617   5.441   9.540   2.331  1.2147  0.5730 -0.3978
  805MOL0     H 8618   5.274   9.496   2.479 -0.4946 -0.0445 -0.1569
  805MOL0     H 8619   5.180   9.637   2.453  1.3174 -0.1837  2.1349
  805MOL0     H 8620   5.129   9.568   2.219 -0.5459  1.7169  0.5967
  805MOL0     H 8621   5.208   9.408   2.236 -1.3965 -3.2721  3.1953
  805MOL0     H 8622   4.978   9.515   2.405 -2.7419 -1.4484 -0.6551
  805MOL0     H 8623   4.950   9.419   2.268 -2.0748  0.3413  1.9612
  805MOL0     H 8624   5.125   9.340   2.521  0.9686 -1.2799 -0.4948
  805MOL0     H 8625   5.124   9.237   2.394  0.4569  1.2304 -2.3287
  805MOL0     H 8626   4.786   9.250   2.324  1.6044  0.9188 -0.5814
  805MOL0     H 8627   4.625   9.018   2.399 -0.0051 -0.4833  0.6659
  805MOL0     H 8628   4.599   9.028   2.582 -0.1552  1.9992  1.1477
  805MOL0     H 8629   4.497   9.180   2.346 -1.6684  0.4390  0.5458
  805MOL0     H 8630   4.562   9.295   2.464  0.9808  0.8031  1.1472
  805MOL0     H 8631   4.435   9.165   2.639  2.0464  2.1293 -0.2866
  805MOL0     H 8632   4.370   9.061   2.501 -0.3100  1.1255 -4.0575
  805MOL0     H 8633   4.268   9.257   2.397  1.9118 -1.4268 -0.6410
  805MOL0     H 8634   4.332   9.354   2.534  3.6179 -2.2367  2.1244
  805MOL0     H 8635   3.972   9.137   2.680 -0.4716 -0.5990  1.1728
  805MOL0     H 8636   3.692   9.299   2.825  0.7668 -0.4539 -0.3113
  805MOL0     H 8637   3.645   9.224   2.672  0.3156 -1.9352 -0.6871
  805MOL0     H 8638   3.758   9.152   2.785 -2.1474  1.1596  2.2693
  805MOL0     H 8639   3.469   9.686   2.481 -0.4817  0.8467  0.0851
  805MOL0     H 8640   3.261   9.811   2.563 -0.2865  1.7268  1.5962
  805MOL0     H 8641   2.981   9.672   2.671  0.9292  0.0105 -0.6855
  805MOL0     H 8642   3.063   9.585   2.792  1.1343  0.7309 -1.6764
  805MOL0     H 8643   2.952   9.810   2.919 -0.8296  0.7022  0.7824
  805MOL0     H 8644   2.824   9.723   2.821  0.1866 -2.8111 -1.0419
  805MOL0     H 8645   2.828   9.650   3.059  0.4011  0.4704  0.9570
  805MOL0     H 8646   2.996   9.594   3.044  0.4369 -0.1638  0.0917
  805MOL0     H 8647   2.726   9.488   2.921 -0.0880 -3.8755 -0.8908
  805MOL0     H 8648   2.877   9.433   2.862  2.2651 -0.3800  0.6847
  805MOL0     H 8649   2.767   9.401   3.134  0.1086 -0.5050  0.3245
  805MOL0     H 8650   2.932   9.366   3.118 -1.1468 -1.2823  0.8906
  805MOL0     H 8651   2.711   9.218   2.996 -1.0023  2.3135  5.1277
  805MOL0     H 8652   2.870   9.220   2.897 -0.4585  0.5831 -0.6614
  805MOL0     H 8653   2.813   9.131   3.179  0.9911  0.0125  0.2548
  805MOL0     H 8654   2.967   9.108   3.087 -0.2182 -1.5945  2.2620
  805MOL0     H 8655   2.724   8.994   2.962 -1.6289  0.1530  0.4135
  805MOL0     H 8656   2.794   8.908   3.100  0.2708 -1.8322 -1.9377
  805MOL0     H 8657   3.283   9.607   2.940 -0.2146 -3.9041  0.2387
  805MOL0     H 8658   3.479   9.476   2.854  0.3162  0.6767  0.9279
  805MOL0     H 8659   3.985   9.608   2.553  0.0175  0.4999 -0.6114
  805MOL0     H 8660   4.153   9.469   2.492 -0.7521 -2.5246 -1.9765
  805MOL0     H 8661   5.832   9.486   2.310  0.1406 -0.6408 -2.3207
  805MOL0     H 8662   6.037   9.381   2.315  0.6862 -0.1489 -1.7819
  805MOL0     H 8663   6.422   9.255   2.024  1.1813 -0.4301 -0.4666
  805MOL0     H 8664   6.618   9.129   2.050 -0.5592 -0.6117  0.9976
  805MOL0     H 8665   6.914   9.234   2.410 -0.3547  0.3012  0.7283
  805MOL0     H 8666   6.825   9.082   2.440  3.7943 -3.4773 -0.0222
  805MOL0     H 8667   7.065   9.074   2.429  0.5079 -3.4669  0.1239
  805MOL0     H 8668   7.065   9.137   2.263 -1.5900 -1.0194 -2.3673
  805MOL0     H 8669   6.944   8.908   2.202  2.0800 -1.4620 -1.2537
  805MOL0     H 8670   6.978   8.863   2.370 -3.1936  1.8648  0.7020
  805MOL0     H 8671   7.126   8.781   2.203  0.3058  0.0509 -1.5818
  805MOL0     H 8672   7.204   8.888   2.330 -0.7747  1.7332  0.2402
  805MOL0     H 8673   7.249   9.051   1.921 -1.9141  0.0478 -0.5175
  805MOL0     H 8674   6.711   9.346   2.416 -0.8902  0.1382  0.4955
  805MOL0     H 8675   6.503   9.458   2.392 -1.2149  1.5245 -0.7663
  806MOL0     O 8676  10.647   5.863   7.572 -0.4694  0.5262 -0.3618
  806MOL0     C 8677  10.676   5.780   7.487  0.1097 -0.1376  0.2655
  806MOL0     O 8678  10.600   5.742   7.379 -0.8366 -0.0476 -0.2156
  806MOL0     C 8679  10.473   5.801   7.371 -0.1599  1.2520 -0.2207
  806MOL0     C 8680  10.369   5.768   7.466 -0.4383  0.3081 -1.3435
  806MOL0     C 8681  10.247   5.828   7.463  0.1665 -0.1932 -0.9915
  806MOL0     C 8682  10.215   5.932   7.373 -0.1213 -0.5388 -0.4599
  806MOL0     O 8683  10.102   6.015   7.366 -0.0975 -0.1885 -0.1095
  806MOL0     C 8684   9.998   5.990   7.461  0.3827  0.0997 -1.0553
  806MOL0     C 8685   9.901   6.121   7.466  0.5724 -0.0256 -0.8044
  806MOL0     C 8686   9.791   6.102   7.572  0.0974 -0.2952 -0.6784
  806MOL0     C 8687   9.701   6.215   7.599  0.3811 -0.0888 -0.8006
  806MOL0     C 8688   9.605   6.202   7.714  0.4548 -0.1421  0.1014
  806MOL0     C 8689   9.501   6.321   7.704  1.3024  0.2172  0.1392
  806MOL0     C 8690   9.396   6.316   7.821 -0.3084 -0.7334 -0.6910
  806MOL0     C 8691   9.292   6.436   7.820  0.8444 -0.3760 -0.3106
  806MOL0     N 8692   9.198   6.437   7.936  0.1922 -0.2844 -0.3960
  806MOL0     C 8693   9.238   6.471   8.058 -0.5970  0.0775 -0.1936
  806MOL0     C 8694   9.121   6.501   8.119 -0.1189 -0.3591 -0.1607
  806MOL0     C 8695   9.101   6.549   8.266 -0.9539 -0.4753  0.5590
  806MOL0     C 8696   9.090   6.429   8.365  0.1611  0.1481  0.2595
  806MOL0     C 8697   9.079   6.459   8.516  0.0760 -0.2577  0.5468
  806MOL0     C 8698   9.208   6.531   8.558  0.7794 -0.2741  0.5326
  806MOL0     O 8699   9.207   6.563   8.696  0.6111 -0.1212 -1.1720
  806MOL0     C 8700   9.118   6.656   8.749 -0.3133 -0.3860 -0.2254
  806MOL0     C 8701   9.120   6.654   8.886  0.1394 -0.2234 -0.2766
  806MOL0     C 8702   9.038   6.738   8.962 -0.2421  0.0003 -0.6299
  806MOL0     C 8703   9.047   6.725   9.111  0.5901  0.2186  0.1150
  806MOL0     C 8704   8.944   6.830   8.891 -0.4223 -0.4994 -0.4163
  806MOL0     C 8705   8.842   6.920   8.954 -0.4082 -0.1179  0.9853
  806MOL0     O 8706   8.811   6.914   9.083 -0.1117 -0.7364 -0.8600
  806MOL0     C 8707   8.692   6.983   9.116  0.4532  0.0244 -0.8445
  806MOL0     C 8708   8.581   6.908   9.142 -0.5338  0.2319 -0.5782
  806MOL0     C 8709   8.461   6.968   9.177  0.2316 -0.6676  0.6474
  806MOL0     C 8710   8.448   7.109   9.190  0.2335  0.8606  0.0174
  806MOL0     O 8711   8.323   7.163   9.222 -1.0253 -0.2821 -0.5719
  806MOL0     C 8712   8.310   7.300   9.246 -0.6591 -1.0316 -0.3296
  806MOL0     C 8713   8.160   7.334   9.270 -0.3743 -0.0674 -0.3788
  806MOL0     C 8714   8.085   7.316   9.137 -0.1744 -0.2618 -0.6967
  806MOL0     C 8715   8.111   7.416   9.024 -0.0628  0.0902 -0.0216
  806MOL0     C 8716   8.096   7.563   9.061  0.8500 -0.1842  0.2068
  806MOL0     C 8717   8.098   7.644   8.926 -0.0655 -0.8393 -0.5082
  806MOL0     C 8718   8.232   7.632   8.858  0.2688 -0.3072 -0.0699
  806MOL0     C 8719   8.274   7.748   8.771  0.7508 -1.1997  0.3455
  806MOL0    Cl 8720   8.275   7.903   8.865 -0.2177 -0.1697 -0.0327
  806MOL0     C 8721   8.566   7.183   9.162 -0.3491  0.4317  0.0128
  806MOL0     C 8722   8.690   7.122   9.124 -0.7510 -1.0417 -0.2364
  806MOL0     O 8723   8.795   7.003   8.872 -0.2645  0.1262 -0.0562
  806MOL0     C 8724   8.962   6.833   8.742  0.3514 -0.9239 -0.2707
  806MOL0     C 8725   9.040   6.744   8.673  0.3383  0.2656 -0.5673
  806MOL0     N 8726   9.015   6.463   8.039  0.5302 -0.5964 -0.0021
  806MOL0     N 8727   9.062   6.427   7.923  0.0585  0.6423 -0.5437
  806MOL0     C 8728  10.320   5.971   7.285 -0.2547  1.1602 -0.7562
  806MOL0     C 8729  10.452   5.906   7.283 -0.5366  0.1790 -0.5714
  806MOL0     C 8730  10.807   5.717   7.501 -0.3749  0.7795  0.0528
  806MOL0     C 8731  10.838   5.603   7.434  0.1390  0.4484  0.2037
  806MOL0     C 8732  10.958   5.546   7.431 -0.1738 -0.5945  0.1093
  806MOL0     C 8733  11.066   5.612   7.499 -0.1771 -0.0877 -0.2502
  806MOL0     O 8734  11.194   5.578   7.519  0.2262  0.6021  0.0032
  806MOL0     C 8735  11.225   5.436   7.485 -0.4936 -0.2405 -0.4033
  806MOL0     C 8736  11.325   5.383   7.593  0.3325 -0.3798  0.4785
  806MOL0     C 8737  11.459   5.457   7.609 -0.5871 -0.0192  0.0693
  806MOL0     C 8738  11.571   5.428   7.501  0.0156 -1.1750  0.2962
  806MOL0     C 8739  11.618   5.287   7.483 -0.4524 -0.7505  0.2869
  806MOL0     C 8740  11.641   5.170   7.466  0.2302  0.1412  0.0044
  806MOL0     C 8741  11.035   5.724   7.565  1.0937 -0.6874  0.1236
  806MOL0     C 8742  10.907   5.783   7.569 -0.1273  0.0427 -0.3241
  806MOL0     H 8743  10.388   5.689   7.538  0.8313  1.5298 -0.2602
  806MOL0     H 8744  10.178   5.802   7.542 -0.0920 -1.5982 -1.6553
  806MOL0     H 8745   9.955   5.899   7.418  2.3110 -1.4613  0.1515
  806MOL0     H 8746  10.038   5.976   7.561  0.4571  2.1399 -0.7569
  806MOL0     H 8747   9.966   6.207   7.488  2.1675 -1.5637  0.8823
  806MOL0     H 8748   9.856   6.136   7.367 -0.5550  0.8728 -0.1784
  806MOL0     H 8749   9.727   6.018   7.540 -1.1691  1.2847 -2.5324
  806MOL0     H 8750   9.840   6.067   7.663 -4.0935 -1.7315  1.2827
  806MOL0     H 8751   9.766   6.300   7.621  0.0041 -0.2230  0.9797
  806MOL0     H 8752   9.631   6.223   7.515 -0.8504 -0.2484  0.1806
  806MOL0     H 8753   9.559   6.103   7.712  2.6112 -1.2576  1.6992
  806MOL0     H 8754   9.666   6.201   7.805  0.0576 -0.2096  0.3708
  806MOL0     H 8755   9.557   6.415   7.709  2.0998 -0.0362 -2.3932
  806MOL0     H 8756   9.441   6.318   7.612  1.8669 -3.8490 -0.2890
  806MOL0     H 8757   9.336   6.224   7.825 -1.1209 -0.1586  1.2797
  806MOL0     H 8758   9.452   6.312   7.915 -1.5010  0.0264  0.0848
  806MOL0     H 8759   9.233   6.429   7.728 -0.3578 -0.2634  0.4351
  806MOL0     H 8760   9.347   6.529   7.833  0.0259 -0.1193  1.7802
  806MOL0     H 8761   9.339   6.482   8.095 -0.5581  0.3717 -0.3814
  806MOL0     H 8762   9.180   6.623   8.283 -1.2243  1.0283 -3.5926
  806MOL0     H 8763   9.006   6.602   8.270 -0.0607  1.3368 -0.6616
  806MOL0     H 8764   9.167   6.355   8.345 -0.4577 -0.8568  1.4513
  806MOL0     H 8765   9.001   6.367   8.349 -0.7596  0.7227  2.7203
  806MOL0     H 8766   9.073   6.360   8.562 -1.2717  0.4164  1.9073
  806MOL0     H 8767   8.991   6.521   8.534 -1.0526 -0.9750 -1.9170
  806MOL0     H 8768   9.214   6.624   8.500  1.0799 -1.3728 -1.2402
  806MOL0     H 8769   9.299   6.480   8.528  1.4404  1.5519 -0.7812
  806MOL0     H 8770   9.190   6.594   8.944 -1.0330 -1.1650  0.2146
  806MOL0     H 8771   9.079   6.817   9.161  0.3808  0.6792 -0.5831
  806MOL0     H 8772   8.951   6.698   9.155  1.5873 -0.8510  1.7369
  806MOL0     H 8773   9.111   6.642   9.142  0.9202  0.0833 -0.8903
  806MOL0     H 8774   8.581   6.800   9.138 -1.4529  0.2595 -2.0311
  806MOL0     H 8775   8.375   6.902   9.182 -0.1414 -0.2436 -0.0145
  806MOL0     H 8776   8.365   7.335   9.334 -0.8067  1.0853 -1.0025
  806MOL0     H 8777   8.344   7.368   9.167  3.2411 -1.0014  1.1626
  806MOL0     H 8778   8.117   7.271   9.348  0.6478  1.0947  1.1915
  806MOL0     H 8779   8.142   7.436   9.307 -0.6883 -0.5766  0.9318
  806MOL0     H 8780   7.980   7.310   9.166  0.2756 -4.0772  0.7830
  806MOL0     H 8781   8.111   7.216   9.102 -0.4630  0.8297 -4.4318
  806MOL0     H 8782   8.212   7.400   8.986 -0.6863  0.2805 -1.8588
  806MOL0     H 8783   8.050   7.394   8.936  0.1281  0.2784 -0.2035
  806MOL0     H 8784   8.170   7.602   9.132  0.2379 -0.5726  1.0844
  806MOL0     H 8785   8.001   7.576   9.114  0.7704 -1.3750  0.3830
  806MOL0     H 8786   8.013   7.601   8.871  0.7753  0.7413 -3.2456
  806MOL0     H 8787   8.084   7.753   8.932 -0.4706 -0.7606 -2.2369
  806MOL0     H 8788   8.220   7.542   8.797 -2.8115  1.2677 -2.0471
  806MOL0     H 8789   8.307   7.628   8.938 -1.9399 -1.6488  2.0347
  806MOL0     H 8790   8.193   7.758   8.698 -1.1848 -0.2564  2.5196
  806MOL0     H 8791   8.371   7.730   8.722  3.1747 -1.3392  4.7126
  806MOL0     H 8792   8.558   7.290   9.178 -1.9352  0.0871  1.8553
  806MOL0     H 8793   8.771   7.185   9.089 -0.2724 -1.9722 -0.8363
  806MOL0     H 8794   8.896   6.902   8.690  0.7430  0.5631  1.1577
  806MOL0     H 8795   9.036   6.736   8.565 -1.1643 -0.8850 -0.4593
  806MOL0     H 8796  10.312   6.038   7.200  0.1189 -0.5219 -2.1856
  806MOL0     H 8797  10.529   5.940   7.214 -1.3240 -0.5685 -1.8802
  806MOL0     H 8798  10.761   5.560   7.370 -0.3109  2.1214 -0.4324
  806MOL0     H 8799  10.977   5.460   7.367 -1.1382 -0.0822 -0.8940
  806MOL0     H 8800  11.142   5.366   7.497  2.6280 -4.1295  0.5028
  806MOL0     H 8801  11.275   5.426   7.388  1.7451  1.1271  0.5148
  806MOL0     H 8802  11.345   5.282   7.558  3.8590  0.4319 -0.2416
  806MOL0     H 8803  11.275   5.365   7.688  0.8419 -1.2078  0.5983
  806MOL0     H 8804  11.508   5.431   7.703  0.6101  1.8871  0.0311
  806MOL0     H 8805  11.444   5.565   7.607  3.0198  0.6107 -1.8029
  806MOL0     H 8806  11.662   5.481   7.529 -1.5310  1.7112  0.2823
  806MOL0     H 8807  11.539   5.465   7.403 -0.1218  0.3657  0.9071
  806MOL0     H 8808  11.653   5.063   7.465 -0.3657  0.0176 -2.5396
  806MOL0     H 8809  11.118   5.782   7.603  1.9982 -0.0585 -2.5754
  806MOL0     H 8810  10.888   5.875   7.624  0.6835 -1.9109  3.5715
  807MOL0     O 8811   6.891  10.113   5.415  0.4181  0.4436 -0.7641
  807MOL0     C 8812   6.866  10.036   5.503 -0.9242  0.4600  0.3778
  807MOL0     O 8813   6.742  10.020   5.570  0.4509 -0.1839  0.2761
  807MOL0     C 8814   6.623  10.064   5.516  0.0433 -0.6927  0.2280
  807MOL0     C 8815   6.608  10.135   5.396  1.1186 -0.0433 -0.4986
  807MOL0     C 8816   6.470  10.166   5.362  0.1429  0.9075 -1.4194
  807MOL0     C 8817   6.359  10.127   5.441 -0.7340 -1.5566 -0.3787
  807MOL0     O 8818   6.236  10.146   5.391  0.0134  0.0882 -0.1140
  807MOL0     C 8819   6.121  10.069   5.433  0.1588  0.5533  0.9698
  807MOL0     C 8820   6.010  10.092   5.328 -0.6654  0.2795  0.7169
  807MOL0     C 8821   5.866  10.081   5.384 -0.5937  1.1783  0.2861
  807MOL0     C 8822   5.763  10.039   5.279 -0.1851  0.9164  0.7850
  807MOL0     C 8823   5.626   9.994   5.327 -0.2437  0.8529 -0.6662
  807MOL0     C 8824   5.556   9.921   5.226  0.5283  0.0663  0.5681
  807MOL0     C 8825   5.406   9.917   5.249 -1.2202  0.2525  0.0486
  807MOL0     C 8826   5.330   9.886   5.118 -0.1466  0.2019 -0.2063
  807MOL0     N 8827   5.315  10.020   5.055 -0.0037 -0.6807  0.3361
  807MOL0     C 8828   5.242  10.124   5.108 -0.0710 -0.0682  0.5745
  807MOL0     C 8829   5.279  10.234   5.032  0.4036  0.6653 -0.8635
  807MOL0     C 8830   5.231  10.377   5.030 -0.5880  0.0949  0.5316
  807MOL0     C 8831   5.222  10.434   5.163  0.9252 -1.0294  0.5627
  807MOL0     C 8832   5.352  10.471   5.237  0.8114 -0.0660  0.1380
  807MOL0     C 8833   5.388  10.342   5.326 -0.3060 -0.0434  0.5193
  807MOL0     O 8834   5.517  10.349   5.386 -0.1630 -0.0193  0.3383
  807MOL0     C 8835   5.628  10.362   5.302 -0.0847 -0.0955 -0.7328
  807MOL0     C 8836   5.734  10.414   5.369 -0.9664  0.0067 -0.4554
  807MOL0     C 8837   5.858  10.447   5.303 -0.0666 -0.4824  0.4698
  807MOL0     C 8838   5.975  10.501   5.385 -0.5913 -1.1867  0.9528
  807MOL0     C 8839   5.863  10.419   5.162  0.3469  0.2728 -0.5745
  807MOL0     C 8840   5.965  10.458   5.072 -0.4244  0.0945  0.0404
  807MOL0     O 8841   6.082  10.512   5.122  0.5946  0.1025  0.6347
  807MOL0     C 8842   6.202  10.468   5.082 -0.7014 -0.4623  0.1667
  807MOL0     C 8843   6.319  10.543   5.123  0.9456  0.2637 -0.2517
  807MOL0     C 8844   6.451  10.500   5.103 -0.5269 -0.5044 -0.2726
  807MOL0     C 8845   6.466  10.372   5.048 -0.0946 -0.7200  0.0351
  807MOL0     O 8846   6.589  10.309   5.026  0.0465 -1.2396 -0.3006
  807MOL0     C 8847   6.708  10.361   5.078 -0.2825 -0.0260  0.8423
  807MOL0     C 8848   6.822  10.268   5.034 -0.5607 -0.3956 -0.8649
  807MOL0     C 8849   6.958  10.337   5.063 -0.1915 -0.5472 -0.8569
  807MOL0     C 8850   7.072  10.240   5.029  0.6747 -0.5490  0.5757
  807MOL0     C 8851   7.174  10.219   5.149  0.0949 -0.5313 -0.0537
  807MOL0     C 8852   7.258  10.089   5.130  0.5418 -0.5039  0.6290
  807MOL0     C 8853   7.374  10.081   5.233  0.0107 -0.2675 -0.3275
  807MOL0     C 8854   7.478   9.980   5.208 -0.2397  0.7873 -0.9621
  807MOL0    Cl 8855   7.390   9.818   5.210  0.5744  0.0230 -0.1632
  807MOL0     C 8856   6.357  10.296   5.023  0.0974  0.4664 -0.5439
  807MOL0     C 8857   6.228  10.336   5.049 -0.1906 -0.3938  0.6907
  807MOL0     O 8858   5.946  10.439   4.954  0.0520 -0.9324 -0.5526
  807MOL0     C 8859   5.753  10.356   5.099  0.7540 -0.5482 -1.0593
  807MOL0     C 8860   5.637  10.327   5.169  1.1088  0.2477  0.2116
  807MOL0     N 8861   5.370  10.194   4.937 -0.1866 -0.0556 -0.4011
  807MOL0     N 8862   5.389  10.070   4.949  0.1713  0.3709 -0.6134
  807MOL0     C 8863   6.384  10.064   5.560 -1.4125 -0.3696 -0.6028
  807MOL0     C 8864   6.515  10.033   5.595  0.2485  0.8429  0.5334
  807MOL0     C 8865   6.973   9.927   5.534 -0.1097 -0.1074  0.8039
  807MOL0     C 8866   6.933   9.829   5.628 -0.4820  1.1624  0.0783
  807MOL0     C 8867   7.028   9.729   5.662  0.9786 -1.4219  0.3129
  807MOL0     C 8868   7.163   9.743   5.625  0.4192  0.8973  0.2378
  807MOL0     O 8869   7.269   9.667   5.672  0.3826 -0.1720 -0.3864
  807MOL0     C 8870   7.228   9.565   5.762  0.3567 -0.3894 -0.4204
  807MOL0     C 8871   7.355   9.486   5.791 -0.4854  0.3401 -0.5632
  807MOL0     C 8872   7.354   9.425   5.934 -0.3737 -0.5592 -0.1955
  807MOL0     C 8873   7.492   9.362   5.981  0.0767 -0.0878 -0.1765
  807MOL0     C 8874   7.493   9.350   6.128 -0.5758  0.0766  0.2221
  807MOL0     C 8875   7.502   9.338   6.250  0.7973 -0.2410  0.6945
  807MOL0     C 8876   7.197   9.839   5.523  0.3853 -0.4514  0.1063
  807MOL0     C 8877   7.098   9.925   5.473  0.0951  1.2343  0.8467
  807MOL0     H 8878   6.684  10.159   5.322  3.0635  0.7488  1.6198
  807MOL0     H 8879   6.452  10.219   5.269  1.1312 -1.2438 -2.9181
  807MOL0     H 8880   6.138   9.961   5.437 -0.3224  0.3153 -1.7428
  807MOL0     H 8881   6.084  10.113   5.526  2.3699  3.1093  0.7849
  807MOL0     H 8882   6.024  10.189   5.278 -0.1015 -0.3426 -0.3843
  807MOL0     H 8883   6.021  10.010   5.256 -0.1307  2.0034 -1.2906
  807MOL0     H 8884   5.855   9.997   5.453  1.3940  1.3968  0.9267
  807MOL0     H 8885   5.832  10.170   5.438  0.0552  0.7443  1.4495
  807MOL0     H 8886   5.759  10.121   5.206  1.5202 -0.1366 -0.6041
  807MOL0     H 8887   5.804   9.956   5.219 -1.5782 -0.0949  1.1785
  807MOL0     H 8888   5.642   9.922   5.408  0.6167 -0.1655 -1.7048
  807MOL0     H 8889   5.568  10.079   5.365  0.4923  3.2667 -4.3827
  807MOL0     H 8890   5.572   9.968   5.128 -0.9169  0.7219  0.6245
  807MOL0     H 8891   5.591   9.817   5.223  0.2635 -0.0120 -1.5405
  807MOL0     H 8892   5.389   9.833   5.316  0.3061 -0.6072 -0.5769
  807MOL0     H 8893   5.364  10.006   5.297 -0.8733  0.0419  0.7434
  807MOL0     H 8894   5.231   9.847   5.144  0.8295 -2.4159 -0.1491
  807MOL0     H 8895   5.384   9.809   5.062  2.1709 -0.7089  2.9886
  807MOL0     H 8896   5.169  10.114   5.188 -2.4742  2.3778 -1.1254
  807MOL0     H 8897   5.313  10.424   4.975 -0.1355 -1.5357 -0.2187
  807MOL0     H 8898   5.141  10.403   4.974 -0.2473 -0.2559 -0.1817
  807MOL0     H 8899   5.163  10.368   5.227  0.1478 -0.6731  0.2362
  807MOL0     H 8900   5.166  10.527   5.148  1.1053 -1.1687 -1.1358
  807MOL0     H 8901   5.344  10.556   5.305 -1.3331  0.4913 -0.7115
  807MOL0     H 8902   5.429  10.507   5.169  2.0258  0.7604  1.8866
  807MOL0     H 8903   5.399  10.249   5.269 -0.0483  0.3479 -0.0819
  807MOL0     H 8904   5.310  10.333   5.402 -2.3094  0.7543 -1.3270
  807MOL0     H 8905   5.704  10.444   5.469 -2.6793 -0.1134 -0.9079
  807MOL0     H 8906   5.955  10.461   5.485  1.5915 -1.0866  1.4807
  807MOL0     H 8907   6.072  10.452   5.372 -0.4936 -1.5137  2.6025
  807MOL0     H 8908   5.975  10.610   5.384 -2.0347 -1.1701 -0.2640
  807MOL0     H 8909   6.307  10.642   5.167 -1.3981  0.3185 -0.8727
  807MOL0     H 8910   6.537  10.549   5.149 -0.7278  2.3387 -2.5730
  807MOL0     H 8911   6.729  10.458   5.031 -3.5757 -0.4817 -1.9213
  807MOL0     H 8912   6.696  10.363   5.187  2.4892 -2.0648  1.3004
  807MOL0     H 8913   6.813  10.168   5.078  3.0615 -0.3531  0.2238
  807MOL0     H 8914   6.823  10.252   4.925  1.0331 -1.1440 -0.7540
  807MOL0     H 8915   6.950  10.357   5.170 -1.9162 -0.7650 -0.9099
  807MOL0     H 8916   6.974  10.429   5.006  2.2010  2.0741  3.5055
  807MOL0     H 8917   7.033  10.140   5.006  0.7832 -0.8419  1.6267
  807MOL0     H 8918   7.125  10.279   4.942 -1.9412 -0.1612 -0.9788
  807MOL0     H 8919   7.113  10.198   5.237  1.0344 -0.1246  0.7225
  807MOL0     H 8920   7.240  10.303   5.173  2.0019 -1.5067 -1.5782
  807MOL0     H 8921   7.184  10.009   5.134 -0.0179 -0.0874 -0.7465
  807MOL0     H 8922   7.295  10.084   5.027 -0.7355 -1.1806  0.1795
  807MOL0     H 8923   7.346  10.098   5.337  1.4615  0.0304  0.0468
  807MOL0     H 8924   7.440  10.169   5.230  1.5337 -1.3723 -0.5676
  807MOL0     H 8925   7.559   9.970   5.281 -0.8140 -0.2444 -0.4513
  807MOL0     H 8926   7.507   9.976   5.102 -2.3637 -1.6402 -1.5566
  807MOL0     H 8927   6.379  10.196   4.987 -1.7276 -1.2588  2.6563
  807MOL0     H 8928   6.155  10.263   5.017  0.6597 -1.5883  1.3954
  807MOL0     H 8929   5.753  10.311   5.001 -0.4643 -3.0591  0.0205
  807MOL0     H 8930   5.554  10.267   5.134 -0.7630  1.9236  1.5033
  807MOL0     H 8931   6.316  10.027   5.636 -0.7803 -0.5779 -0.1225
  807MOL0     H 8932   6.548   9.981   5.685 -0.8223 -1.4319 -0.3042
  807MOL0     H 8933   6.836   9.821   5.676 -1.5422 -1.1060 -2.2118
  807MOL0     H 8934   6.994   9.659   5.738  1.7300 -1.4202  0.6604
  807MOL0     H 8935   7.176   9.603   5.850  1.6712  0.0046  0.1995
  807MOL0     H 8936   7.156   9.494   5.720 -0.9031  0.9386 -0.6175
  807MOL0     H 8937   7.450   9.538   5.780  0.3353 -1.1984 -1.1768
  807MOL0     H 8938   7.336   9.404   5.720 -3.1508  1.5954 -1.4420
  807MOL0     H 8939   7.280   9.345   5.925 -0.9730 -0.2102  1.2749
  807MOL0     H 8940   7.327   9.506   6.002 -0.1316  1.1125 -2.0036
  807MOL0     H 8941   7.570   9.436   5.963 -0.3885  1.0804  2.2048
  807MOL0     H 8942   7.502   9.266   5.928  0.1525 -0.8289  1.1338
  807MOL0     H 8943   7.506   9.320   6.356 -1.0442 -0.5508  0.7325
  807MOL0     H 8944   7.294   9.832   5.475  0.2521  0.3865 -0.3081
  807MOL0     H 8945   7.113  10.003   5.399  2.2465  0.8404  0.8081
  808MOL0     O 8946   2.969   0.592   3.341 -0.2321 -0.4486  1.1798
  808MOL0     C 8947   3.050   0.620   3.253 -0.0279 -0.1681 -0.9116
  808MOL0     O 8948   3.080   0.748   3.207 -0.3786  0.5471 -0.7478
  808MOL0     C 8949   2.996   0.856   3.233 -0.4274 -0.8833  0.4277
  808MOL0     C 8950   3.054   0.980   3.258  0.0110  0.0498  0.3270
  808MOL0     C 8951   2.974   1.088   3.278  0.3415 -0.4643  0.9887
  808MOL0     C 8952   2.837   1.081   3.267  0.7617 -0.9675 -0.7105
  808MOL0     O 8953   2.761   1.198   3.281 -0.7427 -0.0316  0.6935
  808MOL0     C 8954   2.805   1.314   3.345 -0.3580  0.2536 -0.0146
  808MOL0     C 8955   2.686   1.414   3.343 -0.3011  0.0545 -0.1343
  808MOL0     C 8956   2.643   1.459   3.207  0.2732 -0.1376 -0.5766
  808MOL0     C 8957   2.484   1.447   3.193  0.0896  0.5261 -0.3798
  808MOL0     C 8958   2.399   1.522   3.303 -0.8629 -0.0806 -0.2802
  808MOL0     C 8959   2.434   1.678   3.299  0.2096  0.4756 -0.2846
  808MOL0     C 8960   2.406   1.743   3.164  0.3900  0.1317  0.6509
  808MOL0     C 8961   2.386   1.898   3.173 -0.0131 -0.2217 -0.2366
  808MOL0     N 8962   2.359   1.947   3.038 -0.2916 -0.1271 -0.7454
  808MOL0     C 8963   2.448   2.019   2.964  0.2033  0.6043  0.1960
  808MOL0     C 8964   2.385   2.040   2.840 -0.0111  0.0843  0.0252
  808MOL0     C 8965   2.434   2.105   2.719 -0.6442  0.5363  0.6938
  808MOL0     C 8966   2.455   2.000   2.605  0.6541 -0.5179 -0.2795
  808MOL0     C 8967   2.589   1.930   2.628  0.3165  0.2592 -0.0692
  808MOL0     C 8968   2.607   1.813   2.524  0.5135 -0.1554 -0.2695
  808MOL0     O 8969   2.582   1.871   2.394 -0.0148 -0.4388 -0.1534
  808MOL0     C 8970   2.477   1.810   2.324  0.3077 -0.7068 -0.4536
  808MOL0     C 8971   2.467   1.672   2.302  0.5261  0.7498 -0.0062
  808MOL0     C 8972   2.363   1.609   2.228 -0.0879 -0.0146  0.0383
  808MOL0     C 8973   2.371   1.456   2.218  1.1720 -0.2587 -0.3479
  808MOL0     C 8974   2.266   1.693   2.169 -0.0885  0.3666  0.0777
  808MOL0     C 8975   2.139   1.628   2.108  0.2853  0.6290  0.4162
  808MOL0     O 8976   2.054   1.727   2.069  0.6131  0.0904  0.2511
  808MOL0     C 8977   1.931   1.706   2.001 -0.1066  0.0284  0.2923
  808MOL0     C 8978   1.901   1.584   1.930 -0.1557 -0.9616 -0.1359
  808MOL0     C 8979   1.777   1.581   1.868  0.4427  0.0565 -0.4544
  808MOL0     C 8980   1.687   1.693   1.849  0.0211 -0.5651 -0.4029
  808MOL0     O 8981   1.570   1.687   1.777  1.0549 -0.2309 -0.0198
  808MOL0     C 8982   1.519   1.805   1.717 -0.3057  0.2875 -0.6578
  808MOL0     C 8983   1.422   1.758   1.609 -0.2490 -0.1285 -0.1799
  808MOL0     C 8984   1.297   1.690   1.665 -0.1160  0.3494  0.1383
  808MOL0     C 8985   1.207   1.656   1.549  0.3031  1.3046  0.0034
  808MOL0     C 8986   1.068   1.596   1.601  0.8019  0.2258 -0.4316
  808MOL0     C 8987   1.007   1.502   1.495  0.0667 -0.0773 -0.6930
  808MOL0     C 8988   0.869   1.436   1.543  0.0431  0.3717 -0.0639
  808MOL0     C 8989   0.823   1.333   1.443  0.1876 -1.1998 -0.2883
  808MOL0    Cl 8990   0.719   1.409   1.316 -0.1763  0.0197 -0.4430
  808MOL0     C 8991   1.725   1.812   1.906 -0.1357  0.1279  0.2656
  808MOL0     C 8992   1.848   1.819   1.981 -0.3983 -0.1639 -0.0461
  808MOL0     O 8993   2.121   1.506   2.108  0.0011  0.4994  0.5422
  808MOL0     C 8994   2.283   1.830   2.175 -0.4422  0.2187  1.0325
  808MOL0     C 8995   2.390   1.890   2.249  0.4499  0.7996  0.5325
  808MOL0     N 8996   2.264   1.978   2.853 -0.3892 -0.5956  0.3573
  808MOL0     N 8997   2.244   1.916   2.967 -0.8497  0.2363 -0.1905
  808MOL0     C 8998   2.776   0.967   3.238 -0.1514  0.0809 -0.0159
  808MOL0     C 8999   2.853   0.851   3.220 -0.2147  0.4925 -0.1851
  808MOL0     C 9000   3.114   0.510   3.177  0.4020  0.5905  0.3216
  808MOL0     C 9001   3.186   0.536   3.064 -0.2792 -0.1945 -1.3062
  808MOL0     C 9002   3.230   0.421   2.986 -0.1333 -1.2079 -0.5189
  808MOL0     C 9003   3.205   0.283   3.026  0.4774 -0.6843  1.0142
  808MOL0     O 9004   3.267   0.184   2.960 -0.1261  0.1562 -0.1111
  808MOL0     C 9005   3.242   0.049   2.984  0.5406  0.1342  0.0926
  808MOL0     C 9006   3.362  -0.033   2.927 -0.0992  0.7824  0.8279
  808MOL0     C 9007   3.342  -0.061   2.775 -1.2923 -0.1053 -0.5602
  808MOL0     C 9008   3.469  -0.130   2.716 -0.4619  0.2238  0.4255
  808MOL0     C 9009   3.592  -0.056   2.713 -0.4716 -0.4774  0.3444
  808MOL0     C 9010   3.710  -0.014   2.710  0.2875 -0.1557 -0.1613
  808MOL0     C 9011   3.132   0.257   3.138 -0.0350 -0.3243  0.0088
  808MOL0     C 9012   3.085   0.372   3.212  0.6220  0.6844  0.4440
  808MOL0     H 9013   3.162   0.987   3.261 -0.0009  0.3098  0.0731
  808MOL0     H 9014   3.023   1.184   3.285  0.7270 -0.6477  0.8319
  808MOL0     H 9015   2.828   1.281   3.447  4.6154 -0.8391 -1.2554
  808MOL0     H 9016   2.901   1.356   3.313 -0.6237 -0.8638 -2.5118
  808MOL0     H 9017   2.612   1.363   3.404 -0.6826  0.6199 -0.1158
  808MOL0     H 9018   2.714   1.506   3.396 -0.3007 -0.6245  1.0588
  808MOL0     H 9019   2.679   1.560   3.185  0.5135 -0.6178 -2.5969
  808MOL0     H 9020   2.696   1.394   3.137  1.1275 -1.0349  0.8557
  808MOL0     H 9021   2.446   1.468   3.093 -0.7101 -1.0506 -0.4324
  808MOL0     H 9022   2.442   1.347   3.208  0.6694  0.2728 -0.4394
  808MOL0     H 9023   2.293   1.495   3.304 -1.1034  0.6787  2.1084
  808MOL0     H 9024   2.440   1.488   3.399  0.4571  1.1295 -0.3892
  808MOL0     H 9025   2.378   1.718   3.384  3.0492 -1.4394  2.7409
  808MOL0     H 9026   2.538   1.681   3.334  1.0391 -1.1406 -2.3751
  808MOL0     H 9027   2.485   1.715   3.094  0.7378  1.6001  0.4164
  808MOL0     H 9028   2.318   1.696   3.120  2.3845 -2.6972 -0.6113
  808MOL0     H 9029   2.481   1.944   3.203 -0.0715  0.2564 -0.7787
  808MOL0     H 9030   2.306   1.919   3.245  2.4606 -0.5318  2.8213
  808MOL0     H 9031   2.548   2.051   2.993  0.7753  0.0153 -1.0250
  808MOL0     H 9032   2.363   2.180   2.683  0.9113  1.5130 -0.4377
  808MOL0     H 9033   2.534   2.147   2.734  0.2407 -1.1982 -0.1081
  808MOL0     H 9034   2.453   2.054   2.510  1.8203  1.3257  0.6788
  808MOL0     H 9035   2.380   1.920   2.601  1.2387 -1.2727  1.9700
  808MOL0     H 9036   2.587   1.881   2.726 -1.5559  0.3301 -0.0307
  808MOL0     H 9037   2.677   1.994   2.619 -0.8203  1.7536 -1.1422
  808MOL0     H 9038   2.544   1.724   2.534  0.7156 -0.4414 -1.3743
  808MOL0     H 9039   2.711   1.779   2.530  1.8675  3.0304 -2.6547
  808MOL0     H 9040   2.551   1.616   2.340 -0.7977 -1.8026 -0.6369
  808MOL0     H 9041   2.358   1.424   2.114 -1.3620  1.2030 -0.5636
  808MOL0     H 9042   2.461   1.403   2.252  1.2206 -0.9530 -1.5113
  808MOL0     H 9043   2.291   1.401   2.268  1.0256  0.6103  0.3982
  808MOL0     H 9044   1.962   1.494   1.935  1.5428  0.1561 -0.1490
  808MOL0     H 9045   1.763   1.485   1.819  0.2740 -0.5177  0.7025
  808MOL0     H 9046   1.466   1.875   1.781 -1.1247  0.8503 -1.8963
  808MOL0     H 9047   1.604   1.859   1.676  1.9205 -2.3074  0.2288
  808MOL0     H 9048   1.403   1.851   1.555  1.5937  1.6510  1.9621
  808MOL0     H 9049   1.471   1.683   1.546 -1.6060  0.9569 -2.6672
  808MOL0     H 9050   1.231   1.748   1.730 -3.1211 -2.3230 -0.2892
  808MOL0     H 9051   1.317   1.598   1.722 -1.2521 -1.0142 -1.5469
  808MOL0     H 9052   1.188   1.746   1.491  0.5856  0.2994 -1.6975
  808MOL0     H 9053   1.260   1.584   1.487 -2.0213 -0.1252 -0.4674
  808MOL0     H 9054   0.996   1.672   1.631  0.7761 -1.2490  3.8275
  808MOL0     H 9055   1.092   1.535   1.689  1.7583  0.6087 -0.4230
  808MOL0     H 9056   0.985   1.561   1.406 -0.0759  0.5826 -0.2246
  808MOL0     H 9057   1.081   1.421   1.482 -2.2046 -2.4039  0.0295
  808MOL0     H 9058   0.792   1.509   1.572 -3.0609 -2.8218  0.4507
  808MOL0     H 9059   0.891   1.377   1.633 -1.9835 -1.4762 -0.6909
  808MOL0     H 9060   0.777   1.254   1.503 -2.9891  0.4890 -0.2936
  808MOL0     H 9061   0.909   1.285   1.394  0.1312 -0.8787 -0.7068
  808MOL0     H 9062   1.672   1.906   1.903 -0.8767 -0.2416  1.1205
  808MOL0     H 9063   1.889   1.909   2.027 -1.1968  0.6359 -0.8578
  808MOL0     H 9064   2.222   1.901   2.120  1.7924  0.7450 -0.9088
  808MOL0     H 9065   2.386   1.998   2.255  0.0320  0.8412 -0.4005
  808MOL0     H 9066   2.672   0.951   3.212  0.4763 -1.8836 -1.5041
  808MOL0     H 9067   2.805   0.762   3.180 -0.9626  1.6990 -2.1314
  808MOL0     H 9068   3.199   0.639   3.035  3.1150 -0.4347 -1.0308
  808MOL0     H 9069   3.280   0.441   2.892  0.8973  1.6963  0.5361
  808MOL0     H 9070   3.255   0.036   3.091  2.3573  0.3462 -0.0736
  808MOL0     H 9071   3.141   0.019   2.953  0.3034  2.3805 -1.5421
  808MOL0     H 9072   3.386  -0.125   2.980  0.8983  1.0984  0.9472
  808MOL0     H 9073   3.445   0.037   2.943  0.2923  0.1776  1.4870
  808MOL0     H 9074   3.318   0.037   2.733 -0.2417  0.6386  0.5185
  808MOL0     H 9075   3.252  -0.122   2.762 -2.8683  1.6098  1.5308
  808MOL0     H 9076   3.455  -0.146   2.609  0.5833  5.0683 -0.6836
  808MOL0     H 9077   3.498  -0.225   2.763 -0.2013 -0.7566 -1.6179
  808MOL0     H 9078   3.808   0.030   2.706 -0.4460  1.4989 -1.6075
  808MOL0     H 9079   3.110   0.159   3.179 -2.1453 -0.0303 -0.3135
  808MOL0     H 9080   3.019   0.363   3.299  0.8233 -1.2090  0.4432
  809MOL0     O 9081   8.405  10.992   3.606 -0.2545 -0.1795  0.4197
  809MOL0     C 9082   8.456  11.045   3.508 -0.6243  0.0604 -0.5970
  809MOL0     O 9083   8.404  11.150   3.439  0.5957 -0.9094 -0.0892
  809MOL0     C 9084   8.276  11.188   3.443  1.0938 -0.8045 -0.6943
  809MOL0     C 9085   8.217  11.229   3.323  0.3897 -0.4986  0.9509
  809MOL0     C 9086   8.076  11.260   3.318 -0.4493  0.2252 -0.0846
  809MOL0     C 9087   8.002  11.244   3.441  0.5387 -0.2012 -0.4083
  809MOL0     O 9088   7.870  11.269   3.464 -0.4452 -0.1515  0.4502
  809MOL0     C 9089   7.785  11.324   3.357 -1.6307  0.1861 -0.3197
  809MOL0     C 9090   7.756  11.205   3.262 -0.0110  0.9256  0.6407
  809MOL0     C 9091   7.700  11.076   3.330  0.5952  0.2284  0.0261
  809MOL0     C 9092   7.618  10.979   3.241  0.0697  0.0996 -1.1573
  809MOL0     C 9093   7.510  10.907   3.323 -0.1677  0.3993  0.2247
  809MOL0     C 9094   7.571  10.806   3.422  0.1530  0.6326  0.7690
  809MOL0     C 9095   7.462  10.730   3.509 -0.2989  0.8157 -0.2731
  809MOL0     C 9096   7.519  10.597   3.527  0.6524 -0.1597 -0.3010
  809MOL0     N 9097   7.429  10.532   3.620  0.6996  0.5866 -0.8252
  809MOL0     C 9098   7.413  10.562   3.756 -0.4131  0.4977 -0.5110
  809MOL0     C 9099   7.300  10.502   3.794 -0.8865  0.0450  0.7247
  809MOL0     C 9100   7.260  10.498   3.933  0.2807 -0.2805 -0.5013
  809MOL0     C 9101   7.107  10.504   3.950 -0.3483 -0.0477  0.0172
  809MOL0     C 9102   7.050  10.360   3.950 -0.3598  0.5673 -0.1485
  809MOL0     C 9103   6.907  10.343   4.004  0.1163  0.0444 -0.1071
  809MOL0     O 9104   6.828  10.360   3.887  0.0611  0.0975  0.0481
  809MOL0     C 9105   6.705  10.420   3.916 -0.0193 -0.6583 -0.2328
  809MOL0     C 9106   6.683  10.559   3.887 -0.4732  0.1346  0.4089
  809MOL0     C 9107   6.555  10.619   3.903  0.4246  0.8721 -0.5689
  809MOL0     C 9108   6.537  10.767   3.870  0.4375 -0.6528 -0.8922
  809MOL0     C 9109   6.443  10.531   3.936  0.2779 -0.1148 -0.3335
  809MOL0     C 9110   6.304  10.578   3.948  0.2291  0.2079  0.7292
  809MOL0     O 9111   6.219  10.515   4.030 -0.0269 -0.0910 -0.4757
  809MOL0     C 9112   6.083  10.542   4.028 -0.2349 -0.4210 -0.5437
  809MOL0     C 9113   6.032  10.608   4.135  0.2452 -0.7228  0.9445
  809MOL0     C 9114   5.902  10.639   4.151 -0.3106 -0.4179 -1.0571
  809MOL0     C 9115   5.809  10.596   4.059 -0.6960  0.0990 -0.7381
  809MOL0     O 9116   5.672  10.609   4.065  0.6727 -0.1884 -0.4497
  809MOL0     C 9117   5.608  10.697   4.166 -0.2901  0.7534  0.0254
  809MOL0     C 9118   5.576  10.632   4.310  0.4483 -0.6221 -0.3401
  809MOL0     C 9119   5.490  10.507   4.302  0.8025  0.0113 -0.1034
  809MOL0     C 9120   5.581  10.379   4.280 -0.0954  0.1460  0.2916
  809MOL0     C 9121   5.529  10.241   4.330  0.0101 -0.2798  0.4594
  809MOL0     C 9122   5.595  10.127   4.261  0.0379 -0.1968  0.4886
  809MOL0     C 9123   5.587   9.996   4.337  0.0782  0.1991 -0.0128
  809MOL0     C 9124   5.446   9.938   4.334  0.6001  0.4403 -0.1697
  809MOL0    Cl 9125   5.385   9.869   4.484  0.0711 -0.2022 -0.0165
  809MOL0     C 9126   5.855  10.513   3.958  0.2111  0.3904 -0.6811
  809MOL0     C 9127   5.996  10.488   3.940 -0.0629 -0.0121 -0.2047
  809MOL0     O 9128   6.262  10.645   3.853 -0.7181  0.1514  0.2932
  809MOL0     C 9129   6.472  10.393   3.970 -0.5811 -0.4275 -0.6891
  809MOL0     C 9130   6.601  10.337   3.970  0.1426 -0.1258 -0.0560
  809MOL0     N 9131   7.252  10.423   3.691 -0.3980 -0.1635  0.2046
  809MOL0     N 9132   7.338  10.440   3.590  0.7016  0.2144  0.0019
  809MOL0     C 9133   8.060  11.182   3.553  0.2629 -0.0928  0.5187
  809MOL0     C 9134   8.193  11.165   3.546 -0.8038  0.1798  0.5940
  809MOL0     C 9135   8.590  10.994   3.479  0.5944  0.4844  0.5319
  809MOL0     C 9136   8.668  10.919   3.573  0.1874 -0.0102  1.0587
  809MOL0     C 9137   8.794  10.876   3.548  0.3498  0.9250  0.4180
  809MOL0     C 9138   8.840  10.892   3.411 -0.1329 -0.3223  0.0724
  809MOL0     O 9139   8.968  10.865   3.379  0.0538  0.7622 -0.7357
  809MOL0     C 9140   9.037  10.756   3.448 -0.2372  0.8409 -1.5129
  809MOL0     C 9141   9.183  10.780   3.392 -0.8978  0.2610  0.6352
  809MOL0     C 9142   9.193  10.741   3.237  0.9832  0.8255  0.7158
  809MOL0     C 9143   9.335  10.717   3.189  0.4312 -0.3156  0.6755
  809MOL0     C 9144   9.406  10.624   3.282 -0.0081 -0.1270 -0.1483
  809MOL0     C 9145   9.465  10.556   3.369 -0.2771  0.1525  0.7300
  809MOL0     C 9146   8.766  10.960   3.315  0.0857  0.4648  0.5467
  809MOL0     C 9147   8.641  11.018   3.350  0.2713 -0.7292 -0.2239
  809MOL0     H 9148   8.279  11.245   3.235 -0.3404 -0.3187  0.4586
  809MOL0     H 9149   8.027  11.296   3.228  0.3239 -0.4627 -0.8056
  809MOL0     H 9150   7.688  11.367   3.385 -2.1524 -1.0012 -0.2188
  809MOL0     H 9151   7.840  11.403   3.305  1.2141 -1.5965 -0.1819
  809MOL0     H 9152   7.683  11.243   3.190 -0.2118  0.9436  0.8507
  809MOL0     H 9153   7.843  11.169   3.208 -0.5114 -2.3384  1.7735
  809MOL0     H 9154   7.786  11.019   3.369  1.2305  0.3044 -1.2237
  809MOL0     H 9155   7.630  11.111   3.407 -0.5415 -0.0104 -0.8815
  809MOL0     H 9156   7.564  11.029   3.160  0.0502  1.6701 -0.2172
  809MOL0     H 9157   7.678  10.900   3.195 -1.1022 -0.9417 -0.9449
  809MOL0     H 9158   7.442  10.980   3.368  2.4554  2.7140  0.7239
  809MOL0     H 9159   7.449  10.861   3.244  1.9249  2.5837 -2.8825
  809MOL0     H 9160   7.630  10.743   3.356 -1.3334 -0.4763  0.4401
  809MOL0     H 9161   7.643  10.862   3.482 -0.3417  0.0336  1.9452
  809MOL0     H 9162   7.447  10.774   3.608 -0.6943 -2.8479  1.4761
  809MOL0     H 9163   7.369  10.733   3.452 -0.9946  1.2266  0.8433
  809MOL0     H 9164   7.618  10.599   3.573  2.0246 -2.0693 -2.8913
  809MOL0     H 9165   7.521  10.535   3.436 -1.0764  1.1858 -1.3127
  809MOL0     H 9166   7.477  10.627   3.814  1.7134 -1.8133 -0.1215
  809MOL0     H 9167   7.302  10.410   3.983 -0.0563 -0.3570 -0.3535
  809MOL0     H 9168   7.293  10.590   3.982 -1.3361  0.2549 -0.3666
  809MOL0     H 9169   7.069  10.561   3.865  1.0112 -1.1152 -1.3654
  809MOL0     H 9170   7.076  10.544   4.047 -0.8128  0.1085 -0.1914
  809MOL0     H 9171   7.112  10.310   4.025 -0.3381  1.3012  0.3420
  809MOL0     H 9172   7.062  10.315   3.851  1.3811  1.8974 -0.6003
  809MOL0     H 9173   6.898  10.422   4.079  0.4388 -0.1254  0.1156
  809MOL0     H 9174   6.897  10.242   4.046  1.9630 -0.5187 -0.8997
  809MOL0     H 9175   6.765  10.619   3.850  0.3736 -2.5974 -2.6381
  809MOL0     H 9176   6.629  10.820   3.895 -0.1174 -0.6209  1.2177
  809MOL0     H 9177   6.525  10.777   3.761 -1.5253  0.7060 -0.5972
  809MOL0     H 9178   6.465  10.821   3.932  1.1461 -0.7600  0.0480
  809MOL0     H 9179   6.107  10.656   4.197  0.7511 -0.9956  0.5466
  809MOL0     H 9180   5.875  10.700   4.236  0.4497  0.5403 -1.4855
  809MOL0     H 9181   5.667  10.789   4.177  1.4168 -0.2822 -0.0018
  809MOL0     H 9182   5.509  10.722   4.128 -1.4834 -1.7797  1.2473
  809MOL0     H 9183   5.663  10.609   4.372  0.9167  2.9173  0.5270
  809MOL0     H 9184   5.516  10.707   4.362  0.7252  0.9061 -2.0989
  809MOL0     H 9185   5.417  10.515   4.221 -0.3447 -0.5579  0.8480
  809MOL0     H 9186   5.446  10.492   4.401 -0.4495 -1.6410 -0.8509
  809MOL0     H 9187   5.600  10.379   4.172  2.0945  4.3408  0.4565
  809MOL0     H 9188   5.676  10.394   4.332  0.8301  0.6242 -1.4574
  809MOL0     H 9189   5.423  10.241   4.304  0.4057  0.1562 -1.3546
  809MOL0     H 9190   5.539  10.236   4.439  2.9087  0.6042  0.3292
  809MOL0     H 9191   5.554  10.121   4.159 -1.2881  0.9071  0.9302
  809MOL0     H 9192   5.702  10.135   4.239  0.3503 -3.2015  0.5158
  809MOL0     H 9193   5.612  10.023   4.440  2.9472  2.0898 -1.0953
  809MOL0     H 9194   5.663   9.923   4.307 -1.0216  0.0121 -2.5660
  809MOL0     H 9195   5.440   9.859   4.259  0.0353  0.7477 -0.4521
  809MOL0     H 9196   5.375  10.013   4.299  1.6935 -0.2579 -4.4631
  809MOL0     H 9197   5.790  10.465   3.886 -0.4165 -1.9520  1.2967
  809MOL0     H 9198   6.029  10.426   3.858  1.2718 -0.2753  0.5011
  809MOL0     H 9199   6.400  10.323   4.011  0.6042 -1.7832 -0.8451
  809MOL0     H 9200   6.635  10.235   3.989  0.9281 -0.0878 -1.1285
  809MOL0     H 9201   8.018  11.172   3.652  1.2051  0.2219  0.9656
  809MOL0     H 9202   8.240  11.141   3.641  0.6500 -2.2539 -0.6188
  809MOL0     H 9203   8.632  10.904   3.675 -0.5657  1.2971  1.0037
  809MOL0     H 9204   8.837  10.825   3.633  0.8062 -0.1871 -0.4559
  809MOL0     H 9205   9.034  10.771   3.556  0.5828  0.3338 -1.4136
  809MOL0     H 9206   9.003  10.654   3.426  0.3346  0.8102 -2.2856
  809MOL0     H 9207   9.249  10.712   3.447  1.7505  0.1568 -2.3847
  809MOL0     H 9208   9.215  10.880   3.420 -2.0050  0.4875  1.1467
  809MOL0     H 9209   9.140  10.805   3.165 -2.4123 -1.2325  1.1523
  809MOL0     H 9210   9.140  10.646   3.227 -0.0960  1.2843  1.7841
  809MOL0     H 9211   9.379  10.816   3.174 -0.7128  0.2444  0.8750
  809MOL0     H 9212   9.339  10.676   3.088 -1.1874 -0.7312  0.7480
  809MOL0     H 9213   9.507  10.495   3.446 -1.2866  1.4074  2.3293
  809MOL0     H 9214   8.809  10.962   3.215  0.3745 -1.0914  0.6116
  809MOL0     H 9215   8.586  11.075   3.276  3.2202 -0.3360 -2.3152
  810MOL0     O 9216  11.326   2.169   9.319 -0.0174 -0.1455 -0.7078
  810MOL0     C 9217  11.427   2.147   9.251 -0.1983 -0.3572  0.0054
  810MOL0     O 9218  11.433   2.121   9.112 -0.9649 -0.0014 -0.5207
  810MOL0     C 9219  11.326   2.107   9.031  0.3881  0.4645 -0.6081
  810MOL0     C 9220  11.311   2.177   8.910 -0.2301 -0.1373 -0.0673
  810MOL0     C 9221  11.195   2.168   8.831  0.6386 -0.3848 -0.0947
  810MOL0     C 9222  11.093   2.069   8.860 -0.2040  0.4354  0.6111
  810MOL0     O 9223  10.971   2.058   8.792  0.4484  0.2922 -0.4573
  810MOL0     C 9224  10.928   2.166   8.715  0.3787 -0.0910 -0.5670
  810MOL0     C 9225  10.791   2.121   8.670 -1.0943  0.2376  0.0135
  810MOL0     C 9226  10.781   1.995   8.574  0.0698  0.4508 -0.1555
  810MOL0     C 9227  10.632   1.966   8.544 -0.3474 -0.0850 -0.3801
  810MOL0     C 9228  10.613   1.844   8.463  0.3030 -0.0107  0.5063
  810MOL0     C 9229  10.488   1.844   8.377  0.3087 -0.7479  0.6403
  810MOL0     C 9230  10.356   1.835   8.453 -0.3487 -0.3712 -0.2131
  810MOL0     C 9231  10.283   1.967   8.485 -0.3015 -0.3702  0.3309
  810MOL0     N 9232  10.157   1.929   8.562  0.2007 -0.2211  0.0960
  810MOL0     C 9233  10.040   1.892   8.508  0.0355  0.2056 -0.2777
  810MOL0     C 9234   9.959   1.866   8.613 -0.8460 -0.0338  0.3815
  810MOL0     C 9235   9.828   1.803   8.599 -0.2864  0.0465  0.1467
  810MOL0     C 9236   9.729   1.902   8.537 -0.3065  0.1890 -0.4950
  810MOL0     C 9237   9.591   1.841   8.490 -0.7154 -0.4505 -0.2277
  810MOL0     C 9238   9.500   1.797   8.604  0.4522 -0.1435 -0.1066
  810MOL0     O 9239   9.390   1.715   8.552 -0.1558 -0.8057  0.3049
  810MOL0     C 9240   9.291   1.668   8.641 -0.0268 -0.6826 -0.0175
  810MOL0     C 9241   9.190   1.590   8.589 -1.2397  0.3499 -0.6721
  810MOL0     C 9242   9.066   1.560   8.653 -1.0229 -1.1452 -0.5579
  810MOL0     C 9243   8.959   1.487   8.568 -0.1647  0.4121 -0.2986
  810MOL0     C 9244   9.040   1.616   8.777  0.7091  0.6384  0.0250
  810MOL0     C 9245   8.907   1.603   8.851 -0.0859  0.2429  0.4726
  810MOL0     O 9246   8.820   1.500   8.808  1.1628 -0.5394 -0.7960
  810MOL0     C 9247   8.692   1.529   8.832  0.1722 -0.1878  0.9906
  810MOL0     C 9248   8.618   1.574   8.723  0.1568  0.2664  0.8055
  810MOL0     C 9249   8.486   1.601   8.739  0.0038 -0.0887 -0.5243
  810MOL0     C 9250   8.418   1.597   8.860 -0.0764 -0.6304 -0.5813
  810MOL0     O 9251   8.285   1.616   8.875  0.8127 -0.0055 -0.3045
  810MOL0     C 9252   8.208   1.682   8.774 -0.0670  0.4290 -0.0657
  810MOL0     C 9253   8.063   1.701   8.825 -0.2169  0.2774  0.0088
  810MOL0     C 9254   8.062   1.841   8.906 -0.3355 -0.3327  0.3458
  810MOL0     C 9255   7.930   1.861   8.981  0.4787 -0.4153 -0.3683
  810MOL0     C 9256   7.821   1.889   8.872  0.7895 -0.0042 -0.0630
  810MOL0     C 9257   7.683   1.884   8.944 -0.0092 -0.2997  0.6028
  810MOL0     C 9258   7.560   1.933   8.858 -0.0090 -0.9298  0.2096
  810MOL0     C 9259   7.421   1.920   8.943  0.2952 -0.7404  0.1539
  810MOL0    Cl 9260   7.380   1.753   8.941  0.6743 -0.0221 -0.1409
  810MOL0     C 9261   8.493   1.552   8.970  0.9882  0.0739 -1.0281
  810MOL0     C 9262   8.627   1.515   8.961 -0.3651  0.6698  0.3461
  810MOL0     O 9263   8.868   1.694   8.929 -0.1536 -0.6392 -0.6622
  810MOL0     C 9264   9.139   1.696   8.836 -0.5815  0.1417  0.4997
  810MOL0     C 9265   9.265   1.723   8.768 -0.1372 -0.2673 -0.4886
  810MOL0     N 9266  10.024   1.887   8.726 -0.4929 -0.2964  0.1894
  810MOL0     N 9267  10.141   1.929   8.690 -0.3024 -0.1616  0.3813
  810MOL0     C 9268  11.109   1.998   8.983 -0.3342 -0.3745  0.2231
  810MOL0     C 9269  11.221   2.009   9.061 -0.3387 -0.3246 -0.8186
  810MOL0     C 9270  11.552   2.123   9.327 -0.3999  0.7227 -0.6955
  810MOL0     C 9271  11.570   2.142   9.460 -0.3565 -0.1547  0.6969
  810MOL0     C 9272  11.698   2.130   9.515  0.7083  0.1119  0.6297
  810MOL0     C 9273  11.805   2.062   9.453  0.6471  0.9685 -0.2202
  810MOL0     O 9274  11.922   2.059   9.527 -0.3959 -0.1182  0.5464
  810MOL0     C 9275  12.040   2.009   9.455 -0.0264  0.2261 -0.1076
  810MOL0     C 9276  12.085   2.127   9.374  0.3244 -0.1795  0.5307
  810MOL0     C 9277  12.243   2.104   9.342 -0.6238  0.1975  0.6168
  810MOL0     C 9278  12.338   2.187   9.429  0.2683  0.0962  0.8567
  810MOL0     C 9279  12.480   2.163   9.390  0.0859 -0.2219  0.2890
  810MOL0     C 9280  12.595   2.134   9.376 -0.2807  0.1804 -0.3082
  810MOL0     C 9281  11.780   2.026   9.321  0.1353  0.0292  0.4325
  810MOL0     C 9282  11.655   2.061   9.261 -0.1446  0.1350  0.4614
  810MOL0     H 9283  11.390   2.249   8.889 -1.3473  1.6004  1.3658
  810MOL0     H 9284  11.184   2.238   8.749  1.4308  1.7735  1.5210
  810MOL0     H 9285  10.925   2.258   8.775  0.0172 -0.6204  0.2594
  810MOL0     H 9286  10.988   2.175   8.624  0.5971  0.7029 -0.3605
  810MOL0     H 9287  10.744   2.110   8.768  0.6642  0.2055  0.8994
  810MOL0     H 9288  10.741   2.208   8.627 -0.1452 -0.0236 -1.7093
  810MOL0     H 9289  10.835   2.028   8.485 -2.1314  1.9673 -1.0076
  810MOL0     H 9290  10.816   1.907   8.631 -0.8200 -2.1008 -3.2563
  810MOL0     H 9291  10.579   1.960   8.639  0.2627 -2.4679 -0.1429
  810MOL0     H 9292  10.593   2.053   8.489 -0.1395  1.0787  1.2525
  810MOL0     H 9293  10.699   1.839   8.396 -0.0848 -3.0216  0.0818
  810MOL0     H 9294  10.613   1.763   8.536  0.3048  1.5603  2.3104
  810MOL0     H 9295  10.485   1.933   8.314 -3.5105  0.5150  2.3098
  810MOL0     H 9296  10.492   1.757   8.312 -1.7255 -1.1186  0.9523
  810MOL0     H 9297  10.287   1.781   8.388  1.4375 -0.6475 -1.9825
  810MOL0     H 9298  10.385   1.784   8.546  1.6066  2.9009  1.1622
  810MOL0     H 9299  10.261   2.000   8.383  2.1107  0.3819 -0.0037
  810MOL0     H 9300  10.339   2.047   8.535 -0.2148 -0.3546  0.2094
  810MOL0     H 9301  10.015   1.899   8.402 -0.8389 -0.4722 -0.1294
  810MOL0     H 9302   9.830   1.736   8.513  3.5337 -0.6734  0.6483
  810MOL0     H 9303   9.787   1.752   8.687  0.0515  2.4388  1.7840
  810MOL0     H 9304   9.781   1.942   8.449  2.4780  1.1597  1.4550
  810MOL0     H 9305   9.699   1.980   8.607 -2.3014 -0.2561 -0.7956
  810MOL0     H 9306   9.614   1.764   8.416  0.0692  1.6817 -2.3467
  810MOL0     H 9307   9.544   1.923   8.434  2.4652  1.1233 -0.8210
  810MOL0     H 9308   9.461   1.884   8.657  3.0883  0.1253  1.5696
  810MOL0     H 9309   9.546   1.738   8.684  0.1485 -0.6360 -0.2885
  810MOL0     H 9310   9.213   1.556   8.489  0.4222 -0.2864 -0.0982
  810MOL0     H 9311   8.995   1.469   8.466 -0.4765  0.7437 -0.4708
  810MOL0     H 9312   8.929   1.390   8.608  0.2428 -0.3270 -1.7316
  810MOL0     H 9313   8.871   1.551   8.555 -0.2238  0.6898  1.3319
  810MOL0     H 9314   8.669   1.585   8.628  1.4294  2.0663  1.6319
  810MOL0     H 9315   8.432   1.625   8.648  0.5410  1.5549 -0.4293
  810MOL0     H 9316   8.259   1.776   8.749 -1.6942  1.5977  0.8311
  810MOL0     H 9317   8.192   1.623   8.683  0.3222  0.0091  0.1346
  810MOL0     H 9318   7.997   1.710   8.738  0.9546  2.0730 -0.7524
  810MOL0     H 9319   8.029   1.614   8.882  2.0920 -0.1606  0.8207
  810MOL0     H 9320   8.060   1.924   8.834  0.3339 -0.9453 -0.4025
  810MOL0     H 9321   8.147   1.860   8.972 -0.4418  1.2293  0.0748
  810MOL0     H 9322   7.919   1.777   9.050  2.0768  0.8782  1.5607
  810MOL0     H 9323   7.942   1.946   9.049  0.1084 -1.5761  1.1994
  810MOL0     H 9324   7.808   1.809   8.799 -0.9404 -0.4658  0.6978
  810MOL0     H 9325   7.840   1.984   8.820  1.7168  1.0966  2.1354
  810MOL0     H 9326   7.664   1.782   8.977 -0.0721  0.0956  1.8605
  810MOL0     H 9327   7.694   1.929   9.043 -1.6560 -0.4226  0.8559
  810MOL0     H 9328   7.559   1.884   8.760  1.7762 -0.3260 -0.1348
  810MOL0     H 9329   7.594   2.033   8.832  1.6407 -1.0845  1.6147
  810MOL0     H 9330   7.345   1.983   8.896  0.6181 -0.4789 -0.0210
  810MOL0     H 9331   7.436   1.960   9.044 -0.0378  1.3191 -0.5607
  810MOL0     H 9332   8.446   1.547   9.068  2.5043  0.7517 -0.2358
  810MOL0     H 9333   8.680   1.495   9.054 -0.1541  1.9826  0.5263
  810MOL0     H 9334   9.121   1.742   8.933 -3.6477  0.1298  0.0495
  810MOL0     H 9335   9.336   1.788   8.818 -0.8203  0.0391  0.1018
  810MOL0     H 9336  11.023   1.938   9.011 -2.2543  2.3255  0.5867
  810MOL0     H 9337  11.227   1.960   9.158  1.2612  2.2697  0.5057
  810MOL0     H 9338  11.498   2.199   9.518  1.1095  0.8300  1.6538
  810MOL0     H 9339  11.708   2.153   9.620  1.1842 -0.5229  0.7289
  810MOL0     H 9340  12.112   1.993   9.536 -0.4048 -1.8584 -0.1327
  810MOL0     H 9341  12.032   1.911   9.407  4.1954 -2.4800  3.7792
  810MOL0     H 9342  12.074   2.224   9.424  1.1399 -1.5672  3.6446
  810MOL0     H 9343  12.037   2.124   9.276 -0.9959  1.0251  1.1144
  810MOL0     H 9344  12.260   2.138   9.239 -0.1837 -0.0474  0.6032
  810MOL0     H 9345  12.274   1.999   9.345  0.3243  0.3334 -1.9514
  810MOL0     H 9346  12.315   2.157   9.532 -2.7922 -0.1330  0.1977
  810MOL0     H 9347  12.308   2.290   9.408  2.3609  0.8320  1.2359
  810MOL0     H 9348  12.692   2.095   9.350 -0.2595 -0.4295  0.6213
  810MOL0     H 9349  11.852   1.974   9.259  0.8486 -2.0469  2.8629
  810MOL0     H 9350  11.626   2.027   9.162 -2.5497  2.4418  0.2522
  811MOL0     O 9351   5.948   4.097  10.725 -1.1712 -0.0924  0.4147
  811MOL0     C 9352   5.966   4.121  10.849 -0.1347 -0.1550  1.3801
  811MOL0     O 9353   5.907   4.216  10.920  0.0992  0.5132  0.0123
  811MOL0     C 9354   5.775   4.254  10.883 -0.1908 -0.0323  0.3229
  811MOL0     C 9355   5.757   4.342  10.771  1.0917 -0.2279  0.4955
  811MOL0     C 9356   5.639   4.418  10.768 -0.6438  0.4172 -0.5269
  811MOL0     C 9357   5.538   4.411  10.870  1.1769 -0.3768 -0.3343
  811MOL0     O 9358   5.420   4.485  10.854  0.0916  0.8715 -0.0370
  811MOL0     C 9359   5.377   4.550  10.976  0.3452 -0.7712  0.2855
  811MOL0     C 9360   5.286   4.666  10.956 -0.1885  0.9587  0.4409
  811MOL0     C 9361   5.159   4.638  10.868 -0.6260 -0.1605  0.1160
  811MOL0     C 9362   5.075   4.766  10.839 -0.1058 -0.1714 -0.4010
  811MOL0     C 9363   4.954   4.751  10.761 -0.1609  0.4801 -0.1012
  811MOL0     C 9364   4.874   4.886  10.752 -0.0791  0.7965 -0.9708
  811MOL0     C 9365   4.719   4.858  10.724  0.0200 -0.2749 -0.4560
  811MOL0     C 9366   4.671   4.816  10.587  0.2644  0.1522 -0.2808
  811MOL0     N 9367   4.747   4.717  10.514  0.0361 -0.8461  0.0335
  811MOL0     C 9368   4.855   4.737  10.429 -0.5795 -0.3925 -0.8508
  811MOL0     C 9369   4.885   4.623  10.368  0.7635  0.8270 -0.0795
  811MOL0     C 9370   4.992   4.592  10.275 -0.7281 -0.1783 -0.2985
  811MOL0     C 9371   5.093   4.492  10.335  0.1808 -0.1206  0.7411
  811MOL0     C 9372   5.198   4.454  10.236 -0.5483  0.0966 -0.8864
  811MOL0     C 9373   5.325   4.396  10.309 -0.2628  0.3392  0.6056
  811MOL0     O 9374   5.394   4.502  10.384 -0.4263  0.7229 -0.3072
  811MOL0     C 9375   5.525   4.524  10.341 -0.7853 -0.2113  0.1171
  811MOL0     C 9376   5.539   4.651  10.269  1.0172  0.0825  0.2222
  811MOL0     C 9377   5.658   4.682  10.205 -0.0371  0.0656 -0.1503
  811MOL0     C 9378   5.663   4.815  10.128  0.4647 -0.9025  0.1794
  811MOL0     C 9379   5.770   4.597  10.210 -1.2774  0.2968  0.5584
  811MOL0     C 9380   5.902   4.644  10.154  0.8453  0.9654 -0.3500
  811MOL0     O 9381   5.975   4.544  10.100  0.3996  0.5833 -0.3045
  811MOL0     C 9382   6.102   4.574  10.055 -0.2478  0.3068  0.1571
  811MOL0     C 9383   6.141   4.690   9.987  0.2967 -0.8170 -1.0746
  811MOL0     C 9384   6.271   4.714   9.951 -0.4698 -0.1680 -0.0309
  811MOL0     C 9385   6.369   4.618   9.975 -0.8584  0.0597  0.3864
  811MOL0     O 9386   6.495   4.654   9.932 -0.3746 -0.7123 -0.3076
  811MOL0     C 9387   6.582   4.551   9.892  0.5122 -0.1364 -0.3923
  811MOL0     C 9388   6.696   4.595   9.806  0.3997  0.2732  0.5436
  811MOL0     C 9389   6.819   4.651   9.872 -0.0675 -0.5930 -0.2683
  811MOL0     C 9390   6.904   4.550   9.944 -0.3103 -1.3370  0.2812
  811MOL0     C 9391   7.029   4.606   9.994 -0.2069 -0.5596  0.2055
  811MOL0     C 9392   7.119   4.490  10.059 -0.3837 -0.1012  0.6875
  811MOL0     C 9393   7.264   4.529  10.078 -0.3121  0.3360 -0.2835
  811MOL0     C 9394   7.324   4.449  10.196 -0.3863  0.1266  0.4202
  811MOL0    Cl 9395   7.314   4.276  10.145  0.0702 -0.2511 -0.3306
  811MOL0     C 9396   6.334   4.496  10.036 -1.2541 -0.0082  0.5116
  811MOL0     C 9397   6.206   4.482  10.079 -0.3996 -0.3015 -0.1795
  811MOL0     O 9398   5.940   4.761  10.185 -0.6449 -0.0122 -0.4486
  811MOL0     C 9399   5.752   4.469  10.271  0.0812  0.2469  0.7376
  811MOL0     C 9400   5.632   4.434  10.339  1.1618 -0.6385 -0.3714
  811MOL0     N 9401   4.788   4.536  10.416 -1.3932  0.5067 -0.6296
  811MOL0     N 9402   4.702   4.588  10.493  0.1022 -0.2132 -0.5542
  811MOL0     C 9403   5.560   4.332  10.984 -0.7674  0.3365 -0.0436
  811MOL0     C 9404   5.680   4.259  10.989  1.0378  0.3124 -0.1463
  811MOL0     C 9405   6.078   4.053  10.911 -0.5591 -0.5731  0.5252
  811MOL0     C 9406   6.182   3.988  10.828  0.2053 -0.2255  0.0158
  811MOL0     C 9407   6.299   3.935  10.888  0.3508 -0.2056 -0.8327
  811MOL0     C 9408   6.319   3.953  11.027 -0.1513  0.5491  0.2921
  811MOL0     O 9409   6.448   3.930  11.084  0.0189  0.1265  1.2011
  811MOL0     C 9410   6.560   3.900  10.995 -0.0575 -0.2383  0.5233
  811MOL0     C 9411   6.700   3.905  11.073  0.3230 -0.3327  0.3100
  811MOL0     C 9412   6.807   3.866  10.960 -0.3676 -0.2677 -0.4378
  811MOL0     C 9413   6.944   3.871  11.023  0.3080  1.1188 -0.1833
  811MOL0     C 9414   6.954   3.771  11.132 -0.6567 -0.3374 -0.1168
  811MOL0     C 9415   6.982   3.692  11.219  0.0260 -0.8719 -0.0986
  811MOL0     C 9416   6.209   3.992  11.106  0.1119 -0.0864  0.4365
  811MOL0     C 9417   6.093   4.047  11.051 -0.0541 -0.0442  0.2241
  811MOL0     H 9418   5.829   4.341  10.691  0.2343 -1.5701 -0.2983
  811MOL0     H 9419   5.627   4.472  10.675 -0.1210 -1.8677 -2.0151
  811MOL0     H 9420   5.333   4.475  11.042 -2.9563  1.4106  0.8220
  811MOL0     H 9421   5.463   4.592  11.029  1.8754 -1.7791 -1.3063
  811MOL0     H 9422   5.260   4.714  11.051  0.3537 -1.0028  1.6412
  811MOL0     H 9423   5.351   4.732  10.899  0.1173  0.1307 -0.1963
  811MOL0     H 9424   5.177   4.599  10.767 -0.1551 -0.4128  0.2950
  811MOL0     H 9425   5.105   4.568  10.932  0.1632  0.6937  1.7795
  811MOL0     H 9426   5.062   4.804  10.940  1.9285  1.6914 -0.7674
  811MOL0     H 9427   5.136   4.842  10.789 -1.3506 -1.5066 -4.3523
  811MOL0     H 9428   4.963   4.702  10.664 -0.7944 -0.4599  0.3059
  811MOL0     H 9429   4.889   4.683  10.816 -1.4085  1.2341 -0.6028
  811MOL0     H 9430   4.877   4.935  10.849  0.5737 -0.6402 -0.2375
  811MOL0     H 9431   4.906   4.964  10.683 -1.6538  2.2792 -0.1072
  811MOL0     H 9432   4.690   4.786  10.801 -0.3885  1.9159  1.5357
  811MOL0     H 9433   4.668   4.950  10.755  1.5157  0.5785 -0.4443
  811MOL0     H 9434   4.674   4.903  10.520  0.5429 -0.8676 -1.6430
  811MOL0     H 9435   4.568   4.782  10.600  0.8874 -1.6867  0.0062
  811MOL0     H 9436   4.913   4.828  10.421  0.9878 -1.2682 -0.0736
  811MOL0     H 9437   4.943   4.545  10.190 -0.5055 -0.6216 -0.1844
  811MOL0     H 9438   5.047   4.677  10.232  1.8246 -1.7217 -0.2744
  811MOL0     H 9439   5.043   4.400  10.365  0.0325 -0.4577 -0.5119
  811MOL0     H 9440   5.118   4.546  10.427 -2.2900  1.5315  0.5484
  811MOL0     H 9441   5.239   4.546  10.194 -0.7246  0.4089 -0.3848
  811MOL0     H 9442   5.155   4.393  10.156 -2.7278 -2.7575  2.1889
  811MOL0     H 9443   5.389   4.352  10.233  0.7735  1.1586  0.9861
  811MOL0     H 9444   5.301   4.307  10.368 -0.2793  1.9803  3.2321
  811MOL0     H 9445   5.455   4.719  10.270  0.5525 -0.4528  1.7938
  811MOL0     H 9446   5.723   4.802  10.038  1.5780 -2.7211  1.1263
  811MOL0     H 9447   5.562   4.849  10.105  0.2127 -2.5371 -1.3031
  811MOL0     H 9448   5.714   4.892  10.188  1.1641 -1.4593  0.3201
  811MOL0     H 9449   6.073   4.774   9.976  0.9218  0.5143  3.2234
  811MOL0     H 9450   6.309   4.805   9.907 -2.3936  0.1691 -1.1087
  811MOL0     H 9451   6.618   4.494   9.978  0.8428 -1.4159 -1.3395
  811MOL0     H 9452   6.519   4.481   9.836 -1.1611 -0.8047  2.1612
  811MOL0     H 9453   6.727   4.509   9.745 -2.1395 -0.5708  0.2926
  811MOL0     H 9454   6.653   4.663   9.732 -0.0199 -3.2686 -2.8262
  811MOL0     H 9455   6.796   4.727   9.947  0.7994  2.2639 -2.6898
  811MOL0     H 9456   6.876   4.691   9.788 -0.1002 -2.8302 -1.4312
  811MOL0     H 9457   6.848   4.500  10.024  3.1211 -1.6768  2.7415
  811MOL0     H 9458   6.926   4.475   9.867  1.5467 -0.0838 -0.4909
  811MOL0     H 9459   7.010   4.684  10.069  2.1938  0.2901  0.0089
  811MOL0     H 9460   7.078   4.655   9.910 -1.8384  1.3284  0.2802
  811MOL0     H 9461   7.078   4.462  10.157 -0.3351  1.0930  1.0728
  811MOL0     H 9462   7.109   4.398  10.002 -0.0160  0.5174 -0.4053
  811MOL0     H 9463   7.266   4.635  10.107  0.3577  0.4832 -0.8340
  811MOL0     H 9464   7.328   4.519   9.990  0.5494 -0.2409  0.4051
  811MOL0     H 9465   7.265   4.455  10.288 -0.4581 -2.4515  0.6060
  811MOL0     H 9466   7.426   4.485  10.214 -0.2901  1.4338 -2.1781
  811MOL0     H 9467   6.408   4.418  10.049 -1.5191 -0.3057  0.2481
  811MOL0     H 9468   6.165   4.394  10.127 -3.0571  1.9695  2.1278
  811MOL0     H 9469   5.823   4.387  10.274 -1.0547 -0.8494 -0.5684
  811MOL0     H 9470   5.607   4.340  10.388 -2.8626  0.0565 -0.7680
  811MOL0     H 9471   5.489   4.320  11.066 -2.2379 -0.0456 -1.3107
  811MOL0     H 9472   5.715   4.204  11.076 -0.3355  0.6102  0.6217
  811MOL0     H 9473   6.174   4.001  10.721  2.0923  0.3741 -0.0912
  811MOL0     H 9474   6.370   3.893  10.818  1.0579 -0.0879 -0.2011
  811MOL0     H 9475   6.554   3.798  10.958  1.8945 -1.0945  2.3701
  811MOL0     H 9476   6.560   3.971  10.912 -0.2892 -0.9787 -0.1171
  811MOL0     H 9477   6.710   3.826  11.149  3.6069 -0.6497 -0.3091
  811MOL0     H 9478   6.728   4.000  11.120  1.5496 -0.8961  0.7504
  811MOL0     H 9479   6.808   3.945  10.885 -2.3663 -1.0805 -1.3911
  811MOL0     H 9480   6.796   3.770  10.908  1.2910 -0.4587 -0.4923
  811MOL0     H 9481   6.962   3.976  11.050  1.4012  0.5384  1.4908
  811MOL0     H 9482   7.033   3.848  10.963 -1.7656 -0.7571 -2.7504
  811MOL0     H 9483   7.004   3.619  11.294  0.1735 -0.0586  0.6683
  811MOL0     H 9484   6.219   4.009  11.213  3.6500 -0.1997  0.2209
  811MOL0     H 9485   6.014   4.083  11.117 -1.5646 -0.6685 -1.1622
  812MOL0     O 9486   4.516   8.572   2.451  0.8681  0.7342 -0.0995
  812MOL0     C 9487   4.548   8.651   2.534 -0.4029 -0.5180 -0.4941
  812MOL0     O 9488   4.672   8.695   2.548 -0.5699 -0.0115 -0.6596
  812MOL0     C 9489   4.753   8.680   2.440  0.0653 -0.6152 -0.1252
  812MOL0     C 9490   4.833   8.786   2.398  1.0892 -0.3176  0.3334
  812MOL0     C 9491   4.924   8.782   2.292 -1.0244  0.0648 -0.5137
  812MOL0     C 9492   4.960   8.657   2.246  0.6624  0.4330 -0.6730
  812MOL0     O 9493   5.059   8.636   2.153 -0.2132 -0.3195 -0.7155
  812MOL0     C 9494   5.010   8.670   2.022 -0.0273 -0.1582  0.1579
  812MOL0     C 9495   5.108   8.656   1.904 -0.5141  0.9632  0.2083
  812MOL0     C 9496   5.217   8.758   1.916 -0.3299  0.6081 -0.1680
  812MOL0     C 9497   5.312   8.713   1.805 -0.0544  0.3902 -0.3022
  812MOL0     C 9498   5.429   8.815   1.778  0.3632  0.2195 -0.7811
  812MOL0     C 9499   5.532   8.765   1.678 -0.4905  0.0980 -0.1242
  812MOL0     C 9500   5.466   8.761   1.537 -0.8526  0.3501 -0.6581
  812MOL0     C 9501   5.579   8.767   1.430  0.2914 -0.1912  0.6368
  812MOL0     N 9502   5.507   8.750   1.298 -1.0144 -0.3232 -0.3369
  812MOL0     C 9503   5.403   8.819   1.247 -0.6289  0.2031 -0.2802
  812MOL0     C 9504   5.373   8.754   1.127 -0.1246 -0.0344 -1.4501
  812MOL0     C 9505   5.255   8.787   1.035  0.1336 -0.4830  0.0897
  812MOL0     C 9506   5.135   8.696   1.058 -0.8364  0.4343  0.6635
  812MOL0     C 9507   5.024   8.749   0.970 -0.3930  0.6303  0.8973
  812MOL0     C 9508   4.900   8.648   0.996 -0.4262 -0.4316 -0.7318
  812MOL0     O 9509   4.813   8.705   1.097 -0.1250 -0.1235 -0.1792
  812MOL0     C 9510   4.705   8.629   1.132  0.4811  0.6788 -0.6035
  812MOL0     C 9511   4.676   8.500   1.107  0.1293 -0.0726 -0.5842
  812MOL0     C 9512   4.562   8.430   1.155 -0.9761 -0.2978  0.0617
  812MOL0     C 9513   4.538   8.291   1.093 -0.2180  0.9117  0.5498
  812MOL0     C 9514   4.478   8.493   1.246 -0.7980  0.0030  0.2323
  812MOL0     C 9515   4.377   8.418   1.321 -0.2796  0.0839  0.3892
  812MOL0     O 9516   4.397   8.286   1.350  0.2567 -0.2425  0.8056
  812MOL0     C 9517   4.281   8.208   1.353  0.1128 -0.0589 -0.4992
  812MOL0     C 9518   4.273   8.120   1.463  0.1305 -0.0985 -0.3240
  812MOL0     C 9519   4.185   8.008   1.454 -1.3373 -0.5138 -0.3447
  812MOL0     C 9520   4.085   7.996   1.347  0.7508  0.4510 -0.2721
  812MOL0     O 9521   3.986   7.902   1.348  0.9118  0.4131 -0.1703
  812MOL0     C 9522   4.026   7.763   1.358  1.1556  0.2806 -0.3424
  812MOL0     C 9523   3.922   7.660   1.298  0.1118  0.1392 -0.1889
  812MOL0     C 9524   3.913   7.696   1.150  0.0471 -0.2973 -0.8355
  812MOL0     C 9525   3.784   7.626   1.089 -0.5238  0.3271 -0.1253
  812MOL0     C 9526   3.773   7.683   0.944 -0.0424  0.4078 -0.2354
  812MOL0     C 9527   3.681   7.594   0.863 -0.0511  0.3820 -0.1195
  812MOL0     C 9528   3.660   7.659   0.718  0.6427 -0.0655 -0.7260
  812MOL0     C 9529   3.790   7.677   0.631 -0.0656 -0.6696 -0.4226
  812MOL0    Cl 9530   3.730   7.740   0.463 -0.6943 -0.4151  0.5036
  812MOL0     C 9531   4.074   8.106   1.265  0.7342 -0.5777  1.3670
  812MOL0     C 9532   4.178   8.204   1.257  0.5272  0.0999 -0.0068
  812MOL0     O 9533   4.283   8.481   1.357 -0.2349 -0.0915  0.6766
  812MOL0     C 9534   4.500   8.631   1.275  0.5267 -0.0680 -0.0355
  812MOL0     C 9535   4.610   8.692   1.210 -0.4732  0.3798 -0.3138
  812MOL0     N 9536   5.451   8.646   1.124 -0.0531  0.8739  0.5465
  812MOL0     N 9537   5.531   8.637   1.225  0.3452  0.1837 -0.7359
  812MOL0     C 9538   4.903   8.541   2.301  0.0079 -0.4214  0.4747
  812MOL0     C 9539   4.797   8.555   2.399  0.0490  0.4393  0.8806
  812MOL0     C 9540   4.445   8.697   2.628 -0.0945 -0.0087 -0.0132
  812MOL0     C 9541   4.309   8.648   2.616 -0.2702  0.1744 -0.1667
  812MOL0     C 9542   4.203   8.697   2.691 -0.0079 -0.4274 -0.4216
  812MOL0     C 9543   4.228   8.798   2.786 -0.3846  0.0149 -0.2814
  812MOL0     O 9544   4.122   8.849   2.860  0.6102 -0.0716 -0.0016
  812MOL0     C 9545   4.134   8.794   2.993 -1.0015 -0.0951 -0.5314
  812MOL0     C 9546   4.022   8.829   3.092  1.0048 -0.3461  0.3226
  812MOL0     C 9547   4.022   8.990   3.123  0.2549  1.0532 -0.7338
  812MOL0     C 9548   3.909   9.069   3.063  0.3006  1.3603  0.0704
  812MOL0     C 9549   3.784   9.039   3.135 -0.5074  0.1145  0.5777
  812MOL0     C 9550   3.677   9.021   3.192  0.3649 -0.5486 -0.1325
  812MOL0     C 9551   4.360   8.847   2.803  0.0371  0.8488  0.2323
  812MOL0     C 9552   4.464   8.792   2.729 -0.3620 -0.0071 -0.2503
  812MOL0     H 9553   4.820   8.879   2.452 -1.4885 -0.6787  0.4335
  812MOL0     H 9554   4.997   8.857   2.262 -0.0003  0.1657  2.0473
  812MOL0     H 9555   4.927   8.603   1.999  0.0101  0.2946 -1.3955
  812MOL0     H 9556   4.978   8.774   2.024 -0.3916 -0.2244 -1.1308
  812MOL0     H 9557   5.145   8.553   1.912 -0.4471  0.9423 -0.3591
  812MOL0     H 9558   5.073   8.669   1.802  0.2503  1.7035  0.0307
  812MOL0     H 9559   5.183   8.856   1.881 -0.3477  0.7825  0.3325
  812MOL0     H 9560   5.264   8.757   2.014  1.3074 -1.4279 -0.9002
  812MOL0     H 9561   5.344   8.612   1.833 -0.6221 -0.5138 -2.7123
  812MOL0     H 9562   5.255   8.710   1.712 -0.4680  3.1745 -0.2263
  812MOL0     H 9563   5.390   8.910   1.741 -0.1142 -0.0088 -0.8748
  812MOL0     H 9564   5.486   8.839   1.869 -2.9053  2.4462  0.8930
  812MOL0     H 9565   5.628   8.818   1.672 -0.6694  0.2559 -2.9891
  812MOL0     H 9566   5.562   8.663   1.702  0.4250  0.4795  0.4161
  812MOL0     H 9567   5.391   8.682   1.530 -0.5910  0.0835 -0.5079
  812MOL0     H 9568   5.406   8.852   1.525  2.2673  2.9102  1.5018
  812MOL0     H 9569   5.653   8.687   1.432  0.8888  0.3100 -0.3734
  812MOL0     H 9570   5.633   8.862   1.421  1.2241 -0.6766  1.0160
  812MOL0     H 9571   5.357   8.903   1.297 -0.9283 -0.0882 -0.0588
  812MOL0     H 9572   5.229   8.893   1.042  0.7695 -0.3080 -0.1277
  812MOL0     H 9573   5.294   8.783   0.933  2.5245 -1.1290  0.9552
  812MOL0     H 9574   5.101   8.687   1.161 -1.6904 -0.6735  0.3027
  812MOL0     H 9575   5.170   8.599   1.023  1.9622  1.5346  0.1160
  812MOL0     H 9576   5.054   8.749   0.865  0.7680  2.0211  1.1958
  812MOL0     H 9577   4.991   8.847   1.007  2.1526  1.4107  1.2740
  812MOL0     H 9578   4.935   8.553   1.036 -0.5868  0.7869  2.6060
  812MOL0     H 9579   4.842   8.644   0.904  0.1691  0.8412 -1.1884
  812MOL0     H 9580   4.745   8.451   1.039 -0.3148 -2.8663  0.8364
  812MOL0     H 9581   4.593   8.286   0.999 -1.6712  2.4139 -0.4455
  812MOL0     H 9582   4.574   8.220   1.168 -0.9550 -1.5236 -1.2858
  812MOL0     H 9583   4.433   8.268   1.072 -0.3463  0.2491  1.8117
  812MOL0     H 9584   4.349   8.116   1.540  0.0640  2.5462 -0.0038
  812MOL0     H 9585   4.191   7.931   1.531 -0.1285  1.5428  1.7558
  812MOL0     H 9586   4.124   7.739   1.316  0.8223  0.1893 -1.0751
  812MOL0     H 9587   4.021   7.746   1.466  0.0042 -0.5395 -0.5019
  812MOL0     H 9588   3.959   7.557   1.305 -1.2165 -0.3253  0.4991
  812MOL0     H 9589   3.822   7.661   1.343 -1.8231  1.2621 -4.1107
  812MOL0     H 9590   3.996   7.656   1.090  0.0460 -0.0143 -1.0255
  812MOL0     H 9591   3.901   7.803   1.136 -0.2124 -0.1989  0.0916
  812MOL0     H 9592   3.800   7.518   1.084 -1.5763  0.1969 -1.4638
  812MOL0     H 9593   3.687   7.645   1.137 -0.5764  2.6712 -1.0024
  812MOL0     H 9594   3.872   7.688   0.899  0.1847 -0.7833  0.0882
  812MOL0     H 9595   3.733   7.785   0.937 -0.8668  0.2496  1.5924
  812MOL0     H 9596   3.718   7.492   0.852  0.8446  0.3072  2.7449
  812MOL0     H 9597   3.581   7.577   0.905 -0.8659 -0.1937 -2.1775
  812MOL0     H 9598   3.601   7.749   0.736 -3.0549 -2.6422  1.6781
  812MOL0     H 9599   3.583   7.597   0.670 -1.9634  0.4026  2.4882
  812MOL0     H 9600   3.856   7.590   0.621  1.7426  0.5114  0.5186
  812MOL0     H 9601   3.839   7.761   0.682 -0.4405 -2.2429  2.7738
  812MOL0     H 9602   3.991   8.115   1.196  2.1516  0.4335 -0.2946
  812MOL0     H 9603   4.154   8.278   1.182 -1.7928  0.9545  1.4483
  812MOL0     H 9604   4.429   8.685   1.336 -0.9034 -0.4763 -1.2864
  812MOL0     H 9605   4.635   8.793   1.241 -1.8308  0.3302  1.0636
  812MOL0     H 9606   4.938   8.443   2.270  0.9606 -0.5770  1.9284
  812MOL0     H 9607   4.751   8.467   2.442  1.0611 -0.5524 -0.0056
  812MOL0     H 9608   4.292   8.580   2.532  0.8295  1.3563 -1.3945
  812MOL0     H 9609   4.105   8.655   2.670  0.5004 -0.9163 -1.9332
  812MOL0     H 9610   4.133   8.686   2.981  3.3119 -0.1604 -2.1694
  812MOL0     H 9611   4.234   8.809   3.037 -1.1802 -1.8747  0.5847
  812MOL0     H 9612   4.044   8.768   3.180 -1.8465 -0.4545  1.0601
  812MOL0     H 9613   3.921   8.802   3.059  1.4371 -1.3890 -0.1836
  812MOL0     H 9614   4.118   9.038   3.101  1.3891  0.0413  1.7144
  812MOL0     H 9615   4.013   9.007   3.231  0.2260  0.5907 -0.6635
  812MOL0     H 9616   3.896   9.030   2.962 -0.6175  2.4902 -0.2702
  812MOL0     H 9617   3.924   9.176   3.053  3.6243  0.9865 -0.1358
  812MOL0     H 9618   3.587   9.007   3.247 -0.1008  1.6235 -0.2291
  812MOL0     H 9619   4.398   8.918   2.875 -0.7166 -0.7924  2.3650
  812MOL0     H 9620   4.565   8.825   2.751  0.1513 -0.0449 -2.3482
  813MOL0     O 9621  11.224   2.228   4.613 -0.3892  0.8510  0.6479
  813MOL0     C 9622  11.263   2.326   4.673 -0.7409  0.6691 -0.2195
  813MOL0     O 9623  11.185   2.410   4.738  0.0263 -0.5118 -0.4587
  813MOL0     C 9624  11.047   2.412   4.714  0.8487 -0.4286 -0.0490
  813MOL0     C 9625  11.003   2.492   4.605  0.0947 -0.2295  0.0304
  813MOL0     C 9626  10.871   2.483   4.559  0.2871 -0.2179 -0.3580
  813MOL0     C 9627  10.790   2.390   4.619  0.3976  0.0914  0.0350
  813MOL0     O 9628  10.663   2.405   4.571 -0.1641  0.5245 -0.1331
  813MOL0     C 9629  10.552   2.355   4.652  0.0103  0.6113 -0.8468
  813MOL0     C 9630  10.420   2.365   4.580 -0.0506 -0.4915  0.4412
  813MOL0     C 9631  10.301   2.328   4.676 -0.8751 -0.1231 -0.3791
  813MOL0     C 9632  10.163   2.344   4.608 -0.7656  0.3495  0.3772
  813MOL0     C 9633  10.072   2.258   4.689 -0.3762 -0.3591  0.0602
  813MOL0     C 9634   9.923   2.261   4.635 -0.1300 -0.5907  0.3719
  813MOL0     C 9635   9.847   2.380   4.680 -0.6845  0.0217  0.0006
  813MOL0     C 9636   9.696   2.385   4.626  0.6534  0.7493 -0.3035
  813MOL0     N 9637   9.620   2.494   4.692 -0.2283  0.1462  0.3402
  813MOL0     C 9638   9.483   2.502   4.662 -0.7862 -0.7775 -0.6187
  813MOL0     C 9639   9.449   2.621   4.711  0.1937 -0.2948 -0.0464
  813MOL0     C 9640   9.311   2.691   4.708  0.3655 -0.0440  0.5852
  813MOL0     C 9641   9.285   2.795   4.602  1.1657 -0.8584  0.6053
  813MOL0     C 9642   9.252   2.730   4.463 -0.5765  0.2658 -0.0644
  813MOL0     C 9643   9.201   2.822   4.352 -0.5049  0.6235  1.1642
  813MOL0     O 9644   9.080   2.890   4.383  0.1042 -0.0771 -0.0858
  813MOL0     C 9645   8.962   2.826   4.395  0.1987 -0.6015  0.4366
  813MOL0     C 9646   8.905   2.739   4.302 -0.1064 -1.0765  0.8575
  813MOL0     C 9647   8.778   2.694   4.307 -0.7097 -0.6650 -0.6697
  813MOL0     C 9648   8.729   2.605   4.189  0.0806 -1.0453 -0.6861
  813MOL0     C 9649   8.701   2.726   4.424  0.5793 -0.0586  0.5688
  813MOL0     C 9650   8.565   2.675   4.440  0.3570 -0.3423 -0.4996
  813MOL0     O 9651   8.478   2.759   4.499 -0.3518 -0.3908 -0.2988
  813MOL0     C 9652   8.345   2.739   4.520  0.0993  0.5313 -0.0119
  813MOL0     C 9653   8.288   2.807   4.629  0.6553 -0.3957  0.7769
  813MOL0     C 9654   8.146   2.808   4.636 -0.0477 -0.6652  0.5164
  813MOL0     C 9655   8.066   2.740   4.545  0.6457 -0.1732 -0.6248
  813MOL0     O 9656   7.932   2.743   4.542 -0.3467  0.0708  0.0779
  813MOL0     C 9657   7.864   2.780   4.663  0.3294 -0.0704  1.1709
  813MOL0     C 9658   7.709   2.743   4.630 -0.9927 -0.4080  0.0313
  813MOL0     C 9659   7.621   2.789   4.748 -0.2355 -0.1554  0.1718
  813MOL0     C 9660   7.478   2.759   4.709 -0.2685 -0.2256 -0.4404
  813MOL0     C 9661   7.381   2.794   4.821 -0.1113 -0.0335 -0.7514
  813MOL0     C 9662   7.235   2.756   4.780  0.5332 -0.3946 -0.2625
  813MOL0     C 9663   7.140   2.777   4.905 -0.2519  0.8955 -0.2220
  813MOL0     C 9664   7.147   2.673   5.019 -0.6075  0.0592  0.0234
  813MOL0    Cl 9665   7.109   2.502   4.967 -0.2144 -0.0368  0.2580
  813MOL0     C 9666   8.125   2.673   4.440 -0.1979  0.3860  0.1414
  813MOL0     C 9667   8.262   2.683   4.422  0.1453  0.1799  0.6379
  813MOL0     O 9668   8.531   2.563   4.409 -0.4341 -0.4607  0.4345
  813MOL0     C 9669   8.759   2.819   4.513 -0.7709  0.3266  0.5177
  813MOL0     C 9670   8.880   2.876   4.495  0.4816  0.2041 -0.5484
  813MOL0     N 9671   9.556   2.673   4.781 -0.0920 -0.3264  0.1357
  813MOL0     N 9672   9.663   2.596   4.766  0.2837 -0.2918  0.4404
  813MOL0     C 9673  10.841   2.306   4.720 -0.4046  1.3424 -0.5174
  813MOL0     C 9674  10.968   2.315   4.769 -0.7255  0.0687  0.5868
  813MOL0     C 9675  11.408   2.350   4.691  0.5900 -0.0687  0.8113
  813MOL0     C 9676  11.456   2.458   4.757  1.1211  0.3210  0.6499
  813MOL0     C 9677  11.594   2.475   4.780  0.1495 -0.0983 -0.9086
  813MOL0     C 9678  11.687   2.384   4.728 -0.4060  0.3967 -0.0841
  813MOL0     O 9679  11.827   2.398   4.749 -0.0054  0.0262  0.7770
  813MOL0     C 9680  11.883   2.513   4.814 -0.3135  0.0135  0.3983
  813MOL0     C 9681  12.041   2.525   4.805  0.6524  0.4230 -0.7360
  813MOL0     C 9682  12.100   2.648   4.886 -0.3667  0.5094  0.2590
  813MOL0     C 9683  12.236   2.686   4.821  0.3598 -0.6568  0.1077
  813MOL0     C 9684  12.326   2.578   4.780  0.5346 -0.4172 -0.4086
  813MOL0     C 9685  12.400   2.492   4.741 -0.5341  0.0660  0.2219
  813MOL0     C 9686  11.637   2.283   4.650  0.1975  0.2085 -0.3387
  813MOL0     C 9687  11.497   2.262   4.638 -0.0256  0.2754  0.2461
  813MOL0     H 9688  11.063   2.578   4.574  0.4635  0.4005  2.3317
  813MOL0     H 9689  10.842   2.559   4.487  4.2772  0.8479 -1.0882
  813MOL0     H 9690  10.559   2.248   4.675 -2.8449  0.1231 -1.7727
  813MOL0     H 9691  10.550   2.409   4.747  0.4581 -2.4374  1.0379
  813MOL0     H 9692  10.401   2.469   4.554 -1.3368 -0.4545  1.4206
  813MOL0     H 9693  10.418   2.310   4.486  2.4561  0.2105 -0.0935
  813MOL0     H 9694  10.317   2.229   4.719  0.5259  0.7348  1.1865
  813MOL0     H 9695  10.309   2.401   4.757  2.9564 -1.2452  0.4142
  813MOL0     H 9696  10.134   2.450   4.607 -2.3351 -0.0161  1.7302
  813MOL0     H 9697  10.151   2.299   4.510 -2.5772 -0.9036  1.1095
  813MOL0     H 9698  10.120   2.161   4.684  2.5159  0.9298  0.8521
  813MOL0     H 9699  10.065   2.297   4.791  0.0032  3.3907 -1.1754
  813MOL0     H 9700   9.913   2.252   4.526 -1.0446  2.5026  0.1090
  813MOL0     H 9701   9.879   2.169   4.674 -0.8901  0.5550  2.3621
  813MOL0     H 9702   9.847   2.384   4.790  1.1403  0.0240  0.0296
  813MOL0     H 9703   9.904   2.469   4.652  2.0885 -0.4791  3.3146
  813MOL0     H 9704   9.648   2.291   4.656  2.7956  0.1166  1.4128
  813MOL0     H 9705   9.709   2.401   4.519  0.0652  0.6508 -0.3958
  813MOL0     H 9706   9.428   2.425   4.609  0.4114 -0.0804 -3.0109
  813MOL0     H 9707   9.239   2.610   4.694  3.3865 -2.4299 -3.6273
  813MOL0     H 9708   9.290   2.733   4.807  2.8038  2.6126  0.1339
  813MOL0     H 9709   9.371   2.861   4.597  0.3757  0.1169 -2.4446
  813MOL0     H 9710   9.196   2.851   4.634 -0.9310 -2.3433 -2.1716
  813MOL0     H 9711   9.177   2.650   4.474  1.8091 -1.8461  2.6034
  813MOL0     H 9712   9.345   2.681   4.434  0.0594  0.4972  1.5214
  813MOL0     H 9713   9.185   2.775   4.254  2.6395  4.4010 -1.5132
  813MOL0     H 9714   9.280   2.894   4.329 -0.3932 -0.2612 -1.5715
  813MOL0     H 9715   8.964   2.717   4.214 -0.4903  2.6126 -0.4751
  813MOL0     H 9716   8.623   2.613   4.164  0.9407 -0.6987 -4.9599
  813MOL0     H 9717   8.767   2.639   4.092 -0.7343 -1.5957 -1.2143
  813MOL0     H 9718   8.756   2.503   4.218 -2.7296 -1.7722 -0.3330
  813MOL0     H 9719   8.351   2.869   4.691  5.4342 -2.7728 -1.1359
  813MOL0     H 9720   8.112   2.876   4.714  2.6430  1.6742 -0.1686
  813MOL0     H 9721   7.901   2.715   4.743  2.2469 -0.7796 -0.2289
  813MOL0     H 9722   7.875   2.887   4.687  0.3125 -0.6504  4.1656
  813MOL0     H 9723   7.669   2.794   4.543 -1.7168 -0.6624  0.2071
  813MOL0     H 9724   7.709   2.635   4.613  1.3770 -1.1924  3.6347
  813MOL0     H 9725   7.638   2.896   4.762  0.2662 -0.3282  0.9806
  813MOL0     H 9726   7.670   2.740   4.833  0.8295  1.2488  0.4184
  813MOL0     H 9727   7.451   2.817   4.621 -1.8324  1.5080  1.1021
  813MOL0     H 9728   7.467   2.655   4.675 -2.1411  0.0894 -0.8996
  813MOL0     H 9729   7.387   2.902   4.836 -0.9853  0.0698 -1.1246
  813MOL0     H 9730   7.423   2.741   4.907  3.4535  2.0355 -0.9818
  813MOL0     H 9731   7.192   2.814   4.698  1.4533 -0.4401 -0.7923
  813MOL0     H 9732   7.231   2.648   4.759 -2.8166 -0.0852 -2.0144
  813MOL0     H 9733   7.037   2.770   4.871 -0.7107 -1.7512  1.4482
  813MOL0     H 9734   7.159   2.879   4.942  3.0642  0.3038 -0.0040
  813MOL0     H 9735   7.092   2.701   5.109  3.4897 -0.4795  2.9562
  813MOL0     H 9736   7.254   2.665   5.042  0.8426 -3.3705 -5.7246
  813MOL0     H 9737   8.053   2.618   4.379 -1.3427  0.6322  1.2334
  813MOL0     H 9738   8.306   2.649   4.329  2.2487 -0.3924  1.7791
  813MOL0     H 9739   8.694   2.860   4.590  1.7889  1.3925  2.2268
  813MOL0     H 9740   8.925   2.944   4.567 -0.5745 -0.7360  1.0700
  813MOL0     H 9741  10.775   2.226   4.753 -0.8517  1.5585 -0.8735
  813MOL0     H 9742  11.006   2.245   4.843 -1.7615 -0.1039  0.9764
  813MOL0     H 9743  11.385   2.532   4.795 -0.6646 -0.1474 -1.5474
  813MOL0     H 9744  11.618   2.562   4.840  2.3159 -0.4130 -1.2251
  813MOL0     H 9745  11.847   2.606   4.770  2.5236  1.1845  0.3695
  813MOL0     H 9746  11.860   2.509   4.921  0.3267  2.7706  0.7129
  813MOL0     H 9747  12.068   2.548   4.701  1.7331  1.0725 -0.3291
  813MOL0     H 9748  12.084   2.431   4.840  0.2101 -1.1470 -4.0249
  813MOL0     H 9749  12.116   2.624   4.992  1.5317  1.4820  0.2242
  813MOL0     H 9750  12.032   2.734   4.879 -0.2583  0.5009 -1.0377
  813MOL0     H 9751  12.292   2.748   4.891 -2.2110 -0.0040  1.7255
  813MOL0     H 9752  12.208   2.746   4.733  1.5869  0.2738  0.3306
  813MOL0     H 9753  12.463   2.414   4.702  2.3523  1.6748  1.3929
  813MOL0     H 9754  11.710   2.212   4.612  2.8285  1.2984  2.2174
  813MOL0     H 9755  11.454   2.177   4.587 -2.4943  0.5528  1.6770
  814MOL0     O 9756   4.543   1.737   3.951  0.0487 -0.1107 -0.4766
  814MOL0     C 9757   4.556   1.624   3.907 -0.5891  0.4285  0.0189
  814MOL0     O 9758   4.455   1.528   3.885  0.2657 -0.4961  0.4378
  814MOL0     C 9759   4.324   1.582   3.884 -0.3639 -0.3654  0.4522
  814MOL0     C 9760   4.281   1.616   3.756  0.5182 -0.2669  0.1152
  814MOL0     C 9761   4.147   1.660   3.743 -0.2005 -0.7673  1.1348
  814MOL0     C 9762   4.056   1.661   3.848 -0.1633  0.0501 -0.5467
  814MOL0     O 9763   3.935   1.716   3.821  0.4788  1.2457  0.5881
  814MOL0     C 9764   3.828   1.737   3.926 -0.3781  0.1414  0.7782
  814MOL0     C 9765   3.688   1.753   3.863 -0.0813 -0.4536 -0.0927
  814MOL0     C 9766   3.591   1.852   3.937 -0.1844  0.6796  0.6381
  814MOL0     C 9767   3.464   1.853   3.861 -0.0924  0.3377  0.4992
  814MOL0     C 9768   3.366   1.944   3.932  0.4124 -0.2612 -0.5198
  814MOL0     C 9769   3.230   1.929   3.862 -0.5830 -0.1277  1.1781
  814MOL0     C 9770   3.129   2.034   3.921  0.0511  0.1372  0.7516
  814MOL0     C 9771   3.013   2.059   3.829  0.2028 -0.1875  0.2029
  814MOL0     N 9772   2.950   2.195   3.860 -0.0851  0.6414  0.4705
  814MOL0     C 9773   3.030   2.307   3.856 -0.0970 -0.0348  0.1377
  814MOL0     C 9774   2.945   2.413   3.868 -0.4320  0.5290  0.0197
  814MOL0     C 9775   2.982   2.553   3.862  0.3898  0.5305 -0.2778
  814MOL0     C 9776   3.134   2.573   3.897 -0.3375 -0.0054 -0.7667
  814MOL0     C 9777   3.169   2.723   3.904  0.5266 -0.1182  0.5627
  814MOL0     C 9778   3.300   2.760   3.974  0.0409  0.4796  0.2453
  814MOL0     O 9779   3.414   2.702   3.905 -0.0316 -0.8761  0.7400
  814MOL0     C 9780   3.523   2.785   3.893 -0.7125 -0.4480  0.4347
  814MOL0     C 9781   3.529   2.869   3.786  0.3677  0.4462  0.2316
  814MOL0     C 9782   3.636   2.946   3.751  0.1365  0.0738  0.2652
  814MOL0     C 9783   3.633   3.029   3.626 -0.1094  0.5441  0.3522
  814MOL0     C 9784   3.750   2.940   3.837  0.7719  0.4556  0.4316
  814MOL0     C 9785   3.885   3.012   3.810  0.0330  0.1397  0.0771
  814MOL0     O 9786   3.994   2.964   3.880  0.0186  0.1908  0.0433
  814MOL0     C 9787   4.115   3.026   3.861  0.5122  0.2530 -0.2915
  814MOL0     C 9788   4.133   3.167   3.863 -0.7338 -0.5019 -0.6384
  814MOL0     C 9789   4.268   3.221   3.882  0.9021  0.0327  0.4587
  814MOL0     C 9790   4.380   3.133   3.897 -0.0299  0.1647  0.0116
  814MOL0     O 9791   4.506   3.190   3.911  0.2287  0.0921  0.6258
  814MOL0     C 9792   4.623   3.122   3.861 -1.2565 -0.2490 -0.6920
  814MOL0     C 9793   4.741   3.223   3.879  0.6312  0.6295  0.1920
  814MOL0     C 9794   4.713   3.354   3.807 -0.4132 -0.5392  0.3675
  814MOL0     C 9795   4.688   3.469   3.900 -0.2691 -1.0201  1.1258
  814MOL0     C 9796   4.623   3.589   3.831 -0.0080 -0.5897 -0.4022
  814MOL0     C 9797   4.474   3.563   3.801  0.0252 -0.1418 -0.2214
  814MOL0     C 9798   4.408   3.688   3.750  1.2982  0.4665  0.5995
  814MOL0     C 9799   4.278   3.653   3.686  0.5726 -0.1405  0.0152
  814MOL0    Cl 9800   4.170   3.625   3.825 -0.3787 -0.3414 -0.3767
  814MOL0     C 9801   4.360   2.993   3.882 -1.2455 -1.2929  0.6588
  814MOL0     C 9802   4.225   2.940   3.872 -0.5191  0.0571 -0.4134
  814MOL0     O 9803   3.886   3.108   3.729 -1.6380  0.4455 -0.1620
  814MOL0     C 9804   3.747   2.853   3.954 -0.1438 -0.2123 -0.0199
  814MOL0     C 9805   3.635   2.779   3.981  0.2399 -0.9293 -0.1221
  814MOL0     N 9806   2.813   2.355   3.855  0.3442  0.1443  0.7268
  814MOL0     N 9807   2.827   2.231   3.838 -0.4535  0.1342 -0.5217
  814MOL0     C 9808   4.101   1.626   3.981 -0.0683 -0.0858  0.6672
  814MOL0     C 9809   4.238   1.591   3.993  0.4646 -0.5185  0.4559
  814MOL0     C 9810   4.694   1.581   3.879 -0.3463 -0.8743 -0.1992
  814MOL0     C 9811   4.719   1.451   3.832 -0.8024 -0.3606 -0.0526
  814MOL0     C 9812   4.854   1.417   3.794  0.0552  0.0598  0.2232
  814MOL0     C 9813   4.962   1.509   3.799 -0.0338 -0.6809 -0.4168
  814MOL0     O 9814   5.089   1.478   3.780 -0.2142 -1.2552 -0.2643
  814MOL0     C 9815   5.154   1.437   3.901 -0.2069  0.1247  0.0370
  814MOL0     C 9816   5.256   1.324   3.852 -0.5337 -0.6091 -1.0801
  814MOL0     C 9817   5.366   1.306   3.954 -0.4394  0.1893  0.4945
  814MOL0     C 9818   5.505   1.370   3.931  0.4897 -0.0564 -0.2817
  814MOL0     C 9819   5.577   1.319   3.813 -0.6607 -0.0407 -0.4161
  814MOL0     C 9820   5.641   1.306   3.716 -0.6757  1.0723 -0.3106
  814MOL0     C 9821   4.925   1.642   3.836  0.2248  0.4200 -0.5252
  814MOL0     C 9822   4.796   1.677   3.879 -0.9893 -0.3466  0.1665
  814MOL0     H 9823   4.340   1.618   3.665 -2.8340 -0.4533 -2.2805
  814MOL0     H 9824   4.104   1.678   3.645 -1.6852 -5.5122  0.6679
  814MOL0     H 9825   3.816   1.648   3.988  0.6456 -0.5649 -0.0046
  814MOL0     H 9826   3.849   1.828   3.983 -1.6067  0.5979  0.5326
  814MOL0     H 9827   3.704   1.800   3.766 -3.0565  0.1353 -0.3778
  814MOL0     H 9828   3.639   1.657   3.849  0.0319 -0.5404  0.1089
  814MOL0     H 9829   3.572   1.825   4.042 -1.6161 -2.6223 -0.3389
  814MOL0     H 9830   3.633   1.953   3.936 -0.8707  0.9884 -1.8523
  814MOL0     H 9831   3.478   1.888   3.758 -0.7455  0.0464  0.3032
  814MOL0     H 9832   3.423   1.751   3.865  1.1034 -0.1062  2.2078
  814MOL0     H 9833   3.362   1.935   4.041 -2.7504  2.4242 -0.2496
  814MOL0     H 9834   3.394   2.048   3.909  1.7748 -1.0651 -2.8083
  814MOL0     H 9835   3.235   1.944   3.754 -0.6694 -1.1787  1.0193
  814MOL0     H 9836   3.184   1.834   3.892 -1.9135 -0.0669 -0.5527
  814MOL0     H 9837   3.093   2.009   4.022  1.5223  0.3284  1.3396
  814MOL0     H 9838   3.182   2.128   3.933  0.4233 -0.0768  0.8190
  814MOL0     H 9839   2.946   1.977   3.854 -1.6315  1.1955  0.0163
  814MOL0     H 9840   3.041   2.068   3.724 -0.1530  0.8645  0.1851
  814MOL0     H 9841   3.137   2.314   3.838 -0.6840  3.2283 -3.1494
  814MOL0     H 9842   2.966   2.588   3.760  1.7104 -0.3865 -0.8229
  814MOL0     H 9843   2.917   2.605   3.934  0.1643 -0.6985  0.4320
  814MOL0     H 9844   3.199   2.538   3.816  2.1869  0.9729  0.7199
  814MOL0     H 9845   3.164   2.531   3.993 -0.6735 -1.2367 -1.1835
  814MOL0     H 9846   3.092   2.777   3.960  0.5513  1.5617 -0.9306
  814MOL0     H 9847   3.174   2.765   3.804  1.1294 -1.9370 -0.2133
  814MOL0     H 9848   3.297   2.710   4.071 -3.5120  2.9598  1.6452
  814MOL0     H 9849   3.308   2.868   3.991  0.0312  0.6341 -0.6765
  814MOL0     H 9850   3.444   2.866   3.718 -0.4872  2.0563  1.1696
  814MOL0     H 9851   3.543   3.010   3.567  0.4509  2.5891 -1.2634
  814MOL0     H 9852   3.632   3.138   3.639 -1.7605  0.4267  1.5570
  814MOL0     H 9853   3.726   3.019   3.569 -1.0579 -0.2401 -1.0869
  814MOL0     H 9854   4.047   3.230   3.883  0.9343  1.2849  1.4718
  814MOL0     H 9855   4.263   3.330   3.882  1.2167  0.2348 -4.4050
  814MOL0     H 9856   4.641   3.028   3.914 -0.3521 -1.3335 -2.8118
  814MOL0     H 9857   4.619   3.102   3.753  0.2794 -0.0626 -0.7990
  814MOL0     H 9858   4.759   3.235   3.986 -0.8860 -1.9951  0.8380
  814MOL0     H 9859   4.834   3.174   3.847 -1.3205 -3.2574 -0.0656
  814MOL0     H 9860   4.639   3.340   3.727 -0.3282 -1.1128  0.3789
  814MOL0     H 9861   4.806   3.371   3.750 -1.1441  0.1239 -0.6576
  814MOL0     H 9862   4.633   3.447   3.992 -0.1211 -0.4766  1.3514
  814MOL0     H 9863   4.786   3.501   3.935  0.4991 -1.6223 -0.4137
  814MOL0     H 9864   4.682   3.607   3.741  5.2004 -0.3831  2.6723
  814MOL0     H 9865   4.637   3.674   3.899  0.7470  1.3092 -2.7702
  814MOL0     H 9866   4.470   3.480   3.730  2.6006  0.7280 -1.5240
  814MOL0     H 9867   4.429   3.538   3.897  4.2607 -0.3818  1.8989
  814MOL0     H 9868   4.460   3.732   3.665 -1.3407  1.6480 -0.5337
  814MOL0     H 9869   4.393   3.760   3.831  0.8956 -0.5701  1.4649
  814MOL0     H 9870   4.291   3.562   3.628  2.1360  0.1525 -0.1241
  814MOL0     H 9871   4.238   3.736   3.627 -1.2963 -0.9903  0.0239
  814MOL0     H 9872   4.440   2.921   3.896 -2.2333 -2.2658  1.5826
  814MOL0     H 9873   4.206   2.833   3.863 -1.7227  0.2371 -0.1320
  814MOL0     H 9874   3.827   2.837   4.026 -0.7501 -2.1590  0.2952
  814MOL0     H 9875   3.634   2.709   4.064  1.3839 -1.0940 -0.2238
  814MOL0     H 9876   4.037   1.639   4.068  0.0242  3.6746  0.3326
  814MOL0     H 9877   4.281   1.569   4.090  1.9866  1.3821  0.2624
  814MOL0     H 9878   4.645   1.373   3.821 -0.3776 -2.0586  5.6252
  814MOL0     H 9879   4.882   1.313   3.781  1.2000  0.3051  0.5747
  814MOL0     H 9880   5.214   1.516   3.946 -0.5719  0.1375  0.5016
  814MOL0     H 9881   5.083   1.407   3.978  0.8506  1.5131  1.6112
  814MOL0     H 9882   5.306   1.358   3.761 -1.9351 -0.8221 -1.9453
  814MOL0     H 9883   5.198   1.232   3.841  1.2024 -1.6843 -1.5996
  814MOL0     H 9884   5.387   1.200   3.974  1.2969 -0.0008 -1.8344
  814MOL0     H 9885   5.334   1.351   4.049  1.1243  0.9091  0.7097
  814MOL0     H 9886   5.571   1.344   4.015 -0.3990  0.3913  0.5851
  814MOL0     H 9887   5.507   1.479   3.937 -1.4806 -0.0564  2.5398
  814MOL0     H 9888   5.704   1.307   3.629 -1.2329  3.1581 -0.7483
  814MOL0     H 9889   5.000   1.721   3.830 -0.9741  1.5737 -0.8121
  814MOL0     H 9890   4.779   1.778   3.915  1.4147 -0.9250  3.3974
  815MOL0     O 9891   7.132   3.606   6.139  0.3694 -0.1972  0.3217
  815MOL0     C 9892   7.059   3.506   6.123  0.0173 -0.2206 -0.7338
  815MOL0     O 9893   7.036   3.444   5.999  0.2963  0.7153 -0.0223
  815MOL0     C 9894   7.053   3.518   5.890 -0.4978  0.4657 -1.1567
  815MOL0     C 9895   7.113   3.453   5.784  0.0777 -0.1376  0.6604
  815MOL0     C 9896   7.125   3.521   5.657  0.5525 -1.1827  0.0438
  815MOL0     C 9897   7.090   3.655   5.649  0.3640 -0.1466  0.4614
  815MOL0     O 9898   7.122   3.708   5.523 -0.1424 -0.5068 -0.2088
  815MOL0     C 9899   7.087   3.844   5.498 -0.6952 -0.3669 -0.5931
  815MOL0     C 9900   7.117   3.874   5.351  0.4976 -0.6739  0.1420
  815MOL0     C 9901   6.987   3.896   5.274 -0.0491  0.5415  0.5379
  815MOL0     C 9902   7.013   3.891   5.113  0.1617  0.4551 -0.4930
  815MOL0     C 9903   6.886   3.916   5.020 -0.3039 -0.2880  0.3297
  815MOL0     C 9904   6.763   3.820   5.034  0.2204 -0.2487  0.7727
  815MOL0     C 9905   6.802   3.680   4.974 -0.1436  0.2039 -0.3682
  815MOL0     C 9906   6.704   3.565   4.980 -0.7069  0.4906 -0.9118
  815MOL0     N 9907   6.575   3.580   4.924  0.6572 -0.0438  0.6323
  815MOL0     C 9908   6.472   3.646   4.991  0.8433  0.5552 -0.3907
  815MOL0     C 9909   6.358   3.636   4.915  0.3978  0.3708  0.4490
  815MOL0     C 9910   6.242   3.700   4.965  0.0542 -0.2999 -0.2037
  815MOL0     C 9911   6.124   3.609   4.940 -0.1427  0.4372 -0.4430
  815MOL0     C 9912   6.008   3.683   5.008 -0.6652 -0.1031 -0.1671
  815MOL0     C 9913   5.888   3.599   5.009 -0.1707  0.2302 -0.2302
  815MOL0     O 9914   5.783   3.683   5.064 -0.2789  0.2978 -0.0403
  815MOL0     C 9915   5.661   3.637   5.097 -0.4779  0.2532 -0.3535
  815MOL0     C 9916   5.618   3.507   5.083 -0.1096  0.5955  0.3110
  815MOL0     C 9917   5.484   3.472   5.116 -0.4165  0.5185  0.3586
  815MOL0     C 9918   5.446   3.327   5.084  0.1686  0.2074  0.1263
  815MOL0     C 9919   5.387   3.564   5.167  0.1566  0.5555 -0.5604
  815MOL0     C 9920   5.268   3.511   5.228 -0.2692 -0.0339 -0.1059
  815MOL0     O 9921   5.198   3.406   5.180 -0.6618 -0.0194 -0.0421
  815MOL0     C 9922   5.072   3.399   5.236 -0.1551 -0.5877  0.4735
  815MOL0     C 9923   4.960   3.455   5.181  1.2783 -0.5449  0.0208
  815MOL0     C 9924   4.831   3.422   5.237  0.8787  0.5174  0.2937
  815MOL0     C 9925   4.820   3.336   5.348  0.1056  0.3182  0.3553
  815MOL0     O 9926   4.703   3.303   5.413 -0.0242  0.2664  0.3184
  815MOL0     C 9927   4.584   3.334   5.349 -0.2897 -0.5426 -0.0425
  815MOL0     C 9928   4.466   3.259   5.407  0.1608  0.8976 -0.6709
  815MOL0     C 9929   4.324   3.294   5.368  0.4421 -0.0140  1.2331
  815MOL0     C 9930   4.231   3.179   5.417 -0.2911  0.1054 -0.4819
  815MOL0     C 9931   4.097   3.173   5.335  0.0125 -0.9870 -0.4659
  815MOL0     C 9932   4.007   3.065   5.381 -0.0470 -0.0929  0.5553
  815MOL0     C 9933   3.863   3.058   5.311 -0.2976 -0.2419  0.2046
  815MOL0     C 9934   3.795   2.932   5.372  0.2596 -0.2689  0.8635
  815MOL0    Cl 9935   3.620   2.895   5.327 -0.4252  0.0301  0.2089
  815MOL0     C 9936   4.934   3.289   5.402  0.5342  0.2002  0.3890
  815MOL0     C 9937   5.061   3.321   5.350 -0.2113 -0.2976  0.2470
  815MOL0     O 9938   5.239   3.581   5.324 -0.4830  0.6960 -0.3308
  815MOL0     C 9939   5.430   3.697   5.181  0.2839 -0.1788  0.4979
  815MOL0     C 9940   5.565   3.731   5.147 -0.0079 -0.8582 -0.3817
  815MOL0     N 9941   6.391   3.559   4.798 -0.5436  0.1372 -0.3996
  815MOL0     N 9942   6.523   3.538   4.805 -0.2193  0.2523 -0.2776
  815MOL0     C 9943   7.044   3.715   5.763  0.3753 -0.1170 -0.0578
  815MOL0     C 9944   7.017   3.653   5.879 -1.0724  0.1249  0.2271
  815MOL0     C 9945   7.019   3.434   6.238 -0.8961 -0.0836  0.2432
  815MOL0     C 9946   6.907   3.348   6.231 -0.5841 -0.0026 -0.4800
  815MOL0     C 9947   6.854   3.288   6.348 -0.5529 -0.8930  0.1121
  815MOL0     C 9948   6.914   3.314   6.469  0.1472  0.1368  0.2070
  815MOL0     O 9949   6.867   3.236   6.571  0.4508 -0.5038 -0.0960
  815MOL0     C 9950   6.951   3.175   6.666  0.3333 -0.3185 -0.0107
  815MOL0     C 9951   6.862   3.082   6.756 -0.7228  0.8440  0.5022
  815MOL0     C 9952   6.759   3.171   6.830 -0.4132  0.5669 -0.5287
  815MOL0     C 9953   6.694   3.096   6.940 -0.3923 -0.7082 -0.3910
  815MOL0     C 9954   6.614   3.190   7.021  0.4706  0.0467  0.6961
  815MOL0     C 9955   6.526   3.255   7.087  0.1203 -0.4789  0.2481
  815MOL0     C 9956   7.030   3.390   6.474 -0.1678 -0.0347  0.1336
  815MOL0     C 9957   7.078   3.449   6.359 -0.1206 -1.8530 -0.0210
  815MOL0     H 9958   7.120   3.344   5.781  0.7712 -0.0884  0.2604
  815MOL0     H 9959   7.177   3.465   5.579 -0.8953 -3.4383  0.6071
  815MOL0     H 9960   6.980   3.859   5.515 -0.4012  4.5181 -1.6561
  815MOL0     H 9961   7.143   3.918   5.557  0.7321  0.2635 -2.6290
  815MOL0     H 9962   7.169   3.969   5.336 -0.8429 -0.2004 -1.8916
  815MOL0     H 9963   7.167   3.787   5.309  0.0807 -0.3435 -1.0613
  815MOL0     H 9964   6.924   3.814   5.310  2.1245 -0.9125  1.2526
  815MOL0     H 9965   6.959   3.999   5.297  1.2799  1.3470 -1.2229
  815MOL0     H 9966   7.094   3.961   5.088  0.3682  1.4933  2.6351
  815MOL0     H 9967   7.059   3.793   5.104  1.7515  0.9106  1.6862
  815MOL0     H 9968   6.851   4.020   5.028  1.7499  0.4475  0.4211
  815MOL0     H 9969   6.926   3.904   4.919  1.5361  2.0382  0.6808
  815MOL0     H 9970   6.731   3.831   5.138 -2.0029  2.5587 -0.0915
  815MOL0     H 9971   6.673   3.844   4.977  2.9638  0.3573 -3.7983
  815MOL0     H 9972   6.811   3.688   4.866  0.4393 -2.3639 -0.5645
  815MOL0     H 9973   6.896   3.650   5.021 -0.6287  0.5062  0.8335
  815MOL0     H 9974   6.704   3.536   5.086 -1.3306 -1.1414 -1.3232
  815MOL0     H 9975   6.750   3.478   4.933  2.6263  0.9756  1.1456
  815MOL0     H 9976   6.479   3.698   5.086  3.7939 -0.1492 -0.1109
  815MOL0     H 9977   6.254   3.722   5.071 -0.7614 -2.4024  0.3841
  815MOL0     H 9978   6.221   3.795   4.915  1.6081 -0.4610 -1.2346
  815MOL0     H 9979   6.132   3.511   4.988  0.5583  0.6603 -0.0950
  815MOL0     H 9980   6.105   3.591   4.834 -0.7100 -0.0087 -0.2734
  815MOL0     H 9981   5.983   3.774   4.952 -0.3079 -0.7227 -1.3622
  815MOL0     H 9982   6.034   3.711   5.110 -2.8409 -1.9693  0.9805
  815MOL0     H 9983   5.902   3.512   5.074  1.7595 -0.2174 -1.1667
  815MOL0     H 9984   5.868   3.559   4.909  0.7176  0.5277 -0.5399
  815MOL0     H 9985   5.692   3.434   5.052 -0.1113 -1.1117  3.8791
  815MOL0     H 9986   5.538   3.271   5.068  2.8243  3.7955  1.5854
  815MOL0     H 9987   5.397   3.274   5.167  0.9682  1.2425  1.2772
  815MOL0     H 9988   5.383   3.335   4.994  3.4128 -0.2593 -2.3585
  815MOL0     H 9989   4.960   3.516   5.091  1.1391 -3.4550 -2.0905
  815MOL0     H 9990   4.746   3.472   5.191  1.2979  2.3849  1.4223
  815MOL0     H 9991   4.560   3.440   5.353  1.2773 -0.1308 -0.8711
  815MOL0     H 9992   4.598   3.314   5.242 -0.1471  2.2612 -0.6057
  815MOL0     H 9993   4.487   3.155   5.381  2.0160  0.7392  1.2694
  815MOL0     H 9994   4.481   3.273   5.514 -1.1854  0.5543 -0.4168
  815MOL0     H 9995   4.331   3.306   5.260  4.6604  2.1161  1.5235
  815MOL0     H 9996   4.300   3.390   5.414 -0.4548 -0.1935  1.1648
  815MOL0     H 9997   4.289   3.086   5.412 -1.5492 -0.6837 -1.1255
  815MOL0     H 9998   4.217   3.202   5.523  0.8654  3.6296 -0.9764
  815MOL0     H 9999   4.118   3.171   5.228  0.9236 -0.7777 -0.2972
  815MOL0     H10000   4.042   3.267   5.341  1.0614 -0.4438  1.5565
  815MOL0     H10001   4.057   2.971   5.355  1.0996  1.0463 -1.7321
  815MOL0     H10002   3.993   3.064   5.489 -1.0596 -2.7051  0.4623
  815MOL0     H10003   3.872   3.058   5.202 -0.5089  0.4496  0.1807
  815MOL0     H10004   3.803   3.144   5.342 -0.0783  0.0129 -0.0741
  815MOL0     H10005   3.787   2.959   5.478  1.4833 -0.5455  1.0429
  815MOL0     H10006   3.844   2.834   5.361 -0.1309 -0.5201  1.3261
  815MOL0     H10007   4.944   3.224   5.488 -3.3360 -0.6572  0.3785
  815MOL0     H10008   5.141   3.258   5.388 -0.8622 -0.9033  0.6392
  815MOL0     H10009   5.369   3.773   5.229 -0.5297 -1.7632  2.0861
  815MOL0     H10010   5.607   3.829   5.167 -0.8366 -0.3497 -1.0586
  815MOL0     H10011   7.017   3.819   5.743  0.1047 -0.4590 -1.5939
  815MOL0     H10012   6.959   3.700   5.957 -1.7422 -1.0312  0.4506
  815MOL0     H10013   6.854   3.333   6.137 -2.1190 -0.7739  0.4609
  815MOL0     H10014   6.765   3.228   6.331  0.7595 -3.4978  1.6485
  815MOL0     H10015   7.035   3.129   6.613 -0.6859 -0.5558 -1.5063
  815MOL0     H10016   6.989   3.254   6.732  1.3957 -2.8706  2.6131
  815MOL0     H10017   6.934   3.026   6.817 -0.1916  1.4876  0.4688
  815MOL0     H10018   6.814   3.009   6.690  3.4909 -2.0865  0.1813
  815MOL0     H10019   6.685   3.205   6.758  1.4791  3.5985 -1.2301
  815MOL0     H10020   6.809   3.258   6.874 -0.0284 -0.3701  0.9961
  815MOL0     H10021   6.769   3.058   7.010 -1.2018 -0.9143  0.3915
  815MOL0     H10022   6.634   3.009   6.911  2.4137 -2.8983 -0.0778
  815MOL0     H10023   6.461   3.310   7.152  1.7512  1.4773  0.3140
  815MOL0     H10024   7.076   3.425   6.566 -2.1425 -0.0617  1.1890
  815MOL0     H10025   7.167   3.510   6.370 -0.1522 -2.0140  1.1615
  816MOL0     O10026   0.885   6.766   4.328  0.3589  0.4239 -0.0013
  816MOL0     C10027   0.950   6.784   4.222  0.4917  0.4948  0.8448
  816MOL0     O10028   0.891   6.795   4.090  0.4014 -0.3327 -0.2061
  816MOL0     C10029   0.767   6.844   4.056 -0.9365 -0.2378 -0.1829
  816MOL0     C10030   0.681   6.917   4.145 -0.5987  0.8157 -0.4682
  816MOL0     C10031   0.553   6.939   4.112  0.9770  0.8202  0.3893
  816MOL0     C10032   0.513   6.912   3.982  1.1247  0.9991 -1.2449
  816MOL0     O10033   0.379   6.923   3.947  0.0532 -0.0624  0.5940
  816MOL0     C10034   0.338   7.058   3.929  0.1164 -0.4092 -0.5134
  816MOL0     C10035   0.213   7.079   4.007 -0.3071  0.8508 -0.9367
  816MOL0     C10036   0.100   6.995   3.960  0.9085 -0.3034  0.1527
  816MOL0     C10037  -0.026   7.020   4.048 -1.3637  0.8044 -0.0183
  816MOL0     C10038  -0.151   6.941   4.013 -0.6023  0.4918  0.8032
  816MOL0     C10039  -0.253   6.939   4.130  0.2572  1.3550 -0.2222
  816MOL0     C10040  -0.343   6.820   4.108 -0.2472  0.6910 -0.5134
  816MOL0     C10041  -0.409   6.810   3.975  0.1689  0.3646 -0.4181
  816MOL0     N10042  -0.507   6.710   3.990  0.1780  0.3766 -0.6789
  816MOL0     C10043  -0.630   6.741   4.043  0.6545  0.6887  0.0515
  816MOL0     C10044  -0.705   6.629   4.002 -0.7140  0.2568 -1.4179
  816MOL0     C10045  -0.845   6.592   4.030 -0.0795  0.5073 -0.4502
  816MOL0     C10046  -0.949   6.641   3.948 -0.0410  0.3817 -0.0098
  816MOL0     C10047  -0.977   6.541   3.830  0.3589 -0.2265  0.2735
  816MOL0     C10048  -1.104   6.595   3.756  0.5542  0.4435 -0.1324
  816MOL0     O10049  -1.208   6.532   3.839  0.4560 -0.3274 -0.2026
  816MOL0     C10050  -1.339   6.526   3.783  0.6448  0.6372 -0.4635
  816MOL0     C10051  -1.381   6.627   3.695  0.0263  0.0206  0.1617
  816MOL0     C10052  -1.512   6.625   3.646  0.4593 -0.9509  0.4877
  816MOL0     C10053  -1.539   6.729   3.539 -0.6444 -0.2525  0.3273
  816MOL0     C10054  -1.609   6.534   3.695 -0.4017  0.4399 -0.0764
  816MOL0     C10055  -1.750   6.536   3.643 -0.6619 -0.2294 -0.5619
  816MOL0     O10056  -1.827   6.444   3.709  0.3580 -0.7494 -0.8478
  816MOL0     C10057  -1.967   6.451   3.707 -0.1156 -0.0126  1.2189
  816MOL0     C10058  -2.030   6.384   3.812 -0.0777  0.1763 -0.4359
  816MOL0     C10059  -2.162   6.350   3.798  0.4219  0.6905 -0.4905
  816MOL0     C10060  -2.237   6.399   3.688 -0.2705  0.0989 -0.3878
  816MOL0     O10061  -2.366   6.371   3.661  0.4180 -0.2164 -1.0517
  816MOL0     C10062  -2.400   6.232   3.678 -0.2731  0.0671 -0.4598
  816MOL0     C10063  -2.511   6.201   3.587  0.7746 -1.0371  0.2009
  816MOL0     C10064  -2.638   6.281   3.627 -0.9398 -0.3716  0.8028
  816MOL0     C10065  -2.778   6.220   3.579 -0.4384 -0.3039  0.2890
  816MOL0     C10066  -2.775   6.227   3.431  0.6986  0.3029  1.1391
  816MOL0     C10067  -2.917   6.227   3.383  0.2051 -0.7589  0.7747
  816MOL0     C10068  -2.936   6.269   3.237 -0.5258  0.2782  0.7145
  816MOL0     C10069  -3.087   6.274   3.209  0.8967  0.3760  0.3378
  816MOL0    Cl10070  -3.119   6.313   3.039  0.2029  0.0818  0.1805
  816MOL0     C10071  -2.173   6.467   3.589 -0.2275  0.2485 -0.1124
  816MOL0     C10072  -2.045   6.502   3.604  0.2875  0.3018 -0.1820
  816MOL0     O10073  -1.782   6.611   3.553  0.3579  0.4256  1.1037
  816MOL0     C10074  -1.562   6.441   3.787 -0.5169  0.1245 -0.1716
  816MOL0     C10075  -1.431   6.441   3.834  0.8225  0.7612  0.5622
  816MOL0     N10076  -0.620   6.539   3.937  0.7114  0.4061  0.2063
  816MOL0     N10077  -0.500   6.589   3.927  0.3117 -0.5089  0.0508
  816MOL0     C10078   0.592   6.841   3.893 -0.0036 -0.1254 -0.1421
  816MOL0     C10079   0.724   6.808   3.924 -0.0797 -0.7263  0.5390
  816MOL0     C10080   1.095   6.758   4.223  0.5472  0.2040 -0.3342
  816MOL0     C10081   1.161   6.746   4.353 -0.0579 -0.0532  0.2191
  816MOL0     C10082   1.296   6.710   4.361 -0.3702 -0.2109 -0.5400
  816MOL0     C10083   1.373   6.696   4.249  0.5467 -0.1231  0.1961
  816MOL0     O10084   1.503   6.682   4.272 -0.1472 -0.4803 -0.1327
  816MOL0     C10085   1.584   6.640   4.157  0.7137 -0.7016 -0.5650
  816MOL0     C10086   1.726   6.612   4.198  0.2852 -0.1799  0.3932
  816MOL0     C10087   1.802   6.525   4.097 -0.0573  0.6155  0.0266
  816MOL0     C10088   1.963   6.508   4.115  1.1587 -0.1827 -0.0783
  816MOL0     C10089   2.029   6.632   4.115 -0.8944 -0.8363  0.3990
  816MOL0     C10090   2.098   6.735   4.110  0.9479 -0.6916  0.5640
  816MOL0     C10091   1.308   6.723   4.118 -0.8742  0.6321  0.5485
  816MOL0     C10092   1.169   6.749   4.106  0.1536 -0.3367  0.1351
  816MOL0     H10093   0.725   6.950   4.238 -2.4978  0.2219  0.7022
  816MOL0     H10094   0.484   6.969   4.190 -1.0031 -0.7156 -0.6935
  816MOL0     H10095   0.405   7.138   3.964 -1.9344  1.2984 -0.2206
  816MOL0     H10096   0.317   7.068   3.822  0.7254 -1.8987 -0.7898
  816MOL0     H10097   0.226   7.059   4.114  2.3857  2.2564 -0.9179
  816MOL0     H10098   0.196   7.186   3.994 -0.7106  0.6460 -2.1148
  816MOL0     H10099   0.081   7.013   3.853 -2.5773  1.3972  0.9068
  816MOL0     H10100   0.128   6.890   3.974 -0.0294 -0.2271  3.2044
  816MOL0     H10101   0.006   6.993   4.149 -3.1738  0.0422  0.3881
  816MOL0     H10102  -0.047   7.127   4.045  0.1146  1.1320 -3.2792
  816MOL0     H10103  -0.187   6.982   3.919  1.0528  0.4778  0.1342
  816MOL0     H10104  -0.112   6.842   3.988  0.0827  0.7792  0.7356
  816MOL0     H10105  -0.212   6.924   4.230 -1.1615 -1.1545  0.0608
  816MOL0     H10106  -0.322   7.024   4.124 -1.5363  0.1017  1.4694
  816MOL0     H10107  -0.294   6.722   4.108  0.8485  1.1744  1.9145
  816MOL0     H10108  -0.409   6.814   4.196 -1.0945 -0.3730 -1.1916
  816MOL0     H10109  -0.322   6.781   3.916  1.0433 -1.9338  1.8465
  816MOL0     H10110  -0.458   6.900   3.934  0.1011  1.6700  2.3199
  816MOL0     H10111  -0.664   6.835   4.087 -1.2174  0.2930 -0.4705
  816MOL0     H10112  -0.854   6.483   4.041 -4.4610  0.7148 -0.0049
  816MOL0     H10113  -0.874   6.626   4.130  0.7462  1.2411 -0.4534
  816MOL0     H10114  -0.908   6.730   3.900  1.7351 -1.6767 -2.5750
  816MOL0     H10115  -1.040   6.658   4.006 -1.0286  2.5389 -2.0075
  816MOL0     H10116  -0.989   6.436   3.858 -4.7851 -0.3918 -1.4761
  816MOL0     H10117  -0.894   6.545   3.759  1.9877  1.5574  2.1697
  816MOL0     H10118  -1.097   6.563   3.652  0.3635  0.1504 -0.0543
  816MOL0     H10119  -1.105   6.705   3.757 -1.8089  0.4850 -1.1605
  816MOL0     H10120  -1.315   6.708   3.667 -0.7787  0.9250  0.7941
  816MOL0     H10121  -1.592   6.688   3.452 -1.8438  0.6790  0.6048
  816MOL0     H10122  -1.602   6.810   3.575 -4.0532 -1.5716 -2.0893
  816MOL0     H10123  -1.452   6.782   3.499 -0.5540 -0.5238  0.1601
  816MOL0     H10124  -1.975   6.341   3.895  2.7089  1.7036 -1.3400
  816MOL0     H10125  -2.202   6.275   3.866  2.7268  1.9481  2.5371
  816MOL0     H10126  -2.317   6.166   3.654  0.8289  0.4513  1.9741
  816MOL0     H10127  -2.419   6.207   3.783 -0.4399  0.0061 -0.5051
  816MOL0     H10128  -2.480   6.232   3.487 -1.6353 -0.9450 -0.5704
  816MOL0     H10129  -2.528   6.093   3.594  3.4632 -1.5175  0.3162
  816MOL0     H10130  -2.635   6.380   3.580 -0.7571 -1.5130 -1.7606
  816MOL0     H10131  -2.637   6.284   3.736 -1.2792 -3.2296  0.9506
  816MOL0     H10132  -2.794   6.117   3.612 -1.5718 -0.9778 -2.1586
  816MOL0     H10133  -2.858   6.278   3.628  2.1082  2.4528  1.5792
  816MOL0     H10134  -2.724   6.140   3.390  1.8317  0.8935  1.2494
  816MOL0     H10135  -2.708   6.304   3.391 -0.9421  0.4001 -1.7058
  816MOL0     H10136  -2.955   6.125   3.390  0.9492 -0.9355  3.0106
  816MOL0     H10137  -2.985   6.287   3.443 -1.0594 -0.4860 -0.8529
  816MOL0     H10138  -2.899   6.198   3.163 -4.9755 -2.8791  1.1042
  816MOL0     H10139  -2.895   6.368   3.213  0.3222 -0.1666  0.2823
  816MOL0     H10140  -3.119   6.361   3.268 -0.6662  1.8434 -2.4635
  816MOL0     H10141  -3.138   6.181   3.236  3.0351 -0.8510  0.3467
  816MOL0     H10142  -2.220   6.494   3.495 -0.2689  1.2585  0.1826
  816MOL0     H10143  -2.000   6.559   3.523 -1.0952  3.1383  0.9063
  816MOL0     H10144  -1.621   6.361   3.829  1.9761 -1.8132 -0.1687
  816MOL0     H10145  -1.398   6.372   3.910  0.3998 -1.0638 -0.8426
  816MOL0     H10146   0.549   6.820   3.796  0.9071  0.0546 -0.5955
  816MOL0     H10147   0.794   6.766   3.852  1.5843 -3.2798  3.3958
  816MOL0     H10148   1.111   6.754   4.449 -1.1795 -0.1649 -0.3385
  816MOL0     H10149   1.344   6.689   4.456 -0.9023 -1.6624 -0.5619
  816MOL0     H10150   1.539   6.543   4.133 -1.0403  0.6145 -3.0620
  816MOL0     H10151   1.581   6.707   4.071  0.2057  0.5175  0.3725
  816MOL0     H10152   1.721   6.561   4.294 -1.2768  1.2110  1.1017
  816MOL0     H10153   1.783   6.702   4.224 -0.1049  0.3662 -0.5675
  816MOL0     H10154   1.786   6.571   4.000  0.8327  0.0551 -0.3987
  816MOL0     H10155   1.760   6.424   4.102 -0.0951  0.6462  0.3401
  816MOL0     H10156   1.998   6.447   4.031 -0.2352  0.2605 -1.0250
  816MOL0     H10157   1.988   6.450   4.205 -0.0031 -1.1011 -0.3110
  816MOL0     H10158   2.155   6.824   4.126 -1.5514  0.8554  1.4797
  816MOL0     H10159   1.370   6.737   4.030  1.3497  1.3844  2.1476
  816MOL0     H10160   1.133   6.756   4.004  0.1804  0.1070  0.1537
  817MOL0     O10161   5.446   8.228   8.249 -0.6049 -0.4908 -0.5144
  817MOL0     C10162   5.490   8.312   8.332 -0.2985 -0.0018 -1.4159
  817MOL0     O10163   5.430   8.419   8.391  0.5002  0.3804 -0.1373
  817MOL0     C10164   5.297   8.451   8.396  0.5733 -0.3268 -0.0739
  817MOL0     C10165   5.249   8.566   8.471  0.0768  0.6705 -0.5334
  817MOL0     C10166   5.117   8.592   8.493 -0.2885  0.2798 -0.2479
  817MOL0     C10167   5.015   8.515   8.440  0.1263 -0.0619  0.7535
  817MOL0     O10168   4.884   8.549   8.445 -0.0137 -0.2667 -0.2350
  817MOL0     C10169   4.847   8.611   8.323 -0.5464  0.2563 -0.3544
  817MOL0     C10170   4.704   8.655   8.335 -0.7650 -0.3750  0.0865
  817MOL0     C10171   4.611   8.536   8.366  0.0252  0.8762  0.1379
  817MOL0     C10172   4.614   8.417   8.268 -0.5284 -0.1393 -0.2681
  817MOL0     C10173   4.539   8.287   8.309  0.0566  0.6005 -0.3787
  817MOL0     C10174   4.567   8.198   8.189 -0.6351  0.4190 -0.0376
  817MOL0     C10175   4.498   8.062   8.225  0.5122 -0.4605  0.0022
  817MOL0     C10176   4.497   7.970   8.102  0.1663  0.3737 -0.2379
  817MOL0     N10177   4.417   8.017   7.983 -0.1951  0.1397 -0.0294
  817MOL0     C10178   4.282   8.014   7.990 -0.4911  0.3626 -0.5042
  817MOL0     C10179   4.229   8.054   7.874 -0.8711 -1.0733 -0.0660
  817MOL0     C10180   4.081   8.044   7.837 -0.1451  0.0626  0.6939
  817MOL0     C10181   4.062   7.905   7.762  0.9493  0.0689  0.4570
  817MOL0     C10182   4.123   7.912   7.619  0.0985 -0.1237  0.0334
  817MOL0     C10183   4.102   7.779   7.548  0.9064 -0.0572  0.2316
  817MOL0     O10184   3.961   7.770   7.519  0.2316 -0.3412  0.0816
  817MOL0     C10185   3.917   7.677   7.431  0.4590 -1.0888  0.0185
  817MOL0     C10186   3.988   7.626   7.324  0.5765  0.0645  1.0888
  817MOL0     C10187   3.925   7.533   7.243  0.5985  0.7750  1.0217
  817MOL0     C10188   4.010   7.465   7.135 -0.1308 -0.7284 -0.8699
  817MOL0     C10189   3.789   7.498   7.268 -0.4340 -0.9851  0.1823
  817MOL0     C10190   3.712   7.407   7.184  0.1682 -1.0162 -0.1697
  817MOL0     O10191   3.576   7.442   7.172  0.0734 -0.3362  0.7904
  817MOL0     C10192   3.481   7.367   7.108 -0.1167 -0.3249 -0.2464
  817MOL0     C10193   3.425   7.420   6.993 -0.6538  0.1571  0.4201
  817MOL0     C10194   3.328   7.355   6.928 -0.3202  0.1617  0.3358
  817MOL0     C10195   3.282   7.232   6.972 -0.1101  0.3001  0.3938
  817MOL0     O10196   3.202   7.156   6.891 -0.3800  0.0253  0.1287
  817MOL0     C10197   3.204   7.170   6.749  0.1494  0.2946  0.7737
  817MOL0     C10198   3.119   7.049   6.701 -0.3160 -0.4612  0.3867
  817MOL0     C10199   3.123   7.037   6.552 -0.1366 -0.4352  0.1307
  817MOL0     C10200   3.258   7.019   6.491  0.4470  0.0639  0.5792
  817MOL0     C10201   3.242   6.998   6.337 -0.3410  0.2509 -0.4245
  817MOL0     C10202   3.381   6.959   6.278 -0.0973  0.1613  0.6049
  817MOL0     C10203   3.465   7.088   6.251  0.6114  0.1452  0.5952
  817MOL0     C10204   3.610   7.047   6.200 -0.4252 -0.1684 -0.3706
  817MOL0    Cl10205   3.705   7.192   6.148 -0.0992  0.3175 -0.3149
  817MOL0     C10206   3.317   7.185   7.095  0.3117 -0.5239 -0.3365
  817MOL0     C10207   3.417   7.250   7.163  0.0007 -0.8259  0.4509
  817MOL0     O10208   3.763   7.307   7.134 -0.2492  0.4583 -0.0975
  817MOL0     C10209   3.727   7.545   7.381 -0.1677 -0.8008 -0.2164
  817MOL0     C10210   3.784   7.644   7.457 -0.0553  0.7084 -0.1432
  817MOL0     N10211   4.338   8.104   7.800 -0.5548  0.7571 -0.1805
  817MOL0     N10212   4.453   8.082   7.866  0.5469 -0.1456  0.2755
  817MOL0     C10213   5.058   8.399   8.374 -0.5592 -0.6458  0.0983
  817MOL0     C10214   5.194   8.371   8.355 -0.3069 -0.0494  0.6400
  817MOL0     C10215   5.635   8.288   8.354 -0.1543  0.2699 -0.2846
  817MOL0     C10216   5.701   8.178   8.302  0.0880  0.0186 -0.0776
  817MOL0     C10217   5.837   8.156   8.325  0.2837 -0.8876  0.3112
  817MOL0     C10218   5.911   8.232   8.415 -0.4319  0.0331  1.2575
  817MOL0     O10219   6.041   8.217   8.450  0.3622 -0.6337  0.1824
  817MOL0     C10220   6.111   8.106   8.387 -0.7100 -0.2643  0.1664
  817MOL0     C10221   6.264   8.123   8.410 -0.2813  0.2571 -0.1145
  817MOL0     C10222   6.303   8.260   8.357  0.6549  0.5689  0.3831
  817MOL0     C10223   6.455   8.290   8.378 -0.0344 -0.1233 -0.3648
  817MOL0     C10224   6.502   8.277   8.521 -0.8998 -0.6631  0.3293
  817MOL0     C10225   6.551   8.261   8.638  0.5287 -0.1681  0.2192
  817MOL0     C10226   5.848   8.341   8.466  0.3871  0.6631  0.1692
  817MOL0     C10227   5.709   8.371   8.448  0.0638  0.4912  0.8527
  817MOL0     H10228   5.319   8.632   8.522  1.1230  0.0973 -1.1918
  817MOL0     H10229   5.102   8.686   8.547 -1.9803 -0.6993  1.1086
  817MOL0     H10230   4.913   8.693   8.295  0.9644 -1.1052 -0.9662
  817MOL0     H10231   4.858   8.545   8.237 -0.5142 -0.0078 -0.1497
  817MOL0     H10232   4.701   8.733   8.412  0.2390  1.2536 -1.4727
  817MOL0     H10233   4.672   8.697   8.239  0.4827 -2.0718 -1.1261
  817MOL0     H10234   4.632   8.501   8.468 -0.8381  0.1722  0.0923
  817MOL0     H10235   4.507   8.571   8.366 -0.1502  0.5421  2.2361
  817MOL0     H10236   4.566   8.459   8.179 -3.4907  0.9089  1.6987
  817MOL0     H10237   4.719   8.398   8.243  0.0809  1.5765  0.8503
  817MOL0     H10238   4.593   8.253   8.398  1.1093  1.1784 -0.7845
  817MOL0     H10239   4.432   8.305   8.325  0.4408  1.6036  1.3617
  817MOL0     H10240   4.528   8.233   8.093  2.8776 -0.6701 -2.0584
  817MOL0     H10241   4.675   8.178   8.185 -0.6423  0.1266  0.9234
  817MOL0     H10242   4.554   8.020   8.309  1.3572 -2.3945 -1.4660
  817MOL0     H10243   4.394   8.078   8.255 -1.9227 -3.9185 -5.2110
  817MOL0     H10244   4.462   7.869   8.127  0.9356  0.0104 -0.5856
  817MOL0     H10245   4.602   7.953   8.077  0.7781 -0.5070  2.5967
  817MOL0     H10246   4.220   7.975   8.069  1.2074  0.7567  1.0948
  817MOL0     H10247   4.029   8.042   7.933 -0.7030 -1.6980  0.4013
  817MOL0     H10248   4.049   8.132   7.781 -0.2178 -0.2201  0.2859
  817MOL0     H10249   3.956   7.878   7.759  1.1345 -1.3000  3.1479
  817MOL0     H10250   4.110   7.824   7.817 -3.5820 -2.1762  1.6273
  817MOL0     H10251   4.229   7.932   7.635  0.3617 -2.5975  2.1168
  817MOL0     H10252   4.077   7.987   7.555 -2.4524 -0.4833  1.3028
  817MOL0     H10253   4.138   7.698   7.612  0.3521  0.4240  1.1768
  817MOL0     H10254   4.156   7.782   7.453 -2.4449  1.0057 -1.7999
  817MOL0     H10255   4.087   7.667   7.306  0.8198 -0.7282  0.6102
  817MOL0     H10256   4.002   7.357   7.151 -0.3499 -0.5034  0.7190
  817MOL0     H10257   3.981   7.500   7.035 -1.5597 -1.9694 -0.9286
  817MOL0     H10258   4.113   7.501   7.142  0.6950 -3.1550  1.9490
  817MOL0     H10259   3.459   7.509   6.941  0.1469 -1.7792 -2.5852
  817MOL0     H10260   3.309   7.385   6.826  1.1550  0.4446  0.1171
  817MOL0     H10261   3.147   7.261   6.730 -1.1032 -0.6958 -0.3665
  817MOL0     H10262   3.310   7.174   6.722  0.6745  1.8707  2.7602
  817MOL0     H10263   3.146   6.956   6.753 -0.3210 -0.0038  1.2255
  817MOL0     H10264   3.018   7.082   6.726  0.6059  1.8993  1.2123
  817MOL0     H10265   3.063   7.115   6.503 -0.1239 -0.5227 -0.0278
  817MOL0     H10266   3.067   6.947   6.525  1.9822 -1.2517 -1.9177
  817MOL0     H10267   3.312   7.114   6.502  1.2651 -0.2524 -0.5534
  817MOL0     H10268   3.304   6.929   6.532  1.6828 -0.1116 -1.0913
  817MOL0     H10269   3.215   7.091   6.286  0.9804  1.1880  0.5343
  817MOL0     H10270   3.161   6.926   6.327 -2.1524  2.4499 -3.1598
  817MOL0     H10271   3.437   6.892   6.343  2.5801  1.7268  0.0576
  817MOL0     H10272   3.355   6.907   6.185 -2.3994  0.0159  1.2550
  817MOL0     H10273   3.466   7.157   6.336 -2.0406  0.5818  0.3524
  817MOL0     H10274   3.421   7.153   6.174  2.9155  2.8645  1.4022
  817MOL0     H10275   3.609   6.975   6.117  0.6660 -4.5156  3.0247
  817MOL0     H10276   3.662   6.994   6.280  3.4914  0.8621 -1.9781
  817MOL0     H10277   3.284   7.094   7.144  1.6845 -0.9862 -0.2360
  817MOL0     H10278   3.432   7.202   7.259 -0.8622  1.2793  1.7106
  817MOL0     H10279   3.626   7.519   7.410 -0.4672 -0.0505 -0.5733
  817MOL0     H10280   3.742   7.682   7.550 -1.8816 -0.8333 -0.2777
  817MOL0     H10281   4.985   8.345   8.315  0.7111 -0.6810 -1.5284
  817MOL0     H10282   5.219   8.277   8.308 -1.9969 -2.3534  4.0087
  817MOL0     H10283   5.653   8.093   8.253 -3.2177 -0.1903  3.1240
  817MOL0     H10284   5.893   8.074   8.281  2.6808 -0.3188  2.1039
  817MOL0     H10285   6.071   8.013   8.428  0.8763 -0.7258  0.7391
  817MOL0     H10286   6.099   8.099   8.278 -2.9817 -1.1247  0.4117
  817MOL0     H10287   6.324   8.052   8.352 -0.9220  1.1024 -1.8953
  817MOL0     H10288   6.286   8.106   8.516  0.8742 -0.5214 -0.4608
  817MOL0     H10289   6.244   8.339   8.403 -1.2351 -0.4794 -0.1074
  817MOL0     H10290   6.278   8.270   8.251 -0.9477 -0.3020  0.6474
  817MOL0     H10291   6.493   8.383   8.334  1.2190 -1.1072 -1.4618
  817MOL0     H10292   6.509   8.213   8.322  1.7371 -1.3476  2.7730
  817MOL0     H10293   6.590   8.232   8.734 -2.0072 -1.8593  0.8146
  817MOL0     H10294   5.919   8.396   8.527  2.6775 -2.3738  0.4801
  817MOL0     H10295   5.665   8.450   8.508  2.0374  0.8713  1.8601
  818MOL0     O10296   6.470   1.324   2.286  0.0846 -0.8010 -0.2938
  818MOL0     C10297   6.527   1.244   2.367  0.1540  0.9288  0.9484
  818MOL0     O10298   6.480   1.104   2.382 -0.2951  0.3392  0.3591
  818MOL0     C10299   6.350   1.086   2.345 -1.0065 -0.0997 -0.3548
  818MOL0     C10300   6.259   1.168   2.402 -0.5484 -0.2416 -0.3988
  818MOL0     C10301   6.128   1.161   2.360 -0.4666 -0.4405 -1.0976
  818MOL0     C10302   6.095   1.078   2.248  0.6325 -0.2197 -0.1256
  818MOL0     O10303   5.955   1.076   2.215  0.1004 -0.1391  0.1581
  818MOL0     C10304   5.907   0.997   2.106 -0.4233  0.1917  0.2247
  818MOL0     C10305   5.770   1.020   2.071  0.6073 -0.9150 -0.2566
  818MOL0     C10306   5.672   1.047   2.193  0.3337 -0.1085 -0.2995
  818MOL0     C10307   5.526   1.072   2.156  0.6162 -0.6130  0.2516
  818MOL0     C10308   5.430   1.133   2.264 -0.9204  0.2200 -0.2808
  818MOL0     C10309   5.401   1.041   2.381  0.6000  1.0611 -0.0097
  818MOL0     C10310   5.289   1.107   2.473  0.4221  0.2246 -0.5609
  818MOL0     C10311   5.267   1.014   2.587 -0.2544 -0.0456  0.0088
  818MOL0     N10312   5.196   0.888   2.559 -0.2762 -0.8620  0.6310
  818MOL0     C10313   5.061   0.874   2.572 -0.2331  0.3763  0.5876
  818MOL0     C10314   5.042   0.751   2.520 -0.2522  0.0015 -0.2365
  818MOL0     C10315   4.902   0.691   2.501  0.1797 -0.9134  0.0732
  818MOL0     C10316   4.895   0.579   2.600  0.3260 -0.5905  0.5543
  818MOL0     C10317   4.753   0.520   2.591 -0.4798 -0.7786 -0.5012
  818MOL0     C10318   4.716   0.430   2.716  0.1325 -0.2446 -0.4105
  818MOL0     O10319   4.598   0.361   2.673 -0.5975  0.2689  0.0846
  818MOL0     C10320   4.501   0.322   2.762 -0.2017 -0.6215  0.5686
  818MOL0     C10321   4.396   0.260   2.702  0.1388 -0.9815 -0.2426
  818MOL0     C10322   4.289   0.221   2.774  0.2835  0.0104 -0.7575
  818MOL0     C10323   4.180   0.161   2.692 -0.5288  0.3885  0.5551
  818MOL0     C10324   4.288   0.223   2.917  0.2349  0.0204 -0.7682
  818MOL0     C10325   4.168   0.204   3.009 -0.6085 -0.0551 -0.0353
  818MOL0     O10326   4.182   0.246   3.134  0.3680 -0.2587  0.2537
  818MOL0     C10327   4.128   0.181   3.244  0.5847  0.5018 -0.1975
  818MOL0     C10328   4.213   0.161   3.354 -0.3453 -0.0905  0.1817
  818MOL0     C10329   4.159   0.113   3.474  0.4753  0.0184 -0.0761
  818MOL0     C10330   4.023   0.069   3.484  1.0153 -0.2355 -0.4186
  818MOL0     O10331   3.955   0.017   3.598  0.4199 -0.4494  0.6534
  818MOL0     C10332   4.018  -0.003   3.727 -0.2681  0.3815  0.4950
  818MOL0     C10333   3.917  -0.059   3.824 -0.0957 -0.1660 -0.0617
  818MOL0     C10334   3.939  -0.008   3.969  0.0018 -0.7498 -0.0035
  818MOL0     C10335   3.840  -0.071   4.069  0.9402  0.1296 -0.1646
  818MOL0     C10336   3.884  -0.218   4.098  0.3317 -0.3297  0.0417
  818MOL0     C10337   3.794  -0.281   4.197 -0.6178 -0.4562 -0.1934
  818MOL0     C10338   3.807  -0.435   4.190 -0.4675 -0.2784  0.1484
  818MOL0     C10339   3.770  -0.512   4.319  0.1228 -0.0502 -0.3843
  818MOL0    Cl10340   3.592  -0.492   4.354 -0.2733 -0.1100  0.2842
  818MOL0     C10341   3.945   0.079   3.364  1.4530 -0.6774 -0.8419
  818MOL0     C10342   3.998   0.129   3.243  1.0885 -0.2057 -0.5041
  818MOL0     O10343   4.063   0.159   2.959  0.0555  0.3544 -0.4297
  818MOL0     C10344   4.397   0.277   2.980 -0.8380  0.0235  0.5288
  818MOL0     C10345   4.506   0.326   2.900  0.6454 -0.1443 -0.0200
  818MOL0     N10346   5.158   0.696   2.470 -0.5144 -0.0414  0.0132
  818MOL0     N10347   5.245   0.776   2.500 -0.9565  0.3552  0.0774
  818MOL0     C10348   6.192   0.988   2.196  0.1555  0.7358 -0.7549
  818MOL0     C10349   6.318   0.996   2.246  0.1171  0.1532  0.0261
  818MOL0     C10350   6.651   1.282   2.432 -0.2106  0.2594  0.7972
  818MOL0     C10351   6.722   1.199   2.507  0.1276 -0.4064  0.0238
  818MOL0     C10352   6.848   1.244   2.558 -0.1980  0.5323  0.0088
  818MOL0     C10353   6.889   1.375   2.538 -0.2214 -0.1104 -0.3291
  818MOL0     O10354   7.012   1.404   2.605  0.5773  0.4223 -0.7342
  818MOL0     C10355   7.048   1.531   2.639 -0.1377 -0.5774  0.7290
  818MOL0     C10356   7.175   1.521   2.726 -0.2178 -0.1219  0.6184
  818MOL0     C10357   7.130   1.484   2.870 -1.0140 -0.5016 -0.0114
  818MOL0     C10358   7.238   1.500   2.969  0.6139  0.0297 -0.6206
  818MOL0     C10359   7.251   1.385   3.059 -0.3352  0.5647 -0.3805
  818MOL0     C10360   7.236   1.288   3.133 -0.4688 -0.4744  0.6248
  818MOL0     C10361   6.824   1.457   2.447 -0.0570  0.3875  0.8033
  818MOL0     C10362   6.709   1.410   2.394  0.2053  0.2507  0.0255
  818MOL0     H10363   6.287   1.241   2.478 -1.1501 -0.5784  0.1542
  818MOL0     H10364   6.053   1.230   2.398  0.6888  0.1274  0.2163
  818MOL0     H10365   5.975   1.016   2.022 -1.5981 -1.3966 -1.1491
  818MOL0     H10366   5.926   0.896   2.143  0.7398  0.4773  0.4422
  818MOL0     H10367   5.777   1.115   2.017 -0.3687  0.5140  1.9438
  818MOL0     H10368   5.721   0.939   2.016  0.1035  0.4442 -1.8974
  818MOL0     H10369   5.682   0.963   2.262  2.6256 -0.5403 -1.0963
  818MOL0     H10370   5.716   1.134   2.243 -0.3129 -1.0285  1.9840
  818MOL0     H10371   5.545   1.149   2.081  4.4436  0.8109  2.3914
  818MOL0     H10372   5.479   0.984   2.111  2.7885 -1.9132  0.3759
  818MOL0     H10373   5.473   1.226   2.301  0.2870 -0.6461  0.5997
  818MOL0     H10374   5.336   1.144   2.209 -1.1838 -1.4365 -0.2154
  818MOL0     H10375   5.352   0.957   2.330  1.4703  2.6547 -3.8184
  818MOL0     H10376   5.494   1.010   2.429  1.2648 -0.2197 -1.9838
  818MOL0     H10377   5.313   1.209   2.506  0.5265  0.1049 -0.2679
  818MOL0     H10378   5.198   1.122   2.414  0.6400  2.0097 -0.5102
  818MOL0     H10379   5.217   1.084   2.654 -0.4195  2.0584 -2.1726
  818MOL0     H10380   5.366   0.993   2.628  0.2829  2.1720 -0.0644
  818MOL0     H10381   4.994   0.951   2.610 -0.6719 -0.4194  1.4716
  818MOL0     H10382   4.828   0.764   2.533  3.3597  2.8568 -0.4041
  818MOL0     H10383   4.891   0.672   2.393 -1.7479 -0.5714  0.1838
  818MOL0     H10384   4.919   0.616   2.700  0.1245 -3.5764  1.8060
  818MOL0     H10385   4.959   0.496   2.568 -1.1240 -0.8743 -1.8970
  818MOL0     H10386   4.751   0.469   2.495 -1.5342 -0.3106 -0.7415
  818MOL0     H10387   4.688   0.608   2.585  3.5234  2.6037  0.4127
  818MOL0     H10388   4.697   0.490   2.806  2.6765  1.2869 -0.8145
  818MOL0     H10389   4.794   0.357   2.737 -1.9721 -2.9495 -1.3275
  818MOL0     H10390   4.399   0.261   2.594  0.4870  3.1694 -0.3575
  818MOL0     H10391   4.175   0.205   2.592 -0.3071 -2.0132 -0.5831
  818MOL0     H10392   4.188   0.054   2.674 -6.7166 -0.4455  0.6923
  818MOL0     H10393   4.080   0.165   2.736 -1.4859  1.9841 -1.5426
  818MOL0     H10394   4.315   0.198   3.347 -0.6612  0.4520 -2.6134
  818MOL0     H10395   4.223   0.109   3.562  0.7051  0.4755 -0.2179
  818MOL0     H10396   4.107  -0.065   3.716 -1.5865 -1.1488 -2.7605
  818MOL0     H10397   4.047   0.094   3.768 -2.7665  0.2895  2.7172
  818MOL0     H10398   3.818  -0.018   3.802  0.0059  0.0558 -0.1088
  818MOL0     H10399   3.916  -0.168   3.823 -1.6672 -0.1855  0.9038
  818MOL0     H10400   3.948   0.101   3.973 -2.2647 -0.3651 -2.6766
  818MOL0     H10401   4.037  -0.041   4.006  0.5488  0.9190  0.1291
  818MOL0     H10402   3.846  -0.008   4.159  2.4614  1.4123 -1.1059
  818MOL0     H10403   3.738  -0.069   4.031  0.7549  2.2181  0.3080
  818MOL0     H10404   3.988  -0.231   4.127  0.0475 -1.6068  0.5599
  818MOL0     H10405   3.869  -0.264   4.000 -2.1121 -0.6628  0.4891
  818MOL0     H10406   3.802  -0.245   4.300  0.8234 -2.1464  0.3440
  818MOL0     H10407   3.692  -0.258   4.166  0.2249  4.1007 -0.1899
  818MOL0     H10408   3.911  -0.466   4.179 -0.4291 -0.7153  1.4881
  818MOL0     H10409   3.758  -0.479   4.103  0.1548  1.0657 -0.9175
  818MOL0     H10410   3.833  -0.478   4.402 -0.2938  0.4718 -0.2704
  818MOL0     H10411   3.789  -0.618   4.301  0.8019  0.0449 -0.2236
  818MOL0     H10412   3.841   0.046   3.366  0.3889  2.0350 -3.4525
  818MOL0     H10413   3.923   0.130   3.165 -0.3868 -0.5035  0.8563
  818MOL0     H10414   4.412   0.286   3.088  0.5478 -1.0349  0.4548
  818MOL0     H10415   4.597   0.367   2.944 -0.3049  1.1238  0.8311
  818MOL0     H10416   6.158   0.918   2.121 -0.5259 -1.1228  1.1850
  818MOL0     H10417   6.403   0.942   2.207  0.9700  1.0832  0.5516
  818MOL0     H10418   6.696   1.094   2.521  0.3667 -0.5978 -0.9415
  818MOL0     H10419   6.909   1.175   2.616  2.3309  1.4448 -1.3690
  818MOL0     H10420   7.083   1.581   2.548  0.0875 -1.2220  0.4485
  818MOL0     H10421   6.962   1.585   2.680  0.0451  1.6114 -1.5575
  818MOL0     H10422   7.227   1.616   2.736 -1.6698  0.5144  3.0705
  818MOL0     H10423   7.235   1.437   2.689 -0.5454 -0.2848  0.4532
  818MOL0     H10424   7.090   1.383   2.884  3.5606 -2.1496  4.3086
  818MOL0     H10425   7.050   1.555   2.891 -0.4676  0.4610 -1.0334
  818MOL0     H10426   7.222   1.588   3.031 -2.1871 -0.2091 -0.8349
  818MOL0     H10427   7.329   1.519   2.912  0.6978  2.2727  0.1686
  818MOL0     H10428   7.223   1.195   3.185  0.2522 -0.6315  0.5401
  818MOL0     H10429   6.866   1.557   2.434  0.2570  0.3834  1.7355
  818MOL0     H10430   6.655   1.466   2.319  0.0259 -0.9887 -0.7875
  819MOL0     O10431   0.961   7.315   9.096  0.3672  0.4583  0.2137
  819MOL0     C10432   1.052   7.263   9.025 -0.0591 -0.1042  0.3615
  819MOL0     O10433   1.037   7.183   8.911 -0.2679  0.3945  0.7864
  819MOL0     C10434   0.906   7.151   8.880  0.3666 -0.2639 -0.2619
  819MOL0     C10435   0.864   7.023   8.902 -0.0400  0.3303  0.4752
  819MOL0     C10436   0.751   6.979   8.833  0.2049 -0.0910 -0.1201
  819MOL0     C10437   0.669   7.062   8.752 -0.1447  0.8636 -0.4916
  819MOL0     O10438   0.562   6.997   8.693  0.4129 -1.4071  0.4026
  819MOL0     C10439   0.519   7.066   8.573 -0.3060  0.2589  0.0123
  819MOL0     C10440   0.417   6.982   8.487 -0.2876 -0.1771  0.0455
  819MOL0     C10441   0.287   6.928   8.552  0.3856 -0.2137 -0.0840
  819MOL0     C10442   0.221   6.839   8.455  0.2898  0.2448  0.3525
  819MOL0     C10443   0.079   6.805   8.490 -0.6604  0.3669 -0.0313
  819MOL0     C10444   0.060   6.708   8.600  0.0253 -0.3367  0.9379
  819MOL0     C10445  -0.085   6.670   8.614 -0.4320  1.0336  0.3764
  819MOL0     C10446  -0.118   6.561   8.714 -0.1941  0.1748  0.0893
  819MOL0     N10447  -0.085   6.612   8.847  0.5512  0.4087 -0.7395
  819MOL0     C10448  -0.174   6.609   8.953  0.5158 -0.0027 -0.6903
  819MOL0     C10449  -0.107   6.583   9.075 -0.7180  0.1248 -0.1043
  819MOL0     C10450  -0.173   6.554   9.207 -0.0852  0.8264 -0.1176
  819MOL0     C10451  -0.318   6.592   9.215  0.5225  0.2420 -0.7235
  819MOL0     C10452  -0.391   6.533   9.337  0.5502  0.5515 -0.0790
  819MOL0     C10453  -0.539   6.561   9.338  0.1888  0.0143  0.9988
  819MOL0     O10454  -0.565   6.695   9.373 -0.9452  0.0783 -0.5115
  819MOL0     C10455  -0.696   6.723   9.388  0.7760 -0.2789 -0.8406
  819MOL0     C10456  -0.770   6.660   9.484 -0.2989  0.0717 -0.3659
  819MOL0     C10457  -0.903   6.695   9.507 -0.0098  0.6597  0.4276
  819MOL0     C10458  -0.961   6.619   9.625 -0.8298  0.6613  0.1431
  819MOL0     C10459  -0.967   6.797   9.433 -0.6614 -0.8728  0.3918
  819MOL0     C10460  -1.102   6.849   9.447 -0.2802  0.9203 -0.1895
  819MOL0     O10461  -1.134   6.954   9.365 -0.0083  0.5249  1.1154
  819MOL0     C10462  -1.253   7.019   9.375  1.4165  0.3737  0.3569
  819MOL0     C10463  -1.278   7.125   9.462  0.5001 -0.5502 -0.6505
  819MOL0     C10464  -1.397   7.206   9.463  0.8055  0.2068 -0.1861
  819MOL0     C10465  -1.503   7.176   9.377 -0.3707  0.5073 -0.1600
  819MOL0     O10466  -1.608   7.260   9.356  0.0613  0.7808 -0.3983
  819MOL0     C10467  -1.715   7.230   9.265  0.5181 -0.0242  0.2325
  819MOL0     C10468  -1.818   7.339   9.305 -0.0405  0.2936  0.0275
  819MOL0     C10469  -1.794   7.481   9.256 -0.9654  0.1880  0.2058
  819MOL0     C10470  -1.908   7.583   9.274  0.3344 -0.0418 -0.4466
  819MOL0     C10471  -2.011   7.570   9.156  0.9320  0.3724 -0.0464
  819MOL0     C10472  -2.159   7.609   9.183 -0.1869 -0.2905 -0.3550
  819MOL0     C10473  -2.182   7.757   9.222  0.7615 -0.8592 -0.0732
  819MOL0     C10474  -2.300   7.809   9.143 -0.4487  0.3787  0.3365
  819MOL0    Cl10475  -2.456   7.732   9.199 -0.0753  0.2604 -0.1148
  819MOL0     C10476  -1.482   7.065   9.293 -0.2258  0.8632  0.0240
  819MOL0     C10477  -1.366   6.983   9.288  0.1460  0.5103 -0.4484
  819MOL0     O10478  -1.181   6.783   9.503  0.3845  0.4281 -0.4101
  819MOL0     C10479  -0.881   6.877   9.346  0.1174  1.0249 -0.0973
  819MOL0     C10480  -0.746   6.834   9.322 -0.6180 -0.2882  0.0838
  819MOL0     N10481   0.023   6.569   9.035 -0.6603  0.4186  0.3318
  819MOL0     N10482   0.036   6.587   8.908 -0.6895 -0.1919 -0.6308
  819MOL0     C10483   0.701   7.204   8.753 -0.0962  0.3902 -0.4270
  819MOL0     C10484   0.814   7.238   8.826 -0.0723 -1.0520  0.5944
  819MOL0     C10485   1.195   7.284   9.080  0.4523  0.5322  0.1815
  819MOL0     C10486   1.299   7.275   8.990 -1.0845 -0.4979  0.5753
  819MOL0     C10487   1.432   7.306   9.028  0.2290 -0.3494  0.7449
  819MOL0     C10488   1.459   7.337   9.155 -0.9066 -0.4344 -0.3740
  819MOL0     O10489   1.593   7.354   9.207  0.1372  0.1626 -0.1369
  819MOL0     C10490   1.623   7.375   9.342 -0.5524 -0.4639 -0.4656
  819MOL0     C10491   1.648   7.520   9.372 -0.5581  0.1027  0.8793
  819MOL0     C10492   1.669   7.556   9.524 -0.1775 -0.2893 -0.3537
  819MOL0     C10493   1.647   7.703   9.562  0.3433 -0.4057 -1.0094
  819MOL0     C10494   1.723   7.716   9.690  0.5952 -0.2116  0.2680
  819MOL0     C10495   1.790   7.731   9.787  0.7990  0.0347 -1.1642
  819MOL0     C10496   1.353   7.353   9.242  0.0664  0.9022  0.0257
  819MOL0     C10497   1.218   7.323   9.204 -0.6681  0.4954  0.0811
  819MOL0     H10498   0.921   6.960   8.969 -1.5318  1.2381  2.6868
  819MOL0     H10499   0.725   6.873   8.828 -3.5177  0.7370 -3.2332
  819MOL0     H10500   0.467   7.158   8.600  0.1751 -0.0564  2.2536
  819MOL0     H10501   0.610   7.081   8.514 -1.1833  2.9834 -0.7790
  819MOL0     H10502   0.387   7.037   8.397 -1.6440  0.9292  1.1298
  819MOL0     H10503   0.477   6.904   8.439 -1.8749 -0.7349 -1.1174
  819MOL0     H10504   0.311   6.869   8.641  0.6486 -1.1414 -0.7565
  819MOL0     H10505   0.224   7.016   8.568  3.8694  2.2054  1.6151
  819MOL0     H10506   0.229   6.868   8.350 -2.2009 -2.2639 -0.6715
  819MOL0     H10507   0.279   6.746   8.451  3.7643  2.2656 -2.3589
  819MOL0     H10508   0.016   6.890   8.516 -3.4811 -1.6681  0.2676
  819MOL0     H10509   0.039   6.757   8.400 -2.0854  1.1200  0.1726
  819MOL0     H10510   0.113   6.612   8.593  1.2883  0.2405  2.1048
  819MOL0     H10511   0.089   6.761   8.691  5.1253  1.6995 -1.4406
  819MOL0     H10512  -0.135   6.764   8.637 -0.8870  1.5106 -2.2428
  819MOL0     H10513  -0.127   6.645   8.516  0.5374 -0.7270  0.3566
  819MOL0     H10514  -0.056   6.476   8.687 -0.3141 -0.0742  0.5807
  819MOL0     H10515  -0.220   6.521   8.718 -0.0589 -0.2117 -0.2676
  819MOL0     H10516  -0.280   6.618   8.932  0.0432 -0.4479  1.2729
  819MOL0     H10517  -0.145   6.451   9.232  0.7674  0.0223 -3.7772
  819MOL0     H10518  -0.120   6.622   9.274  1.5996 -1.1030  0.6374
  819MOL0     H10519  -0.371   6.561   9.125 -0.1240  3.6509 -1.6758
  819MOL0     H10520  -0.327   6.701   9.211  1.7284  0.3430 -1.1936
  819MOL0     H10521  -0.357   6.575   9.432 -2.8456  1.6853  0.8186
  819MOL0     H10522  -0.378   6.425   9.347 -0.1198  0.3302 -1.3602
  819MOL0     H10523  -0.579   6.493   9.413 -1.9233 -0.9192 -0.8614
  819MOL0     H10524  -0.594   6.541   9.246 -2.1513 -0.1805  2.3508
  819MOL0     H10525  -0.709   6.598   9.549  1.9439  0.2324 -2.2008
  819MOL0     H10526  -1.027   6.538   9.590 -1.7771  1.5088 -0.0840
  819MOL0     H10527  -0.881   6.584   9.691 -0.3260  4.3587  1.7237
  819MOL0     H10528  -1.031   6.664   9.697 -0.1919 -0.6608  1.6463
  819MOL0     H10529  -1.196   7.140   9.530  0.4077 -0.2734 -0.6003
  819MOL0     H10530  -1.404   7.298   9.522 -0.2721 -0.3203  0.5560
  819MOL0     H10531  -1.684   7.252   9.163  0.7052 -1.3966 -0.0222
  819MOL0     H10532  -1.757   7.130   9.283 -1.8207  0.9580  0.6630
  819MOL0     H10533  -1.918   7.310   9.269  0.9166 -0.5767 -2.1319
  819MOL0     H10534  -1.838   7.346   9.412 -1.5520 -0.4499 -0.1675
  819MOL0     H10535  -1.752   7.498   9.157 -2.2641  2.2647 -0.0480
  819MOL0     H10536  -1.714   7.518   9.321 -1.0698  2.3265 -0.8104
  819MOL0     H10537  -1.956   7.568   9.372  1.9486 -2.2551  0.0890
  819MOL0     H10538  -1.869   7.685   9.277 -2.7946  1.2790  0.6305
  819MOL0     H10539  -2.019   7.464   9.131  1.3045  0.7397 -1.8972
  819MOL0     H10540  -1.990   7.626   9.064 -0.6762  4.6493  1.9268
  819MOL0     H10541  -2.217   7.575   9.097  1.1443 -1.7669 -0.7181
  819MOL0     H10542  -2.192   7.538   9.259  1.5279 -2.1931 -1.2841
  819MOL0     H10543  -2.092   7.812   9.194 -0.1760  1.1519  0.6878
  819MOL0     H10544  -2.198   7.774   9.328  1.9442  0.7415 -0.1130
  819MOL0     H10545  -2.289   7.774   9.039 -0.7535 -0.2198  0.4975
  819MOL0     H10546  -2.297   7.918   9.145  0.4404  0.3913 -0.7921
  819MOL0     H10547  -1.549   7.030   9.215  0.2081 -0.3422  0.1788
  819MOL0     H10548  -1.348   6.889   9.236  0.8416  0.5587 -0.3010
  819MOL0     H10549  -0.916   6.964   9.291 -0.4776  1.8000  1.4242
  819MOL0     H10550  -0.676   6.880   9.254 -1.2300  0.0600 -0.3199
  819MOL0     H10551   0.636   7.278   8.708 -1.3211 -0.2078  0.3059
  819MOL0     H10552   0.834   7.343   8.806 -3.4457 -0.8522 -2.6443
  819MOL0     H10553   1.291   7.267   8.882  0.0855  0.2753  0.4145
  819MOL0     H10554   1.512   7.291   8.955  0.7986 -3.0920  1.7976
  819MOL0     H10555   1.548   7.343   9.414  0.5269  1.5808  1.7038
  819MOL0     H10556   1.712   7.314   9.361  1.6442  2.9109  1.0501
  819MOL0     H10557   1.570   7.581   9.325 -0.8949 -0.4832  0.6725
  819MOL0     H10558   1.738   7.548   9.317  0.5869 -1.8177  1.6568
  819MOL0     H10559   1.774   7.532   9.540 -0.3706 -1.0336 -0.1632
  819MOL0     H10560   1.604   7.492   9.585  0.3079 -2.9191 -2.3734
  819MOL0     H10561   1.543   7.734   9.575 -0.6712 -1.8239 -4.5504
  819MOL0     H10562   1.695   7.773   9.493  1.3462  1.0145  1.0041
  819MOL0     H10563   1.864   7.759   9.860  0.7042  2.0469 -1.8077
  819MOL0     H10564   1.366   7.396   9.341  0.5128  2.1426 -0.5534
  819MOL0     H10565   1.136   7.351   9.269  1.8082  1.5728  3.0187
  820MOL0     O10566   8.414  10.843   8.389 -0.1068  0.1507  0.9781
  820MOL0     C10567   8.510  10.809   8.313  0.4494  0.1424  0.7650
  820MOL0     O10568   8.504  10.735   8.199 -0.8418 -0.0539 -0.1614
  820MOL0     C10569   8.388  10.683   8.157 -0.3982  0.5600  1.2294
  820MOL0     C10570   8.405  10.572   8.073  0.3733  0.0604  1.1917
  820MOL0     C10571   8.297  10.509   8.006  0.5735 -0.5388  0.5261
  820MOL0     C10572   8.165  10.551   8.014  0.2281 -0.1363  0.6624
  820MOL0     O10573   8.064  10.496   7.937  0.7146  0.4313 -0.5880
  820MOL0     C10574   8.044  10.562   7.810 -0.7310 -0.7158  0.4024
  820MOL0     C10575   8.135  10.505   7.704 -0.0220 -0.4775  0.9287
  820MOL0     C10576   8.067  10.404   7.618  0.2079 -0.3741 -0.3474
  820MOL0     C10577   8.042  10.278   7.697  0.2081  0.1760 -0.4701
  820MOL0     C10578   8.025  10.151   7.613 -0.1402 -0.2761  0.4753
  820MOL0     C10579   7.903  10.149   7.525 -0.2015  0.3650  0.3856
  820MOL0     C10580   7.862  10.005   7.495 -0.6133  0.1415  0.4266
  820MOL0     C10581   7.724   9.994   7.425  0.1703 -0.8286 -0.4798
  820MOL0     N10582   7.586  10.005   7.491  0.0098 -0.3926 -0.3631
  820MOL0     C10583   7.559  10.021   7.622  0.0607 -0.5218 -0.5705
  820MOL0     C10584   7.424  10.038   7.621  0.4208  0.3595  1.3792
  820MOL0     C10585   7.339  10.091   7.729 -0.4559 -0.7477  0.0520
  820MOL0     C10586   7.371  10.087   7.874 -0.6972  1.1822 -0.0217
  820MOL0     C10587   7.321   9.960   7.948 -0.0063 -0.2196  0.3358
  820MOL0     C10588   7.339   9.967   8.099 -0.4220 -0.0386 -0.1152
  820MOL0     O10589   7.217  10.031   8.160  0.1923  0.1598  0.5592
  820MOL0     C10590   7.199  10.032   8.288 -0.4873 -0.1964 -0.8450
  820MOL0     C10591   7.092  10.108   8.342  0.2462  0.9037 -0.2318
  820MOL0     C10592   7.080  10.124   8.484  0.2722  0.0510  0.8765
  820MOL0     C10593   6.957  10.211   8.519  0.3586  0.3549 -0.3017
  820MOL0     C10594   7.177  10.078   8.572  0.0852 -0.8111 -0.4914
  820MOL0     C10595   7.177  10.095   8.718 -0.3958 -0.7469 -0.4699
  820MOL0     O10596   7.062  10.122   8.785 -0.0857 -0.0335 -0.1077
  820MOL0     C10597   7.067  10.160   8.921 -0.7693  0.6086 -0.0781
  820MOL0     C10598   7.113  10.076   9.024  0.5390 -0.5191  0.1662
  820MOL0     C10599   7.092  10.105   9.150 -0.4631 -0.2988 -0.1295
  820MOL0     C10600   7.026  10.232   9.188 -0.2008  0.0138 -0.0491
  820MOL0     O10601   7.023  10.261   9.321 -0.7279  0.1062  0.6262
  820MOL0     C10602   6.896  10.258   9.379  0.0531  0.9975  0.6239
  820MOL0     C10603   6.903  10.263   9.528  0.5267  0.0378  0.0291
  820MOL0     C10604   6.760  10.248   9.593  0.6580  0.7397  0.5715
  820MOL0     C10605   6.710  10.106   9.606  0.8933  0.1601 -0.3999
  820MOL0     C10606   6.561  10.099   9.634  0.2497  1.1658  0.6945
  820MOL0     C10607   6.520  10.127   9.786  0.0729 -0.0458 -0.0277
  820MOL0     C10608   6.371  10.102   9.798  0.0467  0.8091 -0.2568
  820MOL0     C10609   6.295  10.230   9.851 -0.4074  0.6474  0.6379
  820MOL0    Cl10610   6.134  10.251   9.766 -0.0418 -0.7265 -0.4791
  820MOL0     C10611   6.990  10.322   9.088  0.5990 -0.1984  0.0311
  820MOL0     C10612   7.016  10.283   8.955  0.1577  0.2991  0.5752
  820MOL0     O10613   7.279  10.073   8.773 -0.7140 -0.2830 -0.1345
  820MOL0     C10614   7.288  10.011   8.513 -0.2633 -0.8146 -0.6486
  820MOL0     C10615   7.290   9.981   8.383  0.0341  0.0333  1.0225
  820MOL0     N10616   7.369  10.025   7.492 -0.9600  0.0779  0.6891
  820MOL0     N10617   7.469  10.004   7.415 -0.4331 -0.1603  0.3527
  820MOL0     C10618   8.144  10.665   8.101  0.5485  0.3355 -0.3546
  820MOL0     C10619   8.257  10.736   8.161 -0.2804  1.1576 -0.3018
  820MOL0     C10620   8.642  10.821   8.379 -0.0527 -0.1601  0.1594
  820MOL0     C10621   8.753  10.743   8.334  0.4446  0.4069  0.0089
  820MOL0     C10622   8.867  10.752   8.410  0.1936 -1.1700  0.2397
  820MOL0     C10623   8.890  10.846   8.513 -0.2006 -0.3183  0.1031
  820MOL0     O10624   9.019  10.852   8.562  0.0624 -0.6864 -0.2329
  820MOL0     C10625   9.054  10.955   8.653 -0.0686  0.1147  0.3574
  820MOL0     C10626   9.200  10.928   8.696  0.6299 -0.5184  0.0677
  820MOL0     C10627   9.249  11.027   8.802 -0.1565  0.1761  0.5490
  820MOL0     C10628   9.176  11.001   8.930 -0.9101  0.2954 -0.4681
  820MOL0     C10629   9.262  11.063   9.037  0.0734  0.8906  0.8845
  820MOL0     C10630   9.322  11.125   9.125  0.9200 -0.5263 -0.2286
  820MOL0     C10631   8.788  10.933   8.542 -0.5158  0.1854 -0.4989
  820MOL0     C10632   8.654  10.909   8.489 -0.4821 -1.4241  0.0512
  820MOL0     H10633   8.506  10.531   8.074  0.6806  0.8042  1.1047
  820MOL0     H10634   8.316  10.421   7.945  2.8410  0.3098 -0.0896
  820MOL0     H10635   7.943  10.554   7.769 -0.9695 -1.9234  1.1944
  820MOL0     H10636   8.060  10.670   7.809 -2.7567 -0.1712 -4.6221
  820MOL0     H10637   8.176  10.572   7.628  0.9665 -3.2509 -1.1356
  820MOL0     H10638   8.225  10.461   7.747  0.7014  1.2802  1.2757
  820MOL0     H10639   7.975  10.446   7.578  1.5534  2.8622 -0.3238
  820MOL0     H10640   8.124  10.366   7.533 -2.5980 -0.6441 -2.2340
  820MOL0     H10641   8.127  10.256   7.763 -0.1134  0.2068 -0.0425
  820MOL0     H10642   7.957  10.289   7.764 -2.0531  0.3165 -3.1717
  820MOL0     H10643   8.111  10.113   7.558 -0.8891 -1.9796  0.4239
  820MOL0     H10644   8.008  10.074   7.689 -2.2310 -3.0714 -2.5250
  820MOL0     H10645   7.817  10.208   7.556  0.3896  0.5416  1.7497
  820MOL0     H10646   7.933  10.194   7.430 -2.4115 -1.6252 -1.4028
  820MOL0     H10647   7.935   9.956   7.430 -1.9771  0.0334 -1.1026
  820MOL0     H10648   7.844   9.953   7.589  0.4169 -0.4284  0.3221
  820MOL0     H10649   7.727   9.894   7.380  3.2898 -2.0089  1.9766
  820MOL0     H10650   7.718  10.059   7.337  1.9152 -0.2931 -0.2351
  820MOL0     H10651   7.634  10.052   7.694  0.4716 -1.2984 -0.6614
  820MOL0     H10652   7.338  10.198   7.706 -0.3582 -0.2214  2.2621
  820MOL0     H10653   7.237  10.050   7.724  0.1036 -2.5651  2.2059
  820MOL0     H10654   7.318  10.168   7.924 -0.6214 -0.4755  3.0205
  820MOL0     H10655   7.477  10.110   7.884 -1.0075  3.3668 -1.1690
  820MOL0     H10656   7.380   9.882   7.898 -0.1071  0.3542 -0.7023
  820MOL0     H10657   7.216   9.952   7.921 -0.2958 -1.5277  1.7339
  820MOL0     H10658   7.430  10.025   8.117 -0.0901 -0.0596 -1.6008
  820MOL0     H10659   7.346   9.866   8.139 -1.4658 -0.3533 -0.6843
  820MOL0     H10660   7.031  10.148   8.262  0.2170 -2.4292 -2.0331
  820MOL0     H10661   6.988  10.315   8.510 -0.4108  0.4977 -1.5577
  820MOL0     H10662   6.884  10.200   8.438 -2.1704 -2.6429  2.1257
  820MOL0     H10663   6.909  10.190   8.615  0.5890  2.1141  0.2358
  820MOL0     H10664   7.161   9.981   8.999  0.7688 -1.3569  3.3355
  820MOL0     H10665   7.113  10.028   9.223  0.6578 -0.0505 -0.1707
  820MOL0     H10666   6.843  10.343   9.335 -1.8798 -0.8807 -0.9051
  820MOL0     H10667   6.844  10.170   9.339  0.3739  1.2202 -0.3055
  820MOL0     H10668   6.969  10.180   9.556  1.7554  0.7079 -0.7977
  820MOL0     H10669   6.965  10.346   9.562  3.9633 -2.9895  1.7677
  820MOL0     H10670   6.685  10.304   9.538  1.1542 -0.0549 -0.9870
  820MOL0     H10671   6.764  10.285   9.696  0.5049 -2.1528  1.7337
  820MOL0     H10672   6.723  10.055   9.511  0.3427  2.8680 -2.0428
  820MOL0     H10673   6.757  10.047   9.685 -3.7215  1.9567  4.3181
  820MOL0     H10674   6.513  10.004   9.606  1.4255  0.7512  0.0492
  820MOL0     H10675   6.517  10.171   9.565  0.9494  2.2225  1.3250
  820MOL0     H10676   6.570  10.068   9.863 -1.4672  1.1365  1.9827
  820MOL0     H10677   6.560  10.225   9.816  4.6708 -2.2888  2.1796
  820MOL0     H10678   6.358  10.022   9.871 -0.8681  1.8003  0.7019
  820MOL0     H10679   6.335  10.074   9.699  0.7170  0.2077 -0.3417
  820MOL0     H10680   6.347  10.323   9.823 -0.2697  0.1802 -0.7230
  820MOL0     H10681   6.270  10.218   9.957 -3.6465 -2.7095 -0.3072
  820MOL0     H10682   6.955  10.422   9.112  1.6458 -0.3528  2.5790
  820MOL0     H10683   6.994  10.349   8.871 -0.1833 -3.6799 -2.7913
  820MOL0     H10684   7.377   9.998   8.573 -1.4356 -0.5751  1.2140
  820MOL0     H10685   7.383   9.929   8.361  0.9766  1.1303  2.2636
  820MOL0     H10686   8.044  10.706   8.112  0.1885 -0.9086  1.3980
  820MOL0     H10687   8.242  10.814   8.235 -1.1084 -0.5189  1.3912
  820MOL0     H10688   8.747  10.672   8.252  1.1112 -1.1069  1.2196
  820MOL0     H10689   8.953  10.693   8.379  1.1086  1.2135 -2.1444
  820MOL0     H10690   9.036  11.052   8.605 -3.4094 -0.3300  0.4265
  820MOL0     H10691   8.994  10.960   8.745 -0.6938 -1.7098  0.0911
  820MOL0     H10692   9.253  10.930   8.601  0.0326  3.0048 -0.3312
  820MOL0     H10693   9.206  10.829   8.742 -4.4062 -2.0823 -1.9204
  820MOL0     H10694   9.252  11.132   8.771 -1.6337  0.5650  1.6353
  820MOL0     H10695   9.354  10.999   8.815 -0.2032 -2.3264 -2.9470
  820MOL0     H10696   9.179  10.893   8.949  1.5668  0.5259  0.8449
  820MOL0     H10697   9.075  11.044   8.930 -1.1106 -0.1578  0.2554
  820MOL0     H10698   9.390  11.164   9.197  3.4237 -0.5912 -2.3945
  820MOL0     H10699   8.793  11.010   8.618 -1.1341  0.5275 -0.7943
  820MOL0     H10700   8.571  10.965   8.531  0.1156 -0.8253  0.4536
  821MOL0     O10701   3.540  10.049   1.428 -0.6522  0.1902  0.4684
  821MOL0     C10702   3.487   9.941   1.403 -0.1443  0.2531  0.1877
  821MOL0     O10703   3.554   9.821   1.372  0.4943  0.0949  0.6937
  821MOL0     C10704   3.693   9.807   1.376  0.7198 -0.9953 -0.2543
  821MOL0     C10705   3.774   9.908   1.318  0.5292  0.2092 -0.3740
  821MOL0     C10706   3.909   9.884   1.306  0.3275 -0.4704 -0.2448
  821MOL0     C10707   3.970   9.767   1.360 -0.6774  0.6130 -0.7476
  821MOL0     O10708   4.103   9.740   1.326 -0.0492  0.7587 -0.2847
  821MOL0     C10709   4.191   9.689   1.430 -0.3025 -1.3067 -1.0052
  821MOL0     C10710   4.327   9.726   1.376  0.4442  0.6590  0.0652
  821MOL0     C10711   4.435   9.728   1.491 -0.3406  0.8809  0.0618
  821MOL0     C10712   4.489   9.592   1.527  0.7307  0.2246 -1.4021
  821MOL0     C10713   4.628   9.589   1.600 -0.1382 -0.0464  0.1062
  821MOL0     C10714   4.638   9.666   1.729  0.5956 -1.2640  0.2301
  821MOL0     C10715   4.762   9.637   1.815  0.1447 -0.3574  0.7120
  821MOL0     C10716   4.886   9.683   1.743 -0.6456 -0.0815  0.1135
  821MOL0     N10717   5.008   9.677   1.827 -0.7996  0.2852 -0.0595
  821MOL0     C10718   5.127   9.642   1.762  1.4227 -0.0791 -0.0067
  821MOL0     C10719   5.218   9.625   1.868 -0.7208 -0.5760  0.4613
  821MOL0     C10720   5.356   9.583   1.847  0.5764 -1.1835 -0.5003
  821MOL0     C10721   5.455   9.678   1.926 -0.3318  0.0446 -0.2418
  821MOL0     C10722   5.596   9.615   1.940  0.1200  0.0126 -0.0398
  821MOL0     C10723   5.660   9.534   1.829  0.1446 -0.2155  0.7840
  821MOL0     O10724   5.707   9.605   1.716 -0.3202 -0.5692  0.5167
  821MOL0     C10725   5.731   9.533   1.603  0.6086  0.1347  0.8784
  821MOL0     C10726   5.741   9.394   1.592 -0.7902 -0.1116 -0.3668
  821MOL0     C10727   5.777   9.328   1.480  0.1145 -0.4327 -0.3852
  821MOL0     C10728   5.787   9.178   1.484 -0.0758  0.4337  0.3551
  821MOL0     C10729   5.811   9.407   1.363  0.9352  0.2820 -0.5954
  821MOL0     C10730   5.843   9.355   1.225 -0.1559  0.1343  0.9398
  821MOL0     O10731   5.853   9.439   1.125 -0.6041  0.1929 -0.5038
  821MOL0     C10732   5.870   9.396   0.999  0.8916  0.1997 -0.3711
  821MOL0     C10733   5.996   9.389   0.935 -0.0710  0.7703  0.4013
  821MOL0     C10734   6.003   9.361   0.792  0.0802 -0.2352 -0.1523
  821MOL0     C10735   5.883   9.323   0.725 -0.6786  0.3574 -0.4573
  821MOL0     O10736   5.876   9.294   0.590 -0.3916  0.1087  0.4815
  821MOL0     C10737   5.990   9.297   0.503 -0.5270 -0.8187  0.2250
  821MOL0     C10738   5.939   9.320   0.356 -0.2686  0.4390 -0.0093
  821MOL0     C10739   6.007   9.244   0.256 -0.1753  0.3133  0.4767
  821MOL0     C10740   5.936   9.253   0.119 -0.7134  0.0735  0.5913
  821MOL0     C10741   5.996   9.151   0.025  0.3630 -0.8280 -0.3545
  821MOL0     C10742   5.924   9.168  -0.109  0.3117  0.6959  0.0889
  821MOL0     C10743   5.983   9.061  -0.212 -1.3291 -0.0578  0.5149
  821MOL0     C10744   6.111   9.124  -0.273 -0.0811  0.3857  0.0335
  821MOL0    Cl10745   6.053   9.223  -0.410  0.3510 -0.7128  0.4283
  821MOL0     C10746   5.763   9.341   0.797 -0.6175 -1.1851  0.6098
  821MOL0     C10747   5.749   9.374   0.930 -0.0648 -0.7038  0.5449
  821MOL0     O10748   5.865   9.234   1.218  0.5237 -0.1240 -0.0490
  821MOL0     C10749   5.792   9.544   1.374  1.0090 -0.8701 -0.3205
  821MOL0     C10750   5.755   9.612   1.496  0.4807  0.0504 -0.8593
  821MOL0     N10751   5.158   9.651   1.982 -0.5275  0.5727 -0.5435
  821MOL0     N10752   5.039   9.683   1.963  0.1404  0.8474  0.7062
  821MOL0     C10753   3.890   9.668   1.421  0.1394 -0.3047 -0.0585
  821MOL0     C10754   3.751   9.688   1.423 -0.0338  0.5410 -0.0736
  821MOL0     C10755   3.340   9.924   1.401 -0.0381  0.2052  0.5735
  821MOL0     C10756   3.263  10.017   1.469  0.7341 -0.8821 -0.4040
  821MOL0     C10757   3.123  10.008   1.481  0.1627 -0.3634  0.0033
  821MOL0     C10758   3.056   9.892   1.429  0.2822  0.3264 -0.1933
  821MOL0     O10759   2.918   9.880   1.462  0.1869  0.1464 -0.6244
  821MOL0     C10760   2.864   9.761   1.409 -0.1141 -0.3833  0.2048
  821MOL0     C10761   2.711   9.752   1.451 -0.1669  0.0808 -0.2190
  821MOL0     C10762   2.630   9.673   1.346  0.4611  0.5807 -0.3818
  821MOL0     C10763   2.658   9.522   1.327 -0.5240  0.3693  0.0669
  821MOL0     C10764   2.548   9.472   1.247 -0.3533 -0.7879 -0.1837
  821MOL0     C10765   2.451   9.450   1.178 -0.1712  0.1860  0.0965
  821MOL0     C10766   3.138   9.804   1.354 -0.3337 -0.0470 -0.2585
  821MOL0     C10767   3.280   9.819   1.335 -0.1974  0.4205  0.3878
  821MOL0     H10768   3.729   9.996   1.273  0.2554  0.5965  0.6335
  821MOL0     H10769   3.957   9.974   1.269 -3.4809  2.4963  1.3824
  821MOL0     H10770   4.170   9.739   1.525  0.9667  0.9142 -1.7972
  821MOL0     H10771   4.188   9.580   1.431 -1.2484 -1.3297  1.6140
  821MOL0     H10772   4.357   9.647   1.306 -3.0916 -0.0389 -0.8232
  821MOL0     H10773   4.320   9.828   1.337  1.3713  0.0897 -1.6853
  821MOL0     H10774   4.523   9.793   1.480  1.7812 -0.8903  4.2304
  821MOL0     H10775   4.377   9.764   1.577 -1.8822  2.1086 -1.4077
  821MOL0     H10776   4.424   9.528   1.588  0.1966  4.2421  2.8015
  821MOL0     H10777   4.498   9.533   1.435  0.4292  0.0208 -1.3029
  821MOL0     H10778   4.660   9.486   1.616  1.2819  0.5116  1.1083
  821MOL0     H10779   4.696   9.642   1.533 -1.7938  3.8806  1.2357
  821MOL0     H10780   4.627   9.769   1.695  0.3645 -0.7926  1.6622
  821MOL0     H10781   4.556   9.628   1.791 -1.5232 -1.6500 -2.6277
  821MOL0     H10782   4.746   9.691   1.909 -2.6869  0.8108 -0.3213
  821MOL0     H10783   4.768   9.531   1.840  0.1287 -0.4424  0.3648
  821MOL0     H10784   4.884   9.790   1.721  1.2762  0.9507  4.0348
  821MOL0     H10785   4.906   9.636   1.646 -1.6512  3.5144 -2.0088
  821MOL0     H10786   5.120   9.607   1.659 -1.8967 -1.3250  0.4923
  821MOL0     H10787   5.361   9.479   1.880  1.7684 -0.6083  1.2548
  821MOL0     H10788   5.378   9.571   1.741 -1.7325  2.5234 -1.5858
  821MOL0     H10789   5.426   9.687   2.031  2.9375 -2.5797  1.0795
  821MOL0     H10790   5.457   9.771   1.868  0.7902 -0.8218 -1.6541
  821MOL0     H10791   5.604   9.560   2.034 -0.5164  3.8156  2.4547
  821MOL0     H10792   5.669   9.694   1.959 -0.0410 -0.4666  3.0107
  821MOL0     H10793   5.580   9.466   1.800 -0.6948  0.6792  0.9560
  821MOL0     H10794   5.746   9.475   1.862  0.4528 -1.4215 -1.8588
  821MOL0     H10795   5.713   9.332   1.677  0.5023 -2.9830 -1.8960
  821MOL0     H10796   5.724   9.151   1.399  0.0676 -0.1482  0.4289
  821MOL0     H10797   5.886   9.142   1.457 -0.0866  1.5888 -1.3479
  821MOL0     H10798   5.749   9.135   1.577  2.2391  1.5788  1.9176
  821MOL0     H10799   6.091   9.401   0.985  0.7482 -1.5056 -0.5009
  821MOL0     H10800   6.102   9.350   0.749 -0.2383 -1.9905 -0.5162
  821MOL0     H10801   6.047   9.385   0.534 -0.4580  0.2290 -2.5620
  821MOL0     H10802   6.038   9.201   0.525 -1.1959 -0.6751  2.5982
  821MOL0     H10803   5.832   9.296   0.350 -0.3906  0.9828  0.0237
  821MOL0     H10804   5.957   9.424   0.329 -0.8949  1.1504  2.0844
  821MOL0     H10805   6.018   9.140   0.287  1.3895  0.7868  1.6771
  821MOL0     H10806   6.107   9.284   0.239 -0.4794  0.4331 -1.1281
  821MOL0     H10807   5.830   9.226   0.128 -0.8250  1.0625  2.8329
  821MOL0     H10808   5.956   9.356   0.087  4.2247 -0.9840 -0.5534
  821MOL0     H10809   5.987   9.051   0.068  1.5259 -0.5383  0.6255
  821MOL0     H10810   6.105   9.158   0.018  0.4179  0.6435  1.3027
  821MOL0     H10811   5.817   9.144  -0.096  0.4082  0.7780  1.0788
  821MOL0     H10812   5.933   9.271  -0.142 -1.2466  1.7681  2.6790
  821MOL0     H10813   5.908   9.054  -0.291 -1.8682  0.3606  0.9747
  821MOL0     H10814   6.000   8.968  -0.157 -3.6114 -0.2316  1.0524
  821MOL0     H10815   6.183   9.046  -0.302 -1.1195 -1.0552  1.1723
  821MOL0     H10816   6.170   9.182  -0.201 -0.7809  1.7962 -0.4969
  821MOL0     H10817   5.670   9.314   0.747 -1.9860  4.6944 -0.7848
  821MOL0     H10818   5.658   9.367   0.990 -0.5503  2.6925  0.3607
  821MOL0     H10819   5.798   9.610   1.288 -0.7104  1.4154  1.1839
  821MOL0     H10820   5.761   9.719   1.512  1.6041 -0.1020 -0.1755
  821MOL0     H10821   3.939   9.577   1.454 -0.0106 -0.7602 -1.0637
  821MOL0     H10822   3.692   9.608   1.469  1.1785 -0.5802 -0.4199
  821MOL0     H10823   3.298  10.100   1.531  0.6415  0.4594 -2.0877
  821MOL0     H10824   3.063  10.073   1.544  1.6017 -0.0709  1.1171
  821MOL0     H10825   2.868   9.756   1.300 -1.3744 -1.4543  0.1864
  821MOL0     H10826   2.914   9.669   1.439 -0.0797 -0.0963  1.0573
  821MOL0     H10827   2.667   9.852   1.451  0.6379  0.4438 -0.3026
  821MOL0     H10828   2.711   9.696   1.545  4.2702 -1.1044 -0.6843
  821MOL0     H10829   2.642   9.726   1.251  4.0432 -2.1344 -1.6551
  821MOL0     H10830   2.527   9.668   1.384 -0.0955  3.2767 -1.3012
  821MOL0     H10831   2.672   9.468   1.421 -0.2028  1.0823  0.4442
  821MOL0     H10832   2.754   9.511   1.276  0.7118 -1.2983  2.5650
  821MOL0     H10833   2.379   9.418   1.106 -0.4333 -3.6711  1.8326
  821MOL0     H10834   3.083   9.733   1.294 -0.4915 -0.1142 -0.0332
  821MOL0     H10835   3.331   9.731   1.295 -1.4721 -0.4681  0.6339
  822MOL0     O10836   5.820   3.909   6.680  0.5725  0.4624 -1.0943
  822MOL0     C10837   5.827   3.991   6.595  0.0950 -1.3691  0.8767
  822MOL0     O10838   5.730   4.023   6.512 -0.0370  0.5009 -0.2092
  822MOL0     C10839   5.617   3.942   6.508 -0.3944  0.8817  0.1275
  822MOL0     C10840   5.590   3.879   6.384  0.4394 -0.1063  0.1070
  822MOL0     C10841   5.483   3.788   6.375 -0.8037  0.5864  0.4620
  822MOL0     C10842   5.404   3.767   6.491  0.5108  0.1471  0.3469
  822MOL0     O10843   5.291   3.703   6.475  0.3254 -0.0384 -0.6810
  822MOL0     C10844   5.300   3.574   6.540 -0.8070  1.0353  0.3580
  822MOL0     C10845   5.160   3.510   6.571 -0.5909 -0.0141  0.4725
  822MOL0     C10846   5.112   3.558   6.704  0.5250 -0.3240 -0.3457
  822MOL0     C10847   4.966   3.526   6.738  0.8111  0.0984 -0.4853
  822MOL0     C10848   4.922   3.590   6.869  0.5646 -0.1241 -0.0782
  822MOL0     C10849   4.790   3.520   6.899 -0.7904 -0.9056 -0.5604
  822MOL0     C10850   4.789   3.376   6.945 -0.8188  0.0109  0.9993
  822MOL0     C10851   4.882   3.337   7.060  0.4972 -0.4449 -0.4292
  822MOL0     N10852   4.861   3.412   7.188 -0.2475  0.7982  0.3970
  822MOL0     C10853   4.770   3.389   7.287 -0.2140 -0.1597  1.1353
  822MOL0     C10854   4.823   3.441   7.398  0.2879 -0.4046 -0.2304
  822MOL0     C10855   4.769   3.435   7.540 -0.3113 -0.2856 -0.1780
  822MOL0     C10856   4.650   3.534   7.557  0.0718  0.4340 -0.1483
  822MOL0     C10857   4.656   3.677   7.511  0.3016  0.1382  0.3109
  822MOL0     C10858   4.525   3.754   7.538 -0.7291 -0.2496  0.3852
  822MOL0     O10859   4.417   3.669   7.572 -0.3811  0.1259  0.4318
  822MOL0     C10860   4.287   3.709   7.571  0.6267  0.8418  0.4467
  822MOL0     C10861   4.202   3.597   7.559 -0.8909 -0.3874 -0.0101
  822MOL0     C10862   4.067   3.621   7.533  0.1664 -0.5087  0.9251
  822MOL0     C10863   3.983   3.502   7.518  0.2888 -0.0963 -0.3003
  822MOL0     C10864   4.016   3.753   7.525  0.1058  0.2261  0.3149
  822MOL0     C10865   3.876   3.785   7.516  1.2994  0.3304  0.0380
  822MOL0     O10866   3.850   3.888   7.430 -0.0219  0.6173  0.5463
  822MOL0     C10867   3.728   3.941   7.427  0.4393  0.6805  0.1031
  822MOL0     C10868   3.643   3.967   7.537  0.4727  0.6263 -0.3319
  822MOL0     C10869   3.519   4.029   7.515  0.5339 -1.2707 -1.0668
  822MOL0     C10870   3.490   4.075   7.385  0.4502 -0.3584  0.3200
  822MOL0     O10871   3.366   4.134   7.374  0.2441 -0.3947  0.0190
  822MOL0     C10872   3.342   4.223   7.264  0.7120 -0.0345 -0.1943
  822MOL0     C10873   3.202   4.280   7.276  0.1652 -0.4502 -0.0172
  822MOL0     C10874   3.177   4.380   7.169  0.1850  0.2703 -0.2757
  822MOL0     C10875   3.150   4.326   7.031  0.8261  1.1691 -1.0734
  822MOL0     C10876   3.157   4.431   6.919 -0.5510 -0.2727 -0.4138
  822MOL0     C10877   3.130   4.389   6.774 -0.0756 -1.1013 -0.4555
  822MOL0     C10878   2.993   4.327   6.765 -0.5580  0.3518 -0.5941
  822MOL0     C10879   3.012   4.171   6.767  0.1656 -0.9307  0.4683
  822MOL0    Cl10880   3.093   4.111   6.620  0.0934 -0.2664 -0.0531
  822MOL0     C10881   3.576   4.052   7.279  0.2448  0.4661  0.1463
  822MOL0     C10882   3.696   3.987   7.306  0.6376  0.1481  1.2931
  822MOL0     O10883   3.791   3.726   7.585  0.3319  0.6237 -0.5571
  822MOL0     C10884   4.106   3.857   7.549  1.3355 -0.0023 -0.7166
  822MOL0     C10885   4.241   3.839   7.579  0.7748 -1.1638 -0.1563
  822MOL0     N10886   4.940   3.494   7.366 -0.8429  0.6161  0.2431
  822MOL0     N10887   4.960   3.476   7.243 -0.8252  0.5170  1.2121
  822MOL0     C10888   5.419   3.835   6.609  0.0555  0.1374 -0.3069
  822MOL0     C10889   5.527   3.923   6.618 -0.8302 -0.4512  0.4901
  822MOL0     C10890   5.961   4.056   6.571  0.4007  0.0245 -0.8135
  822MOL0     C10891   6.045   4.068   6.680  0.3036  0.4511 -0.2523
  822MOL0     C10892   6.176   4.105   6.659  0.1358 -0.4146  1.4794
  822MOL0     C10893   6.222   4.150   6.535 -0.3685  0.2290  0.1244
  822MOL0     O10894   6.353   4.166   6.509 -0.5614  0.5356 -0.8460
  822MOL0     C10895   6.453   4.121   6.609 -0.0333  0.5901  1.0643
  822MOL0     C10896   6.500   4.231   6.707  0.6245 -0.4540  0.0462
  822MOL0     C10897   6.592   4.166   6.812 -0.1244  0.8650 -0.1790
  822MOL0     C10898   6.681   4.258   6.898 -0.2149 -0.6816  0.4724
  822MOL0     C10899   6.777   4.340   6.831 -0.4089 -0.4361 -0.4778
  822MOL0     C10900   6.869   4.409   6.792  0.1649 -0.3092  0.2495
  822MOL0     C10901   6.130   4.145   6.428  0.4425  0.1848 -0.0622
  822MOL0     C10902   6.006   4.102   6.451  0.9628  1.5066  0.1959
  822MOL0     H10903   5.650   3.898   6.295 -1.7329 -0.5461 -1.5684
  822MOL0     H10904   5.473   3.726   6.287  4.0242  3.2097 -2.3334
  822MOL0     H10905   5.357   3.506   6.476 -0.2601 -0.9543  2.7740
  822MOL0     H10906   5.349   3.573   6.638 -0.6143 -0.8822  0.2767
  822MOL0     H10907   5.090   3.545   6.494 -0.3747  1.0740  0.7455
  822MOL0     H10908   5.165   3.402   6.584  3.6259  0.3895  5.7771
  822MOL0     H10909   5.178   3.529   6.786  0.1294  2.1556  0.9482
  822MOL0     H10910   5.112   3.667   6.690 -1.0455 -0.2669 -0.0571
  822MOL0     H10911   4.909   3.577   6.659  0.8132  0.1233 -0.4705
  822MOL0     H10912   4.953   3.417   6.737  0.6206  0.1167 -0.1320
  822MOL0     H10913   4.996   3.572   6.947 -1.5414  0.8910  2.2777
  822MOL0     H10914   4.920   3.699   6.860  0.4909  0.2073  2.9424
  822MOL0     H10915   4.747   3.590   6.971 -0.6209  1.4927 -2.6656
  822MOL0     H10916   4.737   3.521   6.803 -2.8454  2.3709  0.4412
  822MOL0     H10917   4.684   3.362   6.974 -0.2260  0.7137  3.7687
  822MOL0     H10918   4.810   3.309   6.861  1.7754  3.3457 -1.2828
  822MOL0     H10919   4.987   3.342   7.030 -0.2693 -1.1941 -3.5579
  822MOL0     H10920   4.878   3.228   7.075  0.1439 -0.2308  1.2794
  822MOL0     H10921   4.685   3.322   7.296 -0.3122 -0.3173 -0.5888
  822MOL0     H10922   4.736   3.333   7.557 -1.9308  0.2605  0.1517
  822MOL0     H10923   4.843   3.445   7.620 -1.6207  1.9914  0.8571
  822MOL0     H10924   4.624   3.550   7.662  0.2158  2.2495 -0.3572
  822MOL0     H10925   4.565   3.479   7.515  0.3348  0.1807 -0.3513
  822MOL0     H10926   4.685   3.689   7.406 -0.5900 -1.5787 -0.1752
  822MOL0     H10927   4.732   3.731   7.569 -0.6227  1.9036 -0.0487
  822MOL0     H10928   4.501   3.816   7.451  0.3683  2.8812  2.1440
  822MOL0     H10929   4.546   3.828   7.616  2.5321 -0.7288  0.1164
  822MOL0     H10930   4.240   3.495   7.569 -1.8840 -0.6099  1.8871
  822MOL0     H10931   4.037   3.408   7.529 -1.4119 -1.0270  0.6211
  822MOL0     H10932   3.908   3.488   7.597 -0.1492 -3.0735 -1.1280
  822MOL0     H10933   3.934   3.506   7.420 -0.9716 -1.1747  0.2504
  822MOL0     H10934   3.659   3.926   7.636 -0.6762 -0.1875 -0.4730
  822MOL0     H10935   3.450   4.046   7.597  0.5048  0.0091 -1.3362
  822MOL0     H10936   3.412   4.306   7.251  0.0223  0.7444  0.8767
  822MOL0     H10937   3.349   4.165   7.172  1.5407 -3.3952  1.8275
  822MOL0     H10938   3.136   4.193   7.264 -0.5361  0.1052 -0.1771
  822MOL0     H10939   3.191   4.329   7.373  4.6074  1.7411 -0.3965
  822MOL0     H10940   3.267   4.441   7.156 -0.3861  0.5945 -3.8216
  822MOL0     H10941   3.097   4.443   7.209  1.0692 -0.2934  2.5676
  822MOL0     H10942   3.229   4.256   7.002  1.9085  2.1153 -0.4543
  822MOL0     H10943   3.054   4.273   7.023  2.9420 -3.0582 -1.0986
  822MOL0     H10944   3.260   4.465   6.929  0.3366 -3.1929  1.4501
  822MOL0     H10945   3.091   4.504   6.967  0.7141 -0.3532  1.5552
  822MOL0     H10946   3.141   4.485   6.722  1.1598  0.4918  2.4883
  822MOL0     H10947   3.209   4.317   6.753  1.4752 -0.0763  1.5629
  822MOL0     H10948   2.930   4.361   6.683 -0.1069  2.6264 -0.0580
  822MOL0     H10949   2.940   4.349   6.858  1.8697  0.9726  0.7409
  822MOL0     H10950   2.916   4.120   6.772 -1.5858  2.1561  1.2441
  822MOL0     H10951   3.071   4.141   6.855  0.0880  0.5316  1.0610
  822MOL0     H10952   3.562   4.085   7.177  2.5583  2.0530  0.2760
  822MOL0     H10953   3.766   3.974   7.224 -2.5453 -1.0438 -1.4734
  822MOL0     H10954   4.067   3.958   7.554 -2.1807 -1.1818 -1.4521
  822MOL0     H10955   4.319   3.913   7.595  1.5987 -2.2755  1.2259
  822MOL0     H10956   5.351   3.834   6.694 -0.6990 -3.7552 -0.7906
  822MOL0     H10957   5.541   3.987   6.704  0.1723 -1.7919  1.3602
  822MOL0     H10958   6.001   4.040   6.775 -2.1294  1.4891 -0.9883
  822MOL0     H10959   6.241   4.104   6.745 -0.0401 -3.8183  1.7029
  822MOL0     H10960   6.428   4.027   6.658  0.0381  0.1160  0.2085
  822MOL0     H10961   6.545   4.104   6.552 -0.8508 -3.3594  0.6320
  822MOL0     H10962   6.406   4.264   6.752  1.8228  0.5344  1.9411
  822MOL0     H10963   6.543   4.324   6.669 -0.3382 -0.6744 -1.6913
  822MOL0     H10964   6.668   4.114   6.753 -1.2981 -0.7961 -0.2867
  822MOL0     H10965   6.532   4.107   6.882 -2.4140  2.8351 -0.3274
  822MOL0     H10966   6.731   4.185   6.962 -2.4905 -3.5716 -0.8099
  822MOL0     H10967   6.621   4.316   6.968  1.0228 -0.3230  1.2608
  822MOL0     H10968   6.944   4.481   6.768  0.2349  0.4677  2.5174
  822MOL0     H10969   6.165   4.175   6.330 -3.7887  1.2183 -1.4704
  822MOL0     H10970   5.930   4.099   6.373  1.2973  0.7495 -0.1132
  823MOL0     O10971   2.624   9.820   7.632  0.3913 -0.3293  0.9542
  823MOL0     C10972   2.660   9.879   7.527 -0.2924 -0.9923 -1.0514
  823MOL0     O10973   2.704  10.010   7.529  0.3956 -0.1893 -0.9018
  823MOL0     C10974   2.710  10.085   7.647  0.1712 -0.0815 -0.2328
  823MOL0     C10975   2.774  10.046   7.768  1.0308  0.4590  0.3862
  823MOL0     C10976   2.791  10.134   7.886 -0.4715  0.1233  0.1628
  823MOL0     C10977   2.744  10.260   7.868 -0.0815 -0.8814  0.1676
  823MOL0     O10978   2.733  10.347   7.977 -0.6087  0.1360 -0.5267
  823MOL0     C10979   2.847  10.426   7.998 -0.3014 -0.8537  0.3289
  823MOL0     C10980   2.837  10.497   8.133  0.0909 -0.3270 -0.6147
  823MOL0     C10981   2.701  10.556   8.169  0.2171 -0.2247  0.7381
  823MOL0     C10982   2.628  10.619   8.052  0.7218  0.3082  0.0134
  823MOL0     C10983   2.494  10.675   8.086 -1.2543 -0.8719  0.2050
  823MOL0     C10984   2.426  10.735   7.971  0.8631  0.0735 -0.1821
  823MOL0     C10985   2.471  10.874   7.932 -0.5423  0.0500 -0.3262
  823MOL0     C10986   2.474  10.984   8.047  0.1674  0.5148 -0.1581
  823MOL0     N10987   2.344  10.994   8.117  0.7451 -0.1938  0.1237
  823MOL0     C10988   2.318  10.932   8.235  0.4686  0.7145 -0.0822
  823MOL0     C10989   2.193  10.961   8.258  0.4561 -0.2059  0.2477
  823MOL0     C10990   2.106  10.907   8.367  0.6202  0.9527 -0.7382
  823MOL0     C10991   2.096  10.752   8.371 -0.3061  0.0505  0.5205
  823MOL0     C10992   2.003  10.696   8.251 -0.2879  0.2792 -0.5028
  823MOL0     C10993   2.016  10.546   8.232  1.4289  0.4503  0.5071
  823MOL0     O10994   1.972  10.485   8.357  0.3915  0.6709 -0.1232
  823MOL0     C10995   1.839  10.497   8.395 -0.2815 -0.1098  0.4217
  823MOL0     C10996   1.732  10.430   8.329 -0.5366 -0.2670 -0.4250
  823MOL0     C10997   1.599  10.450   8.359 -0.0186  0.6635  0.1701
  823MOL0     C10998   1.510  10.390   8.257 -0.2140  0.0959 -0.6469
  823MOL0     C10999   1.572  10.542   8.467 -0.0804  1.3739 -0.6551
  823MOL0     C11000   1.441  10.581   8.505  0.8467 -0.5243  0.6812
  823MOL0     O11001   1.418  10.663   8.611  1.2169 -0.4126  0.2503
  823MOL0     C11002   1.287  10.708   8.626 -0.0758 -0.6770 -1.0806
  823MOL0     C11003   1.220  10.814   8.559  0.2416 -0.1232 -0.0026
  823MOL0     C11004   1.084  10.842   8.597  0.4105  0.0808  0.4027
  823MOL0     C11005   1.006  10.767   8.689 -0.7147 -0.3062 -0.3377
  823MOL0     O11006   0.874  10.798   8.713 -0.3154 -0.4183  0.9331
  823MOL0     C11007   0.792  10.698   8.768  0.3109 -0.1796  0.3544
  823MOL0     C11008   0.655  10.710   8.705 -0.0228 -0.1131 -0.0733
  823MOL0     C11009   0.654  10.631   8.570  0.5704 -1.2976 -0.8468
  823MOL0     C11010   0.531  10.683   8.480  0.5024 -0.0830 -0.2097
  823MOL0     C11011   0.404  10.614   8.535 -0.0338 -0.6890 -0.2201
  823MOL0     C11012   0.295  10.666   8.444 -0.2133  0.0654  1.0709
  823MOL0     C11013   0.289  10.598   8.306  1.0087  0.7773  0.6626
  823MOL0     C11014   0.188  10.674   8.222 -0.0208 -0.3640 -0.1066
  823MOL0    Cl11015   0.171  10.598   8.063  0.2847 -0.1677 -0.0177
  823MOL0     C11016   1.077  10.667   8.756 -0.8089  0.3411  0.5171
  823MOL0     C11017   1.215  10.635   8.720  0.5050  1.0580 -1.6255
  823MOL0     O11018   1.353  10.531   8.437  0.1576  0.4220  0.9348
  823MOL0     C11019   1.681  10.597   8.540  0.3732 -0.0574  0.0062
  823MOL0     C11020   1.814  10.568   8.510  0.3304 -0.4923  1.0378
  823MOL0     N11021   2.150  11.056   8.165 -0.0130 -0.1122 -0.1354
  823MOL0     N11022   2.242  11.063   8.070 -0.5118 -0.1684  0.7753
  823MOL0     C11023   2.678  10.304   7.752  0.2102 -0.7034 -0.9279
  823MOL0     C11024   2.654  10.217   7.642 -0.0137  0.0292 -0.1634
  823MOL0     C11025   2.664   9.799   7.402 -0.7827 -1.1507 -0.1751
  823MOL0     C11026   2.689   9.654   7.396 -0.0469  0.6408 -0.5515
  823MOL0     C11027   2.677   9.582   7.279  0.2377  0.5679 -0.0978
  823MOL0     C11028   2.671   9.655   7.163 -0.0969  0.5291  0.7592
  823MOL0     O11029   2.674   9.568   7.052 -0.1530 -1.3545 -0.3411
  823MOL0     C11030   2.637   9.625   6.925 -0.2396 -0.9049  0.1045
  823MOL0     C11031   2.586   9.504   6.848 -0.1026  0.2510  0.2728
  823MOL0     C11032   2.684   9.387   6.820 -0.6296 -0.4785 -0.8484
  823MOL0     C11033   2.640   9.272   6.739 -0.1547  0.3350 -0.2492
  823MOL0     C11034   2.742   9.214   6.650 -0.5003 -0.3511 -0.0361
  823MOL0     C11035   2.839   9.167   6.584  0.6298  0.1957  0.3982
  823MOL0     C11036   2.680   9.798   7.162  0.8722  1.2656  0.4537
  823MOL0     C11037   2.666   9.870   7.279  0.2535  0.1037 -0.2596
  823MOL0     H11038   2.808   9.943   7.774 -1.7956 -0.7528 -2.1286
  823MOL0     H11039   2.826  10.107   7.985  0.2467 -1.3433 -0.4707
  823MOL0     H11040   2.940  10.369   8.003  0.0599 -0.2586  0.4733
  823MOL0     H11041   2.847  10.501   7.918  2.7106 -0.3303  0.6932
  823MOL0     H11042   2.866  10.419   8.204 -0.0649 -1.6750 -1.9803
  823MOL0     H11043   2.913  10.575   8.145 -0.6916  0.3860 -0.1818
  823MOL0     H11044   2.634  10.479   8.207 -0.7751  0.1193 -0.2400
  823MOL0     H11045   2.715  10.631   8.247  1.3584  0.7705 -0.3710
  823MOL0     H11046   2.682  10.704   8.010  1.4216  0.7033  1.6197
  823MOL0     H11047   2.611  10.549   7.970  0.7349 -0.9409  1.0413
  823MOL0     H11048   2.434  10.587   8.111 -0.2075 -1.3515  1.1132
  823MOL0     H11049   2.499  10.751   8.165  0.6133 -2.3775  1.6408
  823MOL0     H11050   2.447  10.681   7.878  1.9320  3.0179 -1.8054
  823MOL0     H11051   2.317  10.743   7.983  0.3507  1.1504 -4.0631
  823MOL0     H11052   2.570  10.872   7.886 -1.1384  1.6965 -1.7842
  823MOL0     H11053   2.403  10.915   7.857 -1.4580 -0.8586 -0.0030
  823MOL0     H11054   2.501  11.083   8.008 -0.0883  0.3451 -0.7871
  823MOL0     H11055   2.544  10.950   8.124 -0.4364 -3.1129 -1.0201
  823MOL0     H11056   2.380  10.866   8.295  3.8904 -0.5562 -4.5499
  823MOL0     H11057   2.140  10.941   8.466  0.0423 -0.9921  0.1817
  823MOL0     H11058   2.005  10.945   8.353  0.7397  1.2886 -0.7090
  823MOL0     H11059   2.064  10.724   8.472  3.2337 -1.2251  1.4414
  823MOL0     H11060   2.198  10.716   8.359 -0.3780  0.6484 -2.9550
  823MOL0     H11061   2.033  10.735   8.154  0.3262 -3.3782 -1.9249
  823MOL0     H11062   1.897  10.720   8.268  0.5025  3.7873  0.4818
  823MOL0     H11063   2.119  10.520   8.207  1.6678  1.2190  0.6488
  823MOL0     H11064   1.945  10.519   8.154  1.4888 -0.0645  0.6288
  823MOL0     H11065   1.768  10.355   8.259 -1.0952 -1.6906  0.7400
  823MOL0     H11066   1.480  10.457   8.175 -2.2867 -1.2226 -1.0417
  823MOL0     H11067   1.551  10.303   8.204 -0.0042  0.1063 -0.5003
  823MOL0     H11068   1.425  10.344   8.309 -0.4247  0.8634 -0.3055
  823MOL0     H11069   1.272  10.864   8.478 -1.9100  0.8888 -0.8116
  823MOL0     H11070   1.036  10.916   8.535  0.3278  0.3061  0.7324
  823MOL0     H11071   0.828  10.595   8.758 -1.2892 -0.6702 -0.7590
  823MOL0     H11072   0.786  10.711   8.876  0.1178  0.0980  0.3104
  823MOL0     H11073   0.574  10.681   8.772 -0.3551 -1.0267 -0.8528
  823MOL0     H11074   0.649  10.819   8.693 -2.5673 -0.1041  0.7524
  823MOL0     H11075   0.638  10.527   8.599 -3.0092 -0.2626  1.5310
  823MOL0     H11076   0.747  10.653   8.516  0.7608 -0.0598 -0.0405
  823MOL0     H11077   0.523  10.792   8.486  1.9818 -0.0299  3.0925
  823MOL0     H11078   0.549  10.647   8.378 -0.8436 -5.5177  1.1840
  823MOL0     H11079   0.387  10.654   8.636  2.9776  1.5469 -0.4798
  823MOL0     H11080   0.408  10.505   8.538 -0.8234 -0.7051  0.6184
  823MOL0     H11081   0.197  10.646   8.488 -1.8138  0.2905 -2.1173
  823MOL0     H11082   0.315  10.773   8.434 -0.9339  0.4484  3.1959
  823MOL0     H11083   0.241  10.502   8.326  2.1402  0.4936  2.1878
  823MOL0     H11084   0.383  10.592   8.251 -0.1655  4.9788 -2.3644
  823MOL0     H11085   0.218  10.779   8.219 -4.0380  1.0901  2.9599
  823MOL0     H11086   0.089  10.674   8.268  0.2826  0.0119  0.5547
  823MOL0     H11087   1.032  10.605   8.832 -2.3426 -0.7259 -1.1624
  823MOL0     H11088   1.258  10.548   8.769 -4.1475 -1.1351 -0.8646
  823MOL0     H11089   1.667  10.665   8.622  2.8400 -1.4733  1.7527
  823MOL0     H11090   1.890  10.624   8.564  0.3399  0.4397  0.0898
  823MOL0     H11091   2.641  10.406   7.746  0.0218 -0.8350 -2.2158
  823MOL0     H11092   2.601  10.249   7.553 -3.6240 -2.4215  0.8820
  823MOL0     H11093   2.717   9.609   7.491 -1.0212 -0.1172 -0.6075
  823MOL0     H11094   2.674   9.474   7.280 -1.5162  0.5987 -0.2107
  823MOL0     H11095   2.555   9.694   6.946  0.1028 -0.2683 -0.6066
  823MOL0     H11096   2.721   9.689   6.896  0.8778 -1.2618  2.3270
  823MOL0     H11097   2.545   9.528   6.749  0.2774 -4.9436 -1.4458
  823MOL0     H11098   2.501   9.462   6.904 -1.2810  2.0009 -0.1268
  823MOL0     H11099   2.730   9.349   6.912 -1.1911 -0.6050 -0.6154
  823MOL0     H11100   2.772   9.435   6.777  1.0226  2.1940  4.5646
  823MOL0     H11101   2.548   9.298   6.686  0.5706  1.0070 -1.2173
  823MOL0     H11102   2.594   9.196   6.803 -0.4465  1.7881  1.3283
  823MOL0     H11103   2.922   9.132   6.526 -0.8626 -1.2355 -0.9382
  823MOL0     H11104   2.687   9.840   7.062  0.2054  1.1497  0.3533
  823MOL0     H11105   2.652   9.977   7.292 -2.1326 -0.0036 -1.4304
  824MOL0     O11106   3.814   3.987   5.081 -0.4497  0.3003  0.3812
  824MOL0     C11107   3.804   4.014   5.198  0.0740  0.5642 -0.4723
  824MOL0     O11108   3.700   4.042   5.265 -0.1738  0.5022 -0.3602
  824MOL0     C11109   3.576   4.039   5.205 -0.0385  0.1013 -0.9500
  824MOL0     C11110   3.502   4.154   5.196 -0.2443  0.8547  0.1439
  824MOL0     C11111   3.369   4.148   5.162 -0.0703  0.2968  0.5440
  824MOL0     C11112   3.313   4.032   5.146  0.2703  0.3566 -0.2828
  824MOL0     O11113   3.181   4.024   5.115  0.3108  0.1994 -1.6137
  824MOL0     C11114   3.090   4.087   5.207 -0.2577  0.4766 -0.3812
  824MOL0     C11115   2.958   4.011   5.199  0.5653  0.3041  0.0038
  824MOL0     C11116   2.838   4.072   5.260 -0.9114 -0.1550 -0.9457
  824MOL0     C11117   2.717   3.966   5.234  0.1379  0.5230 -0.0561
  824MOL0     C11118   2.596   4.000   5.322 -1.2811 -0.1862 -0.4925
  824MOL0     C11119   2.497   3.894   5.328 -1.7703 -0.2311 -0.1665
  824MOL0     C11120   2.380   3.915   5.430  0.3446  0.0981  0.3484
  824MOL0     C11121   2.268   3.814   5.435 -0.2793  0.5341  0.8144
  824MOL0     N11122   2.224   3.796   5.575  0.2707 -0.3542  0.0054
  824MOL0     C11123   2.132   3.882   5.621  0.1445 -0.4823 -0.2462
  824MOL0     C11124   2.106   3.822   5.742 -0.1479  1.1449 -0.5363
  824MOL0     C11125   2.008   3.883   5.844 -0.5822 -0.5723  0.4542
  824MOL0     C11126   1.881   3.938   5.776 -0.0228  0.3856  0.3221
  824MOL0     C11127   1.781   3.971   5.875  0.2616  0.3221 -0.1512
  824MOL0     C11128   1.642   4.001   5.809 -0.1895 -0.3753 -0.4318
  824MOL0     O11129   1.543   3.993   5.910 -0.0998 -0.2343  0.1150
  824MOL0     C11130   1.410   4.021   5.879 -0.3077  0.4977  1.2077
  824MOL0     C11131   1.364   4.071   5.753 -0.7246  0.9030 -0.8376
  824MOL0     C11132   1.233   4.095   5.728 -1.0013  0.2696  0.1734
  824MOL0     C11133   1.202   4.173   5.601  0.0833  0.5822  0.1220
  824MOL0     C11134   1.136   4.063   5.829  0.4028  0.5795 -0.3132
  824MOL0     C11135   0.992   4.090   5.820 -0.0247 -0.7650 -0.6205
  824MOL0     O11136   0.919   4.048   5.921  0.4616  0.6937  0.4785
  824MOL0     C11137   0.779   4.043   5.933 -0.5527 -0.8063  0.2706
  824MOL0     C11138   0.702   4.146   5.888 -0.4491  0.9536  1.5676
  824MOL0     C11139   0.571   4.147   5.898  0.7557 -0.5434  0.7690
  824MOL0     C11140   0.507   4.045   5.975 -0.4656  0.9412 -0.4597
  824MOL0     O11141   0.373   4.038   6.001 -0.0683  0.3400  0.8421
  824MOL0     C11142   0.279   4.132   5.939  0.0744  0.5269 -0.6247
  824MOL0     C11143   0.247   4.096   5.790 -0.4985  0.7811 -0.7408
  824MOL0     C11144   0.163   3.966   5.779 -0.5537  0.2815  0.3370
  824MOL0     C11145   0.130   3.944   5.632  0.5624  0.2915 -0.1646
  824MOL0     C11146   0.040   3.820   5.622  0.4767  0.6486 -0.1888
  824MOL0     C11147  -0.009   3.782   5.484  0.3488 -0.8691  0.2390
  824MOL0     C11148   0.101   3.765   5.375 -0.2469 -0.1320 -0.2954
  824MOL0     C11149   0.040   3.802   5.239  0.2458 -1.0558  0.6677
  824MOL0    Cl11150  -0.077   3.685   5.181  0.3683  0.2513 -0.1112
  824MOL0     C11151   0.587   3.943   6.028 -0.7561  0.3907 -0.0667
  824MOL0     C11152   0.725   3.948   6.016 -0.7239  0.1358  0.0056
  824MOL0     O11153   0.947   4.150   5.730 -0.6263 -0.1535  0.9625
  824MOL0     C11154   1.178   4.004   5.951 -0.6209 -0.9547 -1.1390
  824MOL0     C11155   1.317   3.981   5.975 -0.6414 -0.7865 -0.1927
  824MOL0     N11156   2.170   3.701   5.759  0.3581 -0.2425  0.0449
  824MOL0     N11157   2.240   3.687   5.653 -0.8748  0.5335  0.0626
  824MOL0     C11158   3.384   3.910   5.151  0.4754  0.1526 -0.1728
  824MOL0     C11159   3.523   3.918   5.176 -0.3152  0.3566  0.7253
  824MOL0     C11160   3.928   4.035   5.274 -0.2004 -0.1560 -0.9167
  824MOL0     C11161   4.048   3.981   5.226  0.1391 -0.4723  0.5869
  824MOL0     C11162   4.173   4.011   5.290  0.8596 -0.5280 -0.2238
  824MOL0     C11163   4.179   4.097   5.401 -0.6081  0.0610 -0.6751
  824MOL0     O11164   4.291   4.124   5.475 -0.1892 -0.1422 -0.1973
  824MOL0     C11165   4.352   4.011   5.538 -0.2261 -0.0670  0.2504
  824MOL0     C11166   4.368   4.033   5.690 -0.4889 -0.8926  0.1093
  824MOL0     C11167   4.450   3.934   5.767  0.2037  0.2935 -0.1308
  824MOL0     C11168   4.441   3.952   5.913 -0.3441  0.1846  0.1370
  824MOL0     C11169   4.553   4.039   5.964  0.5186 -0.6454 -0.1591
  824MOL0     C11170   4.643   4.109   6.004 -0.1742  0.0431  0.9834
  824MOL0     C11171   4.060   4.153   5.458  0.4924  0.1390  0.2430
  824MOL0     C11172   3.943   4.122   5.384  1.2722 -0.0961 -0.6586
  824MOL0     H11173   3.545   4.249   5.227 -3.4182  1.0673  5.1059
  824MOL0     H11174   3.309   4.238   5.151  1.2078  0.9165 -1.9206
  824MOL0     H11175   3.126   4.105   5.309 -2.3849 -1.5382  0.7953
  824MOL0     H11176   3.078   4.184   5.157  0.5015  0.5513 -0.4325
  824MOL0     H11177   2.940   3.981   5.095 -1.3955  0.7825  0.1708
  824MOL0     H11178   2.972   3.911   5.243  1.0665  0.6652  0.6877
  824MOL0     H11179   2.852   4.095   5.366 -0.6378  0.0836 -1.0345
  824MOL0     H11180   2.802   4.161   5.209 -0.2912  0.4042 -0.4212
  824MOL0     H11181   2.683   3.947   5.131 -1.7670 -0.7209  0.7447
  824MOL0     H11182   2.757   3.867   5.260  2.6425  1.3546 -0.4919
  824MOL0     H11183   2.627   4.019   5.425 -0.2974 -2.1448 -0.3751
  824MOL0     H11184   2.554   4.094   5.286  0.2490  1.9940  2.8972
  824MOL0     H11185   2.447   3.881   5.232 -2.6443  2.3687 -0.1441
  824MOL0     H11186   2.553   3.804   5.357  1.3876  1.7279  0.3467
  824MOL0     H11187   2.426   3.914   5.529  1.1204 -0.9156 -0.0038
  824MOL0     H11188   2.343   4.018   5.422  2.8582  1.1612  1.4110
  824MOL0     H11189   2.300   3.724   5.382 -0.0531  2.0496 -1.8390
  824MOL0     H11190   2.188   3.853   5.372  3.8338  0.4554 -5.3850
  824MOL0     H11191   2.089   3.975   5.585  1.5878  1.1401  1.8712
  824MOL0     H11192   1.982   3.804   5.915 -2.7346  1.3440  1.9463
  824MOL0     H11193   2.063   3.959   5.900 -1.2844 -0.7030  1.3289
  824MOL0     H11194   1.837   3.866   5.707  2.5181  0.3604 -1.4129
  824MOL0     H11195   1.910   4.024   5.715 -2.6170  1.5044  0.5319
  824MOL0     H11196   1.820   4.055   5.934 -3.0925  2.2097 -0.3498
  824MOL0     H11197   1.772   3.881   5.937 -2.6755  0.7929  0.2314
  824MOL0     H11198   1.617   3.932   5.727  2.4764 -0.6055 -1.1598
  824MOL0     H11199   1.650   4.098   5.759  1.4719 -0.6951 -0.8565
  824MOL0     H11200   1.436   4.102   5.678  1.1218 -2.8707 -0.8880
  824MOL0     H11201   1.151   4.108   5.530  0.0374  0.8982 -0.1399
  824MOL0     H11202   1.137   4.259   5.620 -0.6178 -0.0227  0.4946
  824MOL0     H11203   1.299   4.207   5.563  0.5482 -2.5294 -1.8370
  824MOL0     H11204   0.748   4.234   5.843 -1.8860  1.5815  1.2764
  824MOL0     H11205   0.508   4.226   5.859  1.1477 -0.3733  0.4715
  824MOL0     H11206   0.181   4.134   5.988 -0.7922 -2.9299 -1.9779
  824MOL0     H11207   0.323   4.232   5.946 -1.2115  1.0637  0.2642
  824MOL0     H11208   0.198   4.186   5.753  0.9252  1.8250 -0.1600
  824MOL0     H11209   0.342   4.096   5.736  0.1545 -2.1033  0.2132
  824MOL0     H11210   0.070   3.966   5.838 -0.5896 -1.1240  0.3140
  824MOL0     H11211   0.226   3.885   5.814  1.2277  0.7240 -1.6818
  824MOL0     H11212   0.072   4.024   5.586  0.0905 -0.0673 -0.2065
  824MOL0     H11213   0.228   3.933   5.585  0.9178 -0.9855  0.7952
  824MOL0     H11214  -0.046   3.846   5.684  0.2063 -0.9335  0.1549
  824MOL0     H11215   0.087   3.736   5.675 -0.4365  0.5652  0.5179
  824MOL0     H11216  -0.062   3.686   5.483  2.7674 -2.2928  1.0316
  824MOL0     H11217  -0.087   3.853   5.454  3.1924  2.5042  0.0924
  824MOL0     H11218   0.146   3.666   5.387  1.5759  0.7585  0.5632
  824MOL0     H11219   0.179   3.838   5.399 -0.4697 -0.2223  0.7871
  824MOL0     H11220   0.129   3.809   5.176  1.1494 -0.2043  1.9760
  824MOL0     H11221  -0.005   3.901   5.253 -1.1560 -1.9967  3.5559
  824MOL0     H11222   0.545   3.859   6.083  0.9539 -1.0818 -0.8971
  824MOL0     H11223   0.790   3.880   6.070  1.1604  1.9404  0.1393
  824MOL0     H11224   1.117   3.964   6.032  0.7462 -1.4102 -0.3031
  824MOL0     H11225   1.358   3.926   6.059 -1.0512  0.8648  1.1287
  824MOL0     H11226   3.331   3.816   5.140  0.3763 -0.5265  4.2290
  824MOL0     H11227   3.593   3.836   5.188  0.2394  0.5636 -0.9346
  824MOL0     H11228   4.042   3.923   5.135 -2.5699  0.2765  0.1819
  824MOL0     H11229   4.266   3.963   5.264  2.3459  1.5089  0.9783
  824MOL0     H11230   4.291   3.923   5.517 -1.1416  0.9309 -1.5515
  824MOL0     H11231   4.446   3.997   5.483 -0.8973  0.4585 -1.0874
  824MOL0     H11232   4.268   4.035   5.735 -1.8091 -1.8132 -2.5372
  824MOL0     H11233   4.425   4.125   5.702  0.0961 -0.9220 -1.9490
  824MOL0     H11234   4.555   3.926   5.735 -0.0839 -0.1502 -0.9991
  824MOL0     H11235   4.417   3.833   5.740 -2.3923  0.6018  1.5833
  824MOL0     H11236   4.451   3.853   5.958 -2.4898 -0.3596 -0.4664
  824MOL0     H11237   4.343   3.988   5.946  0.2610  2.7007 -0.5322
  824MOL0     H11238   4.723   4.166   6.047  0.6019 -1.0163  0.9722
  824MOL0     H11239   4.067   4.220   5.543  0.5574  3.0425 -1.8847
  824MOL0     H11240   3.851   4.178   5.401  0.4192 -2.2818  3.1686
  825MOL0     O11241  10.502   1.471   4.164  0.1201  0.2201 -0.3739
  825MOL0     C11242  10.544   1.443   4.279 -0.0872 -0.4305 -0.0558
  825MOL0     O11243  10.467   1.452   4.395 -0.3117 -0.1567 -0.2407
  825MOL0     C11244  10.334   1.418   4.378 -0.3695 -0.3039  0.0083
  825MOL0     C11245  10.267   1.313   4.450 -0.9265 -0.0121  0.0271
  825MOL0     C11246  10.134   1.279   4.432  0.6667  0.3530  0.0895
  825MOL0     C11247  10.056   1.369   4.366 -0.8227 -0.0626  0.1585
  825MOL0     O11248   9.925   1.345   4.337  0.5551  0.3437  0.3950
  825MOL0     C11249   9.886   1.206   4.323 -0.1709 -0.3091  0.1094
  825MOL0     C11250   9.744   1.185   4.252 -1.1239  0.1515  0.0370
  825MOL0     C11251   9.639   1.218   4.348 -0.1038 -0.4653 -0.0655
  825MOL0     C11252   9.501   1.205   4.288  0.3675 -0.5630 -0.1667
  825MOL0     C11253   9.387   1.220   4.390 -0.3299 -0.9338 -0.2650
  825MOL0     C11254   9.261   1.226   4.316  0.8228  0.4897  0.7696
  825MOL0     C11255   9.154   1.234   4.432 -1.1005  0.1202  1.0029
  825MOL0     C11256   9.017   1.243   4.367 -1.1053  0.1658  0.3708
  825MOL0     N11257   8.913   1.255   4.464 -0.2604  0.2073 -0.6712
  825MOL0     C11258   8.851   1.370   4.497 -0.6408 -1.0418 -0.5200
  825MOL0     C11259   8.783   1.346   4.617  0.2750 -0.1361 -0.2403
  825MOL0     C11260   8.695   1.438   4.697  0.3763 -0.0234 -0.7921
  825MOL0     C11261   8.548   1.397   4.666 -0.2403  0.7587 -0.9047
  825MOL0     C11262   8.447   1.472   4.753  0.1650  0.3917  0.0379
  825MOL0     C11263   8.316   1.407   4.754  0.1988  0.9980  0.0118
  825MOL0     O11264   8.213   1.500   4.774 -0.1985  0.8679  0.1076
  825MOL0     C11265   8.084   1.469   4.779 -0.0834 -0.0016  0.5261
  825MOL0     C11266   8.026   1.341   4.752  0.3177 -0.5263 -0.4194
  825MOL0     C11267   7.886   1.328   4.738 -0.6545  0.6034  0.1599
  825MOL0     C11268   7.836   1.198   4.689  0.2900  0.0246 -0.7760
  825MOL0     C11269   7.798   1.430   4.757 -0.1240  1.0878 -0.4845
  825MOL0     C11270   7.651   1.424   4.755 -0.0090  0.2173 -0.1673
  825MOL0     O11271   7.596   1.313   4.789 -0.4584 -0.6980  0.0878
  825MOL0     C11272   7.458   1.314   4.808  0.3383  0.6109 -0.8373
  825MOL0     C11273   7.394   1.375   4.923 -1.2179  0.0770  0.2925
  825MOL0     C11274   7.256   1.361   4.951  0.0089 -0.3995  0.1169
  825MOL0     C11275   7.175   1.277   4.866 -0.4940 -0.4160 -0.3697
  825MOL0     O11276   7.049   1.253   4.899 -0.1693 -0.7302 -0.2873
  825MOL0     C11277   6.952   1.306   4.809 -0.7570  0.4125  0.1061
  825MOL0     C11278   6.824   1.310   4.885  0.9394 -1.3188 -0.9345
  825MOL0     C11279   6.703   1.358   4.790  0.0350 -0.3197 -0.4353
  825MOL0     C11280   6.579   1.347   4.858 -0.2864 -1.3050  0.2811
  825MOL0     C11281   6.467   1.400   4.764 -0.7310 -0.7757  0.1620
  825MOL0     C11282   6.327   1.383   4.829  0.0383  0.2040 -0.0804
  825MOL0     C11283   6.223   1.443   4.738  0.4153  0.1364 -0.1900
  825MOL0     C11284   6.247   1.440   4.586 -0.0030 -0.2510 -0.1331
  825MOL0    Cl11285   6.147   1.554   4.501  0.0367  0.2766  0.4388
  825MOL0     C11286   7.240   1.220   4.758  0.1996 -0.4061 -0.5935
  825MOL0     C11287   7.374   1.234   4.726  0.3973  0.1819  0.0082
  825MOL0     O11288   7.587   1.528   4.738  0.3810  0.3403 -0.1781
  825MOL0     C11289   7.854   1.551   4.796  0.1173 -0.7063  0.5464
  825MOL0     C11290   7.995   1.573   4.799 -0.1241 -0.0835  0.2453
  825MOL0     N11291   8.805   1.207   4.647 -0.8950 -0.1147 -0.5270
  825MOL0     N11292   8.880   1.161   4.552  0.3122 -0.3139  0.4459
  825MOL0     C11293  10.106   1.478   4.299  0.9016 -0.1736 -0.6578
  825MOL0     C11294  10.245   1.502   4.300 -0.4379 -0.3747  0.2445
  825MOL0     C11295  10.683   1.422   4.304  0.6990 -0.7983 -0.1938
  825MOL0     C11296  10.730   1.432   4.431 -0.5198 -0.2754 -0.1445
  825MOL0     C11297  10.876   1.417   4.463  0.0793 -0.2071 -0.8550
  825MOL0     C11298  10.966   1.379   4.358 -0.1923 -0.0496  0.1426
  825MOL0     O11299  11.107   1.357   4.369 -0.2021 -0.0568 -0.6060
  825MOL0     C11300  11.183   1.400   4.484  0.2513  0.0300  0.1618
  825MOL0     C11301  11.327   1.350   4.472  0.0231  0.7142 -0.8315
  825MOL0     C11302  11.399   1.345   4.607 -0.4512 -0.6003 -0.0732
  825MOL0     C11303  11.513   1.244   4.613 -0.2122 -0.6443 -0.4190
  825MOL0     C11304  11.598   1.278   4.726  0.0700 -0.0437  0.0034
  825MOL0     C11305  11.669   1.297   4.824 -1.1468  0.1678 -0.1061
  825MOL0     C11306  10.907   1.349   4.229  0.1236  0.5033 -0.1511
  825MOL0     C11307  10.771   1.375   4.204  0.0926  0.1656 -0.4503
  825MOL0     H11308  10.333   1.256   4.515 -2.0879 -0.7342  0.6182
  825MOL0     H11309  10.102   1.185   4.475  1.9178  0.1552  0.6548
  825MOL0     H11310   9.953   1.153   4.254 -1.1055 -0.9347 -0.3443
  825MOL0     H11311   9.894   1.153   4.418 -1.5218 -0.6757  0.0333
  825MOL0     H11312   9.727   1.249   4.165 -2.0400 -0.4532 -0.2446
  825MOL0     H11313   9.739   1.082   4.216  0.5901 -0.3794  1.1987
  825MOL0     H11314   9.649   1.146   4.431 -1.7570 -1.7294 -0.8971
  825MOL0     H11315   9.657   1.318   4.387  2.2220  0.4353 -3.0722
  825MOL0     H11316   9.484   1.266   4.199 -2.5722 -1.6944 -0.4939
  825MOL0     H11317   9.490   1.100   4.257 -0.8813 -0.7983  0.9899
  825MOL0     H11318   9.387   1.135   4.459  1.0634 -1.9066 -1.4124
  825MOL0     H11319   9.393   1.307   4.457  2.4123 -1.6908  0.5975
  825MOL0     H11320   9.258   1.305   4.240 -1.1529 -1.9868 -1.9589
  825MOL0     H11321   9.236   1.130   4.270 -0.5356  0.3253  1.7893
  825MOL0     H11322   9.157   1.142   4.490  0.6932 -0.4237  0.1269
  825MOL0     H11323   9.162   1.319   4.500  2.5274 -1.0006  2.2290
  825MOL0     H11324   8.991   1.157   4.305  0.0188 -1.0455  1.5205
  825MOL0     H11325   9.024   1.323   4.293  0.3207  1.3806  1.7355
  825MOL0     H11326   8.872   1.466   4.451  1.4066 -1.3953 -0.4295
  825MOL0     H11327   8.716   1.437   4.804 -0.6849 -0.6560 -0.5744
  825MOL0     H11328   8.711   1.536   4.651 -0.3031  0.4994  0.0697
  825MOL0     H11329   8.528   1.294   4.697  2.0350 -0.3883 -2.8778
  825MOL0     H11330   8.527   1.396   4.558 -2.0504  1.2580 -0.5784
  825MOL0     H11331   8.446   1.571   4.708  2.0169  0.2953 -0.2887
  825MOL0     H11332   8.479   1.479   4.858 -2.5203 -1.5782  1.1110
  825MOL0     H11333   8.326   1.327   4.827 -0.1501 -0.4562 -1.4625
  825MOL0     H11334   8.296   1.351   4.662 -2.1046  1.7929 -0.0305
  825MOL0     H11335   8.096   1.258   4.752  0.2221 -0.6084 -0.2445
  825MOL0     H11336   7.757   1.213   4.616 -1.9803 -3.7797  0.6096
  825MOL0     H11337   7.912   1.137   4.639 -0.8341 -0.5508 -1.8178
  825MOL0     H11338   7.794   1.133   4.766  0.3654  0.2764 -0.5167
  825MOL0     H11339   7.465   1.420   4.992  1.6977 -1.1900 -1.6330
  825MOL0     H11340   7.217   1.406   5.042 -2.5687  1.4649 -1.7730
  825MOL0     H11341   6.990   1.403   4.778  1.6393  0.0631  1.7115
  825MOL0     H11342   6.951   1.253   4.713  4.1552  0.1615 -0.0186
  825MOL0     H11343   6.816   1.209   4.926 -0.2511 -0.0941  2.1438
  825MOL0     H11344   6.833   1.381   4.968  1.5793  0.4324 -2.4413
  825MOL0     H11345   6.706   1.299   4.698  2.2350 -2.6451  0.9748
  825MOL0     H11346   6.731   1.461   4.767  2.2154  0.1781  3.4872
  825MOL0     H11347   6.558   1.243   4.884 -0.3029 -1.5076 -0.5117
  825MOL0     H11348   6.582   1.400   4.953 -2.1995  2.2398 -1.4465
  825MOL0     H11349   6.474   1.344   4.670  0.6683  0.1238 -0.3054
  825MOL0     H11350   6.483   1.507   4.748  3.3352 -1.0493  1.3256
  825MOL0     H11351   6.309   1.277   4.849  0.1817  0.3051  0.6116
  825MOL0     H11352   6.323   1.437   4.924 -1.3760 -3.2164  1.9955
  825MOL0     H11353   6.220   1.547   4.773 -1.7782 -1.0587  3.8507
  825MOL0     H11354   6.126   1.400   4.765  1.2926 -0.8631  1.5042
  825MOL0     H11355   6.216   1.342   4.549 -0.8235 -0.1354  0.2335
  825MOL0     H11356   6.348   1.461   4.548 -0.8329 -1.0911 -2.9596
  825MOL0     H11357   7.175   1.165   4.691 -0.4089 -1.8380  1.1099
  825MOL0     H11358   7.422   1.180   4.645 -1.3700  0.9009 -1.6000
  825MOL0     H11359   7.791   1.636   4.821  1.8931  1.1451 -0.9647
  825MOL0     H11360   8.025   1.673   4.830  1.3250 -0.5542  0.4116
  825MOL0     H11361  10.042   1.550   4.248  0.1228 -0.5356 -0.2165
  825MOL0     H11362  10.278   1.589   4.245  0.0088 -0.0513  1.0160
  825MOL0     H11363  10.667   1.436   4.519  0.5308 -2.8991  0.8163
  825MOL0     H11364  10.900   1.432   4.567 -1.5779  3.7697 -0.8898
  825MOL0     H11365  11.201   1.507   4.482  1.2964 -0.0442 -3.7432
  825MOL0     H11366  11.135   1.367   4.577 -2.2168  0.6127 -0.8255
  825MOL0     H11367  11.380   1.403   4.393  1.4182 -1.2333 -1.2832
  825MOL0     H11368  11.316   1.244   4.445  0.7753  0.3867  0.0949
  825MOL0     H11369  11.326   1.328   4.686 -1.7732 -0.0008 -1.1330
  825MOL0     H11370  11.446   1.441   4.633 -1.5922 -0.2426  0.7686
  825MOL0     H11371  11.575   1.250   4.524  1.7232 -2.3435  0.7353
  825MOL0     H11372  11.490   1.139   4.633  0.7174 -1.2713 -2.3656
  825MOL0     H11373  11.713   1.312   4.921  0.0020 -0.5459 -0.5054
  825MOL0     H11374  10.976   1.316   4.152  2.1562  0.1481  1.7281
  825MOL0     H11375  10.734   1.344   4.107 -0.5795 -2.2980  0.5294
  826MOL0     O11376   2.146   2.404   8.629  0.2709 -0.0267 -0.4859
  826MOL0     C11377   2.261   2.440   8.667 -0.3872  0.1965 -0.8886
  826MOL0     O11378   2.306   2.441   8.792  0.6339 -0.0558  0.1593
  826MOL0     C11379   2.221   2.397   8.890 -0.2832 -0.4567  0.0669
  826MOL0     C11380   2.149   2.492   8.969  0.2747 -0.2622  0.0199
  826MOL0     C11381   2.038   2.457   9.045 -0.0517  0.3679 -0.0753
  826MOL0     C11382   1.993   2.330   9.052  0.1773 -0.0410  0.3670
  826MOL0     O11383   1.871   2.294   9.110  0.1676  0.1357 -0.5479
  826MOL0     C11384   1.889   2.188   9.201  0.2091 -0.6352  1.0989
  826MOL0     C11385   1.777   2.198   9.307  0.3684  0.0575 -0.1712
  826MOL0     C11386   1.635   2.177   9.245 -0.3407  1.0443  0.5283
  826MOL0     C11387   1.625   2.033   9.195  0.6575  0.0120  0.1897
  826MOL0     C11388   1.491   2.004   9.123 -0.7993  0.5083 -0.5447
  826MOL0     C11389   1.462   1.851   9.092 -0.7561 -0.5410  0.1490
  826MOL0     C11390   1.317   1.802   9.069  0.5685 -0.7674  0.2230
  826MOL0     C11391   1.230   1.783   9.192 -0.7648 -0.0931  0.4774
  826MOL0     N11392   1.091   1.762   9.156  0.3172  0.4347 -0.8499
  826MOL0     C11393   1.044   1.640   9.118  0.2297  0.0628 -0.7163
  826MOL0     C11394   0.905   1.657   9.110  0.1717 -0.7167  0.1793
  826MOL0     C11395   0.803   1.558   9.085 -0.0331 -0.0090  0.0247
  826MOL0     C11396   0.660   1.615   9.092  1.0765  0.1883  0.8441
  826MOL0     C11397   0.549   1.511   9.074 -0.6509  0.7056 -0.0642
  826MOL0     C11398   0.415   1.573   9.050 -0.2706  0.1324 -0.0526
  826MOL0     O11399   0.366   1.634   9.168  0.4268 -0.2904  0.0994
  826MOL0     C11400   0.231   1.662   9.190 -0.2442  0.2182  0.3614
  826MOL0     C11401   0.188   1.655   9.323 -0.1535 -0.1955  0.3387
  826MOL0     C11402   0.059   1.681   9.356  0.0434  0.3069  0.7695
  826MOL0     C11403   0.040   1.699   9.509  0.7064  0.4241 -0.3189
  826MOL0     C11404  -0.037   1.702   9.252  0.3745  0.8081 -0.1044
  826MOL0     C11405  -0.180   1.709   9.285  0.6211 -0.9371  0.4493
  826MOL0     O11406  -0.232   1.732   9.414 -0.1909 -0.0785 -0.5189
  826MOL0     C11407  -0.370   1.735   9.450  0.5711  0.2393  0.7248
  826MOL0     C11408  -0.480   1.751   9.362 -1.3491 -0.5248  0.0108
  826MOL0     C11409  -0.610   1.759   9.402 -0.1572  0.5648 -0.2141
  826MOL0     C11410  -0.641   1.765   9.541  0.1627  0.7132  0.2437
  826MOL0     O11411  -0.772   1.766   9.577  0.9740 -0.1979  0.2512
  826MOL0     C11412  -0.802   1.780   9.715 -1.0176 -0.6905  1.1558
  826MOL0     C11413  -0.955   1.798   9.750  0.0067 -0.3258  0.1052
  826MOL0     C11414  -0.973   1.753   9.900  0.5730  0.3024  0.9067
  826MOL0     C11415  -1.102   1.812   9.949  1.2256 -1.0725 -0.5071
  826MOL0     C11416  -1.109   1.820  10.103  0.0370  0.2013 -0.0433
  826MOL0     C11417  -1.094   1.680  10.170 -0.3419  0.7172 -0.7419
  826MOL0     C11418  -1.151   1.689  10.312  0.1730  0.4001  0.3892
  826MOL0     C11419  -1.106   1.588  10.409 -0.1358  0.7731  0.3687
  826MOL0    Cl11420  -0.928   1.630  10.438 -0.1470  0.1011  0.2011
  826MOL0     C11421  -0.534   1.767   9.631 -0.1734  0.6104  0.0937
  826MOL0     C11422  -0.401   1.742   9.586  0.4177  0.1373 -0.6661
  826MOL0     O11423  -0.253   1.678   9.189 -0.3088  0.5749 -0.2207
  826MOL0     C11424   0.007   1.709   9.122 -0.2023 -0.5055  0.0400
  826MOL0     C11425   0.141   1.690   9.085 -0.0575 -0.1869 -0.1018
  826MOL0     N11426   0.873   1.788   9.151  0.1191 -0.0088  0.3689
  826MOL0     N11427   0.983   1.840   9.189 -0.2618 -0.1993 -0.7816
  826MOL0     C11428   2.076   2.232   8.998 -0.0201 -0.3285 -0.9120
  826MOL0     C11429   2.182   2.266   8.910  0.4182 -0.5135 -0.4421
  826MOL0     C11430   2.362   2.467   8.557  0.1333  0.0814 -0.5542
  826MOL0     C11431   2.325   2.506   8.429 -0.2080  0.8633  0.1713
  826MOL0     C11432   2.421   2.524   8.330  0.1187 -0.7419  0.5405
  826MOL0     C11433   2.555   2.535   8.362  0.2609  0.6352  0.9441
  826MOL0     O11434   2.664   2.555   8.286 -0.9330 -0.2037 -0.4156
  826MOL0     C11435   2.652   2.569   8.146  0.7393  0.1942 -0.3141
  826MOL0     C11436   2.790   2.562   8.089 -1.0327  0.1444 -0.5523
  826MOL0     C11437   2.792   2.620   7.954  1.2259  0.1165 -1.2619
  826MOL0     C11438   2.923   2.587   7.887  0.2035  0.1382  0.1753
  826MOL0     C11439   2.929   2.610   7.737  0.2386 -0.0385  0.3596
  826MOL0     C11440   2.928   2.620   7.617  0.1277 -0.1365  0.2765
  826MOL0     C11441   2.592   2.512   8.494 -0.3595 -0.0694  0.0103
  826MOL0     C11442   2.495   2.461   8.583 -0.0963  0.1697  0.7576
  826MOL0     H11443   2.176   2.597   8.968 -0.5095  0.0053  2.1794
  826MOL0     H11444   1.975   2.529   9.096 -1.7578 -3.2553  3.5582
  826MOL0     H11445   1.868   2.097   9.146 -0.1858 -1.3076  2.3246
  826MOL0     H11446   1.989   2.178   9.244  2.0127  0.3872 -2.4413
  826MOL0     H11447   1.795   2.125   9.387 -0.2359 -2.6772 -2.4068
  826MOL0     H11448   1.772   2.299   9.350  0.2817  0.8544 -1.9877
  826MOL0     H11449   1.556   2.179   9.321 -3.4317 -4.3271 -1.9627
  826MOL0     H11450   1.606   2.250   9.169 -2.4645 -2.9983 -2.9311
  826MOL0     H11451   1.699   1.993   9.125  2.1533 -1.5440  2.5201
  826MOL0     H11452   1.624   1.971   9.285  1.6992  0.0407  0.2377
  826MOL0     H11453   1.412   2.043   9.188  0.9007  2.6331  0.4052
  826MOL0     H11454   1.487   2.067   9.034  0.7493  0.6141 -0.5746
  826MOL0     H11455   1.521   1.829   9.002 -1.1488 -0.8574 -0.0367
  826MOL0     H11456   1.492   1.788   9.176 -2.7181  1.5357  2.5675
  826MOL0     H11457   1.270   1.881   9.010 -0.5027 -1.0736  0.6348
  826MOL0     H11458   1.312   1.717   8.999  1.1967 -0.8127  0.2271
  826MOL0     H11459   1.236   1.871   9.257 -1.7325  1.1781 -1.0845
  826MOL0     H11460   1.265   1.693   9.243  3.5957  0.7842 -0.5540
  826MOL0     H11461   1.104   1.550   9.107  2.7413  1.3488  1.2616
  826MOL0     H11462   0.822   1.508   8.989  2.4978  0.7074  0.0909
  826MOL0     H11463   0.803   1.484   9.166  2.9441 -1.4045 -1.1054
  826MOL0     H11464   0.646   1.695   9.018 -1.4701  0.2744  1.3486
  826MOL0     H11465   0.644   1.657   9.191  1.6608  2.5369  0.0054
  826MOL0     H11466   0.551   1.456   9.168  3.3513 -1.1530 -0.9930
  826MOL0     H11467   0.582   1.449   8.989 -0.1079 -0.8413  1.2231
  826MOL0     H11468   0.355   1.495   9.003 -0.5349 -1.3000  2.5376
  826MOL0     H11469   0.433   1.659   8.983  3.1151 -0.2399  0.2011
  826MOL0     H11470   0.253   1.634   9.407  2.3488  1.3221 -1.0905
  826MOL0     H11471   0.011   1.801   9.536  0.1255 -0.6348  3.8808
  826MOL0     H11472  -0.029   1.624   9.549  0.1719  2.3457  2.7237
  826MOL0     H11473   0.128   1.672   9.568 -1.2991 -3.6861  1.1447
  826MOL0     H11474  -0.449   1.771   9.260 -2.0524  0.4441 -0.0220
  826MOL0     H11475  -0.697   1.764   9.337 -0.4346  2.8373  0.2469
  826MOL0     H11476  -0.760   1.694   9.768  1.5696 -0.5940 -0.5580
  826MOL0     H11477  -0.743   1.867   9.747  1.1173 -1.7959  0.4287
  826MOL0     H11478  -0.981   1.902   9.730  0.6947 -0.2548 -0.4376
  826MOL0     H11479  -1.008   1.728   9.684  1.4557 -1.2610 -0.1064
  826MOL0     H11480  -0.889   1.795   9.956  1.1427 -1.4190  1.3979
  826MOL0     H11481  -0.966   1.644   9.902  2.3028  0.1268 -3.4690
  826MOL0     H11482  -1.113   1.912   9.905 -0.0664 -0.7941  0.3775
  826MOL0     H11483  -1.177   1.740   9.915  0.0293  1.2641 -3.2249
  826MOL0     H11484  -1.207   1.858  10.131 -1.5716 -2.5733 -1.5272
  826MOL0     H11485  -1.022   1.879  10.136  1.4507 -1.6354 -0.3059
  826MOL0     H11486  -1.138   1.598  10.112 -2.3971  2.6150 -2.0243
  826MOL0     H11487  -0.989   1.649  10.176 -1.4025 -3.8524 -1.7350
  826MOL0     H11488  -1.254   1.656  10.297  0.2846  1.0577 -2.3614
  826MOL0     H11489  -1.146   1.792  10.350 -0.2527  0.4710  0.2544
  826MOL0     H11490  -1.109   1.482  10.383  0.7300  0.6089  0.8869
  826MOL0     H11491  -1.159   1.602  10.504  0.8821  0.0859  1.0630
  826MOL0     H11492  -0.546   1.782   9.737 -1.4297  0.5700 -0.0369
  826MOL0     H11493  -0.326   1.725   9.663  0.6984 -0.0156 -0.9685
  826MOL0     H11494  -0.059   1.735   9.040  0.5066  0.6762 -0.1937
  826MOL0     H11495   0.173   1.708   8.982  2.5653  0.3760  0.7411
  826MOL0     H11496   2.064   2.125   8.989 -3.0660 -0.0006 -1.9568
  826MOL0     H11497   2.224   2.183   8.854  1.1446  1.4759 -3.0811
  826MOL0     H11498   2.217   2.513   8.426 -0.3734  1.2826  3.3839
  826MOL0     H11499   2.376   2.555   8.236 -1.5227 -1.1316  1.1560
  826MOL0     H11500   2.578   2.497   8.111 -0.9562 -1.5676  5.7124
  826MOL0     H11501   2.609   2.670   8.139  0.8397  0.3346  0.9652
  826MOL0     H11502   2.824   2.458   8.099 -0.9168  0.1839 -0.5341
  826MOL0     H11503   2.853   2.632   8.145 -0.8722  0.1574 -0.7468
  826MOL0     H11504   2.781   2.729   7.963  3.0509  0.2483 -0.1212
  826MOL0     H11505   2.702   2.587   7.902  0.3024 -1.6656  1.2742
  826MOL0     H11506   2.939   2.480   7.905  1.4506  0.4750  1.2459
  826MOL0     H11507   3.006   2.642   7.932 -0.6750 -0.2543  2.4733
  826MOL0     H11508   2.921   2.613   7.510 -0.7957 -0.3294  0.3398
  826MOL0     H11509   2.696   2.526   8.519  0.3433 -0.9885 -2.1596
  826MOL0     H11510   2.522   2.423   8.681 -0.0191 -0.4408  0.5098
  827MOL0     O11511   9.115   5.607   8.698 -0.1804  0.1257 -0.2731
  827MOL0     C11512   9.143   5.600   8.577 -0.6927  0.5169  0.0597
  827MOL0     O11513   9.056   5.576   8.478  0.2176  0.3651  0.3444
  827MOL0     C11514   8.926   5.551   8.514  0.4114  0.6834  0.2850
  827MOL0     C11515   8.892   5.426   8.530 -0.5692  0.2476  0.1441
  827MOL0     C11516   8.767   5.394   8.576 -0.2621  1.7073 -0.4133
  827MOL0     C11517   8.664   5.489   8.597 -0.3702  0.4733 -0.3232
  827MOL0     O11518   8.535   5.445   8.619 -0.4449  0.2491  0.4961
  827MOL0     C11519   8.445   5.532   8.694  0.8678  0.2709  0.4879
  827MOL0     C11520   8.303   5.487   8.677 -0.6756 -0.1942 -0.1900
  827MOL0     C11521   8.216   5.567   8.756  0.2086 -0.1426 -0.3658
  827MOL0     C11522   8.069   5.570   8.736 -0.1280  0.6917  0.2552
  827MOL0     C11523   7.986   5.594   8.864  0.4605  0.9197  0.3757
  827MOL0     C11524   7.984   5.728   8.905 -0.4410  0.2327  0.2649
  827MOL0     C11525   7.906   5.743   9.037  0.0032 -0.4796 -0.3728
  827MOL0     C11526   7.760   5.698   9.019  0.4911  1.0273 -0.0669
  827MOL0     N11527   7.667   5.754   9.121 -0.6036  0.1140  0.4275
  827MOL0     C11528   7.642   5.719   9.257 -0.7921  0.3524 -0.7669
  827MOL0     C11529   7.526   5.788   9.292 -0.3943  0.2275  0.4820
  827MOL0     C11530   7.451   5.758   9.418  0.6532 -0.5552  0.4989
  827MOL0     C11531   7.347   5.643   9.400 -0.0014 -0.0680 -1.0426
  827MOL0     C11532   7.260   5.643   9.277  0.3253 -0.4181  0.5810
  827MOL0     C11533   7.163   5.757   9.288 -0.1095  0.1051  0.9799
  827MOL0     O11534   7.091   5.761   9.413 -0.2592 -0.4636  0.0424
  827MOL0     C11535   6.976   5.838   9.415  0.5841 -0.0183 -0.8526
  827MOL0     C11536   6.953   5.945   9.325 -0.2515  1.1798  0.1829
  827MOL0     C11537   6.831   6.013   9.317  0.3108  0.1314 -0.6199
  827MOL0     C11538   6.826   6.134   9.230 -0.1912 -0.7721 -0.0727
  827MOL0     C11539   6.721   5.970   9.395  0.2803 -0.8636  0.3130
  827MOL0     C11540   6.579   6.030   9.397  0.3476  1.3161 -0.6676
  827MOL0     O11541   6.484   5.965   9.476 -0.4378  0.1348 -0.3925
  827MOL0     C11542   6.361   6.019   9.504 -0.7886  0.3372 -0.8218
  827MOL0     C11543   6.251   5.927   9.531  1.7715 -0.6157 -0.1470
  827MOL0     C11544   6.123   5.983   9.578  0.1684  0.7602  0.6831
  827MOL0     C11545   6.106   6.112   9.596  0.3888  0.3202  0.1365
  827MOL0     O11546   5.990   6.158   9.652  0.9355  0.0872  0.0946
  827MOL0     C11547   5.865   6.100   9.605  1.0108 -0.9973  0.9331
  827MOL0     C11548   5.770   6.229   9.610 -0.9343  0.2413 -0.2780
  827MOL0     C11549   5.638   6.201   9.549  0.0760  1.3948 -0.3570
  827MOL0     C11550   5.546   6.330   9.569  0.7669  0.9499  0.0122
  827MOL0     C11551   5.404   6.296   9.524 -0.1471 -0.5372  0.5966
  827MOL0     C11552   5.300   6.402   9.581  0.5864 -0.0222 -0.3192
  827MOL0     C11553   5.161   6.388   9.520  0.2853  0.6722  0.8696
  827MOL0     C11554   5.057   6.443   9.612 -0.1602  0.3566 -1.0681
  827MOL0    Cl11555   4.893   6.427   9.532 -0.1170  0.5615 -0.0982
  827MOL0     C11556   6.212   6.192   9.580 -0.0801 -0.0196 -0.5003
  827MOL0     C11557   6.338   6.158   9.530 -0.4609  0.7693  0.2622
  827MOL0     O11558   6.549   6.126   9.324 -0.4103  0.0868 -0.8206
  827MOL0     C11559   6.751   5.873   9.497  0.7107  0.3204  0.1596
  827MOL0     C11560   6.868   5.808   9.511 -0.6888 -1.0332 -0.4631
  827MOL0     N11561   7.479   5.846   9.177 -0.8341  0.5964  0.4949
  827MOL0     N11562   7.561   5.826   9.081 -0.1092  0.4717 -0.0044
  827MOL0     C11563   8.705   5.625   8.594  0.7525  0.5994 -0.3645
  827MOL0     C11564   8.835   5.653   8.549 -0.2031 -0.6361 -0.3422
  827MOL0     C11565   9.288   5.616   8.547 -0.4723  0.7956 -0.2187
  827MOL0     C11566   9.379   5.633   8.657  0.1010  1.6929 -0.5654
  827MOL0     C11567   9.510   5.645   8.617  0.9665 -0.2076  0.6869
  827MOL0     C11568   9.558   5.664   8.486 -0.4710 -0.1255 -0.3770
  827MOL0     O11569   9.692   5.683   8.464 -0.1348 -0.3266  0.0764
  827MOL0     C11570   9.760   5.579   8.391  0.1556  0.2608  0.3316
  827MOL0     C11571   9.902   5.623   8.363 -0.2025  1.1321  0.3976
  827MOL0     C11572   9.976   5.494   8.314 -0.4408  0.3120  0.2900
  827MOL0     C11573  10.032   5.507   8.175  0.3931  0.1771 -0.5148
  827MOL0     C11574  10.120   5.397   8.154  0.4016 -0.0331  0.3582
  827MOL0     C11575  10.206   5.315   8.128  0.2699 -0.7516 -0.0422
  827MOL0     C11576   9.461   5.662   8.390  0.6133  0.2934 -0.5364
  827MOL0     C11577   9.325   5.635   8.418 -0.0357 -0.1380 -0.0419
  827MOL0     H11578   8.963   5.346   8.511  0.7990  1.3376  0.4569
  827MOL0     H11579   8.741   5.289   8.587 -2.6351  2.3030  0.0886
  827MOL0     H11580   8.464   5.535   8.802  0.9550 -2.0064  0.5677
  827MOL0     H11581   8.456   5.633   8.653 -2.0560  0.6378  0.4344
  827MOL0     H11582   8.262   5.488   8.576 -0.8833  0.4085 -0.1007
  827MOL0     H11583   8.299   5.389   8.727 -1.3411  0.5930  1.3551
  827MOL0     H11584   8.238   5.566   8.864  3.2176 -1.0044 -0.8998
  827MOL0     H11585   8.257   5.666   8.732 -1.4657 -0.1473 -3.7125
  827MOL0     H11586   8.045   5.636   8.653  0.9717  0.1823 -0.5014
  827MOL0     H11587   8.036   5.470   8.707  2.2900 -0.0046 -0.3415
  827MOL0     H11588   7.892   5.551   8.828  0.2224  2.3242 -0.7723
  827MOL0     H11589   8.021   5.529   8.945  0.2720  0.5469  0.1623
  827MOL0     H11590   8.085   5.769   8.912  0.3138 -1.4419 -0.2798
  827MOL0     H11591   7.930   5.780   8.824  3.6126  0.3743 -2.6737
  827MOL0     H11592   7.958   5.688   9.116  1.1752  1.9491  0.6392
  827MOL0     H11593   7.910   5.847   9.070 -0.3160 -0.1351 -1.3811
  827MOL0     H11594   7.755   5.589   9.030 -0.0168  1.0871  0.2753
  827MOL0     H11595   7.716   5.716   8.920 -2.5038  0.0636  0.9902
  827MOL0     H11596   7.693   5.661   9.333 -1.2542  0.6675 -0.2041
  827MOL0     H11597   7.527   5.727   9.490  1.0422  1.5707  1.0684
  827MOL0     H11598   7.404   5.852   9.449 -0.4160 -1.1460  0.6829
  827MOL0     H11599   7.275   5.642   9.482  2.4294 -0.5797  1.2297
  827MOL0     H11600   7.401   5.549   9.408  1.3551  0.5295 -2.4078
  827MOL0     H11601   7.199   5.552   9.283  1.0192 -0.9113  0.2753
  827MOL0     H11602   7.315   5.643   9.182 -0.1908  2.3132  0.2202
  827MOL0     H11603   7.096   5.752   9.202  1.1175  1.1439 -0.0802
  827MOL0     H11604   7.227   5.846   9.278 -2.0081  1.7775  2.8655
  827MOL0     H11605   7.030   5.979   9.256 -1.5669  2.6993 -0.5949
  827MOL0     H11606   6.735   6.145   9.170  1.5999  0.9683 -2.6932
  827MOL0     H11607   6.842   6.222   9.292 -1.3104 -0.3083 -0.4181
  827MOL0     H11608   6.895   6.132   9.145  0.2458  0.1941  0.2575
  827MOL0     H11609   6.264   5.819   9.529 -1.2605 -1.1044  1.0476
  827MOL0     H11610   6.050   5.913   9.617  0.0764  1.7949  2.4950
  827MOL0     H11611   5.871   6.063   9.502 -0.3815  0.3540  0.3170
  827MOL0     H11612   5.826   6.024   9.673  1.9802  1.2604  4.2688
  827MOL0     H11613   5.763   6.259   9.715 -2.5102  0.2572 -0.3523
  827MOL0     H11614   5.820   6.308   9.554  1.4893 -3.5799 -4.1754
  827MOL0     H11615   5.592   6.111   9.591  2.1566  0.2297 -0.4522
  827MOL0     H11616   5.660   6.188   9.443  1.4740 -0.5952  0.1110
  827MOL0     H11617   5.552   6.370   9.670  2.3782  2.1493 -0.5165
  827MOL0     H11618   5.589   6.413   9.512  0.6152 -0.1372 -1.7764
  827MOL0     H11619   5.365   6.199   9.553  0.3462 -0.2207  2.4989
  827MOL0     H11620   5.394   6.308   9.416 -1.4233  2.3924  0.9401
  827MOL0     H11621   5.281   6.377   9.686 -1.6818 -1.1133 -0.9169
  827MOL0     H11622   5.338   6.504   9.568 -0.7208  0.3857 -1.2240
  827MOL0     H11623   5.131   6.285   9.498 -0.3135  1.3550 -1.8752
  827MOL0     H11624   5.157   6.445   9.427  2.4374  0.8807  0.8581
  827MOL0     H11625   5.072   6.546   9.646  0.7529 -0.9301  2.9874
  827MOL0     H11626   5.057   6.386   9.706 -2.2084 -0.6111 -1.5937
  827MOL0     H11627   6.195   6.294   9.611 -1.3882 -1.2066  3.1558
  827MOL0     H11628   6.419   6.230   9.519 -0.4133  0.4834 -1.4579
  827MOL0     H11629   6.677   5.830   9.564 -0.4350  1.5836 -0.2480
  827MOL0     H11630   6.883   5.735   9.590  0.8492  0.0415  0.2746
  827MOL0     H11631   8.644   5.711   8.619 -1.9187 -0.3325 -3.1033
  827MOL0     H11632   8.873   5.754   8.547  1.5591 -1.2153  0.9852
  827MOL0     H11633   9.339   5.628   8.757 -3.7734 -0.6289 -1.9967
  827MOL0     H11634   9.588   5.653   8.693  0.5476 -2.1050  1.3926
  827MOL0     H11635   9.756   5.484   8.445  0.1923  1.5373  2.7156
  827MOL0     H11636   9.712   5.562   8.294  2.2147 -1.2606 -0.5016
  827MOL0     H11637   9.944   5.662   8.456  0.2171 -0.2228  0.7966
  827MOL0     H11638   9.902   5.699   8.284 -0.0435 -1.9997 -2.8578
  827MOL0     H11639   9.919   5.401   8.323 -0.3040  0.4011  2.8041
  827MOL0     H11640  10.062   5.490   8.381 -1.5080  0.6944  1.7247
  827MOL0     H11641  10.101   5.591   8.177  1.5773 -0.6633 -2.4702
  827MOL0     H11642   9.952   5.505   8.100 -2.2514 -1.3107  2.1075
  827MOL0     H11643  10.290   5.251   8.108  1.4678  0.0873  1.9811
  827MOL0     H11644   9.501   5.671   8.289 -0.9558 -1.0895 -1.3323
  827MOL0     H11645   9.257   5.632   8.333  0.3544 -3.2086 -0.3606
  828MOL0     O11646   0.537  11.184   9.522 -0.7410 -0.1308 -0.8669
  828MOL0     C11647   0.524  11.079   9.584  0.7965  0.1374 -0.2274
  828MOL0     O11648   0.616  11.010   9.658 -0.2808 -0.2619  0.0535
  828MOL0     C11649   0.742  11.064   9.651 -0.4273  0.8429 -0.0563
  828MOL0     C11650   0.785  11.147   9.752  0.9918 -0.0379 -0.4778
  828MOL0     C11651   0.911  11.200   9.740  0.4954  0.1060  0.3134
  828MOL0     C11652   1.007  11.161   9.646  0.4148  0.0264  0.4805
  828MOL0     O11653   1.139  11.200   9.656  0.3836 -0.0351  0.6787
  828MOL0     C11654   1.204  11.254   9.542 -0.0474 -0.1197 -0.2466
  828MOL0     C11655   1.351  11.240   9.567 -0.2882 -0.8604  0.1410
  828MOL0     C11656   1.413  11.321   9.681 -0.4339 -0.4975  0.0046
  828MOL0     C11657   1.564  11.265   9.714 -0.4252 -0.1641  0.6446
  828MOL0     C11658   1.613  11.347   9.833 -0.4122 -0.2001 -0.1075
  828MOL0     C11659   1.751  11.311   9.882 -1.3005  1.2217 -0.2051
  828MOL0     C11660   1.869  11.354   9.784 -0.4154 -0.9171 -0.1371
  828MOL0     C11661   1.999  11.278   9.796  0.2927  0.4176 -0.6913
  828MOL0     N11662   2.058  11.257   9.929  0.7144 -0.9286 -0.0981
  828MOL0     C11663   2.070  11.347  10.030 -0.3475 -0.4205 -0.1356
  828MOL0     C11664   2.148  11.283  10.125  0.7092 -0.7082 -0.4112
  828MOL0     C11665   2.211  11.348  10.248 -0.1236 -0.3752  0.1125
  828MOL0     C11666   2.353  11.388  10.236  0.7510 -0.0844 -0.0191
  828MOL0     C11667   2.416  11.420  10.374 -0.3160  0.2058 -0.1755
  828MOL0     C11668   2.551  11.484  10.345  0.9829  1.0323 -0.0657
  828MOL0     O11669   2.628  11.369  10.313  1.0409  0.0370 -0.1857
  828MOL0     C11670   2.764  11.406  10.300 -0.6008  0.6474  0.1611
  828MOL0     C11671   2.848  11.454  10.402  0.0298 -0.1846 -0.1158
  828MOL0     C11672   2.985  11.479  10.385 -0.3446  0.0474  0.1620
  828MOL0     C11673   3.061  11.548  10.499 -0.1322  0.1221 -0.2482
  828MOL0     C11674   3.035  11.474  10.251 -0.2471 -0.0884  0.1162
  828MOL0     C11675   3.188  11.492  10.220 -0.3951  0.3853  0.6946
  828MOL0     O11676   3.224  11.503  10.085  0.0203  0.8633  0.1509
  828MOL0     C11677   3.350  11.467  10.049 -0.2003  0.8556 -0.2300
  828MOL0     C11678   3.408  11.344  10.071 -1.0758 -0.0957 -0.3588
  828MOL0     C11679   3.549  11.316  10.041  0.7546 -0.8227  1.3045
  828MOL0     C11680   3.623  11.415   9.978 -0.2278 -0.2014  0.8889
  828MOL0     O11681   3.747  11.374   9.936 -0.6711  0.0130 -0.6030
  828MOL0     C11682   3.820  11.463   9.856 -0.3191  0.9157  1.1589
  828MOL0     C11683   3.790  11.438   9.707 -0.3987  0.4642  0.3153
  828MOL0     C11684   3.842  11.562   9.634 -0.4878 -0.2086  0.8359
  828MOL0     C11685   3.820  11.534   9.477 -0.6529 -0.1319  0.3908
  828MOL0     C11686   3.845  11.653   9.381 -0.3262 -0.1662 -0.4343
  828MOL0     C11687   3.814  11.621   9.239 -0.3285  0.0785 -0.5422
  828MOL0     C11688   3.876  11.490   9.186  0.1858 -0.2122 -0.3789
  828MOL0     C11689   3.842  11.477   9.045 -0.3561  0.5257 -0.2282
  828MOL0    Cl11690   3.914  11.598   8.943 -0.0134 -0.2719 -0.2529
  828MOL0     C11691   3.559  11.538   9.941  0.6070 -0.5588 -1.1339
  828MOL0     C11692   3.425  11.562   9.973 -0.2650  0.1615  0.1995
  828MOL0     O11693   3.272  11.472  10.309 -0.4789 -0.7827  0.5850
  828MOL0     C11694   2.950  11.439  10.143 -0.2854 -0.0450 -0.4725
  828MOL0     C11695   2.815  11.406  10.172 -0.5950 -0.2967 -1.1974
  828MOL0     N11696   2.177  11.155  10.083 -0.1371 -0.9999  0.0333
  828MOL0     N11697   2.124  11.144   9.964  0.8370 -0.2303 -0.3289
  828MOL0     C11698   0.957  11.075   9.538 -0.0106  0.2718 -0.0673
  828MOL0     C11699   0.824  11.033   9.540  0.0710 -0.4313  0.3779
  828MOL0     C11700   0.389  11.027   9.604  1.4472 -0.7203  0.5587
  828MOL0     C11701   0.292  11.051   9.501  0.1931  0.5149  0.1197
  828MOL0     C11702   0.163  11.001   9.514 -0.8223 -0.3793 -0.3933
  828MOL0     C11703   0.122  10.930   9.627  0.2160  0.1881  0.1410
  828MOL0     O11704  -0.009  10.890   9.658 -0.1042 -0.3652  0.6600
  828MOL0     C11705  -0.108  10.956   9.573 -0.7664  0.2936 -0.1122
  828MOL0     C11706  -0.228  10.959   9.666 -0.3078 -0.2831  0.7976
  828MOL0     C11707  -0.337  11.062   9.625 -0.5433 -0.4453  0.3942
  828MOL0     C11708  -0.441  10.988   9.547  0.2593 -0.4240  0.5852
  828MOL0     C11709  -0.409  10.942   9.408 -0.5593 -0.8550  0.7078
  828MOL0     C11710  -0.377  10.903   9.299 -0.5401  0.8261  0.2819
  828MOL0     C11711   0.212  10.910   9.728 -0.3636 -0.4255 -0.2237
  828MOL0     C11712   0.348  10.948   9.718 -1.0614 -0.4471  0.0321
  828MOL0     H11713   0.720  11.181   9.832  0.8864 -0.8879 -0.1941
  828MOL0     H11714   0.937  11.272   9.817 -1.0219 -0.3637  1.3195
  828MOL0     H11715   1.186  11.190   9.455  0.4193 -1.5247  0.6619
  828MOL0     H11716   1.173  11.358   9.527 -1.8161  0.3407  4.8271
  828MOL0     H11717   1.384  11.139   9.591 -0.5084 -1.2963 -1.2794
  828MOL0     H11718   1.401  11.272   9.475 -2.0263  3.4890  0.4733
  828MOL0     H11719   1.431  11.419   9.634 -0.0914 -2.2694 -3.9923
  828MOL0     H11720   1.348  11.334   9.768 -0.1244 -1.7101  0.4367
  828MOL0     H11721   1.560  11.159   9.738  1.5501 -0.1572  1.1584
  828MOL0     H11722   1.629  11.278   9.627  1.6640  2.5206  2.4277
  828MOL0     H11723   1.610  11.452   9.804  1.1181  0.4428  1.8398
  828MOL0     H11724   1.541  11.335   9.914  1.3629 -3.7994  1.1640
  828MOL0     H11725   1.783  11.357   9.976  0.2924  0.4919 -0.3549
  828MOL0     H11726   1.748  11.205   9.910 -1.1320  0.8238 -1.6376
  828MOL0     H11727   1.829  11.352   9.682  1.6045  3.7481 -1.3028
  828MOL0     H11728   1.890  11.458   9.811  0.5042 -1.4189  1.2229
  828MOL0     H11729   2.076  11.331   9.740  0.6233  1.5441  0.7609
  828MOL0     H11730   1.980  11.181   9.749 -1.2128 -0.0278  0.7238
  828MOL0     H11731   2.035  11.450  10.029  1.4787  0.2349 -0.0655
  828MOL0     H11732   2.155  11.441  10.260  2.1975  1.0128  0.8974
  828MOL0     H11733   2.185  11.282  10.332 -1.7150  0.6635  0.4850
  828MOL0     H11734   2.364  11.470  10.164  1.4838 -1.0912 -1.0681
  828MOL0     H11735   2.397  11.298  10.192  1.1387 -1.0397  2.1693
  828MOL0     H11736   2.423  11.332  10.439 -0.2405 -0.2749 -0.8213
  828MOL0     H11737   2.352  11.492  10.426 -0.7060  2.7271 -3.8119
  828MOL0     H11738   2.586  11.530  10.438 -0.7555 -1.0039  1.7203
  828MOL0     H11739   2.536  11.553  10.262 -0.3866  0.0207 -0.7043
  828MOL0     H11740   2.813  11.460  10.504 -0.3072 -1.9774 -0.0927
  828MOL0     H11741   2.998  11.567  10.586 -0.3702  1.6575 -0.7256
  828MOL0     H11742   3.142  11.476  10.514 -1.3027 -1.4881 -1.2987
  828MOL0     H11743   3.094  11.651  10.480 -1.2508  0.3546 -0.9944
  828MOL0     H11744   3.352  11.272  10.129  1.3259 -0.4087  1.7330
  828MOL0     H11745   3.601  11.222  10.059  3.6405  0.2296 -0.7496
  828MOL0     H11746   3.805  11.565   9.894 -2.8796  0.0883  2.6449
  828MOL0     H11747   3.923  11.430   9.872 -0.1904  1.2030  0.9453
  828MOL0     H11748   3.838  11.349   9.666 -2.4628 -0.4733 -0.2431
  828MOL0     H11749   3.682  11.420   9.696 -0.0371 -1.3819 -0.5067
  828MOL0     H11750   3.949  11.571   9.651 -0.6011  0.3763  1.2844
  828MOL0     H11751   3.787  11.650   9.668  0.8286  0.9071  0.1282
  828MOL0     H11752   3.890  11.453   9.454  1.1392  1.7723 -1.2670
  828MOL0     H11753   3.721  11.488   9.470 -1.1606  0.7131  1.5348
  828MOL0     H11754   3.948  11.690   9.379 -0.7256  1.1044  0.8334
  828MOL0     H11755   3.777  11.734   9.410 -0.6825 -1.5503  3.0384
  828MOL0     H11756   3.705  11.621   9.233 -0.2426  0.2314 -3.9580
  828MOL0     H11757   3.843  11.714   9.190 -0.3152  0.8545  0.8925
  828MOL0     H11758   3.834  11.407   9.243 -0.5304 -0.6480 -1.5120
  828MOL0     H11759   3.984  11.484   9.201  0.0541 -0.7254  0.4597
  828MOL0     H11760   3.733  11.477   9.037 -0.4797 -0.4372  1.0447
  828MOL0     H11761   3.871  11.376   9.015 -1.3402 -0.1199  0.8946
  828MOL0     H11762   3.619  11.615   9.894  0.0726  1.7012  1.5955
  828MOL0     H11763   3.381  11.648   9.924  1.1988  0.3784 -0.7905
  828MOL0     H11764   2.980  11.430  10.039  0.4896 -0.2160 -0.2414
  828MOL0     H11765   2.741  11.378  10.097 -2.6329  0.7854  0.2989
  828MOL0     H11766   1.026  11.044   9.461  2.4632  0.2743  1.9888
  828MOL0     H11767   0.782  10.973   9.459 -0.1344 -0.1566  0.2799
  828MOL0     H11768   0.314  11.119   9.419 -1.7277 -1.1382 -1.8818
  828MOL0     H11769   0.094  11.024   9.434  0.0688 -0.0756 -1.0819
  828MOL0     H11770  -0.083  11.056   9.538 -1.5494  0.1324 -1.1818
  828MOL0     H11771  -0.125  10.888   9.489  1.5130  0.9638 -1.1842
  828MOL0     H11772  -0.201  10.992   9.767  0.0217  0.2781  0.5321
  828MOL0     H11773  -0.267  10.857   9.674  0.0204 -0.6133 -1.2911
  828MOL0     H11774  -0.293  11.134   9.555  0.8064 -0.9381  0.6966
  828MOL0     H11775  -0.372  11.105   9.719  1.1852 -0.4339  1.0641
  828MOL0     H11776  -0.527  11.056   9.543  1.7633  1.6151  1.2617
  828MOL0     H11777  -0.469  10.910   9.619  1.4519  1.1708  2.8876
  828MOL0     H11778  -0.328  10.867   9.211  1.3883  2.4743  0.5926
  828MOL0     H11779   0.174  10.853   9.813 -1.1935  1.7377  0.9274
  828MOL0     H11780   0.408  10.931   9.808 -0.4523  2.2192  0.2205
  829MOL0     O11781   8.090   2.525   8.923  0.6508  0.6442  0.0318
  829MOL0     C11782   8.111   2.403   8.942 -0.5283  0.1810 -0.5601
  829MOL0     O11783   8.013   2.314   8.965  0.4748 -0.2761 -0.5734
  829MOL0     C11784   7.875   2.338   8.997  0.1436  0.5295  0.1387
  829MOL0     C11785   7.815   2.460   8.969 -0.1082  0.2293 -0.4086
  829MOL0     C11786   7.675   2.475   8.995  0.4344 -0.1116 -0.7459
  829MOL0     C11787   7.598   2.375   9.051  0.8266  0.6768 -0.5960
  829MOL0     O11788   7.469   2.391   9.054  0.8704 -0.3295 -0.2725
  829MOL0     C11789   7.382   2.279   9.079  0.4002  0.0395 -0.3351
  829MOL0     C11790   7.242   2.340   9.074  1.1660  0.6762 -0.3833
  829MOL0     C11791   7.125   2.247   9.114  0.1363 -0.1432 -0.9492
  829MOL0     C11792   6.988   2.308   9.068 -0.9389  0.3604  0.2180
  829MOL0     C11793   6.868   2.214   9.090  0.5973  0.2008 -0.4945
  829MOL0     C11794   6.860   2.181   9.241 -0.7075 -0.5179  0.1572
  829MOL0     C11795   6.728   2.124   9.287 -0.7002  0.4453 -0.3563
  829MOL0     C11796   6.693   1.985   9.242 -0.7877  0.8794 -0.2240
  829MOL0     N11797   6.553   1.951   9.269 -1.0518 -0.0433  0.0319
  829MOL0     C11798   6.490   1.941   9.396 -0.6824 -0.1505 -1.1125
  829MOL0     C11799   6.373   1.879   9.365 -0.3225  0.6034 -0.4399
  829MOL0     C11800   6.262   1.824   9.447 -0.2424  0.2192 -0.9467
  829MOL0     C11801   6.271   1.674   9.471 -0.7850 -0.0055 -0.8830
  829MOL0     C11802   6.164   1.615   9.562  0.2733  0.0888  0.2191
  829MOL0     C11803   6.029   1.610   9.502  0.7536 -0.5786 -0.7063
  829MOL0     O11804   5.957   1.525   9.593 -0.4019 -0.0708 -0.2547
  829MOL0     C11805   5.821   1.482   9.562 -0.4878 -0.1394 -0.2223
  829MOL0     C11806   5.755   1.505   9.438 -0.7106 -0.5208 -0.1078
  829MOL0     C11807   5.635   1.464   9.405  0.4639 -0.2328 -0.1082
  829MOL0     C11808   5.582   1.499   9.261 -0.3603  0.4112 -0.2214
  829MOL0     C11809   5.574   1.370   9.495  0.5209 -0.1075  0.2888
  829MOL0     C11810   5.443   1.298   9.465 -0.3682  0.4859  0.2610
  829MOL0     O11811   5.404   1.288   9.333  0.0404 -0.2863 -0.1618
  829MOL0     C11812   5.285   1.219   9.296 -0.5709 -0.6274  0.4627
  829MOL0     C11813   5.168   1.217   9.376 -0.0689 -0.5277  0.6929
  829MOL0     C11814   5.047   1.181   9.310 -1.1417  0.2342  0.1157
  829MOL0     C11815   5.046   1.145   9.175  0.4175 -0.0023 -0.6982
  829MOL0     O11816   4.931   1.098   9.112  0.4307 -0.0271  0.0813
  829MOL0     C11817   4.807   1.065   9.188 -0.2213 -0.4493  0.1696
  829MOL0     C11818   4.725   0.961   9.111 -0.8505 -0.1917  0.8611
  829MOL0     C11819   4.599   0.925   9.199 -0.5973  0.0181 -0.6399
  829MOL0     C11820   4.477   0.877   9.124  0.7091  1.2510  0.1694
  829MOL0     C11821   4.464   0.734   9.068 -0.4779 -0.3749  0.9281
  829MOL0     C11822   4.412   0.626   9.158  0.3201  0.2620 -0.2949
  829MOL0     C11823   4.417   0.485   9.088  0.5513  0.7720  0.5719
  829MOL0     C11824   4.325   0.382   9.143 -0.5331 -0.1758 -0.3046
  829MOL0    Cl11825   4.317   0.358   9.324  0.0249 -0.0920 -0.2100
  829MOL0     C11826   5.169   1.140   9.100 -0.2934  1.0730 -0.4847
  829MOL0     C11827   5.284   1.180   9.160 -1.3087 -0.8752  0.1169
  829MOL0     O11828   5.393   1.234   9.552 -0.0594 -0.3693  1.0253
  829MOL0     C11829   5.642   1.332   9.620  0.1725 -0.7202  1.0081
  829MOL0     C11830   5.753   1.402   9.656 -0.5646 -0.1840  0.6477
  829MOL0     N11831   6.367   1.857   9.226 -0.4274 -0.5235  0.4968
  829MOL0     N11832   6.477   1.893   9.168 -0.3175 -0.2556 -0.0236
  829MOL0     C11833   7.663   2.258   9.079 -0.3898 -1.0028  0.4945
  829MOL0     C11834   7.799   2.234   9.052  0.2301 -0.2177 -0.7428
  829MOL0     C11835   8.238   2.350   8.898 -0.0030  0.2113  1.0779
  829MOL0     C11836   8.303   2.398   8.774 -0.2222  0.5681 -0.7375
  829MOL0     C11837   8.428   2.337   8.737  0.0457 -0.0109 -0.5028
  829MOL0     C11838   8.482   2.229   8.811 -0.5427 -0.0638 -0.4270
  829MOL0     O11839   8.584   2.157   8.760  1.5984  0.2685  0.4727
  829MOL0     C11840   8.663   2.062   8.844 -0.3291  0.7266 -0.1123
  829MOL0     C11841   8.787   2.033   8.764 -0.1167 -0.1624 -1.0025
  829MOL0     C11842   8.754   1.943   8.650  0.0849 -0.0453 -0.0031
  829MOL0     C11843   8.874   1.935   8.548 -0.5056  0.4914 -0.1224
  829MOL0     C11844   8.850   1.853   8.439  1.0443 -0.4067  0.6117
  829MOL0     C11845   8.823   1.788   8.341 -0.0589  0.0892  0.2042
  829MOL0     C11846   8.417   2.192   8.927  0.1672 -0.0127  0.0295
  829MOL0     C11847   8.302   2.249   8.968 -0.1661 -0.3838  0.0793
  829MOL0     H11848   7.866   2.549   8.933  1.6179 -0.0358  1.1727
  829MOL0     H11849   7.631   2.562   8.948 -1.8689 -0.9230 -0.2203
  829MOL0     H11850   7.376   2.199   9.005  0.2269 -1.2897  1.0619
  829MOL0     H11851   7.399   2.238   9.179  2.7037  2.3675  0.3544
  829MOL0     H11852   7.242   2.436   9.126  0.0225  1.2952 -1.4728
  829MOL0     H11853   7.218   2.359   8.969  0.5730  0.7812 -0.2351
  829MOL0     H11854   7.144   2.154   9.059  2.8095  0.5002 -1.2596
  829MOL0     H11855   7.123   2.242   9.224  3.4618  3.0343 -0.5426
  829MOL0     H11856   6.964   2.397   9.127  0.1855 -0.1516  1.4993
  829MOL0     H11857   7.003   2.328   8.962 -0.0808 -0.3423  0.2001
  829MOL0     H11858   6.777   2.262   9.054  0.0866 -1.1273 -1.0637
  829MOL0     H11859   6.884   2.129   9.023 -2.0414  0.0874 -1.0721
  829MOL0     H11860   6.943   2.118   9.272  2.3080  3.2347  0.3942
  829MOL0     H11861   6.877   2.275   9.295  1.3577  0.5750 -2.2130
  829MOL0     H11862   6.722   2.137   9.395  3.4196 -0.9863  0.1999
  829MOL0     H11863   6.652   2.191   9.244 -1.7222  0.1355  0.9117
  829MOL0     H11864   6.754   1.916   9.301 -1.3154  0.3649 -0.2798
  829MOL0     H11865   6.707   1.981   9.133  0.1095 -1.4101 -0.0846
  829MOL0     H11866   6.535   1.974   9.490 -0.9267 -0.1533 -0.9946
  829MOL0     H11867   6.253   1.880   9.540  2.4573 -0.1279 -0.3857
  829MOL0     H11868   6.171   1.833   9.386 -1.4682  0.8394  0.8951
  829MOL0     H11869   6.364   1.649   9.523 -1.6188 -0.3098  0.5049
  829MOL0     H11870   6.252   1.619   9.378  0.1059 -1.2298 -0.3614
  829MOL0     H11871   6.162   1.682   9.648  0.0844  1.4260 -0.7882
  829MOL0     H11872   6.201   1.516   9.589 -0.0919  0.3579  1.7630
  829MOL0     H11873   6.029   1.593   9.394  1.5706  0.8549 -0.9616
  829MOL0     H11874   5.979   1.706   9.516  1.2411 -0.3052 -0.8176
  829MOL0     H11875   5.804   1.582   9.379 -1.2123 -0.3035 -0.2440
  829MOL0     H11876   5.589   1.412   9.196  1.1523 -0.0313  0.5019
  829MOL0     H11877   5.480   1.537   9.272 -0.0025  1.0169  1.2078
  829MOL0     H11878   5.645   1.581   9.224  2.9552 -1.2508  1.3558
  829MOL0     H11879   5.155   1.258   9.475 -0.2628  4.2530 -1.0872
  829MOL0     H11880   4.955   1.188   9.368 -0.6659 -1.0608  1.0887
  829MOL0     H11881   4.824   1.019   9.285  1.4342 -2.6566 -1.0690
  829MOL0     H11882   4.732   1.145   9.184  0.2051 -0.0604 -0.1078
  829MOL0     H11883   4.688   1.005   9.018 -0.2502  1.6053  1.4383
  829MOL0     H11884   4.789   0.879   9.077 -0.8884  0.0932  0.1035
  829MOL0     H11885   4.582   1.010   9.265  0.5260  1.1775 -1.7885
  829MOL0     H11886   4.637   0.834   9.247  2.6584  0.3538 -2.2968
  829MOL0     H11887   4.391   0.893   9.189 -1.7438  0.6436 -2.6907
  829MOL0     H11888   4.463   0.952   9.045  1.0791  0.1640 -0.9556
  829MOL0     H11889   4.565   0.701   9.043  0.5632  0.7869  3.3248
  829MOL0     H11890   4.407   0.751   8.977  1.0342  2.9472  0.4822
  829MOL0     H11891   4.476   0.627   9.247 -2.1446  1.1914  1.5710
  829MOL0     H11892   4.312   0.660   9.186  0.9861 -0.2098  3.0093
  829MOL0     H11893   4.523   0.457   9.087  0.1913 -0.8552  2.5086
  829MOL0     H11894   4.389   0.510   8.985  1.8967 -0.6121 -0.1754
  829MOL0     H11895   4.330   0.287   9.089 -1.6503 -0.5641  0.2253
  829MOL0     H11896   4.223   0.410   9.112  0.0311  0.6174 -1.5281
  829MOL0     H11897   5.167   1.123   8.992  1.0557  1.4140 -0.5789
  829MOL0     H11898   5.370   1.202   9.098 -2.5062 -1.1928 -1.7639
  829MOL0     H11899   5.595   1.263   9.689  0.0253 -0.7609  0.8682
  829MOL0     H11900   5.783   1.395   9.760 -0.0765 -4.5433  0.3985
  829MOL0     H11901   7.628   2.170   9.133  3.8702 -1.4443  3.0688
  829MOL0     H11902   7.847   2.141   9.079  1.1310 -0.0020 -1.5630
  829MOL0     H11903   8.260   2.477   8.714  1.0776 -0.5764 -3.3353
  829MOL0     H11904   8.480   2.358   8.645  2.0615  0.7614  0.7491
  829MOL0     H11905   8.686   2.108   8.941 -0.4537 -0.0510  0.2985
  829MOL0     H11906   8.605   1.970   8.857 -2.0215  1.8819  0.8423
  829MOL0     H11907   8.865   1.975   8.813  0.0223  0.4602 -0.4731
  829MOL0     H11908   8.837   2.126   8.735  0.0688 -0.3714 -1.3479
  829MOL0     H11909   8.668   1.980   8.594  0.1928 -1.1078 -0.8980
  829MOL0     H11910   8.714   1.845   8.677  2.1053 -0.7122  0.7291
  829MOL0     H11911   8.964   1.896   8.597  2.4135  1.3156 -4.3199
  829MOL0     H11912   8.915   2.034   8.526 -0.0256  1.5295  4.4060
  829MOL0     H11913   8.805   1.721   8.259 -4.8361 -1.7359  2.3366
  829MOL0     H11914   8.449   2.108   8.988  2.0717 -0.2779 -1.2563
  829MOL0     H11915   8.256   2.202   9.055 -0.2205  0.3332  0.4494
  830MOL0     O11916   4.986   8.306   8.921 -0.3323  0.4445  0.1441
  830MOL0     C11917   4.946   8.415   8.893 -0.6443  0.3046  0.8542
  830MOL0     O11918   5.030   8.520   8.889  0.7155 -1.1160 -0.5064
  830MOL0     C11919   5.164   8.516   8.913 -0.4414  0.0758  0.0874
  830MOL0     C11920   5.209   8.601   9.016 -0.4805 -0.6774 -0.8190
  830MOL0     C11921   5.348   8.604   9.046  0.6816  0.1635 -0.3137
  830MOL0     C11922   5.440   8.517   8.969  1.3219 -0.1019 -0.9178
  830MOL0     O11923   5.570   8.531   9.009  0.1126 -0.4751  0.2122
  830MOL0     C11924   5.647   8.408   9.014 -0.2205  0.2744 -0.7117
  830MOL0     C11925   5.760   8.409   8.923 -0.6960  0.5765 -0.2862
  830MOL0     C11926   5.843   8.531   8.930 -0.2130  0.0661  0.3243
  830MOL0     C11927   5.980   8.523   8.861  0.9630 -0.1239  0.1253
  830MOL0     C11928   6.085   8.452   8.949  1.1271  0.6328 -0.3399
  830MOL0     C11929   6.167   8.549   9.050  0.1719  0.3142 -0.8335
  830MOL0     C11930   6.279   8.473   9.132  1.1160 -0.1406  0.2629
  830MOL0     C11931   6.413   8.448   9.044  0.0907  0.8121  0.3736
  830MOL0     N11932   6.491   8.574   9.057  1.0838  0.6528 -0.5580
  830MOL0     C11933   6.577   8.596   9.163 -0.2264  0.6721  0.1822
  830MOL0     C11934   6.636   8.707   9.128  0.0154 -0.1043 -0.6349
  830MOL0     C11935   6.727   8.786   9.214 -0.4654  0.4830 -0.4516
  830MOL0     C11936   6.771   8.722   9.349  0.0655  0.0246  0.1961
  830MOL0     C11937   6.896   8.790   9.413 -0.0362  0.4538 -0.1364
  830MOL0     C11938   6.856   8.919   9.475 -1.1581 -0.4911 -0.1102
  830MOL0     O11939   6.955   8.963   9.559 -0.7736  0.1166  0.1516
  830MOL0     C11940   7.065   9.035   9.509  0.7115 -0.5804 -0.1044
  830MOL0     C11941   7.084   9.066   9.373  0.7541  0.4196 -0.0087
  830MOL0     C11942   7.205   9.115   9.322 -0.5419 -0.6339  0.5112
  830MOL0     C11943   7.215   9.126   9.173  0.4402  0.4253  0.6543
  830MOL0     C11944   7.302   9.169   9.406  0.3690 -0.2794 -0.0072
  830MOL0     C11945   7.442   9.211   9.369 -0.2199  0.5553  0.6573
  830MOL0     O11946   7.508   9.281   9.468  0.2979  0.4158  0.8925
  830MOL0     C11947   7.619   9.353   9.437  1.6023 -0.0558  0.4160
  830MOL0     C11948   7.731   9.302   9.381  0.7104 -0.0909  0.1001
  830MOL0     C11949   7.838   9.384   9.338  0.3165  0.0733 -0.9874
  830MOL0     C11950   7.827   9.520   9.363  0.1639  0.2457 -0.4364
  830MOL0     O11951   7.923   9.601   9.315  0.1450 -1.1000  0.6801
  830MOL0     C11952   7.921   9.747   9.318  0.2263  0.6440 -0.5778
  830MOL0     C11953   7.875   9.814   9.183  0.4061  0.5339 -0.3381
  830MOL0     C11954   7.898   9.735   9.055 -0.0363  0.0126  0.2747
  830MOL0     C11955   7.823   9.797   8.930  0.0271 -0.0580 -0.6587
  830MOL0     C11956   7.849   9.938   8.886 -0.0123  1.0477  0.2722
  830MOL0     C11957   7.742   9.982   8.779  0.7019  0.2672 -0.3998
  830MOL0     C11958   7.789  10.109   8.702 -0.5376 -0.5249  0.3426
  830MOL0     C11959   7.682  10.180   8.618 -0.2737  0.3048  0.4119
  830MOL0    Cl11960   7.610  10.070   8.491  0.1085  0.4983  0.4202
  830MOL0     C11961   7.703   9.572   9.410  0.7606 -0.6593  0.2294
  830MOL0     C11962   7.597   9.489   9.450 -0.5164 -0.2680 -0.3188
  830MOL0     O11963   7.484   9.186   9.256 -0.3323  0.8117 -0.7276
  830MOL0     C11964   7.278   9.158   9.545  0.0914 -0.3969  0.4355
  830MOL0     C11965   7.159   9.092   9.594  0.2914 -0.4879  0.5159
  830MOL0     N11966   6.593   8.749   9.006 -0.8378  0.2187 -0.2877
  830MOL0     N11967   6.506   8.663   8.958 -0.8296 -0.0790  0.9840
  830MOL0     C11968   5.388   8.416   8.876 -0.7513 -0.9712 -0.9643
  830MOL0     C11969   5.250   8.428   8.843  0.0329  0.1642  0.7175
  830MOL0     C11970   4.808   8.430   8.837 -0.1494  0.1601  0.2089
  830MOL0     C11971   4.695   8.348   8.881  0.1099  0.0932  0.5475
  830MOL0     C11972   4.567   8.393   8.841 -1.0133  0.4931  0.5340
  830MOL0     C11973   4.547   8.509   8.761 -0.4376  0.1563  0.0655
  830MOL0     O11974   4.426   8.558   8.715  0.6583 -0.2857 -0.2950
  830MOL0     C11975   4.352   8.459   8.642  0.2105  0.0631  0.1145
  830MOL0     C11976   4.210   8.469   8.690  0.9519  1.0010 -0.4775
  830MOL0     C11977   4.118   8.358   8.624 -0.8403  0.2377  0.2604
  830MOL0     C11978   4.040   8.396   8.497 -0.0185 -0.3061 -0.0470
  830MOL0     C11979   3.957   8.282   8.446 -1.2991  0.0252 -0.2621
  830MOL0     C11980   3.893   8.189   8.398  0.7719  0.0824 -1.5717
  830MOL0     C11981   4.657   8.576   8.720  0.0222  0.5233 -0.3528
  830MOL0     C11982   4.782   8.539   8.753  0.6112 -0.4525 -1.0038
  830MOL0     H11983   5.143   8.664   9.074  3.7116  0.2230  3.5693
  830MOL0     H11984   5.379   8.680   9.118  1.2890 -1.4588  1.2246
  830MOL0     H11985   5.689   8.408   9.115 -1.6364 -1.2852 -0.0862
  830MOL0     H11986   5.599   8.312   8.994  0.8785 -0.7585  1.2215
  830MOL0     H11987   5.822   8.322   8.945 -0.9989 -0.3210 -2.7422
  830MOL0     H11988   5.724   8.398   8.820  1.6272  2.3355 -1.3753
  830MOL0     H11989   5.790   8.615   8.885 -2.5912 -0.2047  2.4157
  830MOL0     H11990   5.861   8.557   9.035 -0.9260 -1.3813  0.8311
  830MOL0     H11991   5.977   8.458   8.773  1.0656 -0.6728  0.5214
  830MOL0     H11992   6.014   8.624   8.835 -1.6343  0.9962  0.7917
  830MOL0     H11993   6.050   8.360   8.997  0.7422 -0.1857 -2.0935
  830MOL0     H11994   6.157   8.416   8.875  0.2170  0.5949 -1.2144
  830MOL0     H11995   6.224   8.630   9.004  1.8299 -0.0490  0.4874
  830MOL0     H11996   6.094   8.595   9.117 -0.6189 -2.2534  0.2155
  830MOL0     H11997   6.301   8.530   9.223  2.3102 -1.8567  1.1135
  830MOL0     H11998   6.232   8.381   9.169  0.4205  0.8582  1.9965
  830MOL0     H11999   6.389   8.429   8.939 -1.6307 -0.0995  0.8931
  830MOL0     H12000   6.463   8.364   9.093 -0.8810 -1.0003 -1.5865
  830MOL0     H12001   6.584   8.539   9.255 -1.3806 -0.6903 -0.5407
  830MOL0     H12002   6.816   8.796   9.151 -0.1814  0.3134 -0.0788
  830MOL0     H12003   6.685   8.886   9.230 -0.6277  0.3176  0.1891
  830MOL0     H12004   6.814   8.623   9.335  4.1944  1.4965  0.9207
  830MOL0     H12005   6.687   8.717   9.418  1.2164  2.5976  1.9835
  830MOL0     H12006   6.982   8.794   9.345  0.0314 -0.9133 -0.1605
  830MOL0     H12007   6.927   8.722   9.493 -2.6199 -0.5591  0.0740
  830MOL0     H12008   6.775   8.901   9.546  0.9549  1.6381  3.1157
  830MOL0     H12009   6.804   8.994   9.414  1.2663 -0.1847 -1.9624
  830MOL0     H12010   7.011   9.040   9.298  3.0991 -0.7628 -2.0262
  830MOL0     H12011   7.304   9.078   9.131 -1.5738 -2.4315 -0.6912
  830MOL0     H12012   7.130   9.082   9.121  0.6217  0.1051  0.6228
  830MOL0     H12013   7.216   9.234   9.159  1.0956  0.1500 -1.8845
  830MOL0     H12014   7.725   9.194   9.370 -3.0357  0.0879 -0.9307
  830MOL0     H12015   7.927   9.339   9.296  3.0219  2.4943  1.6598
  830MOL0     H12016   7.883   9.786   9.412 -2.5692 -2.4196 -0.2325
  830MOL0     H12017   8.027   9.770   9.315 -0.0234  1.7747 -1.3024
  830MOL0     H12018   7.766   9.828   9.190 -0.2064 -2.6992 -1.4970
  830MOL0     H12019   7.925   9.911   9.177  0.4601  0.4442 -1.4645
  830MOL0     H12020   7.849   9.638   9.073 -3.1135  1.1779 -1.1084
  830MOL0     H12021   8.006   9.734   9.035  0.0262  4.4840 -0.6742
  830MOL0     H12022   7.828   9.733   8.842 -1.7739 -1.3616  0.1253
  830MOL0     H12023   7.715   9.797   8.948  0.5480  2.0572  3.5133
  830MOL0     H12024   7.939   9.939   8.824  0.9748 -1.5220  1.5326
  830MOL0     H12025   7.864  10.010   8.967 -3.3394  3.6354 -1.1959
  830MOL0     H12026   7.716   9.901   8.711 -0.5462  0.6145 -0.3547
  830MOL0     H12027   7.655  10.000   8.842  1.7538  2.2487  0.5996
  830MOL0     H12028   7.883  10.095   8.647  0.1657 -1.4926  1.7403
  830MOL0     H12029   7.822  10.187   8.771  2.8375 -0.1859 -1.4252
  830MOL0     H12030   7.722  10.271   8.573 -1.3644  1.5499  1.8336
  830MOL0     H12031   7.596  10.219   8.675 -3.4546 -0.0637 -3.6760
  830MOL0     H12032   7.671   9.671   9.443  0.8251 -1.1942  2.0096
  830MOL0     H12033   7.506   9.533   9.489 -2.3630 -2.0267 -2.3652
  830MOL0     H12034   7.358   9.184   9.613  0.6681 -3.5501  1.0912
  830MOL0     H12035   7.138   9.084   9.700 -0.7912 -1.6058  0.2469
  830MOL0     H12036   5.452   8.346   8.823  3.8412  2.0509 -0.0170
  830MOL0     H12037   5.217   8.377   8.753  0.6254 -2.1304  1.7145
  830MOL0     H12038   4.698   8.249   8.926 -0.8814 -0.8733 -1.3773
  830MOL0     H12039   4.484   8.338   8.885 -0.0070  1.2381  3.6184
  830MOL0     H12040   4.366   8.477   8.535  2.8791  0.4879  0.4547
  830MOL0     H12041   4.386   8.359   8.671  0.7127  0.5963  1.4307
  830MOL0     H12042   4.167   8.566   8.664  1.1672  1.2394  0.0493
  830MOL0     H12043   4.204   8.450   8.797 -1.8399 -4.1852 -1.1867
  830MOL0     H12044   4.049   8.315   8.698 -2.4124 -4.1928 -3.3238
  830MOL0     H12045   4.172   8.267   8.596 -3.3141 -1.5112  0.8226
  830MOL0     H12046   4.123   8.412   8.429 -0.1758  2.8785  0.3344
  830MOL0     H12047   3.985   8.491   8.493  1.9229  0.8166 -1.3545
  830MOL0     H12048   3.847   8.102   8.357 -0.7863  0.1693 -0.1185
  830MOL0     H12049   4.644   8.665   8.659 -0.9198  0.5513 -0.1258
  830MOL0     H12050   4.866   8.596   8.715  2.1004 -1.5750  0.4715
  831MOL0     O12051   8.692   6.302   0.718  0.4478 -0.4494 -0.5259
  831MOL0     C12052   8.666   6.426   0.701 -0.3770 -1.0979 -0.2481
  831MOL0     O12053   8.760   6.526   0.730  0.3036  0.2290  0.0496
  831MOL0     C12054   8.887   6.504   0.774 -0.3456 -0.6524  0.3920
  831MOL0     C12055   8.943   6.392   0.844 -0.7067  0.0147 -0.3267
  831MOL0     C12056   9.075   6.385   0.872  0.1050  0.5122  1.0156
  831MOL0     C12057   9.161   6.489   0.834  0.7658  0.5142  0.2094
  831MOL0     O12058   9.293   6.486   0.861  0.6241  0.5529  0.5039
  831MOL0     C12059   9.362   6.377   0.897  0.4273  0.2756  0.6371
  831MOL0     C12060   9.505   6.388   0.847 -0.6498 -0.4673 -0.3205
  831MOL0     C12061   9.607   6.286   0.893 -0.4656 -0.4131  0.0651
  831MOL0     C12062   9.751   6.331   0.872  0.6609  0.1093 -0.2863
  831MOL0     C12063   9.836   6.216   0.944  0.7910  0.3943  0.5135
  831MOL0     C12064   9.989   6.227   0.922  0.2520  0.2223  0.3940
  831MOL0     C12065  10.056   6.098   0.966 -0.1676 -0.5226 -1.1590
  831MOL0     C12066  10.205   6.105   0.923 -0.2641 -0.2020 -0.2265
  831MOL0     N12067  10.279   6.179   1.016 -0.2262  0.2483  0.3123
  831MOL0     C12068  10.300   6.146   1.145 -0.3966 -0.4458  0.2302
  831MOL0     C12069  10.393   6.230   1.191 -0.7243 -0.2223  0.0464
  831MOL0     C12070  10.439   6.231   1.335 -0.8640  0.4183 -0.0637
  831MOL0     C12071  10.523   6.106   1.382 -0.5773 -0.2957 -0.1700
  831MOL0     C12072  10.664   6.129   1.339  0.1840  0.4939  0.5210
  831MOL0     C12073  10.747   6.004   1.374  0.5096  0.9730  0.5357
  831MOL0     O12074  10.788   5.992   1.511  0.0595 -0.2154 -0.1288
  831MOL0     C12075  10.881   6.075   1.551 -0.8820 -0.2726  0.2516
  831MOL0     C12076  10.985   6.145   1.473  0.4306  0.4026 -0.3534
  831MOL0     C12077  11.059   6.240   1.540 -0.0228 -0.3513 -0.4118
  831MOL0     C12078  11.178   6.279   1.452 -0.1758  0.4030  0.4344
  831MOL0     C12079  11.055   6.265   1.676 -0.2664 -1.4027  0.5055
  831MOL0     C12080  11.143   6.358   1.751 -0.8875 -0.1671  0.0121
  831MOL0     O12081  11.173   6.326   1.879 -0.5426  0.7314  0.2005
  831MOL0     C12082  11.280   6.389   1.934 -0.8036  0.4748  0.8640
  831MOL0     C12083  11.410   6.390   1.876 -0.1267 -0.8641 -0.1385
  831MOL0     C12084  11.512   6.472   1.940 -0.1861  0.0964 -0.3760
  831MOL0     C12085  11.487   6.559   2.049 -0.2288  0.3235 -0.4020
  831MOL0     O12086  11.580   6.634   2.107 -0.0322  0.2446  0.1198
  831MOL0     C12087  11.550   6.753   2.186 -0.1611 -0.0803  0.7325
  831MOL0     C12088  11.485   6.868   2.107  0.5352  0.0657 -0.7629
  831MOL0     C12089  11.584   6.971   2.037 -0.4256  0.1578  0.0273
  831MOL0     C12090  11.660   6.899   1.929 -0.6069  0.4067  0.4556
  831MOL0     C12091  11.802   6.934   1.894 -0.0500  0.7416 -0.4510
  831MOL0     C12092  11.907   6.890   1.998  0.7567 -0.3228  0.7072
  831MOL0     C12093  12.051   6.923   1.959  0.2896  0.7622  0.3013
  831MOL0     C12094  12.148   6.908   2.078 -0.4972  0.0563  0.1055
  831MOL0    Cl12095  12.117   7.037   2.189 -0.1813  0.3346 -0.0058
  831MOL0     C12096  11.356   6.561   2.097 -0.3318 -0.2176 -0.5160
  831MOL0     C12097  11.261   6.474   2.044 -0.2004 -0.4794 -0.0794
  831MOL0     O12098  11.172   6.462   1.696  0.0672  0.0892  0.5455
  831MOL0     C12099  10.958   6.209   1.744  0.3327  0.7635 -0.7070
  831MOL0     C12100  10.875   6.112   1.688 -0.5920  0.3486  0.1138
  831MOL0     N12101  10.427   6.316   1.085  0.6656  0.6471 -0.9648
  831MOL0     N12102  10.354   6.286   0.984  0.0055 -0.0467 -0.0791
  831MOL0     C12103   9.114   6.604   0.766  0.8469  0.9344  0.2337
  831MOL0     C12104   8.979   6.605   0.727 -0.0360  0.1259  0.0124
  831MOL0     C12105   8.523   6.468   0.685  1.2050 -0.5124 -0.7392
  831MOL0     C12106   8.487   6.605   0.685  0.0720 -1.0503  0.2126
  831MOL0     C12107   8.356   6.647   0.644  0.9532  0.1527 -0.5558
  831MOL0     C12108   8.262   6.552   0.610 -0.1046 -1.0333  1.1786
  831MOL0     O12109   8.139   6.586   0.555 -0.1627  0.1511  0.1196
  831MOL0     C12110   8.061   6.620   0.669  0.5128  0.8475  0.0535
  831MOL0     C12111   7.995   6.500   0.720 -1.0257 -0.0716 -0.5219
  831MOL0     C12112   7.903   6.417   0.629  0.2079  0.4057 -0.5423
  831MOL0     C12113   7.841   6.306   0.716  0.4697 -0.1518 -0.3334
  831MOL0     C12114   7.743   6.239   0.641 -0.8392 -0.3413 -0.0663
  831MOL0     C12115   7.668   6.166   0.588  0.8483 -0.7360  0.4158
  831MOL0     C12116   8.294   6.418   0.612  0.0870  0.7985  0.1413
  831MOL0     C12117   8.423   6.374   0.654 -0.4462  0.0624 -0.5352
  831MOL0     H12118   8.874   6.313   0.871  1.4861 -1.0770  2.6769
  831MOL0     H12119   9.109   6.306   0.938 -0.1634  0.1417  0.7146
  831MOL0     H12120   9.363   6.372   1.007  0.8179 -2.4899  0.5674
  831MOL0     H12121   9.324   6.280   0.864  1.2752  0.0772  0.2352
  831MOL0     H12122   9.503   6.381   0.738 -0.7436 -2.3410 -0.2328
  831MOL0     H12123   9.538   6.485   0.885 -0.5728  0.8208 -3.4290
  831MOL0     H12124   9.590   6.262   0.998 -0.5964  0.7250  0.3091
  831MOL0     H12125   9.587   6.194   0.837  1.9869 -0.2171 -1.2793
  831MOL0     H12126   9.770   6.338   0.764  2.4263 -0.5220 -0.0601
  831MOL0     H12127   9.770   6.431   0.912 -1.8176  0.4837  0.0736
  831MOL0     H12128   9.810   6.236   1.049 -3.0939  0.2204 -0.2362
  831MOL0     H12129   9.796   6.119   0.913  0.5600  0.3751  0.8632
  831MOL0     H12130  10.009   6.245   0.816  0.0657  0.7854  0.4504
  831MOL0     H12131  10.033   6.311   0.977 -0.6639  1.5991 -0.8928
  831MOL0     H12132  10.045   6.075   1.072 -0.2366  1.6149 -0.6517
  831MOL0     H12133  10.013   6.010   0.917 -0.1616 -1.2363  0.0633
  831MOL0     H12134  10.212   6.146   0.822 -0.4901  1.4986  0.4166
  831MOL0     H12135  10.234   6.000   0.928 -2.5183 -0.8419  0.8488
  831MOL0     H12136  10.258   6.059   1.194 -2.1652 -0.3339 -1.0011
  831MOL0     H12137  10.503   6.319   1.349 -1.0325  0.2793  2.0042
  831MOL0     H12138  10.349   6.247   1.395 -0.1826  1.3464  0.7556
  831MOL0     H12139  10.472   6.012   1.360  1.0574 -2.0265  2.8667
  831MOL0     H12140  10.512   6.108   1.491 -2.7936  1.3648 -0.3477
  831MOL0     H12141  10.703   6.226   1.371 -0.2021  0.5674  0.7854
  831MOL0     H12142  10.654   6.129   1.230  0.2478  0.6821  0.5151
  831MOL0     H12143  10.837   6.005   1.312  0.9730  1.4027  1.2045
  831MOL0     H12144  10.705   5.907   1.346  0.8467  1.5283 -2.0862
  831MOL0     H12145  11.003   6.116   1.370 -0.9339  2.8543 -1.3614
  831MOL0     H12146  11.157   6.373   1.401  0.4400 -1.0980 -2.8580
  831MOL0     H12147  11.266   6.294   1.515 -1.6739 -2.3443  3.5076
  831MOL0     H12148  11.207   6.214   1.369  1.4786  2.1340 -0.4044
  831MOL0     H12149  11.431   6.319   1.796 -0.7953 -1.0417 -0.1586
  831MOL0     H12150  11.608   6.458   1.892 -0.1896 -4.1714  0.4716
  831MOL0     H12151  11.490   6.713   2.269  0.7077 -0.9345  0.9652
  831MOL0     H12152  11.644   6.788   2.229  0.5751 -1.1586  0.0496
  831MOL0     H12153  11.404   6.839   2.039 -1.8262  3.2415  0.4044
  831MOL0     H12154  11.432   6.925   2.184  1.7192  0.0027  0.1243
  831MOL0     H12155  11.642   7.018   2.117 -3.4948  1.2223  1.8093
  831MOL0     H12156  11.526   7.047   1.984 -0.3742 -1.1645 -2.0663
  831MOL0     H12157  11.647   6.791   1.941 -1.1034  0.7318  3.8445
  831MOL0     H12158  11.610   6.918   1.833  2.5759 -1.3079 -1.7263
  831MOL0     H12159  11.806   7.043   1.886  0.0347  0.8166  0.4389
  831MOL0     H12160  11.842   6.892   1.801  0.6419  1.4806 -0.5054
  831MOL0     H12161  11.882   6.932   2.096 -0.1059 -1.2063  0.8881
  831MOL0     H12162  11.905   6.781   2.009 -0.3274 -0.6182 -1.7302
  831MOL0     H12163  12.053   7.021   1.912 -0.5685 -0.3735 -2.3148
  831MOL0     H12164  12.065   6.850   1.879 -3.7738 -1.3804  1.2462
  831MOL0     H12165  12.252   6.925   2.048 -1.0973  1.9461 -1.0553
  831MOL0     H12166  12.135   6.811   2.127 -0.1438  1.3556  2.9966
  831MOL0     H12167  11.326   6.624   2.180  1.8310  1.0346 -0.6076
  831MOL0     H12168  11.161   6.468   2.085 -0.9614 -1.5168 -1.9345
  831MOL0     H12169  10.947   6.236   1.849 -1.0765  1.8530 -1.1044
  831MOL0     H12170  10.805   6.073   1.761 -3.7329  2.3974 -1.5579
  831MOL0     H12171   9.180   6.686   0.737 -0.0812  1.1093 -1.5400
  831MOL0     H12172   8.947   6.695   0.674  2.2143  1.2219  0.3904
  831MOL0     H12173   8.564   6.681   0.698 -1.0724  0.1927 -0.0677
  831MOL0     H12174   8.339   6.752   0.621  0.9567  0.1431 -0.6025
  831MOL0     H12175   8.108   6.668   0.755 -1.8532  1.2670  1.2030
  831MOL0     H12176   7.987   6.693   0.634 -0.5395 -1.2533 -2.4896
  831MOL0     H12177   7.934   6.529   0.807 -1.7057 -1.4922 -0.4954
  831MOL0     H12178   8.066   6.435   0.773 -1.1316  0.4114  0.2368
  831MOL0     H12179   7.957   6.365   0.549  4.2320  1.1439  1.4547
  831MOL0     H12180   7.828   6.479   0.580 -2.6299 -1.4775  1.0975
  831MOL0     H12181   7.792   6.356   0.800  0.0107  2.1587 -1.8765
  831MOL0     H12182   7.928   6.243   0.736  1.9520  1.8925 -0.0593
  831MOL0     H12183   7.581   6.120   0.546 -2.5436  3.9494  1.4563
  831MOL0     H12184   8.212   6.353   0.584  0.6809  0.6347 -1.2947
  831MOL0     H12185   8.440   6.267   0.659 -1.9264 -0.2795 -1.8858
  832MOL0     O12186   2.826   6.793   5.094  0.0581 -0.1063  0.3368
  832MOL0     C12187   2.768   6.814   4.988  0.8375 -0.0767 -0.3006
  832MOL0     O12188   2.820   6.832   4.861 -0.6361  0.3696 -0.1494
  832MOL0     C12189   2.955   6.851   4.856  0.1787  0.2037 -1.4262
  832MOL0     C12190   3.031   6.789   4.755 -0.3375 -0.5447 -0.2200
  832MOL0     C12191   3.160   6.809   4.739 -0.7539  0.1667  0.3967
  832MOL0     C12192   3.229   6.898   4.823  0.2436 -0.2953  0.0856
  832MOL0     O12193   3.361   6.925   4.823 -0.0088 -0.0465 -0.4087
  832MOL0     C12194   3.438   6.882   4.712 -0.5003  0.2413  0.2726
  832MOL0     C12195   3.583   6.930   4.723  0.6644 -0.8987 -0.1898
  832MOL0     C12196   3.665   6.888   4.600 -0.2524  0.5121 -0.2548
  832MOL0     C12197   3.633   6.973   4.464 -0.8225  0.2891 -0.0524
  832MOL0     C12198   3.732   6.930   4.359  0.4513 -1.0531  0.6170
  832MOL0     C12199   3.879   6.990   4.384  0.3139 -0.0625 -0.1355
  832MOL0     C12200   3.982   6.951   4.275 -0.6142  0.1202 -0.1480
  832MOL0     C12201   4.031   6.804   4.299 -0.9223 -0.0506 -0.5292
  832MOL0     N12202   4.130   6.804   4.407  0.1169  0.7072 -0.3306
  832MOL0     C12203   4.112   6.798   4.543  0.5171  0.1058  0.9888
  832MOL0     C12204   4.236   6.806   4.599  0.8231 -0.1393 -0.7220
  832MOL0     C12205   4.252   6.791   4.750  0.6808 -0.6049 -0.1223
  832MOL0     C12206   4.395   6.782   4.795  0.4875 -0.4109  0.2332
  832MOL0     C12207   4.452   6.643   4.752 -0.8350  0.8249 -1.1146
  832MOL0     C12208   4.593   6.627   4.810  0.3873 -0.6063 -0.1555
  832MOL0     O12209   4.687   6.705   4.733  0.0859  0.4523  0.4894
  832MOL0     C12210   4.785   6.759   4.813  0.4215  0.4476  0.3555
  832MOL0     C12211   4.862   6.854   4.749 -0.7068  0.5337 -0.4362
  832MOL0     C12212   4.976   6.912   4.807  0.5173 -0.4848  0.0137
  832MOL0     C12213   5.065   6.990   4.698 -0.0292 -0.2392 -0.2870
  832MOL0     C12214   5.010   6.878   4.935 -0.6228  0.2423  0.3150
  832MOL0     C12215   5.113   6.953   5.005 -0.1063  1.0334 -0.2208
  832MOL0     O12216   5.180   6.893   5.106 -0.4824  0.8145  0.2931
  832MOL0     C12217   5.259   6.965   5.195  0.5237 -0.0961 -0.8214
  832MOL0     C12218   5.201   7.066   5.272 -0.3752  0.3605 -0.9182
  832MOL0     C12219   5.273   7.126   5.385 -0.6865 -0.0497 -0.3447
  832MOL0     C12220   5.400   7.081   5.414 -0.1622  1.4203  0.9234
  832MOL0     O12221   5.457   7.130   5.521 -0.7023 -0.2299 -0.0131
  832MOL0     C12222   5.599   7.158   5.504 -0.6731 -0.4558 -0.7439
  832MOL0     C12223   5.651   7.197   5.642 -0.1867 -0.7933 -0.9253
  832MOL0     C12224   5.591   7.331   5.696  0.6005  0.6588  0.4194
  832MOL0     C12225   5.677   7.451   5.676  0.3696 -0.4897  0.3942
  832MOL0     C12226   5.629   7.589   5.731 -1.0847  0.7334 -0.1910
  832MOL0     C12227   5.760   7.657   5.778 -0.0543  0.5442 -0.0119
  832MOL0     C12228   5.741   7.804   5.814  0.2655 -0.4167 -0.1273
  832MOL0     C12229   5.687   7.825   5.955 -0.3855  0.1043 -0.2247
  832MOL0    Cl12230   5.815   7.846   6.083  0.4408  0.3040 -0.5736
  832MOL0     C12231   5.454   6.976   5.337 -0.0556  0.2389  0.0996
  832MOL0     C12232   5.377   6.917   5.233 -0.7691 -0.5059 -0.2086
  832MOL0     O12233   5.141   7.060   4.969  0.2998  0.1953 -0.3456
  832MOL0     C12234   4.929   6.799   5.005  0.4215  0.4126 -0.5971
  832MOL0     C12235   4.824   6.733   4.944 -1.2053  0.0209  1.0727
  832MOL0     N12236   4.327   6.810   4.493  0.1022  0.4861  0.4033
  832MOL0     N12237   4.263   6.821   4.380  0.3331 -0.0137  0.3940
  832MOL0     C12238   3.160   6.954   4.931 -0.0061  0.3444 -0.1912
  832MOL0     C12239   3.024   6.939   4.944  0.2419 -0.0578  1.1927
  832MOL0     C12240   2.623   6.767   4.984  0.1738  0.1353 -0.2204
  832MOL0     C12241   2.547   6.764   4.864 -0.3795 -0.0906 -0.4074
  832MOL0     C12242   2.404   6.740   4.865  0.4748 -0.1061  0.1617
  832MOL0     C12243   2.335   6.741   4.984  0.0279 -0.3713 -0.2955
  832MOL0     O12244   2.194   6.744   4.986  0.1796  0.3884 -0.5380
  832MOL0     C12245   2.124   6.849   4.921 -0.4019 -0.0389  0.4493
  832MOL0     C12246   2.003   6.895   4.998  0.5054  0.2847  0.4333
  832MOL0     C12247   1.924   6.990   4.913  0.1019 -0.4990 -0.0679
  832MOL0     C12248   1.804   7.039   5.002  0.3826 -0.6607  0.8665
  832MOL0     C12249   1.731   7.153   4.933  0.2788  0.8190 -0.4871
  832MOL0     C12250   1.671   7.252   4.892 -0.2510 -0.3801  0.1592
  832MOL0     C12251   2.410   6.752   5.103 -0.3169 -0.2230  0.1633
  832MOL0     C12252   2.548   6.778   5.102  0.6194 -0.2776 -0.8651
  832MOL0     H12253   2.982   6.722   4.685  0.2527  2.0735 -3.3702
  832MOL0     H12254   3.194   6.761   4.648 -2.4704  2.6740 -1.7054
  832MOL0     H12255   3.425   6.775   4.693 -1.1311 -0.2960  3.3205
  832MOL0     H12256   3.397   6.932   4.623  1.9799  1.0751 -0.4895
  832MOL0     H12257   3.582   7.038   4.737 -0.8280 -0.7585 -1.0817
  832MOL0     H12258   3.639   6.896   4.811  0.5588  2.5572  1.3697
  832MOL0     H12259   3.773   6.887   4.614 -0.0468  1.7805 -1.5047
  832MOL0     H12260   3.638   6.784   4.577 -0.1514  0.0739  1.5109
  832MOL0     H12261   3.534   6.943   4.428 -1.6251 -0.5722  2.6294
  832MOL0     H12262   3.635   7.081   4.482  1.2558  0.1999  0.4157
  832MOL0     H12263   3.736   6.822   4.341 -1.3818 -1.0600  0.0198
  832MOL0     H12264   3.691   6.981   4.272  3.1881  1.7878  0.7793
  832MOL0     H12265   3.876   7.099   4.395 -2.4418  0.0663 -1.3499
  832MOL0     H12266   3.918   6.947   4.476 -1.0983 -1.0664  0.0263
  832MOL0     H12267   3.949   6.964   4.171 -0.4040  0.4695 -0.1728
  832MOL0     H12268   4.069   7.017   4.285 -1.2911  1.7545 -3.5935
  832MOL0     H12269   4.085   6.774   4.209 -1.2691  0.9171 -1.0827
  832MOL0     H12270   3.947   6.737   4.319 -1.3594 -0.7433 -4.0143
  832MOL0     H12271   4.015   6.788   4.592 -2.1401  5.6742 -2.1930
  832MOL0     H12272   4.196   6.870   4.801 -2.1811 -1.7051 -1.3374
  832MOL0     H12273   4.199   6.700   4.776 -1.0158  1.0126  2.5276
  832MOL0     H12274   4.392   6.784   4.904 -0.1860 -2.1480  0.2817
  832MOL0     H12275   4.450   6.867   4.753 -2.0502 -0.4031 -3.6342
  832MOL0     H12276   4.450   6.625   4.644  2.1270 -1.1329 -0.9479
  832MOL0     H12277   4.393   6.561   4.795  1.6725 -1.5403 -1.9189
  832MOL0     H12278   4.637   6.528   4.795  4.8732  1.3877 -2.1176
  832MOL0     H12279   4.580   6.661   4.913 -0.2471 -1.1366 -0.0575
  832MOL0     H12280   4.847   6.885   4.646  1.1460  0.8693 -0.6454
  832MOL0     H12281   5.043   7.097   4.688  0.4259  0.0226  1.2247
  832MOL0     H12282   5.167   6.978   4.735  0.0410  0.6535 -0.1681
  832MOL0     H12283   5.049   6.946   4.600  1.5058 -2.3403  0.3367
  832MOL0     H12284   5.096   7.093   5.274 -0.6752 -0.7503  1.1657
  832MOL0     H12285   5.237   7.203   5.452  0.1787  0.0129  0.0504
  832MOL0     H12286   5.648   7.062   5.482  2.0528  0.1791  1.9291
  832MOL0     H12287   5.611   7.236   5.428  3.1392 -0.6888 -0.5972
  832MOL0     H12288   5.638   7.120   5.719  1.8851  0.6212  0.9813
  832MOL0     H12289   5.759   7.215   5.635  0.6775 -3.7196  2.0289
  832MOL0     H12290   5.565   7.324   5.802 -2.0889 -1.2346 -0.2600
  832MOL0     H12291   5.496   7.347   5.645  0.9203  1.7661  0.1269
  832MOL0     H12292   5.761   7.414   5.734 -0.6109 -0.8200  1.6389
  832MOL0     H12293   5.701   7.475   5.572  0.6118  1.3446  0.8449
  832MOL0     H12294   5.567   7.588   5.821  0.3919  2.8340  0.9633
  832MOL0     H12295   5.586   7.652   5.652  0.0750  1.9408  0.0963
  832MOL0     H12296   5.806   7.603   5.861 -0.2721 -0.8548 -0.7588
  832MOL0     H12297   5.838   7.647   5.701 -0.5980  0.1191 -0.5209
  832MOL0     H12298   5.675   7.838   5.734 -3.3298 -0.2506  2.7160
  832MOL0     H12299   5.838   7.854   5.801  1.4690 -2.6420 -0.4550
  832MOL0     H12300   5.613   7.752   5.988 -0.8594  1.3434  1.5833
  832MOL0     H12301   5.630   7.918   5.959 -3.6810 -1.7968  1.2948
  832MOL0     H12302   5.545   6.920   5.355  2.2016  4.2994  2.4755
  832MOL0     H12303   5.416   6.835   5.174 -0.5837 -0.6059  0.0546
  832MOL0     H12304   4.952   6.764   5.105  0.7419  1.1929 -0.3941
  832MOL0     H12305   4.777   6.656   5.005 -0.7152  0.0290  1.4674
  832MOL0     H12306   3.207   7.018   5.006 -1.9019  3.1333 -1.2196
  832MOL0     H12307   2.971   6.995   5.021  0.5754  0.2790  1.1833
  832MOL0     H12308   2.595   6.781   4.768 -0.3563 -1.0436 -0.5803
  832MOL0     H12309   2.352   6.740   4.770 -0.9888  1.2682  0.9071
  832MOL0     H12310   2.198   6.927   4.904 -0.0046 -0.9986 -3.0237
  832MOL0     H12311   2.108   6.825   4.816  5.1993  1.1957 -1.0057
  832MOL0     H12312   2.035   6.939   5.093 -1.1368  0.7975  0.7786
  832MOL0     H12313   1.935   6.811   5.016  1.3602 -0.4150  0.4537
  832MOL0     H12314   1.882   6.946   4.821 -0.3747  1.5102 -0.8640
  832MOL0     H12315   2.001   7.065   4.892  0.0728 -0.0990  1.1511
  832MOL0     H12316   1.845   7.087   5.091  1.8898  0.0069 -0.1567
  832MOL0     H12317   1.725   6.965   5.021 -0.7744 -0.4605 -2.4913
  832MOL0     H12318   1.612   7.334   4.854  0.9531  0.2400 -0.4105
  832MOL0     H12319   2.359   6.752   5.199 -1.5882  0.8419 -0.4768
  832MOL0     H12320   2.601   6.800   5.194  2.0190  1.0796 -1.9571
  833MOL0     O12321   3.040   5.670   1.037 -0.5695  0.1346 -0.5322
  833MOL0     C12322   3.089   5.605   1.131  0.0058  0.3602 -0.5644
  833MOL0     O12323   3.014   5.516   1.206  0.1345 -0.5849 -0.2182
  833MOL0     C12324   2.916   5.446   1.141  0.3837 -0.2757 -0.4065
  833MOL0     C12325   2.907   5.415   1.001  0.4358 -0.5101  0.4251
  833MOL0     C12326   2.795   5.345   0.944 -0.0657 -0.2711  0.3059
  833MOL0     C12327   2.693   5.301   1.030 -0.5578 -0.0652  0.0838
  833MOL0     O12328   2.597   5.231   0.963 -0.1675  0.6254  0.1666
  833MOL0     C12329   2.472   5.181   1.024  0.0131 -0.6692 -0.4334
  833MOL0     C12330   2.451   5.047   0.961 -0.7250 -0.1547 -0.2013
  833MOL0     C12331   2.460   5.047   0.808 -0.2844  0.0213 -0.2542
  833MOL0     C12332   2.366   4.947   0.757  0.4489  0.4210  0.1732
  833MOL0     C12333   2.210   4.988   0.766  0.2539 -0.1332  0.1287
  833MOL0     C12334   2.106   4.864   0.756 -0.3493 -0.2547 -0.1060
  833MOL0     C12335   2.110   4.763   0.637  0.1069  0.7418 -0.3174
  833MOL0     C12336   2.011   4.656   0.625  0.1513  0.1259  0.1191
  833MOL0     N12337   1.878   4.715   0.633  0.3147  0.0014  0.7098
  833MOL0     C12338   1.764   4.646   0.678 -0.3003 -0.0156  0.6450
  833MOL0     C12339   1.657   4.714   0.635  0.0761  0.5432 -0.1684
  833MOL0     C12340   1.508   4.681   0.679 -0.3616  0.4842 -0.1375
  833MOL0     C12341   1.439   4.799   0.746 -0.5320 -0.2819 -0.6577
  833MOL0     C12342   1.328   4.755   0.837  0.0979 -0.6658  0.6767
  833MOL0     C12343   1.208   4.711   0.748  0.0639 -1.5781  0.3754
  833MOL0     O12344   1.206   4.576   0.700 -0.5874 -0.6146 -0.4113
  833MOL0     C12345   1.107   4.545   0.608  0.2609 -0.1157 -0.1222
  833MOL0     C12346   1.131   4.416   0.555  0.0701 -0.5428  0.4437
  833MOL0     C12347   1.036   4.355   0.471  0.8528 -0.5481 -1.2783
  833MOL0     C12348   1.063   4.219   0.412 -0.5200  0.1658  0.2834
  833MOL0     C12349   0.910   4.416   0.465  0.8493  0.1756  0.0770
  833MOL0     C12350   0.800   4.331   0.408 -0.7056 -0.1523 -1.1615
  833MOL0     O12351   0.751   4.239   0.492  0.1102  0.6600  0.2064
  833MOL0     C12352   0.643   4.158   0.463 -0.1403  0.1265  0.1938
  833MOL0     C12353   0.638   4.074   0.353  0.4968 -0.1141  0.0239
  833MOL0     C12354   0.532   3.985   0.344 -0.2953  0.2895 -0.2796
  833MOL0     C12355   0.426   3.979   0.431 -0.4619 -0.3856 -0.5267
  833MOL0     O12356   0.328   3.877   0.417 -0.2131 -0.3441  0.1883
  833MOL0     C12357   0.235   3.845   0.520  0.1101 -0.1358  0.1135
  833MOL0     C12358   0.168   3.709   0.507  0.3299  0.7606 -0.2133
  833MOL0     C12359   0.267   3.590   0.546 -0.4181 -0.2967  0.0975
  833MOL0     C12360   0.177   3.461   0.518  0.4133  0.2836 -0.3178
  833MOL0     C12361   0.260   3.333   0.550  0.7446 -1.0058  0.2073
  833MOL0     C12362   0.268   3.306   0.706  0.1849  0.1874  0.5537
  833MOL0     C12363   0.246   3.165   0.744  0.7146  0.7862 -0.3137
  833MOL0     C12364   0.243   3.136   0.889 -0.8909 -0.2874  0.8344
  833MOL0    Cl12365   0.358   3.239   0.982  0.2371 -0.5014  0.0144
  833MOL0     C12366   0.427   4.062   0.541  0.2632  0.1219  1.1553
  833MOL0     C12367   0.540   4.143   0.552 -0.0841 -0.0297  0.0364
  833MOL0     O12368   0.756   4.356   0.298 -0.6555  0.5150  0.4377
  833MOL0     C12369   0.889   4.550   0.512 -0.3541 -0.5349 -0.2924
  833MOL0     C12370   0.994   4.617   0.580 -0.5848 -0.3590  0.6201
  833MOL0     N12371   1.694   4.803   0.536  0.3842 -0.4382  0.5865
  833MOL0     N12372   1.825   4.789   0.526  0.5950  0.3842 -0.1943
  833MOL0     C12373   2.689   5.339   1.164  0.2634 -0.3566 -0.3254
  833MOL0     C12374   2.807   5.414   1.217  0.8970  0.5694 -0.9672
  833MOL0     C12375   3.226   5.641   1.166  0.6172  0.2060  0.6981
  833MOL0     C12376   3.282   5.580   1.280 -0.5182 -0.4112 -0.6538
  833MOL0     C12377   3.415   5.592   1.310 -0.5651 -0.9501 -0.4838
  833MOL0     C12378   3.498   5.675   1.232 -0.3152 -0.0462 -0.4287
  833MOL0     O12379   3.632   5.685   1.274  0.4819  0.3734 -0.7185
  833MOL0     C12380   3.698   5.812   1.253  0.1427 -0.4042 -0.1819
  833MOL0     C12381   3.666   5.907   1.359  1.4204 -0.8270 -0.1083
  833MOL0     C12382   3.733   5.873   1.501  0.7672 -0.3833  0.6641
  833MOL0     C12383   3.643   5.771   1.579 -0.7606  1.1384 -0.1290
  833MOL0     C12384   3.525   5.832   1.640  0.0425 -0.0296 -0.3160
  833MOL0     C12385   3.430   5.866   1.706  0.0335  0.3424 -0.5127
  833MOL0     C12386   3.440   5.736   1.124 -0.5951  0.4882 -0.3717
  833MOL0     C12387   3.302   5.724   1.090 -0.2343 -0.6601  0.5716
  833MOL0     H12388   2.979   5.444   0.925  0.9749 -4.1724 -0.6421
  833MOL0     H12389   2.789   5.328   0.837 -2.3153 -0.0265  0.3305
  833MOL0     H12390   2.474   5.182   1.133 -1.6697  0.2891 -0.3831
  833MOL0     H12391   2.389   5.244   0.991 -0.3151 -1.1862 -0.6130
  833MOL0     H12392   2.534   4.986   0.999  0.6576 -1.5410 -4.8307
  833MOL0     H12393   2.354   5.015   0.999 -2.3326  2.4697 -1.8483
  833MOL0     H12394   2.435   5.148   0.774 -5.1370 -0.5241  0.9242
  833MOL0     H12395   2.561   5.023   0.774 -1.0510  1.2621 -3.7881
  833MOL0     H12396   2.380   4.925   0.651 -2.9569 -0.6877 -0.1784
  833MOL0     H12397   2.382   4.851   0.807  1.7992  0.9790  0.8642
  833MOL0     H12398   2.187   5.041   0.859 -1.5343  1.9760 -1.4027
  833MOL0     H12399   2.182   5.062   0.689  0.3506  0.2365  0.4455
  833MOL0     H12400   2.115   4.810   0.850 -2.2270  1.2196  0.9875
  833MOL0     H12401   2.005   4.905   0.750 -0.2294 -0.0116 -0.5358
  833MOL0     H12402   2.119   4.824   0.546 -0.2457  2.1098  0.5362
  833MOL0     H12403   2.206   4.714   0.657 -1.4260 -1.7823  1.4078
  833MOL0     H12404   2.019   4.580   0.703 -1.8233 -0.2368 -0.0022
  833MOL0     H12405   2.035   4.604   0.532 -0.8638  1.4938 -0.9616
  833MOL0     H12406   1.750   4.564   0.749 -1.1895  0.2954  0.8441
  833MOL0     H12407   1.450   4.651   0.591 -0.3713 -0.8879  0.3084
  833MOL0     H12408   1.511   4.592   0.743 -2.9306 -0.4300 -1.1767
  833MOL0     H12409   1.403   4.869   0.670 -1.6249  1.7180  1.5581
  833MOL0     H12410   1.520   4.846   0.803 -0.1764  0.6529 -1.8730
  833MOL0     H12411   1.302   4.844   0.896  0.0064 -0.1922 -0.0599
  833MOL0     H12412   1.359   4.676   0.906  0.0511 -0.8750  0.4600
  833MOL0     H12413   1.205   4.778   0.661 -3.1779 -2.9075 -0.6787
  833MOL0     H12414   1.115   4.730   0.801  0.2221 -2.1059  0.8477
  833MOL0     H12415   1.218   4.360   0.590  1.0110  1.4859  1.5039
  833MOL0     H12416   1.000   4.144   0.462 -2.0314  1.8248  0.9536
  833MOL0     H12417   1.060   4.221   0.303 -0.5035 -1.4677  0.2284
  833MOL0     H12418   1.164   4.200   0.449 -0.2630 -1.1483 -0.9905
  833MOL0     H12419   0.719   4.082   0.281 -1.4517 -1.6459 -2.5184
  833MOL0     H12420   0.537   3.914   0.262 -3.3446 -0.3534 -0.0288
  833MOL0     H12421   0.300   3.849   0.609  2.8186 -0.7531 -1.7097
  833MOL0     H12422   0.158   3.922   0.523 -1.3989 -1.6041  1.1935
  833MOL0     H12423   0.087   3.707   0.581  0.3157 -4.6854 -0.0216
  833MOL0     H12424   0.135   3.703   0.403  1.7012  0.3540 -0.6568
  833MOL0     H12425   0.304   3.601   0.648 -1.3173 -1.6024  0.6034
  833MOL0     H12426   0.349   3.610   0.477  0.6216  1.4619  1.7500
  833MOL0     H12427   0.088   3.461   0.581  1.6815 -1.8974  1.6557
  833MOL0     H12428   0.137   3.458   0.416  1.1184  0.8471 -0.6188
  833MOL0     H12429   0.359   3.355   0.509  0.2049  1.2750 -0.0239
  833MOL0     H12430   0.215   3.249   0.496 -1.2741 -0.7936  1.4311
  833MOL0     H12431   0.369   3.327   0.743 -0.4194  1.2473  1.6850
  833MOL0     H12432   0.208   3.379   0.760 -0.5542  1.2905 -1.6504
  833MOL0     H12433   0.334   3.109   0.708 -0.2150 -2.5169  2.0981
  833MOL0     H12434   0.161   3.113   0.699  1.8282 -1.5094  0.0938
  833MOL0     H12435   0.249   3.028   0.905 -1.6938 -0.1533  2.2650
  833MOL0     H12436   0.147   3.166   0.932 -0.9228  2.2105 -0.7859
  833MOL0     H12437   0.369   4.057   0.633  3.5016 -1.0232  3.3096
  833MOL0     H12438   0.540   4.193   0.648 -1.0786  1.2925 -0.6172
  833MOL0     H12439   0.794   4.601   0.494 -0.5680 -1.3398 -1.5788
  833MOL0     H12440   0.966   4.713   0.623 -1.6265 -0.6133  0.5284
  833MOL0     H12441   2.601   5.317   1.223 -0.8328  2.4643 -0.7611
  833MOL0     H12442   2.802   5.454   1.318  2.6620  1.8127 -1.3371
  833MOL0     H12443   3.224   5.510   1.339  0.4627  1.3300  2.6039
  833MOL0     H12444   3.462   5.541   1.393 -0.7714 -0.3253  0.0270
  833MOL0     H12445   3.806   5.795   1.253  0.0104 -1.3492 -0.8115
  833MOL0     H12446   3.672   5.846   1.152 -3.3890 -1.3715  0.2426
  833MOL0     H12447   3.560   5.933   1.365  1.5064 -0.7388  1.2369
  833MOL0     H12448   3.733   5.985   1.323  0.7252  1.4009  3.0471
  833MOL0     H12449   3.746   5.968   1.554 -0.5335  0.5438 -0.6163
  833MOL0     H12450   3.835   5.838   1.484  1.8450  0.4228  4.4050
  833MOL0     H12451   3.709   5.715   1.646  0.4093  2.5496 -0.0497
  833MOL0     H12452   3.599   5.698   1.511 -2.4199 -0.0756  2.0841
  833MOL0     H12453   3.336   5.884   1.754 -0.6821 -0.6201 -1.5013
  833MOL0     H12454   3.491   5.807   1.059 -2.3119  1.1606 -1.0756
  833MOL0     H12455   3.257   5.790   1.017 -0.9213 -1.9429 -0.2082
  834MOL0     O12456  11.297   3.671   7.210  0.3625 -0.3679  0.4157
  834MOL0     C12457  11.298   3.553   7.243 -0.0292  0.7680  0.2372
  834MOL0     O12458  11.408   3.473   7.240 -0.5751 -0.0464 -1.0358
  834MOL0     C12459  11.525   3.508   7.184 -0.3619 -0.4992  0.3402
  834MOL0     C12460  11.540   3.561   7.053  0.2532 -0.4823 -0.1239
  834MOL0     C12461  11.671   3.589   7.005 -0.3934  0.7374  0.1138
  834MOL0     C12462  11.786   3.545   7.085  1.2411  0.2483  0.6003
  834MOL0     O12463  11.904   3.541   7.014  0.8271  0.3308 -0.3099
  834MOL0     C12464  11.970   3.411   7.023 -0.5235  0.1312 -0.1055
  834MOL0     C12465  12.100   3.432   6.943  0.4283 -0.4931 -0.0771
  834MOL0     C12466  12.076   3.447   6.790  0.7749  0.1333  0.1630
  834MOL0     C12467  12.199   3.490   6.705 -0.7398 -0.4601  0.1759
  834MOL0     C12468  12.269   3.382   6.632 -0.0538 -0.0457  0.0939
  834MOL0     C12469  12.389   3.440   6.557  0.0648  1.1429 -0.0060
  834MOL0     C12470  12.362   3.542   6.441  0.4134  0.1323  0.1357
  834MOL0     C12471  12.484   3.542   6.339 -0.5959  0.3209 -1.2646
  834MOL0     N12472  12.609   3.618   6.383 -0.6820 -1.5905  0.1281
  834MOL0     C12473  12.703   3.602   6.486  0.0086 -0.4839 -0.6312
  834MOL0     C12474  12.789   3.708   6.469  0.8941 -0.0300  0.1263
  834MOL0     C12475  12.903   3.747   6.562 -0.0627  0.0400 -0.0701
  834MOL0     C12476  12.841   3.770   6.696 -0.4381  0.5565 -0.3077
  834MOL0     C12477  12.740   3.883   6.688 -0.3649  0.3847  0.6467
  834MOL0     C12478  12.654   3.903   6.810 -0.4057  0.3405 -0.3332
  834MOL0     O12479  12.600   4.030   6.843 -0.5447  0.3347 -0.7276
  834MOL0     C12480  12.675   4.134   6.886  0.2364 -0.9456  0.0661
  834MOL0     C12481  12.804   4.128   6.941  0.4245  0.1301  0.3314
  834MOL0     C12482  12.859   4.248   6.986 -0.9196 -0.3127 -0.9835
  834MOL0     C12483  13.006   4.234   7.024 -0.5017 -0.8994  0.1483
  834MOL0     C12484  12.795   4.376   6.979  0.5068 -0.4343 -0.8004
  834MOL0     C12485  12.854   4.509   7.021  0.6016  0.5768  0.2075
  834MOL0     O12486  12.758   4.613   7.051 -0.2711 -0.4910  0.0103
  834MOL0     C12487  12.809   4.735   7.092 -0.0975  1.0089 -0.0546
  834MOL0     C12488  12.752   4.839   7.021 -0.7566 -0.2949 -0.0447
  834MOL0     C12489  12.799   4.977   7.032  0.5082  0.4059 -0.1172
  834MOL0     C12490  12.904   4.995   7.127  0.0559 -0.4438  0.1557
  834MOL0     O12491  12.966   5.116   7.144 -0.7682  0.9077 -0.3285
  834MOL0     C12492  12.898   5.227   7.093  0.1121 -0.0982  0.4208
  834MOL0     C12493  12.981   5.346   7.143  0.1006  0.5728  0.0595
  834MOL0     C12494  12.924   5.489   7.087 -0.0011  0.9743 -0.5369
  834MOL0     C12495  12.995   5.596   7.156  0.5749 -0.7125  0.0102
  834MOL0     C12496  12.946   5.599   7.302  0.0820  0.4500 -0.9895
  834MOL0     C12497  12.983   5.728   7.368  0.2270 -0.0973 -0.5296
  834MOL0     C12498  12.908   5.745   7.502  0.3392 -0.8716  0.6091
  834MOL0     C12499  12.976   5.852   7.589  0.2448 -0.0078 -0.5504
  834MOL0    Cl12500  12.981   6.009   7.505 -0.2368 -0.0225 -0.1330
  834MOL0     C12501  12.961   4.890   7.205  0.3048  0.9392  0.1265
  834MOL0     C12502  12.911   4.756   7.187 -0.3286  0.0324  0.2881
  834MOL0     O12503  12.972   4.524   7.037  0.0696  0.5134 -0.4834
  834MOL0     C12504  12.660   4.375   6.938 -0.3564  0.0632 -0.9714
  834MOL0     C12505  12.603   4.260   6.889 -0.2832 -0.7516 -0.6013
  834MOL0     N12506  12.746   3.787   6.365 -0.7440 -0.4926 -0.3955
  834MOL0     N12507  12.657   3.727   6.303 -0.1591 -0.0566  0.2034
  834MOL0     C12508  11.774   3.489   7.218  0.2520  0.0267  1.1113
  834MOL0     C12509  11.639   3.476   7.256  0.5531  0.0107 -0.3578
  834MOL0     C12510  11.161   3.497   7.265  1.0325  0.6326  0.0431
  834MOL0     C12511  11.142   3.355   7.290 -0.4334 -0.1423 -0.3181
  834MOL0     C12512  11.014   3.298   7.316 -0.8222 -0.1775 -0.2817
  834MOL0     C12513  10.905   3.384   7.330 -0.1950 -0.2602  0.4270
  834MOL0     O12514  10.802   3.337   7.400 -0.1932 -0.6314  0.8530
  834MOL0     C12515  10.705   3.425   7.464  0.5753 -0.1421  0.8072
  834MOL0     C12516  10.601   3.328   7.516 -0.1401  0.5891  0.3924
  834MOL0     C12517  10.515   3.404   7.617 -0.1392 -0.6627 -0.3033
  834MOL0     C12518  10.405   3.316   7.680 -0.3645 -0.3456 -0.4847
  834MOL0     C12519  10.345   3.396   7.796  0.5845 -0.4661  0.3120
  834MOL0     C12520  10.301   3.468   7.886  1.4293  0.7734 -0.3398
  834MOL0     C12521  10.920   3.520   7.283 -0.0136 -0.5838  0.5466
  834MOL0     C12522  11.040   3.572   7.260 -0.3998  0.4968 -0.5354
  834MOL0     H12523  11.457   3.592   6.992 -1.4787 -0.2814  2.1883
  834MOL0     H12524  11.687   3.644   6.913 -0.1554 -3.3918 -2.5810
  834MOL0     H12525  12.000   3.387   7.126 -0.3322  0.1192 -0.1625
  834MOL0     H12526  11.914   3.325   6.988  1.6516 -1.0684 -0.8474
  834MOL0     H12527  12.130   3.527   6.987  2.2526 -1.0018 -0.1202
  834MOL0     H12528  12.182   3.363   6.966  1.6724  1.7210  2.6979
  834MOL0     H12529  12.035   3.354   6.750 -1.9349  1.1869  0.2444
  834MOL0     H12530  12.002   3.527   6.780  3.3652  2.7422  0.4748
  834MOL0     H12531  12.157   3.558   6.630 -0.1858 -0.4013 -0.0811
  834MOL0     H12532  12.276   3.538   6.766 -0.5576  0.7514 -0.9508
  834MOL0     H12533  12.313   3.318   6.709  2.1309  0.1540 -0.9093
  834MOL0     H12534  12.203   3.321   6.570  0.4130 -2.9339  2.2427
  834MOL0     H12535  12.462   3.484   6.626  1.0595 -0.2425 -0.1258
  834MOL0     H12536  12.447   3.360   6.511  0.7513  1.0949  0.9096
  834MOL0     H12537  12.268   3.505   6.400 -1.7280  4.3769  0.6413
  834MOL0     H12538  12.356   3.645   6.477  1.1299  0.1730  0.1563
  834MOL0     H12539  12.436   3.578   6.247  0.1406  1.6558 -1.1464
  834MOL0     H12540  12.513   3.438   6.320 -1.6979 -0.1393 -0.5426
  834MOL0     H12541  12.697   3.539   6.574  2.7424  1.4978  1.1351
  834MOL0     H12542  12.977   3.667   6.569 -1.1542 -0.9452  0.6454
  834MOL0     H12543  12.946   3.844   6.537 -0.9233  0.8089  1.2928
  834MOL0     H12544  12.920   3.809   6.761  1.6796 -0.7546 -1.9424
  834MOL0     H12545  12.796   3.683   6.745  0.0946  0.7954  0.6380
  834MOL0     H12546  12.662   3.887   6.611  0.1246  1.7697  0.1956
  834MOL0     H12547  12.799   3.974   6.677  1.8630 -0.7964  2.1219
  834MOL0     H12548  12.716   3.868   6.894 -0.1913 -0.1400 -0.6862
  834MOL0     H12549  12.581   3.821   6.813 -1.1256  0.9830  1.8000
  834MOL0     H12550  12.864   4.038   6.947 -0.5996 -0.4999  1.4637
  834MOL0     H12551  13.020   4.270   7.126 -0.3127  1.5828 -0.6917
  834MOL0     H12552  13.035   4.129   7.014  0.3170 -0.5219 -2.0669
  834MOL0     H12553  13.063   4.303   6.961  0.3167 -0.1768  1.6236
  834MOL0     H12554  12.679   4.816   6.944 -1.1667 -4.7972  1.4352
  834MOL0     H12555  12.741   5.049   6.977 -1.7674 -0.5806  0.8415
  834MOL0     H12556  12.893   5.225   6.984  1.7250 -2.4589  0.2858
  834MOL0     H12557  12.800   5.227   7.141 -0.0986  0.5826 -0.0126
  834MOL0     H12558  12.989   5.343   7.253 -3.2402 -1.5300  0.3565
  834MOL0     H12559  13.077   5.331   7.094 -1.0435 -4.1319 -1.1405
  834MOL0     H12560  12.816   5.484   7.106 -0.3341 -1.4262 -2.4578
  834MOL0     H12561  12.932   5.483   6.978 -1.2514 -0.5798 -0.5835
  834MOL0     H12562  13.103   5.585   7.151  0.7633  1.1867 -0.7860
  834MOL0     H12563  12.970   5.690   7.106  1.4763  0.5091  1.7651
  834MOL0     H12564  12.988   5.515   7.356 -1.4602 -1.8810 -3.1617
  834MOL0     H12565  12.838   5.587   7.319  0.6898 -0.6425  3.0895
  834MOL0     H12566  13.092   5.730   7.381  0.1814  1.2041 -0.1426
  834MOL0     H12567  12.969   5.818   7.308  3.1668  1.6979  1.2282
  834MOL0     H12568  12.912   5.656   7.565 -1.0025  0.0074  1.9913
  834MOL0     H12569  12.803   5.774   7.498  0.5249  0.0012  1.6111
  834MOL0     H12570  13.076   5.828   7.627 -1.2928 -1.1991  3.1672
  834MOL0     H12571  12.932   5.866   7.688  0.5157 -1.3762 -0.2147
  834MOL0     H12572  13.035   4.901   7.284  0.6175 -0.4123  0.0470
  834MOL0     H12573  12.950   4.677   7.250  1.0144  0.0986 -0.4111
  834MOL0     H12574  12.608   4.470   6.935  0.9860  0.7990 -1.9609
  834MOL0     H12575  12.504   4.263   6.845 -1.2430  2.1469  1.5057
  834MOL0     H12576  11.865   3.446   7.259  0.4475 -1.9947 -1.2335
  834MOL0     H12577  11.612   3.431   7.352 -0.8655 -1.0009 -1.2029
  834MOL0     H12578  11.231   3.293   7.304 -0.3388  0.3729  1.6888
  834MOL0     H12579  11.003   3.195   7.350 -0.2638  1.0564  4.4749
  834MOL0     H12580  10.759   3.474   7.545  2.1454  0.5120 -0.5751
  834MOL0     H12581  10.658   3.505   7.405 -1.8287 -2.0003  0.0291
  834MOL0     H12582  10.661   3.251   7.565  1.2638  0.4767 -1.3925
  834MOL0     H12583  10.545   3.291   7.430 -0.2721 -1.0278  1.1368
  834MOL0     H12584  10.455   3.476   7.560 -2.2737 -1.3372  1.0220
  834MOL0     H12585  10.578   3.449   7.694 -1.1508 -0.4487  0.4121
  834MOL0     H12586  10.446   3.221   7.715  1.0527 -0.7222 -2.9454
  834MOL0     H12587  10.328   3.293   7.607 -1.0626 -2.3091  0.8028
  834MOL0     H12588  10.249   3.525   7.960 -2.2913 -0.5873 -1.6649
  834MOL0     H12589  10.833   3.577   7.256 -0.1857 -0.9641  0.2897
  834MOL0     H12590  11.037   3.678   7.234  3.7307  0.3403 -2.3524
  835MOL0     O12591  11.196   1.647  11.078 -0.4085  0.4739 -0.5055
  835MOL0     C12592  11.185   1.704  11.182  0.2754 -0.0584 -0.9199
  835MOL0     O12593  11.084   1.683  11.279  0.7500 -0.5787  0.3602
  835MOL0     C12594  10.982   1.613  11.234  0.3261  0.9382 -0.1364
  835MOL0     C12595  10.999   1.473  11.241 -0.1070  1.0647  0.1493
  835MOL0     C12596  10.882   1.389  11.206 -0.2249 -0.2326  0.4047
  835MOL0     C12597  10.761   1.447  11.172  0.2567 -0.2237  0.2712
  835MOL0     O12598  10.652   1.372  11.122  0.1437  0.4371  0.2507
  835MOL0     C12599  10.643   1.244  11.196  0.6529  0.5586  0.7513
  835MOL0     C12600  10.608   1.274  11.354 -1.4011 -0.3205  0.0224
  835MOL0     C12601  10.489   1.357  11.392 -0.2567 -1.3865 -1.6499
  835MOL0     C12602  10.371   1.362  11.297  0.1240 -0.6113  0.7914
  835MOL0     C12603  10.269   1.455  11.357 -0.5964  0.0639  0.9108
  835MOL0     C12604  10.141   1.467  11.280 -0.4292 -0.2323 -1.1107
  835MOL0     C12605  10.063   1.339  11.289 -0.4806 -0.3938 -0.3697
  835MOL0     C12606  10.026   1.325  11.440 -0.5278  0.5283 -0.0814
  835MOL0     N12607   9.922   1.223  11.451 -0.8214  0.9545  0.5208
  835MOL0     C12608   9.951   1.090  11.489 -0.4981 -0.1686  1.0815
  835MOL0     C12609   9.835   1.032  11.529 -0.0036 -0.3481 -0.1891
  835MOL0     C12610   9.805   0.882  11.551 -0.1377 -1.0986  1.0256
  835MOL0     C12611   9.709   0.818  11.449 -0.0130  0.7865  0.2162
  835MOL0     C12612   9.770   0.787  11.314 -0.7868 -0.8054  0.1598
  835MOL0     C12613   9.844   0.662  11.318 -0.2145  1.0531  0.1518
  835MOL0     O12614   9.912   0.632  11.203  1.0187 -0.2984 -0.2656
  835MOL0     C12615  10.049   0.668  11.175  0.2110  0.7954  0.0117
  835MOL0     C12616  10.113   0.757  11.263  0.3632  0.3654 -0.1848
  835MOL0     C12617  10.246   0.794  11.231  1.0411 -0.4898  0.3708
  835MOL0     C12618  10.307   0.903  11.312 -0.0782 -0.5466 -0.3600
  835MOL0     C12619  10.312   0.756  11.109  0.3329 -0.3849 -0.3129
  835MOL0     C12620  10.431   0.818  11.055 -0.4219 -0.4610  0.0008
  835MOL0     O12621  10.460   0.800  10.924 -0.2925  0.1756  0.1076
  835MOL0     C12622  10.574   0.844  10.870  0.3236  0.3163  0.1252
  835MOL0     C12623  10.698   0.786  10.908 -0.4223  0.4467  0.2143
  835MOL0     C12624  10.820   0.819  10.849  0.0427 -0.4614  0.8173
  835MOL0     C12625  10.814   0.919  10.759  0.8911 -0.2021 -0.0937
  835MOL0     O12626  10.926   0.964  10.699  0.2284 -0.1985 -0.2313
  835MOL0     C12627  11.034   0.998  10.788  0.9986 -0.3992  0.1724
  835MOL0     C12628  10.987   1.128  10.858 -0.4475  0.1854  0.7261
  835MOL0     C12629  10.965   1.250  10.766 -0.0823 -0.1497 -0.0007
  835MOL0     C12630  10.896   1.366  10.837 -0.5411 -0.0713 -0.6276
  835MOL0     C12631  10.885   1.491  10.756 -0.3245  0.3470 -0.4880
  835MOL0     C12632  10.863   1.622  10.839  0.2014 -0.6286  1.2539
  835MOL0     C12633  10.834   1.747  10.761  0.0352 -0.5188 -0.2046
  835MOL0     C12634  10.836   1.865  10.859 -0.6793  0.4451  0.1028
  835MOL0    Cl12635  10.689   1.861  10.961 -0.6725 -0.3489  0.0315
  835MOL0     C12636  10.698   0.984  10.714 -0.8923 -0.4740 -0.3157
  835MOL0     C12637  10.576   0.934  10.764 -0.2410  0.4396 -0.6610
  835MOL0     O12638  10.509   0.869  11.137  0.6244  0.3627 -0.4112
  835MOL0     C12639  10.235   0.677  11.020 -0.6845 -0.0088 -0.8675
  835MOL0     C12640  10.115   0.624  11.061  0.6501  0.5338 -0.1008
  835MOL0     N12641   9.742   1.135  11.531  0.0201  0.4328 -0.6644
  835MOL0     N12642   9.792   1.241  11.487 -1.0245 -0.2868  0.4289
  835MOL0     C12643  10.745   1.585  11.179  0.3347 -0.4002 -0.4203
  835MOL0     C12644  10.855   1.669  11.207  0.1987  0.5997  0.8319
  835MOL0     C12645  11.288   1.802  11.204  0.1269 -0.6714  0.1500
  835MOL0     C12646  11.320   1.849  11.329 -1.5233  0.4381 -0.2831
  835MOL0     C12647  11.426   1.939  11.354  0.2067 -0.8241  0.0380
  835MOL0     C12648  11.498   1.991  11.242  0.1401  0.7081 -0.9214
  835MOL0     O12649  11.601   2.084  11.272 -0.0316  1.0345  0.6850
  835MOL0     C12650  11.700   2.085  11.176 -1.0390 -0.5131 -0.2030
  835MOL0     C12651  11.822   2.153  11.243  0.2609  0.0181 -0.7352
  835MOL0     C12652  11.937   2.075  11.184 -0.7702  0.3664 -0.0370
  835MOL0     C12653  12.068   2.160  11.187 -0.0713 -0.0912  0.5116
  835MOL0     C12654  12.187   2.103  11.113 -0.2768  0.1725  0.0007
  835MOL0     C12655  12.287   2.045  11.072 -0.0947  0.2954 -0.3947
  835MOL0     C12656  11.451   1.959  11.111  0.1864  0.4261  0.3121
  835MOL0     C12657  11.347   1.869  11.094 -0.3509  0.0625 -0.3438
  835MOL0     H12658  11.093   1.431  11.273 -0.3395  2.0543  2.2846
  835MOL0     H12659  10.905   1.284  11.189  0.4477 -0.5070  2.7343
  835MOL0     H12660  10.552   1.211  11.145  2.7111  0.6383 -3.3071
  835MOL0     H12661  10.732   1.181  11.187 -0.5751 -1.1049 -0.3159
  835MOL0     H12662  10.583   1.180  11.403 -0.9842 -0.6322 -0.3552
  835MOL0     H12663  10.698   1.312  11.402 -0.8283 -2.0040  0.3192
  835MOL0     H12664  10.457   1.327  11.492  1.4542 -1.0026 -0.9634
  835MOL0     H12665  10.529   1.455  11.417 -0.9395 -1.2843 -0.9221
  835MOL0     H12666  10.402   1.394  11.197  0.6244 -0.7888  0.8858
  835MOL0     H12667  10.337   1.259  11.283 -1.2073  0.0533 -1.3614
  835MOL0     H12668  10.251   1.419  11.458  2.4850  1.5546  2.1196
  835MOL0     H12669  10.300   1.560  11.353 -0.9335  0.1401 -0.7206
  835MOL0     H12670  10.078   1.550  11.314 -0.6583 -0.5875 -0.6578
  835MOL0     H12671  10.160   1.490  11.175 -1.1863  2.4467 -0.7356
  835MOL0     H12672   9.972   1.348  11.229  1.1153  0.0095 -2.8659
  835MOL0     H12673  10.116   1.248  11.258 -0.2657 -0.9879  1.5999
  835MOL0     H12674  10.004   1.423  11.482  2.9704  1.3838  0.0866
  835MOL0     H12675  10.106   1.288  11.506 -2.5960 -1.0436  1.7159
  835MOL0     H12676  10.049   1.043  11.492 -1.0390 -1.2826  2.4153
  835MOL0     H12677   9.898   0.826  11.565 -0.1392 -0.7863  2.4143
  835MOL0     H12678   9.758   0.878  11.650 -1.7063 -1.2411  0.2992
  835MOL0     H12679   9.634   0.894  11.428 -0.3926 -0.5332 -4.1564
  835MOL0     H12680   9.669   0.726  11.494  2.7282 -1.7893 -2.1126
  835MOL0     H12681   9.841   0.867  11.291  0.5145 -1.2982  2.2457
  835MOL0     H12682   9.698   0.778  11.232  1.0606  1.0186 -1.8084
  835MOL0     H12683   9.774   0.580  11.338 -0.1136  1.1513  0.9394
  835MOL0     H12684   9.907   0.659  11.408  0.5757  0.4925 -0.4065
  835MOL0     H12685  10.061   0.804  11.346  2.5331  0.8336  1.0098
  835MOL0     H12686  10.244   0.922  11.399  1.0271 -2.1561  0.8464
  835MOL0     H12687  10.405   0.875  11.351  0.3483  1.1459 -0.1650
  835MOL0     H12688  10.329   0.992  11.253  3.9882 -1.4794 -0.5502
  835MOL0     H12689  10.686   0.707  10.981 -3.1242 -3.2658 -3.7146
  835MOL0     H12690  10.911   0.784  10.895  1.0661  2.0401  0.8596
  835MOL0     H12691  11.058   0.921  10.862  0.5854 -2.0901 -1.3804
  835MOL0     H12692  11.125   1.025  10.734 -0.6028  3.4331 -0.9327
  835MOL0     H12693  10.902   1.098  10.920  0.5498 -1.5609  1.3079
  835MOL0     H12694  11.063   1.160  10.930  0.3680  3.7333 -1.4204
  835MOL0     H12695  10.901   1.215  10.685  2.9794  0.2044 -2.7529
  835MOL0     H12696  11.065   1.270  10.727  1.9165 -5.3428  1.6934
  835MOL0     H12697  10.803   1.326  10.879  1.3786 -0.2718  4.1630
  835MOL0     H12698  10.967   1.382  10.919 -1.0479  0.2460 -0.2478
  835MOL0     H12699  10.802   1.485  10.684 -1.5831  2.5323  0.6811
  835MOL0     H12700  10.964   1.503  10.681 -0.3339  3.6379 -0.1198
  835MOL0     H12701  10.787   1.604  10.916  0.8480 -1.3463  1.7398
  835MOL0     H12702  10.956   1.644  10.892 -0.5417 -1.4320  2.9535
  835MOL0     H12703  10.736   1.749  10.713 -1.4198 -1.8794  2.4877
  835MOL0     H12704  10.914   1.760  10.688  0.8660 -1.0322  0.5875
  835MOL0     H12705  10.835   1.962  10.808 -0.9450 -1.3785 -3.6926
  835MOL0     H12706  10.923   1.857  10.925 -0.1698  2.3808 -0.2775
  835MOL0     H12707  10.703   1.072  10.650  1.2809  0.4608  1.0273
  835MOL0     H12708  10.482   0.980  10.737 -1.2068  0.1312  1.8993
  835MOL0     H12709  10.270   0.633  10.927  0.4593 -4.8030  1.5139
  835MOL0     H12710  10.052   0.565  10.995 -0.8303 -2.2748  3.4898
  835MOL0     H12711  10.647   1.631  11.165  1.0594  1.1541 -0.6598
  835MOL0     H12712  10.852   1.778  11.199  0.7775  0.5883  0.4250
  835MOL0     H12713  11.284   1.791  11.412  4.1409 -4.7379 -0.7459
  835MOL0     H12714  11.469   1.958  11.452  1.7446 -1.1655 -0.5475
  835MOL0     H12715  11.724   1.992  11.123  1.3245  1.1103 -2.1743
  835MOL0     H12716  11.676   2.158  11.098 -0.4696 -1.5580 -1.3953
  835MOL0     H12717  11.815   2.136  11.351  1.4586 -1.9284 -0.9164
  835MOL0     H12718  11.835   2.258  11.215  1.4833  0.0103 -0.2434
  835MOL0     H12719  11.920   2.047  11.079 -3.5367 -0.8321  0.6549
  835MOL0     H12720  11.939   1.984  11.245  0.1936  0.2650 -0.2067
  835MOL0     H12721  12.100   2.185  11.289  0.5268 -0.1824  0.3509
  835MOL0     H12722  12.040   2.255  11.140 -1.0246 -1.5300 -2.0383
  835MOL0     H12723  12.348   1.982  11.012 -1.2362 -2.5556  1.2636
  835MOL0     H12724  11.500   2.007  11.027 -0.2954 -1.6391 -1.2322
  835MOL0     H12725  11.338   1.834  10.991  3.8882  1.8178 -1.5084
  836MOL0     O12726   0.323   9.707   4.288  0.4406  0.1276 -0.0933
  836MOL0     C12727   0.415   9.697   4.205  0.4428 -0.9654  0.0685
  836MOL0     O12728   0.400   9.663   4.074 -0.2172  0.1070 -0.0743
  836MOL0     C12729   0.276   9.659   4.011  0.1291 -0.6099  0.3111
  836MOL0     C12730   0.247   9.572   3.902 -0.2166  0.1182 -1.1738
  836MOL0     C12731   0.123   9.575   3.835 -0.4313  0.2236 -0.1703
  836MOL0     C12732   0.027   9.670   3.863  0.4091 -0.3307 -0.5931
  836MOL0     O12733  -0.087   9.680   3.784 -0.1384 -0.3458 -0.9133
  836MOL0     C12734  -0.099   9.807   3.732  0.0161  0.0837  0.6798
  836MOL0     C12735  -0.190   9.802   3.617  1.1586 -0.7994  0.8672
  836MOL0     C12736  -0.330   9.748   3.647 -0.0233 -0.4443 -0.3338
  836MOL0     C12737  -0.392   9.713   3.507 -0.6376 -0.3891  0.5260
  836MOL0     C12738  -0.536   9.654   3.509  0.1797  0.2026 -0.4265
  836MOL0     C12739  -0.583   9.619   3.365 -0.6169 -0.1116 -1.1918
  836MOL0     C12740  -0.723   9.557   3.362 -0.2328 -0.2921 -0.8094
  836MOL0     C12741  -0.764   9.511   3.219  0.0377 -0.5767  0.4252
  836MOL0     N12742  -0.867   9.412   3.198  0.2738  0.3860 -0.7696
  836MOL0     C12743  -0.851   9.284   3.232  0.5450  0.6039 -0.2856
  836MOL0     C12744  -0.975   9.222   3.216 -0.8551 -0.7872  0.3168
  836MOL0     C12745  -1.004   9.082   3.217  0.0173 -0.1160 -0.1508
  836MOL0     C12746  -1.055   9.019   3.088 -0.0790 -0.4720 -0.0025
  836MOL0     C12747  -1.198   9.048   3.036 -0.2959  0.0737 -0.0795
  836MOL0     C12748  -1.244   8.973   2.914  1.2205 -0.2275 -0.7290
  836MOL0     O12749  -1.345   9.049   2.838  0.6225 -0.1838 -0.4988
  836MOL0     C12750  -1.483   9.031   2.857 -0.5668  0.5615  0.8898
  836MOL0     C12751  -1.545   8.945   2.945 -0.4009 -0.9003 -0.3072
  836MOL0     C12752  -1.687   8.937   2.959 -0.2978 -0.4923 -1.0218
  836MOL0     C12753  -1.729   8.855   3.072  0.6429  0.3378 -0.1380
  836MOL0     C12754  -1.773   9.018   2.886  0.0688 -0.4754  0.5070
  836MOL0     C12755  -1.920   9.012   2.883  0.9830 -0.3814  0.2494
  836MOL0     O12756  -1.987   8.900   2.883 -0.0519 -0.0389 -0.4441
  836MOL0     C12757  -2.123   8.904   2.850  0.3269 -0.7048 -0.2089
  836MOL0     C12758  -2.166   8.901   2.719 -0.8267  0.0426 -0.2877
  836MOL0     C12759  -2.311   8.898   2.686 -0.0987  0.8388  0.0244
  836MOL0     C12760  -2.403   8.903   2.795 -0.3723  0.0422 -0.6010
  836MOL0     O12761  -2.543   8.899   2.783  0.9052 -0.2041  0.2988
  836MOL0     C12762  -2.584   8.782   2.709 -0.0237 -0.2355 -0.0403
  836MOL0     C12763  -2.728   8.767   2.698  0.3949 -0.6043  0.2662
  836MOL0     C12764  -2.788   8.683   2.583 -0.6498 -0.3030  0.2092
  836MOL0     C12765  -2.900   8.756   2.519  0.7438 -0.8696  0.1646
  836MOL0     C12766  -2.905   8.748   2.362 -0.0306 -0.2040 -0.5171
  836MOL0     C12767  -2.923   8.610   2.299  0.2704 -0.3106 -0.1808
  836MOL0     C12768  -2.952   8.620   2.145  0.5696  0.4664 -0.4859
  836MOL0     C12769  -2.848   8.710   2.080  0.0064  0.5129 -0.2070
  836MOL0    Cl12770  -2.878   8.670   1.903  0.2315 -0.0875  0.1746
  836MOL0     C12771  -2.353   8.903   2.924  0.1643 -0.1085 -0.1382
  836MOL0     C12772  -2.216   8.903   2.948  0.8436  0.2099 -0.2731
  836MOL0     O12773  -1.976   9.124   2.886  0.0760  0.4087  0.0080
  836MOL0     C12774  -1.705   9.108   2.792 -0.1628 -0.2948  0.2296
  836MOL0     C12775  -1.569   9.113   2.776  0.2911  0.3615  0.7221
  836MOL0     N12776  -1.063   9.321   3.169  0.2804 -0.0798  0.3651
  836MOL0     N12777  -0.994   9.434   3.170 -0.1132 -0.0674  0.1594
  836MOL0     C12778   0.052   9.765   3.969 -0.5141 -0.2929 -0.5037
  836MOL0     C12779   0.171   9.749   4.038  0.1889  0.1184  1.2411
  836MOL0     C12780   0.554   9.695   4.244  0.0271 -0.9849  0.4683
  836MOL0     C12781   0.658   9.675   4.151 -0.3103  0.9784  0.0060
  836MOL0     C12782   0.793   9.685   4.206 -0.3043  0.7593  0.5721
  836MOL0     C12783   0.833   9.697   4.340  0.1655 -0.1782 -0.2172
  836MOL0     O12784   0.960   9.707   4.387 -0.5024 -0.7109 -0.5495
  836MOL0     C12785   1.029   9.581   4.404 -0.3855 -0.1655 -0.7089
  836MOL0     C12786   0.972   9.488   4.522 -0.9115  0.2485  0.2452
  836MOL0     C12787   1.059   9.357   4.536  0.2543  0.3044 -0.8418
  836MOL0     C12788   1.011   9.261   4.654 -0.2581 -0.1855  0.4459
  836MOL0     C12789   0.873   9.240   4.662 -0.6079  1.7826 -0.8161
  836MOL0     C12790   0.753   9.209   4.666  0.1074 -0.3141  0.3066
  836MOL0     C12791   0.723   9.697   4.424 -0.3114 -0.2725  0.3417
  836MOL0     C12792   0.589   9.701   4.375 -0.7566 -0.2894 -0.8302
  836MOL0     H12793   0.316   9.494   3.868 -0.3217 -0.4492 -0.1359
  836MOL0     H12794   0.121   9.515   3.745 -1.1856  0.7396 -0.5051
  836MOL0     H12795  -0.158   9.874   3.795 -1.3928  0.9681 -1.4618
  836MOL0     H12796  -0.005   9.854   3.703  1.3389 -0.0111  4.3226
  836MOL0     H12797  -0.199   9.910   3.602 -0.4709 -0.9211  0.8590
  836MOL0     H12798  -0.143   9.746   3.535  2.6241 -0.6188  1.5463
  836MOL0     H12799  -0.323   9.667   3.720  0.2456 -1.5820 -1.5903
  836MOL0     H12800  -0.384   9.833   3.691 -0.4425  1.0673 -3.4814
  836MOL0     H12801  -0.404   9.802   3.444 -4.1588 -1.9676 -1.3349
  836MOL0     H12802  -0.324   9.641   3.460  0.6549 -0.6643  2.6998
  836MOL0     H12803  -0.538   9.562   3.569  1.0379  0.4188 -0.0634
  836MOL0     H12804  -0.607   9.732   3.539  1.4577  1.4717 -0.6364
  836MOL0     H12805  -0.589   9.708   3.300 -0.8895 -0.5288 -1.7502
  836MOL0     H12806  -0.509   9.553   3.318  0.1893  0.5715 -0.9156
  836MOL0     H12807  -0.725   9.471   3.430 -0.9183 -0.8921 -1.5648
  836MOL0     H12808  -0.809   9.620   3.389 -1.7151 -2.2382 -0.7642
  836MOL0     H12809  -0.677   9.470   3.168 -1.1758 -0.2896 -2.0441
  836MOL0     H12810  -0.800   9.600   3.165  1.6542 -1.0948 -1.6554
  836MOL0     H12811  -0.762   9.232   3.267  0.0222  1.4549  2.5822
  836MOL0     H12812  -0.926   9.016   3.257 -0.8477 -1.7746 -1.0609
  836MOL0     H12813  -1.090   9.074   3.284 -0.7094  0.5954 -0.9805
  836MOL0     H12814  -1.043   8.910   3.095  0.4279 -0.5086 -1.1585
  836MOL0     H12815  -0.990   9.040   3.002 -3.9757  1.8228 -2.6742
  836MOL0     H12816  -1.186   9.154   3.012 -0.2756 -0.1031 -0.8840
  836MOL0     H12817  -1.273   9.031   3.115 -0.6294  0.3399 -0.3355
  836MOL0     H12818  -1.288   8.877   2.943  1.0728 -0.1773 -0.7840
  836MOL0     H12819  -1.160   8.950   2.848 -0.5218 -3.1408 -2.2029
  836MOL0     H12820  -1.485   8.893   3.019  2.4462  0.3881 -1.5677
  836MOL0     H12821  -1.834   8.822   3.077  0.2323  1.5201 -0.7356
  836MOL0     H12822  -1.671   8.763   3.081  0.4556  0.2219 -0.1026
  836MOL0     H12823  -1.717   8.918   3.160 -0.8039 -0.3047  0.5712
  836MOL0     H12824  -2.085   8.894   2.647 -0.0211 -3.1253  0.7831
  836MOL0     H12825  -2.345   8.881   2.585 -1.2783  0.7882  0.4114
  836MOL0     H12826  -2.539   8.786   2.609 -2.2110  3.1249 -1.0500
  836MOL0     H12827  -2.557   8.692   2.766 -0.3550 -0.7278 -0.6528
  836MOL0     H12828  -2.757   8.728   2.796  1.6196  0.3647  1.0390
  836MOL0     H12829  -2.757   8.871   2.684 -0.1969 -0.9600 -1.3425
  836MOL0     H12830  -2.826   8.586   2.617 -3.2170  2.0328  5.2164
  836MOL0     H12831  -2.718   8.653   2.506 -1.0717 -2.4831  0.5978
  836MOL0     H12832  -2.997   8.726   2.559 -0.9649  2.9761 -0.6144
  836MOL0     H12833  -2.898   8.865   2.528 -0.8862 -0.7844 -0.2424
  836MOL0     H12834  -2.822   8.804   2.319  2.6778 -1.6656  2.3555
  836MOL0     H12835  -2.993   8.805   2.330 -0.9025 -2.4157 -2.3396
  836MOL0     H12836  -2.828   8.558   2.312  1.9175  2.2540 -1.2799
  836MOL0     H12837  -3.001   8.553   2.351  2.3613 -2.8414  0.3699
  836MOL0     H12838  -3.050   8.659   2.115  1.2566  0.9285 -2.2416
  836MOL0     H12839  -2.947   8.520   2.103 -0.2232 -0.3590  1.2746
  836MOL0     H12840  -2.744   8.698   2.113 -0.3856 -0.6855  0.6951
  836MOL0     H12841  -2.877   8.813   2.100 -0.7096 -0.3000  3.9642
  836MOL0     H12842  -2.423   8.906   3.006  1.2270  1.4947  0.7737
  836MOL0     H12843  -2.176   8.900   3.049  0.5543 -0.4129 -0.1740
  836MOL0     H12844  -1.756   9.184   2.734  2.9700  1.4273 -0.4847
  836MOL0     H12845  -1.526   9.188   2.710 -3.7967  1.0232 -1.5028
  836MOL0     H12846  -0.027   9.836   3.990 -0.3747  0.1693 -1.4903
  836MOL0     H12847   0.197   9.823   4.113  0.2805  1.0466  0.3175
  836MOL0     H12848   0.632   9.656   4.048  1.8594 -1.1687 -0.2307
  836MOL0     H12849   0.874   9.658   4.139  0.3568  0.2599  1.5480
  836MOL0     H12850   1.026   9.530   4.307  3.5283 -0.5870 -0.7822
  836MOL0     H12851   1.135   9.595   4.426 -0.5806  0.4384 -0.1049
  836MOL0     H12852   0.871   9.451   4.504 -0.1436 -1.8407 -0.0988
  836MOL0     H12853   0.979   9.556   4.607 -0.7602 -0.9021  1.1764
  836MOL0     H12854   1.167   9.366   4.548  0.8183  0.5939 -4.8233
  836MOL0     H12855   1.049   9.302   4.442  0.1393  0.8403 -1.1494
  836MOL0     H12856   1.045   9.321   4.739  1.4702 -1.2174  0.5290
  836MOL0     H12857   1.066   9.166   4.663  4.2979  2.2118  1.1690
  836MOL0     H12858   0.649   9.186   4.656 -0.3589  1.1800  1.2922
  836MOL0     H12859   0.729   9.718   4.531  2.8653 -0.9209  0.3957
  836MOL0     H12860   0.515   9.700   4.454  2.8941 -1.7057  2.9180
  837MOL0     O12861   1.804   8.558   2.982 -0.4093  0.5017 -0.5669
  837MOL0     C12862   1.741   8.661   2.964  0.0737  0.2518 -1.2124
  837MOL0     O12863   1.794   8.779   2.925 -0.0668 -1.4490  0.1466
  837MOL0     C12864   1.934   8.795   2.906 -0.1745 -0.4694  0.5780
  837MOL0     C12865   2.005   8.731   2.802  0.3564  0.2420  0.3655
  837MOL0     C12866   2.136   8.769   2.772 -0.1280 -0.3278  0.5407
  837MOL0     C12867   2.207   8.874   2.841 -0.4127 -0.3807 -0.3588
  837MOL0     O12868   2.331   8.921   2.811  0.5139 -0.7733  0.1613
  837MOL0     C12869   2.426   8.820   2.794  0.5372  0.3641 -0.6618
  837MOL0     C12870   2.521   8.834   2.897  0.4965 -0.2054  0.4303
  837MOL0     C12871   2.507   8.770   3.035  0.9920 -0.6762 -0.0693
  837MOL0     C12872   2.563   8.621   3.030 -0.3390  0.4650  0.2292
  837MOL0     C12873   2.548   8.529   3.160  1.3866  0.2600  0.1202
  837MOL0     C12874   2.403   8.525   3.219 -0.1534 -0.0132 -0.0136
  837MOL0     C12875   2.299   8.473   3.118 -0.2861 -0.2242  0.3795
  837MOL0     C12876   2.188   8.388   3.175  0.5285  1.0357  0.4619
  837MOL0     N12877   2.106   8.464   3.267 -0.2635 -0.1586  0.0369
  837MOL0     C12878   2.024   8.559   3.228 -0.8157 -0.3575 -0.0775
  837MOL0     C12879   1.967   8.609   3.344 -0.1844  0.7585  0.5823
  837MOL0     C12880   1.869   8.723   3.354  0.6999 -0.4847  0.4332
  837MOL0     C12881   1.726   8.664   3.354 -0.3865  0.0823  0.9133
  837MOL0     C12882   1.687   8.592   3.486  0.3331 -1.1726 -0.1407
  837MOL0     C12883   1.541   8.564   3.494  1.2699  0.3888 -0.8581
  837MOL0     O12884   1.496   8.516   3.623 -0.4156  0.4097  0.0177
  837MOL0     C12885   1.365   8.471   3.638  0.6898 -0.4852 -0.9053
  837MOL0     C12886   1.334   8.331   3.640  0.1640 -0.1420 -0.3811
  837MOL0     C12887   1.199   8.296   3.642  0.1237  0.3297 -0.1283
  837MOL0     C12888   1.165   8.141   3.631  0.3545 -0.5574  0.7892
  837MOL0     C12889   1.098   8.396   3.644 -1.4011  0.6354  0.4981
  837MOL0     C12890   0.951   8.375   3.637  0.5445  0.7446  0.4414
  837MOL0     O12891   0.886   8.427   3.524 -0.0954  0.1313 -0.0992
  837MOL0     C12892   0.749   8.419   3.510 -0.4991  0.7260 -0.2451
  837MOL0     C12893   0.688   8.302   3.467 -0.4961  0.7994  0.2837
  837MOL0     C12894   0.551   8.305   3.449 -0.4202  0.0858 -0.2136
  837MOL0     C12895   0.470   8.420   3.473  0.3851  0.2494 -0.3044
  837MOL0     O12896   0.335   8.425   3.482  0.3241 -0.2799  0.5209
  837MOL0     C12897   0.267   8.404   3.354 -0.7203  0.5380  0.4636
  837MOL0     C12898   0.116   8.419   3.369  0.1485 -0.8681 -0.4149
  837MOL0     C12899   0.037   8.397   3.233 -1.6273  0.0250  0.1908
  837MOL0     C12900  -0.111   8.352   3.242  0.1547 -1.0243  0.0189
  837MOL0     C12901  -0.190   8.368   3.108 -0.0721  0.3706 -0.4130
  837MOL0     C12902  -0.299   8.256   3.100 -0.6493 -0.3441 -0.1584
  837MOL0     C12903  -0.365   8.249   2.964 -0.0950  0.2787  0.5075
  837MOL0     C12904  -0.489   8.337   2.953  0.1632 -0.1947 -0.8613
  837MOL0    Cl12905  -0.463   8.502   3.013 -0.4573  0.0685  0.0139
  837MOL0     C12906   0.538   8.527   3.526 -0.1886  0.2072  0.5088
  837MOL0     C12907   0.683   8.532   3.541  0.7060  0.1665 -0.2150
  837MOL0     O12908   0.902   8.305   3.729  0.0960 -0.1559 -0.8250
  837MOL0     C12909   1.131   8.527   3.647 -0.5703  0.6648  0.8460
  837MOL0     C12910   1.264   8.572   3.638 -0.4574 -0.2996  0.4038
  837MOL0     N12911   2.021   8.540   3.452 -0.3358  0.4199  0.3225
  837MOL0     N12912   2.098   8.453   3.402 -0.1930 -0.1418 -0.4157
  837MOL0     C12913   2.137   8.932   2.950 -0.2032 -0.2491  0.4420
  837MOL0     C12914   2.008   8.890   2.984  0.2958 -0.4803 -0.6362
  837MOL0     C12915   1.592   8.657   2.984 -0.6475 -0.4528 -0.0478
  837MOL0     C12916   1.529   8.781   2.989 -0.2770  0.2375  0.0754
  837MOL0     C12917   1.390   8.781   3.004  0.5191 -0.3756  0.6070
  837MOL0     C12918   1.317   8.664   3.015 -1.0951  0.1431  0.2390
  837MOL0     O12919   1.183   8.674   3.059  0.1835  0.6439 -0.2532
  837MOL0     C12920   1.090   8.563   3.045 -0.4307 -0.5195 -0.6639
  837MOL0     C12921   1.090   8.481   3.180  0.3885  0.7442 -0.7464
  837MOL0     C12922   1.148   8.338   3.173 -0.0886  0.1746 -0.6788
  837MOL0     C12923   1.095   8.233   3.272 -0.6484 -0.3454  0.6479
  837MOL0     C12924   0.961   8.212   3.223 -0.1150  0.2988 -0.2369
  837MOL0     C12925   0.853   8.201   3.173 -0.6864  0.4634 -0.6926
  837MOL0     C12926   1.389   8.545   3.004  0.0553 -0.1508  0.1162
  837MOL0     C12927   1.520   8.545   2.997 -0.5044  0.1087  0.2719
  837MOL0     H12928   1.955   8.665   2.731 -2.2031  2.3483  0.0673
  837MOL0     H12929   2.186   8.716   2.692 -1.6740 -1.9529  0.5863
  837MOL0     H12930   2.388   8.718   2.804  3.7080 -0.9569 -0.7188
  837MOL0     H12931   2.468   8.830   2.693 -0.2483  0.1427 -1.0180
  837MOL0     H12932   2.613   8.787   2.860  1.5713 -1.5869  4.3935
  837MOL0     H12933   2.537   8.941   2.906  0.0922  0.0682 -1.5509
  837MOL0     H12934   2.551   8.827   3.117  0.0943 -0.7530  0.4738
  837MOL0     H12935   2.403   8.754   3.065  1.5998 -3.5172  0.8505
  837MOL0     H12936   2.510   8.570   2.949  1.5816  1.1858 -1.5790
  837MOL0     H12937   2.669   8.620   3.001 -1.1853  0.6606 -3.2602
  837MOL0     H12938   2.585   8.429   3.135  2.1236  0.2808  1.0703
  837MOL0     H12939   2.617   8.573   3.232  3.9686 -0.4763 -1.7601
  837MOL0     H12940   2.391   8.454   3.301 -0.0090 -1.7564 -1.4357
  837MOL0     H12941   2.368   8.623   3.254  1.7465  0.7403 -0.1411
  837MOL0     H12942   2.256   8.556   3.060  2.5264  0.3199 -1.1326
  837MOL0     H12943   2.351   8.415   3.042  0.0235 -1.1436  1.2799
  837MOL0     H12944   2.229   8.300   3.226 -1.0095  0.5779  0.9961
  837MOL0     H12945   2.132   8.356   3.087 -1.9767  0.8356  2.0041
  837MOL0     H12946   1.998   8.589   3.126 -5.3078 -2.8877  0.0602
  837MOL0     H12947   1.890   8.786   3.440 -1.5317 -1.8743  2.1061
  837MOL0     H12948   1.873   8.792   3.270  0.0796  3.6585  3.5199
  837MOL0     H12949   1.721   8.594   3.270  1.4260 -0.6481  1.3651
  837MOL0     H12950   1.665   8.755   3.344  0.4212  0.6501  1.0512
  837MOL0     H12951   1.720   8.657   3.568  1.5766 -2.0864  0.1113
  837MOL0     H12952   1.725   8.490   3.499 -1.2971 -1.8752 -0.5667
  837MOL0     H12953   1.522   8.491   3.415  1.9968 -1.3766  0.5133
  837MOL0     H12954   1.480   8.649   3.462 -0.8945 -0.4948  0.6512
  837MOL0     H12955   1.411   8.254   3.638 -0.2520 -0.6672  1.4921
  837MOL0     H12956   1.255   8.091   3.594 -0.0951 -0.9785  0.2557
  837MOL0     H12957   1.145   8.117   3.736  1.9368 -2.0927  0.7955
  837MOL0     H12958   1.076   8.114   3.573  2.5739 -1.8778 -2.2425
  837MOL0     H12959   0.735   8.205   3.456 -1.0556  0.5756 -0.1632
  837MOL0     H12960   0.484   8.228   3.411 -0.2829  0.6312 -1.6301
  837MOL0     H12961   0.310   8.466   3.275  2.2280  1.7013  2.7964
  837MOL0     H12962   0.280   8.300   3.321 -1.0919 -1.1528  4.9716
  837MOL0     H12963   0.071   8.347   3.438  0.8648 -0.5408  0.4152
  837MOL0     H12964   0.104   8.519   3.412 -0.6351 -1.4339  0.7560
  837MOL0     H12965   0.091   8.320   3.178 -0.2581  0.1046  1.3810
  837MOL0     H12966   0.049   8.490   3.177  0.3726 -0.4270 -0.1817
  837MOL0     H12967  -0.113   8.248   3.278 -2.3324 -2.2259 -3.0401
  837MOL0     H12968  -0.169   8.402   3.321 -0.8661 -0.1348 -1.2481
  837MOL0     H12969  -0.126   8.358   3.019  0.2603  0.2212 -0.1592
  837MOL0     H12970  -0.238   8.466   3.115 -1.8211 -0.2156 -2.9158
  837MOL0     H12971  -0.238   8.166   3.115 -1.2825 -0.2290  4.5409
  837MOL0     H12972  -0.360   8.272   3.189  0.2360  1.6526  0.1534
  837MOL0     H12973  -0.395   8.145   2.951 -1.2673  0.6219  0.3419
  837MOL0     H12974  -0.296   8.271   2.882  0.0600 -2.2084 -0.0862
  837MOL0     H12975  -0.575   8.292   3.004  0.7977  0.0126  0.4275
  837MOL0     H12976  -0.527   8.334   2.851 -3.7866  0.0706  0.4184
  837MOL0     H12977   0.486   8.613   3.564  0.7020  1.4532 -0.9736
  837MOL0     H12978   0.737   8.616   3.584 -0.8355  1.1006 -0.0143
  837MOL0     H12979   1.056   8.605   3.651  0.3054  1.4690  2.0308
  837MOL0     H12980   1.282   8.679   3.641 -0.7099 -0.2709  1.2566
  837MOL0     H12981   2.180   9.013   3.008  1.1005  0.4421 -1.4239
  837MOL0     H12982   1.958   8.943   3.064 -1.5158 -2.1288 -0.5825
  837MOL0     H12983   1.591   8.869   3.001 -1.7955  1.2176  0.9507
  837MOL0     H12984   1.346   8.879   3.022  0.6751  0.1827 -1.6790
  837MOL0     H12985   0.989   8.603   3.033 -0.8118 -1.4741 -0.6976
  837MOL0     H12986   1.105   8.502   2.956  2.1292  1.9335 -2.0569
  837MOL0     H12987   0.992   8.471   3.228  1.0624 -3.0107  0.1537
  837MOL0     H12988   1.156   8.540   3.244  0.8397  0.6459 -1.1147
  837MOL0     H12989   1.257   8.351   3.174 -0.2160  1.9786 -2.5294
  837MOL0     H12990   1.124   8.296   3.074  0.3238  1.0304 -1.1580
  837MOL0     H12991   1.100   8.279   3.371 -1.4509  1.7296 -0.2171
  837MOL0     H12992   1.163   8.149   3.260  2.1583  1.7995  0.4556
  837MOL0     H12993   0.752   8.222   3.141 -1.6849  1.4743  2.6717
  837MOL0     H12994   1.353   8.443   3.005 -2.2530  0.5457 -1.7339
  837MOL0     H12995   1.570   8.450   2.987 -2.9770 -1.1714 -0.7791
  838MOL0     O12996   4.885   1.095   1.584  0.1620 -0.7293 -0.5249
  838MOL0     C12997   4.860   1.082   1.464  0.1590  0.9054 -0.3415
  838MOL0     O12998   4.748   1.026   1.408  0.0132  0.5485  0.3785
  838MOL0     C12999   4.646   1.020   1.503  0.6657  0.3935 -0.4651
  838MOL0     C13000   4.542   1.110   1.505  0.1360 -0.4909  0.1434
  838MOL0     C13001   4.427   1.083   1.584  0.3986  0.8817 -0.0323
  838MOL0     C13002   4.422   0.978   1.680 -0.4599 -0.2362 -0.1991
  838MOL0     O13003   4.309   0.973   1.759 -0.4732 -0.0549 -0.5307
  838MOL0     C13004   4.303   0.903   1.875 -0.4810 -0.6266  0.2365
  838MOL0     C13005   4.235   0.985   1.983  0.9244 -0.1085  0.3747
  838MOL0     C13006   4.104   1.044   1.936 -0.3185 -0.9100 -0.6297
  838MOL0     C13007   3.991   0.949   1.880  0.8060 -0.9968 -0.7616
  838MOL0     C13008   3.839   1.000   1.896  0.1063 -0.2396 -0.0855
  838MOL0     C13009   3.812   1.142   1.860 -1.1747 -0.5752  0.3125
  838MOL0     C13010   3.680   1.191   1.915  0.2643  0.0139  0.9815
  838MOL0     C13011   3.676   1.345   1.906  0.0837 -0.0930 -0.8357
  838MOL0     N13012   3.641   1.409   2.035 -0.4619 -0.3688  0.2398
  838MOL0     C13013   3.703   1.526   2.076  0.1075  0.5602  0.0790
  838MOL0     C13014   3.609   1.576   2.158  0.1121  0.1961 -0.4253
  838MOL0     C13015   3.615   1.717   2.218  0.1651  0.3347 -0.3100
  838MOL0     C13016   3.686   1.719   2.359  0.1312 -0.4140  0.4308
  838MOL0     C13017   3.616   1.623   2.462  0.7742  0.5536 -0.0452
  838MOL0     C13018   3.457   1.619   2.486  0.6371  0.4826  0.4898
  838MOL0     O13019   3.413   1.594   2.617 -0.0893 -0.2804 -0.3979
  838MOL0     C13020   3.280   1.604   2.651  0.6618  0.5873 -0.3283
  838MOL0     C13021   3.205   1.489   2.660  0.0214  0.6470 -0.4237
  838MOL0     C13022   3.071   1.500   2.686 -0.0090  0.0091 -0.1608
  838MOL0     C13023   3.001   1.364   2.700  0.2876 -0.0248 -1.0994
  838MOL0     C13024   3.001   1.620   2.712  0.9537 -0.0829  0.2155
  838MOL0     C13025   2.853   1.633   2.746 -1.1413 -0.1252 -0.4215
  838MOL0     O13026   2.787   1.519   2.764  0.4039  0.7906 -0.2889
  838MOL0     C13027   2.647   1.513   2.755 -0.3961 -0.1385  0.9037
  838MOL0     C13028   2.591   1.462   2.634  0.5060  0.0252 -0.4422
  838MOL0     C13029   2.453   1.479   2.610  0.5053 -0.8978  1.2747
  838MOL0     C13030   2.367   1.536   2.702 -0.4627 -0.1001 -0.1543
  838MOL0     O13031   2.234   1.541   2.679  0.0925 -1.0331 -0.1367
  838MOL0     C13032   2.166   1.649   2.747 -0.5331 -0.3994  0.2520
  838MOL0     C13033   2.056   1.699   2.653  0.1855  0.0173 -0.5804
  838MOL0     C13034   2.104   1.738   2.516  0.4388  0.8452 -0.3495
  838MOL0     C13035   2.006   1.809   2.427  0.1053  0.1846  0.4538
  838MOL0     C13036   2.010   1.958   2.432  1.2228 -0.7818  0.5512
  838MOL0     C13037   1.936   2.010   2.556 -0.3563 -0.9830 -0.0830
  838MOL0     C13038   1.896   2.164   2.551 -0.1991  0.6480 -1.0955
  838MOL0     C13039   2.021   2.237   2.594 -0.2552  0.6315  0.6157
  838MOL0    Cl13040   2.005   2.414   2.572  0.0174 -0.1393 -0.5460
  838MOL0     C13041   2.432   1.588   2.821 -1.4177 -0.4126  0.1732
  838MOL0     C13042   2.568   1.565   2.848  0.1370 -0.1740  0.3747
  838MOL0     O13043   2.804   1.742   2.763  0.2160  0.1001  0.0937
  838MOL0     C13044   3.084   1.738   2.698  0.0895 -0.7427 -0.2807
  838MOL0     C13045   3.216   1.729   2.668 -0.5012 -1.0876 -0.8109
  838MOL0     N13046   3.507   1.484   2.186 -0.7766 -0.3495  0.0266
  838MOL0     N13047   3.528   1.385   2.105  0.0937 -0.6398 -0.2951
  838MOL0     C13048   4.532   0.893   1.681  0.4410  0.4355  0.3026
  838MOL0     C13049   4.646   0.908   1.598  0.9870  0.2758 -0.1429
  838MOL0     C13050   4.968   1.127   1.375  0.1924  0.3199 -0.1865
  838MOL0     C13051   4.960   1.119   1.234 -0.2324 -0.0599  0.5732
  838MOL0     C13052   5.059   1.178   1.157  0.3478  0.9742 -0.2033
  838MOL0     C13053   5.178   1.217   1.209  0.4439 -0.3747 -0.3904
  838MOL0     O13054   5.271   1.250   1.116 -0.3045 -0.5513  0.3553
  838MOL0     C13055   5.405   1.296   1.150 -0.2340  0.2602  0.9573
  838MOL0     C13056   5.491   1.172   1.192  0.7089 -0.5608  1.6468
  838MOL0     C13057   5.633   1.161   1.131  0.0992 -0.7157  0.2312
  838MOL0     C13058   5.690   1.031   1.175  0.5602  0.2439  0.1908
  838MOL0     C13059   5.823   1.017   1.113 -0.4581  0.1349  0.5078
  838MOL0     C13060   5.927   1.012   1.048  0.5198 -0.6070  0.0195
  838MOL0     C13061   5.193   1.212   1.345 -0.2661 -0.1458 -0.3982
  838MOL0     C13062   5.091   1.170   1.432  0.2585  0.4785  0.4869
  838MOL0     H13063   4.543   1.197   1.440 -2.7959 -0.5897 -0.1357
  838MOL0     H13064   4.343   1.152   1.587  1.2052  1.8793  1.8136
  838MOL0     H13065   4.239   0.815   1.861 -1.7731  0.2411  0.4909
  838MOL0     H13066   4.401   0.885   1.921  0.4603  2.7948 -0.2210
  838MOL0     H13067   4.220   0.919   2.069  1.2043 -1.3954 -0.5391
  838MOL0     H13068   4.292   1.073   2.015  3.9917 -2.9334  3.5198
  838MOL0     H13069   4.056   1.087   2.024 -1.0575  0.1652 -1.5355
  838MOL0     H13070   4.130   1.125   1.867  3.2922 -0.2610  1.2371
  838MOL0     H13071   4.021   0.943   1.775  0.2375 -1.8175 -0.8876
  838MOL0     H13072   3.993   0.852   1.931  2.1086 -0.4317  0.3515
  838MOL0     H13073   3.766   0.939   1.842 -0.7001  0.7791 -0.1851
  838MOL0     H13074   3.816   0.994   2.003  3.2443 -0.2848  0.6722
  838MOL0     H13075   3.895   1.206   1.893 -0.3040 -1.6274  0.2221
  838MOL0     H13076   3.811   1.142   1.751  2.5473  2.4608  0.0539
  838MOL0     H13077   3.601   1.159   1.848  0.5622 -0.2924  0.7714
  838MOL0     H13078   3.669   1.150   2.015  1.3730 -3.6844 -0.2648
  838MOL0     H13079   3.602   1.364   1.828  0.7631 -0.4449 -1.5838
  838MOL0     H13080   3.759   1.398   1.859 -2.5913  2.1606 -3.4076
  838MOL0     H13081   3.794   1.574   2.041 -0.6305  1.7379 -0.3086
  838MOL0     H13082   3.652   1.787   2.143 -2.3256 -0.7949 -2.7716
  838MOL0     H13083   3.510   1.743   2.232  0.1308 -0.1441  0.4325
  838MOL0     H13084   3.677   1.820   2.400 -0.0104 -0.0351 -0.5210
  838MOL0     H13085   3.789   1.691   2.336  1.0441  1.4442  2.0045
  838MOL0     H13086   3.671   1.626   2.557  1.3109  0.9392 -0.3639
  838MOL0     H13087   3.632   1.519   2.433 -0.7240  0.1292  0.5802
  838MOL0     H13088   3.409   1.551   2.416  1.0966  0.9553 -0.2948
  838MOL0     H13089   3.414   1.710   2.445 -2.7106 -1.7624 -1.3934
  838MOL0     H13090   3.266   1.401   2.645 -0.1183  0.8313 -2.3298
  838MOL0     H13091   2.984   1.334   2.804 -1.2721 -0.3412 -1.4183
  838MOL0     H13092   2.905   1.350   2.651  1.2484 -0.8330 -2.8346
  838MOL0     H13093   3.062   1.289   2.649  2.0119  0.8482 -0.4024
  838MOL0     H13094   2.662   1.428   2.559  0.8712  4.2900 -2.3501
  838MOL0     H13095   2.420   1.450   2.511  2.4652  5.0171 -1.6142
  838MOL0     H13096   2.125   1.621   2.845 -1.8186  1.1540  0.2035
  838MOL0     H13097   2.231   1.734   2.768 -0.7136 -0.4449  1.0373
  838MOL0     H13098   1.966   1.637   2.645  1.5245 -1.8309 -2.1830
  838MOL0     H13099   2.020   1.788   2.706 -2.1693 -2.8542  3.1675
  838MOL0     H13100   2.135   1.649   2.461 -2.3342  1.5061 -3.2335
  838MOL0     H13101   2.198   1.794   2.518  1.1177 -0.0833 -2.7241
  838MOL0     H13102   2.034   1.779   2.326 -2.2174 -0.3867 -0.0665
  838MOL0     H13103   1.907   1.767   2.446  0.9248 -1.9545  0.2661
  838MOL0     H13104   1.965   1.981   2.335  2.3032 -1.6005 -0.1578
  838MOL0     H13105   2.104   2.010   2.413 -0.2488  1.2311 -1.9264
  838MOL0     H13106   1.850   1.944   2.568  0.5087 -1.9861  0.7652
  838MOL0     H13107   2.003   1.999   2.641  1.8854  1.9292 -1.2819
  838MOL0     H13108   1.816   2.190   2.621  0.7636 -1.1109  0.7389
  838MOL0     H13109   1.876   2.210   2.454  1.2781  0.1004 -1.6842
  838MOL0     H13110   2.106   2.219   2.527  0.6116  0.8800  1.6079
  838MOL0     H13111   2.040   2.204   2.697 -0.4533 -0.2609  0.3750
  838MOL0     H13112   2.370   1.637   2.896 -0.1252 -1.0038  1.6927
  838MOL0     H13113   2.622   1.601   2.936 -0.0858 -0.6945  0.7297
  838MOL0     H13114   3.046   1.838   2.714  2.6140  0.5152 -1.5379
  838MOL0     H13115   3.272   1.823   2.666  0.7627 -1.6572  2.1930
  838MOL0     H13116   4.535   0.812   1.754 -0.1178  1.0510  1.0278
  838MOL0     H13117   4.712   0.822   1.602 -1.6555 -1.9226 -0.5407
  838MOL0     H13118   4.870   1.091   1.180  0.8010 -1.6562 -0.3853
  838MOL0     H13119   5.051   1.189   1.049 -1.7153  1.1945 -0.0675
  838MOL0     H13120   5.460   1.349   1.072 -0.6173  0.1183  0.5830
  838MOL0     H13121   5.402   1.375   1.226 -2.9631 -0.1853  1.4065
  838MOL0     H13122   5.436   1.078   1.181  2.4855 -1.7439  2.4269
  838MOL0     H13123   5.502   1.182   1.300  0.6638  2.0979  1.4754
  838MOL0     H13124   5.696   1.241   1.170 -1.4235 -0.0444  1.4372
  838MOL0     H13125   5.625   1.170   1.023 -3.1101 -1.0173  0.3337
  838MOL0     H13126   5.629   0.944   1.149  0.5415  0.1195  0.6572
  838MOL0     H13127   5.691   1.039   1.284 -2.8494 -2.3250  0.5822
  838MOL0     H13128   6.027   0.998   1.013  2.0010  1.3624  3.0293
  838MOL0     H13129   5.296   1.226   1.378 -0.1921 -1.7620  0.1311
  838MOL0     H13130   5.101   1.178   1.540 -1.1647  1.7153  0.5510
  839MOL0     O13131   5.819   6.150  11.383  0.3023 -0.5642  0.1744
  839MOL0     C13132   5.875   6.179  11.276 -0.1535  0.6082 -0.0651
  839MOL0     O13133   5.825   6.164  11.154  1.1726 -0.9283 -0.2919
  839MOL0     C13134   5.692   6.116  11.172  0.0341  0.7067  0.4377
  839MOL0     C13135   5.603   6.218  11.200  0.1994 -1.1623 -0.5265
  839MOL0     C13136   5.480   6.191  11.239  0.2844 -0.8594 -0.2516
  839MOL0     C13137   5.438   6.059  11.259  0.9325 -0.2579 -0.9413
  839MOL0     O13138   5.314   6.014  11.294  0.1086 -0.0629  0.0296
  839MOL0     C13139   5.201   6.108  11.314 -0.8933 -0.5584 -0.1933
  839MOL0     C13140   5.079   6.039  11.364  0.3056 -0.0871 -0.0356
  839MOL0     C13141   4.964   6.132  11.395 -0.6464  0.3407 -1.1143
  839MOL0     C13142   4.848   6.040  11.416  0.4364 -0.9717 -0.6007
  839MOL0     C13143   4.717   6.117  11.461 -0.0676  0.3802  0.4279
  839MOL0     C13144   4.590   6.033  11.462  0.1031  0.2876 -0.4686
  839MOL0     C13145   4.460   6.112  11.499  1.0512 -0.8089  0.1772
  839MOL0     C13146   4.375   6.189  11.402 -0.2744  0.4920  0.0924
  839MOL0     N13147   4.272   6.264  11.474  0.2477 -0.4788  0.2949
  839MOL0     C13148   4.305   6.390  11.528 -0.2432  0.3070  0.7226
  839MOL0     C13149   4.215   6.401  11.621  0.3421 -0.4404  0.0994
  839MOL0     C13150   4.188   6.514  11.716  0.2039 -0.8708  1.1500
  839MOL0     C13151   4.316   6.559  11.798 -0.1618  0.0372 -0.2880
  839MOL0     C13152   4.324   6.471  11.926  0.8578 -0.4463  0.0853
  839MOL0     C13153   4.454   6.478  11.994  0.7381 -0.2898  0.0034
  839MOL0     O13154   4.464   6.597  12.079 -0.0767 -0.4360  0.2877
  839MOL0     C13155   4.601   6.621  12.106  0.4065 -0.2082  0.6943
  839MOL0     C13156   4.667   6.714  12.026  0.7531  0.0356 -0.1585
  839MOL0     C13157   4.800   6.752  12.054  1.2330 -0.1963 -0.1391
  839MOL0     C13158   4.862   6.836  11.949  0.4596 -0.1571 -0.0416
  839MOL0     C13159   4.855   6.701  12.173 -0.2460  0.4756 -0.8618
  839MOL0     C13160   4.993   6.743  12.215  0.6790 -0.0396  0.6048
  839MOL0     O13161   5.089   6.788  12.121  0.3006  0.2506  0.2273
  839MOL0     C13162   5.224   6.785  12.169 -0.4541  0.9372  0.7257
  839MOL0     C13163   5.268   6.860  12.275 -0.3847  0.2915  0.1134
  839MOL0     C13164   5.400   6.865  12.314 -0.7968 -0.0339 -0.4414
  839MOL0     C13165   5.493   6.767  12.263  0.2684 -0.0649 -0.1186
  839MOL0     O13166   5.625   6.781  12.310 -0.0636  0.3776  0.0974
  839MOL0     C13167   5.738   6.734  12.219 -1.0270 -0.0937  0.1695
  839MOL0     C13168   5.774   6.582  12.241  0.2776  0.0308  0.9127
  839MOL0     C13169   5.848   6.572  12.380  0.8393 -0.5087 -0.3602
  839MOL0     C13170   5.913   6.435  12.402 -0.1753 -0.1906 -0.0937
  839MOL0     C13171   5.965   6.427  12.543  0.2213 -0.5099 -0.1201
  839MOL0     C13172   6.105   6.478  12.565  0.5264  0.2289  0.1306
  839MOL0     C13173   6.116   6.495  12.712 -0.7864  0.0190 -1.3558
  839MOL0     C13174   6.259   6.476  12.768  0.4385  0.0467  0.6085
  839MOL0    Cl13175   6.355   6.615  12.688  0.0053 -0.0482  0.3617
  839MOL0     C13176   5.454   6.674  12.164  0.2655 -0.2802 -0.4162
  839MOL0     C13177   5.315   6.678  12.129  0.6973 -0.8988  1.1493
  839MOL0     O13178   5.010   6.746  12.335  0.2865 -0.1353  0.2541
  839MOL0     C13179   4.788   6.602  12.256  0.2115 -0.0268  0.2993
  839MOL0     C13180   4.658   6.556  12.219  0.0661 -0.7376 -0.2103
  839MOL0     N13181   4.128   6.294  11.618  0.3992 -0.4998  0.6079
  839MOL0     N13182   4.163   6.207  11.527 -0.4339 -0.1699  0.1728
  839MOL0     C13183   5.527   5.951  11.242 -0.0989  1.3389  0.6223
  839MOL0     C13184   5.659   5.984  11.198 -0.2469 -0.5986  1.0660
  839MOL0     C13185   6.024   6.196  11.274 -0.0274 -0.3774 -0.5167
  839MOL0     C13186   6.108   6.146  11.383 -0.7249 -0.2954 -0.4223
  839MOL0     C13187   6.247   6.149  11.375  0.3688 -0.2211 -0.0447
  839MOL0     C13188   6.312   6.215  11.272  0.0326 -0.1866 -0.2692
  839MOL0     O13189   6.446   6.221  11.258 -0.2431  0.8470  0.0969
  839MOL0     C13190   6.516   6.180  11.379 -1.2384  0.0469 -0.0251
  839MOL0     C13191   6.667   6.175  11.351  0.8042  0.1095  0.1939
  839MOL0     C13192   6.715   6.319  11.344 -0.6388 -1.1915 -0.4917
  839MOL0     C13193   6.857   6.320  11.295 -0.5130 -0.1825  0.6227
  839MOL0     C13194   6.898   6.456  11.312  0.1146 -0.1178 -0.1463
  839MOL0     C13195   6.933   6.572  11.316 -0.2765 -0.4146  0.4920
  839MOL0     C13196   6.236   6.266  11.169 -0.1564 -0.2518 -0.1090
  839MOL0     C13197   6.095   6.261  11.166 -0.4553 -0.3807 -0.4042
  839MOL0     H13198   5.634   6.322  11.210 -1.3773 -0.8000  1.0751
  839MOL0     H13199   5.417   6.274  11.268  0.0374 -1.2248  0.2702
  839MOL0     H13200   5.232   6.169  11.399 -1.0246  0.1761 -0.6664
  839MOL0     H13201   5.182   6.182  11.236 -0.7907  0.6161  0.8681
  839MOL0     H13202   5.039   5.974  11.285 -1.1062 -0.1003  0.6496
  839MOL0     H13203   5.103   5.978  11.452  4.4376 -2.4812 -2.5120
  839MOL0     H13204   4.979   6.186  11.490 -2.0470  1.6678 -1.5930
  839MOL0     H13205   4.938   6.198  11.312 -2.1184  1.1468 -0.0582
  839MOL0     H13206   4.819   5.984  11.327 -2.1554 -0.1428 -0.3678
  839MOL0     H13207   4.878   5.958  11.482  0.4159 -0.7239 -0.2818
  839MOL0     H13208   4.720   6.164  11.560 -1.2267  1.1969  0.1010
  839MOL0     H13209   4.717   6.189  11.378  1.9714  0.7868  0.7233
  839MOL0     H13210   4.576   5.977  11.369  2.7016 -0.0887 -0.7122
  839MOL0     H13211   4.608   5.958  11.540  3.1404 -1.2811 -2.4557
  839MOL0     H13212   4.387   6.037  11.531  0.3662 -1.2443 -2.1784
  839MOL0     H13213   4.486   6.172  11.587  0.3793 -3.6970  2.5039
  839MOL0     H13214   4.343   6.115  11.328 -0.8791 -0.4678  1.2678
  839MOL0     H13215   4.434   6.266  11.352  0.1794  0.3749  0.4383
  839MOL0     H13216   4.376   6.464  11.495  0.4665  2.2222  5.7208
  839MOL0     H13217   4.168   6.608  11.665  0.4107 -1.1285  0.5900
  839MOL0     H13218   4.110   6.487  11.788  0.2658 -2.5727  0.6207
  839MOL0     H13219   4.314   6.665  11.827  1.1866 -0.4842  2.0626
  839MOL0     H13220   4.409   6.544  11.742 -0.0335  1.7292 -0.5892
  839MOL0     H13221   4.298   6.368  11.899 -1.4521 -0.3586  1.6524
  839MOL0     H13222   4.249   6.492  12.003 -0.1590 -0.8023 -0.7825
  839MOL0     H13223   4.537   6.474  11.922 -1.5005 -1.5108 -2.6873
  839MOL0     H13224   4.462   6.394  12.062 -4.5827 -1.0109  0.1465
  839MOL0     H13225   4.615   6.759  11.941  0.0185  1.0097  0.7769
  839MOL0     H13226   4.796   6.867  11.867  0.1411  1.2448  0.7110
  839MOL0     H13227   4.913   6.919  11.998 -0.1538 -0.5011  1.2282
  839MOL0     H13228   4.941   6.773  11.908  0.7744 -0.1774  0.5799
  839MOL0     H13229   5.193   6.923  12.323 -1.1257 -1.7755  1.8524
  839MOL0     H13230   5.425   6.935  12.393 -0.1224 -0.0133 -0.6701
  839MOL0     H13231   5.702   6.745  12.116 -0.1503  3.0128  0.0922
  839MOL0     H13232   5.828   6.794  12.229 -0.2703 -1.3528  1.1798
  839MOL0     H13233   5.688   6.515  12.249 -0.2381  0.6453  0.5388
  839MOL0     H13234   5.839   6.544  12.162 -0.0458  1.5757 -0.1246
  839MOL0     H13235   5.770   6.583  12.456  0.2151  3.4411 -1.3041
  839MOL0     H13236   5.921   6.654  12.377  0.4917 -0.1584  0.3792
  839MOL0     H13237   5.837   6.359  12.385 -0.8261  0.3520  0.3603
  839MOL0     H13238   5.988   6.427  12.322 -1.8061 -0.7559 -1.6474
  839MOL0     H13239   5.967   6.323  12.576  2.8635 -2.8279 -6.1389
  839MOL0     H13240   5.899   6.492  12.601  0.6938 -2.0325  2.2687
  839MOL0     H13241   6.168   6.399  12.524 -0.0238 -0.2430  0.1941
  839MOL0     H13242   6.113   6.573  12.510  0.9071 -0.2381 -0.6366
  839MOL0     H13243   6.054   6.424  12.769 -0.8722  1.5468  0.5617
  839MOL0     H13244   6.099   6.595  12.753  3.5703  0.7002 -0.6744
  839MOL0     H13245   6.299   6.375  12.754 -0.5121 -0.3966  1.0400
  839MOL0     H13246   6.245   6.492  12.875 -2.6174 -2.1378  0.6521
  839MOL0     H13247   5.527   6.601  12.131  0.6121  0.0409 -0.3679
  839MOL0     H13248   5.292   6.618  12.042  3.2467 -1.6855  0.9527
  839MOL0     H13249   4.832   6.570  12.349 -1.6529 -1.4302  0.7741
  839MOL0     H13250   4.618   6.484  12.290 -0.9259  0.6919  0.7537
  839MOL0     H13251   5.489   5.851  11.261 -3.5191  2.7588  2.1030
  839MOL0     H13252   5.733   5.904  11.192 -1.0179 -1.2310 -0.2573
  839MOL0     H13253   6.061   6.095  11.466 -1.6746  0.6326 -0.3592
  839MOL0     H13254   6.294   6.104  11.462 -0.6703 -1.5337 -0.1072
  839MOL0     H13255   6.494   6.253  11.457 -2.8010  2.4062 -2.4772
  839MOL0     H13256   6.488   6.080  11.411 -2.0244  0.9255  2.1786
  839MOL0     H13257   6.667   6.122  11.255 -1.4853 -0.9961  0.7141
  839MOL0     H13258   6.710   6.108  11.426 -1.8621  0.3045  2.0537
  839MOL0     H13259   6.708   6.359  11.446  1.6730 -0.0397 -0.7277
  839MOL0     H13260   6.658   6.378  11.272  0.1601  1.4329  0.8666
  839MOL0     H13261   6.864   6.302  11.188 -0.9690  0.4853  0.4727
  839MOL0     H13262   6.926   6.255  11.349 -1.5237 -2.0304 -0.2234
  839MOL0     H13263   6.944   6.678  11.333  0.7727 -0.4565  0.1076
  839MOL0     H13264   6.289   6.328  11.096 -1.7790  0.0864 -1.0486
  839MOL0     H13265   6.042   6.298  11.078 -0.4333  0.7433  0.0309
  840MOL0     O13266  10.183   2.598   1.744 -0.2660  0.2367  0.1125
  840MOL0     C13267  10.085   2.536   1.717 -0.0588 -0.1991 -0.4814
  840MOL0     O13268   9.995   2.548   1.608 -0.3839 -0.0423  0.2292
  840MOL0     C13269  10.039   2.626   1.509  0.0578  0.2359 -0.0185
  840MOL0     C13270  10.078   2.761   1.533  0.1270  0.2464  0.0278
  840MOL0     C13271  10.103   2.840   1.425 -0.2115  0.5034  0.0314
  840MOL0     C13272  10.088   2.793   1.293  1.1402 -0.9535 -0.3169
  840MOL0     O13273  10.109   2.876   1.187 -0.7104 -0.3036 -0.2805
  840MOL0     C13274  10.193   2.986   1.199 -0.2556 -0.9108 -0.3602
  840MOL0     C13275  10.203   3.080   1.073 -0.0186  0.4087  0.2090
  840MOL0     C13276  10.338   3.163   1.071  0.0615 -0.5053 -0.4456
  840MOL0     C13277  10.363   3.245   0.943 -0.0686 -0.0850  0.4377
  840MOL0     C13278  10.506   3.298   0.945  0.5049 -0.0304  0.3984
  840MOL0     C13279  10.548   3.360   0.812  0.4340 -0.3141 -0.6060
  840MOL0     C13280  10.696   3.411   0.822  0.7205 -0.5125 -0.5960
  840MOL0     C13281  10.753   3.480   0.696 -0.7517  0.1343 -0.2917
  840MOL0     N13282  10.784   3.386   0.588 -0.3284  0.5695 -0.5408
  840MOL0     C13283  10.879   3.287   0.588 -0.0474  0.5065 -0.0588
  840MOL0     C13284  10.845   3.207   0.481 -0.7052  0.0473 -0.5810
  840MOL0     C13285  10.923   3.080   0.447  0.8046  0.1662  0.4012
  840MOL0     C13286  10.887   2.963   0.534  0.6429  0.0815  0.2586
  840MOL0     C13287  10.743   2.976   0.605  0.2693  0.8243  0.2522
  840MOL0     C13288  10.697   2.841   0.644 -0.1152 -0.7213 -0.2246
  840MOL0     O13289  10.786   2.783   0.743  0.1212  0.2545 -0.2940
  840MOL0     C13290  10.772   2.659   0.780 -0.9210 -0.6629 -0.4480
  840MOL0     C13291  10.872   2.594   0.853 -1.0021  0.2723 -0.1119
  840MOL0     C13292  10.856   2.465   0.904  0.1329  0.2912 -0.4808
  840MOL0     C13293  10.985   2.404   0.952  1.0375 -0.0750 -0.6057
  840MOL0     C13294  10.733   2.392   0.898  0.7805  0.6454  1.0533
  840MOL0     C13295  10.697   2.257   0.956 -0.4992  0.5683 -0.9660
  840MOL0     O13296  10.566   2.234   0.957  0.2150  0.6280 -0.1778
  840MOL0     C13297  10.512   2.121   1.009  0.5103  0.4433  0.7521
  840MOL0     C13298  10.408   2.067   0.936  0.3957  0.3974 -0.0062
  840MOL0     C13299  10.329   1.965   0.998  0.0298  0.0757  0.1962
  840MOL0     C13300  10.351   1.906   1.123  0.2484 -0.7231 -0.6728
  840MOL0     O13301  10.293   1.805   1.196 -0.2082 -0.1902  0.1654
  840MOL0     C13302  10.219   1.701   1.128 -0.7371 -1.3041 -0.4893
  840MOL0     C13303  10.071   1.736   1.120 -0.1336  0.2897  0.1726
  840MOL0     C13304   9.993   1.767   1.254 -0.1677  0.2393 -0.1543
  840MOL0     C13305   9.990   1.638   1.343  0.0581 -0.8127  0.6938
  840MOL0     C13306   9.889   1.529   1.296 -0.1976 -0.3314 -0.2524
  840MOL0     C13307   9.869   1.423   1.408 -1.2659 -0.7709  0.1802
  840MOL0     C13308   9.790   1.306   1.357  0.6295 -0.0385  1.0314
  840MOL0     C13309   9.634   1.320   1.382 -0.4698 -0.1584  0.3906
  840MOL0    Cl13310   9.553   1.157   1.375  0.1217  0.0213  0.4321
  840MOL0     C13311  10.459   1.964   1.193  0.2860  0.2006  0.0918
  840MOL0     C13312  10.540   2.067   1.142  0.6211 -0.2971  0.1158
  840MOL0     O13313  10.784   2.176   1.003  0.0160  0.2657 -0.6082
  840MOL0     C13314  10.623   2.470   0.830  0.4446  0.7841 -0.0400
  840MOL0     C13315  10.657   2.593   0.756  0.5888 -0.0998 -0.3785
  840MOL0     N13316  10.729   3.258   0.422  1.1225 -0.9039  0.4896
  840MOL0     N13317  10.701   3.370   0.483  0.0717 -0.5551  0.7480
  840MOL0     C13318  10.040   2.660   1.272 -0.1137 -0.2254  0.4630
  840MOL0     C13319  10.022   2.571   1.376  0.3627 -0.0852 -0.5143
  840MOL0     C13320  10.063   2.411   1.795 -0.0923  0.1706  0.2363
  840MOL0     C13321   9.937   2.335   1.785 -0.9407  0.1217 -0.7559
  840MOL0     C13322   9.928   2.209   1.850 -0.3640 -0.0839 -0.3484
  840MOL0     C13323  10.033   2.152   1.927  0.0226 -0.4404 -0.3463
  840MOL0     O13324   9.984   2.045   2.003 -0.5731  0.0591  0.7409
  840MOL0     C13325  10.081   1.975   2.068 -0.7113 -0.2216 -1.1060
  840MOL0     C13326  10.132   1.854   1.995 -0.0402  0.3053 -0.0984
  840MOL0     C13327  10.032   1.745   1.995  0.3843 -0.1891 -0.2602
  840MOL0     C13328  10.068   1.650   1.873 -0.3000 -0.0326 -0.0544
  840MOL0     C13329  10.189   1.569   1.916  0.3477  0.0794  0.2869
  840MOL0     C13330  10.294   1.509   1.906  0.5516  1.0079 -0.2720
  840MOL0     C13331  10.152   2.233   1.928 -0.2505 -0.0007 -0.9466
  840MOL0     C13332  10.165   2.347   1.854 -0.0666 -0.0418 -0.8055
  840MOL0     H13333  10.079   2.812   1.629 -2.0659  2.9939 -1.2832
  840MOL0     H13334  10.138   2.942   1.438 -1.7639  1.6458 -3.5454
  840MOL0     H13335  10.166   3.051   1.283  2.7158 -1.3838  1.1249
  840MOL0     H13336  10.291   2.946   1.228  0.4451 -0.2807 -1.7220
  840MOL0     H13337  10.185   3.026   0.979 -3.4215 -0.1363  1.0149
  840MOL0     H13338  10.116   3.146   1.073  0.5614  1.1887  1.0824
  840MOL0     H13339  10.344   3.224   1.162 -0.7608 -2.2665  0.8575
  840MOL0     H13340  10.422   3.095   1.086  0.6406  0.5166  1.3795
  840MOL0     H13341  10.355   3.178   0.856  3.4471 -0.5833  0.3675
  840MOL0     H13342  10.291   3.320   0.910  1.5284  0.8205 -1.1406
  840MOL0     H13343  10.518   3.379   1.017  3.1231  2.1541 -2.2245
  840MOL0     H13344  10.572   3.218   0.979  1.8244  1.1788  0.7940
  840MOL0     H13345  10.546   3.283   0.735  0.1687 -2.1825  1.2014
  840MOL0     H13346  10.474   3.437   0.787  1.6450  0.5678 -1.6197
  840MOL0     H13347  10.712   3.485   0.901 -2.6185 -0.6567  0.3739
  840MOL0     H13348  10.756   3.322   0.843  1.2528 -0.6002 -2.3050
  840MOL0     H13349  10.838   3.547   0.712 -0.7825  0.6366 -2.0104
  840MOL0     H13350  10.678   3.554   0.666 -1.4910  0.0616  1.2894
  840MOL0     H13351  10.935   3.256   0.675 -2.6607  0.0860  1.5795
  840MOL0     H13352  10.895   3.061   0.343 -1.7476  1.0170  0.8314
  840MOL0     H13353  11.031   3.089   0.435  0.6027  2.4513 -0.3397
  840MOL0     H13354  10.955   2.949   0.619  0.4780 -4.7592 -0.1648
  840MOL0     H13355  10.901   2.883   0.462  1.6972  0.6261 -0.1615
  840MOL0     H13356  10.677   3.019   0.529  0.6967  1.5167  0.2583
  840MOL0     H13357  10.746   3.048   0.688  2.0767 -0.1082  1.0622
  840MOL0     H13358  10.685   2.787   0.550  1.8596  2.6388 -2.5770
  840MOL0     H13359  10.593   2.845   0.678 -0.4911 -1.3548 -1.2583
  840MOL0     H13360  10.964   2.652   0.854 -2.1115  2.4705 -3.5932
  840MOL0     H13361  11.000   2.446   1.052  0.3410  2.5368 -1.5279
  840MOL0     H13362  10.981   2.296   0.969 -1.2058 -0.3042 -2.1496
  840MOL0     H13363  11.072   2.435   0.894  2.8311 -3.0903  0.2461
  840MOL0     H13364  10.371   2.107   0.842 -1.0298  2.0752  1.1935
  840MOL0     H13365  10.252   1.921   0.935  0.2885 -2.2591  1.4015
  840MOL0     H13366  10.272   1.684   1.034  1.8127  1.6710  0.2008
  840MOL0     H13367  10.225   1.607   1.182  1.1681 -2.3534 -2.3537
  840MOL0     H13368  10.051   1.814   1.046 -3.4151 -0.5102  0.0628
  840MOL0     H13369  10.020   1.653   1.072  1.5647 -0.5750 -0.1990
  840MOL0     H13370   9.890   1.800   1.238 -0.9570 -2.2253 -0.6011
  840MOL0     H13371  10.042   1.855   1.296  2.9964 -1.2428 -0.4741
  840MOL0     H13372  10.087   1.591   1.363 -0.9819 -2.2284  2.7899
  840MOL0     H13373   9.967   1.684   1.439  1.9331  3.1339 -0.5451
  840MOL0     H13374   9.925   1.484   1.203 -1.6964 -2.4061  0.1143
  840MOL0     H13375   9.793   1.576   1.271 -0.3836 -0.7974 -0.4286
  840MOL0     H13376   9.963   1.382   1.447 -0.0612  3.9989  3.1851
  840MOL0     H13377   9.827   1.470   1.498 -0.7954 -0.4050  0.2128
  840MOL0     H13378   9.824   1.222   1.419 -0.2024  1.1326  3.2184
  840MOL0     H13379   9.797   1.281   1.251  1.3909  0.7700  0.8817
  840MOL0     H13380   9.603   1.383   1.299 -0.2497  1.9863  1.8635
  840MOL0     H13381   9.613   1.366   1.479 -1.6202 -0.8074  0.4632
  840MOL0     H13382  10.481   1.922   1.290 -0.9553 -2.7303 -0.7809
  840MOL0     H13383  10.620   2.118   1.195  0.7923  0.1924 -0.5940
  840MOL0     H13384  10.520   2.440   0.815  1.0427 -1.6631  0.3453
  840MOL0     H13385  10.570   2.629   0.701 -0.2931 -0.9173  0.4259
  840MOL0     H13386  10.027   2.632   1.168  0.2581  1.1325  0.0250
  840MOL0     H13387   9.978   2.473   1.362  3.0714 -1.3482 -0.7680
  840MOL0     H13388   9.846   2.371   1.739 -0.1085  0.6934 -1.9880
  840MOL0     H13389   9.831   2.164   1.866  0.2613 -1.3847 -0.0746
  840MOL0     H13390  10.157   2.033   2.122  0.2040 -1.1756 -1.3329
  840MOL0     H13391  10.030   1.932   2.155  4.4920  0.1341  2.6109
  840MOL0     H13392  10.220   1.824   2.053 -0.7338 -0.6215  0.5123
  840MOL0     H13393  10.169   1.882   1.896  1.0616  0.0091  0.2164
  840MOL0     H13394   9.932   1.777   1.964  0.5644  0.3752 -0.2681
  840MOL0     H13395  10.033   1.689   2.089 -3.3067 -1.2401 -0.6841
  840MOL0     H13396  10.107   1.704   1.786  1.3708  0.4079  0.8999
  840MOL0     H13397   9.983   1.593   1.835 -0.3571  1.0905 -1.7460
  840MOL0     H13398  10.394   1.469   1.908 -0.6274 -2.1948  2.2726
  840MOL0     H13399  10.242   2.184   1.963  1.0624  1.5499 -2.0582
  840MOL0     H13400  10.265   2.389   1.855 -0.3702  0.8368  2.2727
  841MOL0     O13401   9.874  11.195   9.819 -0.2718 -1.0004 -0.4993
  841MOL0     C13402   9.951  11.205   9.724 -0.1921  1.2561 -0.7394
  841MOL0     O13403   9.920  11.169   9.594  0.2021  0.1271  0.8240
  841MOL0     C13404   9.804  11.111   9.552  0.8833 -0.1876 -0.2853
  841MOL0     C13405   9.699  11.198   9.523  0.0007  0.7187  0.5879
  841MOL0     C13406   9.568  11.154   9.495 -0.1115  0.1662 -0.0083
  841MOL0     C13407   9.545  11.020   9.483 -0.6446  1.0524 -0.6045
  841MOL0     O13408   9.422  10.981   9.437  0.3295 -0.3523 -0.0821
  841MOL0     C13409   9.370  10.852   9.471 -0.5921 -0.6874 -0.6814
  841MOL0     C13410   9.249  10.816   9.383  0.0277 -0.3305  0.2268
  841MOL0     C13411   9.117  10.865   9.439  0.0083 -0.9808 -0.2618
  841MOL0     C13412   9.007  10.843   9.344 -0.0398  0.3158 -0.3073
  841MOL0     C13413   8.888  10.907   9.400  0.1472 -0.2139 -0.5779
  841MOL0     C13414   8.761  10.871   9.320 -0.4316  0.0645 -0.2845
  841MOL0     C13415   8.638  10.957   9.360 -0.5919 -0.2616 -0.5877
  841MOL0     C13416   8.524  10.927   9.275  0.7029  0.6110  0.7104
  841MOL0     N13417   8.476  10.780   9.274  0.5910 -0.0394 -0.0713
  841MOL0     C13418   8.512  10.694   9.171  0.2367 -0.0437 -1.0217
  841MOL0     C13419   8.425  10.591   9.187 -1.0645 -0.9126  0.3775
  841MOL0     C13420   8.448  10.464   9.118 -0.2849 -0.1464 -0.3896
  841MOL0     C13421   8.353  10.455   9.002 -0.2807  0.6064  0.5715
  841MOL0     C13422   8.342  10.314   8.938 -0.0337  0.0696  0.2510
  841MOL0     C13423   8.230  10.323   8.833  0.1708  1.1251 -0.5833
  841MOL0     O13424   8.266  10.413   8.728 -0.2655  0.0648 -0.5774
  841MOL0     C13425   8.165  10.479   8.664  1.5078  0.6284 -0.3201
  841MOL0     C13426   8.022  10.477   8.693 -0.8508  0.1645 -0.4376
  841MOL0     C13427   7.934  10.563   8.632  0.2563 -0.0475  0.2880
  841MOL0     C13428   7.786  10.577   8.674 -0.1646  0.3032  0.0922
  841MOL0     C13429   7.982  10.649   8.529 -0.3940  0.3689 -0.3876
  841MOL0     C13430   7.899  10.730   8.438 -0.1918  0.5588  1.1438
  841MOL0     O13431   7.953  10.846   8.395  0.1486  0.3878 -0.4660
  841MOL0     C13432   7.892  10.933   8.305  0.0139 -0.4017  0.2988
  841MOL0     C13433   7.914  11.076   8.302  0.9347  0.1504 -0.1017
  841MOL0     C13434   7.839  11.162   8.219  1.0386 -0.3284  0.4894
  841MOL0     C13435   7.748  11.109   8.122  0.2043  0.2203 -0.5783
  841MOL0     O13436   7.671  11.196   8.049 -0.5197 -0.4017 -0.4898
  841MOL0     C13437   7.636  11.149   7.920 -0.3647 -0.3038  0.3707
  841MOL0     C13438   7.604  11.259   7.813  0.4076  0.7920 -0.8022
  841MOL0     C13439   7.496  11.356   7.869  0.0566  0.4516  0.2214
  841MOL0     C13440   7.459  11.464   7.766  0.2581  0.1155  0.9058
  841MOL0     C13441   7.375  11.591   7.810 -0.0234 -0.1115  0.4783
  841MOL0     C13442   7.459  11.713   7.810 -0.1608  0.0864 -0.8252
  841MOL0     C13443   7.560  11.725   7.925  0.1354 -1.0891 -0.0843
  841MOL0     C13444   7.586  11.867   7.959  0.5831 -0.2639  0.2511
  841MOL0    Cl13445   7.687  11.896   8.114  0.1003  0.3854 -0.0441
  841MOL0     C13446   7.736  10.973   8.117 -0.5978  1.0877  0.1792
  841MOL0     C13447   7.811  10.883   8.203  0.5180 -1.3263 -0.3567
  841MOL0     O13448   7.788  10.688   8.405 -0.2681  0.8282  0.4364
  841MOL0     C13449   8.118  10.647   8.499  0.0521  0.3920  0.4295
  841MOL0     C13450   8.213  10.558   8.563  0.3930 -1.2805  0.1559
  841MOL0     N13451   8.350  10.611   9.298 -0.0783 -0.0800  0.0927
  841MOL0     N13452   8.376  10.729   9.348  0.0396  0.1413  0.1896
  841MOL0     C13453   9.655  10.931   9.494 -0.4263 -0.7768  0.9618
  841MOL0     C13454   9.786  10.973   9.524  0.6758  1.0189  0.6282
  841MOL0     C13455  10.089  11.263   9.749 -0.3791 -0.4082  0.9491
  841MOL0     C13456  10.124  11.331   9.870  0.1922  0.7067  0.3542
  841MOL0     C13457  10.256  11.369   9.886 -0.0279 -0.0641  0.2959
  841MOL0     C13458  10.352  11.349   9.788  0.5888  0.1469  0.0211
  841MOL0     O13459  10.485  11.387   9.810 -0.2174  0.7304  0.7287
  841MOL0     C13460  10.591  11.333   9.737  0.1798 -0.2239  0.4278
  841MOL0     C13461  10.715  11.413   9.790  0.1784  0.5286 -0.3573
  841MOL0     C13462  10.849  11.384   9.716 -1.0639 -0.8595 -0.3252
  841MOL0     C13463  10.958  11.425   9.806  0.6844  0.1906  0.2930
  841MOL0     C13464  11.095  11.409   9.749 -0.0245 -0.1879  0.2536
  841MOL0     C13465  11.205  11.393   9.696  0.4756  0.3412 -0.2451
  841MOL0     C13466  10.312  11.298   9.661  0.7404  0.1311 -0.1612
  841MOL0     C13467  10.180  11.259   9.643 -0.7731 -0.0941 -0.6022
  841MOL0     H13468   9.730  11.302   9.529 -0.7027  1.1823 -2.1724
  841MOL0     H13469   9.493  11.231   9.484 -1.8681 -0.8866  3.3156
  841MOL0     H13470   9.445  10.772   9.460  0.8168  0.0414  2.4323
  841MOL0     H13471   9.342  10.849   9.577  2.0595 -0.2915  0.1009
  841MOL0     H13472   9.268  10.864   9.286 -0.2348  0.9553  0.7912
  841MOL0     H13473   9.244  10.707   9.377  3.5052 -0.8710  3.4386
  841MOL0     H13474   9.082  10.816   9.531 -0.6334  0.4279  0.2708
  841MOL0     H13475   9.129  10.972   9.459  2.6517 -0.9943 -1.4535
  841MOL0     H13476   9.029  10.877   9.243 -2.6578  1.3444 -0.6325
  841MOL0     H13477   8.992  10.736   9.330  0.8555  0.4943 -3.3309
  841MOL0     H13478   8.883  10.879   9.506 -0.6615 -1.2936 -0.8767
  841MOL0     H13479   8.900  11.015   9.403  3.8344 -0.4559 -1.9066
  841MOL0     H13480   8.782  10.899   9.216 -2.4145  2.3997 -0.1404
  841MOL0     H13481   8.742  10.765   9.337 -0.3898  0.3311  1.6182
  841MOL0     H13482   8.613  10.930   9.463  0.0297 -0.5891 -0.5172
  841MOL0     H13483   8.659  11.063   9.344 -1.0376 -0.1093 -0.1960
  841MOL0     H13484   8.553  10.952   9.172 -1.3001 -1.9511 -0.5982
  841MOL0     H13485   8.438  10.982   9.316  1.2256 -1.1202  4.5292
  841MOL0     H13486   8.592  10.701   9.098 -0.1979  0.7399 -1.4362
  841MOL0     H13487   8.555  10.453   9.098  0.2857  0.7737  1.8896
  841MOL0     H13488   8.426  10.391   9.197 -1.1660  0.5108 -0.0053
  841MOL0     H13489   8.384  10.531   8.929  5.9499 -1.4533  0.4411
  841MOL0     H13490   8.252  10.472   9.039 -1.3208  0.4782 -2.0354
  841MOL0     H13491   8.333  10.240   9.018  0.9746 -1.0907 -0.6671
  841MOL0     H13492   8.431  10.276   8.887  0.0533  0.3225  0.2141
  841MOL0     H13493   8.131  10.340   8.877  1.1446 -0.5538  2.5112
  841MOL0     H13494   8.222  10.226   8.783  1.3218  0.4864  0.4209
  841MOL0     H13495   7.986  10.424   8.780 -0.7462  0.7242 -0.0460
  841MOL0     H13496   7.778  10.562   8.782 -1.9710 -2.2337 -0.3006
  841MOL0     H13497   7.745  10.677   8.659 -3.1084 -0.6006  1.2509
  841MOL0     H13498   7.734  10.495   8.623  1.0528 -0.3030 -0.2038
  841MOL0     H13499   7.987  11.105   8.377 -0.6394 -0.4453  1.7473
  841MOL0     H13500   7.839  11.270   8.221  0.5492 -0.2971 -0.6807
  841MOL0     H13501   7.723  11.096   7.879  0.1813  1.0605 -0.2975
  841MOL0     H13502   7.547  11.086   7.928 -1.2375  1.0428  1.7921
  841MOL0     H13503   7.696  11.305   7.775  1.1537  0.8770  0.9645
  841MOL0     H13504   7.560  11.206   7.729 -1.5394  0.1644  0.5535
  841MOL0     H13505   7.530  11.409   7.959 -0.8184 -0.3700  1.0673
  841MOL0     H13506   7.405  11.302   7.897  0.6794 -0.0838  1.2714
  841MOL0     H13507   7.551  11.500   7.718  0.9082 -2.1287  0.3286
  841MOL0     H13508   7.393  11.417   7.692  1.7272 -1.3280  0.4594
  841MOL0     H13509   7.323  11.559   7.901 -1.2218  0.3843 -0.0167
  841MOL0     H13510   7.300  11.609   7.733  1.2486 -0.1836 -0.8097
  841MOL0     H13511   7.525  11.718   7.724  1.6387  1.2056  0.5443
  841MOL0     H13512   7.394  11.801   7.818 -0.2749  0.0335 -1.1612
  841MOL0     H13513   7.653  11.673   7.900  0.2495 -0.5665 -0.7552
  841MOL0     H13514   7.516  11.683   8.016 -0.4135 -0.5786 -0.1092
  841MOL0     H13515   7.489  11.913   7.977  0.7398  1.1206 -2.1035
  841MOL0     H13516   7.622  11.914   7.867 -2.6041  1.8737 -0.0579
  841MOL0     H13517   7.655  10.929   8.060 -0.9207 -0.5860  1.8220
  841MOL0     H13518   7.798  10.775   8.196 -4.1225 -0.9861 -0.6757
  841MOL0     H13519   8.149  10.714   8.420  1.2813  2.5823  2.6342
  841MOL0     H13520   8.318  10.561   8.535  0.1162 -1.4869 -0.9452
  841MOL0     H13521   9.631  10.828   9.473 -1.9357 -0.5255  1.3282
  841MOL0     H13522   9.865  10.900   9.538 -0.2720 -0.4142 -1.0478
  841MOL0     H13523  10.068  11.340   9.963  1.4490  1.3810  1.0900
  841MOL0     H13524  10.296  11.395   9.984  0.6706 -1.5921  0.4442
  841MOL0     H13525  10.599  11.224   9.741 -2.9085 -0.7469 -2.9484
  841MOL0     H13526  10.571  11.355   9.632  1.8906 -1.4318 -0.2002
  841MOL0     H13527  10.725  11.385   9.895  2.1789 -1.1492 -0.9067
  841MOL0     H13528  10.690  11.519   9.790  1.9390  0.9867 -1.2401
  841MOL0     H13529  10.845  11.441   9.623 -1.7587  0.7907  0.6689
  841MOL0     H13530  10.878  11.279   9.701 -1.4178 -0.6918 -2.4753
  841MOL0     H13531  10.953  11.373   9.902 -1.2143  1.6826  1.0648
  841MOL0     H13532  10.944  11.533   9.823 -0.6140  0.7012 -3.2680
  841MOL0     H13533  11.294  11.410   9.639  0.1280  2.2633 -0.2816
  841MOL0     H13534  10.378  11.291   9.576  0.1971  1.9917 -0.7785
  841MOL0     H13535  10.158  11.216   9.546  3.0204  0.3549 -1.8386
  842MOL0     O13536   9.719   9.728   8.264  0.3746  0.5411 -0.4600
  842MOL0     C13537   9.707   9.737   8.389 -0.3171  0.0983 -0.7268
  842MOL0     O13538   9.595   9.723   8.462  0.3359 -0.2679 -0.0899
  842MOL0     C13539   9.482   9.726   8.388  0.9839 -0.1811  0.2589
  842MOL0     C13540   9.441   9.829   8.306 -0.6094 -0.2521 -0.6912
  842MOL0     C13541   9.311   9.846   8.259 -0.2978 -0.1893 -0.1808
  842MOL0     C13542   9.218   9.740   8.278 -0.8396  0.4202  0.3370
  842MOL0     O13543   9.085   9.736   8.231 -0.9779  0.5198  0.7989
  842MOL0     C13544   9.063   9.815   8.114  0.3059 -0.5396 -0.0700
  842MOL0     C13545   9.144   9.758   8.002  0.3076  0.2372  0.6145
  842MOL0     C13546   9.077   9.784   7.868 -0.3234  0.4528 -0.0192
  842MOL0     C13547   9.155   9.721   7.755 -0.0037  0.4682  0.4493
  842MOL0     C13548   9.065   9.731   7.625 -0.1427  0.4949  0.0605
  842MOL0     C13549   9.131   9.685   7.496 -0.6030  0.0091 -0.5154
  842MOL0     C13550   9.253   9.791   7.465 -0.5092 -0.6286  0.7056
  842MOL0     C13551   9.222   9.937   7.481  0.4175  0.2560  0.3142
  842MOL0     N13552   9.322  10.022   7.423  0.8754  0.3958 -0.2104
  842MOL0     C13553   9.304  10.107   7.318 -0.1867  0.2981  0.5280
  842MOL0     C13554   9.408  10.198   7.326  0.5701  0.3392  0.5405
  842MOL0     C13555   9.435  10.306   7.239  0.0906  0.1785  0.2208
  842MOL0     C13556   9.344  10.330   7.114  0.0477 -1.3759 -0.8707
  842MOL0     C13557   9.389  10.255   6.988 -1.0350 -0.9742  0.5370
  842MOL0     C13558   9.265  10.257   6.885 -0.7311  0.2594  0.0644
  842MOL0     O13559   9.159  10.165   6.931 -0.0527  0.0605 -0.3547
  842MOL0     C13560   9.037  10.168   6.873 -0.1323  0.1713 -1.0889
  842MOL0     C13561   9.013  10.227   6.748 -0.3687 -0.4233  0.2745
  842MOL0     C13562   8.891  10.231   6.687  0.2716  0.0871 -0.2648
  842MOL0     C13563   8.876  10.295   6.550 -0.7879 -0.2318 -0.2251
  842MOL0     C13564   8.786  10.174   6.764 -0.4784  0.4826 -0.0833
  842MOL0     C13565   8.643  10.169   6.718 -0.0891 -0.1453 -0.2062
  842MOL0     O13566   8.573  10.057   6.761 -0.1149  0.3386  0.3421
  842MOL0     C13567   8.448  10.036   6.718  0.4188  0.2702 -0.5870
  842MOL0     C13568   8.416   9.912   6.656  0.5234  0.5190  0.1171
  842MOL0     C13569   8.280   9.879   6.623 -0.9177  0.3932 -0.2527
  842MOL0     C13570   8.178   9.965   6.661 -0.5450 -0.7835 -0.3045
  842MOL0     O13571   8.047   9.933   6.646 -0.5612 -0.0380  0.4571
  842MOL0     C13572   8.016   9.805   6.582  0.4653 -1.0446  0.1715
  842MOL0     C13573   7.864   9.808   6.569 -0.1669 -0.0604  0.1836
  842MOL0     C13574   7.810   9.717   6.461  0.4589 -0.2283  1.2885
  842MOL0     C13575   7.658   9.683   6.475 -0.5007  0.1292  0.5858
  842MOL0     C13576   7.632   9.596   6.599 -0.1816 -0.4215 -0.3183
  842MOL0     C13577   7.492   9.533   6.589 -1.1933 -0.2850 -0.0400
  842MOL0     C13578   7.485   9.428   6.703  0.3905  0.2247 -0.0040
  842MOL0     C13579   7.356   9.348   6.690  0.4142 -0.9007 -0.3291
  842MOL0    Cl13580   7.348   9.259   6.536 -0.3306  0.2023  0.1968
  842MOL0     C13581   8.210  10.089   6.733 -0.8080 -0.1433  0.1611
  842MOL0     C13582   8.344  10.122   6.755  0.1509  0.0461 -0.4644
  842MOL0     O13583   8.590  10.247   6.637 -0.0309  0.4106  0.5743
  842MOL0     C13584   8.810  10.108   6.885 -0.4195  0.0543 -0.9906
  842MOL0     C13585   8.938  10.109   6.949  0.5083  0.2679 -0.0411
  842MOL0     N13586   9.489  10.153   7.426  1.0075  0.7943  0.0111
  842MOL0     N13587   9.449  10.037   7.476  0.3336 -0.5055 -0.1959
  842MOL0     C13588   9.258   9.629   8.356  0.3021 -0.1008 -1.1607
  842MOL0     C13589   9.391   9.620   8.405 -0.0037  0.6678  0.2439
  842MOL0     C13590   9.818   9.782   8.472 -0.0155  0.1712  0.0661
  842MOL0     C13591   9.809   9.795   8.621 -0.0505 -0.2999  1.0343
  842MOL0     C13592   9.925   9.841   8.683 -0.5744  0.4298 -0.6955
  842MOL0     C13593  10.050   9.868   8.622  0.0908  0.2912 -0.2877
  842MOL0     O13594  10.174   9.891   8.695  0.6005  1.0302  0.0895
  842MOL0     C13595  10.174   9.838   8.828  0.0449  0.2854 -0.8235
  842MOL0     C13596  10.315   9.821   8.880 -0.3424 -0.1439  0.7606
  842MOL0     C13597  10.376   9.710   8.791 -0.9398  0.1249  0.6243
  842MOL0     C13598  10.531   9.730   8.787  0.4887 -1.4700 -0.9857
  842MOL0     C13599  10.564   9.838   8.693 -0.6547  0.4633  1.2082
  842MOL0     C13600  10.613   9.911   8.606 -0.1749 -0.5984  0.8276
  842MOL0     C13601  10.050   9.859   8.484 -0.0681 -0.7325  0.7012
  842MOL0     C13602   9.936   9.812   8.412 -0.2027  0.2820 -0.6156
  842MOL0     H13603   9.510   9.912   8.299  1.3476 -1.8091 -0.4962
  842MOL0     H13604   9.287   9.935   8.201  0.6718  1.4272  1.7709
  842MOL0     H13605   8.959   9.790   8.088  0.4714  0.1974 -1.5040
  842MOL0     H13606   9.059   9.923   8.133 -3.9261 -0.8882  2.4523
  842MOL0     H13607   9.243   9.804   8.002  0.8149 -0.8303 -0.4262
  842MOL0     H13608   9.148   9.649   8.005  1.3813  0.2344  3.9699
  842MOL0     H13609   8.977   9.739   7.864 -1.2573  2.0134  3.2389
  842MOL0     H13610   9.052   9.888   7.848 -1.8422 -0.1079 -1.3603
  842MOL0     H13611   9.253   9.769   7.745 -0.5480  1.1738 -2.6271
  842MOL0     H13612   9.186   9.617   7.767 -1.2077  0.0095 -0.2552
  842MOL0     H13613   8.977   9.675   7.658  0.2131 -0.1540 -0.0767
  842MOL0     H13614   9.031   9.835   7.616 -0.4333  0.3876 -0.1080
  842MOL0     H13615   9.162   9.580   7.499 -0.8259 -0.0383  0.7375
  842MOL0     H13616   9.062   9.698   7.412 -1.3754  0.2109  0.1387
  842MOL0     H13617   9.341   9.767   7.525  0.5674  0.4764 -0.3743
  842MOL0     H13618   9.286   9.776   7.362  1.6101  0.1096  1.2335
  842MOL0     H13619   9.216   9.970   7.585  1.2735 -1.0216  0.7881
  842MOL0     H13620   9.126   9.947   7.430 -1.7383 -2.0700  3.5360
  842MOL0     H13621   9.218  10.109   7.252  1.4152  0.1556 -1.6879
  842MOL0     H13622   9.441  10.394   7.303  4.1567 -1.9073  3.0939
  842MOL0     H13623   9.539  10.295   7.206  0.0365  1.1922 -0.3456
  842MOL0     H13624   9.325  10.434   7.086 -2.5827 -0.9917  1.8032
  842MOL0     H13625   9.244  10.297   7.143  0.7460 -3.2106 -0.3867
  842MOL0     H13626   9.404  10.148   7.008 -1.9850 -1.7318 -2.2853
  842MOL0     H13627   9.475  10.299   6.937 -0.8088  0.4379  2.0464
  842MOL0     H13628   9.308  10.224   6.789 -1.2095  0.6675 -0.2950
  842MOL0     H13629   9.216  10.354   6.871  0.6712  0.8309 -1.0595
  842MOL0     H13630   9.090  10.266   6.681  0.6617 -1.3277  0.8969
  842MOL0     H13631   8.801  10.374   6.553  0.0580  0.5636  2.5827
  842MOL0     H13632   8.975  10.336   6.530  1.5624 -3.7439  2.8688
  842MOL0     H13633   8.850  10.224   6.471 -0.2088  2.2165 -2.7549
  842MOL0     H13634   8.491   9.836   6.637  0.0861  0.0140  0.3891
  842MOL0     H13635   8.268   9.780   6.580  2.0386 -0.0134 -0.3097
  842MOL0     H13636   8.070   9.783   6.489 -1.7027 -2.1167 -0.8982
  842MOL0     H13637   8.051   9.717   6.638  0.9206 -2.1045 -1.6614
  842MOL0     H13638   7.816   9.787   6.665  1.0629 -3.3770  0.2231
  842MOL0     H13639   7.827   9.904   6.531 -1.5033 -0.3294  0.7250
  842MOL0     H13640   7.865   9.623   6.459  0.4381 -0.3612  3.5324
  842MOL0     H13641   7.821   9.755   6.359 -1.5890  1.9921  1.7972
  842MOL0     H13642   7.597   9.773   6.483 -1.1351  0.0283 -2.2170
  842MOL0     H13643   7.635   9.618   6.390  4.6089  0.0879 -1.1507
  842MOL0     H13644   7.644   9.650   6.694  3.0683  2.2492 -2.0511
  842MOL0     H13645   7.706   9.517   6.615 -1.9083 -2.2323 -0.8015
  842MOL0     H13646   7.419   9.611   6.611 -0.8045 -0.2284  1.1109
  842MOL0     H13647   7.485   9.490   6.489  0.5351  2.0821 -1.2785
  842MOL0     H13648   7.475   9.485   6.796 -0.0021  1.4899 -0.8014
  842MOL0     H13649   7.572   9.362   6.707  1.9843  2.1185 -1.2579
  842MOL0     H13650   7.269   9.415   6.688 -0.5048 -2.0651 -1.0726
  842MOL0     H13651   7.346   9.289   6.782 -0.8485  0.8826  0.7457
  842MOL0     H13652   8.127  10.149   6.767  0.3716  0.4136  2.2680
  842MOL0     H13653   8.364  10.216   6.805 -1.8599 -0.5439  1.5756
  842MOL0     H13654   8.728  10.077   6.949  1.0381  0.2334  1.0589
  842MOL0     H13655   8.948  10.070   7.050  1.0355 -0.1675 -0.2575
  842MOL0     H13656   9.183   9.555   8.379 -0.1116  1.2416  2.4175
  842MOL0     H13657   9.412   9.531   8.464 -1.2912  0.7765  0.8974
  842MOL0     H13658   9.719   9.785   8.680  0.0669  3.8121  2.2468
  842MOL0     H13659   9.922   9.861   8.789 -0.2767  0.1870 -0.6398
  842MOL0     H13660  10.131   9.912   8.897  1.4286 -0.9588  1.5303
  842MOL0     H13661  10.125   9.741   8.841 -0.0459  0.5822  1.4480
  842MOL0     H13662  10.305   9.792   8.985 -2.4729  1.7326  1.1763
  842MOL0     H13663  10.369   9.916   8.866  0.6133 -0.2586  3.1655
  842MOL0     H13664  10.333   9.684   8.694  3.5847 -2.6355 -0.9054
  842MOL0     H13665  10.358   9.621   8.851 -1.6399  1.2811  2.2157
  842MOL0     H13666  10.593   9.643   8.762  3.2503  0.4951 -1.5221
  842MOL0     H13667  10.558   9.760   8.888 -1.3501 -1.4134 -0.4862
  842MOL0     H13668  10.653   9.965   8.523  0.0707 -1.8630  0.0844
  842MOL0     H13669  10.147   9.876   8.440 -1.1739 -0.6356 -1.8468
  842MOL0     H13670   9.949   9.797   8.306 -0.4657 -2.3359 -0.3469
  843MOL0     O13671  10.352   7.725   4.361  0.3195  0.2524  0.4304
  843MOL0     C13672  10.343   7.812   4.447  0.1709 -0.6521 -0.2134
  843MOL0     O13673  10.230   7.885   4.477  0.5059  0.1425 -0.2574
  843MOL0     C13674  10.104   7.833   4.439  0.4856 -0.0642 -0.3068
  843MOL0     C13675  10.034   7.924   4.361 -1.5487  0.1025  0.0285
  843MOL0     C13676   9.901   7.887   4.314 -0.1105  0.0389 -0.1966
  843MOL0     C13677   9.851   7.759   4.338  0.0813  0.4155  1.2204
  843MOL0     O13678   9.736   7.711   4.301  0.0575  0.3041  1.0328
  843MOL0     C13679   9.641   7.807   4.238 -0.1464 -0.0759 -0.6689
  843MOL0     C13680   9.517   7.722   4.201 -0.0217  0.1400  0.6404
  843MOL0     C13681   9.386   7.797   4.180  0.0261  0.1225  0.5430
  843MOL0     C13682   9.271   7.707   4.147  0.3941 -0.9429 -0.4834
  843MOL0     C13683   9.145   7.784   4.145 -0.2990  0.0927  0.2096
  843MOL0     C13684   9.024   7.694   4.132 -0.5823 -0.3408  0.2712
  843MOL0     C13685   8.890   7.771   4.139  0.2198 -0.8976  0.3093
  843MOL0     C13686   8.860   7.836   4.276  0.0563 -0.3060 -0.4496
  843MOL0     N13687   8.714   7.859   4.283 -0.3037 -0.1590 -0.4846
  843MOL0     C13688   8.658   7.972   4.340 -0.0601  0.4390 -1.0004
  843MOL0     C13689   8.525   7.969   4.320 -0.1478  0.1781  0.1788
  843MOL0     C13690   8.434   8.073   4.380  0.2488  0.1260 -0.1001
  843MOL0     C13691   8.389   8.197   4.294 -0.3871 -1.0865  0.0095
  843MOL0     C13692   8.283   8.288   4.362  0.4744 -0.2502 -0.6743
  843MOL0     C13693   8.329   8.395   4.464 -0.3820 -0.1464  0.5531
  843MOL0     O13694   8.406   8.332   4.578  0.3666  0.4514 -0.1753
  843MOL0     C13695   8.492   8.413   4.645  0.3868  0.1203  0.8794
  843MOL0     C13696   8.615   8.368   4.689  0.3567 -0.2775 -0.2946
  843MOL0     C13697   8.704   8.443   4.767  1.3491  0.3744 -0.1538
  843MOL0     C13698   8.843   8.382   4.777  0.2157  0.3632 -0.1059
  843MOL0     C13699   8.660   8.577   4.812  0.5602  0.1607  0.7510
  843MOL0     C13700   8.745   8.682   4.892  0.5750 -0.1646 -0.3806
  843MOL0     O13701   8.711   8.816   4.879 -0.3721  0.2833 -0.2770
  843MOL0     C13702   8.804   8.915   4.922  0.7066 -0.2874 -0.7728
  843MOL0     C13703   8.828   8.929   5.067 -0.0451 -0.1838  0.2872
  843MOL0     C13704   8.923   9.016   5.117 -0.5525 -0.7290  0.1064
  843MOL0     C13705   8.983   9.106   5.024  0.0303 -0.2492 -0.0707
  843MOL0     O13706   9.061   9.199   5.090  0.4088 -0.3927  0.0877
  843MOL0     C13707   9.151   9.284   5.013 -0.2932 -0.3340 -0.3727
  843MOL0     C13708   9.273   9.309   5.102 -1.0807 -0.5296 -0.3652
  843MOL0     C13709   9.398   9.353   5.026  0.0397 -0.1562  0.2028
  843MOL0     C13710   9.522   9.313   5.105 -0.0932  0.2645 -0.2705
  843MOL0     C13711   9.655   9.349   5.049 -1.4294 -0.0743  0.5734
  843MOL0     C13712   9.691   9.311   4.905  0.2574 -0.9721 -0.2779
  843MOL0     C13713   9.715   9.160   4.892  0.4845 -0.3910 -0.3876
  843MOL0     C13714   9.847   9.123   4.845 -0.1242  0.8632  0.5172
  843MOL0    Cl13715   9.958   9.146   4.979 -0.5912 -0.5615  0.1297
  843MOL0     C13716   8.948   9.115   4.889 -0.1509  0.1933  0.5291
  843MOL0     C13717   8.859   9.014   4.836  0.0156 -0.3954  0.0993
  843MOL0     O13718   8.828   8.646   4.968 -0.5081  0.6287 -0.1303
  843MOL0     C13719   8.528   8.615   4.770 -0.7440  0.1226  0.2959
  843MOL0     C13720   8.450   8.534   4.685 -0.2083 -1.0414  1.0925
  843MOL0     N13721   8.495   7.852   4.255  0.6168 -0.5423 -0.0808
  843MOL0     N13722   8.605   7.783   4.248  0.8348 -0.6990 -0.3204
  843MOL0     C13723   9.921   7.670   4.415  0.1664  0.7599 -0.1509
  843MOL0     C13724  10.050   7.708   4.467  0.4301 -0.8565 -0.2052
  843MOL0     C13725  10.471   7.848   4.514 -0.1687  0.0237  0.0781
  843MOL0     C13726  10.488   7.975   4.565 -0.2817  0.3632  0.1543
  843MOL0     C13727  10.611   8.017   4.621  0.0721 -0.2867  0.6603
  843MOL0     C13728  10.716   7.933   4.626 -0.2047  0.2088  0.9975
  843MOL0     O13729  10.830   7.987   4.679  0.4584  0.0954 -0.0785
  843MOL0     C13730  10.934   7.897   4.708 -0.4566  0.9702 -0.5772
  843MOL0     C13731  11.034   7.945   4.812  0.1793 -0.2601 -0.0194
  843MOL0     C13732  11.137   7.844   4.852 -0.1234 -0.4679 -0.3919
  843MOL0     C13733  11.243   7.881   4.962  0.3376 -0.1055  0.5122
  843MOL0     C13734  11.284   8.021   4.961 -0.6386 -0.4134 -0.0738
  843MOL0     C13735  11.318   8.136   4.961 -0.6274 -0.4126 -0.0274
  843MOL0     C13736  10.713   7.802   4.561  0.0985 -0.2875  0.4292
  843MOL0     C13737  10.590   7.766   4.506 -0.7440  0.7037  0.4751
  843MOL0     H13738  10.061   8.027   4.342 -4.2649  1.2165  1.6726
  843MOL0     H13739   9.857   7.964   4.252  3.0303  0.9427 -1.5494
  843MOL0     H13740   9.615   7.884   4.311 -2.2602 -2.4997  1.3333
  843MOL0     H13741   9.684   7.842   4.143  0.5702  0.3704 -0.1955
  843MOL0     H13742   9.539   7.659   4.114  1.3832  1.3910  0.0497
  843MOL0     H13743   9.508   7.654   4.287  0.8218 -0.3801  0.3301
  843MOL0     H13744   9.375   7.843   4.278 -1.7476 -0.6825  0.7653
  843MOL0     H13745   9.402   7.873   4.103  1.9333 -0.2040  0.5752
  843MOL0     H13746   9.273   7.654   4.052 -0.8648 -1.6243 -0.1478
  843MOL0     H13747   9.265   7.630   4.225 -1.3480  0.5555  0.9520
  843MOL0     H13748   9.132   7.841   4.238 -0.9278 -1.2488  0.9569
  843MOL0     H13749   9.147   7.853   4.060  1.5672 -0.5166 -0.2999
  843MOL0     H13750   9.020   7.638   4.038 -0.3741 -1.8376  1.1344
  843MOL0     H13751   9.025   7.614   4.206 -0.6022 -1.7019 -1.1474
  843MOL0     H13752   8.872   7.849   4.064  3.0837  0.1175  0.5511
  843MOL0     H13753   8.816   7.691   4.124  0.6431 -1.3055  0.3894
  843MOL0     H13754   8.926   7.917   4.308  2.4591 -2.8055  1.3708
  843MOL0     H13755   8.877   7.764   4.356  0.5794 -0.2625 -0.5200
  843MOL0     H13756   8.706   8.060   4.381 -0.5935  1.5309 -2.6376
  843MOL0     H13757   8.337   8.026   4.401  1.3793 -1.7472  1.2025
  843MOL0     H13758   8.465   8.099   4.481  0.5468 -1.1911  0.1698
  843MOL0     H13759   8.346   8.172   4.196 -2.1157  2.0810 -0.1823
  843MOL0     H13760   8.476   8.261   4.276 -0.2522 -1.2762 -0.0101
  843MOL0     H13761   8.194   8.229   4.386 -0.2245  0.9422 -0.2505
  843MOL0     H13762   8.244   8.356   4.286  2.0235  1.3357 -0.1241
  843MOL0     H13763   8.234   8.436   4.500 -1.7684 -2.9020  0.3471
  843MOL0     H13764   8.381   8.472   4.407 -2.4710  0.4945 -0.5797
  843MOL0     H13765   8.649   8.269   4.659 -0.8297 -1.0598  0.8645
  843MOL0     H13766   8.883   8.369   4.676 -1.5001 -0.8738 -0.6622
  843MOL0     H13767   8.917   8.441   4.833  1.0392  0.2301 -1.0251
  843MOL0     H13768   8.824   8.293   4.837 -2.9083  0.8794 -0.1689
  843MOL0     H13769   8.771   8.868   5.136 -0.4248 -1.5468 -1.1766
  843MOL0     H13770   8.947   9.034   5.221  2.7411 -0.2893 -0.6016
  843MOL0     H13771   9.178   9.233   4.921  0.7326 -2.2472  0.9180
  843MOL0     H13772   9.108   9.382   4.991 -1.6611 -0.8637 -0.2173
  843MOL0     H13773   9.246   9.381   5.180  0.9530 -0.1277  0.0343
  843MOL0     H13774   9.293   9.219   5.162 -2.5242 -0.5310  0.1473
  843MOL0     H13775   9.413   9.461   5.022  3.1597 -0.5083 -0.9858
  843MOL0     H13776   9.396   9.320   4.921 -0.9319  3.1887 -0.9647
  843MOL0     H13777   9.511   9.371   5.197  1.2647 -1.7130  1.2148
  843MOL0     H13778   9.511   9.207   5.130 -0.8927  0.2277 -0.7223
  843MOL0     H13779   9.736   9.315   5.114 -0.3975 -1.7192 -1.4490
  843MOL0     H13780   9.657   9.458   5.062 -1.6224  0.0954 -0.7012
  843MOL0     H13781   9.615   9.343   4.834  0.3043 -0.0505  0.0693
  843MOL0     H13782   9.780   9.369   4.877  0.7694 -1.1093  0.9773
  843MOL0     H13783   9.652   9.122   4.810 -0.1402 -0.7106  0.2337
  843MOL0     H13784   9.688   9.097   4.978  0.9686 -1.1329 -0.7614
  843MOL0     H13785   9.877   9.189   4.763 -0.9494  2.9492  1.8028
  843MOL0     H13786   9.846   9.026   4.795  2.0831  0.0812  1.8527
  843MOL0     H13787   8.981   9.191   4.818 -1.7639  0.7478  0.3349
  843MOL0     H13788   8.816   9.010   4.736  0.7589 -0.5686 -0.2203
  843MOL0     H13789   8.494   8.713   4.801  1.4671  1.1443 -0.2735
  843MOL0     H13790   8.349   8.563   4.659  0.6619 -1.3683 -3.4917
  843MOL0     H13791   9.878   7.581   4.460  0.5191  0.2627 -0.7796
  843MOL0     H13792  10.102   7.648   4.540  0.6614  2.0803  2.2488
  843MOL0     H13793  10.408   8.048   4.562 -0.9841 -0.3835  0.5021
  843MOL0     H13794  10.622   8.116   4.665  0.2715 -0.5036  1.0994
  843MOL0     H13795  10.900   7.801   4.750  0.9692  1.7848  2.7396
  843MOL0     H13796  10.996   7.881   4.620 -1.0345 -1.6067 -0.5968
  843MOL0     H13797  10.987   7.980   4.904  4.1484 -1.6431  2.7877
  843MOL0     H13798  11.084   8.033   4.770  0.3664 -0.6846 -0.7135
  843MOL0     H13799  11.199   7.829   4.763  1.9616 -0.1472  0.9366
  843MOL0     H13800  11.095   7.747   4.883  2.5757 -1.4815  0.3803
  843MOL0     H13801  11.326   7.809   4.963 -3.1871 -4.6760  3.4923
  843MOL0     H13802  11.189   7.857   5.054  1.2488 -0.8130  0.8788
  843MOL0     H13803  11.366   8.232   4.960  0.3965 -0.8803  0.9996
  843MOL0     H13804  10.799   7.736   4.566 -0.2455 -0.7628  0.1137
  843MOL0     H13805  10.586   7.663   4.471 -0.0723  1.6106 -2.5418
  844MOL0     O13806   3.919   6.265   7.026  0.3844 -0.2377  0.4136
  844MOL0     C13807   3.877   6.358   6.956 -0.4795  0.3950  0.2289
  844MOL0     O13808   3.747   6.376   6.911 -0.2677  0.0477  0.3402
  844MOL0     C13809   3.652   6.290   6.945  0.2995 -0.1349 -0.3947
  844MOL0     C13810   3.579   6.231   6.843  0.3556 -0.7472  0.4459
  844MOL0     C13811   3.492   6.127   6.879 -0.3571  0.8106  0.5543
  844MOL0     C13812   3.473   6.087   7.010 -0.0938 -0.6581  0.0297
  844MOL0     O13813   3.378   6.002   7.034 -0.6649 -0.2188 -0.7286
  844MOL0     C13814   3.415   5.864   7.020  0.8795  0.3607 -0.1200
  844MOL0     C13815   3.329   5.764   7.104  0.0389 -0.1788  0.1428
  844MOL0     C13816   3.366   5.764   7.252  0.4180 -0.5344  0.1078
  844MOL0     C13817   3.275   5.677   7.334  0.6239 -0.2473  0.0187
  844MOL0     C13818   3.312   5.691   7.483 -0.4989  0.0672 -0.1292
  844MOL0     C13819   3.226   5.603   7.566  0.0079 -0.5967 -0.2258
  844MOL0     C13820   3.239   5.633   7.717 -0.5701 -0.4129 -0.5236
  844MOL0     C13821   3.188   5.525   7.815 -0.0776  0.4717  0.0373
  844MOL0     N13822   3.154   5.574   7.950  0.8258  0.3554  0.2246
  844MOL0     C13823   3.055   5.670   7.971 -0.3124  0.7800  0.3331
  844MOL0     C13824   3.012   5.666   8.097  0.0112  1.0067 -0.0950
  844MOL0     C13825   2.896   5.719   8.158  0.1794 -0.4627  0.1684
  844MOL0     C13826   2.877   5.870   8.125  0.9850 -0.3763  0.5418
  844MOL0     C13827   2.767   5.927   8.224  0.0833  0.2688 -0.2477
  844MOL0     C13828   2.766   6.076   8.229 -0.7209 -0.3039 -0.5324
  844MOL0     O13829   2.737   6.129   8.103 -0.5087  0.0905 -0.1498
  844MOL0     C13830   2.613   6.128   8.049 -0.4537 -0.5345 -0.2519
  844MOL0     C13831   2.605   6.109   7.916 -0.0746 -0.2643  0.3535
  844MOL0     C13832   2.484   6.130   7.847 -0.0273  0.6770  0.4875
  844MOL0     C13833   2.487   6.135   7.694  0.6833 -0.4592 -0.4665
  844MOL0     C13834   2.361   6.154   7.912  0.6525  0.2814 -0.2332
  844MOL0     C13835   2.226   6.146   7.853  0.0311  0.2935 -0.0936
  844MOL0     O13836   2.137   6.238   7.902  0.4235  0.1504 -0.2257
  844MOL0     C13837   2.015   6.243   7.840  0.1063 -0.6165 -0.9887
  844MOL0     C13838   1.930   6.138   7.861  0.3100 -0.1282  0.3196
  844MOL0     C13839   1.796   6.149   7.821  0.0478 -0.1151 -0.1108
  844MOL0     C13840   1.747   6.261   7.750  0.1917 -0.7006  0.6457
  844MOL0     O13841   1.611   6.264   7.706 -0.1008  0.2828  0.3601
  844MOL0     C13842   1.570   6.362   7.608 -0.3297 -0.0119 -0.5366
  844MOL0     C13843   1.502   6.477   7.681 -0.0803  0.8843  0.2328
  844MOL0     C13844   1.569   6.612   7.704  0.2924 -0.6412 -0.3956
  844MOL0     C13845   1.490   6.729   7.647  0.0540 -0.4639  0.0310
  844MOL0     C13846   1.566   6.862   7.631  0.4130  0.0868 -0.3367
  844MOL0     C13847   1.587   6.938   7.763  0.5992  0.2055  0.8906
  844MOL0     C13848   1.647   7.079   7.731  0.4428  0.1479 -1.0871
  844MOL0     C13849   1.541   7.174   7.671 -0.3804 -0.0313 -0.5378
  844MOL0    Cl13850   1.593   7.344   7.680 -0.2072  0.0141 -0.1454
  844MOL0     C13851   1.834   6.367   7.727 -0.4319  0.2964  0.1427
  844MOL0     C13852   1.968   6.360   7.784 -1.2241  0.1962  0.0949
  844MOL0     O13853   2.204   6.057   7.775  0.1100 -0.1035 -0.0519
  844MOL0     C13854   2.376   6.168   8.053 -0.7851 -0.6878 -0.7158
  844MOL0     C13855   2.495   6.164   8.124 -0.1355  0.8496 -0.0689
  844MOL0     N13856   3.073   5.558   8.151  0.7119 -0.4297 -0.9876
  844MOL0     N13857   3.159   5.504   8.066 -0.1625  0.2957 -0.1581
  844MOL0     C13858   3.543   6.142   7.109  0.9682 -0.0868 -0.3138
  844MOL0     C13859   3.635   6.244   7.075  1.0376  0.6393 -0.3781
  844MOL0     C13860   3.966   6.474   6.929 -0.4996 -0.4005 -0.1146
  844MOL0     C13861   3.920   6.586   6.847 -0.3878 -0.1491 -1.1530
  844MOL0     C13862   4.004   6.695   6.839  0.9086 -0.4471  0.0421
  844MOL0     C13863   4.130   6.705   6.895  0.9045  0.7021  0.0608
  844MOL0     O13864   4.190   6.822   6.872  0.1114  0.0856  0.0043
  844MOL0     C13865   4.309   6.839   6.951  0.5596 -0.8128  0.4704
  844MOL0     C13866   4.344   6.979   6.986  0.8648 -0.0077 -0.1629
  844MOL0     C13867   4.255   7.032   7.097 -0.5744 -1.1177  0.6943
  844MOL0     C13868   4.120   7.079   7.045  0.1840  0.1809  0.6638
  844MOL0     C13869   4.128   7.165   6.925 -0.4432  0.5782  0.0726
  844MOL0     C13870   4.137   7.251   6.837  0.8846 -0.6936  0.6461
  844MOL0     C13871   4.182   6.598   6.970  1.0104 -0.1720 -0.0863
  844MOL0     C13872   4.098   6.482   6.982 -0.6949 -0.4119  0.1711
  844MOL0     H13873   3.599   6.259   6.740 -0.6946 -1.4636  0.0277
  844MOL0     H13874   3.434   6.078   6.802 -0.8604  2.3967 -0.1066
  844MOL0     H13875   3.404   5.840   6.914 -1.7150 -1.9294  0.5531
  844MOL0     H13876   3.518   5.839   7.044  0.4035 -0.6728  0.9556
  844MOL0     H13877   3.228   5.801   7.090 -0.6764 -1.3584  1.7937
  844MOL0     H13878   3.330   5.666   7.056  0.7778  0.3726 -1.0308
  844MOL0     H13879   3.474   5.754   7.268  0.0243 -0.9194  3.0661
  844MOL0     H13880   3.346   5.860   7.300 -0.2287 -1.9870  2.9880
  844MOL0     H13881   3.172   5.710   7.318 -0.0425 -2.0764  0.3504
  844MOL0     H13882   3.293   5.574   7.302  0.4540 -0.3139  0.1395
  844MOL0     H13883   3.418   5.678   7.508 -0.7203  2.2438  2.4350
  844MOL0     H13884   3.297   5.796   7.509  3.6097  0.2350  2.5121
  844MOL0     H13885   3.121   5.606   7.536 -0.8395 -3.0315  2.1710
  844MOL0     H13886   3.250   5.498   7.543 -1.5414 -0.7663 -1.2102
  844MOL0     H13887   3.343   5.648   7.747 -0.7251  2.5993 -1.2358
  844MOL0     H13888   3.176   5.720   7.739 -1.1009 -0.3667 -2.1270
  844MOL0     H13889   3.259   5.441   7.824 -0.1533 -0.0720 -3.2106
  844MOL0     H13890   3.106   5.464   7.776 -1.0405  0.9647  1.2434
  844MOL0     H13891   3.000   5.744   7.913 -0.9406  1.9432  2.3305
  844MOL0     H13892   2.803   5.665   8.136 -0.1244  0.3809 -0.6863
  844MOL0     H13893   2.910   5.717   8.266 -1.2116 -0.1493  0.3691
  844MOL0     H13894   2.847   5.871   8.020  2.1209  2.5577  0.1532
  844MOL0     H13895   2.967   5.932   8.135  1.8120 -1.2549 -1.0730
  844MOL0     H13896   2.801   5.910   8.327 -1.3575  2.6790  0.7231
  844MOL0     H13897   2.669   5.888   8.199  0.1730  0.7370 -1.3837
  844MOL0     H13898   2.870   6.097   8.255 -1.2709  0.2429  1.3628
  844MOL0     H13899   2.698   6.124   8.300  2.0111  0.5677  1.7067
  844MOL0     H13900   2.700   6.095   7.865  0.5702  3.2119  0.3233
  844MOL0     H13901   2.422   6.067   7.638 -0.2849 -1.4455  1.7576
  844MOL0     H13902   2.460   6.233   7.655 -3.2596 -1.4929 -0.7393
  844MOL0     H13903   2.587   6.101   7.662  0.2024 -0.7383 -1.7280
  844MOL0     H13904   1.957   6.052   7.923 -0.1117  0.8764  1.9637
  844MOL0     H13905   1.721   6.074   7.848 -0.7527  0.6819 -0.0742
  844MOL0     H13906   1.658   6.392   7.551  1.3470 -1.6521  1.0651
  844MOL0     H13907   1.493   6.315   7.547 -0.9697 -3.1138  2.3602
  844MOL0     H13908   1.411   6.501   7.626  0.4568  2.9703  0.1799
  844MOL0     H13909   1.479   6.441   7.782 -0.7513 -0.5013 -0.3887
  844MOL0     H13910   1.658   6.618   7.641  1.1389  1.6629  0.8815
  844MOL0     H13911   1.597   6.635   7.808  2.4648 -0.7475 -0.9169
  844MOL0     H13912   1.460   6.699   7.545  0.2289 -0.8646  0.0940
  844MOL0     H13913   1.392   6.730   7.696 -0.8078 -1.8342 -1.5252
  844MOL0     H13914   1.504   6.916   7.559 -0.7201 -0.1175  0.4683
  844MOL0     H13915   1.665   6.832   7.594  1.3909 -2.5149  3.7050
  844MOL0     H13916   1.486   6.964   7.794  0.4462  0.4190  0.2405
  844MOL0     H13917   1.646   6.879   7.833  3.3474  0.4535 -1.0076
  844MOL0     H13918   1.731   7.073   7.661  1.8867  0.2879  0.5750
  844MOL0     H13919   1.677   7.119   7.828  0.8507  0.1545 -1.2150
  844MOL0     H13920   1.448   7.175   7.728 -0.4446  0.7519 -0.6554
  844MOL0     H13921   1.520   7.150   7.567 -1.9336 -0.4914 -0.1435
  844MOL0     H13922   1.798   6.450   7.667  1.0335  1.8137  1.2363
  844MOL0     H13923   2.045   6.436   7.776  0.3536 -1.0731  2.2681
  844MOL0     H13924   2.292   6.207   8.109  1.3047  1.2949  1.2226
  844MOL0     H13925   2.511   6.194   8.227 -0.5506 -0.7073  0.4647
  844MOL0     H13926   3.544   6.107   7.211 -1.3397 -2.9277 -1.1260
  844MOL0     H13927   3.699   6.271   7.158  1.1222 -0.6529 -0.0098
  844MOL0     H13928   3.823   6.585   6.799 -1.9487 -1.6127  1.7626
  844MOL0     H13929   3.975   6.784   6.784  1.1977  0.5985  1.5346
  844MOL0     H13930   4.313   6.784   7.045 -0.7258 -2.4372 -0.3633
  844MOL0     H13931   4.395   6.801   6.895  1.6947  0.5650  1.2213
  844MOL0     H13932   4.342   7.041   6.895 -2.3655  0.2787 -0.0332
  844MOL0     H13933   4.447   6.978   7.021  0.4440  0.3115  1.1438
  844MOL0     H13934   4.304   7.127   7.122 -3.6675  0.5670  0.9457
  844MOL0     H13935   4.245   6.968   7.185  0.3767  0.1430  1.7482
  844MOL0     H13936   4.079   7.138   7.127  0.4135  2.5821 -0.8277
  844MOL0     H13937   4.050   7.000   7.018  0.2598  0.6599 -1.1163
  844MOL0     H13938   4.147   7.338   6.776 -1.5085  0.9372  2.3975
  844MOL0     H13939   4.285   6.599   7.005  1.5019  1.3550 -1.4518
  844MOL0     H13940   4.143   6.394   7.026 -1.5507 -1.6442 -1.2859
  845MOL0     O13941  10.833   1.912   4.809 -0.3127 -0.2433 -0.9576
  845MOL0     C13942  10.779   1.832   4.727 -0.5630  0.8839  0.8038
  845MOL0     O13943  10.860   1.730   4.652  1.0318  0.1660  0.2855
  845MOL0     C13944  10.994   1.736   4.683 -0.4885 -0.3194  0.4327
  845MOL0     C13945  11.056   1.614   4.728  0.3002 -0.9135 -0.6846
  845MOL0     C13946  11.194   1.607   4.752 -1.3614  0.7468  0.0472
  845MOL0     C13947  11.270   1.727   4.719  0.2370  0.2503  1.5597
  845MOL0     O13948  11.406   1.720   4.743 -1.0605 -0.2789  0.4934
  845MOL0     C13949  11.490   1.839   4.727 -0.2147  0.4385  0.2165
  845MOL0     C13950  11.476   1.947   4.833  0.1773 -0.5775  0.0204
  845MOL0     C13951  11.459   1.894   4.972 -0.1285 -0.6969  0.9087
  845MOL0     C13952  11.384   1.990   5.062  0.1987 -0.2557  0.6410
  845MOL0     C13953  11.408   1.960   5.211 -1.1628 -0.5641 -0.5374
  845MOL0     C13954  11.348   2.077   5.291  0.2274  0.8288  0.5530
  845MOL0     C13955  11.393   2.056   5.443 -0.6610  0.1065  0.3086
  845MOL0     C13956  11.326   2.152   5.537 -0.6412 -0.4302  0.8050
  845MOL0     N13957  11.363   2.100   5.667 -0.9943 -1.0925 -0.0894
  845MOL0     C13958  11.482   2.121   5.730  0.0579 -0.0667 -0.4550
  845MOL0     C13959  11.465   2.065   5.855  0.0589 -0.5734 -0.0442
  845MOL0     C13960  11.563   2.074   5.960  0.5138  0.2446  0.2666
  845MOL0     C13961  11.620   1.934   5.968  0.3593 -0.0379 -0.3639
  845MOL0     C13962  11.735   1.922   6.073 -0.3535  0.3517 -0.9599
  845MOL0     C13963  11.850   2.026   6.055 -0.8729 -0.1302 -0.3643
  845MOL0     O13964  11.887   2.029   5.913  0.0789 -0.4537  0.3275
  845MOL0     C13965  11.930   2.142   5.853  1.2692 -0.7790 -0.2194
  845MOL0     C13966  11.898   2.152   5.718  0.4727 -0.2673  0.5466
  845MOL0     C13967  11.947   2.267   5.644 -0.1323  0.0386 -0.5018
  845MOL0     C13968  11.906   2.262   5.498  0.8206 -0.0222  0.0390
  845MOL0     C13969  12.030   2.358   5.702 -0.1512 -0.0552 -0.4188
  845MOL0     C13970  12.104   2.457   5.618  0.1643  0.4303  0.7656
  845MOL0     O13971  12.231   2.423   5.629 -0.3293 -0.7396  0.7509
  845MOL0     C13972  12.329   2.468   5.540  0.6912  0.5295  1.0986
  845MOL0     C13973  12.309   2.496   5.401  0.4308 -0.1995 -0.0782
  845MOL0     C13974  12.409   2.541   5.322 -1.5033 -0.9669 -0.0173
  845MOL0     C13975  12.541   2.540   5.362 -0.2727 -0.4675 -0.3855
  845MOL0     O13976  12.633   2.561   5.267  0.6378 -0.7333 -0.2021
  845MOL0     C13977  12.769   2.569   5.307  0.0893  0.1416 -0.3538
  845MOL0     C13978  12.858   2.554   5.183  0.5647  0.0557 -0.2395
  845MOL0     C13979  12.866   2.696   5.114  0.9932  0.1507 -0.3823
  845MOL0     C13980  12.949   2.687   4.988  0.1004 -0.4419  0.2024
  845MOL0     C13981  13.099   2.703   5.006 -0.6060  0.0066 -0.2991
  845MOL0     C13982  13.178   2.663   4.890 -0.8556 -0.2580  0.4621
  845MOL0     C13983  13.202   2.515   4.885  0.0531  0.6468 -0.3335
  845MOL0     C13984  13.259   2.457   4.754  0.0584 -0.3683 -0.1921
  845MOL0    Cl13985  13.167   2.504   4.606 -0.0016  0.1523 -0.3163
  845MOL0     C13986  12.567   2.506   5.497  0.5138 -0.3492 -0.0891
  845MOL0     C13987  12.464   2.472   5.587  0.2313  0.0804 -0.9021
  845MOL0     O13988  12.053   2.546   5.548  0.2663 -0.1753 -0.1345
  845MOL0     C13989  12.054   2.351   5.842  0.2732  0.2662  0.8671
  845MOL0     C13990  12.013   2.243   5.914  0.2148  0.1999  0.2100
  845MOL0     N13991  11.338   2.004   5.861 -0.2559  0.4915 -0.3205
  845MOL0     N13992  11.282   2.032   5.748  0.8016  0.8067  0.4986
  845MOL0     C13993  11.202   1.842   4.663 -0.2145  0.3558  0.0624
  845MOL0     C13994  11.066   1.850   4.633 -0.0290  0.2698 -1.7523
  845MOL0     C13995  10.630   1.835   4.708 -0.4736 -0.1396  0.2539
  845MOL0     C13996  10.559   1.933   4.779  0.4806 -0.0847  0.2787
  845MOL0     C13997  10.422   1.957   4.751  0.3469 -0.4287 -0.0901
  845MOL0     C13998  10.362   1.873   4.658  0.5537 -0.4469  0.7011
  845MOL0     O13999  10.230   1.913   4.623  0.2142  0.5824 -0.0104
  845MOL0     C14000  10.173   1.843   4.506 -0.6650  0.1334 -0.3939
  845MOL0     C14001  10.021   1.883   4.500 -1.0282  0.0394  0.3062
  845MOL0     C14002   9.944   1.861   4.628 -0.4846 -0.3504 -0.3413
  845MOL0     C14003   9.958   1.718   4.674  0.8507 -0.7778  0.9849
  845MOL0     C14004   9.866   1.690   4.779  0.2071 -0.3020  0.0349
  845MOL0     C14005   9.784   1.683   4.878 -0.8417  0.6282 -0.1531
  845MOL0     C14006  10.438   1.778   4.592  0.8656 -0.3348  0.6840
  845MOL0     C14007  10.574   1.753   4.617  0.4226  0.1342 -0.2210
  845MOL0     H14008  10.995   1.534   4.771  1.5426 -0.1177  2.9144
  845MOL0     H14009  11.241   1.516   4.789 -1.2039  0.0958 -1.6551
  845MOL0     H14010  11.598   1.820   4.723 -0.0795  0.8673  1.4028
  845MOL0     H14011  11.468   1.876   4.626 -1.1364 -0.2676  0.1482
  845MOL0     H14012  11.569   2.004   4.837  2.1639 -3.5821 -0.3341
  845MOL0     H14013  11.392   2.016   4.821  0.1903  0.1484  3.2165
  845MOL0     H14014  11.400   1.803   4.961 -0.6467 -0.1400 -1.4446
  845MOL0     H14015  11.556   1.875   5.018 -0.8779 -2.6822  1.7827
  845MOL0     H14016  11.390   2.097   5.039 -2.0376  0.1259  1.5797
  845MOL0     H14017  11.278   1.966   5.048  0.0904  0.3990  0.2993
  845MOL0     H14018  11.378   1.862   5.248  4.2146 -1.9619  1.1402
  845MOL0     H14019  11.517   1.952   5.220 -0.8912  1.4817 -1.4789
  845MOL0     H14020  11.383   2.169   5.244 -2.9944  0.7982 -2.2828
  845MOL0     H14021  11.239   2.074   5.284  0.2175 -0.2794  0.9888
  845MOL0     H14022  11.377   1.953   5.474  4.1208 -1.3587 -1.1951
  845MOL0     H14023  11.502   2.065   5.438 -0.7928  1.3482 -0.7628
  845MOL0     H14024  11.218   2.141   5.523 -0.5115 -0.8376  0.0283
  845MOL0     H14025  11.363   2.252   5.513 -0.3194 -0.9549 -1.0961
  845MOL0     H14026  11.561   2.188   5.697  1.6710  0.5416  3.9069
  845MOL0     H14027  11.634   2.147   5.920 -0.3123 -0.7039 -3.2597
  845MOL0     H14028  11.523   2.117   6.053 -1.5834  1.2751 -1.0300
  845MOL0     H14029  11.661   1.899   5.873  0.1667 -5.6848  1.2715
  845MOL0     H14030  11.534   1.873   5.996 -0.9512  0.5557 -2.8102
  845MOL0     H14031  11.781   1.823   6.070 -0.2982  0.3778 -0.9794
  845MOL0     H14032  11.689   1.925   6.172  0.6509  4.1447 -0.4662
  845MOL0     H14033  11.936   1.985   6.109 -2.5788 -0.9945  1.8585
  845MOL0     H14034  11.823   2.122   6.101  0.3656 -0.6377  1.5497
  845MOL0     H14035  11.837   2.073   5.675  0.5812 -0.5410  0.9010
  845MOL0     H14036  11.810   2.313   5.498 -0.0525 -1.5801 -1.7830
  845MOL0     H14037  11.975   2.321   5.437  1.9807 -3.1349 -1.8957
  845MOL0     H14038  11.889   2.164   5.452 -0.1262  0.3852 -0.5059
  845MOL0     H14039  12.207   2.484   5.364  0.5431  1.2738 -0.9298
  845MOL0     H14040  12.395   2.567   5.218 -0.6064  0.8156  0.2609
  845MOL0     H14041  12.795   2.662   5.359  0.0743 -0.5618  0.9580
  845MOL0     H14042  12.791   2.493   5.383 -1.9067  0.0992  0.2320
  845MOL0     H14043  12.958   2.512   5.200  1.1189 -1.2182 -5.0907
  845MOL0     H14044  12.803   2.484   5.120  0.7925 -1.7082  1.4266
  845MOL0     H14045  12.908   2.773   5.179 -0.1248  1.2769 -0.9413
  845MOL0     H14046  12.761   2.722   5.094  1.3686  0.6281 -1.9103
  845MOL0     H14047  12.911   2.595   4.941 -0.3542  1.7252 -4.1901
  845MOL0     H14048  12.921   2.763   4.915 -1.8289 -1.3783 -0.1063
  845MOL0     H14049  13.135   2.663   5.101 -0.8041  0.3317 -0.0817
  845MOL0     H14050  13.103   2.812   5.012 -1.1291 -0.0599  2.2162
  845MOL0     H14051  13.125   2.695   4.800 -2.2513 -2.8099  0.2716
  845MOL0     H14052  13.275   2.711   4.900 -0.9510  0.3804 -1.3549
  845MOL0     H14053  13.108   2.466   4.914 -0.9716  0.8335 -3.0662
  845MOL0     H14054  13.269   2.490   4.969  0.0896  2.4635  0.2088
  845MOL0     H14055  13.266   2.348   4.760  1.6069 -0.2503  0.8818
  845MOL0     H14056  13.362   2.492   4.742  0.4030 -0.8893  1.0585
  845MOL0     H14057  12.661   2.516   5.551 -1.2666 -0.9324  3.3916
  845MOL0     H14058  12.476   2.450   5.693  1.5501  0.2734 -0.9919
  845MOL0     H14059  12.108   2.426   5.898  0.1039  1.0425  0.0092
  845MOL0     H14060  12.042   2.232   6.018  0.5209  0.9240  0.2036
  845MOL0     H14061  11.260   1.933   4.656  2.1505 -1.1806 -1.7142
  845MOL0     H14062  11.036   1.941   4.581  1.3477  2.0148  0.3428
  845MOL0     H14063  10.616   2.002   4.840 -1.1882  1.0425  0.6227
  845MOL0     H14064  10.362   2.036   4.795 -1.7441 -1.0193 -1.7352
  845MOL0     H14065  10.221   1.882   4.415  1.2472 -0.3463  0.3534
  845MOL0     H14066  10.188   1.735   4.498 -0.3951 -0.1142  2.4321
  845MOL0     H14067   9.974   1.824   4.421 -1.6218 -0.9933  1.4015
  845MOL0     H14068  10.005   1.988   4.476  0.4072  0.3761  0.7041
  845MOL0     H14069   9.843   1.896   4.607  0.0038  0.6461 -1.1213
  845MOL0     H14070   9.977   1.928   4.708  3.0823 -2.6016  0.2948
  845MOL0     H14071  10.062   1.713   4.708  1.6214 -0.7767 -1.2004
  845MOL0     H14072   9.944   1.648   4.592 -1.6203 -2.6803  2.8592
  845MOL0     H14073   9.717   1.684   4.962  1.0596 -1.8824  1.5263
  845MOL0     H14074  10.400   1.716   4.512  1.1679 -0.4411  0.6220
  845MOL0     H14075  10.622   1.673   4.560 -3.9400 -1.7804 -1.6171
  846MOL0     O14076   6.231   4.542   3.226 -0.1957 -0.1165 -0.4010
  846MOL0     C14077   6.229   4.455   3.311 -0.7725 -0.4602 -0.4151
  846MOL0     O14078   6.336   4.390   3.364 -0.2578 -0.3151  1.2022
  846MOL0     C14079   6.460   4.392   3.295 -0.6519  0.6339  0.0333
  846MOL0     C14080   6.488   4.428   3.165  0.0403 -0.1104  0.2757
  846MOL0     C14081   6.606   4.462   3.110 -0.7386  0.1534 -0.0719
  846MOL0     C14082   6.726   4.447   3.188 -0.1919  0.1140 -0.1525
  846MOL0     O14083   6.855   4.469   3.150 -0.2473  0.4337  0.4199
  846MOL0     C14084   6.888   4.465   3.008  0.2979  0.2490 -0.0943
  846MOL0     C14085   7.035   4.501   2.992 -0.0543 -0.2845 -0.5256
  846MOL0     C14086   7.090   4.534   2.851 -1.3305 -0.3221  0.1452
  846MOL0     C14087   7.046   4.431   2.750  0.3540  0.0935 -0.2045
  846MOL0     C14088   7.144   4.434   2.640  0.1294  0.7893  0.6234
  846MOL0     C14089   7.103   4.357   2.518 -0.5354  0.1348 -0.2823
  846MOL0     C14090   7.220   4.345   2.421  0.5031 -0.6680 -1.4717
  846MOL0     C14091   7.162   4.286   2.289 -0.4155 -0.7214 -0.0722
  846MOL0     N14092   7.271   4.261   2.203 -0.3262  0.9878  0.8114
  846MOL0     C14093   7.343   4.369   2.143 -0.1041  0.2783  0.7320
  846MOL0     C14094   7.429   4.308   2.063  1.0707  0.0492  0.7321
  846MOL0     C14095   7.520   4.363   1.958  0.2075  0.0288 -0.8517
  846MOL0     C14096   7.465   4.483   1.894 -0.6981  0.5628 -0.2563
  846MOL0     C14097   7.344   4.476   1.794 -0.4974  0.0079  0.1374
  846MOL0     C14098   7.358   4.370   1.682  0.6436 -0.7807 -1.2446
  846MOL0     O14099   7.318   4.242   1.726  0.1968  0.8042  0.1689
  846MOL0     C14100   7.188   4.208   1.731 -0.5697  0.3033  0.4196
  846MOL0     C14101   7.082   4.286   1.685  0.6989 -0.2409  0.2913
  846MOL0     C14102   6.941   4.257   1.712  0.4474  0.1542  0.5050
  846MOL0     C14103   6.840   4.361   1.675  0.5027  0.3843  1.5604
  846MOL0     C14104   6.914   4.151   1.799 -0.9026  0.3003  0.4806
  846MOL0     C14105   6.780   4.100   1.829 -0.5812  0.3895  0.1049
  846MOL0     O14106   6.686   4.110   1.732  0.3604 -0.1710  0.9122
  846MOL0     C14107   6.578   4.021   1.728  0.2403 -0.4192 -0.7537
  846MOL0     C14108   6.485   3.992   1.835  0.6312  0.4102  0.4709
  846MOL0     C14109   6.381   3.905   1.821 -0.2559 -0.4467 -0.6932
  846MOL0     C14110   6.357   3.837   1.703 -0.1898  0.3218 -0.2431
  846MOL0     O14111   6.278   3.730   1.698 -0.0702 -0.1558  0.6245
  846MOL0     C14112   6.142   3.754   1.764 -0.2829 -0.5091  0.6290
  846MOL0     C14113   6.038   3.646   1.736 -0.7129 -0.3954 -0.4103
  846MOL0     C14114   6.108   3.501   1.725  0.2991 -0.4180 -0.4088
  846MOL0     C14115   5.993   3.395   1.726  0.1589 -0.2302 -0.4649
  846MOL0     C14116   5.940   3.368   1.872 -0.0946  0.1801  0.3835
  846MOL0     C14117   5.830   3.257   1.861  0.2856 -0.5525 -0.1837
  846MOL0     C14118   5.807   3.166   1.990  0.1683 -0.0345 -0.0265
  846MOL0     C14119   5.688   3.076   1.983 -0.3386  0.4535  1.2549
  846MOL0    Cl14120   5.669   3.005   1.813  0.0042  0.2780  0.1644
  846MOL0     C14121   6.444   3.866   1.597 -0.5662 -0.0392  0.0338
  846MOL0     C14122   6.551   3.958   1.611  0.3431  0.2595 -0.0260
  846MOL0     O14123   6.760   4.067   1.945  0.1924  0.1959  0.0084
  846MOL0     C14124   7.021   4.062   1.829 -1.0009 -0.3531  0.2764
  846MOL0     C14125   7.158   4.095   1.804  0.6804 -1.2121  0.3333
  846MOL0     N14126   7.417   4.170   2.080  0.0907  0.3539  0.0227
  846MOL0     N14127   7.317   4.142   2.157 -0.8765 -0.3754  0.2883
  846MOL0     C14128   6.709   4.386   3.314  0.3536  0.9619  0.8704
  846MOL0     C14129   6.580   4.352   3.363 -0.5550  0.6243  0.2885
  846MOL0     C14130   6.093   4.427   3.365 -0.1036 -0.6196  0.2890
  846MOL0     C14131   6.085   4.383   3.494  0.3562 -0.3436  1.3080
  846MOL0     C14132   5.956   4.357   3.549  0.2073  0.5184 -0.2119
  846MOL0     C14133   5.839   4.382   3.472  0.0118  0.3127  0.6397
  846MOL0     O14134   5.709   4.359   3.514  0.2815 -0.0497  0.0290
  846MOL0     C14135   5.634   4.472   3.547  0.1689  0.0763  0.7891
  846MOL0     C14136   5.493   4.434   3.585  0.5882 -0.3005 -0.7822
  846MOL0     C14137   5.430   4.344   3.477  0.3379  0.6025 -0.0450
  846MOL0     C14138   5.292   4.304   3.528  0.2043  0.4703 -0.8230
  846MOL0     C14139   5.308   4.197   3.630  1.4067 -1.0647  0.1826
  846MOL0     C14140   5.327   4.107   3.707  0.1794  0.2853  0.2179
  846MOL0     C14141   5.855   4.445   3.349  0.4302  0.3783 -0.1640
  846MOL0     C14142   5.979   4.476   3.297  0.3809  0.2532 -0.1082
  846MOL0     H14143   6.413   4.459   3.093  3.0895  0.8605 -2.6866
  846MOL0     H14144   6.625   4.516   3.018  1.4823 -2.3138 -1.1954
  846MOL0     H14145   6.865   4.365   2.970 -3.2627  0.3268  1.5348
  846MOL0     H14146   6.822   4.535   2.957  0.2238  0.2873  0.0542
  846MOL0     H14147   7.056   4.590   3.052 -1.0420  0.8998 -1.8515
  846MOL0     H14148   7.090   4.415   3.031  2.4875  1.7407  0.6442
  846MOL0     H14149   7.050   4.627   2.810  0.2429  0.5156  0.4096
  846MOL0     H14150   7.199   4.548   2.859 -0.8146 -3.5150 -0.1228
  846MOL0     H14151   7.045   4.331   2.795 -0.5499 -1.2073 -2.9022
  846MOL0     H14152   6.942   4.452   2.721  0.0813 -1.3113 -0.3421
  846MOL0     H14153   7.175   4.537   2.621  3.4074  0.1303  1.7184
  846MOL0     H14154   7.231   4.395   2.694  0.1738  4.1726  3.3659
  846MOL0     H14155   7.068   4.255   2.538  0.8099 -0.0569  1.2993
  846MOL0     H14156   7.026   4.415   2.466  0.0004  1.9559  0.8625
  846MOL0     H14157   7.270   4.442   2.414  0.5301 -0.4892  0.5926
  846MOL0     H14158   7.300   4.275   2.447  2.6701  1.2562 -2.6127
  846MOL0     H14159   7.102   4.363   2.241 -1.3173 -0.7039  1.0518
  846MOL0     H14160   7.102   4.198   2.313 -0.1431 -1.0790 -0.6688
  846MOL0     H14161   7.317   4.474   2.139  3.9175  1.3964 -0.7531
  846MOL0     H14162   7.620   4.377   2.000 -0.1708  1.1576 -0.3050
  846MOL0     H14163   7.522   4.283   1.882 -0.0865 -0.4366 -0.3743
  846MOL0     H14164   7.547   4.527   1.837  1.3400  1.3300  2.9497
  846MOL0     H14165   7.447   4.562   1.968 -2.1071  1.0694 -1.1010
  846MOL0     H14166   7.344   4.573   1.744  1.0500  0.2410  0.5330
  846MOL0     H14167   7.245   4.474   1.841 -0.8320  3.3178 -0.1754
  846MOL0     H14168   7.465   4.363   1.660  1.2685 -0.5466  1.3724
  846MOL0     H14169   7.293   4.390   1.597  0.0261  0.1328 -0.5754
  846MOL0     H14170   7.099   4.379   1.632  0.8632 -0.3663  0.1208
  846MOL0     H14171   6.786   4.329   1.586 -0.4983 -0.0605  2.3118
  846MOL0     H14172   6.765   4.380   1.751 -2.1400  1.6334 -1.1692
  846MOL0     H14173   6.896   4.453   1.654 -0.5285  0.7931  0.4963
  846MOL0     H14174   6.496   4.047   1.928 -0.9471  0.3711  0.6996
  846MOL0     H14175   6.325   3.890   1.913  2.0802 -0.4441  0.8335
  846MOL0     H14176   6.173   3.750   1.869  0.8366  1.0778  0.3986
  846MOL0     H14177   6.115   3.858   1.744  3.1773  0.0488 -2.2641
  846MOL0     H14178   5.965   3.651   1.818  0.0166 -3.6002  0.5936
  846MOL0     H14179   5.980   3.671   1.646  2.3782  1.6246 -2.0254
  846MOL0     H14180   6.182   3.504   1.806  0.0096  2.7892 -0.1689
  846MOL0     H14181   6.162   3.489   1.630 -0.9361 -2.8720 -0.9002
  846MOL0     H14182   5.909   3.431   1.666  1.3792 -1.8469 -3.3134
  846MOL0     H14183   6.021   3.297   1.686 -1.4826 -0.0968 -2.0714
  846MOL0     H14184   5.900   3.463   1.909 -1.7083 -0.1575 -0.4092
  846MOL0     H14185   6.022   3.325   1.931  1.9394  0.6393 -1.9082
  846MOL0     H14186   5.732   3.303   1.843  0.9828  0.9534 -0.3209
  846MOL0     H14187   5.850   3.187   1.780 -0.7014 -0.7076 -0.3039
  846MOL0     H14188   5.797   3.243   2.067  0.1185  2.3822 -2.2909
  846MOL0     H14189   5.898   3.110   2.015  1.0547  0.6002 -1.6905
  846MOL0     H14190   5.603   3.144   1.995 -1.0501  0.6137 -3.2562
  846MOL0     H14191   5.704   3.001   2.062 -0.1749 -1.1440 -0.2435
  846MOL0     H14192   6.431   3.815   1.502 -1.5596 -0.0918  0.1836
  846MOL0     H14193   6.618   3.981   1.528 -0.5435 -1.4479 -1.2939
  846MOL0     H14194   7.008   3.977   1.894  0.0745  0.5309  1.7255
  846MOL0     H14195   7.225   4.027   1.854  0.2492 -0.4302  2.0367
  846MOL0     H14196   6.798   4.367   3.373  0.9985 -2.0887 -0.8836
  846MOL0     H14197   6.571   4.328   3.469 -0.9469  1.1273  0.3742
  846MOL0     H14198   6.162   4.355   3.565  1.9331 -0.7317 -0.4830
  846MOL0     H14199   5.925   4.329   3.649  0.2977  2.3500  0.3675
  846MOL0     H14200   5.688   4.525   3.626  1.0163 -0.9924  0.9418
  846MOL0     H14201   5.625   4.547   3.468 -0.8252  0.3094  1.1070
  846MOL0     H14202   5.424   4.518   3.594  0.0968 -0.7828  0.0984
  846MOL0     H14203   5.491   4.379   3.679  0.5161 -2.7834 -2.1612
  846MOL0     H14204   5.499   4.259   3.473  1.3876  1.3478  1.5573
  846MOL0     H14205   5.415   4.403   3.386  1.4948  1.7812  0.4982
  846MOL0     H14206   5.243   4.250   3.446 -2.7612 -0.6429  1.4996
  846MOL0     H14207   5.222   4.385   3.552 -0.6099 -0.7749  1.2951
  846MOL0     H14208   5.355   4.026   3.772 -0.8582 -0.4681 -0.2450
  846MOL0     H14209   5.761   4.467   3.300  1.2156 -0.5604 -2.1815
  846MOL0     H14210   5.977   4.525   3.201 -0.2959  0.1813 -0.1382
  847MOL0     O14211   7.675   1.446   1.738  1.0918  0.1833 -0.0920
  847MOL0     C14212   7.573   1.374   1.719 -0.0088  0.8794 -0.2905
  847MOL0     O14213   7.528   1.267   1.799 -0.9674  0.4318  0.1192
  847MOL0     C14214   7.599   1.249   1.913 -0.1494  1.3712  0.4370
  847MOL0     C14215   7.733   1.235   1.924 -0.6416  0.3607 -0.0725
  847MOL0     C14216   7.804   1.187   2.040 -0.1273 -0.6097  0.1690
  847MOL0     C14217   7.732   1.143   2.145  0.0340  0.2381 -0.2664
  847MOL0     O14218   7.809   1.108   2.248  0.0316  0.3451  0.1207
  847MOL0     C14219   7.745   1.034   2.343 -0.5675  0.1706  0.0062
  847MOL0     C14220   7.853   1.008   2.453  0.3129  0.1648 -0.4523
  847MOL0     C14221   7.974   0.931   2.404 -0.0505  0.1047  0.4768
  847MOL0     C14222   8.081   0.897   2.510  0.3543  0.1035  0.5408
  847MOL0     C14223   8.203   0.824   2.445  0.3790 -0.4313 -0.8072
  847MOL0     C14224   8.285   0.927   2.365  0.1876  0.6182 -0.3492
  847MOL0     C14225   8.419   0.873   2.325  0.4405 -0.0003 -0.0435
  847MOL0     C14226   8.512   0.984   2.265 -0.9815 -0.2283 -0.2916
  847MOL0     N14227   8.643   0.925   2.227  1.3529  0.0841 -1.0498
  847MOL0     C14228   8.656   0.819   2.146  0.0004  0.6436 -0.2948
  847MOL0     C14229   8.786   0.782   2.162  0.2923 -0.5434  0.2734
  847MOL0     C14230   8.847   0.660   2.085 -0.8271  0.1507 -0.3610
  847MOL0     C14231   8.984   0.711   2.026  0.3290  0.6153  0.4309
  847MOL0     C14232   9.027   0.596   1.937 -0.2983  0.4765 -0.6256
  847MOL0     C14233   9.172   0.611   1.904 -0.1947  0.2033  0.3276
  847MOL0     O14234   9.174   0.715   1.806 -0.4696 -0.9515  0.6150
  847MOL0     C14235   9.270   0.809   1.840 -0.2205 -0.0414  0.8163
  847MOL0     C14236   9.389   0.810   1.770 -0.8565  0.0857 -0.3933
  847MOL0     C14237   9.492   0.902   1.795 -0.4327 -0.5531 -0.6386
  847MOL0     C14238   9.610   0.898   1.705 -0.0105 -0.5001 -0.3405
  847MOL0     C14239   9.470   1.002   1.901  0.3800 -0.1011 -0.2793
  847MOL0     C14240   9.567   1.101   1.936  0.1685 -0.2169  0.1906
  847MOL0     O14241   9.531   1.193   2.041  0.1912 -0.5574 -0.3659
  847MOL0     C14242   9.612   1.289   2.096 -1.2744  0.5512  0.2923
  847MOL0     C14243   9.557   1.343   2.214  1.4157  0.1874 -0.0918
  847MOL0     C14244   9.631   1.431   2.290 -0.1401 -0.7466  0.4373
  847MOL0     C14245   9.755   1.478   2.241 -0.0515 -0.5735 -0.6027
  847MOL0     O14246   9.840   1.567   2.299  0.1941  1.0305 -0.1623
  847MOL0     C14247   9.777   1.619   2.415 -0.0584  1.0955 -0.1629
  847MOL0     C14248   9.891   1.713   2.457  0.2156 -0.0412 -0.3028
  847MOL0     C14249   9.862   1.816   2.556  0.7369 -0.2539 -0.0854
  847MOL0     C14250   9.976   1.918   2.565  0.8041 -0.9214  0.1820
  847MOL0     C14251   9.957   2.032   2.469 -0.7482 -0.3392  0.3614
  847MOL0     C14252   9.843   2.131   2.494 -0.7759  0.0294 -0.3991
  847MOL0     C14253   9.839   2.245   2.381  0.5393  0.0385  0.1199
  847MOL0     C14254   9.724   2.338   2.411  0.4034 -0.2379  0.7463
  847MOL0    Cl14255   9.720   2.429   2.574 -0.0349  0.2840 -0.1897
  847MOL0     C14256   9.801   1.426   2.120  0.4403 -0.2569  0.4719
  847MOL0     C14257   9.742   1.319   2.058 -0.3676 -0.2409 -0.2579
  847MOL0     O14258   9.648   1.129   1.847  0.1011 -0.8918  0.1418
  847MOL0     C14259   9.349   0.995   1.971  0.6449  0.6311  0.4542
  847MOL0     C14260   9.247   0.899   1.946 -0.5295  0.2518  0.3658
  847MOL0     N14261   8.842   0.865   2.251  0.4190 -0.9764  0.0612
  847MOL0     N14262   8.761   0.945   2.294  0.3724  0.4283 -0.6137
  847MOL0     C14263   7.591   1.162   2.150 -0.2487  0.0477 -0.6118
  847MOL0     C14264   7.529   1.219   2.032 -0.5984  0.2993 -0.1738
  847MOL0     C14265   7.499   1.395   1.597  0.5003 -0.2105 -0.1753
  847MOL0     C14266   7.557   1.469   1.490  1.1284 -0.3692 -0.1564
  847MOL0     C14267   7.487   1.473   1.367 -1.7046  0.1853 -0.8954
  847MOL0     C14268   7.361   1.416   1.359  0.0937 -0.6096 -0.6329
  847MOL0     O14269   7.301   1.433   1.235  0.2952 -0.6978 -0.1904
  847MOL0     C14270   7.193   1.532   1.238 -1.4578  0.5246  1.0444
  847MOL0     C14271   7.214   1.590   1.102 -0.4772  0.3090  0.2656
  847MOL0     C14272   7.105   1.680   1.042  0.0260  0.5341 -0.2871
  847MOL0     C14273   6.979   1.601   1.014  0.1206  0.9109 -0.1418
  847MOL0     C14274   6.882   1.679   0.936 -0.2279  1.3133  0.0779
  847MOL0     C14275   6.805   1.755   0.882  0.4008  0.3763 -0.4744
  847MOL0     C14276   7.295   1.351   1.461  0.0560  0.4381  0.4426
  847MOL0     C14277   7.367   1.351   1.582 -0.4645 -0.6294  0.5503
  847MOL0     H14278   7.788   1.242   1.830  0.7534  0.3881  0.7113
  847MOL0     H14279   7.913   1.183   2.044 -0.1475 -0.5309  1.0168
  847MOL0     H14280   7.664   1.085   2.395 -0.5081 -0.5128  0.8024
  847MOL0     H14281   7.707   0.941   2.299  1.5875 -0.3102 -1.0204
  847MOL0     H14282   7.887   1.102   2.497 -1.2015 -0.2359  1.7103
  847MOL0     H14283   7.808   0.947   2.532 -4.4522  0.8654 -2.2889
  847MOL0     H14284   7.950   0.843   2.343  1.4761 -1.8674  2.5826
  847MOL0     H14285   8.026   1.002   2.339 -1.9349  0.2646 -0.9623
  847MOL0     H14286   8.118   0.987   2.561  0.6063 -0.1825  0.8666
  847MOL0     H14287   8.029   0.834   2.583 -0.5313 -1.9841 -1.7811
  847MOL0     H14288   8.262   0.779   2.525  0.0727  0.4625 -0.0582
  847MOL0     H14289   8.158   0.744   2.386 -1.5984 -0.9592  1.2648
  847MOL0     H14290   8.230   0.961   2.276  3.1103  3.3017 -1.3128
  847MOL0     H14291   8.304   1.016   2.426 -0.0765 -0.0623  0.7638
  847MOL0     H14292   8.464   0.824   2.411 -0.5672  1.8099  1.6062
  847MOL0     H14293   8.403   0.784   2.263  0.7042 -1.2811  1.6489
  847MOL0     H14294   8.521   1.068   2.334 -3.4362 -0.9587  1.0341
  847MOL0     H14295   8.470   1.026   2.173 -0.7878  0.9723  0.1411
  847MOL0     H14296   8.576   0.776   2.085 -0.3058 -0.3441  0.7526
  847MOL0     H14297   8.868   0.578   2.154  1.1613 -1.0369 -2.2535
  847MOL0     H14298   8.788   0.610   2.009 -1.6336 -0.5541  0.7063
  847MOL0     H14299   9.053   0.726   2.110  1.2005  1.7873 -0.4669
  847MOL0     H14300   8.990   0.801   1.965  2.3304 -1.2997 -2.4157
  847MOL0     H14301   8.977   0.593   1.840  4.4026 -2.0957 -3.3082
  847MOL0     H14302   9.008   0.501   1.989  0.8487  0.0979 -0.8747
  847MOL0     H14303   9.207   0.524   1.849 -1.3872  0.1638 -0.4213
  847MOL0     H14304   9.231   0.622   1.995 -0.6371  1.9713  0.4527
  847MOL0     H14305   9.412   0.724   1.709  0.1548 -1.7033  2.2958
  847MOL0     H14306   9.704   0.887   1.760  0.3168 -3.5587 -1.3180
  847MOL0     H14307   9.606   0.816   1.633 -0.6034 -1.5213  0.8186
  847MOL0     H14308   9.621   0.990   1.647 -1.0032 -0.6152 -0.7388
  847MOL0     H14309   9.460   1.307   2.246  0.6856  1.3439 -0.9351
  847MOL0     H14310   9.584   1.458   2.384 -2.6018 -2.3280 -0.2521
  847MOL0     H14311   9.677   1.659   2.396 -0.8295  0.7684  2.7620
  847MOL0     H14312   9.762   1.547   2.495  2.8379  2.0395  1.3843
  847MOL0     H14313   9.983   1.661   2.483  0.4971  1.4984  2.0951
  847MOL0     H14314   9.916   1.769   2.366  0.7186 -0.0489 -0.1716
  847MOL0     H14315   9.859   1.759   2.649  1.0482 -0.2921 -0.0973
  847MOL0     H14316   9.767   1.864   2.534  0.1584 -1.0208  0.6782
  847MOL0     H14317   9.976   1.955   2.668  0.6241 -1.5687  0.4203
  847MOL0     H14318  10.071   1.873   2.534 -0.9216 -4.3395 -0.6453
  847MOL0     H14319   9.950   1.999   2.365  1.2318  0.1776  0.0187
  847MOL0     H14320  10.052   2.086   2.475 -0.9742  0.1063 -0.0416
  847MOL0     H14321   9.753   2.069   2.480  0.4091 -2.2488  1.4280
  847MOL0     H14322   9.848   2.175   2.593  1.6155  2.9352 -1.6569
  847MOL0     H14323   9.843   2.203   2.280  2.2127 -0.3044  0.2940
  847MOL0     H14324   9.932   2.303   2.392  0.2650  0.6936 -0.9307
  847MOL0     H14325   9.624   2.296   2.391  0.6547 -0.1136 -0.9639
  847MOL0     H14326   9.731   2.412   2.331  1.2228 -0.6282  0.4450
  847MOL0     H14327   9.903   1.443   2.088  0.9339 -1.8828  1.0653
  847MOL0     H14328   9.792   1.274   1.973 -0.6578  1.4114 -1.3299
  847MOL0     H14329   9.328   1.069   2.048  2.1613  0.9177  0.6082
  847MOL0     H14330   9.151   0.903   1.997  0.0998  0.6343  1.5648
  847MOL0     H14331   7.528   1.130   2.232 -3.7732  2.0122 -2.3255
  847MOL0     H14332   7.422   1.203   2.029 -0.3330 -2.5727  1.9080
  847MOL0     H14333   7.647   1.526   1.509 -1.2597  3.0715  1.9070
  847MOL0     H14334   7.544   1.521   1.288  3.4136  1.1938  2.8973
  847MOL0     H14335   7.100   1.479   1.262 -0.4713 -2.7722 -1.6141
  847MOL0     H14336   7.205   1.605   1.318 -0.7409 -3.0898  4.5007
  847MOL0     H14337   7.243   1.518   1.026  0.5703  1.6066 -0.6117
  847MOL0     H14338   7.301   1.656   1.115 -2.0831  2.2321  2.2690
  847MOL0     H14339   7.139   1.733   0.953 -2.2003  2.6914  0.0376
  847MOL0     H14340   7.067   1.755   1.111 -0.7052  1.7432 -1.9281
  847MOL0     H14341   6.943   1.562   1.110 -1.1684  3.9105  0.7190
  847MOL0     H14342   7.012   1.514   0.957  2.1431 -0.9585  3.4757
  847MOL0     H14343   6.750   1.824   0.820  0.1284  1.0817  0.5388
  847MOL0     H14344   7.195   1.311   1.445  0.0317  0.6810  0.0041
  847MOL0     H14345   7.312   1.316   1.668 -1.8492  0.5451  0.1806
  848MOL0     O14346   1.414   5.431  10.746 -0.4475 -0.3839  0.3651
  848MOL0     C14347   1.475   5.471  10.641  0.6647  0.7923  0.8594
  848MOL0     O14348   1.422   5.494  10.516  0.2935 -0.2194 -0.0536
  848MOL0     C14349   1.284   5.488  10.511 -0.2607  0.5601 -1.0246
  848MOL0     C14350   1.221   5.364  10.541 -0.5018 -0.7484  0.3219
  848MOL0     C14351   1.085   5.358  10.529 -0.4861  0.6185  0.2973
  848MOL0     C14352   1.008   5.467  10.497 -0.5627 -0.2606 -0.0522
  848MOL0     O14353   0.871   5.464  10.512 -0.4117 -0.5459  0.7613
  848MOL0     C14354   0.797   5.504  10.396  0.4255  0.3475 -0.3638
  848MOL0     C14355   0.651   5.466  10.441 -0.8200 -0.2724  0.6747
  848MOL0     C14356   0.554   5.481  10.319 -0.0591 -0.1419 -0.4896
  848MOL0     C14357   0.438   5.390  10.337 -0.0404  0.5704  0.3270
  848MOL0     C14358   0.345   5.408  10.220  0.8508 -0.3739 -0.4301
  848MOL0     C14359   0.226   5.323  10.228 -0.5506 -0.4053  0.0808
  848MOL0     C14360   0.141   5.353  10.103  0.0777  0.5626 -0.1040
  848MOL0     C14361   0.012   5.268  10.114 -0.7715 -0.1733  0.5688
  848MOL0     N14362  -0.074   5.286   9.999 -0.0358 -0.8554  0.5621
  848MOL0     C14363  -0.054   5.228   9.871  0.2896 -0.6108  0.3959
  848MOL0     C14364  -0.157   5.279   9.803 -0.0441  0.1403  0.0071
  848MOL0     C14365  -0.189   5.248   9.659 -0.9663  0.3158 -0.0444
  848MOL0     C14366  -0.095   5.320   9.563  0.3043  0.1261 -0.2143
  848MOL0     C14367  -0.090   5.472   9.567 -0.6282 -0.2285 -0.2445
  848MOL0     C14368  -0.220   5.539   9.531 -0.0679 -0.0787 -0.1970
  848MOL0     O14369  -0.186   5.669   9.485 -0.2378 -0.1261  0.0539
  848MOL0     C14370  -0.293   5.751   9.432 -0.2614  0.0454  0.2020
  848MOL0     C14371  -0.416   5.694   9.395  0.0197 -0.2467  0.1068
  848MOL0     C14372  -0.527   5.771   9.367  0.6231  0.8754 -0.2670
  848MOL0     C14373  -0.659   5.694   9.341 -0.0217 -0.3741  0.6177
  848MOL0     C14374  -0.516   5.908   9.352 -0.1104 -0.3016  0.7007
  848MOL0     C14375  -0.636   6.000   9.339 -0.2077 -0.1867  0.2929
  848MOL0     O14376  -0.604   6.133   9.307 -0.0721  0.8631  0.7713
  848MOL0     C14377  -0.702   6.213   9.268  0.2398 -0.9686  0.1849
  848MOL0     C14378  -0.759   6.308   9.347  0.1227  0.5843  0.1297
  848MOL0     C14379  -0.877   6.379   9.299  0.8988  0.2682  0.0113
  848MOL0     C14380  -0.916   6.361   9.162  0.4207 -0.2574 -0.1309
  848MOL0     O14381  -1.031   6.430   9.123  0.0335  0.0303  0.0101
  848MOL0     C14382  -1.065   6.450   8.987  0.2753  0.4755  0.3240
  848MOL0     C14383  -0.983   6.568   8.936  0.7512  0.0252  1.2252
  848MOL0     C14384  -0.971   6.695   9.023 -0.3143  0.9170 -0.1317
  848MOL0     C14385  -1.109   6.767   9.031 -0.6842  0.3750  0.2010
  848MOL0     C14386  -1.154   6.844   8.907  0.6718 -0.5755  0.1941
  848MOL0     C14387  -1.299   6.901   8.928 -0.3986 -0.3892 -0.4967
  848MOL0     C14388  -1.362   6.952   8.801 -0.4995  0.6970  0.0912
  848MOL0     C14389  -1.516   6.983   8.796 -0.0078 -0.6434 -0.1416
  848MOL0    Cl14390  -1.561   7.097   8.920 -0.9401  0.2418 -0.0138
  848MOL0     C14391  -0.840   6.278   9.082 -0.5985 -0.6934  0.1619
  848MOL0     C14392  -0.731   6.210   9.136  0.2199 -0.4915 -0.1888
  848MOL0     O14393  -0.749   5.965   9.373  0.4821 -0.5000  0.1252
  848MOL0     C14394  -0.386   5.961   9.371 -0.7063 -1.2730  0.0565
  848MOL0     C14395  -0.275   5.885   9.402 -0.0965  0.0832  0.1605
  848MOL0     N14396  -0.224   5.372   9.877  0.1866  0.0864  0.0425
  848MOL0     N14397  -0.184   5.365   9.999 -0.7341  0.3648 -0.2235
  848MOL0     C14398   1.064   5.590  10.465  0.2388 -0.0362  0.5025
  848MOL0     C14399   1.204   5.593  10.464 -0.2396  0.1638  0.0865
  848MOL0     C14400   1.628   5.467  10.659 -0.2871 -0.9125  0.1851
  848MOL0     C14401   1.685   5.418  10.769 -0.2334 -0.5846 -0.8529
  848MOL0     C14402   1.819   5.407  10.776  0.1475 -0.5953  0.2311
  848MOL0     C14403   1.901   5.459  10.688 -0.1100 -0.1144  0.2457
  848MOL0     O14404   2.038   5.456  10.706 -0.3574  0.0689  0.2946
  848MOL0     C14405   2.097   5.411  10.832  0.3916  0.8543 -0.7412
  848MOL0     C14406   2.242   5.446  10.840 -0.1317 -0.9013  0.1284
  848MOL0     C14407   2.331   5.382  10.736  0.1000 -0.2091 -0.0415
  848MOL0     C14408   2.471   5.442  10.735 -0.8359 -0.1994  0.5647
  848MOL0     C14409   2.468   5.586  10.699 -0.2753 -0.5901  0.4713
  848MOL0     C14410   2.481   5.700  10.671 -0.4785 -0.5431 -0.3538
  848MOL0     C14411   1.846   5.520  10.573 -0.4844 -0.4437 -0.6615
  848MOL0     C14412   1.709   5.513  10.555  0.2523  0.0008  0.0325
  848MOL0     H14413   1.268   5.274  10.579 -2.0031 -1.8095 -0.2299
  848MOL0     H14414   1.032   5.267  10.555 -0.4837 -0.1860 -2.2337
  848MOL0     H14415   0.804   5.611  10.373 -4.7220  1.0806  0.3047
  848MOL0     H14416   0.831   5.442  10.312 -1.4867 -2.7270  0.9314
  848MOL0     H14417   0.656   5.360  10.467 -0.2893 -0.4227  0.0030
  848MOL0     H14418   0.619   5.522  10.529 -1.7637  0.1303  0.1001
  848MOL0     H14419   0.523   5.586  10.308  0.5076  0.1836  0.7996
  848MOL0     H14420   0.601   5.451  10.225  0.1880 -1.4940  0.0554
  848MOL0     H14421   0.482   5.290  10.336  1.4213  1.1806 -0.7775
  848MOL0     H14422   0.390   5.394  10.435  0.9015 -0.6349  0.8725
  848MOL0     H14423   0.305   5.509  10.211 -1.4565 -1.0972  1.0278
  848MOL0     H14424   0.399   5.378  10.129 -2.1646  0.3536 -2.6033
  848MOL0     H14425   0.265   5.221  10.236  2.7527  0.8384  1.5693
  848MOL0     H14426   0.165   5.345  10.316 -1.7704  2.4896 -1.3717
  848MOL0     H14427   0.125   5.460  10.084  0.2059  0.3922 -1.2275
  848MOL0     H14428   0.203   5.313  10.023  2.5606  2.3083  0.7943
  848MOL0     H14429  -0.037   5.286  10.210 -0.0302  1.6015  0.6722
  848MOL0     H14430   0.046   5.164  10.111  0.7501  0.2992  0.0367
  848MOL0     H14431   0.018   5.159   9.829 -0.0138 -1.1997  0.8193
  848MOL0     H14432  -0.183   5.139   9.656  4.5321  0.1884  3.1219
  848MOL0     H14433  -0.290   5.288   9.645 -0.5208  1.6943  0.4715
  848MOL0     H14434  -0.122   5.275   9.467 -2.9808 -1.0556  1.1240
  848MOL0     H14435   0.007   5.282   9.575 -0.6083 -2.4218  0.2268
  848MOL0     H14436  -0.023   5.507   9.488 -0.1980  1.6850  0.8990
  848MOL0     H14437  -0.066   5.513   9.665  1.0772 -0.9010 -0.3485
  848MOL0     H14438  -0.293   5.553   9.611  1.0884 -1.4918  1.1715
  848MOL0     H14439  -0.270   5.477   9.455 -2.2331  1.9049 -0.4986
  848MOL0     H14440  -0.433   5.588   9.405 -3.5279  0.3684  2.7240
  848MOL0     H14441  -0.646   5.586   9.353  0.5850 -0.3234  0.4808
  848MOL0     H14442  -0.741   5.729   9.405 -0.9685  0.4730 -0.9921
  848MOL0     H14443  -0.691   5.704   9.237 -2.1203 -1.3198  1.1314
  848MOL0     H14444  -0.727   6.333   9.447 -2.4012  2.3951  0.5614
  848MOL0     H14445  -0.935   6.439   9.368  0.6102  2.2116 -1.8104
  848MOL0     H14446  -1.060   6.358   8.928 -0.2912 -0.7582  2.1043
  848MOL0     H14447  -1.173   6.467   8.989 -0.4577 -3.3439  0.8848
  848MOL0     H14448  -0.880   6.535   8.916  0.9608  1.4220 -0.1947
  848MOL0     H14449  -1.009   6.605   8.836  1.9375  3.7440  2.1375
  848MOL0     H14450  -0.893   6.757   8.979 -1.3165  2.0295 -0.3847
  848MOL0     H14451  -0.931   6.662   9.119  4.4407 -1.2938 -2.5220
  848MOL0     H14452  -1.184   6.689   9.048 -0.6546 -0.2375 -2.1258
  848MOL0     H14453  -1.100   6.833   9.118  1.7632  0.3091  0.0582
  848MOL0     H14454  -1.155   6.777   8.820  2.8489  0.5317 -0.7836
  848MOL0     H14455  -1.091   6.929   8.877 -0.8357 -0.4272 -2.9943
  848MOL0     H14456  -1.350   6.819   8.981 -0.4026  1.2293  2.1680
  848MOL0     H14457  -1.290   6.987   8.995  1.0387 -1.2768  0.5131
  848MOL0     H14458  -1.337   6.887   8.717 -1.8496  0.3124 -0.0415
  848MOL0     H14459  -1.318   7.050   8.783  1.1486 -0.3657 -2.1945
  848MOL0     H14460  -1.572   6.891   8.811 -2.0967  0.5908  0.1051
  848MOL0     H14461  -1.537   7.028   8.698 -0.6758  0.9058  0.6676
  848MOL0     H14462  -0.849   6.274   8.974 -1.2184 -0.5168  0.2042
  848MOL0     H14463  -0.673   6.151   9.066  0.7770  0.2017 -0.3151
  848MOL0     H14464  -0.381   6.069   9.372 -0.7314 -1.2731  0.2622
  848MOL0     H14465  -0.189   5.949   9.415  0.5842 -0.5624 -1.0995
  848MOL0     H14466   0.995   5.670  10.440  0.9859  0.3507 -0.3915
  848MOL0     H14467   1.248   5.690  10.444 -0.5856  0.3077  0.0162
  848MOL0     H14468   1.622   5.381  10.850 -1.2490 -3.4302 -2.7982
  848MOL0     H14469   1.852   5.355  10.866  1.6845 -1.8365 -1.0028
  848MOL0     H14470   2.056   5.466  10.916  0.0124 -3.0968  1.9135
  848MOL0     H14471   2.080   5.304  10.848 -2.1396  0.6773 -3.6417
  848MOL0     H14472   2.283   5.409  10.934 -2.8794 -0.2515  1.7080
  848MOL0     H14473   2.248   5.555  10.845 -0.3378 -0.8753 -0.1251
  848MOL0     H14474   2.286   5.404  10.639  0.9821  1.2190 -0.1552
  848MOL0     H14475   2.325   5.275  10.759  1.5906  0.5093  4.7452
  848MOL0     H14476   2.543   5.394  10.668  1.2018  0.8045  1.9407
  848MOL0     H14477   2.506   5.424  10.838 -0.0493 -2.7746 -0.0724
  848MOL0     H14478   2.481   5.806  10.660  2.7416 -0.2504  1.2140
  848MOL0     H14479   1.909   5.565  10.497 -0.0308 -0.3164 -0.2159
  848MOL0     H14480   1.661   5.556  10.467  0.4953  2.6852  1.1213
  849MOL0     O14481   5.687   5.621   1.533 -1.0582 -0.0531  0.3570
  849MOL0     C14482   5.791   5.600   1.470 -0.2747  0.8291 -0.4156
  849MOL0     O14483   5.836   5.675   1.361  0.3435 -0.0749  0.0843
  849MOL0     C14484   5.747   5.768   1.309 -0.5896  0.5481 -0.3777
  849MOL0     C14485   5.714   5.887   1.374  0.2175  0.3366  0.4830
  849MOL0     C14486   5.607   5.966   1.329  0.8123 -0.7476 -0.0043
  849MOL0     C14487   5.530   5.935   1.219  0.0685  0.0499  0.3762
  849MOL0     O14488   5.420   6.009   1.181 -0.3191 -0.0282  0.3401
  849MOL0     C14489   5.363   6.110   1.271  0.7444 -0.7027  0.1790
  849MOL0     C14490   5.274   6.064   1.380  0.6406  0.1687  0.3466
  849MOL0     C14491   5.159   5.974   1.312 -0.2791 -0.3212 -0.2529
  849MOL0     C14492   5.025   5.967   1.387 -1.4470 -0.2371 -0.1827
  849MOL0     C14493   4.935   5.885   1.306  0.5222 -0.2148  0.0932
  849MOL0     C14494   4.794   5.873   1.381  0.2671  0.7666 -0.2791
  849MOL0     C14495   4.698   5.751   1.332  0.2363 -0.2713 -0.4411
  849MOL0     C14496   4.619   5.777   1.204 -0.7648 -0.2964 -0.0207
  849MOL0     N14497   4.477   5.796   1.216  0.8776  0.4771  0.6985
  849MOL0     C14498   4.388   5.712   1.284  0.7264 -0.5124  0.1751
  849MOL0     C14499   4.280   5.792   1.283 -0.1896 -0.2005 -0.1801
  849MOL0     C14500   4.140   5.751   1.331  0.6442 -0.2637 -0.5573
  849MOL0     C14501   4.068   5.630   1.262 -0.5027 -0.0262  0.2464
  849MOL0     C14502   4.039   5.648   1.114 -0.4041 -0.0007  0.4595
  849MOL0     C14503   3.923   5.554   1.076 -0.1495  0.2537 -0.4102
  849MOL0     O14504   3.892   5.569   0.939 -0.6437 -0.9642  0.6296
  849MOL0     C14505   3.855   5.448   0.876  0.5556 -0.1333  0.3226
  849MOL0     C14506   3.733   5.388   0.912  0.8407 -0.7509 -1.1998
  849MOL0     C14507   3.668   5.293   0.833 -0.0621 -0.2380  0.5791
  849MOL0     C14508   3.546   5.231   0.892  0.1317 -0.4717  1.2548
  849MOL0     C14509   3.731   5.251   0.711 -0.1004  0.0074 -0.5266
  849MOL0     C14510   3.677   5.142   0.621 -1.1928  0.1743  0.6448
  849MOL0     O14511   3.749   5.110   0.517  0.0337 -0.0377  0.4268
  849MOL0     C14512   3.702   5.013   0.431 -0.2829  0.2635  0.7904
  849MOL0     C14513   3.788   4.914   0.377 -1.0233 -0.4585  0.4382
  849MOL0     C14514   3.755   4.833   0.270 -0.1580  0.4784  0.2794
  849MOL0     C14515   3.642   4.864   0.196  0.1430  0.9007 -0.4122
  849MOL0     O14516   3.630   4.803   0.076 -0.0321  1.3561 -0.7539
  849MOL0     C14517   3.500   4.774   0.021 -0.0404 -0.5763  0.0452
  849MOL0     C14518   3.499   4.841  -0.123 -0.5562  0.0757  0.3445
  849MOL0     C14519   3.573   4.977  -0.135  1.0486  0.9534  0.5826
  849MOL0     C14520   3.589   5.021  -0.279  0.4797 -0.0990 -0.1974
  849MOL0     C14521   3.457   5.036  -0.351  0.6136  0.7540 -0.1392
  849MOL0     C14522   3.482   5.102  -0.484  0.3626  0.4180 -0.4555
  849MOL0     C14523   3.352   5.156  -0.543 -0.1298  0.6583 -0.0577
  849MOL0     C14524   3.385   5.186  -0.700  0.5459  0.0605 -0.2467
  849MOL0    Cl14525   3.463   5.340  -0.714 -0.0254  0.4076 -0.3335
  849MOL0     C14526   3.546   4.946   0.254  0.3261 -0.4334  0.6424
  849MOL0     C14527   3.571   5.016   0.372  0.0254 -0.4428  0.1478
  849MOL0     O14528   3.583   5.080   0.660 -0.3006  0.1151 -0.4431
  849MOL0     C14529   3.855   5.312   0.676 -0.5818 -0.7145  0.2840
  849MOL0     C14530   3.907   5.414   0.750 -0.6152 -0.5940  0.1950
  849MOL0     N14531   4.303   5.912   1.226 -0.0032 -0.6353 -0.3070
  849MOL0     N14532   4.425   5.921   1.188 -0.0379 -0.2328  0.1092
  849MOL0     C14533   5.570   5.823   1.146  0.1574 -0.8497 -0.0315
  849MOL0     C14534   5.671   5.733   1.193  0.7168 -0.2900  0.0508
  849MOL0     C14535   5.869   5.490   1.523  0.2026  1.0349  0.8625
  849MOL0     C14536   5.990   5.472   1.452 -0.8875 -0.3682 -0.6064
  849MOL0     C14537   6.078   5.362   1.488 -0.6650 -0.4335  0.7243
  849MOL0     C14538   6.033   5.266   1.578 -0.8431  0.3211 -1.7619
  849MOL0     O14539   6.111   5.152   1.610  0.3074  0.2715 -1.0270
  849MOL0     C14540   6.253   5.153   1.609 -1.0410  0.3529 -0.9750
  849MOL0     C14541   6.305   5.254   1.715  0.0550 -0.5917  0.1789
  849MOL0     C14542   6.258   5.216   1.852  0.3624 -0.3418  0.0761
  849MOL0     C14543   6.323   5.277   1.972 -0.9830 -0.2356 -1.0318
  849MOL0     C14544   6.341   5.419   1.972  0.6101  1.3248  0.0746
  849MOL0     C14545   6.322   5.539   1.984 -0.3974 -0.2870  0.1355
  849MOL0     C14546   5.909   5.287   1.645 -0.2543  0.8966 -0.2463
  849MOL0     C14547   5.830   5.397   1.622  0.1616 -0.2916  0.3275
  849MOL0     H14548   5.759   5.911   1.469 -1.2169 -0.7955  1.4877
  849MOL0     H14549   5.582   6.057   1.383  2.1216 -0.4293  0.0955
  849MOL0     H14550   5.439   6.184   1.298  2.0877 -1.6525 -0.8579
  849MOL0     H14551   5.293   6.173   1.216 -1.8129 -1.0228  2.8377
  849MOL0     H14552   5.316   6.000   1.459 -0.5901 -0.8350  0.2248
  849MOL0     H14553   5.237   6.148   1.439  0.3336 -0.8654  1.6853
  849MOL0     H14554   5.125   6.023   1.220 -0.3638  0.5745  0.2442
  849MOL0     H14555   5.195   5.874   1.287  1.3726 -0.2403  1.5904
  849MOL0     H14556   5.035   5.917   1.484 -2.8254 -0.3571 -0.0693
  849MOL0     H14557   4.978   6.064   1.408  0.4793  0.8847 -0.8624
  849MOL0     H14558   4.924   5.927   1.206 -2.0023  1.7135  1.0493
  849MOL0     H14559   4.988   5.790   1.314  0.9632  0.1599  2.1827
  849MOL0     H14560   4.815   5.869   1.488 -2.1801  1.6249  0.3133
  849MOL0     H14561   4.743   5.966   1.355  1.4427  1.5010 -0.0333
  849MOL0     H14562   4.767   5.668   1.317 -4.7335 -4.6904 -1.7367
  849MOL0     H14563   4.625   5.718   1.406  2.9672  1.7888  3.5760
  849MOL0     H14564   4.646   5.702   1.130  0.8990  2.1116 -2.0398
  849MOL0     H14565   4.660   5.871   1.165 -3.8411  1.2498  0.1845
  849MOL0     H14566   4.395   5.607   1.312  1.0164 -0.9791 -1.4779
  849MOL0     H14567   4.128   5.743   1.439 -1.6639  1.0419 -0.6461
  849MOL0     H14568   4.072   5.834   1.309 -0.7315 -0.5462  2.2467
  849MOL0     H14569   3.975   5.602   1.313 -0.4552 -1.8198 -0.5673
  849MOL0     H14570   4.135   5.544   1.272  0.4112  0.3563 -1.9212
  849MOL0     H14571   4.131   5.616   1.064 -0.6788 -2.0627  1.1742
  849MOL0     H14572   4.013   5.752   1.094  0.9787  0.9949  3.2883
  849MOL0     H14573   3.829   5.555   1.133  0.4909 -1.8489  0.8080
  849MOL0     H14574   3.962   5.454   1.095 -3.9925 -0.9082  2.8854
  849MOL0     H14575   3.699   5.418   1.011  1.3250 -0.9054 -0.9862
  849MOL0     H14576   3.500   5.285   0.975 -0.8952 -0.6504  0.8114
  849MOL0     H14577   3.468   5.217   0.817  0.8759 -1.8337  0.6994
  849MOL0     H14578   3.561   5.130   0.931  2.4253 -1.1894 -1.1666
  849MOL0     H14579   3.883   4.902   0.429 -0.7575  3.6648  1.2145
  849MOL0     H14580   3.832   4.772   0.224 -1.1510  1.9252 -3.7582
  849MOL0     H14581   3.484   4.666   0.010  2.6582 -1.4427  3.0472
  849MOL0     H14582   3.419   4.820   0.080 -1.5453 -1.1148 -1.5111
  849MOL0     H14583   3.542   4.768  -0.193 -0.7438  1.0729 -0.8366
  849MOL0     H14584   3.394   4.858  -0.145 -0.3032 -0.6204 -1.5913
  849MOL0     H14585   3.678   4.960  -0.107  1.4497 -0.5601 -1.5711
  849MOL0     H14586   3.520   5.046  -0.069 -1.0837 -1.1693  1.1941
  849MOL0     H14587   3.639   5.118  -0.272 -0.6798  0.6921 -2.1769
  849MOL0     H14588   3.650   4.946  -0.330 -1.8146 -1.9899 -0.3287
  849MOL0     H14589   3.389   5.087  -0.282 -0.3009 -1.1048  0.4181
  849MOL0     H14590   3.406   4.940  -0.368 -0.5535  1.5419 -1.2501
  849MOL0     H14591   3.542   5.189  -0.454 -0.8877  1.3712 -0.6719
  849MOL0     H14592   3.538   5.034  -0.549 -1.2783  0.1737 -1.6589
  849MOL0     H14593   3.305   5.233  -0.481 -0.7666 -2.1523  3.1913
  849MOL0     H14594   3.284   5.071  -0.541  2.3368 -1.4408 -0.5142
  849MOL0     H14595   3.288   5.173  -0.749  0.8476  0.2888 -0.9116
  849MOL0     H14596   3.436   5.110  -0.760 -3.7629 -2.4257 -1.1935
  849MOL0     H14597   3.464   4.980   0.191  1.2839 -0.7991 -0.8518
  849MOL0     H14598   3.496   5.089   0.402 -1.1190 -1.2577 -0.6552
  849MOL0     H14599   3.900   5.282   0.582 -1.5035  0.0964 -0.4388
  849MOL0     H14600   3.996   5.464   0.712 -0.8209  0.3114  0.8751
  849MOL0     H14601   5.512   5.808   1.056  1.2171 -0.5858 -0.7789
  849MOL0     H14602   5.682   5.635   1.147  4.0041 -1.6976  3.3231
  849MOL0     H14603   6.021   5.546   1.379 -0.6578 -0.3070 -0.4457
  849MOL0     H14604   6.174   5.361   1.437 -1.3979  2.8096 -0.9921
  849MOL0     H14605   6.292   5.052   1.626 -0.4215  0.6929 -0.3020
  849MOL0     H14606   6.283   5.187   1.509 -0.2937 -1.4910 -1.4249
  849MOL0     H14607   6.269   5.356   1.702 -0.7068 -0.8466  0.2392
  849MOL0     H14608   6.414   5.250   1.710 -0.0235 -2.0933 -1.6002
  849MOL0     H14609   6.266   5.107   1.860 -1.0174 -0.4617  0.0218
  849MOL0     H14610   6.151   5.237   1.856 -0.5636 -4.2344  4.1791
  849MOL0     H14611   6.413   5.216   1.985  1.6631  3.5500  0.4413
  849MOL0     H14612   6.275   5.264   2.069 -3.0414  2.0508 -1.6452
  849MOL0     H14613   6.313   5.646   1.988  0.5000 -0.1577 -0.7863
  849MOL0     H14614   5.870   5.225   1.724  2.0977 -0.2466  0.1164
  849MOL0     H14615   5.742   5.396   1.686  0.7400 -3.6957  1.2509
  850MOL0     O14616   8.977   3.120   4.092 -0.4433 -0.1118 -0.2725
  850MOL0     C14617   9.045   3.173   4.184 -0.2482  0.3185 -0.2626
  850MOL0     O14618   8.998   3.250   4.292  0.2213 -0.0947  0.5541
  850MOL0     C14619   8.865   3.280   4.292 -0.7704 -0.8183 -0.6781
  850MOL0     C14620   8.819   3.416   4.286 -0.2459 -0.4008 -0.2628
  850MOL0     C14621   8.685   3.455   4.302 -0.0467  1.1376  1.4588
  850MOL0     C14622   8.591   3.355   4.320  0.6878  0.0796 -0.2945
  850MOL0     O14623   8.465   3.384   4.335 -0.0688  0.5594  0.3523
  850MOL0     C14624   8.372   3.288   4.398 -0.1906 -0.0174 -0.2598
  850MOL0     C14625   8.250   3.374   4.417 -0.2099  0.1346  0.9679
  850MOL0     C14626   8.163   3.308   4.524 -0.9014  0.5414  0.6143
  850MOL0     C14627   8.225   3.305   4.665 -1.1275  0.3338 -0.4819
  850MOL0     C14628   8.100   3.287   4.752  0.1796  0.1606  0.0982
  850MOL0     C14629   8.139   3.270   4.900  0.2695  0.6237 -0.2611
  850MOL0     C14630   8.026   3.295   4.994  0.2475  0.1075 -0.3028
  850MOL0     C14631   7.892   3.222   4.965 -0.5403 -0.7708 -0.2688
  850MOL0     N14632   7.907   3.078   4.996 -0.2603 -0.3453  0.0449
  850MOL0     C14633   7.840   3.019   5.099 -0.5194 -0.6099  0.3112
  850MOL0     C14634   7.844   2.883   5.071 -0.3875  0.0389  0.3839
  850MOL0     C14635   7.776   2.778   5.149 -0.3469  0.5909  0.4162
  850MOL0     C14636   7.653   2.821   5.241  0.3556  0.3636  0.1101
  850MOL0     C14637   7.635   2.711   5.342  0.2261 -0.4461  0.3210
  850MOL0     C14638   7.520   2.750   5.433 -0.6081 -0.5522 -0.4218
  850MOL0     O14639   7.402   2.793   5.364 -0.2114  0.4754  0.1258
  850MOL0     C14640   7.295   2.852   5.439 -0.9736  0.1345  0.4438
  850MOL0     C14641   7.182   2.874   5.361  0.0815 -0.1366 -0.6052
  850MOL0     C14642   7.070   2.933   5.423  0.2546 -0.9816  0.3544
  850MOL0     C14643   6.948   2.949   5.328 -0.4443  1.2037 -0.2418
  850MOL0     C14644   7.074   2.971   5.566 -0.0788  0.1271 -0.0311
  850MOL0     C14645   6.965   3.037   5.638 -0.0724  0.3156 -0.1587
  850MOL0     O14646   6.852   2.957   5.667  0.3436 -0.1993 -0.2933
  850MOL0     C14647   6.741   3.009   5.716  0.2512 -1.4704  0.6159
  850MOL0     C14648   6.740   3.035   5.851 -0.0134  0.0118 -0.0175
  850MOL0     C14649   6.633   3.106   5.908  0.1565 -0.0429 -0.4496
  850MOL0     C14650   6.524   3.164   5.822  0.1773  0.1424  0.1428
  850MOL0     O14651   6.412   3.234   5.862 -0.0902  0.1571  0.4940
  850MOL0     C14652   6.377   3.232   5.998 -0.4893  0.0670 -0.2212
  850MOL0     C14653   6.319   3.099   6.035  0.5987  0.2686 -0.7336
  850MOL0     C14654   6.286   3.100   6.184  0.2081 -0.2901  0.1584
  850MOL0     C14655   6.207   2.970   6.211 -0.2045 -0.1208  1.1441
  850MOL0     C14656   6.174   2.957   6.364  0.1899 -0.5018 -0.7184
  850MOL0     C14657   6.122   3.085   6.441  0.2236  0.1802  0.2825
  850MOL0     C14658   5.984   3.132   6.390  0.9308  0.2635  0.0745
  850MOL0     C14659   5.856   3.059   6.443 -1.0984 -0.4669 -0.4503
  850MOL0    Cl14660   5.836   3.067   6.623  0.4728  0.4901  0.0952
  850MOL0     C14661   6.531   3.129   5.682  0.0326 -0.0718 -0.0501
  850MOL0     C14662   6.636   3.054   5.631 -0.1043  0.2409 -0.3198
  850MOL0     O14663   6.981   3.147   5.679 -0.1453  0.0452 -0.7477
  850MOL0     C14664   7.192   2.942   5.637  1.1886 -0.3846 -1.1486
  850MOL0     C14665   7.300   2.875   5.582 -0.2620 -1.6710  0.3350
  850MOL0     N14666   7.929   2.871   4.964 -0.1854  0.2831 -0.0445
  850MOL0     N14667   7.967   2.985   4.912  0.3008  0.0685  0.7281
  850MOL0     C14668   8.627   3.219   4.318 -0.4148  0.6351 -0.3878
  850MOL0     C14669   8.764   3.184   4.313  0.3682 -0.2934  1.2180
  850MOL0     C14670   9.194   3.147   4.169 -0.2575  0.6547  0.5692
  850MOL0     C14671   9.241   3.047   4.082  0.0070  0.1581 -0.4423
  850MOL0     C14672   9.379   3.028   4.064 -0.3569  0.6270 -0.7394
  850MOL0     C14673   9.466   3.108   4.128  0.2230  0.4079  0.5154
  850MOL0     O14674   9.600   3.072   4.112  0.1742  0.2361 -0.4542
  850MOL0     C14675   9.687   3.137   4.200  0.0974  0.0625 -0.7021
  850MOL0     C14676   9.830   3.107   4.172 -0.4388 -0.8041  1.1842
  850MOL0     C14677   9.857   3.080   4.021 -0.2305 -0.0679 -0.4303
  850MOL0     C14678  10.008   3.089   4.004  0.1707 -0.3755  0.0983
  850MOL0     C14679  10.069   2.960   4.051 -0.5060 -0.4752 -0.4742
  850MOL0     C14680  10.111   2.847   4.070 -0.3702  0.0254  0.1978
  850MOL0     C14681   9.419   3.207   4.206 -0.6681 -0.0226  0.6642
  850MOL0     C14682   9.285   3.231   4.233 -0.5878  0.3024  0.2474
  850MOL0     H14683   8.900   3.488   4.275 -1.1430  0.7859  0.6554
  850MOL0     H14684   8.661   3.561   4.305  0.8779  1.5401 -1.6065
  850MOL0     H14685   8.350   3.210   4.324  0.3643  2.2858 -3.0332
  850MOL0     H14686   8.417   3.255   4.492  0.6252 -0.5518 -0.8180
  850MOL0     H14687   8.277   3.472   4.457 -0.5070 -0.1140  1.8144
  850MOL0     H14688   8.193   3.395   4.326  0.6965  1.4664  0.6926
  850MOL0     H14689   8.068   3.362   4.530 -1.4714 -0.1683 -1.3648
  850MOL0     H14690   8.130   3.210   4.488  1.4699  0.4626 -1.6517
  850MOL0     H14691   8.293   3.220   4.674 -0.9078  0.6337  0.8336
  850MOL0     H14692   8.278   3.392   4.706  0.0669 -1.2688  1.5417
  850MOL0     H14693   8.036   3.375   4.747  0.0124  0.0419  0.1584
  850MOL0     H14694   8.052   3.195   4.717 -0.7425  1.7363 -3.1640
  850MOL0     H14695   8.176   3.169   4.915 -0.5988  0.3452  0.0730
  850MOL0     H14696   8.226   3.333   4.921  1.4219 -1.7564  2.7835
  850MOL0     H14697   8.060   3.271   5.095 -0.6293 -1.4604 -0.3458
  850MOL0     H14698   8.013   3.404   4.993  2.2304  0.3856 -2.2731
  850MOL0     H14699   7.878   3.232   4.857 -2.8324 -1.6245 -0.0930
  850MOL0     H14700   7.812   3.269   5.022 -0.5204 -1.2117  0.1321
  850MOL0     H14701   7.790   3.073   5.179 -0.4510  0.0167 -0.0651
  850MOL0     H14702   7.739   2.689   5.096 -1.9842 -0.1058  2.5909
  850MOL0     H14703   7.856   2.734   5.209  0.8409  0.0604 -1.4607
  850MOL0     H14704   7.556   2.831   5.192  0.3577  0.3698  0.1069
  850MOL0     H14705   7.676   2.915   5.293  0.7372  1.0679 -1.2677
  850MOL0     H14706   7.725   2.684   5.397 -0.6668 -1.9533  1.1158
  850MOL0     H14707   7.597   2.625   5.285 -3.1272  0.1361  1.4541
  850MOL0     H14708   7.560   2.823   5.503  0.6662 -0.4186 -1.2606
  850MOL0     H14709   7.489   2.669   5.500 -0.4828  0.3619  0.7749
  850MOL0     H14710   7.188   2.853   5.254 -3.0537 -0.5913 -0.7994
  850MOL0     H14711   6.892   2.857   5.347  4.0959 -1.4011  2.1168
  850MOL0     H14712   6.892   3.041   5.344 -0.1804  1.2514  0.4031
  850MOL0     H14713   6.978   2.947   5.223 -3.1795 -1.0605 -1.1197
  850MOL0     H14714   6.832   3.024   5.907  0.6904  0.9841 -0.9337
  850MOL0     H14715   6.616   3.116   6.015 -0.9266 -1.6516 -0.4453
  850MOL0     H14716   6.460   3.245   6.068 -1.3890  3.2794  0.4203
  850MOL0     H14717   6.306   3.314   6.011 -0.5642 -0.0067 -0.1679
  850MOL0     H14718   6.223   3.083   5.984  0.7080 -2.2595 -0.2670
  850MOL0     H14719   6.382   3.011   6.023 -0.5275 -0.8234  0.9455
  850MOL0     H14720   6.231   3.192   6.205  1.1929  0.4453 -0.3847
  850MOL0     H14721   6.383   3.100   6.234  0.6846  1.1446 -0.7124
  850MOL0     H14722   6.106   2.968   6.167  0.1362 -4.9264  0.0211
  850MOL0     H14723   6.259   2.882   6.174  1.9450  1.3243  0.5549
  850MOL0     H14724   6.261   2.923   6.421  0.3371  3.5741  1.8741
  850MOL0     H14725   6.101   2.876   6.377  2.2145 -2.2492  0.3438
  850MOL0     H14726   6.118   3.071   6.550 -2.1672  3.2142  0.7474
  850MOL0     H14727   6.193   3.166   6.426  0.8219 -0.1399  1.2579
  850MOL0     H14728   5.992   3.128   6.281  3.2840 -1.3151  0.2482
  850MOL0     H14729   5.975   3.232   6.433 -2.8720  0.0203  0.1391
  850MOL0     H14730   5.864   2.956   6.407  0.9720  0.1560 -1.9753
  850MOL0     H14731   5.769   3.107   6.396  1.5610  2.7674 -2.4951
  850MOL0     H14732   6.456   3.167   5.614  0.8480  0.5785 -0.5987
  850MOL0     H14733   6.640   3.034   5.524 -1.7917  0.9676 -0.5433
  850MOL0     H14734   7.192   2.964   5.743  5.3041  0.3066 -1.1514
  850MOL0     H14735   7.385   2.844   5.641  1.6166  1.9681 -0.1453
  850MOL0     H14736   8.556   3.137   4.316 -2.2488  2.0821  0.9690
  850MOL0     H14737   8.796   3.080   4.313  0.2634 -0.3339  0.4425
  850MOL0     H14738   9.172   2.983   4.028  1.9736 -0.6150 -2.1535
  850MOL0     H14739   9.424   2.952   4.001  0.2377 -0.6325  1.1124
  850MOL0     H14740   9.676   3.245   4.207  1.4645  0.2884 -1.4874
  850MOL0     H14741   9.673   3.098   4.301  1.1935  1.7747  0.1505
  850MOL0     H14742   9.874   3.031   4.238  1.0673 -2.4734 -1.5678
  850MOL0     H14743   9.887   3.198   4.192  0.4356 -0.2938 -2.8935
  850MOL0     H14744   9.810   3.166   3.972 -0.4904 -0.5893 -1.0992
  850MOL0     H14745   9.810   2.990   3.981 -1.1000  0.6444 -1.0535
  850MOL0     H14746  10.053   3.166   4.067  0.3232 -0.6903  0.3743
  850MOL0     H14747  10.039   3.093   3.899 -1.4253 -0.5147 -0.4077
  850MOL0     H14748  10.142   2.750   4.103 -2.9082 -0.6509  0.7834
  850MOL0     H14749   9.478   3.265   4.277  1.3951 -1.9714  0.6753
  850MOL0     H14750   9.263   3.313   4.300 -4.4265  0.6674 -1.2564
  851MOL0     O14751   6.784   3.066  10.444  0.5181 -0.4959  0.0954
  851MOL0     C14752   6.896   3.037  10.477  0.2285 -0.2037  0.1562
  851MOL0     O14753   6.934   2.977  10.598  0.6070  0.6459 -0.1694
  851MOL0     C14754   6.827   2.951  10.681 -0.0644  0.0875  0.2701
  851MOL0     C14755   6.729   2.858  10.639  0.0802  0.2078 -0.6776
  851MOL0     C14756   6.612   2.859  10.717  0.0256 -0.1589  0.7487
  851MOL0     C14757   6.594   2.957  10.821 -0.2561  1.2608 -0.2673
  851MOL0     O14758   6.493   2.958  10.913  0.1910 -0.1985  0.5725
  851MOL0     C14759   6.414   2.840  10.927 -0.3948 -0.1801  0.7162
  851MOL0     C14760   6.377   2.835  11.073  0.1127  0.1211 -0.1318
  851MOL0     C14761   6.230   2.795  11.077  1.1900 -0.3790  0.0326
  851MOL0     C14762   6.174   2.764  11.214 -0.7031 -0.1858  0.9964
  851MOL0     C14763   6.038   2.697  11.217  0.3198  0.1501  0.5235
  851MOL0     C14764   5.919   2.765  11.138  0.2932 -0.6273 -0.0209
  851MOL0     C14765   5.795   2.679  11.142 -0.1129  0.1796  0.1172
  851MOL0     C14766   5.735   2.652  11.278 -0.5763  0.5099 -0.1782
  851MOL0     N14767   5.596   2.613  11.279 -1.1518  0.1104  0.6170
  851MOL0     C14768   5.555   2.486  11.237  0.0547 -0.0903  0.0781
  851MOL0     C14769   5.421   2.509  11.225 -0.7982 -0.0483 -0.3176
  851MOL0     C14770   5.323   2.412  11.164  0.6370  0.2764  0.0931
  851MOL0     C14771   5.365   2.355  11.031  0.2555  1.6491  0.3769
  851MOL0     C14772   5.366   2.460  10.906  0.5979 -0.1493  0.4818
  851MOL0     C14773   5.351   2.399  10.769 -0.4725  0.0884  0.4961
  851MOL0     O14774   5.223   2.348  10.738 -0.3739  0.7016 -0.6311
  851MOL0     C14775   5.201   2.314  10.603 -0.4467 -0.2436 -0.8519
  851MOL0     C14776   5.083   2.253  10.567 -0.0879 -1.0676 -0.7660
  851MOL0     C14777   5.050   2.214  10.436  0.5105  0.0961  0.9054
  851MOL0     C14778   4.909   2.170  10.422 -0.4848  0.3510 -0.1563
  851MOL0     C14779   5.142   2.248  10.333  0.6109 -0.3791 -0.0059
  851MOL0     C14780   5.110   2.239  10.189 -0.0276  0.5955 -0.0287
  851MOL0     O14781   4.982   2.206  10.145 -0.1535  0.3634  0.5612
  851MOL0     C14782   4.959   2.205  10.010  0.4420  0.6239  0.1443
  851MOL0     C14783   4.850   2.125   9.970 -0.2057  0.5377  0.6504
  851MOL0     C14784   4.796   2.140   9.845  1.1150  0.0885  0.1226
  851MOL0     C14785   4.870   2.207   9.739  0.6950 -0.1380 -1.8081
  851MOL0     O14786   4.832   2.211   9.603 -0.1781 -0.1202 -0.1142
  851MOL0     C14787   4.794   2.088   9.540 -0.4975 -0.7037  0.1977
  851MOL0     C14788   4.664   2.119   9.462 -0.4458  0.6369  0.2760
  851MOL0     C14789   4.543   2.169   9.553 -0.2460 -0.6377 -0.1342
  851MOL0     C14790   4.450   2.055   9.571 -0.2566 -0.9652 -0.8228
  851MOL0     C14791   4.358   2.093   9.688 -0.1971  0.1904 -0.1087
  851MOL0     C14792   4.240   1.997   9.692 -0.1540  0.2220 -0.4662
  851MOL0     C14793   4.159   2.017   9.828  0.3470  0.4998 -0.4409
  851MOL0     C14794   4.053   2.130   9.824  0.2380  0.4363 -0.9170
  851MOL0    Cl14795   3.934   2.101   9.692 -0.1784 -0.1824  0.4355
  851MOL0     C14796   4.968   2.289   9.783 -0.0282  0.1052  1.7168
  851MOL0     C14797   5.015   2.289   9.913  0.4029 -0.4184 -0.2604
  851MOL0     O14798   5.210   2.247  10.115 -0.4482 -0.5255  0.4703
  851MOL0     C14799   5.269   2.294  10.369 -0.5342 -0.7302  0.2448
  851MOL0     C14800   5.297   2.328  10.503  0.0989 -0.3490 -0.1379
  851MOL0     N14801   5.388   2.641  11.257 -0.1226  0.4348 -0.5272
  851MOL0     N14802   5.494   2.702  11.293  1.1361  0.1823  0.0163
  851MOL0     C14803   6.703   3.041  10.860  0.6431  0.5027  0.0387
  851MOL0     C14804   6.816   3.032  10.794 -0.8852 -0.5842 -0.0021
  851MOL0     C14805   6.997   3.018  10.363  1.3132 -0.3756 -0.1016
  851MOL0     C14806   6.954   3.039  10.229 -1.0888  0.1594 -0.6462
  851MOL0     C14807   7.043   3.035  10.123 -0.3820  0.4044 -0.2598
  851MOL0     C14808   7.184   3.014  10.148  0.0102 -0.5151  0.5050
  851MOL0     O14809   7.281   3.023  10.056 -0.2026 -0.1785  0.3878
  851MOL0     C14810   7.305   3.142   9.982 -0.3601 -0.2031 -0.6720
  851MOL0     C14811   7.398   3.228  10.066  0.3687  0.4131  0.8741
  851MOL0     C14812   7.547   3.225  10.010 -0.1346  0.0488  0.1834
  851MOL0     C14813   7.605   3.081  10.005 -0.0268 -0.6104 -0.0796
  851MOL0     C14814   7.744   3.099   9.958 -0.6381 -0.0886  0.2660
  851MOL0     C14815   7.856   3.108   9.905 -0.0029 -0.8352 -0.6610
  851MOL0     C14816   7.219   2.985  10.281 -0.5885  0.5673 -0.8550
  851MOL0     C14817   7.131   2.982  10.387  0.2561 -0.1920 -1.5449
  851MOL0     H14818   6.716   2.811  10.542 -0.7614 -1.2126  0.0944
  851MOL0     H14819   6.535   2.792  10.680  0.3019 -0.3794  0.5605
  851MOL0     H14820   6.332   2.857  10.856  0.8065  3.3108  0.0033
  851MOL0     H14821   6.465   2.748  10.895 -1.2311 -0.2715 -0.4595
  851MOL0     H14822   6.441   2.774  11.138 -0.1690  1.8283  1.8850
  851MOL0     H14823   6.398   2.932  11.120  0.2903  0.5766 -1.1246
  851MOL0     H14824   6.165   2.863  11.023 -0.2850 -4.3094 -3.6982
  851MOL0     H14825   6.217   2.709  11.011 -2.4759 -1.0113  1.3677
  851MOL0     H14826   6.252   2.704  11.263  2.0083  0.6977 -1.8997
  851MOL0     H14827   6.163   2.849  11.282 -2.8450  2.2726 -2.1160
  851MOL0     H14828   6.040   2.592  11.186 -1.7940  0.5298 -1.1327
  851MOL0     H14829   6.009   2.680  11.321 -0.7637 -1.3486  0.0090
  851MOL0     H14830   5.907   2.862  11.188  3.5725 -0.3200  0.4043
  851MOL0     H14831   5.948   2.781  11.034 -0.6781  0.0101 -0.2050
  851MOL0     H14832   5.719   2.724  11.077 -0.6430 -1.5439 -0.5133
  851MOL0     H14833   5.822   2.580  11.104  2.6936 -1.4396  5.3601
  851MOL0     H14834   5.744   2.745  11.335  1.1637 -0.3656  1.0753
  851MOL0     H14835   5.791   2.580  11.338 -0.5059  1.5187  1.0029
  851MOL0     H14836   5.611   2.397  11.210 -1.1045 -0.3159 -1.7691
  851MOL0     H14837   5.301   2.334  11.237 -0.1793  0.2703 -0.1467
  851MOL0     H14838   5.230   2.466  11.144  1.7299  2.6886  1.2173
  851MOL0     H14839   5.287   2.285  10.999 -0.2315  2.9080 -1.3979
  851MOL0     H14840   5.458   2.297  11.037 -2.1262 -3.0738 -2.1873
  851MOL0     H14841   5.460   2.517  10.903  0.5333  0.0178  1.4441
  851MOL0     H14842   5.285   2.533  10.903 -0.5105 -1.3437 -2.4759
  851MOL0     H14843   5.433   2.328  10.753 -0.5353 -1.0100  4.0821
  851MOL0     H14844   5.358   2.480  10.696 -1.3137 -1.2313 -1.1051
  851MOL0     H14845   5.011   2.227  10.645 -1.4701  0.4830 -1.4740
  851MOL0     H14846   4.908   2.088  10.350 -0.0489  1.5250 -1.5484
  851MOL0     H14847   4.856   2.133  10.510  1.3206 -3.0572 -0.3072
  851MOL0     H14848   4.852   2.248  10.371  0.4871  0.0959 -1.7003
  851MOL0     H14849   4.795   2.059  10.037 -0.0369 -2.8069 -2.2761
  851MOL0     H14850   4.699   2.096   9.822 -0.3241  1.2180  3.4032
  851MOL0     H14851   4.859   2.054   9.458  1.0977 -0.2902  1.2449
  851MOL0     H14852   4.784   2.009   9.615  0.7959 -1.3806 -0.3009
  851MOL0     H14853   4.693   2.200   9.395 -2.2476  1.2883  0.2374
  851MOL0     H14854   4.623   2.028   9.417 -0.2791 -0.1377  1.6243
  851MOL0     H14855   4.482   2.246   9.505  1.3329  0.6589 -0.1564
  851MOL0     H14856   4.570   2.216   9.648 -4.3070 -0.4979  1.1239
  851MOL0     H14857   4.389   2.050   9.480  0.1601  0.3949 -1.2166
  851MOL0     H14858   4.500   1.959   9.582 -1.9184 -1.9753 -1.6677
  851MOL0     H14859   4.325   2.197   9.673  2.2129  1.5905  3.0909
  851MOL0     H14860   4.414   2.092   9.782 -1.4746  1.9787  0.7363
  851MOL0     H14861   4.178   2.013   9.603 -0.8169 -1.3448 -0.3224
  851MOL0     H14862   4.272   1.893   9.702 -2.3390 -0.4497  0.1661
  851MOL0     H14863   4.233   2.036   9.906 -0.5177 -0.7400  0.7273
  851MOL0     H14864   4.099   1.931   9.862 -2.5183  1.9390 -1.4721
  851MOL0     H14865   4.096   2.230   9.816 -1.0017  0.9175 -2.0484
  851MOL0     H14866   3.998   2.124   9.919  1.1224 -1.8516 -0.4840
  851MOL0     H14867   5.009   2.361   9.712 -3.8275  1.5232  0.7091
  851MOL0     H14868   5.090   2.361   9.943  1.1118 -0.3487 -2.1138
  851MOL0     H14869   5.351   2.316  10.302 -1.3426  0.4147 -0.3901
  851MOL0     H14870   5.393   2.370  10.531  0.1036  0.5964 -1.5044
  851MOL0     H14871   6.684   3.107  10.943  2.4867 -1.0513  1.8100
  851MOL0     H14872   6.900   3.097  10.819 -2.3824  1.4465  0.0607
  851MOL0     H14873   6.853   3.066  10.200 -0.1686  1.9807 -2.4567
  851MOL0     H14874   7.002   3.052  10.025 -3.6856  1.7653  1.2186
  851MOL0     H14875   7.347   3.121   9.884  1.0147 -0.7981  0.0206
  851MOL0     H14876   7.210   3.196   9.968  0.9647  2.3328 -0.5451
  851MOL0     H14877   7.408   3.181  10.164 -0.1105 -0.1865  0.6384
  851MOL0     H14878   7.360   3.331  10.072  1.3204  1.0622 -2.2437
  851MOL0     H14879   7.609   3.287  10.075  0.0008 -0.1581  0.2531
  851MOL0     H14880   7.555   3.266   9.909 -0.5897 -0.6009 -0.1273
  851MOL0     H14881   7.546   3.013   9.942 -1.4750  0.1854  0.3680
  851MOL0     H14882   7.601   3.047  10.108 -3.8382  3.4839  1.4778
  851MOL0     H14883   7.950   3.103   9.854  0.8498  0.8087  0.6201
  851MOL0     H14884   7.323   2.974  10.311 -0.8222  0.9403  0.1306
  851MOL0     H14885   7.174   2.981  10.486 -2.0816  0.2117 -0.4562
  852MOL0     O14886  10.064   3.773   7.365  0.1151 -0.5732 -0.0998
  852MOL0     C14887  10.088   3.659   7.398  0.6763  0.3436  0.6777
  852MOL0     O14888  10.192   3.581   7.355 -0.6933 -0.1842 -0.0425
  852MOL0     C14889  10.283   3.634   7.260  1.1265  0.3836  0.6831
  852MOL0     C14890  10.239   3.695   7.137  0.3329 -0.1713 -0.3851
  852MOL0     C14891  10.337   3.750   7.050 -0.3576 -0.7986  0.1938
  852MOL0     C14892  10.471   3.750   7.081  0.3643 -0.1485 -0.3284
  852MOL0     O14893  10.560   3.802   6.983 -0.0599 -0.1926 -0.0760
  852MOL0     C14894  10.696   3.799   7.012  0.7877 -1.0799 -0.1805
  852MOL0     C14895  10.748   3.927   7.080  0.1306 -0.3072 -0.4162
  852MOL0     C14896  10.903   3.934   7.080  0.0298  0.9610 -0.1615
  852MOL0     C14897  10.934   4.080   7.112  0.0680  0.8489  0.1540
  852MOL0     C14898  11.078   4.108   7.107 -0.6861 -0.0641  0.1431
  852MOL0     C14899  11.162   4.026   7.211 -0.3040 -0.4001 -0.0525
  852MOL0     C14900  11.290   4.107   7.208  0.5733  0.2340  0.0376
  852MOL0     C14901  11.396   4.019   7.280  0.1763  0.3376 -0.5108
  852MOL0     N14902  11.514   4.097   7.310 -0.4076 -0.2902 -0.2049
  852MOL0     C14903  11.601   4.135   7.218 -0.0265  0.4837 -0.4400
  852MOL0     C14904  11.700   4.185   7.285 -0.3916 -0.6084  0.8828
  852MOL0     C14905  11.822   4.231   7.204 -1.6737 -0.1623  0.8556
  852MOL0     C14906  11.864   4.361   7.268 -0.8715 -1.1954 -0.1856
  852MOL0     C14907  12.008   4.384   7.213  0.0045 -0.7264 -0.5175
  852MOL0     C14908  12.117   4.273   7.252  0.4561 -0.7584 -0.2648
  852MOL0     O14909  12.246   4.336   7.272 -0.1743  0.0457 -0.1154
  852MOL0     C14910  12.353   4.256   7.319  0.5978  0.3545 -0.0920
  852MOL0     C14911  12.348   4.144   7.407 -0.9873 -0.1861 -0.3796
  852MOL0     C14912  12.458   4.073   7.463  0.1093 -0.2418  0.0314
  852MOL0     C14913  12.440   3.943   7.537  0.5144 -0.1083  0.3652
  852MOL0     C14914  12.584   4.121   7.416  0.3094  0.3508 -0.5436
  852MOL0     C14915  12.718   4.050   7.438  0.2639 -0.1549 -0.6565
  852MOL0     O14916  12.731   3.974   7.552 -0.1576 -0.5506  1.0042
  852MOL0     C14917  12.854   3.908   7.565 -1.2022  0.0331 -0.2038
  852MOL0     C14918  12.917   3.941   7.680  0.2639  0.1983  0.1488
  852MOL0     C14919  13.040   3.887   7.712 -0.2860 -0.4816 -0.2928
  852MOL0     C14920  13.099   3.799   7.622  0.2636  0.1746  0.1597
  852MOL0     O14921  13.227   3.760   7.653 -0.4352 -0.3596 -1.0737
  852MOL0     C14922  13.310   3.729   7.534 -0.2455  0.5084  0.0859
  852MOL0     C14923  13.466   3.735   7.561  0.9699 -0.4833  0.0686
  852MOL0     C14924  13.507   3.881   7.596 -0.1878  0.1662  0.8698
  852MOL0     C14925  13.660   3.880   7.604  0.5687  0.5225 -0.3313
  852MOL0     C14926  13.702   4.019   7.646  0.2062  0.4618  0.0391
  852MOL0     C14927  13.847   4.028   7.700  1.1785  0.7239  1.1982
  852MOL0     C14928  13.893   4.168   7.735 -0.2252 -0.7314  0.0553
  852MOL0     C14929  13.946   4.242   7.616  0.3576 -0.7044 -1.0199
  852MOL0    Cl14930  14.082   4.156   7.529 -0.3278 -0.1711 -0.0320
  852MOL0     C14931  13.038   3.771   7.499  0.0961  0.6342 -0.0225
  852MOL0     C14932  12.910   3.815   7.480  0.3446 -0.4397 -0.0531
  852MOL0     O14933  12.809   4.083   7.361  0.5263  0.5012 -0.1182
  852MOL0     C14934  12.597   4.223   7.316 -0.2473 -0.1758  0.1620
  852MOL0     C14935  12.479   4.291   7.274 -0.7451 -0.2468  0.1765
  852MOL0     N14936  11.673   4.189   7.419  0.1741  0.2719  0.3489
  852MOL0     N14937  11.563   4.115   7.434 -0.1134  0.0706 -0.8944
  852MOL0     C14938  10.512   3.695   7.208  0.0876  0.2729  0.1748
  852MOL0     C14939  10.417   3.646   7.301  0.1607  0.4359 -0.7565
  852MOL0     C14940  10.016   3.597   7.515  0.2361  0.0097  0.5632
  852MOL0     C14941  10.071   3.482   7.588 -0.3704 -0.0572  0.3947
  852MOL0     C14942  10.011   3.445   7.704  0.0375  0.4261 -0.0242
  852MOL0     C14943   9.897   3.495   7.749 -1.1712 -0.7508  0.7608
  852MOL0     O14944   9.857   3.435   7.864  0.0570  0.1303 -0.9327
  852MOL0     C14945   9.743   3.495   7.937 -0.4679 -0.7337  0.1143
  852MOL0     C14946   9.781   3.602   8.030 -0.2116  0.3731 -0.4495
  852MOL0     C14947   9.915   3.566   8.099  0.5003  0.4042  0.3397
  852MOL0     C14948   9.964   3.667   8.205 -0.8765 -0.3397 -0.9804
  852MOL0     C14949  10.076   3.619   8.292 -0.6942  1.0221 -0.3545
  852MOL0     C14950  10.177   3.590   8.363 -0.5090 -0.5656 -0.0654
  852MOL0     C14951   9.844   3.604   7.676  0.1846 -0.8899 -0.3701
  852MOL0     C14952   9.913   3.666   7.574  0.4991 -0.3610  0.4245
  852MOL0     H14953  10.138   3.694   7.097  0.5698 -2.6327 -1.0837
  852MOL0     H14954  10.297   3.797   6.961  0.6997 -0.2014  0.0190
  852MOL0     H14955  10.725   3.706   7.063  1.7955 -0.9943 -0.5834
  852MOL0     H14956  10.749   3.798   6.917 -1.3161  0.7608 -1.4781
  852MOL0     H14957  10.713   4.020   7.034 -0.0568  0.3797  1.0726
  852MOL0     H14958  10.719   3.930   7.185  0.6149  1.2645 -0.3113
  852MOL0     H14959  10.958   3.877   7.155 -0.7632 -0.0184 -0.2983
  852MOL0     H14960  10.942   3.918   6.979  0.8568 -0.5871  0.3710
  852MOL0     H14961  10.889   4.146   7.037 -0.7200 -0.5292 -0.6148
  852MOL0     H14962  10.902   4.114   7.211  1.6693  3.4387 -0.1051
  852MOL0     H14963  11.111   4.076   7.008 -0.6855 -2.7828  0.9236
  852MOL0     H14964  11.095   4.215   7.118 -3.2720  0.4820 -0.5797
  852MOL0     H14965  11.115   4.035   7.310 -2.5077  0.0182 -1.0715
  852MOL0     H14966  11.177   3.919   7.192  1.3152 -0.7993  2.8711
  852MOL0     H14967  11.333   4.114   7.108  4.4838  2.7221  1.6542
  852MOL0     H14968  11.282   4.207   7.251 -3.8476 -0.1952  0.6756
  852MOL0     H14969  11.430   3.942   7.210 -0.6497 -0.8804  0.3715
  852MOL0     H14970  11.370   3.961   7.369 -0.2997 -4.5485 -3.4862
  852MOL0     H14971  11.612   4.120   7.111  2.5507  0.6567 -0.2422
  852MOL0     H14972  11.906   4.162   7.209  0.0073  1.3605 -2.7054
  852MOL0     H14973  11.804   4.250   7.097 -1.9936 -2.8093  0.3628
  852MOL0     H14974  11.880   4.354   7.376 -0.3889  0.1220 -0.1549
  852MOL0     H14975  11.800   4.447   7.247  1.3233  0.7915  0.8099
  852MOL0     H14976  12.046   4.481   7.249 -0.8123 -1.0647  1.3716
  852MOL0     H14977  12.011   4.403   7.106 -0.6390  1.3565 -0.2122
  852MOL0     H14978  12.131   4.193   7.178  3.8139  0.2615 -0.9428
  852MOL0     H14979  12.076   4.226   7.341 -1.2659 -2.3913 -1.8423
  852MOL0     H14980  12.247   4.122   7.442 -1.3691 -0.7738 -1.7632
  852MOL0     H14981  12.450   3.951   7.646 -2.5423  0.3184  0.7204
  852MOL0     H14982  12.350   3.890   7.505  1.6120 -2.2301  0.6434
  852MOL0     H14983  12.522   3.879   7.504 -0.0032 -0.5295 -0.1325
  852MOL0     H14984  12.867   4.012   7.745 -0.6377  1.3658 -1.7443
  852MOL0     H14985  13.089   3.920   7.803  0.5747  3.3159 -1.9825
  852MOL0     H14986  13.280   3.632   7.493 -0.9057  0.3247  0.9710
  852MOL0     H14987  13.285   3.788   7.445 -2.5806 -1.5066 -0.7225
  852MOL0     H14988  13.496   3.669   7.643  0.1516  1.0767  1.7030
  852MOL0     H14989  13.508   3.701   7.466 -2.1888  0.4499 -1.8368
  852MOL0     H14990  13.457   3.917   7.687 -0.0664  2.1510  0.1895
  852MOL0     H14991  13.477   3.955   7.522 -1.9805 -0.6521  0.7194
  852MOL0     H14992  13.694   3.801   7.671  2.9559  0.6628 -1.3036
  852MOL0     H14993  13.693   3.853   7.503 -1.5924  0.0143 -0.9663
  852MOL0     H14994  13.648   4.064   7.730  2.9388 -0.9260  2.7669
  852MOL0     H14995  13.682   4.084   7.560  0.9377 -0.0672 -0.5415
  852MOL0     H14996  13.840   3.965   7.790  0.1293 -3.6489 -1.5966
  852MOL0     H14997  13.916   3.972   7.637 -1.0217 -1.7547  0.8107
  852MOL0     H14998  13.979   4.177   7.803  0.9539 -1.7393 -1.2401
  852MOL0     H14999  13.805   4.221   7.773  0.0048 -0.0335 -0.3588
  852MOL0     H15000  13.962   4.347   7.641  1.0657 -0.6303 -1.7398
  852MOL0     H15001  13.866   4.256   7.542  0.8982 -1.3354 -1.7395
  852MOL0     H15002  13.076   3.696   7.430  0.9283 -1.5590  2.6322
  852MOL0     H15003  12.848   3.784   7.397  0.5008 -0.7751 -0.0439
  852MOL0     H15004  12.692   4.267   7.286  0.0243 -0.3617  0.7289
  852MOL0     H15005  12.487   4.377   7.208  1.5149 -1.0740 -0.7428
  852MOL0     H15006  10.617   3.689   7.236 -0.0922 -1.3824  0.6214
  852MOL0     H15007  10.447   3.615   7.400 -0.0239  1.4021 -0.3955
  852MOL0     H15008  10.160   3.424   7.564  0.3968  1.3876 -0.4353
  852MOL0     H15009  10.049   3.363   7.763 -0.0507  1.0120  0.8637
  852MOL0     H15010   9.664   3.530   7.872 -1.2441 -2.1602  0.2399
  852MOL0     H15011   9.710   3.411   7.999  1.9751 -1.5787  0.3981
  852MOL0     H15012   9.697   3.628   8.094  1.1953  2.1251  0.8170
  852MOL0     H15013   9.796   3.695   7.974 -1.2155 -0.8276 -2.8810
  852MOL0     H15014   9.992   3.552   8.022 -1.3884  1.5562 -1.9249
  852MOL0     H15015   9.883   3.473   8.146 -2.2023  1.1796  0.1808
  852MOL0     H15016   9.880   3.690   8.272  0.6180 -0.3495  0.9939
  852MOL0     H15017   9.987   3.760   8.152 -0.1484  0.6707  1.0029
  852MOL0     H15018  10.263   3.575   8.425  2.7113  2.1105 -3.3707
  852MOL0     H15019   9.751   3.653   7.703  0.2941 -0.7526 -0.2405
  852MOL0     H15020   9.880   3.760   7.533 -1.5761  0.0432  2.7632
  853MOL0     O15021   5.048   7.807   2.540  0.1528  0.0902  0.1557
  853MOL0     C15022   5.033   7.709   2.611  0.0519 -0.1304  0.5641
  853MOL0     O15023   4.919   7.649   2.636  0.2149  0.8408 -0.3562
  853MOL0     C15024   4.794   7.683   2.586  0.4963 -0.1078  0.2379
  853MOL0     C15025   4.697   7.597   2.628  0.5449  0.8382  0.8771
  853MOL0     C15026   4.569   7.598   2.580 -0.1722 -0.5800 -0.1359
  853MOL0     C15027   4.526   7.704   2.489 -0.0049 -0.6714  0.7633
  853MOL0     O15028   4.397   7.723   2.438  0.0339  0.6827  0.3315
  853MOL0     C15029   4.282   7.648   2.473  0.3259 -0.0259 -0.5863
  853MOL0     C15030   4.169   7.696   2.377  0.1976 -0.1509 -0.9778
  853MOL0     C15031   4.148   7.856   2.378  0.0753 -0.2793  1.1661
  853MOL0     C15032   4.021   7.904   2.315  0.4355 -0.1847  0.4456
  853MOL0     C15033   3.897   7.880   2.408  0.5090 -0.4534  0.0916
  853MOL0     C15034   3.800   7.995   2.416  0.6064 -0.5441  0.5065
  853MOL0     C15035   3.713   7.981   2.546  0.2719  0.0616 -0.1161
  853MOL0     C15036   3.580   8.045   2.514 -0.9787  0.7869 -0.1152
  853MOL0     N15037   3.476   8.002   2.610  1.0917 -0.0960 -0.3112
  853MOL0     C15038   3.345   7.961   2.579 -0.6901  0.1459  0.6019
  853MOL0     C15039   3.280   7.968   2.693 -0.4153  0.0557 -0.9921
  853MOL0     C15040   3.130   7.968   2.710  1.1186  0.0333 -0.1406
  853MOL0     C15041   3.080   7.822   2.728 -0.5423  0.3065  0.6431
  853MOL0     C15042   2.928   7.833   2.764 -0.5587 -0.3578 -0.2890
  853MOL0     C15043   2.854   7.695   2.791  0.2267 -0.1680 -0.4417
  853MOL0     O15044   2.811   7.645   2.663  0.3089  0.6793 -0.0323
  853MOL0     C15045   2.682   7.603   2.660  0.0729 -0.0898  0.1253
  853MOL0     C15046   2.583   7.697   2.639  0.2984  0.5498 -0.2044
  853MOL0     C15047   2.446   7.664   2.641 -1.0348  0.3189 -0.2033
  853MOL0     C15048   2.354   7.789   2.614  0.1363 -0.0349 -0.5920
  853MOL0     C15049   2.407   7.530   2.661 -0.3271  0.3695 -1.0772
  853MOL0     C15050   2.270   7.480   2.644 -0.1812  0.0629  0.0662
  853MOL0     O15051   2.174   7.564   2.587 -0.1490 -0.4773  0.7647
  853MOL0     C15052   2.056   7.510   2.533 -0.1788 -0.0455  0.0831
  853MOL0     C15053   1.952   7.602   2.537 -0.0954 -0.1956  0.2915
  853MOL0     C15054   1.832   7.575   2.479  0.4025  0.6785  0.4001
  853MOL0     C15055   1.804   7.451   2.427  0.1911  0.7738  0.0990
  853MOL0     O15056   1.681   7.417   2.382 -0.3047  0.5889 -0.2642
  853MOL0     C15057   1.676   7.320   2.276  0.2617  0.1350 -0.8119
  853MOL0     C15058   1.534   7.295   2.235  0.1051 -0.0106  0.0248
  853MOL0     C15059   1.428   7.242   2.347  0.0367  0.8985  0.0528
  853MOL0     C15060   1.291   7.233   2.291  0.2204  0.5272 -0.0435
  853MOL0     C15061   1.188   7.165   2.382  0.0333  0.0356  0.3079
  853MOL0     C15062   1.100   7.253   2.459  0.6633 -0.7720  0.1514
  853MOL0     C15063   1.006   7.172   2.561  0.1095 -0.6953 -0.1022
  853MOL0     C15064   0.899   7.083   2.502  0.6236 -0.0053 -0.7163
  853MOL0    Cl15065   0.814   6.976   2.620  0.7358  0.5428 -0.1758
  853MOL0     C15066   1.906   7.353   2.437 -1.4989 -0.6227 -0.0984
  853MOL0     C15067   2.028   7.388   2.485  0.3671  0.0742 -0.5577
  853MOL0     O15068   2.252   7.359   2.668  0.9477  1.1589  0.0199
  853MOL0     C15069   2.509   7.439   2.693  1.1675 -0.5390  0.5575
  853MOL0     C15070   2.639   7.472   2.696  1.0372  0.1907  0.0435
  853MOL0     N15071   3.363   8.003   2.800  1.1725 -0.1385  0.0835
  853MOL0     N15072   3.487   8.018   2.743 -0.2471 -0.4175 -0.6356
  853MOL0     C15073   4.623   7.793   2.448 -0.5153 -0.0998 -0.5165
  853MOL0     C15074   4.760   7.780   2.495 -0.7700  0.7251  0.1796
  853MOL0     C15075   5.147   7.666   2.679  0.1964 -0.2156  1.1668
  853MOL0     C15076   5.150   7.547   2.757 -0.9610  0.1022  0.5937
  853MOL0     C15077   5.258   7.520   2.839  0.6617  0.4386  0.2052
  853MOL0     C15078   5.371   7.608   2.841  0.4397  0.1206 -0.9273
  853MOL0     O15079   5.484   7.582   2.914  0.7023  0.0520 -0.2103
  853MOL0     C15080   5.508   7.444   2.957 -0.4070 -0.6263 -0.4020
  853MOL0     C15081   5.569   7.454   3.098 -0.1536  0.3327 -0.0294
  853MOL0     C15082   5.466   7.522   3.200  0.1493  0.3038  0.3076
  853MOL0     C15083   5.527   7.506   3.345  0.2505 -0.5264 -1.2143
  853MOL0     C15084   5.642   7.594   3.356  0.3301 -0.0002 -1.1081
  853MOL0     C15085   5.720   7.678   3.356 -0.4145 -0.2275 -0.5037
  853MOL0     C15086   5.371   7.720   2.771  0.6884  0.3580  0.7175
  853MOL0     C15087   5.258   7.756   2.691 -0.8812 -0.0419 -0.3302
  853MOL0     H15088   4.725   7.514   2.693 -3.6815 -0.2284  1.6260
  853MOL0     H15089   4.501   7.523   2.620 -1.0617  1.2628  2.0205
  853MOL0     H15090   4.296   7.540   2.462 -0.8126 -0.3110  0.4212
  853MOL0     H15091   4.251   7.669   2.576  1.0861  0.2437 -0.4069
  853MOL0     H15092   4.190   7.659   2.276  0.7821  0.4544 -1.0799
  853MOL0     H15093   4.072   7.657   2.411  1.4584 -0.0749  3.3556
  853MOL0     H15094   4.157   7.898   2.478 -0.5836  1.2068  0.6333
  853MOL0     H15095   4.226   7.903   2.317 -0.6104 -1.8485 -1.0736
  853MOL0     H15096   4.030   8.010   2.293 -0.9582 -0.3515 -1.1373
  853MOL0     H15097   3.998   7.862   2.216 -3.8326 -1.8516  1.8841
  853MOL0     H15098   3.848   7.784   2.387  1.8165 -1.2020  0.3314
  853MOL0     H15099   3.939   7.871   2.509  3.1682 -1.4667 -1.0263
  853MOL0     H15100   3.854   8.090   2.415  1.0608 -0.8005  0.4860
  853MOL0     H15101   3.733   7.995   2.329 -1.8393 -0.7018  2.2899
  853MOL0     H15102   3.699   7.875   2.573 -0.2690  0.3165  0.6390
  853MOL0     H15103   3.745   8.029   2.639  0.6834  1.3345 -0.8975
  853MOL0     H15104   3.539   8.027   2.414 -0.9202 -2.2605  0.3122
  853MOL0     H15105   3.585   8.154   2.518 -0.4891  0.9343 -2.8654
  853MOL0     H15106   3.317   7.944   2.475  1.0867  3.4913 -0.5678
  853MOL0     H15107   3.096   8.036   2.789  1.2070  1.2338 -1.0962
  853MOL0     H15108   3.084   8.013   2.622 -1.0239  1.1889  1.4503
  853MOL0     H15109   3.139   7.751   2.787 -0.1484 -0.1948 -0.3258
  853MOL0     H15110   3.072   7.777   2.628 -2.4733  0.8491  0.5132
  853MOL0     H15111   2.880   7.888   2.682 -1.5455  1.0304  1.1437
  853MOL0     H15112   2.935   7.888   2.858  1.9777 -3.7050  1.7152
  853MOL0     H15113   2.765   7.717   2.852  1.1639 -1.0606  1.3190
  853MOL0     H15114   2.913   7.617   2.840 -0.8385 -2.0555 -2.0236
  853MOL0     H15115   2.617   7.800   2.645  1.8121 -0.0010  1.7874
  853MOL0     H15116   2.273   7.782   2.688 -0.3494 -1.8191 -1.2224
  853MOL0     H15117   2.417   7.876   2.634 -1.2646  1.3603 -1.9832
  853MOL0     H15118   2.304   7.794   2.517 -1.8031 -0.1905  0.3397
  853MOL0     H15119   1.972   7.703   2.571  0.1314  0.6732 -2.2554
  853MOL0     H15120   1.752   7.644   2.500  0.5514  0.6412  1.1096
  853MOL0     H15121   1.727   7.342   2.181  2.6317 -3.3378 -0.5115
  853MOL0     H15122   1.708   7.225   2.318 -4.1004 -0.3107  2.1222
  853MOL0     H15123   1.505   7.384   2.180 -1.4515  0.7804  2.0067
  853MOL0     H15124   1.551   7.220   2.157  2.5390 -0.0390  0.5019
  853MOL0     H15125   1.416   7.311   2.431 -1.9170 -1.8688  2.2514
  853MOL0     H15126   1.458   7.144   2.387 -1.3678 -0.0865 -1.1933
  853MOL0     H15127   1.257   7.334   2.265  1.4363  0.6674 -1.2369
  853MOL0     H15128   1.294   7.184   2.193  1.7234 -0.8089  0.6391
  853MOL0     H15129   1.247   7.108   2.454  0.0935 -0.5837 -0.2270
  853MOL0     H15130   1.132   7.093   2.322  1.2213  0.0771 -0.9053
  853MOL0     H15131   1.170   7.315   2.517 -0.1969  0.3518  0.0218
  853MOL0     H15132   1.039   7.309   2.388  1.2682 -2.2372 -1.5856
  853MOL0     H15133   0.961   7.245   2.629  0.2088 -1.3656  0.6951
  853MOL0     H15134   1.074   7.111   2.620 -0.5560  0.0442  1.4892
  853MOL0     H15135   0.949   7.019   2.429 -0.4569 -2.1228  0.2971
  853MOL0     H15136   0.816   7.138   2.455 -0.2265 -0.1241  0.5907
  853MOL0     H15137   1.897   7.250   2.405  2.1857 -0.6104 -1.6457
  853MOL0     H15138   2.091   7.300   2.495 -2.4086 -1.8049  2.7903
  853MOL0     H15139   2.482   7.335   2.708 -0.2238 -0.2274  0.3857
  853MOL0     H15140   2.707   7.388   2.708 -0.2461 -1.3610 -2.6060
  853MOL0     H15141   4.594   7.871   2.378 -0.7706  1.4034  1.1727
  853MOL0     H15142   4.841   7.843   2.458 -1.8657  0.9510 -2.0474
  853MOL0     H15143   5.072   7.474   2.739  1.0186 -1.6446 -1.6345
  853MOL0     H15144   5.249   7.428   2.895  3.5007  1.1228  2.0127
  853MOL0     H15145   5.422   7.375   2.959 -1.0394  0.0518 -2.0360
  853MOL0     H15146   5.585   7.397   2.895  1.2774 -0.5388  1.5192
  853MOL0     H15147   5.666   7.504   3.093 -0.7667  1.7946  1.5115
  853MOL0     H15148   5.593   7.352   3.131  1.7944  0.9622  0.6463
  853MOL0     H15149   5.366   7.477   3.204 -0.3236  1.2843 -0.1427
  853MOL0     H15150   5.440   7.625   3.174 -1.0711 -0.0092  0.2177
  853MOL0     H15151   5.550   7.399   3.355 -2.1974 -1.4068 -3.6946
  853MOL0     H15152   5.459   7.545   3.422  2.6703  2.1693 -0.2774
  853MOL0     H15153   5.787   7.761   3.358  0.3095 -0.8059  0.8434
  853MOL0     H15154   5.453   7.790   2.782  0.9312  0.7411 -2.5939
  853MOL0     H15155   5.247   7.857   2.653 -3.4665 -0.2775 -0.3515
  854MOL0     O15156   6.090   3.648   8.154 -0.6431  0.1344  0.1131
  854MOL0     C15157   6.195   3.647   8.216  0.9810  0.2381 -0.6809
  854MOL0     O15158   6.201   3.655   8.348  0.2025  0.1288  0.1399
  854MOL0     C15159   6.092   3.638   8.417  0.1262  0.3200 -0.6065
  854MOL0     C15160   5.980   3.724   8.400 -0.5312 -0.1922 -0.3965
  854MOL0     C15161   5.858   3.708   8.466  0.4436  0.1414 -0.5886
  854MOL0     C15162   5.848   3.597   8.553 -0.0790 -0.2706  0.0980
  854MOL0     O15163   5.737   3.551   8.611  0.5094  0.1386  0.9236
  854MOL0     C15164   5.601   3.580   8.553 -1.0441 -0.0006 -0.2433
  854MOL0     C15165   5.483   3.530   8.635 -0.4859 -0.2926  0.2099
  854MOL0     C15166   5.450   3.612   8.761  0.1480  0.1087  0.5795
  854MOL0     C15167   5.324   3.555   8.836 -0.2446  0.2936 -0.3884
  854MOL0     C15168   5.307   3.650   8.958 -0.0705 -0.3174  0.3871
  854MOL0     C15169   5.205   3.602   9.069  0.1728  1.0940 -0.3123
  854MOL0     C15170   5.201   3.685   9.198 -0.4552  0.6711 -0.8135
  854MOL0     C15171   5.089   3.637   9.298  0.4373  0.0653  0.0843
  854MOL0     N15172   4.963   3.697   9.265  0.2852  0.2390  0.5746
  854MOL0     C15173   4.877   3.661   9.163  0.4261  0.8181 -0.6496
  854MOL0     C15174   4.795   3.770   9.154 -0.1158 -0.6938  0.4105
  854MOL0     C15175   4.676   3.803   9.056  1.3079  0.5118  0.1065
  854MOL0     C15176   4.551   3.759   9.118  0.3666 -0.7513  0.7114
  854MOL0     C15177   4.434   3.838   9.051  0.0718  0.4202 -0.7592
  854MOL0     C15178   4.303   3.759   9.060 -0.1267 -0.1305 -0.3784
  854MOL0     O15179   4.295   3.665   8.951 -0.0455  0.0418  0.0717
  854MOL0     C15180   4.274   3.526   8.969  0.3708  0.3898 -0.3441
  854MOL0     C15181   4.295   3.450   8.860  0.0216  0.2357 -0.0150
  854MOL0     C15182   4.281   3.310   8.872 -0.3073 -0.3569  0.0734
  854MOL0     C15183   4.351   3.227   8.765  0.7298  0.8915  0.0025
  854MOL0     C15184   4.226   3.250   8.989 -0.8532 -0.0316 -0.3559
  854MOL0     C15185   4.201   3.101   9.010 -0.5717  0.2112  0.2038
  854MOL0     O15186   4.286   3.029   9.093 -0.3940 -0.5871  0.0419
  854MOL0     C15187   4.269   2.890   9.079 -0.1748  0.1334 -0.4815
  854MOL0     C15188   4.193   2.827   9.185 -0.3210 -0.2102 -0.0371
  854MOL0     C15189   4.196   2.687   9.195 -0.4715 -0.2546  0.6926
  854MOL0     C15190   4.269   2.614   9.102 -0.5689  0.4388 -0.5557
  854MOL0     O15191   4.292   2.477   9.099  0.4277 -0.4701  0.4463
  854MOL0     C15192   4.220   2.387   9.191 -0.5053 -0.0561 -0.2058
  854MOL0     C15193   4.086   2.337   9.139 -0.0410 -0.0912  1.0102
  854MOL0     C15194   4.008   2.269   9.262  0.5706 -0.1859  0.7028
  854MOL0     C15195   3.888   2.184   9.211  0.5596 -0.2443  0.3901
  854MOL0     C15196   3.813   2.123   9.332  1.1829 -0.5070 -0.7557
  854MOL0     C15197   3.729   2.230   9.411  0.7189  0.2630 -0.1266
  854MOL0     C15198   3.615   2.307   9.333 -0.2782  0.0081 -0.4364
  854MOL0     C15199   3.515   2.375   9.417 -0.4055  0.2514 -0.2989
  854MOL0    Cl15200   3.456   2.514   9.349  0.1286  0.0501 -0.1312
  854MOL0     C15201   4.337   2.676   8.998  0.0049  0.0151 -0.5727
  854MOL0     C15202   4.327   2.813   8.982 -0.3242 -0.8546 -0.8009
  854MOL0     O15203   4.097   3.063   8.951 -1.1320 -0.3171  0.1730
  854MOL0     C15204   4.201   3.330   9.092 -0.9958 -0.6172 -0.1994
  854MOL0     C15205   4.226   3.467   9.085 -0.6449  0.5028 -0.4142
  854MOL0     N15206   4.837   3.866   9.244  1.1228 -0.2408 -0.3750
  854MOL0     N15207   4.932   3.814   9.317  0.7745  0.2633  0.3286
  854MOL0     C15208   5.962   3.518   8.578 -0.5074  0.2161 -1.1075
  854MOL0     C15209   6.078   3.534   8.508 -0.2311  0.1182  0.9366
  854MOL0     C15210   6.327   3.648   8.150 -1.0844  0.1988  0.2850
  854MOL0     C15211   6.448   3.663   8.224  0.5057  0.1117 -0.3337
  854MOL0     C15212   6.571   3.641   8.159  0.9105  0.3316 -0.0705
  854MOL0     C15213   6.585   3.602   8.028  1.1602  0.9831 -0.2254
  854MOL0     O15214   6.707   3.590   7.952 -0.2298  0.4240 -0.1070
  854MOL0     C15215   6.829   3.585   8.028 -0.3267  0.0246 -0.0368
  854MOL0     C15216   6.945   3.559   7.925  0.7166 -0.1187 -0.2219
  854MOL0     C15217   6.951   3.416   7.898  0.6074  0.2055 -0.3518
  854MOL0     C15218   7.064   3.375   7.811  0.4626 -0.4601  0.2499
  854MOL0     C15219   7.101   3.239   7.827  1.1674  0.4073 -0.4197
  854MOL0     C15220   7.138   3.122   7.844  0.5149 -0.7948  1.5461
  854MOL0     C15221   6.469   3.592   7.949  0.3791 -0.1226  0.4460
  854MOL0     C15222   6.344   3.618   8.010  0.2538  0.5396 -0.4250
  854MOL0     H15223   5.987   3.808   8.332 -2.7378 -0.6243 -1.2480
  854MOL0     H15224   5.781   3.780   8.442  0.4177  0.4422  0.3362
  854MOL0     H15225   5.590   3.688   8.544 -1.8217  0.2854  3.0304
  854MOL0     H15226   5.599   3.530   8.456  0.4721 -0.7746  0.0840
  854MOL0     H15227   5.395   3.537   8.570 -0.5836  0.2889  0.4000
  854MOL0     H15228   5.503   3.428   8.667  2.6681  0.3633  0.7635
  854MOL0     H15229   5.546   3.602   8.814  0.8822 -1.0463 -0.8895
  854MOL0     H15230   5.435   3.718   8.740  2.3637  0.6940  1.6575
  854MOL0     H15231   5.235   3.567   8.774  0.9295 -1.9317 -2.6991
  854MOL0     H15232   5.335   3.450   8.864  0.5461  0.7974  1.3575
  854MOL0     H15233   5.400   3.640   9.015 -1.6051 -3.6957  2.5678
  854MOL0     H15234   5.289   3.747   8.910 -0.3628 -0.4781  0.1690
  854MOL0     H15235   5.101   3.594   9.036  0.2475 -0.3301 -0.2620
  854MOL0     H15236   5.236   3.503   9.104  0.1223  0.6922 -1.3665
  854MOL0     H15237   5.298   3.669   9.244 -1.3940 -0.2475  0.9268
  854MOL0     H15238   5.195   3.792   9.174  1.1334  0.6231 -1.4984
  854MOL0     H15239   5.124   3.673   9.395 -2.3033  1.8642  0.5223
  854MOL0     H15240   5.077   3.528   9.294  0.5791  0.0690 -0.8692
  854MOL0     H15241   4.875   3.571   9.102 -1.3494  1.7536 -2.0402
  854MOL0     H15242   4.671   3.910   9.029 -4.0683  0.6745  0.5498
  854MOL0     H15243   4.671   3.749   8.961 -2.2752 -0.5070  0.7089
  854MOL0     H15244   4.544   3.772   9.227  2.9962 -2.9040  1.2496
  854MOL0     H15245   4.532   3.652   9.106  2.3587 -0.9892 -0.8246
  854MOL0     H15246   4.464   3.869   8.950  2.4406  2.4892  0.4515
  854MOL0     H15247   4.420   3.934   9.103  2.8508  1.3713 -1.5573
  854MOL0     H15248   4.224   3.830   9.034  0.7712  0.7943 -0.6446
  854MOL0     H15249   4.267   3.719   9.155 -0.4586 -0.5184 -0.6616
  854MOL0     H15250   4.338   3.490   8.769  2.8247 -2.1733  0.0956
  854MOL0     H15251   4.368   3.122   8.793  0.4178  0.6763 -0.5845
  854MOL0     H15252   4.284   3.225   8.679  0.2938  2.4147  0.2769
  854MOL0     H15253   4.442   3.278   8.731  1.6353 -1.8258 -2.0666
  854MOL0     H15254   4.122   2.888   9.240  0.7912  0.9252  0.1880
  854MOL0     H15255   4.139   2.626   9.264  0.0661  0.3125  1.6546
  854MOL0     H15256   4.277   2.295   9.203  0.8870  0.1809 -3.6398
  854MOL0     H15257   4.198   2.434   9.287 -3.5131 -1.2785 -0.1938
  854MOL0     H15258   4.032   2.426   9.108 -1.7615 -1.2873  0.4352
  854MOL0     H15259   4.083   2.266   9.056 -0.7393  1.9698 -0.7920
  854MOL0     H15260   3.979   2.345   9.334 -0.0266 -1.4682  1.8605
  854MOL0     H15261   4.070   2.193   9.310  1.2323 -0.1877 -0.1305
  854MOL0     H15262   3.827   2.242   9.140  0.6347 -0.5872  0.0449
  854MOL0     H15263   3.919   2.090   9.165  1.1987 -0.5685  1.4685
  854MOL0     H15264   3.882   2.063   9.392 -2.7331 -3.4057  1.3421
  854MOL0     H15265   3.731   2.057   9.300  0.7913 -0.9683  1.0956
  854MOL0     H15266   3.682   2.178   9.495 -0.9021 -0.9847 -1.7334
  854MOL0     H15267   3.792   2.314   9.443  0.4438  1.1974 -1.9064
  854MOL0     H15268   3.573   2.231   9.266 -0.3359 -0.6484  0.3273
  854MOL0     H15269   3.668   2.375   9.266  2.9546 -1.2430  0.6707
  854MOL0     H15270   3.571   2.410   9.504 -2.1330  3.4433 -0.3079
  854MOL0     H15271   3.437   2.306   9.450  2.5409 -3.1317  0.2173
  854MOL0     H15272   4.400   2.611   8.937  0.4890 -3.0098  2.8068
  854MOL0     H15273   4.377   2.862   8.899 -2.2096 -0.9179 -2.0340
  854MOL0     H15274   4.165   3.299   9.189  0.6347 -0.9009  0.3401
  854MOL0     H15275   4.216   3.525   9.176 -1.5652  1.1347 -0.9029
  854MOL0     H15276   5.952   3.442   8.655 -1.0140  0.7092 -0.6763
  854MOL0     H15277   6.166   3.474   8.527  1.2740  0.3115 -4.0212
  854MOL0     H15278   6.450   3.675   8.332 -0.1102  0.5690 -0.3659
  854MOL0     H15279   6.653   3.651   8.230  1.2964  2.5824 -0.7552
  854MOL0     H15280   6.844   3.683   8.075 -2.9709  0.1115  0.8078
  854MOL0     H15281   6.833   3.515   8.112  4.7246  0.8147  0.7011
  854MOL0     H15282   7.042   3.584   7.970 -0.2366 -0.1445  1.9569
  854MOL0     H15283   6.924   3.618   7.835  0.9191 -2.9361 -2.2680
  854MOL0     H15284   6.856   3.384   7.854  0.5761 -0.2215  0.0270
  854MOL0     H15285   6.962   3.362   7.992 -4.0250 -1.0812 -0.3108
  854MOL0     H15286   7.150   3.439   7.832  0.2423 -0.4409  1.1222
  854MOL0     H15287   7.036   3.402   7.709 -0.5433  0.5996  0.7868
  854MOL0     H15288   7.172   3.020   7.850  0.5753 -0.8658  0.2566
  854MOL0     H15289   6.468   3.568   7.844  1.6142 -2.5010  0.9061
  854MOL0     H15290   6.252   3.613   7.953 -0.5533  0.8110  0.7912
  855MOL0     O15291   3.589   0.132   3.925 -0.0431 -0.4759 -1.0416
  855MOL0     C15292   3.578   0.236   3.992 -0.0256  0.3744  0.2993
  855MOL0     O15293   3.593   0.364   3.948 -0.0810 -1.3189 -0.1920
  855MOL0     C15294   3.639   0.388   3.820 -0.3715  0.1182 -0.4039
  855MOL0     C15295   3.756   0.326   3.775  0.3957  0.3991  0.1760
  855MOL0     C15296   3.810   0.376   3.658  0.1342  0.0433  0.8201
  855MOL0     C15297   3.757   0.491   3.599  0.9672 -0.2622 -0.0070
  855MOL0     O15298   3.815   0.544   3.486 -0.2933  0.1149 -0.3349
  855MOL0     C15299   3.840   0.451   3.380 -0.8639  0.9249  0.2301
  855MOL0     C15300   3.927   0.521   3.268 -0.7373  0.9328 -0.8502
  855MOL0     C15301   4.049   0.577   3.320 -0.6301  0.2111 -0.3024
  855MOL0     C15302   4.105   0.672   3.218  0.1349 -0.3403  0.0228
  855MOL0     C15303   4.207   0.764   3.274  0.4514  0.1592  1.0632
  855MOL0     C15304   4.257   0.858   3.161  0.2447  0.5166  0.0745
  855MOL0     C15305   4.382   0.938   3.232  0.4711  0.0383 -0.1838
  855MOL0     C15306   4.384   1.078   3.162 -0.1266  0.1642  0.2137
  855MOL0     N15307   4.305   1.194   3.225 -0.5058 -0.3940  0.8606
  855MOL0     C15308   4.181   1.191   3.282  0.4654  0.0204 -0.8061
  855MOL0     C15309   4.148   1.315   3.317 -1.1141  1.2423 -0.3474
  855MOL0     C15310   4.013   1.364   3.357  0.4402  0.3396 -0.0984
  855MOL0     C15311   3.905   1.302   3.270  0.9364  0.1663 -0.5055
  855MOL0     C15312   3.764   1.361   3.289  0.1256 -0.4061 -0.0825
  855MOL0     C15313   3.703   1.320   3.426 -0.4445 -0.2797  0.4380
  855MOL0     O15314   3.773   1.383   3.533  0.5890 -0.1340 -0.2183
  855MOL0     C15315   3.745   1.350   3.665  0.1210  0.0830  0.5756
  855MOL0     C15316   3.622   1.293   3.697  0.0071  0.3644 -0.0896
  855MOL0     C15317   3.581   1.280   3.832  0.2258 -0.0510 -0.0059
  855MOL0     C15318   3.444   1.214   3.860 -0.3763  0.0308 -0.1927
  855MOL0     C15319   3.669   1.327   3.935  0.5969  0.2283 -0.0610
  855MOL0     C15320   3.633   1.329   4.071 -0.7091 -0.3917  0.0367
  855MOL0     O15321   3.623   1.207   4.141  0.6542 -0.0990 -0.1139
  855MOL0     C15322   3.572   1.226   4.266 -0.6732  0.2272 -0.4750
  855MOL0     C15323   3.659   1.250   4.373  0.5734  0.1987 -0.2258
  855MOL0     C15324   3.617   1.281   4.502  0.8792  0.3048 -0.1242
  855MOL0     C15325   3.483   1.263   4.530  0.5927 -0.1542  0.8167
  855MOL0     O15326   3.452   1.289   4.659 -0.2818  0.6889  0.5486
  855MOL0     C15327   3.393   1.413   4.692 -0.0785 -0.1502  0.7178
  855MOL0     C15328   3.479   1.546   4.687 -0.0013 -0.6531 -0.4001
  855MOL0     C15329   3.606   1.508   4.757 -0.2704  0.2644 -0.1763
  855MOL0     C15330   3.652   1.626   4.843 -0.2280  0.2490 -0.6964
  855MOL0     C15331   3.799   1.638   4.855 -0.4618  0.4614  0.1950
  855MOL0     C15332   3.857   1.520   4.939  0.7634 -0.8355  0.2069
  855MOL0     C15333   4.008   1.534   4.966  0.1655 -0.6531  0.3909
  855MOL0     C15334   4.076   1.398   4.988 -0.4142 -0.4528 -0.7815
  855MOL0    Cl15335   4.132   1.319   4.837 -0.4449  0.4446 -0.1546
  855MOL0     C15336   3.386   1.239   4.427  0.5314 -0.0077 -1.1525
  855MOL0     C15337   3.438   1.211   4.294 -0.0905 -0.0927 -1.2197
  855MOL0     O15338   3.613   1.433   4.121  0.5661 -0.3724  0.4033
  855MOL0     C15339   3.792   1.378   3.903 -0.5664 -1.0468  0.1924
  855MOL0     C15340   3.834   1.384   3.766  0.2482  0.6048  0.1950
  855MOL0     N15341   4.258   1.394   3.280 -0.4290 -0.6915  0.6763
  855MOL0     N15342   4.359   1.317   3.246 -0.3157  0.6311  0.2943
  855MOL0     C15343   3.645   0.551   3.649 -0.6356 -0.0040  0.0189
  855MOL0     C15344   3.586   0.503   3.757  0.5822 -0.6550  0.4914
  855MOL0     C15345   3.547   0.233   4.134  0.4161 -0.1399 -0.1948
  855MOL0     C15346   3.505   0.118   4.204 -0.7543  0.1540  0.3834
  855MOL0     C15347   3.467   0.121   4.336  1.0931  1.4327 -0.2330
  855MOL0     C15348   3.463   0.237   4.407  0.0046 -0.0112  0.9559
  855MOL0     O15349   3.432   0.233   4.544  0.8053  0.1267  0.1757
  855MOL0     C15350   3.411   0.365   4.617 -0.1754  0.8042 -0.9145
  855MOL0     C15351   3.460   0.337   4.763  0.2401 -0.3059  0.2904
  855MOL0     C15352   3.453   0.462   4.857 -0.0862 -0.3407  0.5499
  855MOL0     C15353   3.463   0.433   5.009  0.4870  0.1958 -0.3059
  855MOL0     C15354   3.338   0.360   5.052 -0.5473  1.1339  0.6179
  855MOL0     C15355   3.233   0.309   5.091 -0.2235 -0.7419 -0.0472
  855MOL0     C15356   3.518   0.353   4.347 -0.1985  0.1649  0.0531
  855MOL0     C15357   3.553   0.347   4.215  0.4804 -1.2364  0.2303
  855MOL0     H15358   3.803   0.242   3.824 -0.0189  0.9529  1.5686
  855MOL0     H15359   3.890   0.322   3.609 -0.2311  2.0371 -2.2087
  855MOL0     H15360   3.890   0.365   3.425  0.3516  1.2126 -0.5255
  855MOL0     H15361   3.743   0.418   3.343  0.4834 -2.0351 -0.9972
  855MOL0     H15362   3.950   0.445   3.193 -2.1825 -0.7220  0.3004
  855MOL0     H15363   3.864   0.581   3.201 -0.7335 -0.7600 -2.4415
  855MOL0     H15364   4.029   0.632   3.413  0.7395 -1.5442  1.0970
  855MOL0     H15365   4.126   0.502   3.339 -2.3739 -1.3843  0.9326
  855MOL0     H15366   4.149   0.616   3.136  1.5434  2.0529 -0.9861
  855MOL0     H15367   4.026   0.736   3.177  1.6557  1.8490  0.3415
  855MOL0     H15368   4.185   0.829   3.359  2.5130  1.4748  0.6731
  855MOL0     H15369   4.292   0.707   3.312 -0.3313  0.0639  2.7531
  855MOL0     H15370   4.295   0.792   3.083 -3.6589 -1.6990 -0.2288
  855MOL0     H15371   4.174   0.921   3.127 -1.5397 -1.6544  0.1921
  855MOL0     H15372   4.377   0.935   3.341  2.0309  1.6830 -0.0240
  855MOL0     H15373   4.476   0.884   3.214 -0.5320 -1.9130  0.1135
  855MOL0     H15374   4.339   1.078   3.063 -1.1316  3.0148  0.5770
  855MOL0     H15375   4.491   1.103   3.160  0.1803 -0.9303  1.3057
  855MOL0     H15376   4.106   1.113   3.293 -1.6205  1.8671 -1.1407
  855MOL0     H15377   4.006   1.354   3.465 -0.8600  3.1890  0.1715
  855MOL0     H15378   4.014   1.472   3.339  1.9783  0.3335 -0.2200
  855MOL0     H15379   3.896   1.196   3.291  1.6613  0.0658 -0.6672
  855MOL0     H15380   3.943   1.306   3.168  0.7168  0.9838 -0.5700
  855MOL0     H15381   3.698   1.331   3.207 -2.5650  2.2716  0.8992
  855MOL0     H15382   3.759   1.469   3.272 -1.5747 -0.6759 -1.7172
  855MOL0     H15383   3.706   1.211   3.439 -0.6108 -0.4990 -1.1631
  855MOL0     H15384   3.595   1.335   3.425 -0.6284 -1.1744 -2.4459
  855MOL0     H15385   3.558   1.267   3.613  2.3705 -0.1152 -1.8639
  855MOL0     H15386   3.362   1.255   3.801 -0.3100  2.2882  1.1577
  855MOL0     H15387   3.456   1.107   3.839  0.0445 -1.3935  5.6234
  855MOL0     H15388   3.423   1.231   3.966 -0.4913 -1.5344  0.0657
  855MOL0     H15389   3.764   1.276   4.358  0.0942  2.0747 -0.5625
  855MOL0     H15390   3.694   1.299   4.576 -0.2015 -2.9694  2.0487
  855MOL0     H15391   3.308   1.442   4.629  1.2776  3.5056  0.3433
  855MOL0     H15392   3.364   1.396   4.796  0.1272 -0.0082  0.7987
  855MOL0     H15393   3.492   1.576   4.583 -1.9719  1.1805 -0.1837
  855MOL0     H15394   3.423   1.621   4.744 -3.2817 -1.1387 -2.6999
  855MOL0     H15395   3.684   1.496   4.682 -0.7199  1.1612 -0.8006
  855MOL0     H15396   3.599   1.421   4.822  0.2136  1.3366  1.3720
  855MOL0     H15397   3.615   1.720   4.800 -0.6451 -0.2291 -1.3865
  855MOL0     H15398   3.609   1.621   4.943 -1.6518  1.0310 -1.2420
  855MOL0     H15399   3.840   1.735   4.884  2.0481 -0.3234 -0.4202
  855MOL0     H15400   3.834   1.631   4.751 -0.2709 -0.1826  0.3006
  855MOL0     H15401   3.797   1.529   5.031  1.5772  0.7375  0.6082
  855MOL0     H15402   3.833   1.419   4.903 -0.2047 -1.5825  2.6863
  855MOL0     H15403   4.017   1.584   5.063 -0.8749  0.0115  0.1486
  855MOL0     H15404   4.056   1.589   4.885 -1.4133  1.0222  0.5435
  855MOL0     H15405   4.010   1.334   5.046  0.1921  0.8017  1.4186
  855MOL0     H15406   4.160   1.417   5.055  0.2588 -3.9512 -0.4860
  855MOL0     H15407   3.279   1.243   4.448  1.1272  2.6248  2.1779
  855MOL0     H15408   3.362   1.197   4.218 -0.6239 -0.8965 -0.5573
  855MOL0     H15409   3.862   1.408   3.981  2.0616  0.8108 -2.6615
  855MOL0     H15410   3.930   1.429   3.743 -0.1170  1.3797  0.1818
  855MOL0     H15411   3.610   0.644   3.605 -0.7372 -0.0514 -0.0010
  855MOL0     H15412   3.499   0.556   3.796  0.9011 -0.8241  1.4551
  855MOL0     H15413   3.512   0.026   4.147 -0.2971  0.4075  0.0302
  855MOL0     H15414   3.419   0.029   4.367  1.6248  1.2319 -0.0111
  855MOL0     H15415   3.488   0.433   4.578  1.8049 -1.6265 -1.5193
  855MOL0     H15416   3.311   0.406   4.603  0.4511  2.8916  0.3537
  855MOL0     H15417   3.565   0.310   4.748 -0.1655 -1.2905 -0.8789
  855MOL0     H15418   3.403   0.254   4.806 -0.3599  0.8943  1.9216
  855MOL0     H15419   3.362   0.520   4.843  1.3050  2.9455  3.5840
  855MOL0     H15420   3.532   0.534   4.837 -1.0613  0.9971  1.3556
  855MOL0     H15421   3.486   0.522   5.068  1.9228  0.2602 -0.9276
  855MOL0     H15422   3.554   0.373   5.020  0.9591  0.8678 -0.4933
  855MOL0     H15423   3.139   0.258   5.102 -2.3442  2.6609 -0.8634
  855MOL0     H15424   3.530   0.448   4.400 -0.0964  0.6203 -0.7644
  855MOL0     H15425   3.578   0.444   4.174 -2.6962  0.4729  1.9791
  856MOL0     O15426   8.453   6.329   3.844 -0.3799  0.0211 -0.4783
  856MOL0     C15427   8.417   6.445   3.823  0.7980 -0.1322 -0.3450
  856MOL0     O15428   8.461   6.556   3.892  0.1159 -0.5238 -0.7788
  856MOL0     C15429   8.572   6.538   3.973  0.5755 -0.4399  0.4678
  856MOL0     C15430   8.699   6.526   3.907 -0.2987  0.0090  0.2164
  856MOL0     C15431   8.810   6.518   3.989  0.0208  0.2949  0.1809
  856MOL0     C15432   8.801   6.519   4.126  0.5709  0.0547 -0.0786
  856MOL0     O15433   8.907   6.517   4.217 -0.0444 -0.4944  0.5177
  856MOL0     C15434   9.041   6.557   4.179 -0.5681  0.7313 -0.4559
  856MOL0     C15435   9.108   6.577   4.320  0.6897 -0.1203 -0.4757
  856MOL0     C15436   9.262   6.608   4.323 -1.4133  0.5070  0.5176
  856MOL0     C15437   9.338   6.573   4.461  0.3729  0.1141  0.2037
  856MOL0     C15438   9.458   6.653   4.483 -0.0716 -0.4899  0.0012
  856MOL0     C15439   9.563   6.588   4.564 -0.2069 -0.3268 -0.0195
  856MOL0     C15440   9.504   6.553   4.701 -0.9183  0.2905  1.2923
  856MOL0     C15441   9.602   6.542   4.822 -1.2087  0.0933  0.3547
  856MOL0     N15442   9.643   6.400   4.833  0.1020 -0.2098  0.6409
  856MOL0     C15443   9.752   6.350   4.758  0.2537 -0.2345 -0.4306
  856MOL0     C15444   9.776   6.225   4.804  0.3863  0.0837 -0.4066
  856MOL0     C15445   9.880   6.131   4.760 -0.7492  0.0528 -1.0117
  856MOL0     C15446   9.885   6.113   4.606  0.1744  1.0229 -0.1388
  856MOL0     C15447   9.748   6.079   4.537  0.4217  0.4180  0.3868
  856MOL0     C15448   9.662   5.974   4.614 -0.9500  0.2852  0.3072
  856MOL0     O15449   9.752   5.860   4.637  0.6316 -0.1015 -0.6196
  856MOL0     C15450   9.712   5.755   4.715  1.0199 -0.0355  0.5788
  856MOL0     C15451   9.792   5.645   4.726 -0.6572 -0.3036 -0.6731
  856MOL0     C15452   9.765   5.534   4.808  0.1292 -1.1946 -0.9459
  856MOL0     C15453   9.868   5.423   4.829  0.1611 -0.2065 -0.1522
  856MOL0     C15454   9.648   5.535   4.887 -0.1375 -0.3083  0.0310
  856MOL0     C15455   9.609   5.424   4.976 -0.4536  0.3837  0.6908
  856MOL0     O15456   9.485   5.438   5.029 -0.8015  0.0633  0.5234
  856MOL0     C15457   9.413   5.337   5.098  0.0846  0.8575  0.7241
  856MOL0     C15458   9.436   5.201   5.075 -0.3270 -0.9633  0.4168
  856MOL0     C15459   9.372   5.113   5.164  0.4289  0.5149  0.2026
  856MOL0     C15460   9.269   5.150   5.252  0.6200 -0.1106  0.5313
  856MOL0     O15461   9.223   5.044   5.335  0.1725  0.0727  0.0928
  856MOL0     C15462   9.091   5.065   5.391 -0.1153 -1.3183 -0.3935
  856MOL0     C15463   8.968   5.070   5.293 -0.1025  0.0216 -1.1304
  856MOL0     C15464   8.838   5.019   5.351  0.9504 -0.4776 -1.0693
  856MOL0     C15465   8.793   5.119   5.469 -0.5753  0.2276  1.1559
  856MOL0     C15466   8.673   5.067   5.538  0.1737 -0.3373  0.3501
  856MOL0     C15467   8.615   5.179   5.627  0.9942  0.0708  0.7627
  856MOL0     C15468   8.476   5.143   5.680  0.2409 -0.2345 -1.5247
  856MOL0     C15469   8.438   5.222   5.804 -0.4705  0.2957 -0.0365
  856MOL0    Cl15470   8.295   5.150   5.870  0.0653  0.0361  0.0390
  856MOL0     C15471   9.241   5.294   5.273 -0.1827  0.6629  0.2911
  856MOL0     C15472   9.318   5.387   5.191  0.2737 -0.5132 -0.3799
  856MOL0     O15473   9.681   5.327   5.012  0.7816 -0.2306 -0.0186
  856MOL0     C15474   9.559   5.645   4.870 -0.3191  0.2531 -0.3023
  856MOL0     C15475   9.597   5.752   4.795 -0.7713 -0.2318 -0.8753
  856MOL0     N15476   9.687   6.209   4.914  0.3008 -0.7719  0.7347
  856MOL0     N15477   9.602   6.313   4.927 -0.3226 -0.7571 -0.3468
  856MOL0     C15478   8.670   6.522   4.181  0.5515 -0.0236 -0.5335
  856MOL0     C15479   8.558   6.533   4.109  0.0588 -1.1047 -0.2713
  856MOL0     C15480   8.328   6.470   3.718 -1.2355 -0.5620 -0.6166
  856MOL0     C15481   8.235   6.366   3.683  0.3388 -0.6752 -0.3510
  856MOL0     C15482   8.132   6.396   3.584 -0.8241  1.0513 -0.3634
  856MOL0     C15483   8.139   6.505   3.513 -0.2781  0.1392 -0.0591
  856MOL0     O15484   8.041   6.526   3.411  0.7883 -0.2931 -0.2476
  856MOL0     C15485   8.024   6.649   3.335  0.1949 -0.6630  0.4953
  856MOL0     C15486   8.136   6.680   3.217  0.3992  0.2438  0.4579
  856MOL0     C15487   8.145   6.834   3.199  0.6404  0.4684 -0.2923
  856MOL0     C15488   8.281   6.883   3.178 -0.4264 -0.6792 -0.2282
  856MOL0     C15489   8.351   6.894   3.314  0.2582 -0.0666 -1.0717
  856MOL0     C15490   8.403   6.918   3.422  1.2028  0.7365  0.3888
  856MOL0     C15491   8.228   6.605   3.545 -0.1946  0.6458  0.3059
  856MOL0     C15492   8.321   6.593   3.647 -0.0674  0.1951 -0.2063
  856MOL0     H15493   8.711   6.524   3.799  1.1622  0.5017  0.3434
  856MOL0     H15494   8.910   6.503   3.949  1.0632 -2.1303  3.3345
  856MOL0     H15495   9.091   6.479   4.120 -1.4637  1.8928 -2.9123
  856MOL0     H15496   9.039   6.652   4.125  1.7840  0.6434 -0.7859
  856MOL0     H15497   9.048   6.661   4.356  0.0600  0.1382 -2.0358
  856MOL0     H15498   9.086   6.484   4.374 -0.6723 -0.2825 -1.2781
  856MOL0     H15499   9.308   6.561   4.235 -0.9548  2.5367 -0.3746
  856MOL0     H15500   9.265   6.716   4.310 -2.1846  0.7546  2.1692
  856MOL0     H15501   9.272   6.573   4.549 -1.8898  0.8169 -1.4064
  856MOL0     H15502   9.370   6.469   4.446  0.5753 -0.2007  2.4666
  856MOL0     H15503   9.515   6.668   4.391  2.6078 -0.4520  1.5456
  856MOL0     H15504   9.430   6.746   4.533 -2.6308 -0.0735 -2.0365
  856MOL0     H15505   9.602   6.496   4.520 -0.1489 -0.0200 -0.6179
  856MOL0     H15506   9.651   6.652   4.572  0.7550 -1.7287  1.1253
  856MOL0     H15507   9.433   6.631   4.732  0.3953  0.5803  3.9028
  856MOL0     H15508   9.437   6.470   4.678 -1.0613  0.3882  1.3505
  856MOL0     H15509   9.548   6.583   4.908  1.5101  2.3977  1.1105
  856MOL0     H15510   9.682   6.612   4.802 -1.7249  0.5540 -0.1245
  856MOL0     H15511   9.807   6.405   4.682  0.1199 -0.3556 -0.6170
  856MOL0     H15512   9.981   6.168   4.781 -0.4164  0.1035 -2.6267
  856MOL0     H15513   9.869   6.040   4.820 -1.7885  0.9401  0.1940
  856MOL0     H15514   9.962   6.041   4.577 -0.0442  0.3504  0.9081
  856MOL0     H15515   9.917   6.206   4.560 -0.2929  0.1542 -2.3161
  856MOL0     H15516   9.758   6.057   4.431  1.0930  0.4269  0.4442
  856MOL0     H15517   9.683   6.167   4.541  0.2433  0.7140 -4.1984
  856MOL0     H15518   9.569   5.957   4.560 -0.8969 -3.1081  1.0288
  856MOL0     H15519   9.628   6.019   4.707 -0.9647  2.1566 -0.5657
  856MOL0     H15520   9.887   5.658   4.675 -0.8963 -2.5384 -1.7989
  856MOL0     H15521   9.968   5.456   4.798 -1.2742  3.4133 -1.5264
  856MOL0     H15522   9.887   5.415   4.936  3.7569  2.0732 -0.4433
  856MOL0     H15523   9.831   5.340   4.768 -4.7701  0.8553  0.9989
  856MOL0     H15524   9.508   5.169   5.001  0.5638  2.4352 -0.3276
  856MOL0     H15525   9.389   5.007   5.150  3.5909  0.5815  2.3976
  856MOL0     H15526   9.081   4.993   5.472  2.1265 -1.7017 -0.3920
  856MOL0     H15527   9.092   5.158   5.449  0.4528 -0.2986 -1.9815
  856MOL0     H15528   8.941   5.162   5.241 -2.1855 -1.4219 -2.7988
  856MOL0     H15529   8.989   5.002   5.209 -0.6665 -0.9237 -0.5254
  856MOL0     H15530   8.834   4.916   5.387  1.1341 -0.1513 -0.0890
  856MOL0     H15531   8.758   5.028   5.277 -1.6045 -2.0685  1.2659
  856MOL0     H15532   8.868   5.140   5.546 -1.0280 -0.3332  1.7716
  856MOL0     H15533   8.771   5.215   5.422 -1.8026 -0.3019  0.6201
  856MOL0     H15534   8.692   4.981   5.603 -1.3935 -0.0216  1.2627
  856MOL0     H15535   8.614   5.019   5.459  1.9138 -0.7045 -0.7773
  856MOL0     H15536   8.690   5.202   5.703  0.9594  1.4406  0.4099
  856MOL0     H15537   8.603   5.272   5.570  0.8478 -1.3079 -1.5682
  856MOL0     H15538   8.472   5.036   5.705  0.0067  0.6640  2.9659
  856MOL0     H15539   8.401   5.172   5.606 -0.9334 -1.3837 -0.8163
  856MOL0     H15540   8.421   5.328   5.787 -3.0499  0.1515  1.1445
  856MOL0     H15541   8.519   5.215   5.876 -0.6346  0.8077  0.2019
  856MOL0     H15542   9.168   5.332   5.343 -1.0033 -0.8838  0.3247
  856MOL0     H15543   9.313   5.495   5.205 -0.8616 -0.3298 -1.8888
  856MOL0     H15544   9.470   5.651   4.933  2.3103 -0.9040  3.9682
  856MOL0     H15545   9.525   5.832   4.786 -1.0710 -0.5493 -1.3720
  856MOL0     H15546   8.656   6.542   4.286 -0.8404 -0.0251 -0.7002
  856MOL0     H15547   8.461   6.551   4.154  0.7885  0.4022  0.7912
  856MOL0     H15548   8.248   6.270   3.731  0.8010 -0.5611 -0.2435
  856MOL0     H15549   8.053   6.326   3.560  0.1055 -0.0153 -0.4207
  856MOL0     H15550   7.932   6.631   3.278 -0.6361 -1.1568  1.9409
  856MOL0     H15551   8.021   6.734   3.403  2.0461  0.2441 -0.4813
  856MOL0     H15552   8.091   6.643   3.124 -2.6945  0.3553  1.7914
  856MOL0     H15553   8.233   6.632   3.234 -0.0599 -1.3990 -1.2119
  856MOL0     H15554   8.090   6.888   3.277 -1.2019  1.0363 -1.9262
  856MOL0     H15555   8.091   6.874   3.113  1.4455  1.5765 -0.3042
  856MOL0     H15556   8.271   6.986   3.141 -2.6550 -0.9359 -0.4598
  856MOL0     H15557   8.339   6.818   3.112 -1.0098 -0.5230 -0.9064
  856MOL0     H15558   8.439   6.941   3.521  1.7958  1.5679 -0.0060
  856MOL0     H15559   8.237   6.698   3.489  2.0632  0.6542  0.5830
  856MOL0     H15560   8.380   6.682   3.662 -2.5386  1.6949  1.1816
  857MOL0     O15561   9.866   2.240   3.493 -0.6342  0.8559  0.6173
  857MOL0     C15562   9.824   2.329   3.572 -0.5767 -0.7245  0.5536
  857MOL0     O15563   9.793   2.455   3.541 -0.3655 -0.4684 -0.7785
  857MOL0     C15564   9.788   2.493   3.403  0.7858  0.4021  0.4875
  857MOL0     C15565   9.879   2.579   3.350  1.4001  0.0173 -0.0691
  857MOL0     C15566   9.864   2.616   3.209 -0.3133 -0.4326 -0.1294
  857MOL0     C15567   9.757   2.570   3.129  0.7295 -0.4129 -0.9089
  857MOL0     O15568   9.733   2.621   3.006  0.1776  0.5787  0.5068
  857MOL0     C15569   9.832   2.566   2.914 -0.3623  0.7976 -0.5888
  857MOL0     C15570   9.846   2.673   2.807 -0.2207 -0.3992  0.3241
  857MOL0     C15571   9.919   2.793   2.856 -0.2360  1.0418 -0.6840
  857MOL0     C15572  10.074   2.768   2.822  0.1551 -1.2149 -0.1511
  857MOL0     C15573  10.149   2.900   2.837 -1.2276 -0.1354  1.0472
  857MOL0     C15574  10.293   2.883   2.778  0.2058 -0.1627 -0.7586
  857MOL0     C15575  10.391   2.998   2.817 -0.5053 -0.7626  0.4132
  857MOL0     C15576  10.421   3.014   2.960  0.1085 -0.0220  0.6376
  857MOL0     N15577  10.529   3.114   2.988 -0.1527  0.1120  0.3974
  857MOL0     C15578  10.658   3.093   2.940 -0.1829  0.2175 -0.6385
  857MOL0     C15579  10.711   3.218   2.954 -0.7616  0.7626  0.2551
  857MOL0     C15580  10.855   3.246   2.906  0.2042  0.2096 -0.0050
  857MOL0     C15581  10.961   3.187   3.009 -0.5972 -0.3737  0.1642
  857MOL0     C15582  11.102   3.172   2.953  0.1347 -0.9635  0.8675
  857MOL0     C15583  11.163   3.314   2.922  0.5592 -0.3280 -0.0160
  857MOL0     O15584  11.135   3.395   3.033 -0.1548 -0.2664 -0.1349
  857MOL0     C15585  11.204   3.516   3.032  0.0009 -0.5985 -0.4476
  857MOL0     C15586  11.144   3.625   3.091 -0.0413  0.0913  0.0642
  857MOL0     C15587  11.200   3.759   3.096 -0.6350  0.1849 -0.3426
  857MOL0     C15588  11.143   3.861   3.189  1.2432  0.3850 -0.3072
  857MOL0     C15589  11.329   3.773   3.028  0.0752  0.1657 -0.4714
  857MOL0     C15590  11.403   3.899   3.036 -0.3571 -0.4434 -0.0177
  857MOL0     O15591  11.332   4.018   3.044 -1.2235 -0.5753 -0.4158
  857MOL0     C15592  11.404   4.137   3.024  0.1597  0.1671 -0.1631
  857MOL0     C15593  11.498   4.184   3.111 -0.2510  0.3506  0.4433
  857MOL0     C15594  11.567   4.296   3.083  0.3621 -0.0979 -0.4486
  857MOL0     C15595  11.532   4.369   2.971  0.3797 -0.2423  0.4524
  857MOL0     O15596  11.610   4.478   2.957 -0.1046 -0.2771 -0.3611
  857MOL0     C15597  11.702   4.486   2.849 -0.2539 -0.6427 -0.3950
  857MOL0     C15598  11.824   4.580   2.892  0.7627 -0.0974  0.4749
  857MOL0     C15599  11.906   4.514   3.004 -0.4255  0.0115  0.0370
  857MOL0     C15600  12.002   4.618   3.056 -0.0442  0.0948 -0.2946
  857MOL0     C15601  12.076   4.573   3.190  0.1931 -0.9430  0.1408
  857MOL0     C15602  12.150   4.439   3.176 -0.5556 -0.8467 -0.0998
  857MOL0     C15603  12.239   4.406   3.300 -0.2962 -0.3678 -0.3095
  857MOL0     C15604  12.351   4.516   3.335 -0.0951  0.1915  0.5822
  857MOL0    Cl15605  12.464   4.438   3.459 -0.2460  0.2139 -0.2819
  857MOL0     C15606  11.446   4.311   2.872 -0.1521 -0.9962 -0.2832
  857MOL0     C15607  11.375   4.200   2.904 -0.7296 -0.1206  0.6108
  857MOL0     O15608  11.524   3.893   3.049 -0.1730 -0.6574 -0.1123
  857MOL0     C15609  11.398   3.656   2.987  0.1677  0.4684  0.5917
  857MOL0     C15610  11.333   3.533   2.983 -0.3579  0.1087  0.9614
  857MOL0     N15611  10.625   3.297   3.034 -0.2470  0.4129  0.4488
  857MOL0     N15612  10.519   3.235   3.049  1.0215  0.0692  0.6724
  857MOL0     C15613   9.657   2.499   3.192 -0.5291 -0.2352  1.0310
  857MOL0     C15614   9.676   2.453   3.329 -0.6102 -0.3449  0.1968
  857MOL0     C15615   9.797   2.292   3.710  0.1732  0.1639  0.5412
  857MOL0     C15616   9.861   2.181   3.764  0.7288  0.8175  0.3766
  857MOL0     C15617   9.830   2.156   3.899  0.1247  0.2122 -0.0127
  857MOL0     C15618   9.761   2.247   3.982 -0.0333  0.5184 -0.1741
  857MOL0     O15619   9.746   2.207   4.106  0.1047  0.3853 -0.2136
  857MOL0     C15620   9.619   2.219   4.165  0.5284  0.2715 -0.5105
  857MOL0     C15621   9.645   2.205   4.313 -0.0394  0.5008 -0.0151
  857MOL0     C15622   9.708   2.072   4.348  0.5017  0.5791  0.2082
  857MOL0     C15623   9.605   1.957   4.351 -0.6497  0.6273  0.6681
  857MOL0     C15624   9.674   1.822   4.366 -0.0697 -0.4428 -0.3130
  857MOL0     C15625   9.716   1.712   4.369  0.0307  0.3184 -0.5373
  857MOL0     C15626   9.701   2.359   3.928  0.1145  0.1758 -0.5482
  857MOL0     C15627   9.722   2.388   3.792  0.7126 -0.2086 -0.2090
  857MOL0     H15628   9.956   2.625   3.412  1.5634 -0.1953 -0.1109
  857MOL0     H15629   9.938   2.684   3.170  1.0162 -3.2484 -2.9770
  857MOL0     H15630   9.932   2.560   2.957 -1.2551  3.4385  2.1254
  857MOL0     H15631   9.796   2.472   2.870  2.0689 -0.3537 -0.2575
  857MOL0     H15632   9.886   2.633   2.713  0.0569  0.3807  0.1070
  857MOL0     H15633   9.744   2.702   2.779  0.2135 -0.6584 -1.6587
  857MOL0     H15634   9.888   2.886   2.806  0.2721  1.3584 -0.4279
  857MOL0     H15635   9.907   2.821   2.961 -0.3850  3.0922 -1.1937
  857MOL0     H15636  10.111   2.703   2.903 -1.3140 -0.7911  0.9016
  857MOL0     H15637  10.084   2.721   2.724  0.0378 -1.9777  0.1934
  857MOL0     H15638  10.093   2.986   2.799 -2.8339  0.1976  3.8769
  857MOL0     H15639  10.146   2.915   2.945  1.9512  0.9168  1.0948
  857MOL0     H15640  10.332   2.787   2.812  2.3776  0.7728 -0.4414
  857MOL0     H15641  10.287   2.867   2.670 -1.8899 -1.0560 -0.5669
  857MOL0     H15642  10.485   2.974   2.766  0.2910 -2.0285  2.3571
  857MOL0     H15643  10.353   3.093   2.779 -2.1244 -1.1902  0.8774
  857MOL0     H15644  10.441   2.910   2.988 -1.3450 -0.2536  0.8791
  857MOL0     H15645  10.334   3.049   3.017 -0.1268  0.5722 -0.0725
  857MOL0     H15646  10.705   3.014   2.883 -0.2451 -0.0327 -0.3449
  857MOL0     H15647  10.864   3.195   2.809  1.6550 -0.1762  0.3008
  857MOL0     H15648  10.871   3.354   2.905 -3.3866  0.8611  1.0385
  857MOL0     H15649  10.931   3.085   3.034 -1.1224 -0.8512 -2.1758
  857MOL0     H15650  10.967   3.247   3.100  0.4508  0.6621 -0.5683
  857MOL0     H15651  11.112   3.109   2.864  1.4019 -4.7452  3.3924
  857MOL0     H15652  11.163   3.114   3.024  1.8517 -0.5514 -0.2193
  857MOL0     H15653  11.107   3.347   2.834  1.5688  1.4379 -0.0380
  857MOL0     H15654  11.264   3.303   2.881  0.2012  2.9303 -2.1023
  857MOL0     H15655  11.044   3.620   3.134  0.3829 -0.8801  0.9836
  857MOL0     H15656  11.126   3.963   3.152  0.2990  0.6790  0.8299
  857MOL0     H15657  11.045   3.821   3.217  1.3622  0.2005 -0.1548
  857MOL0     H15658  11.207   3.869   3.278 -0.2073  1.0085  0.7369
  857MOL0     H15659  11.522   4.129   3.202 -1.7784 -0.2115  0.5309
  857MOL0     H15660  11.646   4.331   3.148  0.3510 -1.1913  0.1728
  857MOL0     H15661  11.743   4.393   2.809  3.7707 -0.6414  2.9736
  857MOL0     H15662  11.648   4.534   2.767 -1.7704 -2.1956 -0.3575
  857MOL0     H15663  11.884   4.586   2.801 -2.6180  0.9855 -1.9001
  857MOL0     H15664  11.782   4.678   2.919  1.0514 -0.0474  0.7457
  857MOL0     H15665  11.951   4.420   2.970 -1.9541 -1.4813  1.8851
  857MOL0     H15666  11.842   4.473   3.083  0.9100 -2.3361 -0.0074
  857MOL0     H15667  12.074   4.644   2.979  0.2703  1.0977  0.3125
  857MOL0     H15668  11.949   4.710   3.084 -0.5905  1.0094 -3.8238
  857MOL0     H15669  12.009   4.580   3.276 -1.1989  0.5131 -1.0130
  857MOL0     H15670  12.154   4.645   3.216  0.3265 -0.0435 -2.4674
  857MOL0     H15671  12.068   4.368   3.166 -1.8190 -0.0112  2.9602
  857MOL0     H15672  12.204   4.435   3.081 -0.2601  0.1586  0.0058
  857MOL0     H15673  12.292   4.313   3.278  0.1060  0.2153 -1.9177
  857MOL0     H15674  12.174   4.385   3.385  2.5605 -3.2205  1.4247
  857MOL0     H15675  12.301   4.602   3.380 -0.7625  0.0224  0.1809
  857MOL0     H15676  12.418   4.549   3.254  0.3551  2.2484  1.7156
  857MOL0     H15677  11.434   4.370   2.783 -2.3494 -0.3529  0.3845
  857MOL0     H15678  11.310   4.150   2.833 -1.4397 -0.9836  1.8259
  857MOL0     H15679  11.502   3.649   2.959  1.1840 -0.7938  4.2018
  857MOL0     H15680  11.384   3.445   2.944  0.1216  0.4331  0.8442
  857MOL0     H15681   9.560   2.476   3.149 -1.2257  0.5400  2.1368
  857MOL0     H15682   9.597   2.387   3.365 -1.4649  0.4008 -0.2746
  857MOL0     H15683   9.923   2.118   3.701 -0.3784 -1.0062  1.0151
  857MOL0     H15684   9.864   2.067   3.951 -1.3996 -0.5998 -0.3407
  857MOL0     H15685   9.569   2.314   4.147  0.5458  0.4173  0.1751
  857MOL0     H15686   9.555   2.132   4.148 -0.7294  0.6310  1.9115
  857MOL0     H15687   9.550   2.221   4.366  0.7085 -1.4835  2.0985
  857MOL0     H15688   9.715   2.286   4.333 -1.8055  2.4884 -1.5157
  857MOL0     H15689   9.746   2.066   4.451 -2.6039 -2.5857  1.3994
  857MOL0     H15690   9.793   2.057   4.281 -1.1551 -0.8934 -1.6962
  857MOL0     H15691   9.534   1.956   4.267 -0.8504 -1.4429  0.8274
  857MOL0     H15692   9.539   1.966   4.437 -2.0369 -0.6095 -0.2331
  857MOL0     H15693   9.767   1.617   4.370 -0.9912 -0.2781  1.8123
  857MOL0     H15694   9.638   2.425   3.986 -1.1332  2.0585 -3.7748
  857MOL0     H15695   9.671   2.474   3.750 -1.0840 -1.0228  0.2247
  858MOL0     O15696   0.731   1.041   4.600  0.1514  0.1932  0.0395
  858MOL0     C15697   0.856   1.044   4.608 -0.4794  0.2578 -0.2446
  858MOL0     O15698   0.932   1.058   4.723  0.3827 -0.1520 -0.6697
  858MOL0     C15699   0.868   1.084   4.845  0.1935  0.2649 -1.0123
  858MOL0     C15700   0.759   1.169   4.864 -0.5921 -0.3813 -0.6029
  858MOL0     C15701   0.682   1.169   4.983 -0.9599 -0.6178 -0.6603
  858MOL0     C15702   0.713   1.100   5.098  0.4747  0.0775  0.6147
  858MOL0     O15703   0.648   1.110   5.217 -0.5573  0.8925 -0.2104
  858MOL0     C15704   0.553   1.217   5.235 -0.0800 -0.1260 -0.0655
  858MOL0     C15705   0.408   1.196   5.190 -0.3776  0.8065 -0.2248
  858MOL0     C15706   0.323   1.111   5.288 -0.0799 -0.0289 -0.6262
  858MOL0     C15707   0.183   1.171   5.296  0.7666 -0.5216 -0.0524
  858MOL0     C15708   0.103   1.149   5.170 -0.5799  0.6763 -0.6885
  858MOL0     C15709  -0.054   1.162   5.188 -0.1454  0.0444 -0.8871
  858MOL0     C15710  -0.116   1.151   5.049  0.4061 -0.5822 -0.3769
  858MOL0     C15711  -0.269   1.159   5.066  0.4213 -0.5387 -0.8928
  858MOL0     N15712  -0.330   1.178   4.932  0.4506  0.3490 -0.5075
  858MOL0     C15713  -0.379   1.073   4.841 -0.6657 -0.7741  0.1381
  858MOL0     C15714  -0.436   1.141   4.741  0.2225 -0.1945  0.3631
  858MOL0     C15715  -0.527   1.089   4.629 -0.7785 -0.0058  0.2781
  858MOL0     C15716  -0.679   1.105   4.665 -0.2993 -0.8047 -0.6171
  858MOL0     C15717  -0.787   1.098   4.553  0.2268 -0.3334 -0.2640
  858MOL0     C15718  -0.924   1.047   4.607 -0.2733 -0.1352  0.6874
  858MOL0     O15719  -1.007   1.001   4.502 -0.3408 -0.1974 -1.3574
  858MOL0     C15720  -1.129   0.950   4.520  0.3290  0.6816 -0.2027
  858MOL0     C15721  -1.194   0.878   4.410  0.1791  0.4599  0.5883
  858MOL0     C15722  -1.322   0.829   4.412 -0.4310 -0.7129 -0.2074
  858MOL0     C15723  -1.372   0.748   4.291  0.5581 -0.3718 -0.2185
  858MOL0     C15724  -1.399   0.857   4.532  0.3949  0.7175 -0.0478
  858MOL0     C15725  -1.536   0.810   4.555 -0.5458  0.5704  0.5571
  858MOL0     O15726  -1.620   0.822   4.439  0.3296  0.7528 -0.4367
  858MOL0     C15727  -1.759   0.823   4.474 -0.2172  0.8360  1.0976
  858MOL0     C15728  -1.824   0.887   4.583  1.1272  0.0696  0.8727
  858MOL0     C15729  -1.958   0.877   4.592  0.2933 -1.1215 -0.4130
  858MOL0     C15730  -2.035   0.818   4.499  0.8414 -0.7935 -0.1979
  858MOL0     O15731  -2.176   0.846   4.494  0.3145 -0.4270 -0.2785
  858MOL0     C15732  -2.265   0.776   4.412  0.3743 -0.5255  0.6202
  858MOL0     C15733  -2.406   0.835   4.406  0.1413  0.6260  0.2171
  858MOL0     C15734  -2.501   0.752   4.321 -0.4478 -0.1034 -0.1684
  858MOL0     C15735  -2.646   0.805   4.326  0.6402 -0.4900  0.1782
  858MOL0     C15736  -2.757   0.726   4.251  0.1654 -0.2322  0.3785
  858MOL0     C15737  -2.888   0.803   4.251  1.1580 -0.2798 -0.3295
  858MOL0     C15738  -2.982   0.739   4.145  0.2083  0.1546 -0.1505
  858MOL0     C15739  -3.129   0.751   4.189 -0.2355 -0.9408  0.1941
  858MOL0    Cl15740  -3.175   0.903   4.265 -0.0542  0.2341 -0.3835
  858MOL0     C15741  -1.978   0.748   4.390 -1.0277 -0.0495  0.1488
  858MOL0     C15742  -1.833   0.756   4.378 -0.0373  0.3811  0.4779
  858MOL0     O15743  -1.569   0.769   4.660 -0.1027  0.1807 -0.2158
  858MOL0     C15744  -1.337   0.923   4.638  0.0850 -0.3890  0.2850
  858MOL0     C15745  -1.204   0.967   4.632 -0.7562  0.8367  0.6187
  858MOL0     N15746  -0.431   1.280   4.761  0.0437  0.2270  0.1184
  858MOL0     N15747  -0.370   1.297   4.877 -0.3644 -0.0706  0.3555
  858MOL0     C15748   0.831   1.031   5.093  0.0225  0.3040  0.3248
  858MOL0     C15749   0.908   1.016   4.965 -0.0603 -0.5225 -0.0886
  858MOL0     C15750   0.929   1.038   4.476  0.0083  0.3591  0.9125
  858MOL0     C15751   1.066   1.066   4.481  0.7173 -0.3164 -0.6777
  858MOL0     C15752   1.140   1.074   4.366  0.8706  1.3913 -0.0806
  858MOL0     C15753   1.085   1.040   4.242  0.8043  0.6235  0.5858
  858MOL0     O15754   1.156   1.056   4.130 -0.0691  0.1033  0.3925
  858MOL0     C15755   1.092   1.066   4.000  0.4574 -0.2392  0.1862
  858MOL0     C15756   1.160   1.180   3.913 -1.4772  1.1560 -1.2782
  858MOL0     C15757   1.112   1.314   3.963  0.3511 -0.1142 -0.2797
  858MOL0     C15758   1.158   1.438   3.883 -0.3841  0.5779  0.2556
  858MOL0     C15759   1.126   1.428   3.742  1.2082  0.6443  0.8190
  858MOL0     C15760   1.102   1.398   3.628 -0.1470 -0.3971 -0.3767
  858MOL0     C15761   0.947   0.994   4.233  0.3046 -1.0599 -0.3018
  858MOL0     C15762   0.869   0.994   4.354  0.0885 -0.5872  0.3641
  858MOL0     H15763   0.725   1.227   4.779  0.2742 -0.8528 -1.2887
  858MOL0     H15764   0.596   1.234   4.984  0.4587  1.3507 -0.6116
  858MOL0     H15765   0.542   1.248   5.339 -0.3055  0.6057 -0.2947
  858MOL0     H15766   0.593   1.309   5.190 -1.0524 -0.4424 -1.6899
  858MOL0     H15767   0.362   1.292   5.167  0.6962  1.2397 -0.6650
  858MOL0     H15768   0.405   1.151   5.090  0.7066  1.9141 -0.7895
  858MOL0     H15769   0.316   1.011   5.244 -1.6799  0.8430 -2.4742
  858MOL0     H15770   0.355   1.104   5.393 -3.8462 -2.4623  0.5817
  858MOL0     H15771   0.131   1.132   5.384  1.3099 -1.0380  0.0500
  858MOL0     H15772   0.183   1.279   5.309  0.2471 -0.2040 -2.2514
  858MOL0     H15773   0.131   1.234   5.106 -0.4547 -0.2938 -1.9642
  858MOL0     H15774   0.138   1.058   5.121  1.9431  2.5499 -2.7047
  858MOL0     H15775  -0.077   1.074   5.247 -0.4353 -0.5553 -1.8734
  858MOL0     H15776  -0.086   1.252   5.240 -4.4638 -2.0324  0.4623
  858MOL0     H15777  -0.088   1.241   4.994  2.2091 -1.2724 -0.6440
  858MOL0     H15778  -0.087   1.056   5.005 -1.7900 -2.4314  1.8280
  858MOL0     H15779  -0.304   1.236   5.135  0.5505 -0.3766 -1.0040
  858MOL0     H15780  -0.304   1.065   5.107 -0.4426 -0.0842 -0.5668
  858MOL0     H15781  -0.358   0.967   4.830  0.4008 -0.5380 -0.2444
  858MOL0     H15782  -0.495   1.136   4.535 -0.2072  1.0673  0.9826
  858MOL0     H15783  -0.511   0.982   4.614  1.2976  0.4161 -0.9644
  858MOL0     H15784  -0.689   1.202   4.714  2.3084 -0.0351 -1.4195
  858MOL0     H15785  -0.696   1.028   4.741  1.5219 -0.0976  0.5972
  858MOL0     H15786  -0.747   1.026   4.481  1.3316 -2.0441  1.9311
  858MOL0     H15787  -0.811   1.193   4.506  0.1380 -0.2120  0.0222
  858MOL0     H15788  -0.977   1.130   4.656 -0.6461 -0.5036  0.9061
  858MOL0     H15789  -0.920   0.958   4.671  0.9072  0.5886  1.6682
  858MOL0     H15790  -1.127   0.866   4.325 -2.6065  0.3209 -1.7136
  858MOL0     H15791  -1.288   0.710   4.232  1.7158 -2.0958  2.3689
  858MOL0     H15792  -1.422   0.661   4.335  2.3745 -1.6649 -0.6088
  858MOL0     H15793  -1.448   0.802   4.234 -1.2996  0.3228  2.6952
  858MOL0     H15794  -1.780   0.949   4.660 -0.8474  2.5442  0.1504
  858MOL0     H15795  -2.011   0.926   4.674 -1.1442 -1.5288 -1.0577
  858MOL0     H15796  -2.224   0.765   4.311  0.5527 -1.6114  0.7989
  858MOL0     H15797  -2.269   0.678   4.461 -3.2378 -1.9144 -2.0056
  858MOL0     H15798  -2.452   0.834   4.505  0.0318 -1.9808  0.2160
  858MOL0     H15799  -2.422   0.937   4.370 -1.8418 -0.6308 -2.9090
  858MOL0     H15800  -2.495   0.650   4.360  2.3562 -0.0916 -0.3788
  858MOL0     H15801  -2.469   0.752   4.216  0.4339  0.1844  0.0919
  858MOL0     H15802  -2.668   0.810   4.433  0.6476 -1.6430  0.2430
  858MOL0     H15803  -2.645   0.912   4.303 -1.5015  0.2772  3.0265
  858MOL0     H15804  -2.768   0.625   4.293 -1.0662  0.6440  2.3260
  858MOL0     H15805  -2.729   0.709   4.147  0.7532  0.2145  0.4561
  858MOL0     H15806  -2.932   0.803   4.352 -1.9984  4.0373 -1.4361
  858MOL0     H15807  -2.866   0.909   4.237  2.5313 -0.2105  1.9096
  858MOL0     H15808  -2.961   0.633   4.127 -2.8481 -0.6168  0.3432
  858MOL0     H15809  -2.954   0.796   4.056  1.2938  2.9286  1.8189
  858MOL0     H15810  -3.163   0.667   4.249  0.4209 -0.2764  1.5322
  858MOL0     H15811  -3.184   0.750   4.094  0.2011 -1.4092 -0.0567
  858MOL0     H15812  -2.031   0.708   4.305 -3.5385 -1.3856  2.1962
  858MOL0     H15813  -1.782   0.719   4.290 -0.8263 -0.4749  0.3651
  858MOL0     H15814  -1.379   0.956   4.732  1.2221  1.7846  0.1117
  858MOL0     H15815  -1.164   1.021   4.717  1.7652  3.0769 -1.7897
  858MOL0     H15816   0.867   0.975   5.179  0.6169 -1.4586 -1.0010
  858MOL0     H15817   0.996   0.953   4.962  0.5216  0.2225  0.7470
  858MOL0     H15818   1.120   1.102   4.568 -0.0276  0.3466 -0.4786
  858MOL0     H15819   1.244   1.105   4.365  0.6326  2.2252 -0.5929
  858MOL0     H15820   1.110   0.968   3.956 -1.5606 -0.9009  0.6921
  858MOL0     H15821   0.984   1.087   3.999  0.3773 -0.6370 -1.2690
  858MOL0     H15822   1.125   1.163   3.811 -2.1576  1.8470 -1.1722
  858MOL0     H15823   1.268   1.163   3.917 -1.6792 -0.3437  2.9737
  858MOL0     H15824   1.144   1.315   4.068 -1.9622 -4.4312  0.7383
  858MOL0     H15825   1.006   1.303   3.989  0.4102  1.0386  0.5205
  858MOL0     H15826   1.266   1.453   3.874 -0.8418  3.3317 -3.6194
  858MOL0     H15827   1.106   1.529   3.914 -2.9539 -0.6278 -0.2153
  858MOL0     H15828   1.092   1.359   3.529 -0.3487 -1.1625 -0.0657
  858MOL0     H15829   0.885   0.966   4.149 -2.0974  1.4119  0.5071
  858MOL0     H15830   0.770   0.949   4.346  0.3547 -0.8673 -3.4250
  859MOL0     O15831   5.298   6.396   6.957  0.2446  0.0594  0.0637
  859MOL0     C15832   5.212   6.353   7.031  0.3262 -0.0641 -0.1736
  859MOL0     O15833   5.228   6.254   7.124 -0.0244 -1.1599  0.1310
  859MOL0     C15834   5.358   6.204   7.123  0.2593  0.1296 -0.2193
  859MOL0     C15835   5.387   6.088   7.053  0.4513 -0.1541  0.3952
  859MOL0     C15836   5.514   6.029   7.067 -0.0375  0.2199 -0.2896
  859MOL0     C15837   5.616   6.094   7.146 -0.2469 -0.5828 -0.5634
  859MOL0     O15838   5.741   6.042   7.169  0.3300 -0.2944 -0.3400
  859MOL0     C15839   5.802   5.926   7.105 -0.0162  0.1541 -0.6966
  859MOL0     C15840   5.959   5.922   7.124  0.1286  0.0132  0.4754
  859MOL0     C15841   6.003   5.886   7.258 -0.0393 -0.0699  0.7935
  859MOL0     C15842   6.004   6.011   7.348 -0.3630  1.0432  0.9696
  859MOL0     C15843   5.994   5.975   7.493  0.0052  0.3507  0.0906
  859MOL0     C15844   5.978   6.101   7.573  0.0395  0.2232 -0.0447
  859MOL0     C15845   5.844   6.176   7.572  1.0968  0.7614 -0.3573
  859MOL0     C15846   5.873   6.329   7.603  0.4202  0.0479 -0.0257
  859MOL0     N15847   5.771   6.424   7.558 -0.0905  0.6362  0.3485
  859MOL0     C15848   5.665   6.461   7.638 -0.1156  0.5246 -0.5292
  859MOL0     C15849   5.568   6.517   7.569 -0.9454  0.6873  0.2655
  859MOL0     C15850   5.426   6.559   7.603 -0.5049  0.2721  0.2978
  859MOL0     C15851   5.326   6.461   7.535 -0.0989  0.5039 -0.4577
  859MOL0     C15852   5.248   6.533   7.431 -0.7646  0.5070  0.0797
  859MOL0     C15853   5.110   6.559   7.474 -0.5326  0.2593 -0.3975
  859MOL0     O15854   5.039   6.597   7.351  0.4938 -0.1126 -0.6276
  859MOL0     C15855   4.904   6.613   7.361  0.1117  0.3959  0.3129
  859MOL0     C15856   4.842   6.682   7.255 -0.6212  0.2886 -0.4486
  859MOL0     C15857   4.700   6.702   7.244  0.2098 -0.1316 -1.1509
  859MOL0     C15858   4.647   6.758   7.115 -0.3294  1.1812 -0.0485
  859MOL0     C15859   4.612   6.646   7.350 -0.3776 -0.3217  0.2115
  859MOL0     C15860   4.462   6.672   7.357 -0.5934  0.3415 -0.4329
  859MOL0     O15861   4.383   6.620   7.449  0.7338  0.4845 -0.3035
  859MOL0     C15862   4.250   6.647   7.427 -0.3695  0.9835  0.0555
  859MOL0     C15863   4.186   6.761   7.461 -0.0220  0.2271 -0.2937
  859MOL0     C15864   4.069   6.793   7.411 -0.1831  0.9586 -0.4102
  859MOL0     C15865   3.980   6.702   7.349 -0.2180 -0.3468  0.7410
  859MOL0     O15866   3.852   6.740   7.325  0.2548  0.1225  0.2005
  859MOL0     C15867   3.790   6.671   7.213 -0.3782 -0.3732 -0.5164
  859MOL0     C15868   3.694   6.766   7.130  1.0400 -0.3337  0.5938
  859MOL0     C15869   3.775   6.882   7.072  0.8650  0.3648  0.3002
  859MOL0     C15870   3.682   6.969   6.995 -0.7271 -0.2700  0.2678
  859MOL0     C15871   3.761   7.055   6.889 -0.0978 -0.5901  0.2699
  859MOL0     C15872   3.660   7.148   6.814 -0.6345 -0.3717 -0.4120
  859MOL0     C15873   3.736   7.267   6.766  1.0109 -0.4431 -0.9127
  859MOL0     C15874   3.657   7.339   6.659  0.2053  0.0750 -1.1618
  859MOL0    Cl15875   3.720   7.275   6.505  0.1186  0.2863  0.0529
  859MOL0     C15876   4.042   6.584   7.305 -0.3288 -1.0585  0.6192
  859MOL0     C15877   4.174   6.553   7.351  0.0926  0.0438  0.3470
  859MOL0     O15878   4.424   6.753   7.274 -1.1585  0.4660  0.2606
  859MOL0     C15879   4.679   6.580   7.462  0.8981 -0.3019  0.2355
  859MOL0     C15880   4.820   6.574   7.463 -0.6465 -0.2220 -0.6838
  859MOL0     N15881   5.620   6.524   7.437 -0.0806 -0.4124 -0.4926
  859MOL0     N15882   5.732   6.447   7.429 -0.0133  0.1707 -0.8366
  859MOL0     C15883   5.576   6.211   7.211 -0.3258  0.8430 -0.2800
  859MOL0     C15884   5.455   6.273   7.195 -0.3238  0.0336 -0.1273
  859MOL0     C15885   5.072   6.411   7.008  0.3483  0.1625  0.4430
  859MOL0     C15886   5.040   6.507   6.905  0.8519 -0.6614 -0.3338
  859MOL0     C15887   4.906   6.540   6.877 -0.0073 -0.3690  0.1076
  859MOL0     C15888   4.802   6.478   6.949 -1.4766  0.2648 -0.1902
  859MOL0     O15889   4.668   6.493   6.920 -1.0371 -0.6194  0.2009
  859MOL0     C15890   4.634   6.451   6.792  0.0963  0.6281 -0.4477
  859MOL0     C15891   4.537   6.546   6.719  0.0286 -0.1592  0.2084
  859MOL0     C15892   4.516   6.511   6.569 -0.2381  0.4447  0.4824
  859MOL0     C15893   4.371   6.481   6.523  0.4564 -0.3172 -0.6396
  859MOL0     C15894   4.293   6.604   6.526 -0.5430 -0.0538 -0.2132
  859MOL0     C15895   4.236   6.708   6.540  0.3026 -0.0257 -0.5816
  859MOL0     C15896   4.833   6.386   7.051  0.5166 -1.0483  0.7496
  859MOL0     C15897   4.968   6.358   7.078  0.5190  0.7228  0.2829
  859MOL0     H15898   5.306   6.048   6.993  0.2082 -3.3301  2.6100
  859MOL0     H15899   5.529   5.937   7.012 -0.3602  0.6759 -1.1613
  859MOL0     H15900   5.747   5.842   7.149 -4.9699  2.1909 -2.2047
  859MOL0     H15901   5.796   5.926   6.996 -0.2743 -0.9652 -0.6895
  859MOL0     H15902   5.994   5.847   7.053  0.6416  0.2507  0.4740
  859MOL0     H15903   5.993   6.021   7.091 -0.8721  0.1173 -0.2803
  859MOL0     H15904   5.930   5.811   7.289 -0.3538 -0.0033  0.2215
  859MOL0     H15905   6.095   5.826   7.255  1.0607  1.5995 -1.8876
  859MOL0     H15906   6.087   6.079   7.328  1.9558 -1.0379  2.8262
  859MOL0     H15907   5.916   6.072   7.327  0.2071  1.0664 -1.8186
  859MOL0     H15908   5.904   5.912   7.501 -0.4148  0.7630 -1.1584
  859MOL0     H15909   6.086   5.924   7.520 -0.2716  0.6944  1.7702
  859MOL0     H15910   6.007   6.061   7.670 -3.6328 -2.8217  0.0101
  859MOL0     H15911   6.058   6.172   7.549 -0.8618  0.7663 -1.5895
  859MOL0     H15912   5.791   6.161   7.477 -1.3103  1.2217  0.8286
  859MOL0     H15913   5.781   6.130   7.649  0.0781  3.7844  0.7691
  859MOL0     H15914   5.965   6.354   7.549  1.5229 -1.7335  0.9420
  859MOL0     H15915   5.899   6.338   7.709  1.9054 -0.9540 -0.2670
  859MOL0     H15916   5.656   6.441   7.744  2.5264  2.1643  0.0982
  859MOL0     H15917   5.415   6.551   7.712 -2.0030  0.4464  0.1729
  859MOL0     H15918   5.418   6.666   7.579  2.3903  0.4025 -0.4304
  859MOL0     H15919   5.262   6.431   7.618 -2.6268  1.8696 -1.7692
  859MOL0     H15920   5.379   6.371   7.501 -1.8854 -0.5652 -0.5498
  859MOL0     H15921   5.241   6.466   7.345 -2.0120 -1.1637  1.4086
  859MOL0     H15922   5.309   6.615   7.390 -2.4455  2.0687  0.5398
  859MOL0     H15923   5.104   6.642   7.544  1.7706 -0.1944  0.4308
  859MOL0     H15924   5.067   6.466   7.511  0.2463 -0.1930 -0.5873
  859MOL0     H15925   4.912   6.710   7.178  1.4760  1.3444  1.7074
  859MOL0     H15926   4.559   6.699   7.089  0.5628 -1.4133  2.3110
  859MOL0     H15927   4.625   6.863   7.135 -1.5768  0.7452  0.9315
  859MOL0     H15928   4.720   6.753   7.033  1.7575  3.5280  1.5023
  859MOL0     H15929   4.249   6.829   7.517  1.7067 -1.1947 -0.4117
  859MOL0     H15930   4.032   6.887   7.451 -0.5939  0.7696 -0.3389
  859MOL0     H15931   3.857   6.623   7.141  1.0407 -0.2646  0.6829
  859MOL0     H15932   3.734   6.590   7.261 -1.6230  1.9553  2.3019
  859MOL0     H15933   3.650   6.710   7.048 -2.3025  0.5221  1.6590
  859MOL0     H15934   3.609   6.796   7.192 -1.1797  1.2144 -2.9200
  859MOL0     H15935   3.845   6.828   7.007 -2.0594 -0.7374 -2.1682
  859MOL0     H15936   3.827   6.926   7.158  0.2109  0.6978  0.5316
  859MOL0     H15937   3.608   6.908   6.943  1.9217 -1.2285 -2.6547
  859MOL0     H15938   3.627   7.029   7.069 -2.0697  1.4722 -2.0339
  859MOL0     H15939   3.800   6.980   6.820 -0.1042 -1.0177  0.7272
  859MOL0     H15940   3.834   7.117   6.942 -0.6429  0.7719 -0.5048
  859MOL0     H15941   3.611   7.081   6.742  1.3581 -1.1698 -1.0949
  859MOL0     H15942   3.590   7.189   6.888 -2.0497 -0.9084 -1.4020
  859MOL0     H15943   3.833   7.230   6.733  1.4475 -2.1493  1.9216
  859MOL0     H15944   3.751   7.339   6.847  0.9534 -1.4968  0.0717
  859MOL0     H15945   3.678   7.446   6.668 -1.3373  0.2301  1.1159
  859MOL0     H15946   3.549   7.326   6.662  0.2009 -0.7100 -3.1024
  859MOL0     H15947   3.995   6.504   7.248  1.5872 -1.4477 -0.5307
  859MOL0     H15948   4.209   6.454   7.323 -3.4803 -1.7739  1.6070
  859MOL0     H15949   4.614   6.549   7.543  1.0513  0.1056  0.5129
  859MOL0     H15950   4.879   6.533   7.544  2.9272  3.2440 -1.2120
  859MOL0     H15951   5.642   6.261   7.281 -1.5786  0.8863  0.9108
  859MOL0     H15952   5.436   6.364   7.251 -1.4746 -1.3888  1.9083
  859MOL0     H15953   5.127   6.550   6.856  1.0896 -0.3607  0.3411
  859MOL0     H15954   4.882   6.600   6.790  1.0146 -0.7843 -0.4788
  859MOL0     H15955   4.728   6.450   6.735  2.1354  1.3348  2.6646
  859MOL0     H15956   4.583   6.354   6.794 -1.9578  1.6697 -0.2699
  859MOL0     H15957   4.582   6.646   6.713 -1.0041  0.2998 -0.1946
  859MOL0     H15958   4.445   6.543   6.778  0.3508 -2.0937  0.6596
  859MOL0     H15959   4.566   6.415   6.554  1.6359  1.3132  0.8544
  859MOL0     H15960   4.562   6.592   6.511 -1.0114  1.4462  1.2388
  859MOL0     H15961   4.325   6.391   6.567 -0.5759 -0.1447 -1.3256
  859MOL0     H15962   4.376   6.458   6.416 -0.9684 -0.1776 -0.7586
  859MOL0     H15963   4.202   6.809   6.542  0.0873 -0.0943 -0.7786
  859MOL0     H15964   4.756   6.338   7.111 -2.8020  2.6302 -0.1430
  859MOL0     H15965   4.986   6.303   7.170  0.6784  2.7636  1.5364
  860MOL0     O15966  10.368   0.055   3.565 -0.2335 -0.3323 -0.1111
  860MOL0     C15967  10.291  -0.046   3.558  0.1978 -0.2450  0.4230
  860MOL0     O15968  10.325  -0.179   3.540 -0.6195  0.2573  0.1004
  860MOL0     C15969  10.462  -0.215   3.530  0.8018  0.6691  0.1643
  860MOL0     C15970  10.501  -0.303   3.432 -0.1267  0.1890 -0.7131
  860MOL0     C15971  10.635  -0.334   3.416  0.0958 -0.1960 -0.6620
  860MOL0     C15972  10.735  -0.272   3.505 -0.6558 -0.5978 -0.5637
  860MOL0     O15973  10.870  -0.299   3.513  0.1635  0.5377 -0.4214
  860MOL0     C15974  10.931  -0.300   3.385 -0.3236  1.4255 -0.0023
  860MOL0     C15975  11.083  -0.249   3.383  0.7180 -0.4163 -0.7309
  860MOL0     C15976  11.100  -0.108   3.443  0.2094  0.0149 -0.2650
  860MOL0     C15977  11.018  -0.004   3.362 -0.1718 -0.6324  0.4785
  860MOL0     C15978  11.013   0.133   3.439  0.4746  0.9711 -1.0282
  860MOL0     C15979  10.910   0.115   3.556 -0.2605 -0.1126  0.2647
  860MOL0     C15980  10.837   0.243   3.582 -0.7099  0.4040  0.2422
  860MOL0     C15981  10.706   0.214   3.648 -0.1787  0.1100 -0.5540
  860MOL0     N15982  10.654   0.325   3.730  0.2438 -0.0089  0.0975
  860MOL0     C15983  10.654   0.456   3.678 -0.6535  0.0699  0.4745
  860MOL0     C15984  10.658   0.531   3.791 -0.3340  0.1016  0.7130
  860MOL0     C15985  10.686   0.683   3.809  1.0163 -0.2643  0.8603
  860MOL0     C15986  10.830   0.725   3.839 -0.4305  0.1160 -0.0829
  860MOL0     C15987  10.927   0.650   3.749 -0.3986 -0.5603 -0.0357
  860MOL0     C15988  10.922   0.679   3.599 -0.4291 -0.3786 -0.7325
  860MOL0     O15989  10.993   0.575   3.529 -0.2844 -0.4367 -0.8110
  860MOL0     C15990  11.130   0.594   3.516 -0.0398  0.2924 -0.2513
  860MOL0     C15991  11.199   0.507   3.424 -0.0037 -0.2876 -0.8374
  860MOL0     C15992  11.330   0.517   3.390 -0.3756  0.1475 -0.9631
  860MOL0     C15993  11.386   0.425   3.283  0.1721 -0.1137  0.3338
  860MOL0     C15994  11.415   0.612   3.455  0.1341 -0.7595  0.3463
  860MOL0     C15995  11.554   0.644   3.430 -0.1716  0.4897 -0.6451
  860MOL0     O15996  11.601   0.764   3.462 -0.8163 -0.0777 -0.0004
  860MOL0     C15997  11.726   0.814   3.420 -0.8052 -0.4823 -0.3139
  860MOL0     C15998  11.821   0.761   3.330 -0.5788 -0.3494  0.2620
  860MOL0     C15999  11.926   0.834   3.283 -0.0969 -0.1037  0.8422
  860MOL0     C16000  11.956   0.958   3.336 -0.2212  0.0822 -0.7020
  860MOL0     O16001  12.065   1.016   3.289 -0.2496  0.2389  0.8326
  860MOL0     C16002  12.163   1.055   3.384 -0.4828 -0.4621  0.3164
  860MOL0     C16003  12.153   1.197   3.443  0.5200  0.0482  0.0494
  860MOL0     C16004  12.116   1.293   3.321 -0.4335 -0.0394  0.0570
  860MOL0     C16005  12.245   1.339   3.258 -0.5208  0.0308  0.5599
  860MOL0     C16006  12.225   1.474   3.166 -0.0727  0.5005  0.3299
  860MOL0     C16007  12.353   1.541   3.106  0.2667 -0.4923 -0.1760
  860MOL0     C16008  12.425   1.446   3.008  0.3420 -0.2176  0.5651
  860MOL0     C16009  12.533   1.530   2.939  0.2834  0.5541  0.7141
  860MOL0    Cl16010  12.668   1.554   3.057 -0.3080 -0.4570  0.0152
  860MOL0     C16011  11.868   1.013   3.432  0.3904  0.7521  0.1950
  860MOL0     C16012  11.756   0.937   3.468  0.2503  0.4525  0.4350
  860MOL0     O16013  11.625   0.545   3.408 -0.6298 -0.8093  0.1233
  860MOL0     C16014  11.349   0.703   3.551 -0.8981  0.0491 -0.2323
  860MOL0     C16015  11.213   0.694   3.580 -0.2691 -0.3281 -0.3155
  860MOL0     N16016  10.662   0.443   3.897  0.0622  0.7921 -0.5102
  860MOL0     N16017  10.642   0.320   3.864 -0.4914  0.1402  1.1008
  860MOL0     C16018  10.693  -0.198   3.614 -0.1631  0.7186  0.4655
  860MOL0     C16019  10.557  -0.175   3.624  0.1223 -0.0692  0.8990
  860MOL0     C16020  10.148  -0.006   3.579 -0.1300  0.8441  1.1136
  860MOL0     C16021  10.041  -0.094   3.548 -0.3008 -0.4266  0.6877
  860MOL0     C16022   9.912  -0.051   3.574  0.4157  0.0159 -0.2987
  860MOL0     C16023   9.883   0.068   3.645 -0.4134  0.3035 -0.4090
  860MOL0     O16024   9.759   0.120   3.671  0.5420 -0.4683  0.6859
  860MOL0     C16025   9.710   0.074   3.796  0.2668 -0.6432  0.1766
  860MOL0     C16026   9.565   0.031   3.783 -0.6432 -0.0309 -0.4835
  860MOL0     C16027   9.532  -0.067   3.667 -0.2689  0.0695  0.9024
  860MOL0     C16028   9.571  -0.206   3.720 -0.7224 -0.0505  0.8041
  860MOL0     C16029   9.601  -0.304   3.613 -0.5657  0.6982 -0.8527
  860MOL0     C16030   9.622  -0.370   3.524  0.8021  0.7441  1.0926
  860MOL0     C16031   9.990   0.146   3.690 -0.3665 -1.0574 -0.1907
  860MOL0     C16032  10.128   0.112   3.660  0.0527  0.7073  0.4513
  860MOL0     H16033  10.417  -0.335   3.371  0.0466 -2.6723  0.3771
  860MOL0     H16034  10.677  -0.402   3.343  2.9031 -2.6315  2.9021
  860MOL0     H16035  10.921  -0.401   3.345 -1.4520  1.1604  0.8735
  860MOL0     H16036  10.883  -0.238   3.309 -0.0724 -0.7132 -2.0076
  860MOL0     H16037  11.142  -0.323   3.438  0.0750 -1.7513 -1.7522
  860MOL0     H16038  11.120  -0.255   3.281  0.1789 -0.3364 -0.9354
  860MOL0     H16039  11.070  -0.107   3.548  2.2725 -3.6619  0.5375
  860MOL0     H16040  11.207  -0.089   3.443  0.1239  1.5401  4.2864
  860MOL0     H16041  11.072   0.017   3.270 -0.0089 -0.7759  0.5424
  860MOL0     H16042  10.912  -0.030   3.349  0.1392 -1.1724 -1.1807
  860MOL0     H16043  11.118   0.150   3.465 -0.2348  1.2848  2.0620
  860MOL0     H16044  10.985   0.215   3.373  2.1248  1.3048 -1.3513
  860MOL0     H16045  10.837   0.037   3.532 -1.7723  1.0626  0.8692
  860MOL0     H16046  10.961   0.084   3.648  0.2254 -0.4723 -0.1246
  860MOL0     H16047  10.898   0.311   3.642  0.8959 -0.8375  0.0903
  860MOL0     H16048  10.814   0.283   3.483  0.8966 -1.8558 -1.1466
  860MOL0     H16049  10.724   0.130   3.716 -0.7322 -0.1685 -0.7477
  860MOL0     H16050  10.638   0.171   3.574  0.6611 -1.6341 -0.3779
  860MOL0     H16051  10.645   0.496   3.577 -1.2615  1.9163  1.2264
  860MOL0     H16052  10.653   0.732   3.717  1.1567  1.2919  1.6073
  860MOL0     H16053  10.612   0.713   3.884 -0.0937 -3.3171  1.1409
  860MOL0     H16054  10.849   0.722   3.947 -1.3639  1.1981  0.1293
  860MOL0     H16055  10.834   0.833   3.821  0.5601 -0.1017 -1.2648
  860MOL0     H16056  10.915   0.543   3.766 -0.3023 -0.7657 -1.1318
  860MOL0     H16057  11.029   0.661   3.786 -0.4522 -0.9360  0.2204
  860MOL0     H16058  10.959   0.777   3.570 -0.5644  0.2142  0.9512
  860MOL0     H16059  10.819   0.669   3.562  0.0482  0.0106 -2.2182
  860MOL0     H16060  11.132   0.441   3.369 -3.1628  2.0766 -0.1438
  860MOL0     H16061  11.468   0.467   3.224  3.1016 -1.7974  2.8598
  860MOL0     H16062  11.431   0.342   3.338 -0.4335 -1.1390 -0.6713
  860MOL0     H16063  11.306   0.402   3.212 -2.5884 -0.2544  3.2934
  860MOL0     H16064  11.804   0.661   3.290  0.5938  0.9894 -4.0947
  860MOL0     H16065  11.975   0.795   3.195 -0.2086  1.1164  0.2221
  860MOL0     H16066  12.168   0.990   3.472 -0.0849 -0.0348  0.6164
  860MOL0     H16067  12.260   1.041   3.336 -0.1285 -1.2461  1.2139
  860MOL0     H16068  12.079   1.189   3.523  0.4409  0.6254  0.0369
  860MOL0     H16069  12.244   1.207   3.502 -0.5999 -0.1640  1.8877
  860MOL0     H16070  12.071   1.383   3.361  0.8207  0.2182  0.9413
  860MOL0     H16071  12.035   1.253   3.258 -2.3924 -1.4266  3.2428
  860MOL0     H16072  12.324   1.350   3.333 -2.2226 -1.8785  2.7466
  860MOL0     H16073  12.285   1.259   3.195  2.9751 -0.5627  3.2045
  860MOL0     H16074  12.174   1.547   3.229 -0.7849 -1.6301  2.3796
  860MOL0     H16075  12.164   1.442   3.081 -0.8361 -2.7207  1.9082
  860MOL0     H16076  12.327   1.631   3.049  1.7738  0.1820  0.1644
  860MOL0     H16077  12.419   1.575   3.186 -1.2123 -4.3779  3.0447
  860MOL0     H16078  12.352   1.408   2.936 -3.5641 -1.5615  4.7485
  860MOL0     H16079  12.467   1.361   3.062 -0.8747  0.0487  1.9711
  860MOL0     H16080  12.485   1.621   2.902  0.3337  0.4089  0.2890
  860MOL0     H16081  12.579   1.483   2.852  0.8120  0.8971  0.8018
  860MOL0     H16082  11.885   1.104   3.488  0.4629  0.8167  0.0681
  860MOL0     H16083  11.687   0.982   3.539  2.2018  2.8579  0.9385
  860MOL0     H16084  11.409   0.775   3.605 -2.6312  0.8007  0.7623
  860MOL0     H16085  11.176   0.764   3.654  0.3726 -1.6119  1.2854
  860MOL0     H16086  10.767  -0.164   3.685  0.5993  1.3775 -0.6171
  860MOL0     H16087  10.513  -0.121   3.707 -1.6317  0.8702 -0.5657
  860MOL0     H16088  10.048  -0.182   3.486 -0.7720 -0.7420  1.0713
  860MOL0     H16089   9.822  -0.096   3.535 -0.8434  0.7046  1.6598
  860MOL0     H16090   9.775  -0.002   3.839  0.7503  0.6061  1.7657
  860MOL0     H16091   9.726   0.154   3.869  2.3704 -0.7900 -0.0645
  860MOL0     H16092   9.497   0.117   3.786 -1.1350 -0.4338  0.0842
  860MOL0     H16093   9.530  -0.018   3.874 -0.5614  1.7418  0.5667
  860MOL0     H16094   9.593  -0.043   3.579  1.3847  0.5620  2.1200
  860MOL0     H16095   9.425  -0.069   3.646 -0.2754 -2.6630  0.9045
  860MOL0     H16096   9.485  -0.239   3.780 -0.8625  1.5115  1.5021
  860MOL0     H16097   9.657  -0.202   3.788 -0.2007 -0.2527  0.1592
  860MOL0     H16098   9.645  -0.432   3.440  0.2817 -2.7249  3.2882
  860MOL0     H16099   9.964   0.225   3.759 -0.9827 -0.4402 -1.0993
  860MOL0     H16100  10.215   0.153   3.710  4.6535 -3.6436 -3.0599
  861MOL0     O16101   4.608   6.770   2.896  0.1011 -0.6859 -0.3541
  861MOL0     C16102   4.669   6.677   2.847  0.0627 -0.6567 -0.5603
  861MOL0     O16103   4.661   6.544   2.896  0.1727 -0.1911  0.7474
  861MOL0     C16104   4.558   6.519   2.978 -0.2574  0.1761  0.1040
  861MOL0     C16105   4.427   6.499   2.931  0.6723 -0.3156 -0.2558
  861MOL0     C16106   4.323   6.492   3.023 -0.3086 -0.0639  0.1204
  861MOL0     C16107   4.358   6.481   3.158 -0.7025 -0.2266 -0.2579
  861MOL0     O16108   4.256   6.476   3.241 -0.2126  0.3034 -0.5133
  861MOL0     C16109   4.247   6.366   3.332  0.1795  1.0736  0.2320
  861MOL0     C16110   4.093   6.340   3.358  0.3575  0.5100  0.2054
  861MOL0     C16111   4.016   6.316   3.221 -0.1123 -0.3104 -0.6456
  861MOL0     C16112   3.906   6.431   3.198  0.1913  0.3595  0.5600
  861MOL0     C16113   3.765   6.379   3.241 -1.1605 -1.1252  0.5308
  861MOL0     C16114   3.651   6.478   3.215 -1.2137 -0.1323  0.3250
  861MOL0     C16115   3.517   6.421   3.257 -1.0641 -0.2948  0.6742
  861MOL0     C16116   3.394   6.499   3.196  0.7279 -0.4519 -0.4809
  861MOL0     N16117   3.412   6.641   3.254  0.9641 -0.2766  0.1791
  861MOL0     C16118   3.455   6.749   3.183 -0.6411  0.6494 -0.3746
  861MOL0     C16119   3.477   6.848   3.272 -0.2179 -0.2425 -0.2151
  861MOL0     C16120   3.516   6.980   3.220  0.0270 -0.6087 -0.1657
  861MOL0     C16121   3.662   7.022   3.216 -0.1820 -0.2082  0.5351
  861MOL0     C16122   3.735   7.008   3.351 -0.5429  0.7878 -0.2784
  861MOL0     C16123   3.679   7.122   3.441 -1.1442  0.1243 -0.2584
  861MOL0     O16124   3.550   7.097   3.505  0.6252  0.1426 -0.0565
  861MOL0     C16125   3.495   7.197   3.573 -0.5429 -0.1508  0.4758
  861MOL0     C16126   3.565   7.302   3.629 -0.7341  0.2841 -0.0663
  861MOL0     C16127   3.501   7.391   3.715 -0.3653  0.5170  0.3114
  861MOL0     C16128   3.578   7.500   3.780 -0.8007 -0.1553  0.2484
  861MOL0     C16129   3.365   7.379   3.743  0.5100 -0.5577 -0.1004
  861MOL0     C16130   3.273   7.474   3.822 -0.4991  0.4636  0.7629
  861MOL0     O16131   3.146   7.426   3.837 -0.5201 -0.1525  0.1715
  861MOL0     C16132   3.065   7.461   3.944  0.5678  0.1939  0.7945
  861MOL0     C16133   3.113   7.476   4.077  0.0082  0.5815  0.6275
  861MOL0     C16134   3.036   7.505   4.180  0.0949 -0.1608 -0.2962
  861MOL0     C16135   2.890   7.516   4.167 -0.9534 -0.3397 -0.9223
  861MOL0     O16136   2.813   7.540   4.272 -0.0653 -0.5560 -0.2755
  861MOL0     C16137   2.819   7.446   4.381 -0.5914  0.3671  0.2412
  861MOL0     C16138   2.687   7.378   4.380  0.5829  0.8140  0.4698
  861MOL0     C16139   2.588   7.479   4.430  0.1369  0.0517 -0.7010
  861MOL0     C16140   2.461   7.407   4.478 -0.0510  0.6525  0.0533
  861MOL0     C16141   2.349   7.486   4.544  0.1876  0.0596  0.4209
  861MOL0     C16142   2.229   7.409   4.574  0.5016 -0.3962  0.2781
  861MOL0     C16143   2.125   7.515   4.625 -0.8448  0.2113 -0.7722
  861MOL0     C16144   2.014   7.449   4.719 -0.0176  0.8132  0.3683
  861MOL0    Cl16145   1.864   7.542   4.697 -0.0760 -0.1961 -0.6681
  861MOL0     C16146   2.842   7.504   4.044  0.1011  0.5922  0.1553
  861MOL0     C16147   2.920   7.482   3.927  0.1321 -0.2461  0.2121
  861MOL0     O16148   3.317   7.576   3.880 -0.6820 -0.2030  0.4951
  861MOL0     C16149   3.294   7.281   3.669  0.0447 -1.4420 -0.2598
  861MOL0     C16150   3.358   7.195   3.586 -0.0528 -0.4568 -0.0430
  861MOL0     N16151   3.444   6.802   3.400 -0.1138  0.7719 -0.1882
  861MOL0     N16152   3.398   6.678   3.388 -1.1193  0.0261  0.3623
  861MOL0     C16153   4.491   6.488   3.201  1.1762 -0.1120  0.3318
  861MOL0     C16154   4.589   6.510   3.108 -0.7499 -1.1750  0.0932
  861MOL0     C16155   4.752   6.711   2.733  0.6241 -0.5210  0.4515
  861MOL0     C16156   4.787   6.841   2.695 -0.4181 -0.1479 -0.2087
  861MOL0     C16157   4.879   6.859   2.592 -0.1654 -0.4769 -0.3405
  861MOL0     C16158   4.924   6.755   2.510  0.4636 -1.6748 -0.8718
  861MOL0     O16159   5.012   6.766   2.404 -0.1188  0.0680  0.8972
  861MOL0     C16160   5.128   6.855   2.413  0.3732 -0.2850  0.3067
  861MOL0     C16161   5.226   6.794   2.507  0.7473  0.5064 -0.4537
  861MOL0     C16162   5.355   6.863   2.515 -0.0562  0.0543 -0.0898
  861MOL0     C16163   5.455   6.794   2.615  0.5855 -0.6327 -0.5404
  861MOL0     C16164   5.402   6.765   2.752  0.7023 -0.0723 -0.0137
  861MOL0     C16165   5.347   6.742   2.855 -1.0533 -0.2823 -0.5914
  861MOL0     C16166   4.887   6.631   2.551 -0.0169 -0.6796  0.3058
  861MOL0     C16167   4.803   6.604   2.658  0.8983 -0.3211  0.0473
  861MOL0     H16168   4.420   6.490   2.823  2.3393 -0.9569 -0.3479
  861MOL0     H16169   4.220   6.480   2.993 -0.1537 -1.0373 -0.0689
  861MOL0     H16170   4.290   6.279   3.283  1.7288  1.9830 -0.0967
  861MOL0     H16171   4.299   6.377   3.428 -0.6801 -1.3194  1.0269
  861MOL0     H16172   4.081   6.260   3.432 -2.2831  2.1277  1.6758
  861MOL0     H16173   4.046   6.428   3.403 -2.8763 -0.4407 -0.9803
  861MOL0     H16174   4.080   6.318   3.133  1.6951  2.8950  0.5880
  861MOL0     H16175   3.966   6.218   3.224  2.1079 -1.5100  1.4987
  861MOL0     H16176   3.936   6.522   3.250 -0.5461  0.5200  0.7199
  861MOL0     H16177   3.892   6.452   3.091 -0.5392  2.1601  0.9731
  861MOL0     H16178   3.755   6.281   3.193  3.5832 -2.2324  1.3132
  861MOL0     H16179   3.775   6.353   3.347 -2.1564 -0.3129  0.8453
  861MOL0     H16180   3.680   6.577   3.251 -0.9655  1.4895 -3.7345
  861MOL0     H16181   3.641   6.479   3.106  0.3423  1.2354  0.1439
  861MOL0     H16182   3.517   6.319   3.216  1.6741  0.2743 -1.0046
  861MOL0     H16183   3.498   6.412   3.365  0.3664 -2.2781  0.8264
  861MOL0     H16184   3.304   6.448   3.233  1.3623 -0.4282  1.1898
  861MOL0     H16185   3.395   6.504   3.087  3.3539  2.0281 -0.4583
  861MOL0     H16186   3.479   6.759   3.078 -1.9371  1.5897 -0.6084
  861MOL0     H16187   3.483   6.986   3.115  2.0840 -0.1215 -0.8336
  861MOL0     H16188   3.457   7.039   3.290  1.2682 -1.5302  1.7370
  861MOL0     H16189   3.689   7.116   3.167  0.1748 -0.2446  0.6571
  861MOL0     H16190   3.691   6.943   3.146  2.5826  2.6486 -1.8576
  861MOL0     H16191   3.841   7.030   3.336 -0.6685  0.0720 -2.4673
  861MOL0     H16192   3.733   6.913   3.406  2.3415  0.8959  0.1828
  861MOL0     H16193   3.685   7.213   3.380  1.1739  0.7911  0.8732
  861MOL0     H16194   3.762   7.123   3.512  0.9603 -3.0199 -2.3763
  861MOL0     H16195   3.670   7.321   3.611  0.4404 -3.1997  2.0403
  861MOL0     H16196   3.542   7.597   3.745 -2.7045 -1.2937 -1.1268
  861MOL0     H16197   3.571   7.479   3.887 -3.6813 -2.1367 -0.2490
  861MOL0     H16198   3.684   7.482   3.759 -0.6159 -0.2011  1.1818
  861MOL0     H16199   3.222   7.477   4.082  0.0460  0.7417 -0.0472
  861MOL0     H16200   3.074   7.530   4.279 -0.9133  0.1319  0.0381
  861MOL0     H16201   2.904   7.377   4.391 -2.0233 -1.3483  1.0690
  861MOL0     H16202   2.836   7.505   4.471  0.7687  0.2722  0.0704
  861MOL0     H16203   2.655   7.340   4.283 -0.6712  3.1556 -0.1017
  861MOL0     H16204   2.693   7.300   4.456 -1.4073  0.5745  0.4120
  861MOL0     H16205   2.558   7.552   4.355  3.0535  2.9338  0.7164
  861MOL0     H16206   2.634   7.531   4.514  0.8888  0.6485 -1.4712
  861MOL0     H16207   2.417   7.350   4.395  0.8974  2.2930 -1.6690
  861MOL0     H16208   2.505   7.331   4.543 -1.7462 -1.3530 -1.0165
  861MOL0     H16209   2.320   7.573   4.485  3.0257  0.4590 -0.5623
  861MOL0     H16210   2.389   7.523   4.638  4.0959 -1.0409 -0.6068
  861MOL0     H16211   2.196   7.361   4.481  2.3172  0.2743 -0.7792
  861MOL0     H16212   2.255   7.337   4.651 -0.3277 -2.3392 -1.1806
  861MOL0     H16213   2.070   7.562   4.543 -2.8170  0.2477  0.4887
  861MOL0     H16214   2.171   7.594   4.686  0.1660 -1.1578  0.3176
  861MOL0     H16215   2.059   7.446   4.819  2.4216 -0.7098 -0.6668
  861MOL0     H16216   1.997   7.343   4.700  2.9233 -0.1303  2.2668
  861MOL0     H16217   2.736   7.521   4.030 -0.2936 -1.6313  0.0715
  861MOL0     H16218   2.878   7.485   3.827  1.7810  0.2467 -0.5074
  861MOL0     H16219   3.196   7.242   3.693  1.2855 -2.1476  4.8571
  861MOL0     H16220   3.301   7.118   3.535  1.6956 -2.0930  0.3483
  861MOL0     H16221   4.506   6.489   3.308  1.2761 -1.2411  0.3411
  861MOL0     H16222   4.693   6.507   3.140 -0.6106 -0.9956 -0.3457
  861MOL0     H16223   4.749   6.923   2.755 -0.3397  0.8021 -1.4257
  861MOL0     H16224   4.910   6.959   2.562  1.9163  0.2126  3.4497
  861MOL0     H16225   5.174   6.881   2.318 -0.3617  2.9566  0.7078
  861MOL0     H16226   5.112   6.952   2.463  0.8787 -0.3700  0.6396
  861MOL0     H16227   5.249   6.692   2.474  6.4612  0.3923  2.5734
  861MOL0     H16228   5.178   6.786   2.605  4.3923 -0.6703  1.4273
  861MOL0     H16229   5.334   6.958   2.564 -0.2246  0.8704 -1.6668
  861MOL0     H16230   5.399   6.883   2.417  0.3610  0.8905  0.2570
  861MOL0     H16231   5.527   6.872   2.642 -0.1139 -0.2168  0.1896
  861MOL0     H16232   5.510   6.713   2.568  0.3991  0.0471 -1.9872
  861MOL0     H16233   5.317   6.709   2.952  1.5959  0.7661  0.6913
  861MOL0     H16234   4.922   6.555   2.481  2.7168  0.1841  0.6142
  861MOL0     H16235   4.773   6.500   2.673  1.5151 -0.8040 -1.7709
  862MOL0     O16236   9.575   6.768   7.854  1.2265 -0.1322  0.5887
  862MOL0     C16237   9.538   6.818   7.752 -0.3629  0.5058  0.5320
  862MOL0     O16238   9.407   6.866   7.732 -0.5294  0.0658  0.1365
  862MOL0     C16239   9.309   6.857   7.830  0.1304 -0.3712  0.3390
  862MOL0     C16240   9.318   6.811   7.963 -0.6853  0.7984  0.1162
  862MOL0     C16241   9.208   6.821   8.048  0.2180 -0.5900 -0.2888
  862MOL0     C16242   9.083   6.856   7.999  0.5095  0.6112 -0.4438
  862MOL0     O16243   8.979   6.860   8.088  0.4720 -0.2754  0.4392
  862MOL0     C16244   8.848   6.911   8.057  0.2819  0.3005  0.0437
  862MOL0     C16245   8.754   6.796   8.000 -1.0021  0.1448 -0.7913
  862MOL0     C16246   8.727   6.689   8.101  0.9106 -0.3047  0.4395
  862MOL0     C16247   8.617   6.599   8.040  0.2318  0.5697 -0.2119
  862MOL0     C16248   8.582   6.481   8.143  0.4638 -0.5451  0.4956
  862MOL0     C16249   8.705   6.405   8.194 -0.4783  0.3278 -0.4795
  862MOL0     C16250   8.641   6.302   8.287  0.1812  0.4087  0.0341
  862MOL0     C16251   8.754   6.214   8.344  0.6461 -0.1224 -0.8406
  862MOL0     N16252   8.683   6.129   8.437 -0.6004  0.3291 -0.9820
  862MOL0     C16253   8.667   6.157   8.576 -0.2579  0.4157  0.7931
  862MOL0     C16254   8.578   6.072   8.623  0.2468 -0.3514  0.4245
  862MOL0     C16255   8.538   6.075   8.771 -0.7479 -0.1685 -1.0843
  862MOL0     C16256   8.424   5.965   8.806 -0.4958  0.5853  0.5260
  862MOL0     C16257   8.342   6.008   8.929  0.1784  0.0622  1.0419
  862MOL0     C16258   8.201   6.050   8.884  0.1804  0.3790  0.7875
  862MOL0     O16259   8.146   6.120   8.994 -0.0645 -0.2781 -0.2452
  862MOL0     C16260   8.010   6.160   8.981  1.0285 -0.7995  0.8582
  862MOL0     C16261   7.921   6.135   8.873  0.8092 -0.2180 -0.2856
  862MOL0     C16262   7.787   6.184   8.871  0.9488 -0.1231  0.0273
  862MOL0     C16263   7.703   6.129   8.758  0.4129  0.4410  0.8524
  862MOL0     C16264   7.724   6.251   8.984  0.6901  0.3299  0.3163
  862MOL0     C16265   7.584   6.289   9.003 -0.9625  0.9018 -1.0104
  862MOL0     O16266   7.550   6.339   9.128 -0.1117  0.3856  0.1529
  862MOL0     C16267   7.413   6.368   9.147 -0.2830 -0.0304 -0.3223
  862MOL0     C16268   7.315   6.270   9.155  0.6275  0.8827 -0.3154
  862MOL0     C16269   7.178   6.297   9.164  0.0283 -0.2347  0.6464
  862MOL0     C16270   7.144   6.436   9.172  0.4025 -0.6511 -0.3870
  862MOL0     O16271   7.013   6.473   9.187 -0.4520  0.1025  0.3449
  862MOL0     C16272   6.959   6.593   9.133  0.4344 -0.1211  0.9537
  862MOL0     C16273   6.817   6.561   9.142  0.2036  0.1551 -0.1898
  862MOL0     C16274   6.779   6.461   9.036 -1.1890 -0.2765  0.2210
  862MOL0     C16275   6.808   6.501   8.892  0.2515  0.5919 -0.3396
  862MOL0     C16276   6.744   6.389   8.809 -0.1483 -0.1503  0.7236
  862MOL0     C16277   6.748   6.427   8.653 -0.1324 -0.0414 -0.4291
  862MOL0     C16278   6.678   6.316   8.566 -0.4701  0.4610  0.4020
  862MOL0     C16279   6.707   6.342   8.418  0.4458  0.3641 -1.2176
  862MOL0    Cl16280   6.628   6.499   8.353 -0.2422  0.1419 -0.1380
  862MOL0     C16281   7.240   6.538   9.173 -0.5308  0.3502 -0.7213
  862MOL0     C16282   7.372   6.502   9.155 -0.6653 -0.2620 -0.3161
  862MOL0     O16283   7.504   6.268   8.918  0.0551  1.1443  0.5141
  862MOL0     C16284   7.819   6.281   9.092 -0.2022 -0.8202 -0.4472
  862MOL0     C16285   7.954   6.240   9.090  0.7347  1.1707  0.1197
  862MOL0     N16286   8.553   5.980   8.520  0.6910  0.2809 -0.0659
  862MOL0     N16287   8.618   6.012   8.411  0.3361 -0.4766  0.1591
  862MOL0     C16288   9.070   6.890   7.867 -0.5311 -0.1766  0.7251
  862MOL0     C16289   9.184   6.891   7.790  0.1399  0.0203  0.9699
  862MOL0     C16290   9.654   6.849   7.657  0.1235  1.1190 -0.1805
  862MOL0     C16291   9.785   6.816   7.694  0.6522 -1.2941  0.3316
  862MOL0     C16292   9.895   6.820   7.608 -0.6163 -0.5319 -0.3497
  862MOL0     C16293   9.887   6.868   7.481 -0.1851 -0.3497 -0.5363
  862MOL0     O16294   9.996   6.866   7.392 -0.3912  0.2231 -0.5100
  862MOL0     C16295  10.130   6.890   7.442 -0.3877 -0.2198 -0.4462
  862MOL0     C16296  10.209   6.972   7.353 -0.6203 -0.5991  0.4758
  862MOL0     C16297  10.239   6.887   7.229 -0.0534 -0.5243  0.3240
  862MOL0     C16298  10.246   6.978   7.106  0.0637  0.6273 -0.8861
  862MOL0     C16299  10.369   7.062   7.103 -0.4813 -0.8159 -0.2156
  862MOL0     C16300  10.470   7.118   7.085  0.6717 -0.6392  0.4896
  862MOL0     C16301   9.755   6.904   7.444  0.2828  0.5011 -1.0960
  862MOL0     C16302   9.637   6.895   7.527  0.2005  0.4737 -0.3181
  862MOL0     H16303   9.413   6.772   7.998  1.3958  2.8564 -2.7470
  862MOL0     H16304   9.231   6.811   8.154 -1.9122  0.5409  0.3482
  862MOL0     H16305   8.803   6.956   8.145 -0.2208 -1.4543  0.7434
  862MOL0     H16306   8.854   6.992   7.984 -3.2357  1.4064  0.7979
  862MOL0     H16307   8.661   6.849   7.977 -0.8253 -0.0455 -2.0170
  862MOL0     H16308   8.799   6.761   7.907  3.1908  1.1837  0.6217
  862MOL0     H16309   8.818   6.631   8.119  0.2459 -0.9939  1.7006
  862MOL0     H16310   8.688   6.735   8.193 -0.6412 -1.6911  0.5274
  862MOL0     H16311   8.523   6.655   8.027  0.4028  0.8462 -0.2623
  862MOL0     H16312   8.654   6.562   7.944  0.6017  1.3285 -0.3687
  862MOL0     H16313   8.532   6.537   8.223 -0.5319 -0.3535 -0.2427
  862MOL0     H16314   8.508   6.417   8.095  2.4908 -1.5982 -1.4297
  862MOL0     H16315   8.768   6.366   8.113  1.5203  1.5346  0.4298
  862MOL0     H16316   8.769   6.469   8.255  0.7534  0.1502 -1.5381
  862MOL0     H16317   8.598   6.351   8.375  1.2913 -1.2295  1.5553
  862MOL0     H16318   8.563   6.241   8.240  0.9703 -0.8194  0.2765
  862MOL0     H16319   8.826   6.275   8.398  1.1476  0.2924 -1.9472
  862MOL0     H16320   8.799   6.154   8.264  1.4761 -0.9769  0.2406
  862MOL0     H16321   8.728   6.235   8.621  1.8355 -0.2098 -0.8270
  862MOL0     H16322   8.633   6.076   8.825 -1.3098 -0.6622 -0.0432
  862MOL0     H16323   8.497   6.171   8.805  0.6077 -0.3224  1.1816
  862MOL0     H16324   8.471   5.869   8.828 -1.5097  0.3540  1.8278
  862MOL0     H16325   8.365   5.953   8.714  1.1052 -1.5073 -0.2939
  862MOL0     H16326   8.388   6.088   8.988 -1.5431  3.4393 -1.8016
  862MOL0     H16327   8.339   5.911   8.978  0.0612 -2.7121 -3.8229
  862MOL0     H16328   8.140   5.964   8.855  1.1804 -1.1160  2.8870
  862MOL0     H16329   8.202   6.120   8.800  0.9162 -0.3550  0.1635
  862MOL0     H16330   7.953   6.079   8.786 -0.5516 -3.3084  1.0542
  862MOL0     H16331   7.758   6.112   8.665  0.9774  1.2331  1.0377
  862MOL0     H16332   7.665   6.030   8.787  1.9475 -0.4937 -0.1927
  862MOL0     H16333   7.612   6.187   8.741 -0.0972 -0.0366  1.8742
  862MOL0     H16334   7.339   6.165   9.169 -3.2184  0.0204  1.0505
  862MOL0     H16335   7.106   6.216   9.155  1.6337 -1.5144 -2.2498
  862MOL0     H16336   6.977   6.679   9.198  4.5053  2.9956 -3.5844
  862MOL0     H16337   6.985   6.628   9.033 -0.4182  0.7549  1.0218
  862MOL0     H16338   6.802   6.518   9.241  0.5818 -0.7829 -0.5223
  862MOL0     H16339   6.762   6.652   9.118 -0.5512 -0.3648 -0.4724
  862MOL0     H16340   6.674   6.449   9.063 -0.3065 -4.5424  2.5386
  862MOL0     H16341   6.835   6.369   9.053  0.0161  0.2671 -0.6953
  862MOL0     H16342   6.756   6.596   8.877 -4.3935 -1.4291  1.0096
  862MOL0     H16343   6.913   6.498   8.863  0.4018  1.1927  0.1396
  862MOL0     H16344   6.643   6.363   8.842 -0.0631 -2.0814 -0.3493
  862MOL0     H16345   6.790   6.289   8.814 -1.0003 -1.0208 -3.7515
  862MOL0     H16346   6.711   6.530   8.647 -0.7589 -0.0950  1.8397
  862MOL0     H16347   6.852   6.435   8.618  0.0773  1.3688  0.4594
  862MOL0     H16348   6.572   6.327   8.590 -0.6740 -0.1957 -0.1437
  862MOL0     H16349   6.715   6.216   8.589  1.9522  0.2442 -3.5491
  862MOL0     H16350   6.663   6.256   8.367  1.5019 -1.4725  0.8146
  862MOL0     H16351   6.816   6.347   8.408  0.8432 -0.7805  1.5747
  862MOL0     H16352   7.216   6.644   9.167 -0.1303  0.6440  1.8932
  862MOL0     H16353   7.441   6.584   9.139  1.0867 -1.7273 -0.5385
  862MOL0     H16354   7.791   6.326   9.187  0.9355 -1.8390  0.3979
  862MOL0     H16355   8.021   6.253   9.175  2.8444 -0.9169 -1.0806
  862MOL0     H16356   8.975   6.913   7.820 -1.1012 -0.9219  1.4776
  862MOL0     H16357   9.188   6.931   7.690  0.6130 -0.5276  0.7656
  862MOL0     H16358   9.802   6.778   7.795  0.5663 -2.3829 -0.0501
  862MOL0     H16359   9.993   6.786   7.639  0.7968  2.0308 -1.6998
  862MOL0     H16360  10.111   6.925   7.544 -1.5321  0.7901 -0.9672
  862MOL0     H16361  10.176   6.791   7.450  1.3365  0.6236  0.8556
  862MOL0     H16362  10.300   7.014   7.396 -1.5477  1.8351  0.2391
  862MOL0     H16363  10.153   7.064   7.330 -0.7082 -0.1876  2.1700
  862MOL0     H16364  10.156   6.819   7.208 -0.3871  0.6819 -2.8606
  862MOL0     H16365  10.336   6.837   7.236  0.9683  1.1836 -0.7356
  862MOL0     H16366  10.156   7.035   7.080  0.7301  1.7168 -0.8949
  862MOL0     H16367  10.280   6.902   7.035 -0.0704 -2.3682  2.0151
  862MOL0     H16368  10.570   7.156   7.071  1.5314 -2.5214  1.2022
  862MOL0     H16369   9.741   6.944   7.344  0.1917 -0.5652 -1.5166
  862MOL0     H16370   9.544   6.935   7.486  2.2173  3.4463 -2.4775
  863MOL0     O16371   9.147   8.095   8.036 -0.0397 -0.0565 -0.0224
  863MOL0     C16372   9.093   8.131   7.932  0.1290  0.9584  0.6330
  863MOL0     O16373   9.158   8.202   7.832  0.1470 -0.8667  0.0302
  863MOL0     C16374   9.286   8.250   7.858  0.6433  0.3877 -0.8449
  863MOL0     C16375   9.379   8.222   7.758  0.8141 -0.6725 -0.5274
  863MOL0     C16376   9.504   8.286   7.753 -0.0199 -0.9713  0.3306
  863MOL0     C16377   9.535   8.386   7.849 -0.7451  0.8255 -0.6502
  863MOL0     O16378   9.654   8.454   7.851  0.1039 -0.2324 -1.0381
  863MOL0     C16379   9.760   8.422   7.760 -0.5862 -0.0049 -0.0693
  863MOL0     C16380   9.878   8.516   7.774  0.0898  0.7136  0.3126
  863MOL0     C16381   9.833   8.666   7.788 -0.2835  0.4354  0.1507
  863MOL0     C16382   9.927   8.771   7.731  0.7172  0.4738  0.7059
  863MOL0     C16383  10.055   8.776   7.807  0.8808  0.9465 -0.1796
  863MOL0     C16384  10.148   8.893   7.759  0.3812  0.1645  0.9993
  863MOL0     C16385  10.291   8.882   7.806  0.8366  0.4555  0.3456
  863MOL0     C16386  10.274   8.894   7.962 -0.6328 -0.1660  0.0995
  863MOL0     N16387  10.403   8.935   8.020  0.3574 -0.2207  1.4961
  863MOL0     C16388  10.514   8.851   8.024  0.8958 -0.5663 -0.0582
  863MOL0     C16389  10.598   8.930   8.087 -0.9120  0.6267  0.5870
  863MOL0     C16390  10.738   8.878   8.123 -0.4195  0.5382 -0.2829
  863MOL0     C16391  10.835   8.964   8.201  0.2242  1.1514 -0.3176
  863MOL0     C16392  10.976   8.902   8.167  0.8677  0.1340 -0.8143
  863MOL0     C16393  11.034   8.924   8.023 -0.6258  0.2873 -0.3377
  863MOL0     O16394  11.163   8.858   8.014 -0.1075  0.2563  0.2329
  863MOL0     C16395  11.257   8.921   8.076 -0.1422 -0.2473  0.4058
  863MOL0     C16396  11.334   9.014   7.997 -0.0220 -0.2549  0.7418
  863MOL0     C16397  11.445   9.068   8.049  0.4741 -0.4535  0.4266
  863MOL0     C16398  11.525   9.147   7.952  0.4023  0.2555 -0.2784
  863MOL0     C16399  11.484   9.045   8.184  0.5691  0.2453 -0.0222
  863MOL0     C16400  11.597   9.112   8.239 -0.1973 -1.0417 -0.2772
  863MOL0     O16401  11.548   9.228   8.298 -0.8629  0.4446 -1.1093
  863MOL0     C16402  11.638   9.325   8.327 -1.1734 -0.3696 -0.2388
  863MOL0     C16403  11.730   9.310   8.438  0.8086 -0.1071  0.1717
  863MOL0     C16404  11.816   9.415   8.469 -0.0136 -0.1837 -1.0304
  863MOL0     C16405  11.812   9.541   8.411 -1.0983 -0.5052  0.1642
  863MOL0     O16406  11.906   9.629   8.458  0.8516 -0.0279 -0.1784
  863MOL0     C16407  11.957   9.729   8.372  0.3252 -0.9393  0.3003
  863MOL0     C16408  12.049   9.661   8.257  0.4972  0.5880  0.5690
  863MOL0     C16409  12.182   9.593   8.304  0.0259 -0.7541 -0.3950
  863MOL0     C16410  12.287   9.580   8.193 -0.0844  0.3471  0.4244
  863MOL0     C16411  12.430   9.526   8.237 -0.0604 -0.2639  0.0707
  863MOL0     C16412  12.431   9.378   8.259  0.7978 -0.0662 -0.0952
  863MOL0     C16413  12.578   9.355   8.299  0.4712  0.7333  0.1716
  863MOL0     C16414  12.632   9.215   8.284 -0.7480 -0.0792  0.1009
  863MOL0    Cl16415  12.787   9.187   8.354 -0.3685  0.3487  0.1860
  863MOL0     C16416  11.721   9.560   8.307 -0.5372  0.3825  0.6712
  863MOL0     C16417  11.631   9.449   8.270  1.4686  0.0223  0.2657
  863MOL0     O16418  11.713   9.072   8.237 -0.3270 -0.5267  0.5521
  863MOL0     C16419  11.405   8.954   8.259  0.0978 -0.8601 -0.8268
  863MOL0     C16420  11.298   8.893   8.201  0.0313  0.2701  0.6871
  863MOL0     N16421  10.561   9.058   8.100 -0.1981  0.8845 -0.0035
  863MOL0     N16422  10.435   9.062   8.065  0.0997 -0.0369 -0.7288
  863MOL0     C16423   9.446   8.403   7.953  0.1358  0.0499 -0.6049
  863MOL0     C16424   9.320   8.340   7.962  0.0967 -0.0344 -0.0722
  863MOL0     C16425   8.954   8.086   7.915 -0.3936 -0.9624 -0.9096
  863MOL0     C16426   8.874   8.137   7.808  0.2118 -0.0841 -0.0736
  863MOL0     C16427   8.737   8.109   7.796  0.3428  0.6103 -0.2654
  863MOL0     C16428   8.674   8.024   7.885 -0.2273 -0.7765  0.5038
  863MOL0     O16429   8.544   7.986   7.867 -0.0699  0.1214 -0.1008
  863MOL0     C16430   8.444   8.085   7.900 -0.4510 -0.2531  0.0288
  863MOL0     C16431   8.323   8.081   7.804 -0.4123 -1.1093  1.0274
  863MOL0     C16432   8.351   8.132   7.665  0.3578 -0.1943 -0.3626
  863MOL0     C16433   8.243   8.226   7.615  1.2622 -0.2213  0.1451
  863MOL0     C16434   8.274   8.299   7.489 -0.5348 -0.6073 -0.9471
  863MOL0     C16435   8.313   8.355   7.398 -1.3088  0.1387  0.0821
  863MOL0     C16436   8.754   7.967   7.988 -0.4512 -0.1031  0.3471
  863MOL0     C16437   8.893   7.996   8.004 -0.1883 -0.1161 -0.1549
  863MOL0     H16438   9.351   8.173   7.666 -2.1283  0.4413 -0.3341
  863MOL0     H16439   9.567   8.262   7.668 -0.0131  2.8659 -0.9562
  863MOL0     H16440   9.811   8.326   7.767  0.4242  0.6504  3.2155
  863MOL0     H16441   9.704   8.435   7.667 -2.5112  0.9744  1.1604
  863MOL0     H16442   9.945   8.492   7.857  2.0224  2.4673 -0.6470
  863MOL0     H16443   9.928   8.518   7.676 -2.6953  0.8690 -1.2017
  863MOL0     H16444   9.740   8.685   7.733 -0.0762  0.7609 -0.0905
  863MOL0     H16445   9.834   8.691   7.895 -1.9122 -0.6002  0.4462
  863MOL0     H16446   9.954   8.747   7.628 -0.8757  1.4541  0.0277
  863MOL0     H16447   9.872   8.865   7.733 -1.0189 -0.4886 -0.0473
  863MOL0     H16448  10.021   8.782   7.911 -2.3605  0.4205 -1.1238
  863MOL0     H16449  10.113   8.684   7.795  0.3129  0.5096  0.3647
  863MOL0     H16450  10.147   8.895   7.650 -0.2628 -0.5342  0.9827
  863MOL0     H16451  10.111   8.990   7.795  1.3527  1.5210 -1.3603
  863MOL0     H16452  10.325   8.778   7.796 -0.7744 -0.0886  0.3494
  863MOL0     H16453  10.352   8.961   7.761  1.3546 -1.1002 -1.8073
  863MOL0     H16454  10.240   8.800   8.007 -4.3296  1.3387  0.8137
  863MOL0     H16455  10.196   8.968   7.981 -0.6512  0.7084 -2.8589
  863MOL0     H16456  10.524   8.744   8.009  0.5707 -0.7874  1.1928
  863MOL0     H16457  10.734   8.780   8.171  2.0680 -0.3064 -1.6200
  863MOL0     H16458  10.778   8.857   8.023 -1.2446 -2.6996 -0.0493
  863MOL0     H16459  10.814   8.956   8.308 -1.9682  3.2484 -0.5155
  863MOL0     H16460  10.826   9.066   8.164 -0.7271 -0.0959 -3.9407
  863MOL0     H16461  10.976   8.796   8.196 -1.5758  0.6881  1.5938
  863MOL0     H16462  11.041   8.946   8.242  0.5834 -1.9386  0.7544
  863MOL0     H16463  11.049   9.031   8.002  1.3679 -0.1756 -1.6075
  863MOL0     H16464  10.969   8.878   7.948  1.1879 -0.8969 -1.2542
  863MOL0     H16465  11.288   9.047   7.905 -3.3405  0.7128  2.5880
  863MOL0     H16466  11.477   9.237   7.912  1.4338  1.4608  1.0804
  863MOL0     H16467  11.618   9.183   7.997  1.1881 -1.9834  0.0173
  863MOL0     H16468  11.556   9.078   7.873  0.4910 -0.2857  0.2238
  863MOL0     H16469  11.747   9.213   8.484  0.5558 -0.3740 -0.2910
  863MOL0     H16470  11.885   9.399   8.551  0.3482 -0.8532 -1.4509
  863MOL0     H16471  11.877   9.787   8.325 -0.1265 -1.7928 -0.0088
  863MOL0     H16472  12.014   9.797   8.436 -3.1718  2.1862  0.4646
  863MOL0     H16473  11.989   9.592   8.197 -1.1807  1.2557  1.4062
  863MOL0     H16474  12.075   9.745   8.193 -1.4822 -0.3276 -1.5781
  863MOL0     H16475  12.151   9.496   8.344 -0.0018  0.1222  1.8470
  863MOL0     H16476  12.222   9.646   8.391 -0.6598 -0.7565 -0.0687
  863MOL0     H16477  12.239   9.513   8.121  0.7731  0.3518 -0.1763
  863MOL0     H16478  12.303   9.678   8.146 -1.6701 -0.3273 -1.6704
  863MOL0     H16479  12.445   9.573   8.334  1.3407 -0.3506 -0.0866
  863MOL0     H16480  12.507   9.562   8.168  1.4987 -2.6510  0.4802
  863MOL0     H16481  12.357   9.349   8.334  0.9418 -0.6547 -0.1758
  863MOL0     H16482  12.400   9.322   8.171 -0.9983 -0.8399  0.9718
  863MOL0     H16483  12.588   9.380   8.405  1.2982  2.0031 -0.1866
  863MOL0     H16484  12.639   9.436   8.260  0.5374  0.7208  0.2479
  863MOL0     H16485  12.642   9.185   8.180 -0.3280 -4.6973  1.2598
  863MOL0     H16486  12.567   9.145   8.337  1.1220 -1.2791  0.9312
  863MOL0     H16487  11.728   9.657   8.260  1.9870 -0.2015 -0.3405
  863MOL0     H16488  11.558   9.461   8.190 -2.6639  0.8270  3.7903
  863MOL0     H16489  11.415   8.964   8.367 -1.3552  4.5500 -0.8912
  863MOL0     H16490  11.223   8.829   8.246 -2.3169  1.3937 -1.3506
  863MOL0     H16491   9.468   8.469   8.036 -2.3431 -1.1593  1.1229
  863MOL0     H16492   9.257   8.340   8.050 -1.7307 -0.3111 -1.3043
  863MOL0     H16493   8.932   8.198   7.740  0.9171  0.5143  1.0355
  863MOL0     H16494   8.687   8.160   7.715 -3.7351 -1.4404  0.6817
  863MOL0     H16495   8.396   8.067   7.996 -4.1779 -1.0340 -1.8199
  863MOL0     H16496   8.485   8.186   7.908 -0.1380 -0.5599  3.3839
  863MOL0     H16497   8.234   8.126   7.849  0.5573  0.5099  1.4142
  863MOL0     H16498   8.296   7.976   7.790 -1.2220 -0.9047  0.9769
  863MOL0     H16499   8.367   8.048   7.596 -3.6004 -1.4949  0.0239
  863MOL0     H16500   8.446   8.186   7.668 -0.0115  0.6140 -2.1539
  863MOL0     H16501   8.211   8.296   7.692 -0.9010 -1.0965  0.0943
  863MOL0     H16502   8.158   8.163   7.589  0.5415  0.8773 -0.1935
  863MOL0     H16503   8.367   8.429   7.343 -0.2932 -1.8821 -1.8142
  863MOL0     H16504   8.713   7.886   8.048  1.5680 -0.7393  0.9569
  863MOL0     H16505   8.944   7.932   8.075 -2.5908 -1.3940  0.5213
  864MOL0     O16506   2.079   2.550   5.720 -0.3533 -0.1186 -0.4534
  864MOL0     C16507   2.069   2.574   5.841  0.5898  0.1758 -0.7228
  864MOL0     O16508   2.151   2.666   5.905  0.0442  0.4246  0.9771
  864MOL0     C16509   2.249   2.733   5.828  0.8147  1.4128 -0.2294
  864MOL0     C16510   2.246   2.868   5.836 -0.0489 -0.2428 -0.0412
  864MOL0     C16511   2.338   2.941   5.766 -0.7450  0.4231  0.7057
  864MOL0     C16512   2.443   2.881   5.697 -0.0408  0.5772 -0.2495
  864MOL0     O16513   2.550   2.952   5.642  0.1056 -0.0250 -0.3297
  864MOL0     C16514   2.568   3.099   5.653  0.3027  0.3414  0.5050
  864MOL0     C16515   2.706   3.138   5.608 -0.3137  0.6764  0.3762
  864MOL0     C16516   2.727   3.115   5.452 -0.2376  0.5396  0.1010
  864MOL0     C16517   2.728   2.967   5.412 -0.3072  0.2279  0.5456
  864MOL0     C16518   2.774   2.924   5.266  0.0285 -0.9611  0.0828
  864MOL0     C16519   2.929   2.949   5.238  0.4921  0.9801  0.5132
  864MOL0     C16520   2.982   2.898   5.107  0.3528  0.4418 -0.0855
  864MOL0     C16521   2.952   2.988   4.978 -0.0821  1.1009 -0.5857
  864MOL0     N16522   3.029   2.928   4.865  0.3196 -0.2011  0.0591
  864MOL0     C16523   3.161   2.947   4.859 -0.9299 -0.4009  0.0804
  864MOL0     C16524   3.192   2.903   4.735  0.2702 -0.3325  0.4359
  864MOL0     C16525   3.327   2.894   4.670  0.3800  0.6629 -0.3048
  864MOL0     C16526   3.350   3.023   4.577 -0.4545 -0.3228  0.4464
  864MOL0     C16527   3.366   3.155   4.647  0.4585 -0.1843 -0.1790
  864MOL0     C16528   3.502   3.178   4.697  0.2309 -0.4632 -0.8289
  864MOL0     O16529   3.587   3.223   4.598  0.0732 -0.2991 -0.2271
  864MOL0     C16530   3.723   3.225   4.641 -0.1810 -0.2656 -0.3223
  864MOL0     C16531   3.769   3.208   4.767  0.5521  0.3344 -0.6222
  864MOL0     C16532   3.904   3.228   4.804 -0.0035 -0.2239  0.7516
  864MOL0     C16533   3.944   3.233   4.944 -0.0978 -1.2407 -0.6573
  864MOL0     C16534   3.997   3.247   4.704  0.0228 -0.3511 -0.3026
  864MOL0     C16535   4.141   3.262   4.726 -0.4920 -0.5705  0.1385
  864MOL0     O16536   4.199   3.225   4.847 -0.2836  0.3396 -0.1155
  864MOL0     C16537   4.336   3.228   4.852 -0.1642 -0.1315  0.6424
  864MOL0     C16538   4.413   3.119   4.803  0.0282 -0.2862  0.0362
  864MOL0     C16539   4.547   3.112   4.816 -0.5235 -1.1604 -0.2599
  864MOL0     C16540   4.624   3.220   4.867  0.5737 -0.0931 -0.7748
  864MOL0     O16541   4.760   3.220   4.888  0.2615 -0.4640 -0.0680
  864MOL0     C16542   4.839   3.121   4.829 -0.0967 -0.0022 -0.1453
  864MOL0     C16543   4.987   3.171   4.837 -0.0111 -0.8933 -0.8996
  864MOL0     C16544   5.092   3.070   4.803 -0.2822 -0.6531  0.2270
  864MOL0     C16545   5.238   3.130   4.791  0.0848  0.2512  0.4196
  864MOL0     C16546   5.350   3.039   4.746  0.3815 -0.2798  0.4446
  864MOL0     C16547   5.479   3.111   4.709 -0.1616  0.6310 -0.8007
  864MOL0     C16548   5.569   3.017   4.627 -0.3304  0.2372 -0.5841
  864MOL0     C16549   5.658   2.925   4.715  0.4940 -0.3183  0.1352
  864MOL0    Cl16550   5.765   3.017   4.828  0.1454  0.4768  0.1858
  864MOL0     C16551   4.551   3.332   4.914  0.2166 -0.1449 -0.5561
  864MOL0     C16552   4.412   3.334   4.903 -0.3556  0.4887  0.0106
  864MOL0     O16553   4.207   3.305   4.632 -0.5477 -0.7247  0.1123
  864MOL0     C16554   3.954   3.261   4.566  0.4479  0.7594 -0.0000
  864MOL0     C16555   3.818   3.254   4.540  0.2550  0.2766 -0.1125
  864MOL0     N16556   3.072   2.865   4.671  0.2731  0.4367 -0.7622
  864MOL0     N16557   2.974   2.885   4.746 -0.5511 -0.1433  0.1510
  864MOL0     C16558   2.455   2.738   5.693  0.2682  0.2237 -1.1641
  864MOL0     C16559   2.355   2.661   5.762  0.5459 -0.6422 -0.3686
  864MOL0     C16560   1.970   2.498   5.915  0.2887 -0.2003  1.2650
  864MOL0     C16561   1.889   2.396   5.866 -0.0527 -0.1548  1.3147
  864MOL0     C16562   1.792   2.336   5.939  0.2340 -0.2866  0.4456
  864MOL0     C16563   1.762   2.371   6.069 -0.2450  0.4924 -0.7107
  864MOL0     O16564   1.687   2.299   6.152  0.1927 -0.0599 -0.5907
  864MOL0     C16565   1.547   2.337   6.153 -0.3909  0.2035 -1.2493
  864MOL0     C16566   1.455   2.217   6.163 -0.2140 -0.4797  0.9970
  864MOL0     C16567   1.310   2.250   6.197 -0.8182 -0.7130 -0.8618
  864MOL0     C16568   1.221   2.147   6.137 -0.9607 -0.8123 -0.8083
  864MOL0     C16569   1.085   2.190   6.170  0.5858 -0.7700  0.4122
  864MOL0     C16570   0.965   2.219   6.186 -0.3044  0.3323 -0.4307
  864MOL0     C16571   1.840   2.471   6.129  0.0517 -0.5697  0.6839
  864MOL0     C16572   1.944   2.531   6.054  0.8826 -0.0246  0.5323
  864MOL0     H16573   2.177   2.907   5.909 -0.7976 -0.7656 -0.4519
  864MOL0     H16574   2.321   3.048   5.757 -1.6928  0.2383  0.1233
  864MOL0     H16575   2.487   3.151   5.601 -0.7816 -1.2579  0.5019
  864MOL0     H16576   2.546   3.134   5.754 -0.9178  2.0815 -0.3179
  864MOL0     H16577   2.725   3.244   5.625 -0.7053  0.8628 -0.3131
  864MOL0     H16578   2.785   3.075   5.649 -0.1297  0.7034  0.0727
  864MOL0     H16579   2.647   3.161   5.393  0.6390 -1.1213 -2.5221
  864MOL0     H16580   2.826   3.151   5.421 -0.5073  4.2244  2.8612
  864MOL0     H16581   2.796   2.912   5.478 -0.6354  2.2345  2.6665
  864MOL0     H16582   2.629   2.922   5.424 -1.2551  1.2066 -2.5153
  864MOL0     H16583   2.756   2.817   5.253 -0.1490 -1.2247  2.1028
  864MOL0     H16584   2.718   2.980   5.191 -1.0250 -0.8710  0.9085
  864MOL0     H16585   2.971   3.049   5.249  0.0713  1.0607  1.5173
  864MOL0     H16586   2.978   2.898   5.322 -2.7089 -1.1571  1.2709
  864MOL0     H16587   3.089   2.885   5.125  0.5200  3.5484  1.9798
  864MOL0     H16588   2.938   2.801   5.081 -0.1313  1.0950 -1.9104
  864MOL0     H16589   2.986   3.091   4.991 -0.1585  0.8620  1.8683
  864MOL0     H16590   2.844   2.991   4.957 -0.7281  1.3001  2.3745
  864MOL0     H16591   3.230   2.971   4.940  1.2203 -0.4098 -1.6350
  864MOL0     H16592   3.400   2.879   4.751  1.9161 -0.7805 -1.8631
  864MOL0     H16593   3.333   2.798   4.618 -2.0392  0.6221 -0.6161
  864MOL0     H16594   3.268   3.026   4.505  0.5398  0.4578 -0.7092
  864MOL0     H16595   3.444   3.014   4.522  0.6937  1.5566  1.9559
  864MOL0     H16596   3.287   3.157   4.722  0.4018 -1.4571 -0.1805
  864MOL0     H16597   3.346   3.232   4.572  2.2822  0.4146 -0.1121
  864MOL0     H16598   3.531   3.087   4.750 -2.4864 -0.8785  0.1317
  864MOL0     H16599   3.501   3.258   4.771  1.8462 -0.8943 -0.3150
  864MOL0     H16600   3.693   3.202   4.844  0.3643  0.1344 -0.8220
  864MOL0     H16601   3.993   3.330   4.956  1.1032 -1.7143 -1.5151
  864MOL0     H16602   3.865   3.207   5.015 -1.5270 -1.3140 -2.2112
  864MOL0     H16603   4.013   3.150   4.963  1.3024 -0.0496 -0.3824
  864MOL0     H16604   4.353   3.035   4.771 -1.5301  0.1151  1.7272
  864MOL0     H16605   4.598   3.020   4.786  0.0158 -0.4917 -1.4643
  864MOL0     H16606   4.811   3.027   4.878  0.2346  0.8704  1.8421
  864MOL0     H16607   4.815   3.123   4.723  0.2078  1.7265 -0.2174
  864MOL0     H16608   4.998   3.256   4.770  1.6203 -1.6120 -1.5918
  864MOL0     H16609   5.004   3.206   4.939  0.2456 -1.5308 -0.7201
  864MOL0     H16610   5.048   3.022   4.715 -1.1751  1.9627 -0.8343
  864MOL0     H16611   5.105   2.997   4.884  1.7151 -1.2563 -0.5780
  864MOL0     H16612   5.240   3.211   4.718  1.5255 -0.3489 -0.2458
  864MOL0     H16613   5.261   3.167   4.892 -0.5191 -0.5430  0.8618
  864MOL0     H16614   5.318   2.969   4.668  0.6401 -0.6722  0.6856
  864MOL0     H16615   5.372   2.982   4.836  1.2080 -0.9747 -0.1806
  864MOL0     H16616   5.442   3.192   4.645 -1.3644  1.6074  1.0237
  864MOL0     H16617   5.537   3.140   4.797 -0.0588  0.1325 -0.7037
  864MOL0     H16618   5.643   3.081   4.576  2.2668 -1.6234  0.6111
  864MOL0     H16619   5.511   2.948   4.565  0.2936 -0.6219 -0.2284
  864MOL0     H16620   5.721   2.866   4.647 -0.0433  1.8315 -2.3782
  864MOL0     H16621   5.590   2.863   4.775  1.1887  0.5954  1.9426
  864MOL0     H16622   4.595   3.424   4.952 -1.2177  0.1162  0.5567
  864MOL0     H16623   4.347   3.414   4.936 -0.1875  1.5516 -2.0706
  864MOL0     H16624   4.019   3.277   4.481 -1.2736  0.6089 -1.3788
  864MOL0     H16625   3.796   3.276   4.436  0.2465 -0.3560 -0.2484
  864MOL0     H16626   2.540   2.691   5.645 -0.5174 -0.7332 -1.6384
  864MOL0     H16627   2.358   2.555   5.739 -1.0347 -0.0663 -4.0018
  864MOL0     H16628   1.907   2.368   5.763  1.3243  2.1773  0.8597
  864MOL0     H16629   1.736   2.253   5.896 -1.2155  0.3473  1.0482
  864MOL0     H16630   1.525   2.415   6.227  3.9636  2.2373 -1.7853
  864MOL0     H16631   1.522   2.380   6.056  1.0402  0.7979 -1.3774
  864MOL0     H16632   1.506   2.156   6.238  0.7823 -0.1846  0.5721
  864MOL0     H16633   1.455   2.170   6.064 -0.2141  1.5354  0.0044
  864MOL0     H16634   1.292   2.354   6.166 -5.5585 -0.7356  0.9534
  864MOL0     H16635   1.299   2.248   6.306  0.8169  0.6612 -0.6274
  864MOL0     H16636   1.237   2.052   6.188  0.3346  0.6646  1.7338
  864MOL0     H16637   1.222   2.138   6.028  0.7228  1.0621 -1.0131
  864MOL0     H16638   0.862   2.245   6.202 -1.1462 -3.3552  1.1471
  864MOL0     H16639   1.839   2.485   6.237 -0.4713 -0.1725  0.6289
  864MOL0     H16640   2.008   2.604   6.103  0.3398  2.0313 -1.6274
  865MOL0     O16641   0.033   4.252   5.388  0.5316  0.1009  0.2619
  865MOL0     C16642   0.034   4.263   5.270  1.4254 -0.8417  0.1791
  865MOL0     O16643   0.143   4.229   5.197 -0.8211 -0.2256 -0.3027
  865MOL0     C16644   0.246   4.151   5.249  0.3669 -0.1847 -0.2517
  865MOL0     C16645   0.280   4.040   5.172 -0.1175  0.0651  0.3115
  865MOL0     C16646   0.400   3.964   5.199 -0.4829  0.1996  0.1980
  865MOL0     C16647   0.491   4.003   5.297  0.7266  0.5678  0.5700
  865MOL0     O16648   0.603   3.932   5.308  0.9252 -0.0848  0.4843
  865MOL0     C16649   0.683   3.950   5.427 -0.7283 -0.1924  0.0800
  865MOL0     C16650   0.822   3.894   5.383  0.4229 -0.6057 -0.6838
  865MOL0     C16651   0.910   3.876   5.498  0.6526 -0.8157 -0.1245
  865MOL0     C16652   1.026   3.781   5.460  0.9225 -0.0891 -0.3425
  865MOL0     C16653   1.102   3.762   5.594  0.9964 -0.0788 -0.2840
  865MOL0     C16654   1.171   3.624   5.603  0.0611 -0.3478 -0.0287
  865MOL0     C16655   1.210   3.589   5.743 -0.8540  1.0514  0.1761
  865MOL0     C16656   1.113   3.541   5.856 -0.2892 -1.0751  0.3985
  865MOL0     N16657   0.988   3.482   5.803 -0.0643  0.4146 -0.0981
  865MOL0     C16658   0.971   3.351   5.746 -0.2748 -0.1727  0.4359
  865MOL0     C16659   0.839   3.341   5.715 -0.7902  0.3320  0.0608
  865MOL0     C16660   0.771   3.214   5.665  0.0798 -0.3570  1.0122
  865MOL0     C16661   0.823   3.169   5.524  0.8586  0.0471  0.2837
  865MOL0     C16662   0.761   3.041   5.465 -0.0663 -1.6264  0.1835
  865MOL0     C16663   0.791   2.915   5.544  0.0273  0.6499  0.2734
  865MOL0     O16664   0.928   2.891   5.581  0.2639  0.3516  0.4716
  865MOL0     C16665   1.023   2.906   5.481  0.5186 -0.0009 -0.8024
  865MOL0     C16666   0.996   2.877   5.347  0.3797  0.0243  0.5735
  865MOL0     C16667   1.094   2.906   5.250 -0.2239  0.2816  0.1966
  865MOL0     C16668   1.069   2.871   5.097  0.3207  0.6400  0.1972
  865MOL0     C16669   1.205   2.984   5.277  0.1739 -1.6828 -0.3537
  865MOL0     C16670   1.296   3.035   5.189 -0.6745  0.1878 -0.0341
  865MOL0     O16671   1.254   3.110   5.083  0.0024 -0.0678 -0.0596
  865MOL0     C16672   1.343   3.137   4.979 -0.2345  0.0493  0.0934
  865MOL0     C16673   1.369   3.049   4.870 -0.3603  0.2033  0.1632
  865MOL0     C16674   1.469   3.091   4.780  0.5117  0.9548 -1.0327
  865MOL0     C16675   1.528   3.223   4.781  0.0332 -0.7275  0.2876
  865MOL0     O16676   1.627   3.250   4.694 -0.5367  0.1281 -0.0500
  865MOL0     C16677   1.696   3.378   4.697 -0.4873 -0.2911  0.2853
  865MOL0     C16678   1.810   3.383   4.598 -0.0692  0.0238 -1.0097
  865MOL0     C16679   1.893   3.519   4.607  0.6456 -0.5169  0.9205
  865MOL0     C16680   2.011   3.528   4.514  0.0039  0.3323 -0.4046
  865MOL0     C16681   2.091   3.657   4.520  0.4146 -1.0194  0.6673
  865MOL0     C16682   2.183   3.667   4.390  0.4848 -0.6022 -0.0298
  865MOL0     C16683   2.235   3.818   4.399  0.4383 -0.1028 -0.6268
  865MOL0     C16684   2.359   3.822   4.494  0.1725 -0.2187 -0.1569
  865MOL0    Cl16685   2.403   3.993   4.527 -0.0125  0.2877 -0.0803
  865MOL0     C16686   1.480   3.306   4.878  0.4078 -0.6441  0.6343
  865MOL0     C16687   1.399   3.264   4.981 -1.5948 -0.3146  0.2283
  865MOL0     O16688   1.414   3.014   5.216 -0.2802  0.3344  0.3073
  865MOL0     C16689   1.237   3.002   5.416  1.0393  0.7681 -0.5919
  865MOL0     C16690   1.142   2.966   5.514 -0.3253 -0.8315 -1.1038
  865MOL0     N16691   0.779   3.464   5.739 -0.5188  0.5909  0.1378
  865MOL0     N16692   0.866   3.546   5.792  0.4758 -0.5824 -0.2984
  865MOL0     C16693   0.451   4.115   5.381 -0.0828  0.7910  0.2618
  865MOL0     C16694   0.325   4.175   5.365  0.4867 -0.6978  0.6157
  865MOL0     C16695  -0.093   4.311   5.195 -0.4366 -0.0916 -0.6104
  865MOL0     C16696  -0.209   4.335   5.269  0.5463  0.6414  1.1991
  865MOL0     C16697  -0.329   4.377   5.208  0.0262 -0.0600  0.4539
  865MOL0     C16698  -0.344   4.393   5.070 -1.0372  0.2125  0.5462
  865MOL0     O16699  -0.467   4.427   5.010  0.0656  0.6184 -0.2302
  865MOL0     C16700  -0.475   4.536   4.911  0.4324  0.2944 -0.0850
  865MOL0     C16701  -0.619   4.540   4.863  0.4785  0.1057 -0.3688
  865MOL0     C16702  -0.690   4.659   4.938 -0.1218  0.4548  0.1888
  865MOL0     C16703  -0.842   4.670   4.914  0.2540 -0.1359 -0.2709
  865MOL0     C16704  -0.852   4.700   4.767 -0.0585  0.7891 -0.0792
  865MOL0     C16705  -0.866   4.714   4.645 -0.4162  0.4795 -0.3912
  865MOL0     C16706  -0.230   4.350   4.993  0.7375 -1.5232 -0.1135
  865MOL0     C16707  -0.102   4.315   5.048  0.1763 -1.5356  0.1964
  865MOL0     H16708   0.219   4.011   5.087  0.1927  2.1558 -0.6811
  865MOL0     H16709   0.426   3.875   5.143  0.0688  0.1495  0.5269
  865MOL0     H16710   0.687   4.057   5.448  1.2233 -0.4101  1.1241
  865MOL0     H16711   0.643   3.894   5.513 -2.0680  1.3228  0.4949
  865MOL0     H16712   0.808   3.797   5.335  0.0387 -0.8314 -0.1321
  865MOL0     H16713   0.876   3.962   5.316  5.2799 -4.9881 -1.8630
  865MOL0     H16714   0.964   3.967   5.526 -1.1652 -0.6600  3.4780
  865MOL0     H16715   0.851   3.842   5.584  3.2488  2.7673  3.5093
  865MOL0     H16716   0.982   3.687   5.425 -0.7578 -0.5667  2.6626
  865MOL0     H16717   1.094   3.820   5.384  2.5496 -1.3425  0.3961
  865MOL0     H16718   1.174   3.843   5.612 -0.4236  2.0915 -3.4353
  865MOL0     H16719   1.024   3.768   5.670  1.1018 -1.6827 -0.0017
  865MOL0     H16720   1.108   3.548   5.557  0.5901 -0.8650  0.0869
  865MOL0     H16721   1.262   3.634   5.543 -0.4122  3.4342 -0.3883
  865MOL0     H16722   1.274   3.500   5.743 -1.0551  0.8751  1.9321
  865MOL0     H16723   1.274   3.665   5.788 -0.5788 -0.1780  1.9446
  865MOL0     H16724   1.083   3.629   5.914  1.1254  0.7444 -1.4865
  865MOL0     H16725   1.158   3.475   5.930  2.2370 -0.3653 -0.4193
  865MOL0     H16726   1.042   3.270   5.756 -0.3816 -0.0440  3.0897
  865MOL0     H16727   0.778   3.131   5.737 -2.2264 -0.5138  1.1091
  865MOL0     H16728   0.665   3.239   5.671 -0.3135 -0.5368 -3.0139
  865MOL0     H16729   0.932   3.164   5.530  0.7144 -2.8372  3.2265
  865MOL0     H16730   0.807   3.236   5.439  5.5057  0.8006 -0.2357
  865MOL0     H16731   0.805   3.031   5.366  3.5563 -4.0132  1.8054
  865MOL0     H16732   0.652   3.054   5.458 -0.2071 -2.9485 -0.2819
  865MOL0     H16733   0.763   2.839   5.470  2.6580  0.8965 -1.1096
  865MOL0     H16734   0.733   2.906   5.636  2.0386 -1.0323  1.4792
  865MOL0     H16735   0.915   2.812   5.314  1.9603 -4.0089  3.7853
  865MOL0     H16736   1.151   2.890   5.028  0.3102 -0.5889 -0.1744
  865MOL0     H16737   1.036   2.768   5.085  0.6290  0.5858 -0.1773
  865MOL0     H16738   0.982   2.927   5.061 -0.7835 -2.6010 -2.7023
  865MOL0     H16739   1.322   2.951   4.874  1.3983 -0.6871 -0.0735
  865MOL0     H16740   1.499   3.018   4.704  2.1757  0.4974  0.0016
  865MOL0     H16741   1.626   3.461   4.683 -0.2440 -0.1045  0.1549
  865MOL0     H16742   1.733   3.389   4.800 -1.3066  0.3461  0.5143
  865MOL0     H16743   1.878   3.302   4.626  0.8346  1.3831  0.9600
  865MOL0     H16744   1.767   3.367   4.499 -0.4739  1.8139 -1.1644
  865MOL0     H16745   1.942   3.526   4.704  2.9148  1.3112 -0.2545
  865MOL0     H16746   1.834   3.609   4.590  0.6144 -0.5522  0.8387
  865MOL0     H16747   2.084   3.453   4.544 -0.3658  0.0299 -0.2494
  865MOL0     H16748   1.982   3.500   4.412 -1.6799 -1.3991  0.4698
  865MOL0     H16749   2.153   3.659   4.609 -2.4346 -1.0377  2.8002
  865MOL0     H16750   2.014   3.735   4.531  0.3312 -0.7176 -1.5582
  865MOL0     H16751   2.265   3.595   4.398 -0.6531 -1.7336  2.4883
  865MOL0     H16752   2.137   3.655   4.291 -0.0316  1.6134 -0.1237
  865MOL0     H16753   2.159   3.882   4.445  1.1286  1.8917 -2.1375
  865MOL0     H16754   2.247   3.856   4.297 -1.4555  0.4926 -0.6636
  865MOL0     H16755   2.445   3.769   4.451  0.2228 -0.7702  0.6045
  865MOL0     H16756   2.337   3.755   4.577  0.2398  0.0869  0.1122
  865MOL0     H16757   1.510   3.411   4.881 -0.5030 -0.4033  3.1049
  865MOL0     H16758   1.375   3.336   5.058 -0.1972  2.3255 -1.6272
  865MOL0     H16759   1.328   3.048   5.454 -0.7572  1.7507  2.9734
  865MOL0     H16760   1.156   2.982   5.621 -2.1481 -0.3204 -0.8929
  865MOL0     H16761   0.517   4.145   5.462  1.9809 -1.3673 -0.5116
  865MOL0     H16762   0.280   4.246   5.433 -0.6639 -2.6666  1.9799
  865MOL0     H16763  -0.210   4.310   5.375 -1.1552  3.5279  1.9558
  865MOL0     H16764  -0.411   4.404   5.274 -0.5093 -0.0125 -0.2186
  865MOL0     H16765  -0.437   4.631   4.949 -1.0261  1.5379 -1.6287
  865MOL0     H16766  -0.412   4.503   4.828 -0.5248  0.3330 -0.8461
  865MOL0     H16767  -0.675   4.450   4.893 -0.4545  0.3132 -1.4378
  865MOL0     H16768  -0.624   4.560   4.756  1.4549 -0.4801 -0.5404
  865MOL0     H16769  -0.636   4.749   4.909 -0.4600  0.5321 -0.2154
  865MOL0     H16770  -0.666   4.648   5.044 -0.0912 -1.1413  0.0456
  865MOL0     H16771  -0.885   4.751   4.974  1.8162 -0.1866  0.9990
  865MOL0     H16772  -0.893   4.578   4.944 -1.7009  0.0976 -2.5752
  865MOL0     H16773  -0.884   4.725   4.540  0.0753  0.3006 -0.4990
  865MOL0     H16774  -0.236   4.347   4.885  1.3640 -0.3462 -0.1938
  865MOL0     H16775  -0.022   4.288   4.981  0.2730  1.4189 -1.0149
  866MOL0     O16776  11.155   2.195  10.143  1.4983 -0.4488 -0.2310
  866MOL0     C16777  11.196   2.218  10.256 -0.5765  0.0018  0.2816
  866MOL0     O16778  11.131   2.198  10.373 -0.3893 -0.4962 -0.6950
  866MOL0     C16779  10.992   2.171  10.377 -0.0192  0.6637  0.3658
  866MOL0     C16780  10.961   2.071  10.472 -0.0710  0.3391  0.2853
  866MOL0     C16781  10.827   2.043  10.492  0.0801  0.2649 -0.7539
  866MOL0     C16782  10.723   2.111  10.427 -0.2645 -0.3484  0.0206
  866MOL0     O16783  10.585   2.097  10.454 -0.4397 -0.3886 -0.1316
  866MOL0     C16784  10.536   1.988  10.534 -0.7819  0.8426 -0.5117
  866MOL0     C16785  10.405   2.017  10.607  0.1892  0.2090  0.2054
  866MOL0     C16786  10.438   2.086  10.748  0.1132  0.3232  0.1031
  866MOL0     C16787  10.314   2.099  10.829  0.3795 -0.1738  0.1050
  866MOL0     C16788  10.338   2.132  10.974 -0.4536 -0.3935 -0.1208
  866MOL0     C16789  10.220   2.201  11.052 -0.7823  0.3485 -0.4454
  866MOL0     C16790  10.190   2.334  10.996  0.0678 -0.4794  0.0866
  866MOL0     C16791  10.118   2.437  11.094  0.6049  0.5018  0.4537
  866MOL0     N16792  10.009   2.366  11.166 -0.0622  0.6144  0.7097
  866MOL0     C16793  10.025   2.296  11.285 -0.5158 -0.2177 -0.0934
  866MOL0     C16794   9.910   2.243  11.309 -0.6566  1.3548 -0.1106
  866MOL0     C16795   9.878   2.147  11.421  0.6601  1.2605 -0.5424
  866MOL0     C16796   9.729   2.147  11.462 -0.0937  0.2421 -0.1015
  866MOL0     C16797   9.625   2.071  11.380  0.0486 -0.6001 -1.2832
  866MOL0     C16798   9.486   2.101  11.444  0.2936  0.3188 -0.4754
  866MOL0     O16799   9.478   2.055  11.580 -0.1182  0.0858  0.4189
  866MOL0     C16800   9.368   2.074  11.657  0.3416  0.1411 -0.6286
  866MOL0     C16801   9.354   2.175  11.751  0.9632 -0.3317  0.8615
  866MOL0     C16802   9.241   2.185  11.832 -0.1067 -0.7862  0.7504
  866MOL0     C16803   9.240   2.308  11.923 -0.7145 -0.3828 -0.9913
  866MOL0     C16804   9.138   2.093  11.820 -0.2624  0.6489  0.3198
  866MOL0     C16805   9.011   2.102  11.898 -0.1509  0.5291 -0.5728
  866MOL0     O16806   8.933   1.992  11.889  0.1849  0.0312 -0.2696
  866MOL0     C16807   8.814   2.010  11.954 -1.3400 -0.3864 -0.5250
  866MOL0     C16808   8.698   2.042  11.891 -0.3603  0.0366  0.2270
  866MOL0     C16809   8.573   2.023  11.960 -0.9498  0.7912 -0.3079
  866MOL0     C16810   8.564   1.975  12.091 -0.2068 -0.0989 -0.9330
  866MOL0     O16811   8.444   1.925  12.143  0.0791  0.5758  0.1395
  866MOL0     C16812   8.439   1.940  12.283  0.6087 -0.3981  0.0035
  866MOL0     C16813   8.293   1.966  12.340 -0.5432 -0.8237  0.6870
  866MOL0     C16814   8.206   1.846  12.317 -1.1423  0.5167 -0.0920
  866MOL0     C16815   8.064   1.888  12.287  0.2233 -0.3915  0.0077
  866MOL0     C16816   7.966   1.772  12.342 -0.2074 -0.3178  0.5489
  866MOL0     C16817   7.834   1.783  12.275  0.5505  0.1377  0.0526
  866MOL0     C16818   7.752   1.655  12.303  0.3390 -0.2352  0.0026
  866MOL0     C16819   7.619   1.654  12.229 -0.5199 -0.1733  0.7992
  866MOL0    Cl16820   7.518   1.801  12.275  0.1625 -0.1966 -0.4212
  866MOL0     C16821   8.684   1.952  12.155 -0.4465 -0.3390  0.8504
  866MOL0     C16822   8.804   1.971  12.085  0.9607  0.5403 -0.5010
  866MOL0     O16823   9.004   2.184  11.992  0.0650  0.0181  0.5149
  866MOL0     C16824   9.140   1.995  11.718 -0.1645 -0.1798 -0.5593
  866MOL0     C16825   9.254   1.982  11.639 -0.0893 -0.1975  0.0575
  866MOL0     N16826   9.825   2.277  11.205 -0.1634  0.1006  1.1201
  866MOL0     N16827   9.883   2.362  11.128  0.5902 -0.0890 -0.3997
  866MOL0     C16828  10.756   2.217  10.341  0.5376 -0.0923 -0.1970
  866MOL0     C16829  10.893   2.251  10.318  0.2094  0.0553  0.1053
  866MOL0     C16830  11.338   2.259  10.262 -0.4536 -0.3072  1.2341
  866MOL0     C16831  11.403   2.248  10.385  0.7621 -0.2546  0.3398
  866MOL0     C16832  11.539   2.285  10.386  0.4053 -0.0597  0.5951
  866MOL0     C16833  11.619   2.314  10.274  0.1534 -0.9764  0.0921
  866MOL0     O16834  11.758   2.320  10.280  0.7103  0.4449  0.0434
  866MOL0     C16835  11.829   2.256  10.382 -0.1804 -0.1639  0.9180
  866MOL0     C16836  11.952   2.192  10.320 -0.0091  0.3861 -0.6170
  866MOL0     C16837  12.047   2.284  10.237 -0.4282  0.1240 -0.3701
  866MOL0     C16838  12.101   2.391  10.328  0.8092 -0.9437 -0.1699
  866MOL0     C16839  12.186   2.483  10.252 -0.7292 -0.6183 -0.0749
  866MOL0     C16840  12.254   2.556  10.175  0.9237 -0.6494 -1.2686
  866MOL0     C16841  11.555   2.327  10.154 -0.5394 -0.3723 -0.3993
  866MOL0     C16842  11.414   2.306  10.148  0.7637  0.9530  0.6521
  866MOL0     H16843  11.038   2.021  10.530  0.0087 -0.6844 -0.6529
  866MOL0     H16844  10.811   1.972  10.572  0.8057  0.5552 -0.3465
  866MOL0     H16845  10.532   1.907  10.459  2.0668  1.6208 -1.6183
  866MOL0     H16846  10.599   1.952  10.615 -0.1092  4.5030  0.7340
  866MOL0     H16847  10.349   2.085  10.543  1.5612 -2.1482 -3.8315
  866MOL0     H16848  10.340   1.930  10.620 -0.9619  0.7871 -1.4954
  866MOL0     H16849  10.510   2.026  10.805 -0.0124 -0.7457 -0.8221
  866MOL0     H16850  10.493   2.179  10.735  3.2260 -1.1521  1.6128
  866MOL0     H16851  10.250   2.177  10.786 -1.1736  0.8673  3.8717
  866MOL0     H16852  10.249   2.011  10.827 -0.8653  0.6786  1.3609
  866MOL0     H16853  10.350   2.034  11.021  2.3387  0.7530  1.8550
  866MOL0     H16854  10.434   2.179  10.999 -1.4421  1.8937 -0.3546
  866MOL0     H16855  10.129   2.141  11.049 -0.2618 -0.4337 -1.8031
  866MOL0     H16856  10.247   2.204  11.158  1.1104  1.2210 -0.9061
  866MOL0     H16857  10.285   2.378  10.964 -0.4768  0.2496 -0.5807
  866MOL0     H16858  10.111   2.315  10.922 -0.3441 -1.8221  0.8370
  866MOL0     H16859  10.072   2.514  11.032 -0.7368 -0.9286 -0.3848
  866MOL0     H16860  10.190   2.467  11.171  1.6734 -1.8719  0.4660
  866MOL0     H16861  10.120   2.287  11.337 -0.2709 -0.9648 -0.6404
  866MOL0     H16862   9.911   2.047  11.391 -0.5698  1.2671 -2.0338
  866MOL0     H16863   9.943   2.179  11.503 -0.5087  0.6314  0.6691
  866MOL0     H16864   9.697   2.252  11.469 -1.6984 -0.3162  2.2583
  866MOL0     H16865   9.723   2.105  11.563 -0.5094  2.3734  0.8242
  866MOL0     H16866   9.629   1.962  11.371 -0.8199 -0.9642  1.7273
  866MOL0     H16867   9.641   2.110  11.279 -1.9075  1.8665 -0.7474
  866MOL0     H16868   9.413   2.045  11.385 -0.6106 -1.2775  2.0068
  866MOL0     H16869   9.464   2.209  11.442  0.3553  0.3234 -0.9536
  866MOL0     H16870   9.425   2.257  11.766 -0.2399  0.3516  3.5958
  866MOL0     H16871   9.324   2.374  11.901 -0.1532 -0.2153  1.3841
  866MOL0     H16872   9.150   2.366  11.899 -0.1034  0.9705 -0.0894
  866MOL0     H16873   9.234   2.276  12.027 -3.3809  1.1720 -0.5756
  866MOL0     H16874   8.700   2.071  11.786  1.8250  0.0862  0.2483
  866MOL0     H16875   8.481   2.042  11.905 -1.7449 -0.1488  0.6647
  866MOL0     H16876   8.466   1.841  12.321 -2.8076 -1.5580 -0.3150
  866MOL0     H16877   8.506   2.019  12.319  0.1393  1.3415 -2.6421
  866MOL0     H16878   8.314   1.991  12.444  5.7760 -0.7684 -0.2116
  866MOL0     H16879   8.241   2.049  12.289  0.5803 -1.3455 -1.4280
  866MOL0     H16880   8.205   1.788  12.410  0.2022  2.0876  0.9672
  866MOL0     H16881   8.234   1.778  12.237 -2.8949 -2.0717  1.3632
  866MOL0     H16882   8.043   1.977  12.347  1.8129 -0.4569  0.7080
  866MOL0     H16883   8.055   1.914  12.181  2.8677  1.7646  0.1807
  866MOL0     H16884   7.950   1.785  12.450 -1.1990  0.3697  0.3320
  866MOL0     H16885   8.013   1.677  12.315 -3.2328 -1.0407 -2.8345
  866MOL0     H16886   7.784   1.871  12.317  1.6650 -0.2274  2.2794
  866MOL0     H16887   7.843   1.806  12.168 -1.5079 -0.4041 -0.2784
  866MOL0     H16888   7.738   1.645  12.411  0.4131 -2.7301 -0.1567
  866MOL0     H16889   7.808   1.567  12.272 -1.0777 -0.9704 -0.5666
  866MOL0     H16890   7.565   1.564  12.260 -0.7119 -0.9197 -1.4811
  866MOL0     H16891   7.629   1.652  12.120 -1.9414 -1.1688  0.6622
  866MOL0     H16892   8.681   1.916  12.258  1.2853 -2.3426  0.2667
  866MOL0     H16893   8.899   1.951  12.135  0.0429 -0.7518  0.7778
  866MOL0     H16894   9.052   1.932  11.713 -0.7057  0.3438  1.3170
  866MOL0     H16895   9.253   1.907  11.561 -1.7666  1.5286 -1.7203
  866MOL0     H16896  10.682   2.279  10.292  0.9389  0.8600  0.3731
  866MOL0     H16897  10.926   2.334  10.256  0.8592  0.3961  0.8859
  866MOL0     H16898  11.347   2.221  10.474 -0.6682 -1.4186 -0.8549
  866MOL0     H16899  11.579   2.275  10.487  0.5332  2.3206  0.8453
  866MOL0     H16900  11.853   2.333  10.454 -4.8869  0.0424  2.6488
  866MOL0     H16901  11.765   2.176  10.420  0.2183 -1.4086 -0.8817
  866MOL0     H16902  11.911   2.114  10.255  0.3404 -0.1007 -0.2622
  866MOL0     H16903  12.010   2.142  10.399 -2.7129 -0.5197  0.9257
  866MOL0     H16904  11.986   2.320  10.153  0.2207  0.1608 -0.8323
  866MOL0     H16905  12.127   2.223  10.195 -1.3236  1.6332 -4.8094
  866MOL0     H16906  12.160   2.335  10.402 -0.8129 -1.7357  0.5863
  866MOL0     H16907  12.026   2.452  10.378  1.4626 -0.2685  0.0021
  866MOL0     H16908  12.315   2.626  10.123  0.8613  0.9011  0.6230
  866MOL0     H16909  11.607   2.354  10.062  2.6483  0.1120  1.4079
  866MOL0     H16910  11.353   2.308  10.058 -0.9797 -4.2695  1.3296
  867MOL0     O16911  10.248  11.126   9.317  0.9629 -0.0581 -0.0207
  867MOL0     C16912  10.271  11.242   9.286 -0.3066  0.1239  0.1957
  867MOL0     O16913  10.182  11.340   9.228  0.2039  0.5234 -0.6874
  867MOL0     C16914  10.043  11.317   9.204 -0.6456  0.4881  0.2356
  867MOL0     C16915   9.964  11.197   9.231  0.4370 -0.4787 -0.2802
  867MOL0     C16916   9.833  11.184   9.201  0.8226  0.5646 -0.4920
  867MOL0     C16917   9.764  11.280   9.138  0.1787  0.0747  0.5044
  867MOL0     O16918   9.636  11.254   9.112  0.0043 -0.8054 -0.3631
  867MOL0     C16919   9.558  11.344   9.024 -0.8097  0.0392  0.2163
  867MOL0     C16920   9.509  11.474   9.083 -0.4891 -0.4650 -1.0657
  867MOL0     C16921   9.408  11.451   9.190  0.5537 -0.2661  0.3042
  867MOL0     C16922   9.384  11.570   9.274  0.2757  0.0118 -0.4746
  867MOL0     C16923   9.253  11.553   9.357  0.7419 -0.1785  0.5526
  867MOL0     C16924   9.277  11.464   9.481 -0.4409  0.1378  0.1218
  867MOL0     C16925   9.135  11.407   9.523 -0.2171  0.1520 -0.2303
  867MOL0     C16926   9.153  11.301   9.635  0.7656 -0.1888 -0.0817
  867MOL0     N16927   9.042  11.205   9.644  0.1545  0.8135  0.2649
  867MOL0     C16928   9.044  11.077   9.691  0.4316  0.2342 -0.2495
  867MOL0     C16929   8.919  11.043   9.738  1.1161 -0.4070 -0.3757
  867MOL0     C16930   8.878  10.913   9.793  0.2403 -0.2768 -0.0076
  867MOL0     C16931   8.958  10.861   9.913 -1.1069 -0.3909 -0.2276
  867MOL0     C16932   8.943  10.959  10.039  1.0769  0.6460 -0.1373
  867MOL0     C16933   9.031  10.932  10.154  0.3365 -1.2860 -0.7506
  867MOL0     O16934   8.987  10.807  10.201 -0.9245 -1.0614  0.5178
  867MOL0     C16935   9.085  10.750  10.279  0.1366 -0.2293 -0.1464
  867MOL0     C16936   9.181  10.664  10.219  0.6060 -0.2995  0.3016
  867MOL0     C16937   9.287  10.619  10.297  0.0904 -0.2121  0.1323
  867MOL0     C16938   9.383  10.523  10.217 -0.1794 -0.7162 -0.2449
  867MOL0     C16939   9.301  10.664  10.428  0.3276  0.5104  0.4298
  867MOL0     C16940   9.425  10.628  10.518  0.4328  0.4217  0.1448
  867MOL0     O16941   9.437  10.689  10.639  0.2145  0.0596 -0.9557
  867MOL0     C16942   9.540  10.641  10.716 -0.2416  0.3505 -0.3226
  867MOL0     C16943   9.532  10.524  10.781  0.8817  0.1354 -0.1151
  867MOL0     C16944   9.637  10.457  10.847 -0.9640 -0.3343 -0.1372
  867MOL0     C16945   9.758  10.521  10.853 -0.5437  0.6779 -0.5024
  867MOL0     O16946   9.866  10.464  10.922 -0.0765 -0.3135  0.0796
  867MOL0     C16947   9.993  10.532  10.935 -0.2386  0.6174 -0.7446
  867MOL0     C16948  10.084  10.438  11.023 -0.1966 -0.4827 -0.0015
  867MOL0     C16949  10.226  10.461  11.021 -0.4917 -0.6134 -0.8967
  867MOL0     C16950  10.269  10.611  11.055  1.1479  0.8687  0.1018
  867MOL0     C16951  10.415  10.619  11.008 -0.6163 -0.5928  0.7589
  867MOL0     C16952  10.479  10.739  11.070  0.5182  0.6421 -0.2272
  867MOL0     C16953  10.625  10.736  11.034 -0.3037 -0.3498 -0.4199
  867MOL0     C16954  10.702  10.627  11.098 -0.4321  0.0748 -0.8430
  867MOL0    Cl16955  10.879  10.654  11.090  0.0425 -0.0858 -0.0827
  867MOL0     C16956   9.771  10.645  10.794  0.1222  0.1132  0.4873
  867MOL0     C16957   9.662  10.702  10.724  0.1321 -0.2180  0.4009
  867MOL0     O16958   9.504  10.539  10.477  0.5228  0.0190  0.2190
  867MOL0     C16959   9.208  10.748  10.479  0.7512 -0.4159  0.9154
  867MOL0     C16960   9.101  10.789  10.412 -0.4612  1.1314  0.4221
  867MOL0     N16961   8.840  11.144   9.686  0.1601  0.3887  0.0695
  867MOL0     N16962   8.909  11.240   9.644 -0.6180 -0.1376 -0.1404
  867MOL0     C16963   9.834  11.392   9.094 -0.1826 -0.2523 -0.7666
  867MOL0     C16964   9.973  11.406   9.123 -0.5461  0.4922 -0.2942
  867MOL0     C16965  10.416  11.271   9.305  0.2007 -0.2782  0.6679
  867MOL0     C16966  10.511  11.189   9.372  0.1737  0.0541 -1.3153
  867MOL0     C16967  10.651  11.219   9.378  0.2724 -0.6586  1.2152
  867MOL0     C16968  10.688  11.333   9.306 -0.4416  0.5861 -0.6996
  867MOL0     O16969  10.820  11.373   9.294 -0.8737  0.1276  0.6956
  867MOL0     C16970  10.926  11.303   9.360 -1.4842  0.2445  0.2086
  867MOL0     C16971  11.060  11.387   9.366  0.2454  0.1666 -0.2726
  867MOL0     C16972  11.171  11.304   9.288 -0.3813  0.9211  0.3599
  867MOL0     C16973  11.303  11.386   9.309  0.5087  0.2423  1.4309
  867MOL0     C16974  11.399  11.328   9.403  0.8234 -0.1967 -0.4377
  867MOL0     C16975  11.483  11.290   9.478  0.1738  0.4178  0.5900
  867MOL0     C16976  10.598  11.420   9.244 -0.0897  0.0403 -0.0454
  867MOL0     C16977  10.459  11.398   9.251 -0.0708 -0.1551  0.5029
  867MOL0     H16978  10.007  11.107   9.273 -1.9227 -1.9231 -0.7814
  867MOL0     H16979   9.787  11.090   9.230  0.0382  1.1212  0.1117
  867MOL0     H16980   9.617  11.362   8.934  0.0595 -2.6753  0.1598
  867MOL0     H16981   9.471  11.287   8.991  0.5102 -1.7175 -0.4344
  867MOL0     H16982   9.589  11.541   9.116  0.9193 -3.1588  1.5025
  867MOL0     H16983   9.469  11.542   9.007  2.5531  2.6353 -0.1717
  867MOL0     H16984   9.313  11.434   9.140  0.2123 -0.1842  0.9034
  867MOL0     H16985   9.436  11.368   9.255 -0.2513 -1.6185 -1.0256
  867MOL0     H16986   9.470  11.594   9.336 -1.2905  4.2693  0.4059
  867MOL0     H16987   9.364  11.656   9.210  0.4472  3.2224  3.4062
  867MOL0     H16988   9.218  11.647   9.401 -1.5630 -0.7233  0.0185
  867MOL0     H16989   9.174  11.508   9.296  0.0597  1.5018  0.1647
  867MOL0     H16990   9.347  11.381   9.467 -2.0780 -1.1368 -0.9179
  867MOL0     H16991   9.314  11.530   9.560  0.4447  0.7719 -0.7902
  867MOL0     H16992   9.071  11.491   9.552  2.9828  1.9407  2.1481
  867MOL0     H16993   9.091  11.367   9.431 -0.4610  2.2901 -1.0983
  867MOL0     H16994   9.158  11.360   9.727 -1.4471  1.5347 -0.9878
  867MOL0     H16995   9.252  11.257   9.619  0.5108 -0.7609 -0.0915
  867MOL0     H16996   9.134  11.017   9.696  0.7058  0.6122 -0.5621
  867MOL0     H16997   8.777  10.939   9.824  1.1078 -0.2378  3.0927
  867MOL0     H16998   8.873  10.852   9.702  0.5031  1.8726 -1.5406
  867MOL0     H16999   9.062  10.854   9.880 -1.5741 -0.9971 -1.6761
  867MOL0     H17000   8.926  10.758   9.926  3.3426 -1.8833  0.5281
  867MOL0     H17001   8.841  10.947  10.076  1.2762 -3.9602 -0.5032
  867MOL0     H17002   8.961  11.064  10.012  1.7527  1.3708  2.7822
  867MOL0     H17003   9.030  11.007  10.234 -1.1659  0.6766 -2.4897
  867MOL0     H17004   9.136  10.925  10.125  0.2640 -0.3252 -1.2916
  867MOL0     H17005   9.161  10.629  10.119  0.7011  0.9036 -0.1544
  867MOL0     H17006   9.331  10.468  10.138  0.2828 -0.1043 -1.0015
  867MOL0     H17007   9.466  10.587  10.183 -1.2501  0.3359 -0.9513
  867MOL0     H17008   9.419  10.439  10.277 -1.4044 -0.3489  1.0443
  867MOL0     H17009   9.434  10.478  10.790  0.4329  0.6195 -2.1723
  867MOL0     H17010   9.610  10.373  10.910  0.4866 -0.9177 -0.2570
  867MOL0     H17011  10.034  10.548  10.835  4.1976  0.9233  0.8819
  867MOL0     H17012   9.986  10.629  10.985 -0.0216 -0.4374  1.4601
  867MOL0     H17013  10.040  10.452  11.122 -1.7610  1.3243 -0.8864
  867MOL0     H17014  10.081  10.338  10.979  1.2241  0.7187 -3.0954
  867MOL0     H17015  10.273  10.427  10.928  0.4719 -0.4940 -0.4654
  867MOL0     H17016  10.267  10.396  11.098  0.1430  1.7133  0.8571
  867MOL0     H17017  10.212  10.690  11.004 -1.3004 -0.8145  0.0585
  867MOL0     H17018  10.248  10.633  11.160  0.9360  2.2794 -0.2142
  867MOL0     H17019  10.431  10.610  10.900  1.9061  1.0397  0.9107
  867MOL0     H17020  10.455  10.529  11.056  1.1002 -0.1394  0.2643
  867MOL0     H17021  10.437  10.834  11.035  2.0192  0.3822 -3.0116
  867MOL0     H17022  10.452  10.742  11.176 -1.4916 -3.5756 -0.4055
  867MOL0     H17023  10.670  10.830  11.066 -2.8368  1.0173 -0.5554
  867MOL0     H17024  10.637  10.723  10.926  0.0334 -0.8657 -0.3229
  867MOL0     H17025  10.680  10.533  11.047  1.5286  0.1709 -1.9273
  867MOL0     H17026  10.670  10.623  11.203  0.5170  2.4285 -0.3998
  867MOL0     H17027   9.865  10.698  10.807 -1.6700  3.9314 -0.7095
  867MOL0     H17028   9.670  10.802  10.682 -0.2152  0.4332  1.8119
  867MOL0     H17029   9.213  10.790  10.579 -2.9557 -0.1715  1.1456
  867MOL0     H17030   9.029  10.849  10.467 -1.5414 -0.4992  0.8673
  867MOL0     H17031   9.785  11.472   9.038  0.1196  0.7647  0.3733
  867MOL0     H17032  10.018  11.502   9.100  3.0718 -1.3986 -1.9116
  867MOL0     H17033  10.485  11.104   9.434  2.2767  0.9508  0.9548
  867MOL0     H17034  10.728  11.173   9.440  1.9236  1.1297  0.6073
  867MOL0     H17035  10.907  11.296   9.468  0.3651  1.0694  0.6236
  867MOL0     H17036  10.946  11.207   9.313 -0.8249  0.9015 -0.8955
  867MOL0     H17037  11.086  11.400   9.471  0.1338 -0.5266 -0.1498
  867MOL0     H17038  11.027  11.482   9.323  0.4438  0.2701 -0.2002
  867MOL0     H17039  11.142  11.302   9.183  0.8807  0.6299  0.0094
  867MOL0     H17040  11.170  11.202   9.327 -0.4746  1.3525  1.5490
  867MOL0     H17041  11.287  11.492   9.330  0.7009  0.0465  2.6256
  867MOL0     H17042  11.344  11.385   9.208 -1.2125 -0.4685  0.6988
  867MOL0     H17043  11.557  11.260   9.550  0.2838 -1.2792 -0.1660
  867MOL0     H17044  10.639  11.501   9.184 -0.2302 -3.3554 -5.3988
  867MOL0     H17045  10.397  11.469   9.197  1.4745 -0.6200 -2.0575
  868MOL0     O17046   9.523   5.449   6.731  0.5300 -0.2985 -0.1743
  868MOL0     C17047   9.586   5.455   6.842  0.5379 -0.4862  0.3385
  868MOL0     O17048   9.550   5.516   6.953  0.4745  0.0763 -0.1209
  868MOL0     C17049   9.434   5.592   6.972 -0.1741  0.8396  0.8875
  868MOL0     C17050   9.416   5.638   7.101  0.6787  0.0324  0.3177
  868MOL0     C17051   9.287   5.702   7.142 -0.9054  0.7459 -0.4159
  868MOL0     C17052   9.186   5.714   7.046 -0.0996  0.1214  0.0087
  868MOL0     O17053   9.068   5.754   7.098  0.0807 -1.1465  0.0676
  868MOL0     C17054   8.956   5.765   7.003  0.4192 -0.0089 -0.9001
  868MOL0     C17055   8.832   5.761   7.084 -0.3861  0.2175  0.5462
  868MOL0     C17056   8.710   5.733   7.005  0.0682 -0.1481  0.5483
  868MOL0     C17057   8.593   5.745   7.096 -0.3248  0.2799 -0.3488
  868MOL0     C17058   8.468   5.692   7.024  0.0714  0.2185 -0.1155
  868MOL0     C17059   8.349   5.724   7.101  0.2743  0.0394  0.2080
  868MOL0     C17060   8.215   5.730   7.021  0.4767  0.2686 -0.7545
  868MOL0     C17061   8.160   5.591   6.991  0.3910  0.2361  0.4465
  868MOL0     N17062   8.125   5.585   6.843  0.5966  0.4297  0.1968
  868MOL0     C17063   8.219   5.596   6.746  0.7174  0.1331  0.1710
  868MOL0     C17064   8.157   5.571   6.629  0.2555  0.5272 -1.0548
  868MOL0     C17065   8.211   5.569   6.488 -0.1948  0.0554 -0.5845
  868MOL0     C17066   8.187   5.704   6.433  0.6218 -0.6320 -0.5505
  868MOL0     C17067   8.263   5.708   6.300 -1.0400 -1.0835  0.6701
  868MOL0     C17068   8.243   5.839   6.224  0.0696  0.0110 -0.0624
  868MOL0     O17069   8.093   5.862   6.208  0.3381  0.4261  0.3117
  868MOL0     C17070   8.036   5.787   6.111  0.6379  0.3007 -0.1065
  868MOL0     C17071   8.085   5.709   6.006  0.0835 -0.0605  0.0082
  868MOL0     C17072   7.998   5.647   5.906 -0.9695 -0.2619 -0.7411
  868MOL0     C17073   8.070   5.565   5.796  0.5685 -0.5758 -0.1333
  868MOL0     C17074   7.855   5.659   5.918 -0.4249 -0.8061 -0.5920
  868MOL0     C17075   7.752   5.601   5.827 -1.0874 -0.4603 -0.5604
  868MOL0     O17076   7.624   5.603   5.863 -0.1499 -0.2542  0.2434
  868MOL0     C17077   7.539   5.542   5.781 -0.5215  0.2436  0.5385
  868MOL0     C17078   7.412   5.602   5.780 -0.6424 -0.8748 -0.4517
  868MOL0     C17079   7.316   5.549   5.696 -0.2290 -0.7107  0.8426
  868MOL0     C17080   7.344   5.434   5.619  0.3901  0.4273  1.7801
  868MOL0     O17081   7.257   5.371   5.533 -0.8970 -1.0531  0.9831
  868MOL0     C17082   7.132   5.427   5.498 -0.3026  0.3395 -0.2477
  868MOL0     C17083   7.026   5.414   5.618 -0.8622  0.0946  0.2014
  868MOL0     C17084   6.923   5.526   5.611  0.9811 -0.3270 -0.6570
  868MOL0     C17085   6.848   5.521   5.476  0.5349 -0.0907 -0.4827
  868MOL0     C17086   6.760   5.397   5.462  0.1050 -0.2334  0.9512
  868MOL0     C17087   6.674   5.425   5.339  0.0217 -0.8535 -0.4547
  868MOL0     C17088   6.573   5.307   5.331  0.4469 -0.0334 -0.3021
  868MOL0     C17089   6.470   5.330   5.217 -0.7130  0.3076 -0.5974
  868MOL0    Cl17090   6.316   5.385   5.288 -0.1999 -0.0795 -0.9795
  868MOL0     C17091   7.459   5.360   5.634 -0.2383  0.3405 -0.2686
  868MOL0     C17092   7.559   5.416   5.718  0.4993  0.5154 -0.2855
  868MOL0     O17093   7.797   5.573   5.717  0.1120 -0.1636  0.3082
  868MOL0     C17094   7.814   5.732   6.028  0.0558 -0.3177  0.5113
  868MOL0     C17095   7.894   5.798   6.120 -0.6797  0.6094  0.5330
  868MOL0     N17096   8.023   5.536   6.654 -0.7352 -0.0111 -0.0139
  868MOL0     N17097   8.003   5.550   6.785 -0.2025 -0.2144 -0.1108
  868MOL0     C17098   9.213   5.670   6.914  0.2498 -0.4562  0.4567
  868MOL0     C17099   9.338   5.617   6.878 -1.3690 -0.5481  0.5276
  868MOL0     C17100   9.715   5.391   6.831  0.0376 -0.5284  0.4982
  868MOL0     C17101   9.808   5.413   6.938  0.8389  0.2361 -0.0606
  868MOL0     C17102   9.935   5.364   6.933 -0.3156  0.0823  0.4010
  868MOL0     C17103   9.981   5.289   6.823 -0.2729 -0.6144 -0.0732
  868MOL0     O17104  10.110   5.256   6.829  0.7667  0.3053  0.4076
  868MOL0     C17105  10.177   5.217   6.704 -0.0456  0.4454  0.0698
  868MOL0     C17106  10.328   5.238   6.730  0.1678  0.2260  0.9068
  868MOL0     C17107  10.393   5.121   6.807  0.5624 -0.6817 -0.4205
  868MOL0     C17108  10.481   5.193   6.912  0.1447  0.2524  0.0397
  868MOL0     C17109  10.598   5.258   6.850  0.0477  1.1071 -0.2864
  868MOL0     C17110  10.709   5.289   6.811 -0.4023  0.1410  0.4843
  868MOL0     C17111   9.891   5.264   6.722 -0.0263 -0.0048 -0.3646
  868MOL0     C17112   9.757   5.314   6.723  0.0980 -0.3061 -0.6225
  868MOL0     H17113   9.490   5.605   7.173  0.2945 -2.3342 -0.2892
  868MOL0     H17114   9.269   5.729   7.246  0.5872  0.7449 -0.1320
  868MOL0     H17115   8.959   5.866   6.960 -2.6782  0.2723 -0.6826
  868MOL0     H17116   8.949   5.678   6.938 -2.1590 -1.8409  1.5754
  868MOL0     H17117   8.838   5.690   7.167 -0.3667  1.8884  2.0490
  868MOL0     H17118   8.837   5.864   7.122  1.7563  0.5880 -0.5822
  868MOL0     H17119   8.692   5.792   6.914 -0.2913 -5.3597 -3.2343
  868MOL0     H17120   8.725   5.636   6.958  1.3210  0.4814 -0.4410
  868MOL0     H17121   8.619   5.680   7.179  0.3675 -0.0989 -0.8577
  868MOL0     H17122   8.584   5.844   7.142  0.9440  1.1229 -1.7982
  868MOL0     H17123   8.470   5.742   6.927  2.8440  0.0556 -0.1979
  868MOL0     H17124   8.488   5.586   7.005  1.9761  0.4738  0.2658
  868MOL0     H17125   8.344   5.667   7.194  0.6873  1.9437  1.4639
  868MOL0     H17126   8.366   5.826   7.138  1.0587  0.2287 -0.6353
  868MOL0     H17127   8.135   5.783   7.075  0.8737 -0.5993  0.7572
  868MOL0     H17128   8.241   5.796   6.938  3.1990  3.0074  1.9970
  868MOL0     H17129   8.072   5.569   7.052  0.7395 -0.5333  0.6936
  868MOL0     H17130   8.228   5.515   7.031 -0.1275 -0.8254 -0.6279
  868MOL0     H17131   8.325   5.618   6.758  1.5462 -3.3136  0.3166
  868MOL0     H17132   8.319   5.558   6.501 -0.6193 -1.6725  2.4857
  868MOL0     H17133   8.170   5.484   6.433  1.3195 -0.3488 -1.1436
  868MOL0     H17134   8.234   5.785   6.490  1.1632 -0.2602 -1.4879
  868MOL0     H17135   8.079   5.722   6.434  1.1760  3.8099  0.0338
  868MOL0     H17136   8.243   5.624   6.233 -3.3049 -0.0162 -0.0578
  868MOL0     H17137   8.371   5.704   6.319 -0.1897  3.6861 -1.7261
  868MOL0     H17138   8.300   5.833   6.131  0.3396 -1.4294  0.1659
  868MOL0     H17139   8.285   5.922   6.282 -3.8163 -0.4683  4.0057
  868MOL0     H17140   8.189   5.688   5.987 -0.5496 -1.9731 -1.7421
  868MOL0     H17141   8.031   5.597   5.699 -0.0519 -2.3459 -0.5022
  868MOL0     H17142   8.177   5.582   5.808  0.2368  2.5714 -0.7928
  868MOL0     H17143   8.043   5.462   5.821  1.6030 -1.2421 -1.6013
  868MOL0     H17144   7.397   5.693   5.837  2.9058  0.5428 -1.5049
  868MOL0     H17145   7.221   5.600   5.685 -1.1444 -2.6606 -0.9496
  868MOL0     H17146   7.138   5.530   5.461 -0.5552  0.6734  0.6235
  868MOL0     H17147   7.087   5.365   5.420 -4.8056  1.9782  0.7802
  868MOL0     H17148   6.976   5.317   5.612  0.9128 -0.9436  1.3493
  868MOL0     H17149   7.078   5.428   5.713  0.7219  2.3093 -0.8999
  868MOL0     H17150   6.974   5.621   5.628  3.2928 -1.8884  1.8466
  868MOL0     H17151   6.839   5.512   5.680  2.5851 -2.4293  1.0141
  868MOL0     H17152   6.795   5.616   5.473  1.1070  0.3799  1.9044
  868MOL0     H17153   6.916   5.514   5.390 -0.7979  0.7069 -1.6373
  868MOL0     H17154   6.691   5.376   5.545 -0.2551 -2.1243  0.2288
  868MOL0     H17155   6.829   5.313   5.448  2.2275  1.6085 -0.3225
  868MOL0     H17156   6.614   5.515   5.356  3.2139  1.3908 -0.1319
  868MOL0     H17157   6.735   5.446   5.251 -0.5336 -0.5212 -0.7706
  868MOL0     H17158   6.520   5.273   5.421  1.3870 -4.1477 -1.0982
  868MOL0     H17159   6.642   5.224   5.310  2.0547  1.1413  0.1086
  868MOL0     H17160   6.464   5.236   5.162  0.7341  0.0592 -0.3581
  868MOL0     H17161   6.512   5.405   5.149 -3.2342  1.8303 -0.6318
  868MOL0     H17162   7.481   5.266   5.585 -1.5425  0.2223 -0.6729
  868MOL0     H17163   7.636   5.346   5.750  1.3261  1.9331  0.9505
  868MOL0     H17164   7.705   5.741   6.032 -0.1404 -1.5117 -1.0476
  868MOL0     H17165   7.854   5.864   6.197 -1.0153  0.6636  0.3145
  868MOL0     H17166   9.139   5.684   6.836 -0.4013 -0.5069  1.0497
  868MOL0     H17167   9.350   5.590   6.774 -0.5405 -1.2440  0.7922
  868MOL0     H17168   9.777   5.482   7.016 -0.9256  0.0217 -0.5266
  868MOL0     H17169   9.997   5.379   7.021  1.4908 -1.1748 -0.6183
  868MOL0     H17170  10.161   5.114   6.673  1.0797  0.9257 -2.4080
  868MOL0     H17171  10.146   5.286   6.624 -2.6138  0.2264  0.8059
  868MOL0     H17172  10.344   5.337   6.774  0.5123  1.8941 -2.6315
  868MOL0     H17173  10.373   5.248   6.631 -2.0657  0.8412 -0.0994
  868MOL0     H17174  10.457   5.067   6.737  1.2674 -0.0954 -0.2397
  868MOL0     H17175  10.318   5.065   6.863  0.5842  0.6452  1.0059
  868MOL0     H17176  10.509   5.117   6.985 -2.0355 -4.5959 -3.5760
  868MOL0     H17177  10.430   5.275   6.963 -1.4435  0.2788 -1.4565
  868MOL0     H17178  10.805   5.320   6.775  0.2368 -1.3902  0.8159
  868MOL0     H17179   9.922   5.200   6.639  3.4560  2.0432 -0.8771
  868MOL0     H17180   9.694   5.297   6.636  0.3326 -0.4189 -0.7751
  869MOL0     O17181   0.994  10.791  10.370  0.2584  0.7276 -0.5079
  869MOL0     C17182   1.105  10.836  10.348  0.5229 -1.0368 -0.3585
  869MOL0     O17183   1.212  10.770  10.290  0.3734 -0.1286  0.1614
  869MOL0     C17184   1.201  10.642  10.250  0.4164  0.7016 -0.2388
  869MOL0     C17185   1.291  10.546  10.304  0.1126 -0.5780 -0.1283
  869MOL0     C17186   1.276  10.412  10.284 -0.2334  0.1897  0.4217
  869MOL0     C17187   1.182  10.370  10.190 -0.2436  0.3971 -0.5077
  869MOL0     O17188   1.167  10.244  10.151 -0.0349  1.1645 -0.5968
  869MOL0     C17189   1.271  10.151  10.179 -0.6962 -0.4027 -0.2280
  869MOL0     C17190   1.277  10.061  10.064  0.4381  0.1624 -0.5562
  869MOL0     C17191   1.226   9.913  10.084  0.0025  0.6263 -0.3825
  869MOL0     C17192   1.236   9.828   9.958 -0.5294 -0.3154  0.2677
  869MOL0     C17193   1.184   9.687   9.982 -0.3545  0.2886  0.7354
  869MOL0     C17194   1.221   9.600   9.856 -0.0465 -0.6346  0.8548
  869MOL0     C17195   1.129   9.637   9.734  0.3862 -0.5639  0.3163
  869MOL0     C17196   1.151   9.554   9.594  0.4196 -0.8318 -0.6276
  869MOL0     N17197   1.269   9.589   9.529  0.0420 -0.7584 -0.5346
  869MOL0     C17198   1.275   9.697   9.443 -0.2312 -0.2016  0.1179
  869MOL0     C17199   1.408   9.699   9.413 -1.0129  0.4414  0.3024
  869MOL0     C17200   1.461   9.797   9.311  0.4127  0.0008 -0.8464
  869MOL0     C17201   1.554   9.901   9.376  0.0158  0.2251 -0.0607
  869MOL0     C17202   1.481   9.994   9.470  0.2587 -0.3101  0.3677
  869MOL0     C17203   1.572  10.115   9.519 -0.8082 -0.3634  0.6022
  869MOL0     O17204   1.490  10.198   9.596 -1.1494  0.1803  0.3134
  869MOL0     C17205   1.561  10.282   9.683 -0.0100 -0.4740 -1.0963
  869MOL0     C17206   1.482  10.361   9.776 -0.0170  1.2466 -0.5075
  869MOL0     C17207   1.542  10.457   9.856 -0.9779  0.2581 -0.4431
  869MOL0     C17208   1.453  10.539   9.944  0.4101  0.0649  0.1900
  869MOL0     C17209   1.680  10.477   9.841  0.8978 -0.6861  0.2742
  869MOL0     C17210   1.746  10.588   9.911  0.1587 -0.0195 -1.5519
  869MOL0     O17211   1.885  10.571   9.932  0.2199  0.0915 -0.7519
  869MOL0     C17212   1.934  10.637  10.041 -1.2476 -0.0834 -0.3713
  869MOL0     C17213   1.953  10.773  10.050 -0.4716  0.4491  0.1530
  869MOL0     C17214   2.009  10.841  10.163  0.7820 -0.3663 -0.6938
  869MOL0     C17215   2.046  10.760  10.273  0.1654  1.1097  0.6098
  869MOL0     O17216   2.115  10.821  10.374 -0.1975 -0.3676 -0.0677
  869MOL0     C17217   2.058  10.796  10.500  0.0165 -0.3349 -1.5024
  869MOL0     C17218   2.104  10.906  10.593 -0.1238 -0.9330 -0.1940
  869MOL0     C17219   2.074  10.885  10.737  0.0153  0.5168  0.1725
  869MOL0     C17220   2.129  10.994  10.815  0.6233 -0.5839 -0.1209
  869MOL0     C17221   2.257  10.939  10.880  0.7530  0.1599  0.0940
  869MOL0     C17222   2.320  11.053  10.961 -0.2541  1.0719 -0.6893
  869MOL0     C17223   2.456  11.000  11.019  0.5673 -0.1154  0.3547
  869MOL0     C17224   2.507  11.099  11.120 -0.3039 -0.4930  0.2661
  869MOL0    Cl17225   2.566  11.261  11.066  0.4762  0.2275 -0.3706
  869MOL0     C17226   2.041  10.619  10.264  0.5092  0.7168  0.4547
  869MOL0     C17227   1.981  10.559  10.151 -1.7135 -0.1155 -0.6100
  869MOL0     O17228   1.688  10.694   9.928 -0.2136 -0.9608 -0.3532
  869MOL0     C17229   1.752  10.393   9.768  0.1773  0.9309  0.0632
  869MOL0     C17230   1.699  10.293   9.689 -0.5685 -0.3246  0.4739
  869MOL0     N17231   1.467   9.606   9.497 -0.2893 -0.0324  0.1392
  869MOL0     N17232   1.389   9.533   9.550  0.2978  0.1538  0.1279
  869MOL0     C17233   1.106  10.461  10.115 -0.5169 -0.2512  0.1381
  869MOL0     C17234   1.109  10.598  10.152  0.5558 -0.5009 -0.3320
  869MOL0     C17235   1.128  10.978  10.383  0.2318  0.0632  0.1646
  869MOL0     C17236   1.251  11.047  10.351 -0.5041 -1.2745  0.6137
  869MOL0     C17237   1.277  11.186  10.377 -0.2245  0.5945 -0.4063
  869MOL0     C17238   1.176  11.258  10.436 -0.7821  1.2230 -0.0086
  869MOL0     O17239   1.169  11.394  10.431 -0.0475  0.1694 -0.3153
  869MOL0     C17240   1.189  11.465  10.552  0.3390 -0.5051  0.0257
  869MOL0     C17241   1.226  11.615  10.533  0.2936  0.1712  0.4984
  869MOL0     C17242   1.373  11.620  10.488  0.5591 -0.1543 -0.7412
  869MOL0     C17243   1.408  11.760  10.519  0.7697 -0.3610 -0.1432
  869MOL0     C17244   1.528  11.807  10.450 -0.2034  0.2224 -0.0319
  869MOL0     C17245   1.631  11.840  10.394 -0.0099 -0.0140 -0.2637
  869MOL0     C17246   1.055  11.193  10.474 -0.6278  0.0443 -0.5026
  869MOL0     C17247   1.033  11.056  10.447  0.2796 -0.5215  0.6249
  869MOL0     H17248   1.371  10.586  10.366 -0.9586  1.7339 -0.1112
  869MOL0     H17249   1.350  10.346  10.327 -0.3292 -0.2060 -0.0135
  869MOL0     H17250   1.367  10.203  10.181 -1.6503  1.4025  0.8476
  869MOL0     H17251   1.263  10.087  10.268  4.0340 -2.4853 -0.9529
  869MOL0     H17252   1.217  10.103   9.983  2.4242 -1.5227 -3.0820
  869MOL0     H17253   1.380  10.054  10.029  0.5315  1.8782 -0.7312
  869MOL0     H17254   1.291   9.864  10.157 -0.7072 -1.7790 -1.2821
  869MOL0     H17255   1.122   9.906  10.117 -0.9090  1.9246 -2.7317
  869MOL0     H17256   1.177   9.877   9.879 -1.1460  0.0914  0.9732
  869MOL0     H17257   1.337   9.839   9.916  1.0209  1.2878  3.9138
  869MOL0     H17258   1.223   9.640  10.073 -1.9896  1.8669  2.3441
  869MOL0     H17259   1.076   9.690  10.002 -0.8163 -1.6137 -1.1351
  869MOL0     H17260   1.328   9.599   9.834  0.4611 -2.4630  3.0102
  869MOL0     H17261   1.198   9.495   9.877 -1.9519 -0.6313 -0.8486
  869MOL0     H17262   1.025   9.618   9.761  0.7776  0.3101  2.7069
  869MOL0     H17263   1.152   9.740   9.704  1.2662 -0.7086  0.4671
  869MOL0     H17264   1.068   9.579   9.527  0.3564  3.5540  0.7538
  869MOL0     H17265   1.156   9.447   9.615 -0.3651 -0.4995  1.4590
  869MOL0     H17266   1.189   9.748   9.400 -1.9032 -1.5201  1.6837
  869MOL0     H17267   1.515   9.744   9.233 -1.1862 -3.3429  0.1517
  869MOL0     H17268   1.378   9.843   9.258  0.3835 -0.3910 -1.1394
  869MOL0     H17269   1.599   9.964   9.299 -2.1242  1.8788 -0.0398
  869MOL0     H17270   1.629   9.851   9.438  1.7538  1.8048 -0.8065
  869MOL0     H17271   1.448   9.949   9.564 -2.2383  1.9035  0.6820
  869MOL0     H17272   1.390  10.029   9.421 -0.1209  0.7956  1.7975
  869MOL0     H17273   1.618  10.171   9.437 -2.7990  3.6876  1.9824
  869MOL0     H17274   1.655  10.064   9.571 -0.4429  1.6912  2.1589
  869MOL0     H17275   1.375  10.347   9.779 -0.0694  1.7352 -0.0131
  869MOL0     H17276   1.495  10.565  10.042 -1.4902  3.1660  0.3341
  869MOL0     H17277   1.425  10.632   9.892 -0.5086  1.8815  3.6334
  869MOL0     H17278   1.363  10.486   9.976 -0.9583  3.7396  3.1639
  869MOL0     H17279   1.927  10.836   9.965  0.0459 -3.0557 -2.8487
  869MOL0     H17280   2.021  10.949  10.159  2.9431 -0.4014  1.6888
  869MOL0     H17281   1.949  10.794  10.496  0.0390 -0.9312 -1.9951
  869MOL0     H17282   2.094  10.699  10.537  0.4220 -0.6882 -2.7582
  869MOL0     H17283   2.213  10.915  10.585  0.1981 -4.1027 -0.9235
  869MOL0     H17284   2.056  11.001  10.567 -0.9361 -0.9167  1.2932
  869MOL0     H17285   2.098  10.786  10.776 -1.2567 -0.4325 -1.3691
  869MOL0     H17286   1.965  10.889  10.731  0.1036  0.8238 -1.9476
  869MOL0     H17287   2.159  11.083  10.759  2.1935  0.1111  1.7074
  869MOL0     H17288   2.064  11.032  10.894  0.0081 -0.1873 -0.8104
  869MOL0     H17289   2.323  10.889  10.808 -1.5439  1.0783 -2.8790
  869MOL0     H17290   2.218  10.858  10.942 -0.8472 -0.8067 -2.0355
  869MOL0     H17291   2.307  11.147  10.908 -4.9025  0.0038 -1.9514
  869MOL0     H17292   2.254  11.076  11.046 -0.7528  1.4893 -1.1872
  869MOL0     H17293   2.524  10.986  10.935  0.5215  0.4453  0.2216
  869MOL0     H17294   2.439  10.901  11.062 -0.2958  0.1091  0.5353
  869MOL0     H17295   2.598  11.059  11.166 -0.0650 -0.8251 -0.4772
  869MOL0     H17296   2.427  11.110  11.194  0.4269  0.5804  0.9228
  869MOL0     H17297   2.084  10.563  10.346  3.1240  2.4339  0.3531
  869MOL0     H17298   1.971  10.452  10.160 -2.2362  0.0856  2.4737
  869MOL0     H17299   1.861  10.393   9.773  0.2156  1.2307 -0.6777
  869MOL0     H17300   1.768  10.227   9.637 -0.4639  0.3747 -0.2920
  869MOL0     H17301   1.039  10.422  10.038 -1.1405  2.1433 -0.6117
  869MOL0     H17302   1.036  10.659  10.100  0.4840 -1.3613 -1.2792
  869MOL0     H17303   1.335  11.003  10.298 -0.4800 -0.0115 -0.4326
  869MOL0     H17304   1.366  11.236  10.339  1.7264 -1.2361  1.4895
  869MOL0     H17305   1.090  11.459  10.599 -1.0391  0.6009 -2.5207
  869MOL0     H17306   1.266  11.416  10.612  1.3814  1.2232  0.1778
  869MOL0     H17307   1.217  11.664  10.631  2.9499  0.7834  0.5052
  869MOL0     H17308   1.153  11.664  10.469  0.3785  3.0528  2.4265
  869MOL0     H17309   1.378  11.592  10.382  0.8960  0.1576 -0.8082
  869MOL0     H17310   1.440  11.550  10.540  0.4544 -0.1058 -0.5424
  869MOL0     H17311   1.428  11.774  10.626  0.3439 -1.2189  0.0524
  869MOL0     H17312   1.327  11.827  10.488  1.1702  0.2512  0.0905
  869MOL0     H17313   1.723  11.865  10.346  0.5930 -2.2681 -0.3787
  869MOL0     H17314   0.976  11.257  10.511 -1.5010 -0.3046 -1.6943
  869MOL0     H17315   0.939  11.010  10.474 -1.1641  0.2748 -2.5269
  870MOL0     O17316   2.572   6.072   3.242  0.3784  0.3395  0.0169
  870MOL0     C17317   2.575   6.133   3.132  0.7214  0.0895 -0.4094
  870MOL0     O17318   2.468   6.156   3.054 -0.1882 -0.0152  0.6230
  870MOL0     C17319   2.357   6.077   3.072 -0.5812 -0.3526  0.3294
  870MOL0     C17320   2.252   6.137   3.138  0.1168  1.0852  0.1186
  870MOL0     C17321   2.142   6.060   3.189  0.2263 -0.5654 -0.6785
  870MOL0     C17322   2.134   5.921   3.157 -0.1204  0.1160 -0.1677
  870MOL0     O17323   2.029   5.834   3.193 -0.7398 -0.1971 -0.1323
  870MOL0     C17324   1.911   5.890   3.245  0.8317 -0.5140 -0.0344
  870MOL0     C17325   1.820   5.779   3.289  0.3249  0.2419 -0.2918
  870MOL0     C17326   1.692   5.829   3.332  1.2776  0.2856 -1.0720
  870MOL0     C17327   1.600   5.701   3.367 -0.1362  1.2348 -0.0073
  870MOL0     C17328   1.454   5.724   3.392 -0.3613 -0.5413 -0.0674
  870MOL0     C17329   1.369   5.597   3.427  0.7012 -0.6434  0.2014
  870MOL0     C17330   1.226   5.636   3.463  0.1865  0.0438  0.1121
  870MOL0     C17331   1.143   5.498   3.472  0.4369 -0.1722  0.7684
  870MOL0     N17332   1.175   5.407   3.585  0.1637 -0.6160 -1.1126
  870MOL0     C17333   1.282   5.322   3.594  0.8489  0.1105  0.3168
  870MOL0     C17334   1.262   5.249   3.699 -0.3203 -0.0904  0.1642
  870MOL0     C17335   1.371   5.158   3.752  0.5378  0.0387 -0.1054
  870MOL0     C17336   1.510   5.216   3.731 -0.2932 -0.8893  0.5011
  870MOL0     C17337   1.537   5.342   3.815  0.0650 -0.8314 -0.3620
  870MOL0     C17338   1.682   5.376   3.836 -0.3197  0.5287 -0.0092
  870MOL0     O17339   1.738   5.431   3.716 -0.6122 -0.0919  0.4785
  870MOL0     C17340   1.872   5.462   3.700 -0.3637 -0.4350 -0.3634
  870MOL0     C17341   1.914   5.494   3.571 -0.0043  0.9615  0.5097
  870MOL0     C17342   2.050   5.530   3.546 -0.5458  1.1402  0.5537
  870MOL0     C17343   2.086   5.557   3.408  0.6146 -0.1044 -0.3255
  870MOL0     C17344   2.146   5.543   3.656  0.9779 -0.8764  0.6007
  870MOL0     C17345   2.284   5.596   3.637  0.1357  0.1081  0.0751
  870MOL0     O17346   2.367   5.572   3.747  0.1258 -0.3108  0.0058
  870MOL0     C17347   2.506   5.589   3.761  0.2797  0.8860  0.8567
  870MOL0     C17348   2.542   5.578   3.884  0.3888  0.7954 -0.9528
  870MOL0     C17349   2.680   5.587   3.919  0.8360  0.2503 -0.1961
  870MOL0     C17350   2.773   5.628   3.824  0.1273 -0.1344  0.0597
  870MOL0     O17351   2.902   5.659   3.871 -0.5665 -0.1082 -0.0212
  870MOL0     C17352   2.959   5.780   3.818 -0.1766 -0.1765 -0.0225
  870MOL0     C17353   3.088   5.820   3.891  1.5431 -0.1906  0.0894
  870MOL0     C17354   3.189   5.707   3.907 -1.4064  0.6490  0.1311
  870MOL0     C17355   3.316   5.761   3.971 -0.7895  0.0141  0.0564
  870MOL0     C17356   3.384   5.635   4.021  0.0236  0.7258 -0.9031
  870MOL0     C17357   3.513   5.655   4.112 -0.1483  0.1686  0.4353
  870MOL0     C17358   3.475   5.706   4.256 -0.5789  0.5072  0.3986
  870MOL0     C17359   3.570   5.633   4.351 -0.4692 -1.2362 -0.5671
  870MOL0    Cl17360   3.491   5.627   4.514  0.1749 -0.0929 -0.5423
  870MOL0     C17361   2.730   5.646   3.690 -0.3732 -0.1422  0.2437
  870MOL0     C17362   2.596   5.619   3.653  0.7645  0.4490  0.0703
  870MOL0     O17363   2.318   5.670   3.542 -0.6985  0.4661  0.3605
  870MOL0     C17364   2.095   5.514   3.784  0.5030 -0.6057  0.5765
  870MOL0     C17365   1.962   5.475   3.806 -0.0134 -1.2594 -0.5049
  870MOL0     N17366   1.140   5.284   3.754  0.0004 -0.6004 -0.2354
  870MOL0     N17367   1.092   5.380   3.691 -0.0747  0.3998  0.6360
  870MOL0     C17368   2.238   5.875   3.074 -0.6604  0.5594  0.5126
  870MOL0     C17369   2.347   5.948   3.028 -1.5210  0.8864 -0.7437
  870MOL0     C17370   2.700   6.212   3.104  0.7120  0.4860 -0.2514
  870MOL0     C17371   2.677   6.335   3.039 -0.1340  0.2255 -0.0890
  870MOL0     C17372   2.784   6.422   3.007 -0.9200 -0.0228 -0.6480
  870MOL0     C17373   2.914   6.378   3.037 -0.7312  0.6691  0.4472
  870MOL0     O17374   3.020   6.453   2.998 -0.5222  0.2085 -0.3785
  870MOL0     C17375   3.016   6.575   2.917 -0.3805  1.0535  0.0523
  870MOL0     C17376   2.980   6.703   2.992  0.3282 -0.8813 -0.5375
  870MOL0     C17377   2.930   6.823   2.910  0.1678  0.1281 -0.1433
  870MOL0     C17378   2.940   6.958   2.983 -0.2736  0.7242 -0.9700
  870MOL0     C17379   3.081   7.008   2.982 -0.5925 -0.1791  0.0196
  870MOL0     C17380   3.195   7.051   2.983  0.2435  0.3543 -0.7535
  870MOL0     C17381   2.938   6.252   3.102  0.6301 -0.0683 -1.0017
  870MOL0     C17382   2.825   6.171   3.131 -0.4380 -0.7940  0.2458
  870MOL0     H17383   2.271   6.238   3.174  1.5437  2.0095 -2.9048
  870MOL0     H17384   2.056   6.109   3.233  0.6486  1.7491 -2.2538
  870MOL0     H17385   1.928   5.945   3.338  3.4142 -3.1032  1.2239
  870MOL0     H17386   1.872   5.953   3.165  2.2719 -2.7764 -2.7157
  870MOL0     H17387   1.796   5.705   3.211  1.9818 -2.7418  1.8422
  870MOL0     H17388   1.859   5.734   3.380 -0.3649  1.6467  0.7383
  870MOL0     H17389   1.703   5.894   3.419  1.7129 -1.5874  0.3583
  870MOL0     H17390   1.652   5.894   3.254 -0.2382  2.8208  1.6375
  870MOL0     H17391   1.602   5.631   3.283  0.3731 -1.2208  1.9519
  870MOL0     H17392   1.645   5.657   3.456 -1.0934  2.5183  1.1489
  870MOL0     H17393   1.452   5.788   3.482  2.5577 -0.9278  0.3880
  870MOL0     H17394   1.412   5.781   3.309  1.9396  1.1853 -0.1707
  870MOL0     H17395   1.377   5.531   3.340 -1.3839 -4.9431  2.9138
  870MOL0     H17396   1.415   5.544   3.510  2.6117  0.6345  0.0145
  870MOL0     H17397   1.222   5.685   3.561 -2.2059  0.1192  0.0234
  870MOL0     H17398   1.194   5.705   3.384  1.8220  0.6696 -0.0620
  870MOL0     H17399   1.163   5.442   3.381 -2.3839 -0.5907  0.3185
  870MOL0     H17400   1.036   5.523   3.476  0.3871  0.1325 -1.4427
  870MOL0     H17401   1.362   5.304   3.523 -0.5109 -3.3437 -0.5576
  870MOL0     H17402   1.343   5.135   3.855 -0.6879 -0.3737 -0.5217
  870MOL0     H17403   1.368   5.060   3.704 -0.4193 -0.5606  1.1341
  870MOL0     H17404   1.540   5.215   3.626  0.2129  1.2066  0.5831
  870MOL0     H17405   1.578   5.144   3.778 -0.7317 -0.8188  1.2561
  870MOL0     H17406   1.513   5.313   3.917  1.3125  3.5328  1.4141
  870MOL0     H17407   1.485   5.435   3.788  3.7754  1.0438 -1.8418
  870MOL0     H17408   1.741   5.294   3.877  0.5310 -0.0767 -2.3244
  870MOL0     H17409   1.691   5.465   3.900  3.4882 -0.2855  0.8514
  870MOL0     H17410   1.840   5.491   3.491 -0.6436  0.0749  1.1147
  870MOL0     H17411   2.171   5.489   3.394 -0.3503 -0.9422 -2.7869
  870MOL0     H17412   2.007   5.516   3.344  0.3066  0.3032 -0.2061
  870MOL0     H17413   2.114   5.661   3.388 -1.6749  1.0394  1.8495
  870MOL0     H17414   2.465   5.578   3.960  0.0045 -1.6518 -1.2865
  870MOL0     H17415   2.707   5.576   4.023  1.7175 -1.2865 -0.5486
  870MOL0     H17416   2.978   5.756   3.713 -2.0005  0.7048 -0.5922
  870MOL0     H17417   2.887   5.862   3.820 -0.5297 -0.3918 -2.1643
  870MOL0     H17418   3.121   5.902   3.826  0.5101  1.7562  1.8866
  870MOL0     H17419   3.062   5.851   3.993  1.7425  0.3974 -0.0358
  870MOL0     H17420   3.219   5.650   3.819 -1.9496 -0.3723  0.5882
  870MOL0     H17421   3.142   5.638   3.978  0.8559 -0.4660  0.6159
  870MOL0     H17422   3.384   5.812   3.902  2.0260 -1.2335  1.7654
  870MOL0     H17423   3.293   5.826   4.056  1.2186 -1.3360  1.7196
  870MOL0     H17424   3.435   5.572   3.948 -1.6916 -3.6935  1.3243
  870MOL0     H17425   3.310   5.575   4.075  0.6993  0.3728 -0.3398
  870MOL0     H17426   3.563   5.558   4.109  0.9932  0.7312  0.5972
  870MOL0     H17427   3.578   5.737   4.079  1.1656 -0.1347  2.1797
  870MOL0     H17428   3.381   5.671   4.300 -1.3402  0.7748 -0.9927
  870MOL0     H17429   3.474   5.815   4.254  0.3561  0.5552 -3.0077
  870MOL0     H17430   3.667   5.684   4.354 -0.8868 -0.3837  2.3949
  870MOL0     H17431   3.585   5.531   4.316 -4.8447 -2.0006 -0.8148
  870MOL0     H17432   2.807   5.669   3.618  0.3508 -1.9623  0.3864
  870MOL0     H17433   2.558   5.650   3.556  1.2453  2.8855  0.6051
  870MOL0     H17434   2.171   5.507   3.861  0.9686  2.3565  0.4926
  870MOL0     H17435   1.941   5.456   3.910 -0.0672  3.6735  0.6372
  870MOL0     H17436   2.227   5.768   3.057 -1.5672  0.7276 -0.0152
  870MOL0     H17437   2.422   5.892   2.973 -1.4402 -1.1576  1.3016
  870MOL0     H17438   2.575   6.370   3.024  0.2390  0.2147 -3.7028
  870MOL0     H17439   2.770   6.522   2.966  1.9609 -0.6078 -3.4772
  870MOL0     H17440   3.112   6.593   2.866 -1.5201  3.1067 -1.5157
  870MOL0     H17441   2.943   6.575   2.835 -1.1344  0.0977  0.6952
  870MOL0     H17442   3.065   6.729   3.055  0.0044 -1.3768  0.1130
  870MOL0     H17443   2.904   6.687   3.069 -2.2770  1.8718 -2.3178
  870MOL0     H17444   2.827   6.817   2.875 -0.0735  0.1971  0.5482
  870MOL0     H17445   2.997   6.844   2.825  0.6316  4.7037  1.0872
  870MOL0     H17446   2.900   6.944   3.084 -2.5159  2.1684 -1.5877
  870MOL0     H17447   2.877   7.031   2.931 -2.2468 -2.4190 -3.3511
  870MOL0     H17448   3.300   7.073   2.992  1.1689 -3.4678 -0.4773
  870MOL0     H17449   3.039   6.224   3.127  0.7605  1.8052  0.8661
  870MOL0     H17450   2.818   6.074   3.179 -0.6676 -1.0090 -0.2216
  871MOL0     O17451   3.950   5.921   3.459 -0.5782  0.4425 -0.0210
  871MOL0     C17452   4.006   6.007   3.522  0.6590  0.5884 -0.4176
  871MOL0     O17453   3.945   6.105   3.594 -0.2337  0.4201 -0.8007
  871MOL0     C17454   3.811   6.090   3.621  0.4998 -0.7174 -0.2475
  871MOL0     C17455   3.701   6.090   3.523  0.1264 -0.2506 -1.0081
  871MOL0     C17456   3.574   6.094   3.571  1.0500 -0.1246  0.0735
  871MOL0     C17457   3.542   6.089   3.710  0.4774 -0.1965 -0.1565
  871MOL0     O17458   3.414   6.085   3.737  0.6447  0.2001  0.4894
  871MOL0     C17459   3.348   6.216   3.720 -1.4925 -0.2584 -0.0892
  871MOL0     C17460   3.218   6.207   3.798 -0.2015  0.4541  0.3209
  871MOL0     C17461   3.248   6.223   3.950 -0.1186 -0.6190  0.8828
  871MOL0     C17462   3.103   6.234   4.016  0.8399 -0.8553  0.1061
  871MOL0     C17463   3.112   6.190   4.168  0.1996  0.5390 -0.0862
  871MOL0     C17464   3.122   6.041   4.178 -0.9327 -0.2287 -0.9785
  871MOL0     C17465   3.157   6.007   4.313 -0.5268  0.1054 -0.1363
  871MOL0     C17466   3.178   5.857   4.337 -1.1350 -1.3344 -0.3873
  871MOL0     N17467   3.165   5.840   4.481 -0.7047  0.1270  0.3054
  871MOL0     C17468   3.260   5.845   4.584  0.6022  0.4557  0.3208
  871MOL0     C17469   3.187   5.803   4.690  0.1606  1.3048  0.3282
  871MOL0     C17470   3.240   5.805   4.839  0.1644  0.2249  0.2935
  871MOL0     C17471   3.186   5.689   4.922 -0.2675  0.2710  0.2866
  871MOL0     C17472   3.044   5.701   4.973  0.2893 -0.1460  0.3406
  871MOL0     C17473   2.980   5.572   5.022  0.5926  0.4597  0.2347
  871MOL0     O17474   2.838   5.608   5.044  0.3351  0.9608 -0.4942
  871MOL0     C17475   2.758   5.520   5.107  0.0557  0.4233 -0.1880
  871MOL0     C17476   2.806   5.424   5.201  0.1075 -0.7035  0.2887
  871MOL0     C17477   2.714   5.328   5.257 -0.6544 -0.5339  0.9345
  871MOL0     C17478   2.774   5.227   5.361  0.0948  0.4615  0.3309
  871MOL0     C17479   2.575   5.331   5.223 -0.7886 -0.2048 -0.2560
  871MOL0     C17480   2.469   5.244   5.272  0.0458 -0.1543 -0.5204
  871MOL0     O17481   2.463   5.214   5.404 -0.0699  0.1721 -0.6541
  871MOL0     C17482   2.343   5.179   5.465 -0.2722  0.2576  0.9870
  871MOL0     C17483   2.347   5.069   5.550  0.6586  0.5742 -1.2718
  871MOL0     C17484   2.225   5.014   5.599  0.1100 -0.2127 -0.1379
  871MOL0     C17485   2.103   5.074   5.568  0.1171 -0.4117 -0.8980
  871MOL0     O17486   1.996   5.014   5.629 -0.4257 -0.5616  0.5200
  871MOL0     C17487   1.885   4.974   5.540 -0.8557  0.3564 -0.7115
  871MOL0     C17488   1.785   5.086   5.524  0.6921  0.3636 -0.7423
  871MOL0     C17489   1.653   5.028   5.466  0.8264 -1.0835 -0.6171
  871MOL0     C17490   1.664   4.992   5.317  0.6189 -0.7047 -0.1985
  871MOL0     C17491   1.524   4.945   5.263 -0.3937 -0.5681 -0.3443
  871MOL0     C17492   1.505   4.798   5.305  0.9962  0.2292  0.4972
  871MOL0     C17493   1.358   4.757   5.334 -0.5570  0.0720  0.4418
  871MOL0     C17494   1.278   4.757   5.205 -0.8176  0.3074 -0.0205
  871MOL0    Cl17495   1.369   4.657   5.081 -0.0355 -0.0428  0.1464
  871MOL0     C17496   2.100   5.185   5.488 -0.4915 -0.5332  0.6265
  871MOL0     C17497   2.218   5.243   5.445  0.3861 -0.7898  0.3994
  871MOL0     O17498   2.380   5.216   5.193 -1.0102  0.3143  0.7479
  871MOL0     C17499   2.533   5.427   5.128 -0.3243 -0.3573  0.9225
  871MOL0     C17500   2.620   5.523   5.072 -0.3085  0.9687 -0.4100
  871MOL0     N17501   3.052   5.786   4.650 -0.2914 -0.1823  0.0273
  871MOL0     N17502   3.047   5.791   4.523 -0.3543 -0.5604 -0.5990
  871MOL0     C17503   3.644   6.077   3.805 -0.5363 -0.2988  0.0297
  871MOL0     C17504   3.780   6.078   3.762 -0.1746 -0.5609  0.7734
  871MOL0     C17505   4.156   5.984   3.536  1.1002  0.0025 -1.2793
  871MOL0     C17506   4.232   6.072   3.616 -0.1937  0.4626 -0.0520
  871MOL0     C17507   4.366   6.073   3.608 -0.7252 -0.8996 -0.5888
  871MOL0     C17508   4.443   5.986   3.524 -0.6086 -0.5111  0.3176
  871MOL0     O17509   4.576   6.024   3.509  0.0769  0.6252 -0.8653
  871MOL0     C17510   4.665   5.935   3.438  1.1855  0.1635 -0.1359
  871MOL0     C17511   4.809   5.967   3.492  0.0233  0.3021 -0.3053
  871MOL0     C17512   4.863   6.106   3.446 -0.5258  0.7195  0.8852
  871MOL0     C17513   4.818   6.224   3.520  0.8121  0.3137  0.2547
  871MOL0     C17514   4.859   6.345   3.453  0.1554 -0.2783  0.2406
  871MOL0     C17515   4.880   6.449   3.394 -0.5613  0.1506 -0.0847
  871MOL0     C17516   4.365   5.895   3.451  0.1584 -1.0420 -0.4255
  871MOL0     C17517   4.226   5.903   3.457 -0.4763  0.2317  0.8433
  871MOL0     H17518   3.722   6.097   3.416  0.8801  1.4515 -0.7843
  871MOL0     H17519   3.496   6.110   3.497  0.3228 -1.1494  0.5751
  871MOL0     H17520   3.407   6.301   3.757 -1.1511 -0.7016  0.3929
  871MOL0     H17521   3.325   6.236   3.615 -2.2552  1.8156  0.4210
  871MOL0     H17522   3.161   6.294   3.763 -0.1724  0.4724  0.3177
  871MOL0     H17523   3.166   6.113   3.779 -0.8060  1.2217 -2.2397
  871MOL0     H17524   3.293   6.126   3.971  0.4822 -1.0145 -1.8682
  871MOL0     H17525   3.307   6.310   3.978  0.0865  1.3541 -4.5186
  871MOL0     H17526   3.065   6.335   4.000  0.2674 -1.1590 -0.4982
  871MOL0     H17527   3.037   6.161   3.968  1.3518 -1.6889  0.6421
  871MOL0     H17528   3.200   6.233   4.217  0.9291 -3.1340  2.2472
  871MOL0     H17529   3.024   6.222   4.223  1.3940  1.8848  1.1210
  871MOL0     H17530   3.026   5.996   4.150 -0.6227  0.4656 -3.4515
  871MOL0     H17531   3.197   5.999   4.111  0.2694  0.2729  0.0242
  871MOL0     H17532   3.248   6.057   4.347 -1.7985  1.5440  1.2913
  871MOL0     H17533   3.074   6.045   4.373 -1.0610 -1.7774  0.3909
  871MOL0     H17534   3.280   5.835   4.303  0.1527  0.8065  1.7824
  871MOL0     H17535   3.106   5.790   4.289 -0.7500 -2.2762  0.3275
  871MOL0     H17536   3.363   5.877   4.570  0.3994  1.1606  0.3739
  871MOL0     H17537   3.346   5.789   4.820  0.1503  0.1251  0.2986
  871MOL0     H17538   3.239   5.900   4.893 -1.4471 -0.1415  0.9724
  871MOL0     H17539   3.256   5.682   5.006  1.1278  2.1613 -0.6528
  871MOL0     H17540   3.200   5.593   4.870 -0.0247  0.5693 -0.2040
  871MOL0     H17541   2.984   5.736   4.889  0.3729 -2.4566 -0.7654
  871MOL0     H17542   3.051   5.780   5.049  5.5400  0.1162 -0.0458
  871MOL0     H17543   3.034   5.532   5.108  0.6116 -1.0134 -0.4340
  871MOL0     H17544   2.989   5.487   4.955 -2.0490 -0.5404  1.0115
  871MOL0     H17545   2.911   5.429   5.230  0.7541  0.9218 -2.0004
  871MOL0     H17546   2.785   5.278   5.458 -0.5687  0.1854  0.5551
  871MOL0     H17547   2.709   5.140   5.350 -1.6828  1.8426 -0.6808
  871MOL0     H17548   2.871   5.203   5.316 -0.4769  0.4415 -0.9322
  871MOL0     H17549   2.431   5.014   5.590 -0.4741  0.4314  1.0937
  871MOL0     H17550   2.235   4.931   5.667 -2.6836 -0.2790  0.3004
  871MOL0     H17551   1.925   4.923   5.451  0.3213  0.7524 -0.4274
  871MOL0     H17552   1.846   4.887   5.594  1.0182 -2.2078 -3.1508
  871MOL0     H17553   1.775   5.136   5.621  2.2140 -0.6192 -0.0293
  871MOL0     H17554   1.819   5.164   5.456 -0.1369  0.3518 -1.1834
  871MOL0     H17555   1.573   5.101   5.481  0.8756 -1.4932  2.3048
  871MOL0     H17556   1.620   4.938   5.520 -0.2599 -0.0229  0.5322
  871MOL0     H17557   1.699   5.070   5.249  2.0637 -1.5233 -0.4247
  871MOL0     H17558   1.732   4.908   5.302  2.2132  0.7926 -1.8318
  871MOL0     H17559   1.524   4.953   5.154  2.4467 -0.3466 -0.4119
  871MOL0     H17560   1.448   5.018   5.291  1.3194  1.5388 -0.9482
  871MOL0     H17561   1.558   4.738   5.230  1.1527  0.9698  0.0032
  871MOL0     H17562   1.547   4.779   5.404  0.7702  1.9906  0.9519
  871MOL0     H17563   1.325   4.808   5.425 -0.0969  0.2595  0.5057
  871MOL0     H17564   1.371   4.655   5.373  4.0855 -0.7235 -2.3594
  871MOL0     H17565   1.253   4.859   5.173  0.3598  0.8886  0.7967
  871MOL0     H17566   1.186   4.703   5.228  0.7023 -2.5026 -0.1274
  871MOL0     H17567   2.002   5.226   5.466 -0.7139 -1.8393 -1.0923
  871MOL0     H17568   2.220   5.324   5.372  2.4360  0.2389  1.5137
  871MOL0     H17569   2.434   5.428   5.084  0.8400 -1.8125 -1.9845
  871MOL0     H17570   2.588   5.600   5.003 -2.4570 -1.2413 -2.0838
  871MOL0     H17571   3.616   6.075   3.910  1.9226 -0.1971  0.7531
  871MOL0     H17572   3.868   6.074   3.826 -1.0819  0.2037  2.1197
  871MOL0     H17573   4.187   6.151   3.676  0.5749  1.2700 -0.5120
  871MOL0     H17574   4.429   6.139   3.667 -0.3351 -2.5682  0.9466
  871MOL0     H17575   4.643   5.830   3.460  0.6086  0.6863  2.0101
  871MOL0     H17576   4.643   5.950   3.332  0.6009  0.1530 -0.0192
  871MOL0     H17577   4.873   5.884   3.462 -0.5643 -0.7958  1.3397
  871MOL0     H17578   4.798   5.967   3.601 -0.5578 -3.3806 -0.2653
  871MOL0     H17579   4.834   6.112   3.341  0.8089 -0.0782  0.4457
  871MOL0     H17580   4.972   6.097   3.449 -0.4792  0.2329 -1.1046
  871MOL0     H17581   4.870   6.221   3.617 -1.0165  0.3682  1.2774
  871MOL0     H17582   4.710   6.228   3.532  0.9230  1.5747  1.0921
  871MOL0     H17583   4.897   6.539   3.338  1.2835  0.3632  0.7553
  871MOL0     H17584   4.409   5.830   3.375  3.4758  2.4282 -1.8152
  871MOL0     H17585   4.180   5.834   3.386 -0.7063  0.1564  1.0633
  872MOL0     O17586   7.381   8.947   1.695 -0.5118  0.0370  0.1234
  872MOL0     C17587   7.376   8.876   1.589 -0.1115  0.4575  0.5846
  872MOL0     O17588   7.292   8.904   1.487  0.3005 -0.6907 -0.1513
  872MOL0     C17589   7.205   9.008   1.483  0.4284 -0.1296 -0.3134
  872MOL0     C17590   7.181   9.114   1.572 -0.2098  0.2656 -0.2896
  872MOL0     C17591   7.102   9.221   1.540  0.9204 -0.1026  0.7058
  872MOL0     C17592   7.030   9.223   1.427 -0.0900 -0.3526  0.4791
  872MOL0     O17593   6.941   9.321   1.405 -0.1290 -0.9036  0.3144
  872MOL0     C17594   6.828   9.341   1.496  0.2953 -0.8280  0.9619
  872MOL0     C17595   6.726   9.417   1.403  0.1411  0.3514  0.1660
  872MOL0     C17596   6.584   9.433   1.470 -0.0911  0.2635  0.1547
  872MOL0     C17597   6.580   9.535   1.585  0.5778 -0.0163  0.1269
  872MOL0     C17598   6.437   9.577   1.620  0.1621 -0.4348  0.8159
  872MOL0     C17599   6.345   9.460   1.645  0.2571  0.3969  0.3191
  872MOL0     C17600   6.211   9.490   1.685  0.0693 -0.0916 -1.2469
  872MOL0     C17601   6.108   9.473   1.572 -0.2702 -0.8648 -0.4194
  872MOL0     N17602   6.137   9.560   1.457  0.5829  0.0860 -0.4573
  872MOL0     C17603   6.113   9.698   1.455  0.0843 -0.1171 -0.4093
  872MOL0     C17604   6.134   9.732   1.319  0.2846 -0.4219  0.4410
  872MOL0     C17605   6.110   9.875   1.263 -0.8110  0.1725  0.1878
  872MOL0     C17606   5.958   9.897   1.257  0.5552  1.3257  0.0575
  872MOL0     C17607   5.938  10.041   1.290  0.1663  0.1281 -1.5403
  872MOL0     C17608   5.795  10.074   1.295  0.8647  0.4482 -0.9188
  872MOL0     O17609   5.730  10.013   1.406  0.3256 -0.4688 -0.1799
  872MOL0     C17610   5.631   9.921   1.389 -0.4459 -0.5141  0.1912
  872MOL0     C17611   5.626   9.843   1.272  0.5613 -0.6949 -0.2460
  872MOL0     C17612   5.527   9.740   1.262 -0.8217 -0.4472  0.6888
  872MOL0     C17613   5.526   9.658   1.134  0.0974 -0.7767  0.6127
  872MOL0     C17614   5.447   9.708   1.370 -0.1573 -1.0147  0.5473
  872MOL0     C17615   5.366   9.586   1.369 -0.5660 -0.2570 -2.0093
  872MOL0     O17616   5.427   9.471   1.343 -0.2976 -0.0440  0.2103
  872MOL0     C17617   5.353   9.357   1.369 -0.8744  0.2630  0.4084
  872MOL0     C17618   5.365   9.256   1.276 -0.0343  0.7510  0.4503
  872MOL0     C17619   5.297   9.134   1.298  0.2033 -0.2865  0.1142
  872MOL0     C17620   5.206   9.123   1.411 -0.6141  0.0045  0.7525
  872MOL0     O17621   5.115   9.021   1.437  0.1430 -0.3160  0.9904
  872MOL0     C17622   5.055   8.963   1.323  0.0892 -0.7157 -0.8928
  872MOL0     C17623   4.980   8.832   1.373  0.7165  0.5651 -0.1752
  872MOL0     C17624   5.060   8.752   1.476 -0.3728  0.3513 -0.4183
  872MOL0     C17625   5.014   8.608   1.473 -0.6307  0.1286  0.1615
  872MOL0     C17626   4.872   8.595   1.528  0.7081  0.3814  0.1071
  872MOL0     C17627   4.818   8.451   1.507  0.1196 -0.1353 -0.0862
  872MOL0     C17628   4.705   8.404   1.603  0.1121  0.1737 -0.0587
  872MOL0     C17629   4.717   8.269   1.663 -1.2915 -0.1187 -0.7390
  872MOL0    Cl17630   4.565   8.268   1.749  0.3241  0.1184 -0.3365
  872MOL0     C17631   5.211   9.221   1.510  0.3633 -0.0248  0.0343
  872MOL0     C17632   5.275   9.342   1.485 -1.1277 -0.3101 -0.0838
  872MOL0     O17633   5.254   9.597   1.422  0.3684 -0.0440  0.1509
  872MOL0     C17634   5.454   9.786   1.493 -0.9543 -0.3025 -0.3566
  872MOL0     C17635   5.547   9.890   1.503 -1.2932  1.1456 -0.3380
  872MOL0     N17636   6.151   9.616   1.246 -1.2661  0.3497  0.2770
  872MOL0     N17637   6.155   9.518   1.327 -0.1079 -0.7052  0.5431
  872MOL0     C17638   7.037   9.109   1.342 -0.3521 -0.4211 -0.0389
  872MOL0     C17639   7.131   9.012   1.368  0.0020 -0.2628  0.0976
  872MOL0     C17640   7.465   8.754   1.567 -0.0010 -0.2920  0.1474
  872MOL0     C17641   7.552   8.709   1.658  0.1696 -0.3136  0.3099
  872MOL0     C17642   7.634   8.596   1.635 -0.9405  0.1067  0.5393
  872MOL0     C17643   7.626   8.521   1.517 -0.2964  0.3675 -0.0663
  872MOL0     O17644   7.691   8.402   1.490  0.0364  0.6279  0.2997
  872MOL0     C17645   7.720   8.309   1.595  0.6590  0.4706  0.1825
  872MOL0     C17646   7.599   8.221   1.642  0.3965 -0.6361  0.5502
  872MOL0     C17647   7.622   8.112   1.751 -0.7735 -0.3801 -0.5003
  872MOL0     C17648   7.487   8.045   1.785 -0.6698 -0.2767  1.4338
  872MOL0     C17649   7.497   7.960   1.898 -0.1061  0.2569  0.6072
  872MOL0     C17650   7.511   7.896   1.999  0.0344  0.6784 -0.3002
  872MOL0     C17651   7.527   8.553   1.428 -0.1535 -0.2449  0.0300
  872MOL0     C17652   7.455   8.676   1.453  0.3763 -0.3701  0.8218
  872MOL0     H17653   7.242   9.124   1.662 -0.1395 -2.5262  0.0701
  872MOL0     H17654   7.063   9.289   1.616 -1.4999 -3.2986  2.5597
  872MOL0     H17655   6.795   9.248   1.542  1.0694 -2.6411 -1.8877
  872MOL0     H17656   6.853   9.418   1.569  1.7774  0.3327 -0.6673
  872MOL0     H17657   6.769   9.511   1.369  0.8454  0.3716  1.0485
  872MOL0     H17658   6.698   9.354   1.318 -4.7646  1.4554  0.6814
  872MOL0     H17659   6.509   9.461   1.396 -2.3829 -0.5825  2.0365
  872MOL0     H17660   6.544   9.333   1.490 -1.0444 -0.1064 -3.0289
  872MOL0     H17661   6.629   9.496   1.675 -0.2753 -0.5510  0.3732
  872MOL0     H17662   6.633   9.623   1.547 -1.8527  0.4887 -2.3873
  872MOL0     H17663   6.435   9.652   1.699  0.1676  2.1361 -1.4818
  872MOL0     H17664   6.388   9.622   1.533 -0.9540 -1.7430  0.7275
  872MOL0     H17665   6.339   9.394   1.557 -1.5580  0.5691  0.2730
  872MOL0     H17666   6.390   9.402   1.726  0.5770 -1.1209 -0.8997
  872MOL0     H17667   6.173   9.416   1.757  2.5496 -1.0825 -0.8603
  872MOL0     H17668   6.207   9.587   1.735 -0.5782 -0.7305  0.0076
  872MOL0     H17669   6.013   9.501   1.620 -0.7542 -1.0244 -1.2625
  872MOL0     H17670   6.104   9.370   1.535 -0.3365 -1.0066 -0.0263
  872MOL0     H17671   6.067   9.768   1.524 -1.4557 -0.0716 -1.4332
  872MOL0     H17672   6.168   9.949   1.319 -0.0470 -0.9895  0.9732
  872MOL0     H17673   6.158   9.871   1.165  0.3567  0.4563  0.7353
  872MOL0     H17674   5.894   9.831   1.317 -0.1324 -1.2445 -3.2294
  872MOL0     H17675   5.932   9.875   1.153  1.4419  0.0172  0.0930
  872MOL0     H17676   5.987  10.105   1.217 -0.0281 -0.3959 -2.1382
  872MOL0     H17677   5.978  10.060   1.390  0.5863  1.7800 -2.0008
  872MOL0     H17678   5.749  10.049   1.199 -0.2505 -0.7931 -0.0905
  872MOL0     H17679   5.785  10.179   1.326 -0.7960  0.1802 -0.4648
  872MOL0     H17680   5.689   9.858   1.185 -0.2040  2.5846 -0.3559
  872MOL0     H17681   5.421   9.640   1.107  0.2442 -2.4121  1.0615
  872MOL0     H17682   5.584   9.703   1.053 -0.1872  1.3064  1.4923
  872MOL0     H17683   5.569   9.559   1.142  0.8148 -0.3630  2.1513
  872MOL0     H17684   5.427   9.275   1.188  2.0131 -0.9009  1.4404
  872MOL0     H17685   5.294   9.064   1.214  0.7589  0.2614 -0.3759
  872MOL0     H17686   4.983   9.029   1.273  0.1920  0.4610  0.4437
  872MOL0     H17687   5.143   8.936   1.264  1.6819  1.8455  0.1319
  872MOL0     H17688   4.892   8.856   1.433  0.6468 -0.6541  0.2375
  872MOL0     H17689   4.954   8.754   1.301 -1.7453 -1.0319  2.2434
  872MOL0     H17690   5.051   8.800   1.573 -0.4743  1.3971 -0.9262
  872MOL0     H17691   5.163   8.755   1.439 -0.4507  0.2005 -0.6526
  872MOL0     H17692   5.022   8.561   1.374 -2.7277  0.2431 -0.1079
  872MOL0     H17693   5.080   8.559   1.545 -0.2378  0.3837 -0.0244
  872MOL0     H17694   4.800   8.669   1.490 -1.2289 -1.9388 -1.0233
  872MOL0     H17695   4.891   8.611   1.635 -0.3864 -1.0713  0.5566
  872MOL0     H17696   4.789   8.433   1.403 -3.6714  0.3803  0.7376
  872MOL0     H17697   4.905   8.388   1.529  1.2942  1.8798  1.4565
  872MOL0     H17698   4.611   8.410   1.548  0.3745  1.6350 -0.3700
  872MOL0     H17699   4.703   8.485   1.676  1.9801  0.7555 -0.6017
  872MOL0     H17700   4.802   8.253   1.730 -1.7707  0.2433 -0.0323
  872MOL0     H17701   4.723   8.184   1.594  0.5395 -1.6182  1.1414
  872MOL0     H17702   5.154   9.222   1.602  3.4567  1.1041  2.1171
  872MOL0     H17703   5.264   9.415   1.564 -2.3479  0.1385 -0.6583
  872MOL0     H17704   5.381   9.760   1.569 -2.4318 -0.0156 -1.6148
  872MOL0     H17705   5.546   9.944   1.597 -2.2758 -0.1810  0.4411
  872MOL0     H17706   6.975   9.101   1.253 -1.3604 -2.0231  0.7656
  872MOL0     H17707   7.130   8.924   1.305 -2.3512 -0.7503  0.7369
  872MOL0     H17708   7.539   8.769   1.748  0.7598 -0.8517  0.7627
  872MOL0     H17709   7.718   8.571   1.698 -0.0045 -0.0722 -0.7388
  872MOL0     H17710   7.802   8.246   1.561  1.1665  1.6779 -0.8790
  872MOL0     H17711   7.746   8.356   1.690  1.5105 -0.7703  0.5818
  872MOL0     H17712   7.570   8.168   1.550  1.1460 -1.8717  1.0054
  872MOL0     H17713   7.517   8.289   1.670 -1.6759 -1.9996 -1.7525
  872MOL0     H17714   7.654   8.168   1.839 -2.3644 -1.3430  0.7452
  872MOL0     H17715   7.701   8.044   1.717 -0.0929  1.5905 -3.2293
  872MOL0     H17716   7.452   7.983   1.702 -0.2497 -1.1349  1.8896
  872MOL0     H17717   7.409   8.121   1.800 -2.0230 -1.6182  1.4113
  872MOL0     H17718   7.522   7.828   2.081  1.2338  0.3518 -0.7097
  872MOL0     H17719   7.514   8.495   1.337 -0.9431  0.1354 -0.1038
  872MOL0     H17720   7.392   8.706   1.370  0.9101 -2.1689 -0.3048
  873MOL0     O17721   0.490   9.011   5.263  0.2335  0.2938 -0.3542
  873MOL0     C17722   0.597   9.069   5.248  0.4634 -0.4443  1.0314
  873MOL0     O17723   0.641   9.118   5.125 -0.5217 -0.1174  0.4986
  873MOL0     C17724   0.563   9.122   5.016 -0.1594 -0.2709  0.6873
  873MOL0     C17725   0.476   9.232   5.009 -0.0789  0.5236  1.3448
  873MOL0     C17726   0.379   9.235   4.904  0.1922 -0.7872  0.2887
  873MOL0     C17727   0.375   9.136   4.810 -0.2838  0.2254 -0.5807
  873MOL0     O17728   0.305   9.156   4.695 -0.4240 -0.5485 -0.1615
  873MOL0     C17729   0.166   9.115   4.704 -0.6992 -0.7465  0.8043
  873MOL0     C17730   0.129   9.030   4.588  0.6741 -0.1383  0.5242
  873MOL0     C17731  -0.020   9.003   4.564  0.3611  1.0832 -0.3606
  873MOL0     C17732  -0.056   8.956   4.421 -1.0934  0.6559 -0.0643
  873MOL0     C17733  -0.206   8.990   4.384 -0.5315  0.3551  0.1004
  873MOL0     C17734  -0.244   8.931   4.242  0.1385 -0.1474 -0.0429
  873MOL0     C17735  -0.397   8.954   4.216 -0.4936 -0.6122 -0.2344
  873MOL0     C17736  -0.410   9.104   4.165 -0.0831 -0.4576 -0.2552
  873MOL0     N17737  -0.551   9.119   4.122  0.2904  0.4844 -0.7119
  873MOL0     C17738  -0.643   9.205   4.163  0.1000 -0.1852  0.2912
  873MOL0     C17739  -0.757   9.182   4.085  0.1418  0.8850 -0.1140
  873MOL0     C17740  -0.885   9.249   4.110  0.7867  0.5639 -0.5628
  873MOL0     C17741  -1.004   9.196   4.031  0.0727  0.1632 -0.4715
  873MOL0     C17742  -1.105   9.306   4.056 -0.3398 -0.1475 -0.0975
  873MOL0     C17743  -1.242   9.270   4.006  0.8354  0.2942  0.9136
  873MOL0     O17744  -1.341   9.366   4.053 -0.0220 -0.3198  0.1600
  873MOL0     C17745  -1.471   9.344   4.030  0.3948  0.1650 -0.2549
  873MOL0     C17746  -1.566   9.443   4.066  1.2221  0.3147  0.1806
  873MOL0     C17747  -1.707   9.433   4.037  0.2282  0.2820  0.3396
  873MOL0     C17748  -1.800   9.538   4.087  1.6316  0.5385  0.3523
  873MOL0     C17749  -1.755   9.313   3.979  0.4651 -0.5930 -0.1681
  873MOL0     C17750  -1.892   9.283   3.947  0.0407  0.8052  0.3673
  873MOL0     O17751  -1.940   9.161   3.991  0.4618  0.7504  0.4146
  873MOL0     C17752  -2.075   9.141   3.976 -0.5883 -0.8672 -0.3455
  873MOL0     C17753  -2.168   9.241   4.017  0.1480 -0.3705  0.5006
  873MOL0     C17754  -2.301   9.216   3.996 -0.2479 -0.3402 -0.1206
  873MOL0     C17755  -2.338   9.093   3.930 -0.3707 -0.0804 -0.3901
  873MOL0     O17756  -2.470   9.075   3.923  0.4443  0.3994  0.3273
  873MOL0     C17757  -2.519   9.054   3.786  0.7581 -1.1242 -0.5039
  873MOL0     C17758  -2.519   9.178   3.694 -0.2402  0.3222 -0.9416
  873MOL0     C17759  -2.632   9.271   3.724  0.2507  0.1146 -0.3458
  873MOL0     C17760  -2.644   9.396   3.640  0.2644 -0.6154  0.8197
  873MOL0     C17761  -2.532   9.497   3.666 -0.3208  0.5618 -0.4388
  873MOL0     C17762  -2.541   9.556   3.810 -0.3168 -0.4288  0.5906
  873MOL0     C17763  -2.475   9.691   3.804  0.2412 -0.3614 -0.3819
  873MOL0     C17764  -2.429   9.742   3.938  0.0413  0.3879  0.4580
  873MOL0    Cl17765  -2.289   9.645   3.975 -0.4034  0.4475  0.2093
  873MOL0     C17766  -2.247   8.994   3.892  0.7254  0.7447 -0.2709
  873MOL0     C17767  -2.117   9.015   3.916  0.3038 -0.1059  0.7610
  873MOL0     O17768  -1.948   9.360   3.868 -0.2447  0.3636  0.0105
  873MOL0     C17769  -1.657   9.219   3.937  0.3377  0.3074  0.5401
  873MOL0     C17770  -1.525   9.225   3.973  0.4812 -0.7027 -0.6206
  873MOL0     N17771  -0.722   9.087   3.990  0.2615  0.1743  0.5242
  873MOL0     N17772  -0.605   9.045   4.020 -0.3140 -0.4606 -0.3372
  873MOL0     C17773   0.454   9.020   4.824  0.6365  0.1441 -0.7509
  873MOL0     C17774   0.547   9.011   4.927 -0.0516 -0.7498 -0.1298
  873MOL0     C17775   0.686   9.081   5.362 -0.2614 -0.5052 -0.7243
  873MOL0     C17776   0.819   9.130   5.343  0.0679 -0.3275  0.6221
  873MOL0     C17777   0.913   9.143   5.446 -0.0847 -0.0024  0.5023
  873MOL0     C17778   0.880   9.116   5.578 -0.4760 -0.4422 -0.2426
  873MOL0     O17779   0.967   9.140   5.680 -0.1696  0.2514 -0.2057
  873MOL0     C17780   1.060   9.031   5.708  0.1801  0.0183  0.7868
  873MOL0     C17781   1.200   9.085   5.670  0.2207 -0.6623  0.5442
  873MOL0     C17782   1.306   8.994   5.731 -0.2074  0.0870  0.6409
  873MOL0     C17783   1.453   9.060   5.722 -1.3519  0.7240 -0.2061
  873MOL0     C17784   1.557   8.958   5.749 -0.0786 -0.2333 -0.9314
  873MOL0     C17785   1.627   8.867   5.788 -0.0689  0.9886 -0.1542
  873MOL0     C17786   0.755   9.058   5.600  1.0421  1.0119  0.7982
  873MOL0     C17787   0.663   9.042   5.495  0.3616 -0.0758  0.6272
  873MOL0     H17788   0.479   9.309   5.086  1.8972  1.8862 -0.0151
  873MOL0     H17789   0.322   9.327   4.900  1.4276 -0.0276 -3.1574
  873MOL0     H17790   0.143   9.040   4.780 -2.0318 -1.8610 -0.6044
  873MOL0     H17791   0.099   9.201   4.706 -0.9893 -0.7889 -2.1673
  873MOL0     H17792   0.172   9.088   4.505  1.0871 -0.8728  0.2187
  873MOL0     H17793   0.187   8.938   4.594 -0.4784 -0.8276  1.4740
  873MOL0     H17794  -0.068   8.941   4.641  0.0625  0.7038 -0.8479
  873MOL0     H17795  -0.075   9.097   4.578  0.5692  1.3688 -1.4321
  873MOL0     H17796   0.006   9.007   4.348 -0.1969 -0.7525 -0.3196
  873MOL0     H17797  -0.029   8.850   4.418  0.1061  0.9307  0.3951
  873MOL0     H17798  -0.269   8.944   4.460  0.7259 -1.4622  0.1022
  873MOL0     H17799  -0.223   9.098   4.388 -1.7637  0.1363  1.2892
  873MOL0     H17800  -0.185   8.957   4.153 -1.2883  4.1316 -0.0006
  873MOL0     H17801  -0.227   8.823   4.247  0.3838 -0.1942 -1.4459
  873MOL0     H17802  -0.440   8.880   4.148 -0.2830 -1.0573  0.1134
  873MOL0     H17803  -0.448   8.936   4.312  0.0181  2.0595  0.6261
  873MOL0     H17804  -0.340   9.122   4.084  0.7607  1.8120  0.8915
  873MOL0     H17805  -0.387   9.173   4.247  0.8226 -1.1293  0.0660
  873MOL0     H17806  -0.633   9.287   4.233 -3.5356 -0.5688  1.4720
  873MOL0     H17807  -0.899   9.248   4.218  0.7458 -1.2329 -0.5497
  873MOL0     H17808  -0.873   9.356   4.092 -0.4434  0.6044 -1.2985
  873MOL0     H17809  -1.027   9.095   4.066 -2.7868  0.6221 -0.8119
  873MOL0     H17810  -0.967   9.196   3.928  1.7494  1.2104  0.0854
  873MOL0     H17811  -1.069   9.406   4.031  1.2216  0.4781  3.9207
  873MOL0     H17812  -1.125   9.315   4.163  0.9245  0.5216  0.1061
  873MOL0     H17813  -1.272   9.168   4.030  2.6774 -0.7451 -0.8388
  873MOL0     H17814  -1.238   9.265   3.896  2.0463 -3.6969  0.9842
  873MOL0     H17815  -1.517   9.524   4.120  1.5689  0.3805 -0.2236
  873MOL0     H17816  -1.872   9.560   4.008  2.2357 -0.2917 -0.4487
  873MOL0     H17817  -1.849   9.502   4.178 -0.4839 -0.3213 -1.0539
  873MOL0     H17818  -1.741   9.627   4.110 -0.0327  2.4454 -2.2283
  873MOL0     H17819  -2.141   9.338   4.058  1.7650 -0.5214 -0.1322
  873MOL0     H17820  -2.376   9.282   4.038 -1.1464 -0.3304 -1.7005
  873MOL0     H17821  -2.439   8.997   3.739  1.4824 -1.4680  1.0885
  873MOL0     H17822  -2.611   8.996   3.787  1.9420 -3.2736  3.1817
  873MOL0     H17823  -2.424   9.229   3.711 -0.7103  0.1079  3.5062
  873MOL0     H17824  -2.508   9.133   3.595  3.6501 -0.8014 -0.1588
  873MOL0     H17825  -2.615   9.301   3.828 -0.8984  2.1974 -0.7017
  873MOL0     H17826  -2.724   9.212   3.716  0.0161  0.7053 -2.5363
  873MOL0     H17827  -2.640   9.368   3.534  1.7551 -1.5107  1.0875
  873MOL0     H17828  -2.741   9.444   3.657  1.0679  1.6975 -0.5458
  873MOL0     H17829  -2.565   9.572   3.593 -3.4023  0.0534  0.2978
  873MOL0     H17830  -2.433   9.461   3.637  0.7260  0.4446  2.8154
  873MOL0     H17831  -2.644   9.567   3.847  0.9578  2.6315  3.8755
  873MOL0     H17832  -2.487   9.499   3.887 -0.1470  0.3299  1.0463
  873MOL0     H17833  -2.557   9.748   3.759 -2.6372 -4.3835 -0.7316
  873MOL0     H17834  -2.385   9.711   3.745  0.9151  0.1751  0.7781
  873MOL0     H17835  -2.507   9.741   4.014  1.1581  0.1169  1.6344
  873MOL0     H17836  -2.396   9.845   3.923  0.2788  0.7176  2.8663
  873MOL0     H17837  -2.285   8.906   3.840  2.2062  1.0196 -1.9317
  873MOL0     H17838  -2.045   8.936   3.895 -2.2731 -2.5323  0.5894
  873MOL0     H17839  -1.700   9.128   3.897 -1.7683  0.6355  1.8791
  873MOL0     H17840  -1.474   9.135   3.938 -1.4621 -2.2422  0.2863
  873MOL0     H17841   0.434   8.932   4.763  0.8992 -0.9218  0.6645
  873MOL0     H17842   0.608   8.922   4.938  0.4620 -0.3904 -0.0268
  873MOL0     H17843   0.851   9.163   5.244  0.3425 -0.1914  0.7543
  873MOL0     H17844   1.013   9.164   5.410 -1.0190  0.6878 -1.8935
  873MOL0     H17845   1.060   9.004   5.814  1.0762 -1.3552  0.4495
  873MOL0     H17846   1.034   8.939   5.656 -1.3715  1.3548 -0.9357
  873MOL0     H17847   1.217   9.188   5.700 -1.8884 -0.9137  3.0522
  873MOL0     H17848   1.200   9.083   5.561 -1.3769  0.3995  0.4878
  873MOL0     H17849   1.306   8.892   5.692 -1.9580 -0.5613  2.1940
  873MOL0     H17850   1.279   8.992   5.837 -1.9547  0.8890  0.2408
  873MOL0     H17851   1.470   9.142   5.793 -2.0353  0.2836  0.4862
  873MOL0     H17852   1.461   9.103   5.622  0.2123  6.4995  2.0140
  873MOL0     H17853   1.681   8.776   5.801 -1.1346  0.4753  0.8874
  873MOL0     H17854   0.732   9.016   5.697 -1.6333 -0.8603 -0.5306
  873MOL0     H17855   0.570   8.994   5.520 -1.2646  2.2068 -0.6646
  874MOL0     O17856  10.154  10.226   2.867  0.2315  0.0886 -0.4096
  874MOL0     C17857  10.117  10.179   2.975  0.0490  0.1559  0.9798
  874MOL0     O17858  10.017  10.084   2.991 -0.1705  0.0304 -0.5220
  874MOL0     C17859   9.988   9.999   2.885  0.2792  0.0802  0.8338
  874MOL0     C17860   9.852   9.962   2.874  0.2689  0.4651  0.6907
  874MOL0     C17861   9.805   9.881   2.768  0.2560 -0.2414  0.2038
  874MOL0     C17862   9.897   9.832   2.666  0.1118  0.5020 -0.5884
  874MOL0     O17863   9.855   9.746   2.571 -0.1528  0.1686  0.1149
  874MOL0     C17864   9.945   9.678   2.488  0.3280 -1.1408  0.1182
  874MOL0     C17865   9.872   9.581   2.382  0.1188 -0.4404  0.4450
  874MOL0     C17866   9.770   9.639   2.291 -0.0819  0.2959  0.5062
  874MOL0     C17867   9.631   9.644   2.358  0.3194  0.3261  0.0627
  874MOL0     C17868   9.532   9.652   2.243  0.1440 -0.5603  0.2573
  874MOL0     C17869   9.396   9.695   2.302  0.3409  0.1679  0.0393
  874MOL0     C17870   9.289   9.714   2.185 -0.4218  0.2189 -0.2340
  874MOL0     C17871   9.229   9.583   2.135 -1.2687 -0.0430 -0.3594
  874MOL0     N17872   9.124   9.627   2.049  0.3843  0.8465 -0.0512
  874MOL0     C17873   8.988   9.605   2.072 -0.1648  0.9116 -0.2700
  874MOL0     C17874   8.942   9.661   1.959 -0.1071 -0.2968 -0.8832
  874MOL0     C17875   8.794   9.686   1.937 -0.5904 -0.3700 -0.0133
  874MOL0     C17876   8.730   9.640   1.809  0.7092 -0.2800 -0.0618
  874MOL0     C17877   8.614   9.727   1.761  0.0382 -0.1861  0.0011
  874MOL0     C17878   8.523   9.669   1.649 -0.1789  0.7331 -0.1204
  874MOL0     O17879   8.443   9.769   1.600 -0.1595 -0.7309  0.1472
  874MOL0     C17880   8.327   9.787   1.649 -0.3531  0.3750  0.3102
  874MOL0     C17881   8.273   9.728   1.759  0.6716  0.0670  0.0113
  874MOL0     C17882   8.154   9.782   1.827 -0.7500 -0.2134 -1.3054
  874MOL0     C17883   8.099   9.714   1.948 -1.2233 -1.0158  0.6123
  874MOL0     C17884   8.096   9.903   1.787  0.0803  0.5704 -0.0413
  874MOL0     C17885   7.984   9.975   1.860 -0.8527 -0.5949  0.1508
  874MOL0     O17886   7.966  10.106   1.821 -0.7463 -0.1370  0.8576
  874MOL0     C17887   7.878  10.200   1.863 -0.4410 -0.1689  0.0863
  874MOL0     C17888   7.908  10.332   1.833 -0.4837 -0.2378  0.0376
  874MOL0     C17889   7.830  10.442   1.868  0.4810  0.2373 -0.1698
  874MOL0     C17890   7.702  10.413   1.928  0.0609 -0.4531 -0.0499
  874MOL0     O17891   7.609  10.510   1.973  0.2551 -0.2622  0.3544
  874MOL0     C17892   7.671  10.631   2.000  0.3817 -0.6112  0.8611
  874MOL0     C17893   7.571  10.739   2.053  0.6031  0.3138  0.0477
  874MOL0     C17894   7.460  10.777   1.957  0.2899  0.6520  0.4195
  874MOL0     C17895   7.410  10.917   1.979  0.1582 -1.5467  0.2190
  874MOL0     C17896   7.267  10.939   1.946  0.3527 -0.7855  0.1610
  874MOL0     C17897   7.201  11.060   2.017  0.7741 -0.2495 -0.1767
  874MOL0     C17898   7.062  11.087   1.961 -0.1095  0.3485 -0.2312
  874MOL0     C17899   6.993  11.210   2.026 -0.1301 -0.2224 -0.9587
  874MOL0    Cl17900   6.824  11.222   1.980  0.5572  0.6500  0.1572
  874MOL0     C17901   7.666  10.283   1.953 -0.4466 -1.1852  0.8576
  874MOL0     C17902   7.752  10.179   1.931  0.3973  0.1853 -0.4331
  874MOL0     O17903   7.912   9.923   1.943  0.3993  0.4183 -0.3168
  874MOL0     C17904   8.150   9.955   1.664 -0.6756  0.0164 -0.2686
  874MOL0     C17905   8.259   9.893   1.605 -0.4379  0.5488  0.0800
  874MOL0     N17906   9.033   9.707   1.868  0.0075 -0.2531 -0.0101
  874MOL0     N17907   9.150   9.682   1.928  0.1637 -0.1558  0.0249
  874MOL0     C17908  10.038   9.873   2.676 -0.5201 -0.1090  0.3843
  874MOL0     C17909  10.078   9.951   2.786 -0.2520 -1.0336  0.7280
  874MOL0     C17910  10.172  10.235   3.103  0.7199  0.3295  0.2006
  874MOL0     C17911  10.298  10.301   3.093  0.4972 -0.3458  0.3520
  874MOL0     C17912  10.356  10.350   3.215 -0.6076  0.5210  0.2709
  874MOL0     C17913  10.293  10.326   3.338 -0.4516 -0.2962  0.1529
  874MOL0     O17914  10.344  10.385   3.454  1.0977  0.2682  0.3641
  874MOL0     C17915  10.486  10.410   3.473 -0.0986  0.4753  0.3233
  874MOL0     C17916  10.508  10.412   3.619  0.4155  0.5924 -1.2783
  874MOL0     C17917  10.646  10.449   3.667 -0.5239 -0.3773  0.0289
  874MOL0     C17918  10.670  10.450   3.820  0.8885  0.7323 -0.3737
  874MOL0     C17919  10.568  10.519   3.895  0.6899  0.4014 -0.5404
  874MOL0     C17920  10.488  10.572   3.968  0.0261 -0.1616  0.5785
  874MOL0     C17921  10.163  10.276   3.338  0.3101  0.8722 -0.3174
  874MOL0     C17922  10.100  10.236   3.217 -1.0619  0.3324 -0.8016
  874MOL0     H17923   9.782   9.996   2.950 -1.4660  0.0533 -0.6584
  874MOL0     H17924   9.700   9.853   2.763  0.5144 -1.0293 -3.1242
  874MOL0     H17925   9.999   9.749   2.424  2.1338 -2.3520  0.2400
  874MOL0     H17926  10.018   9.624   2.549 -0.3412 -1.7802  0.3576
  874MOL0     H17927   9.948   9.515   2.340 -0.1570 -1.2589  1.2025
  874MOL0     H17928   9.814   9.510   2.441  0.5234 -1.8836 -0.8408
  874MOL0     H17929   9.800   9.734   2.247 -2.5717  2.0483  2.3672
  874MOL0     H17930   9.765   9.570   2.206 -1.4617  0.5775  0.3492
  874MOL0     H17931   9.605   9.554   2.415  0.6028  0.3510  0.2315
  874MOL0     H17932   9.622   9.720   2.436 -0.8797 -0.5969  0.8520
  874MOL0     H17933   9.568   9.732   2.177 -0.7071 -0.8968 -0.6456
  874MOL0     H17934   9.519   9.569   2.173 -1.3163  0.8165 -1.1880
  874MOL0     H17935   9.361   9.624   2.377  0.1492  2.8371  2.6502
  874MOL0     H17936   9.405   9.783   2.367  3.6355 -0.1972  0.2527
  874MOL0     H17937   9.208   9.780   2.216 -2.0320  0.5630 -4.5412
  874MOL0     H17938   9.327   9.762   2.095 -2.4362 -0.3175 -1.4437
  874MOL0     H17939   9.202   9.509   2.211  1.2360 -1.3544 -0.6146
  874MOL0     H17940   9.302   9.528   2.075  0.3425  1.2813  0.3018
  874MOL0     H17941   8.934   9.561   2.156 -0.3457  0.4319 -0.6305
  874MOL0     H17942   8.742   9.653   2.027  1.6776 -0.4072  1.3711
  874MOL0     H17943   8.789   9.795   1.942 -2.3344 -0.4388  0.3377
  874MOL0     H17944   8.693   9.541   1.840  1.7980 -0.4763  0.6890
  874MOL0     H17945   8.809   9.636   1.734  0.3013  0.1717 -0.5208
  874MOL0     H17946   8.660   9.812   1.711 -3.4798  0.4278 -2.5861
  874MOL0     H17947   8.548   9.756   1.844  0.0134  0.7985 -0.3525
  874MOL0     H17948   8.476   9.581   1.696  2.5719  0.4965  2.5048
  874MOL0     H17949   8.579   9.647   1.558 -2.9651 -0.0900 -1.7662
  874MOL0     H17950   8.310   9.640   1.811  2.7631  0.3875 -0.8613
  874MOL0     H17951   7.995   9.686   1.930 -1.0223 -0.8948 -0.7928
  874MOL0     H17952   8.167   9.632   1.973  3.4727  2.8392  1.8953
  874MOL0     H17953   8.102   9.787   2.029  0.6694 -0.3813  0.0182
  874MOL0     H17954   8.000  10.355   1.779 -1.1668 -0.5215 -1.2927
  874MOL0     H17955   7.852  10.542   1.832  0.4398  0.8212  1.3423
  874MOL0     H17956   7.750  10.610   2.072  1.2842 -1.4788 -0.3436
  874MOL0     H17957   7.714  10.666   1.906  2.8345 -2.5673  1.1569
  874MOL0     H17958   7.532  10.712   2.151  1.5794  2.7265  1.1888
  874MOL0     H17959   7.638  10.826   2.059 -0.4895  1.2592 -0.9425
  874MOL0     H17960   7.379  10.706   1.975  1.4994 -0.9040 -0.0767
  874MOL0     H17961   7.492  10.772   1.852  0.8226  1.8770  0.5049
  874MOL0     H17962   7.432  10.937   2.085  4.6567 -0.2954 -0.7601
  874MOL0     H17963   7.482  10.982   1.930 -0.9945 -1.0931 -0.9338
  874MOL0     H17964   7.212  10.847   1.968  1.0631 -1.2034  0.2163
  874MOL0     H17965   7.255  10.966   1.841 -0.3178  2.7802  1.0325
  874MOL0     H17966   7.191  11.039   2.124 -3.3514  1.5609 -0.0423
  874MOL0     H17967   7.274  11.140   2.002 -0.9676  1.6005  0.8285
  874MOL0     H17968   7.018  10.991   1.989  2.2983  0.0690  3.2150
  874MOL0     H17969   7.062  11.100   1.853  3.4178 -1.1537 -0.5564
  874MOL0     H17970   7.038  11.308   2.013 -1.4298  0.5222 -0.0900
  874MOL0     H17971   7.004  11.188   2.133  1.1751 -2.2832 -1.4588
  874MOL0     H17972   7.571  10.272   2.005 -0.7428  1.6411  1.0972
  874MOL0     H17973   7.715  10.079   1.951 -0.9579  0.5164 -1.1728
  874MOL0     H17974   8.109  10.045   1.619  0.2464 -0.4466 -2.1371
  874MOL0     H17975   8.301   9.931   1.512  4.5366 -2.4933  0.7147
  874MOL0     H17976  10.111   9.833   2.607 -0.2061 -0.8220  1.1013
  874MOL0     H17977  10.181   9.986   2.788 -0.9722  1.1195  1.8190
  874MOL0     H17978  10.350  10.317   2.998 -0.0471  2.2072  0.4007
  874MOL0     H17979  10.461  10.374   3.228 -0.5171  1.2511 -1.5553
  874MOL0     H17980  10.535  10.322   3.432  1.5798  0.8293  1.4644
  874MOL0     H17981  10.508  10.503   3.420  0.5763  0.6747  0.9444
  874MOL0     H17982  10.500  10.307   3.649  0.3407  0.6786 -1.0008
  874MOL0     H17983  10.434  10.473   3.670 -1.2831 -2.2456 -0.0920
  874MOL0     H17984  10.675  10.545   3.625 -0.9925 -1.2818 -2.5532
  874MOL0     H17985  10.709  10.379   3.610 -0.9620  0.0398 -0.9867
  874MOL0     H17986  10.759  10.513   3.823  1.0646  0.4676 -0.0471
  874MOL0     H17987  10.682  10.351   3.864  1.8560  1.1726  0.3746
  874MOL0     H17988  10.422  10.630   4.029 -0.2496 -0.7800  0.8724
  874MOL0     H17989  10.133  10.247   3.438  0.9291  1.0180 -0.0850
  874MOL0     H17990   9.998  10.199   3.217 -1.4164  1.2936 -0.9173
  875MOL0     O17991   7.526   4.451   2.574  0.8004 -0.4475  0.2442
  875MOL0     C17992   7.580   4.342   2.554  0.3484  0.3381  0.2959
  875MOL0     O17993   7.611   4.289   2.433 -0.4254 -0.4660 -0.3560
  875MOL0     C17994   7.739   4.312   2.386  0.6452 -0.4871 -0.5231
  875MOL0     C17995   7.830   4.395   2.461  0.0662  0.5636  0.1131
  875MOL0     C17996   7.955   4.419   2.407 -0.2319 -0.1306 -0.0816
  875MOL0     C17997   7.996   4.378   2.278  0.9615  0.3304 -0.4335
  875MOL0     O17998   8.117   4.393   2.230 -0.1475  0.4616 -0.5676
  875MOL0     C17999   8.197   4.493   2.295  0.1774 -0.5634  0.4843
  875MOL0     C18000   8.337   4.511   2.221 -0.0720 -0.7320 -0.2488
  875MOL0     C18001   8.313   4.547   2.073  1.0856 -0.5782  0.5754
  875MOL0     C18002   8.439   4.581   2.015  0.8213 -0.0746 -0.7039
  875MOL0     C18003   8.427   4.651   1.885 -0.7081 -0.6856  0.7233
  875MOL0     C18004   8.567   4.703   1.840 -0.1701 -0.2636  0.4083
  875MOL0     C18005   8.555   4.808   1.736 -0.3414  0.2139 -0.8685
  875MOL0     C18006   8.698   4.822   1.668 -0.4375 -0.0221 -0.9723
  875MOL0     N18007   8.699   4.930   1.565 -0.8529 -0.1160 -0.5128
  875MOL0     C18008   8.692   5.065   1.580  0.2491 -0.1508  0.1028
  875MOL0     C18009   8.697   5.111   1.458  0.2888 -0.3084 -0.2610
  875MOL0     C18010   8.716   5.262   1.416  0.9040  0.4455 -0.3068
  875MOL0     C18011   8.586   5.337   1.394  0.2964 -0.3322 -0.6291
  875MOL0     C18012   8.612   5.487   1.359  0.2468  0.1605 -0.3538
  875MOL0     C18013   8.705   5.570   1.456 -0.0896  0.1723  0.2887
  875MOL0     O18014   8.841   5.589   1.414 -0.5642  0.0591  0.0186
  875MOL0     C18015   8.916   5.657   1.504 -1.1611 -0.4488  0.5881
  875MOL0     C18016   9.027   5.715   1.432 -0.9751  0.0781  0.2648
  875MOL0     C18017   9.113   5.808   1.498  0.2819  1.2028 -0.1209
  875MOL0     C18018   9.241   5.853   1.424 -0.8582 -0.5580  0.6923
  875MOL0     C18019   9.089   5.842   1.635  0.2150  0.1433 -0.2087
  875MOL0     C18020   9.172   5.935   1.720 -0.5576 -0.6277  0.6547
  875MOL0     O18021   9.144   5.952   1.848  0.8000 -0.9270 -1.4222
  875MOL0     C18022   9.227   6.024   1.927 -0.6375  0.4464 -0.4548
  875MOL0     C18023   9.210   6.165   1.932  0.1208  0.0711 -0.7680
  875MOL0     C18024   9.301   6.238   2.006  0.1294 -0.0211 -0.1032
  875MOL0     C18025   9.398   6.179   2.084 -0.7354 -0.5092 -0.5605
  875MOL0     O18026   9.475   6.261   2.165  0.5495 -0.3344  0.1170
  875MOL0     C18027   9.617   6.244   2.152 -0.2671  0.2389 -0.2136
  875MOL0     C18028   9.690   6.378   2.136  0.4471  0.6887 -0.2624
  875MOL0     C18029   9.838   6.356   2.149 -0.1160 -0.1075  1.2079
  875MOL0     C18030   9.935   6.478   2.143  0.1873  0.2694  0.4133
  875MOL0     C18031  10.054   6.464   2.235 -0.0573  0.6719 -0.6117
  875MOL0     C18032  10.177   6.406   2.167 -0.5443 -0.5736  0.2101
  875MOL0     C18033  10.291   6.372   2.273  0.6122 -0.0857 -0.2252
  875MOL0     C18034  10.350   6.505   2.316 -0.1462  0.8427 -0.2444
  875MOL0    Cl18035  10.476   6.434   2.412  0.4032  0.1783 -0.6310
  875MOL0     C18036   9.410   6.043   2.090  0.0497 -0.1570 -0.0201
  875MOL0     C18037   9.325   5.963   2.011 -0.2216 -0.8298  0.4808
  875MOL0     O18038   9.273   5.981   1.665  0.1616  0.0606  0.1742
  875MOL0     C18039   8.978   5.784   1.702  0.0672  0.9748 -0.8138
  875MOL0     C18040   8.893   5.694   1.633 -0.2580 -0.8940 -0.5700
  875MOL0     N18041   8.694   5.002   1.372 -0.3295 -0.4949  0.2609
  875MOL0     N18042   8.713   4.904   1.434  1.0454  0.0496 -0.1308
  875MOL0     C18043   7.901   4.300   2.206  0.9506 -0.5945 -0.4831
  875MOL0     C18044   7.773   4.271   2.263  0.7622  0.2066  0.2775
  875MOL0     C18045   7.592   4.244   2.665  0.2970 -0.0691  0.0007
  875MOL0     C18046   7.656   4.120   2.644  0.1628 -0.2697 -0.3775
  875MOL0     C18047   7.670   4.032   2.760  0.6168  0.7258  0.5201
  875MOL0     C18048   7.605   4.058   2.880  0.1622  0.2768 -0.4194
  875MOL0     O18049   7.614   3.959   2.975 -0.7324 -0.7366 -0.5853
  875MOL0     C18050   7.582   3.987   3.112 -0.2027  0.0308  0.5190
  875MOL0     C18051   7.619   3.880   3.206 -1.0797  0.2185 -0.1794
  875MOL0     C18052   7.503   3.838   3.302  0.3814 -0.1284  0.0544
  875MOL0     C18053   7.383   3.767   3.242  0.2757 -0.4982 -0.1384
  875MOL0     C18054   7.406   3.629   3.207 -0.1201  0.1297 -0.8044
  875MOL0     C18055   7.455   3.519   3.178 -0.1119  0.1892  0.5365
  875MOL0     C18056   7.545   4.185   2.897  0.7344  0.7847 -1.0131
  875MOL0     C18057   7.532   4.273   2.792  0.4337 -0.1557  0.6004
  875MOL0     H18058   7.797   4.438   2.555  0.0980 -0.7719  0.7544
  875MOL0     H18059   8.023   4.473   2.473 -0.8895 -0.3464  0.7952
  875MOL0     H18060   8.141   4.586   2.312 -2.3952 -1.2530 -2.9511
  875MOL0     H18061   8.222   4.459   2.396 -1.2431  0.5998  1.2641
  875MOL0     H18062   8.391   4.593   2.270 -0.4327  0.8508 -2.3404
  875MOL0     H18063   8.398   4.421   2.231  1.0117  0.0119  0.0691
  875MOL0     H18064   8.268   4.464   2.018 -2.3795  0.9499  0.8697
  875MOL0     H18065   8.244   4.631   2.075 -0.5825 -1.8913  0.0372
  875MOL0     H18066   8.487   4.653   2.082 -2.2828  3.1555 -1.6615
  875MOL0     H18067   8.505   4.494   2.004  0.7940  0.1005 -2.7932
  875MOL0     H18068   8.394   4.586   1.803 -1.1350  1.8137 -1.2289
  875MOL0     H18069   8.352   4.731   1.891 -0.7560 -0.8419  3.0293
  875MOL0     H18070   8.610   4.745   1.931 -0.6071  0.5037  0.2661
  875MOL0     H18071   8.631   4.621   1.806  1.3355  0.9431  0.2126
  875MOL0     H18072   8.479   4.787   1.659  0.8219  1.6998 -2.4944
  875MOL0     H18073   8.531   4.904   1.783 -0.7219  1.1487 -2.8625
  875MOL0     H18074   8.719   4.723   1.625 -0.7175 -0.2569 -0.5748
  875MOL0     H18075   8.779   4.835   1.739 -1.6668  0.3992  0.4067
  875MOL0     H18076   8.700   5.125   1.670  1.9204  0.5838 -0.5039
  875MOL0     H18077   8.763   5.311   1.501 -3.0029  0.4312  2.0881
  875MOL0     H18078   8.789   5.271   1.335  1.3564 -0.7139 -0.0359
  875MOL0     H18079   8.522   5.335   1.483 -0.5474  0.0531 -1.2154
  875MOL0     H18080   8.540   5.285   1.310  0.0302 -1.9657  0.4925
  875MOL0     H18081   8.511   5.530   1.355  0.7588  1.3403 -0.8376
  875MOL0     H18082   8.652   5.479   1.258 -2.7123 -0.9377 -1.5553
  875MOL0     H18083   8.711   5.515   1.551  3.0433 -1.5605 -0.7675
  875MOL0     H18084   8.653   5.666   1.468 -0.7987  0.2434 -2.5772
  875MOL0     H18085   9.054   5.689   1.331 -0.3637  0.0619  0.4308
  875MOL0     H18086   9.335   5.824   1.473  1.3963  0.7190 -2.5138
  875MOL0     H18087   9.235   5.806   1.325 -2.1654  0.8480  0.0757
  875MOL0     H18088   9.237   5.961   1.407 -3.6740 -0.7767 -0.6503
  875MOL0     H18089   9.138   6.211   1.866  0.9438  0.6793 -1.2641
  875MOL0     H18090   9.297   6.344   2.029  0.2922 -0.5629  2.7060
  875MOL0     H18091   9.654   6.206   2.247 -0.1354  0.0763 -0.3298
  875MOL0     H18092   9.651   6.169   2.080 -0.3904  0.0412 -0.0661
  875MOL0     H18093   9.659   6.408   2.035 -2.0732 -0.5761  0.0653
  875MOL0     H18094   9.657   6.445   2.216 -1.8457 -1.6063  0.8677
  875MOL0     H18095   9.862   6.283   2.071  1.6553  1.3310  0.3147
  875MOL0     H18096   9.862   6.293   2.235  3.0090 -0.3957  0.2562
  875MOL0     H18097   9.975   6.504   2.045  0.6188 -0.8411  0.2910
  875MOL0     H18098   9.873   6.565   2.170 -0.9544 -0.4654  0.2061
  875MOL0     H18099  10.030   6.404   2.323 -1.0895  1.1143 -0.5752
  875MOL0     H18100  10.067   6.568   2.267  0.6469  0.4297 -0.1027
  875MOL0     H18101  10.152   6.322   2.102  1.2428 -0.7507 -0.3147
  875MOL0     H18102  10.214   6.482   2.098  0.4288 -2.1047 -1.0215
  875MOL0     H18103  10.368   6.319   2.216  2.7976  3.2212 -0.6186
  875MOL0     H18104  10.245   6.317   2.357 -0.3528  1.0086 -0.0166
  875MOL0     H18105  10.281   6.566   2.375 -0.9910  0.9282 -1.2819
  875MOL0     H18106  10.384   6.566   2.232 -2.7361  2.4474 -0.2483
  875MOL0     H18107   9.470   5.983   2.158 -0.8798  0.2546  1.2070
  875MOL0     H18108   9.327   5.855   2.002 -0.5659 -0.7047 -2.1015
  875MOL0     H18109   8.947   5.816   1.802  0.3535 -0.7587 -0.1439
  875MOL0     H18110   8.800   5.667   1.682 -0.6879  0.4800 -0.6086
  875MOL0     H18111   7.929   4.259   2.109  1.2110 -1.9294  0.1273
  875MOL0     H18112   7.705   4.203   2.214 -1.3285  0.7881  2.2135
  875MOL0     H18113   7.695   4.083   2.549  0.2085 -1.7863  0.2045
  875MOL0     H18114   7.729   3.941   2.759 -3.2085 -2.0643  2.4609
  875MOL0     H18115   7.636   4.076   3.145  0.2602  0.5904 -1.6201
  875MOL0     H18116   7.478   4.016   3.131  0.3777  1.1061  2.2782
  875MOL0     H18117   7.701   3.924   3.264 -1.1992 -1.6806  1.5722
  875MOL0     H18118   7.644   3.785   3.157 -1.6832  0.7121 -1.4866
  875MOL0     H18119   7.471   3.931   3.350  1.7711 -0.1923  1.1869
  875MOL0     H18120   7.557   3.793   3.386  1.9193  2.8249  0.8007
  875MOL0     H18121   7.357   3.832   3.158  2.4753  1.0583  0.3069
  875MOL0     H18122   7.303   3.769   3.317  0.9539 -3.0209  0.7651
  875MOL0     H18123   7.490   3.424   3.143 -0.0360  1.6538 -3.9960
  875MOL0     H18124   7.503   4.210   2.994 -2.7826  0.0006 -2.1660
  875MOL0     H18125   7.482   4.369   2.802  0.9487 -0.0401  2.4735
  876MOL0     O18126   2.539   7.249  10.764 -0.4261  0.1475  0.0793
  876MOL0     C18127   2.606   7.349  10.771 -0.5931  0.1927  0.1736
  876MOL0     O18128   2.606   7.446  10.682  0.3252 -0.3999  0.8883
  876MOL0     C18129   2.505   7.457  10.598 -0.1445 -1.3469  0.2530
  876MOL0     C18130   2.522   7.555  10.499 -0.6344  0.6960 -0.0309
  876MOL0     C18131   2.418   7.569  10.400 -0.8540 -0.7433 -0.1657
  876MOL0     C18132   2.299   7.500  10.395 -0.2307  0.4718  0.4505
  876MOL0     O18133   2.204   7.508  10.296 -0.1563  0.3127 -0.2004
  876MOL0     C18134   2.068   7.518  10.333  0.4035 -0.2769  0.3245
  876MOL0     C18135   1.991   7.622  10.245 -0.0205  1.1698  0.6875
  876MOL0     C18136   2.032   7.768  10.261 -0.3112 -0.5306 -0.6957
  876MOL0     C18137   1.919   7.872  10.220 -0.0598  0.2038 -0.0169
  876MOL0     C18138   1.965   8.011  10.188 -0.6592 -0.1358  1.1245
  876MOL0     C18139   1.994   8.081  10.326  1.1567 -0.0561  1.0625
  876MOL0     C18140   2.066   8.221  10.328  0.8231  1.1333  0.4036
  876MOL0     C18141   2.198   8.212  10.262  0.9683  0.6373  0.3235
  876MOL0     N18142   2.294   8.111  10.329 -0.5125 -1.0002  0.1077
  876MOL0     C18143   2.331   8.100  10.457 -0.5216 -0.3171 -0.3044
  876MOL0     C18144   2.423   7.998  10.459 -0.1261 -0.8960 -0.6968
  876MOL0     C18145   2.503   7.955  10.578  0.4082 -0.2422 -0.7423
  876MOL0     C18146   2.425   7.931  10.705 -1.1525  0.7964 -0.3764
  876MOL0     C18147   2.348   7.794  10.724  0.9563  0.2874  0.0742
  876MOL0     C18148   2.209   7.787  10.654 -0.4773  0.7306 -0.0764
  876MOL0     O18149   2.100   7.856  10.719  0.2030 -0.6465  0.4458
  876MOL0     C18150   1.973   7.845  10.671 -0.2738 -0.2516  0.0884
  876MOL0     C18151   1.892   7.956  10.652  0.8691 -0.2950  0.1514
  876MOL0     C18152   1.764   7.940  10.597  0.1845 -0.3019 -0.5271
  876MOL0     C18153   1.676   8.065  10.586  0.0472 -0.3513  0.0517
  876MOL0     C18154   1.728   7.812  10.538  0.2386  0.1230 -1.2979
  876MOL0     C18155   1.602   7.787  10.468 -0.0987  0.2825 -0.4120
  876MOL0     O18156   1.606   7.666  10.393  0.6619  0.3907  0.9167
  876MOL0     C18157   1.527   7.662  10.278 -0.0053  0.4324 -0.0279
  876MOL0     C18158   1.588   7.660  10.156 -0.1684  0.3863  0.4322
  876MOL0     C18159   1.503   7.663  10.035  0.0012  0.3620  0.9023
  876MOL0     C18160   1.359   7.664  10.043  1.1532  0.6689  0.6017
  876MOL0     O18161   1.281   7.707   9.943 -0.5545 -0.1441  1.2581
  876MOL0     C18162   1.315   7.657   9.805  0.3921  0.0040  0.4538
  876MOL0     C18163   1.193   7.695   9.728  0.2534 -1.1892 -0.7447
  876MOL0     C18164   1.238   7.701   9.579  0.0526  0.6919  0.3973
  876MOL0     C18165   1.119   7.687   9.492  0.4827  0.0627  0.0591
  876MOL0     C18166   1.168   7.657   9.349  0.4560 -0.6135  0.5890
  876MOL0     C18167   1.044   7.635   9.262  0.0017 -0.1398  0.1146
  876MOL0     C18168   1.087   7.640   9.114  0.6328  0.4217  1.1771
  876MOL0     C18169   0.966   7.662   9.013  0.2555  0.2757  0.1250
  876MOL0    Cl18170   0.879   7.818   9.058 -0.5862 -0.0958 -0.4642
  876MOL0     C18171   1.310   7.657  10.170  0.2479 -0.1613 -0.1629
  876MOL0     C18172   1.383   7.661  10.290  0.5590  0.4174  0.2188
  876MOL0     O18173   1.510   7.868  10.473  0.4996 -0.7855 -0.0523
  876MOL0     C18174   1.804   7.700  10.580 -0.3964  0.6998  1.3765
  876MOL0     C18175   1.925   7.716  10.642 -0.2730  0.4785  0.0502
  876MOL0     N18176   2.424   7.940  10.332  0.3376  1.1876  0.2608
  876MOL0     N18177   2.353   8.011  10.252  1.4827  0.4460  0.6473
  876MOL0     C18178   2.285   7.418  10.506  0.5556  0.3891  0.7024
  876MOL0     C18179   2.377   7.402  10.607 -0.5529 -0.2362  0.3588
  876MOL0     C18180   2.704   7.358  10.882 -0.3694 -0.2244 -0.2666
  876MOL0     C18181   2.702   7.280  11.000 -0.5940 -0.3734  0.2304
  876MOL0     C18182   2.796   7.293  11.099  0.2881  0.1844  1.0146
  876MOL0     C18183   2.899   7.380  11.089  0.3256 -0.5607  0.8392
  876MOL0     O18184   2.987   7.363  11.189 -0.3084  0.0956  0.8672
  876MOL0     C18185   3.096   7.461  11.195 -0.2268  0.6847 -0.5709
  876MOL0     C18186   3.176   7.423  11.332 -0.2014 -0.6563  0.1635
  876MOL0     C18187   3.297   7.513  11.356  0.7500 -0.5304 -1.5535
  876MOL0     C18188   3.363   7.496  11.485  0.2498  0.9047  0.0771
  876MOL0     C18189   3.441   7.367  11.485  0.3927  0.2298 -0.4107
  876MOL0     C18190   3.492   7.261  11.478  0.3058  0.5347 -0.3439
  876MOL0     C18191   2.907   7.451  10.964 -0.9143 -0.4283 -0.8770
  876MOL0     C18192   2.807   7.448  10.866 -0.3039 -0.0790 -0.4846
  876MOL0     H18193   2.602   7.627  10.509  1.2131 -1.0520 -1.4913
  876MOL0     H18194   2.437   7.641  10.320  2.7931 -0.8559  0.4300
  876MOL0     H18195   2.021   7.420  10.320  0.2174 -0.1804  0.2552
  876MOL0     H18196   2.056   7.536  10.440 -2.2383 -0.1592  0.0810
  876MOL0     H18197   1.980   7.605  10.138 -1.8475  1.7545  0.7399
  876MOL0     H18198   1.886   7.623  10.275 -0.8165 -2.2651 -1.4335
  876MOL0     H18199   2.065   7.789  10.363  3.1325  1.6383 -2.0553
  876MOL0     H18200   2.119   7.794  10.199  1.9507  1.3950  2.9120
  876MOL0     H18201   1.881   7.834  10.125  1.1747 -0.5457 -0.2293
  876MOL0     H18202   1.840   7.863  10.295 -0.5756  1.2111 -0.4166
  876MOL0     H18203   2.062   8.001  10.139 -1.3790 -0.1293 -0.3634
  876MOL0     H18204   1.895   8.063  10.122  1.0588 -0.6677 -1.2481
  876MOL0     H18205   1.900   8.095  10.382  1.2676  2.4641  0.7359
  876MOL0     H18206   2.047   8.008  10.389 -0.1313 -0.8826  1.2470
  876MOL0     H18207   2.007   8.298  10.277  0.5048  1.0656  0.6676
  876MOL0     H18208   2.081   8.252  10.432 -0.0961  2.6243  0.1283
  876MOL0     H18209   2.243   8.311  10.267  3.0781 -0.3043  1.4548
  876MOL0     H18210   2.191   8.182  10.157  3.1803  2.6889 -0.4882
  876MOL0     H18211   2.298   8.159  10.542 -0.6510 -2.3424  1.1336
  876MOL0     H18212   2.566   7.868  10.555  1.5392  0.3752 -0.0981
  876MOL0     H18213   2.571   8.040  10.592  0.5464 -0.5865  0.8474
  876MOL0     H18214   2.362   8.018  10.728 -3.6175 -0.4498 -1.9341
  876MOL0     H18215   2.502   7.933  10.782 -0.7664  0.4855 -0.7566
  876MOL0     H18216   2.346   7.770  10.831  0.0817 -1.5791 -0.3262
  876MOL0     H18217   2.407   7.710  10.687 -1.2670 -1.0909 -0.5154
  876MOL0     H18218   2.185   7.680  10.646  0.9009  0.5181 -2.4346
  876MOL0     H18219   2.223   7.809  10.548  1.8853  0.6757  0.1839
  876MOL0     H18220   1.924   8.053  10.689  0.5883 -0.1605  0.0497
  876MOL0     H18221   1.721   8.160  10.619 -0.5301 -0.1010  0.1388
  876MOL0     H18222   1.648   8.072  10.481  1.0692 -1.5836 -0.3282
  876MOL0     H18223   1.590   8.065  10.654 -0.4537  3.4755 -0.3417
  876MOL0     H18224   1.696   7.666  10.147 -0.4217  1.7231 -2.8974
  876MOL0     H18225   1.551   7.687   9.941 -1.0242  1.7823  0.7106
  876MOL0     H18226   1.404   7.705   9.763 -1.8642  1.9209 -2.4555
  876MOL0     H18227   1.323   7.548   9.810 -0.9369 -0.1241  0.2551
  876MOL0     H18228   1.112   7.625   9.751 -1.0959 -0.5220 -3.1348
  876MOL0     H18229   1.166   7.797   9.755 -0.0936 -1.5542  0.3236
  876MOL0     H18230   1.313   7.624   9.556  0.6686  1.4895 -0.2963
  876MOL0     H18231   1.284   7.797   9.556  0.8191 -0.1825 -2.0722
  876MOL0     H18232   1.059   7.601   9.523  0.2606 -0.3963 -1.5160
  876MOL0     H18233   1.054   7.775   9.488  0.0168 -0.3026 -1.3508
  876MOL0     H18234   1.243   7.578   9.339  2.8270  1.3836  1.4228
  876MOL0     H18235   1.221   7.747   9.316  0.2191 -0.2673  1.1467
  876MOL0     H18236   0.993   7.547   9.302 -1.6862  1.0780  0.7724
  876MOL0     H18237   0.983   7.723   9.284 -0.7517  0.0655 -2.4510
  876MOL0     H18238   1.139   7.547   9.087 -1.5763 -0.0072 -2.2109
  876MOL0     H18239   1.161   7.717   9.089  1.7784 -1.0569 -0.2555
  876MOL0     H18240   0.891   7.584   9.030 -0.2502  0.5997 -0.5673
  876MOL0     H18241   0.990   7.649   8.907 -2.5919  2.3211 -0.9030
  876MOL0     H18242   1.206   7.682  10.189  0.6375 -0.4957  2.9252
  876MOL0     H18243   1.325   7.679  10.380  1.8900  0.6125  1.0690
  876MOL0     H18244   1.782   7.596  10.559  3.3611 -0.4467  2.4396
  876MOL0     H18245   1.988   7.628  10.650 -0.2435  0.3475 -1.4356
  876MOL0     H18246   2.190   7.373  10.533 -0.1179  1.6606  0.5121
  876MOL0     H18247   2.350   7.312  10.661 -2.2707 -1.5189 -2.3715
  876MOL0     H18248   2.617   7.212  11.001 -1.0222  0.1290 -0.9007
  876MOL0     H18249   2.789   7.219  11.178  3.0630 -1.9086 -0.5030
  876MOL0     H18250   3.169   7.446  11.115 -0.2783 -2.6140 -0.1247
  876MOL0     H18251   3.053   7.561  11.198 -0.7082  0.5524 -2.1912
  876MOL0     H18252   3.220   7.323  11.320 -0.0096 -0.8380  2.1554
  876MOL0     H18253   3.105   7.419  11.415 -1.8624  1.8095 -1.0173
  876MOL0     H18254   3.260   7.616  11.367  1.3575 -0.5591  1.5056
  876MOL0     H18255   3.376   7.500  11.281  1.6855  0.8839 -0.8589
  876MOL0     H18256   3.297   7.494  11.572  2.9287 -2.2884  2.3183
  876MOL0     H18257   3.434   7.579  11.484 -0.3647  1.4761  1.6262
  876MOL0     H18258   3.547   7.169  11.471 -0.4341  0.1439 -1.1682
  876MOL0     H18259   2.992   7.518  10.959 -0.2799 -1.2352 -1.1541
  876MOL0     H18260   2.812   7.504  10.773 -0.3927 -0.6473 -0.8369
  877MOL0     O18261   3.385   0.521   3.454  0.7667  0.3050  0.2680
  877MOL0     C18262   3.396   0.413   3.393  0.6529  0.2398  0.3145
  877MOL0     O18263   3.360   0.294   3.446  0.1031 -0.0046 -0.3200
  877MOL0     C18264   3.278   0.290   3.560 -0.4039  0.6806  1.2553
  877MOL0     C18265   3.331   0.226   3.678 -0.0972  0.4087  0.3105
  877MOL0     C18266   3.260   0.221   3.800 -0.1879  0.8542 -0.3240
  877MOL0     C18267   3.141   0.286   3.811  0.7679 -1.6370 -0.6551
  877MOL0     O18268   3.060   0.300   3.924 -0.7452 -0.3603 -0.1206
  877MOL0     C18269   3.108   0.259   4.053  0.0964 -0.5025 -0.1568
  877MOL0     C18270   3.220   0.354   4.092  0.3705  0.3256  0.4481
  877MOL0     C18271   3.161   0.489   4.111  0.2214  0.3302 -0.5994
  877MOL0     C18272   3.228   0.577   4.211 -0.8346 -1.1661  0.5417
  877MOL0     C18273   3.143   0.702   4.248 -0.0768 -0.5291 -0.2033
  877MOL0     C18274   3.224   0.809   4.318 -1.6451 -0.7025 -0.5268
  877MOL0     C18275   3.143   0.922   4.375 -0.1850 -0.0349  0.4733
  877MOL0     C18276   3.043   0.871   4.478  0.7889 -0.9562 -0.2690
  877MOL0     N18277   2.976   0.986   4.540  0.2609  0.1089 -0.3967
  877MOL0     C18278   2.847   1.026   4.508 -0.4157 -1.3735  0.5189
  877MOL0     C18279   2.835   1.126   4.592 -0.0374  0.0172 -0.4117
  877MOL0     C18280   2.709   1.209   4.601 -0.6948  0.9256 -0.3799
  877MOL0     C18281   2.658   1.189   4.751 -0.0425  0.7914  0.3982
  877MOL0     C18282   2.544   1.284   4.778 -0.6152 -0.9821  0.1794
  877MOL0     C18283   2.445   1.232   4.895 -0.9021  0.7068 -0.0008
  877MOL0     O18284   2.353   1.139   4.841 -0.2743  0.5660 -0.3185
  877MOL0     C18285   2.244   1.185   4.769  0.2253 -0.5633 -0.1833
  877MOL0     C18286   2.212   1.129   4.651 -0.4050  0.1238  0.5501
  877MOL0     C18287   2.113   1.178   4.568  0.3672  0.2211 -0.0338
  877MOL0     C18288   2.076   1.116   4.442  0.5323 -0.7736  1.0281
  877MOL0     C18289   2.028   1.286   4.617 -0.0555 -0.8752 -0.8740
  877MOL0     C18290   1.921   1.350   4.539  0.0704 -0.8467  0.1045
  877MOL0     O18291   1.888   1.476   4.572  0.2095  0.6905 -0.3299
  877MOL0     C18292   1.774   1.551   4.532  0.1450  0.2905 -0.8072
  877MOL0     C18293   1.792   1.680   4.492 -0.0269 -0.0692  0.1312
  877MOL0     C18294   1.673   1.751   4.458 -0.8750  0.6690 -0.0020
  877MOL0     C18295   1.554   1.695   4.481 -0.0763  0.6508 -0.0536
  877MOL0     O18296   1.452   1.780   4.459  0.7420 -0.3521 -0.4421
  877MOL0     C18297   1.375   1.808   4.580  0.5130 -0.0426 -0.1366
  877MOL0     C18298   1.272   1.916   4.550 -1.1858 -1.3967  0.1649
  877MOL0     C18299   1.152   1.914   4.645 -0.8525 -0.9490 -0.5933
  877MOL0     C18300   1.051   2.018   4.601  0.4559  0.1198 -0.2777
  877MOL0     C18301   0.910   2.019   4.660 -0.3229 -0.2092  1.0969
  877MOL0     C18302   0.813   2.100   4.572  1.0547  0.6215  1.0293
  877MOL0     C18303   0.673   2.107   4.630 -0.5280  0.6905  0.4573
  877MOL0     C18304   0.602   1.966   4.639  0.6513 -0.6001 -0.2191
  877MOL0    Cl18305   0.446   2.009   4.709  0.5465 -0.4413  0.4946
  877MOL0     C18306   1.541   1.550   4.511 -0.0680 -0.0181  0.1974
  877MOL0     C18307   1.657   1.486   4.534  0.0103  0.2953  0.2989
  877MOL0     O18308   1.860   1.287   4.452 -0.2221  0.5907 -0.1151
  877MOL0     C18309   2.058   1.336   4.750 -0.0509  0.8425 -0.6677
  877MOL0     C18310   2.165   1.288   4.825  0.0064 -0.5440  0.1636
  877MOL0     N18311   2.949   1.150   4.665  0.9271  0.0378 -0.1302
  877MOL0     N18312   3.037   1.063   4.632 -0.0197 -0.2619 -0.3151
  877MOL0     C18313   3.086   0.353   3.700  1.2479 -0.0597 -0.2681
  877MOL0     C18314   3.162   0.361   3.577 -0.2864 -0.2276 -0.9837
  877MOL0     C18315   3.466   0.409   3.266 -0.4032 -0.4036 -0.3655
  877MOL0     C18316   3.506   0.531   3.211  0.1489 -1.2637  0.1851
  877MOL0     C18317   3.570   0.544   3.088 -0.2974 -0.3422  0.7739
  877MOL0     C18318   3.623   0.430   3.022  1.2098  0.0995  0.1005
  877MOL0     O18319   3.685   0.454   2.900  0.5147  0.7936  0.1625
  877MOL0     C18320   3.802   0.378   2.870  0.0420  0.7199  0.4946
  877MOL0     C18321   3.908   0.469   2.810 -0.4325 -0.6174 -0.3998
  877MOL0     C18322   3.959   0.580   2.905  0.3159 -0.3005 -0.5256
  877MOL0     C18323   4.052   0.681   2.837  1.3910 -0.4302  0.2889
  877MOL0     C18324   4.188   0.639   2.810 -0.1165 -0.2998  0.1511
  877MOL0     C18325   4.308   0.611   2.785  0.5162 -0.3751  0.2179
  877MOL0     C18326   3.593   0.302   3.080  0.3969 -0.4065  0.2235
  877MOL0     C18327   3.512   0.292   3.197  1.0311 -0.7046  0.2936
  877MOL0     H18328   3.433   0.190   3.667 -0.6922 -1.2075 -0.1071
  877MOL0     H18329   3.297   0.168   3.887 -2.1496  2.3222  1.4998
  877MOL0     H18330   3.026   0.265   4.125  0.9507  3.4400  0.7568
  877MOL0     H18331   3.148   0.158   4.042  2.0098  0.2884 -0.9231
  877MOL0     H18332   3.247   0.329   4.195  0.4270  1.3043  0.6858
  877MOL0     H18333   3.312   0.339   4.035 -0.3864 -1.3006 -0.4068
  877MOL0     H18334   3.159   0.539   4.014 -0.9801  0.0913 -0.7143
  877MOL0     H18335   3.060   0.475   4.151  0.0180  2.5398 -0.2281
  877MOL0     H18336   3.238   0.523   4.306 -0.0565 -0.9928  0.5691
  877MOL0     H18337   3.326   0.605   4.172 -2.2762 -0.3358 -2.8370
  877MOL0     H18338   3.098   0.740   4.156  0.2799  2.3420  0.7149
  877MOL0     H18339   3.057   0.669   4.307 -0.5909  0.0523 -0.6151
  877MOL0     H18340   3.286   0.762   4.394 -2.4849 -0.1951  0.5070
  877MOL0     H18341   3.292   0.856   4.246 -1.9979  0.7045  0.0134
  877MOL0     H18342   3.209   1.003   4.406 -0.1300  2.0150 -4.1475
  877MOL0     H18343   3.083   0.965   4.294  1.3831  2.4436  0.5001
  877MOL0     H18344   3.079   0.806   4.559  0.2903  0.7171  1.3717
  877MOL0     H18345   2.966   0.818   4.422 -2.0230  1.5642  0.9730
  877MOL0     H18346   2.775   0.991   4.435 -0.2331  0.7475 -0.7747
  877MOL0     H18347   2.735   1.315   4.593  1.9915  0.5552  1.6588
  877MOL0     H18348   2.634   1.175   4.530  0.6234 -2.8764 -0.2028
  877MOL0     H18349   2.748   1.212   4.809  0.2709 -0.3291  0.3693
  877MOL0     H18350   2.617   1.088   4.757 -1.3127  1.0347 -2.2796
  877MOL0     H18351   2.490   1.307   4.686  2.8070 -0.2170 -1.8084
  877MOL0     H18352   2.585   1.382   4.805 -2.2474 -0.0610 -0.4962
  877MOL0     H18353   2.392   1.313   4.946  1.8498  0.4902  3.5541
  877MOL0     H18354   2.508   1.180   4.967 -1.1466  0.1161 -0.2047
  877MOL0     H18355   2.269   1.050   4.604  0.5830  0.6848  0.7904
  877MOL0     H18356   1.977   1.069   4.444 -0.7152  1.4838 -1.2962
  877MOL0     H18357   2.073   1.186   4.358  3.1208  0.5940  1.9494
  877MOL0     H18358   2.152   1.042   4.414  1.9399  1.1448 -0.4643
  877MOL0     H18359   1.895   1.716   4.496 -0.1182  0.2041  0.0676
  877MOL0     H18360   1.684   1.855   4.429 -0.3119 -0.1484 -3.0861
  877MOL0     H18361   1.327   1.713   4.605 -3.8685  1.6810 -1.1108
  877MOL0     H18362   1.443   1.837   4.661  1.0955 -0.1209 -0.5847
  877MOL0     H18363   1.313   2.017   4.563 -1.7106 -1.1061 -0.3858
  877MOL0     H18364   1.234   1.896   4.449 -0.4659  0.0759 -0.4349
  877MOL0     H18365   1.185   1.932   4.748  0.2149 -0.5361 -0.9887
  877MOL0     H18366   1.110   1.814   4.634 -0.0571 -1.3683 -0.0182
  877MOL0     H18367   1.084   2.121   4.620 -0.1136 -0.2218  3.0927
  877MOL0     H18368   1.035   2.004   4.493  0.1770 -3.3949  0.1285
  877MOL0     H18369   0.922   2.057   4.762  0.0482 -0.8747  1.3050
  877MOL0     H18370   0.865   1.919   4.666 -2.7372  0.4475 -2.3763
  877MOL0     H18371   0.839   2.202   4.543  1.0117  0.0680 -1.1960
  877MOL0     H18372   0.811   2.062   4.469  1.6967  2.1306  0.4253
  877MOL0     H18373   0.611   2.183   4.582 -0.7192 -0.0275 -0.4706
  877MOL0     H18374   0.686   2.132   4.736  3.1870  0.7045  0.1090
  877MOL0     H18375   0.645   1.902   4.716 -1.5226 -1.6996  0.1641
  877MOL0     H18376   0.598   1.913   4.543  1.3283 -0.9384 -0.0719
  877MOL0     H18377   1.445   1.501   4.524  1.1944 -3.1121 -1.1654
  877MOL0     H18378   1.654   1.380   4.558  3.3783 -0.3105 -1.3361
  877MOL0     H18379   1.990   1.412   4.788  0.0119  0.1872  0.8313
  877MOL0     H18380   2.172   1.324   4.927 -0.3606  1.7928 -0.5620
  877MOL0     H18381   2.986   0.396   3.692  1.1910 -0.0607  0.3936
  877MOL0     H18382   3.122   0.417   3.493 -0.7688 -0.3683 -0.8493
  877MOL0     H18383   3.478   0.621   3.264  1.1299 -0.2622 -0.9377
  877MOL0     H18384   3.603   0.636   3.041  2.2952 -1.6128 -0.1047
  877MOL0     H18385   3.844   0.342   2.964 -1.7198  1.4721  1.6277
  877MOL0     H18386   3.771   0.302   2.798  0.7061 -0.0181  0.9740
  877MOL0     H18387   3.874   0.510   2.714  1.1446  0.6464 -0.4437
  877MOL0     H18388   3.992   0.401   2.797  0.2129  0.4243 -1.9678
  877MOL0     H18389   4.017   0.543   2.990  0.9928 -0.5071 -1.0690
  877MOL0     H18390   3.873   0.636   2.945 -0.8097 -1.1024 -1.7273
  877MOL0     H18391   4.063   0.767   2.904 -2.2889  0.5787 -0.1880
  877MOL0     H18392   4.003   0.724   2.749  1.7472  2.9611  1.5892
  877MOL0     H18393   4.410   0.589   2.764 -0.4093 -2.1796 -3.2116
  877MOL0     H18394   3.605   0.203   3.038 -5.5176 -0.3065 -2.7710
  877MOL0     H18395   3.494   0.195   3.243 -1.4913  0.5293  2.1511
  878MOL0     O18396   7.654   0.132   2.339 -0.6994 -0.0203 -0.1816
  878MOL0     C18397   7.643   0.067   2.437  1.0537  0.3692  0.0008
  878MOL0     O18398   7.545   0.082   2.530  0.8561 -0.2438  0.7548
  878MOL0     C18399   7.455   0.177   2.535  0.0467  0.4825  0.1476
  878MOL0     C18400   7.324   0.148   2.585  0.2305  0.0097 -0.2152
  878MOL0     C18401   7.226   0.255   2.588 -1.1648  0.1465 -0.6473
  878MOL0     C18402   7.254   0.383   2.550 -0.0084  0.7295  0.4676
  878MOL0     O18403   7.151   0.473   2.567 -0.1110  0.1278 -0.2011
  878MOL0     C18404   7.117   0.550   2.451 -0.1308 -0.1873  0.5554
  878MOL0     C18405   7.009   0.665   2.478  0.3609 -0.5346 -0.2836
  878MOL0     C18406   7.040   0.751   2.610 -0.4169  1.0894  0.4992
  878MOL0     C18407   6.938   0.852   2.637  0.7315  0.0523  0.0509
  878MOL0     C18408   6.983   0.944   2.764 -0.4270  0.2311  1.0373
  878MOL0     C18409   7.010   0.859   2.888  0.0809  0.1527  0.3856
  878MOL0     C18410   7.039   0.950   3.006  0.7376 -1.1633 -0.1517
  878MOL0     C18411   7.103   0.860   3.120  0.4204  0.4775  0.6556
  878MOL0     N18412   7.112   0.942   3.244 -0.3235  0.6193  0.3710
  878MOL0     C18413   7.011   1.010   3.307  0.2834  0.2790 -1.3892
  878MOL0     C18414   7.074   1.071   3.410  0.1617 -0.5552  0.1239
  878MOL0     C18415   7.002   1.151   3.505  1.2408 -0.9150 -0.0100
  878MOL0     C18416   6.949   1.282   3.449  0.2308  1.3319  0.1404
  878MOL0     C18417   6.802   1.319   3.480  0.1933 -0.2905 -0.4244
  878MOL0     C18418   6.803   1.471   3.461  0.2904 -0.2591 -0.1246
  878MOL0     O18419   6.664   1.519   3.486 -0.2869 -0.5680  0.8114
  878MOL0     C18420   6.625   1.642   3.433  0.5404 -0.7524 -0.0673
  878MOL0     C18421   6.487   1.679   3.445 -0.1056 -0.4676  0.6128
  878MOL0     C18422   6.445   1.817   3.441  0.2639  0.3558  0.0897
  878MOL0     C18423   6.304   1.848   3.467 -0.3240 -0.2317 -0.1502
  878MOL0     C18424   6.547   1.905   3.389 -0.1661  0.9961 -0.4646
  878MOL0     C18425   6.518   2.054   3.364  0.5014  0.6953  0.4798
  878MOL0     O18426   6.399   2.114   3.415  0.0447  0.2133 -0.0458
  878MOL0     C18427   6.361   2.242   3.365  0.0511 -0.3420  0.3286
  878MOL0     C18428   6.261   2.309   3.435  0.2139  0.3204  0.2273
  878MOL0     C18429   6.194   2.416   3.374  0.0573 -0.4779 -0.7961
  878MOL0     C18430   6.232   2.471   3.253 -0.2172  0.8674 -0.1148
  878MOL0     O18431   6.169   2.574   3.189 -0.0539 -0.5676  0.1215
  878MOL0     C18432   6.147   2.685   3.281 -0.0252 -0.6918  0.0096
  878MOL0     C18433   5.993   2.707   3.284  0.5216  0.0363 -0.6531
  878MOL0     C18434   5.935   2.803   3.403 -1.1846  1.1556  0.1967
  878MOL0     C18435   5.815   2.881   3.346  0.5918 -0.2008 -0.4656
  878MOL0     C18436   5.723   2.931   3.467 -0.2546  0.1702  0.0602
  878MOL0     C18437   5.574   2.953   3.429  0.6022 -0.2865  0.8856
  878MOL0     C18438   5.545   3.037   3.301  0.2454  0.4169  0.1096
  878MOL0     C18439   5.403   3.091   3.299 -0.0277  0.3261 -0.1611
  878MOL0    Cl18440   5.293   2.955   3.283  0.5245 -0.4208 -0.6913
  878MOL0     C18441   6.342   2.406   3.186  0.0355 -0.2183 -1.1446
  878MOL0     C18442   6.393   2.285   3.236 -0.6596  0.3695  0.0916
  878MOL0     O18443   6.614   2.112   3.323  0.6392  0.3253 -0.0997
  878MOL0     C18444   6.679   1.863   3.367  0.6638 -0.3962  0.1465
  878MOL0     C18445   6.721   1.738   3.400  0.4792 -0.7245 -0.0851
  878MOL0     N18446   7.209   1.060   3.401  0.3239  0.0711  0.2171
  878MOL0     N18447   7.228   0.976   3.303 -0.7774  0.4490 -0.0494
  878MOL0     C18448   7.386   0.413   2.508  0.0635  0.6051 -0.1113
  878MOL0     C18449   7.478   0.313   2.488 -0.1450  1.2254 -0.0014
  878MOL0     C18450   7.738  -0.046   2.452 -0.7225  0.0303  0.9749
  878MOL0     C18451   7.871  -0.033   2.394  0.2494  1.6448  0.3957
  878MOL0     C18452   7.968  -0.127   2.414  0.0404 -0.4568 -0.3354
  878MOL0     C18453   7.943  -0.245   2.483 -0.2836 -0.5753 -0.6091
  878MOL0     O18454   8.058  -0.310   2.519  0.2369  0.3502 -1.0732
  878MOL0     C18455   8.053  -0.421   2.608 -0.4226  0.3908 -0.6913
  878MOL0     C18456   8.200  -0.463   2.621 -0.1234  0.2873 -0.5209
  878MOL0     C18457   8.210  -0.577   2.718  0.5824  0.2087 -0.0031
  878MOL0     C18458   8.203  -0.710   2.643  0.1376 -0.7420  0.5734
  878MOL0     C18459   8.065  -0.749   2.635 -0.3975  1.3165 -0.7231
  878MOL0     C18460   7.951  -0.790   2.642  0.5273 -0.0545 -0.5229
  878MOL0     C18461   7.812  -0.267   2.536 -0.1393 -0.4583  0.2352
  878MOL0     C18462   7.712  -0.164   2.519 -0.0879 -0.8197  0.6547
  878MOL0     H18463   7.284   0.050   2.610 -1.7064  0.2236 -2.1712
  878MOL0     H18464   7.124   0.236   2.621 -0.5342  0.9512  1.9472
  878MOL0     H18465   7.213   0.600   2.433  1.8098 -2.8720  2.5878
  878MOL0     H18466   7.091   0.495   2.360 -0.8656 -3.3167  2.5019
  878MOL0     H18467   7.001   0.740   2.399 -4.5450  1.8258  2.0150
  878MOL0     H18468   6.910   0.619   2.481 -0.8872  1.9538 -1.2669
  878MOL0     H18469   7.043   0.681   2.693  1.5751 -0.9451 -1.1566
  878MOL0     H18470   7.135   0.805   2.602  0.9761 -1.3420 -0.4279
  878MOL0     H18471   6.923   0.912   2.548  1.5178  0.7156  0.3499
  878MOL0     H18472   6.840   0.805   2.649 -1.0879  2.1666 -4.4975
  878MOL0     H18473   7.078   0.988   2.733 -0.7755 -0.2462 -0.8540
  878MOL0     H18474   6.904   1.018   2.779 -1.2949 -0.5584  0.5163
  878MOL0     H18475   6.920   0.802   2.915  0.2739 -1.0305 -1.2834
  878MOL0     H18476   7.092   0.787   2.881  0.2602  0.0850  2.5077
  878MOL0     H18477   7.103   1.036   2.985 -1.1205  0.2010 -0.4070
  878MOL0     H18478   6.943   0.990   3.037  0.8743 -0.7548 -0.2529
  878MOL0     H18479   7.197   0.825   3.077 -1.1392  0.3410 -3.0900
  878MOL0     H18480   7.042   0.777   3.158  0.6773  1.3560  3.1918
  878MOL0     H18481   6.904   1.014   3.286 -0.3123 -0.6754  1.0196
  878MOL0     H18482   6.914   1.095   3.538  0.4224  0.0047 -0.5680
  878MOL0     H18483   7.066   1.162   3.593  0.5958  1.8053  0.1938
  878MOL0     H18484   6.968   1.284   3.341  2.5356  1.4915  0.4931
  878MOL0     H18485   7.020   1.361   3.478  2.6394 -0.9967  0.9377
  878MOL0     H18486   6.788   1.303   3.587  1.3327 -0.2821 -0.2708
  878MOL0     H18487   6.725   1.273   3.417  0.2568  1.7481 -2.0914
  878MOL0     H18488   6.833   1.501   3.360 -0.6143 -2.0758 -0.9765
  878MOL0     H18489   6.875   1.521   3.527  0.0583  0.4342 -0.3859
  878MOL0     H18490   6.417   1.605   3.482 -1.6440  1.0709  0.9098
  878MOL0     H18491   6.294   1.911   3.556 -0.3629 -2.5301  1.5795
  878MOL0     H18492   6.256   1.903   3.385 -1.2673 -0.5433  0.1719
  878MOL0     H18493   6.244   1.762   3.498  0.7283 -0.2994  1.8643
  878MOL0     H18494   6.222   2.265   3.526 -0.1891  0.3335  0.0625
  878MOL0     H18495   6.103   2.454   3.421  0.9747  2.5221 -1.2532
  878MOL0     H18496   6.180   2.681   3.385  3.1155 -0.9904 -0.9067
  878MOL0     H18497   6.181   2.780   3.240  1.5849  0.5508  3.8023
  878MOL0     H18498   5.948   2.749   3.193 -1.2388  0.0571  0.1807
  878MOL0     H18499   5.951   2.607   3.298  2.1523 -0.2678  3.1772
  878MOL0     H18500   6.023   2.861   3.431  1.1751 -2.0705  0.0730
  878MOL0     H18501   5.913   2.751   3.497  4.3561 -0.6172  0.8489
  878MOL0     H18502   5.854   2.967   3.291 -1.7110  1.4173  0.2399
  878MOL0     H18503   5.754   2.826   3.274 -0.5879  3.4861 -2.5288
  878MOL0     H18504   5.766   3.026   3.498  2.2308 -1.1625  0.9942
  878MOL0     H18505   5.728   2.873   3.560  3.6812  1.3143  0.7354
  878MOL0     H18506   5.517   2.860   3.437  0.0966  0.1480  2.7161
  878MOL0     H18507   5.537   3.010   3.515 -0.9292  1.3204 -0.7669
  878MOL0     H18508   5.576   2.983   3.211  0.9106 -1.2360  1.2745
  878MOL0     H18509   5.611   3.123   3.311  0.6282 -0.0287  1.8348
  878MOL0     H18510   5.385   3.157   3.213 -0.0198  0.2201 -0.2447
  878MOL0     H18511   5.388   3.149   3.390  1.1958  3.2033 -1.6460
  878MOL0     H18512   6.378   2.448   3.093  0.7793 -1.2567 -1.3470
  878MOL0     H18513   6.464   2.231   3.174  2.3387  1.5438  2.2174
  878MOL0     H18514   6.759   1.928   3.332  2.7597 -1.0646  3.3046
  878MOL0     H18515   6.827   1.721   3.388  0.8261  0.8383  0.5669
  878MOL0     H18516   7.413   0.515   2.481 -0.9808  1.8615  3.1233
  878MOL0     H18517   7.571   0.344   2.441  1.1119 -1.2689  0.6702
  878MOL0     H18518   7.896   0.064   2.353  2.7894  0.9085  0.0023
  878MOL0     H18519   8.069  -0.098   2.387  0.3926 -2.5634 -1.5568
  878MOL0     H18520   8.012  -0.394   2.706  0.4219 -1.5474  0.2257
  878MOL0     H18521   7.989  -0.499   2.565 -1.2029  1.1526 -0.9475
  878MOL0     H18522   8.254  -0.389   2.681  1.1906 -2.4938  1.9347
  878MOL0     H18523   8.256  -0.469   2.528  2.2845 -0.0349  0.8596
  878MOL0     H18524   8.142  -0.575   2.804 -0.9950 -3.1074 -1.0268
  878MOL0     H18525   8.312  -0.565   2.756 -0.0708  0.0260  1.9419
  878MOL0     H18526   8.263  -0.792   2.683  0.8418 -0.1035  0.8460
  878MOL0     H18527   8.232  -0.694   2.539 -1.5685 -1.9651 -0.1358
  878MOL0     H18528   7.853  -0.826   2.619  1.0685 -0.2743 -2.7290
  878MOL0     H18529   7.802  -0.351   2.604 -3.7412  0.1144  0.5866
  878MOL0     H18530   7.616  -0.182   2.566 -0.4560  0.1259  0.2864
  879MOL0     O18531   8.267   5.860   8.123  0.4574  0.2558 -0.2375
  879MOL0     C18532   8.307   5.773   8.201 -0.2406 -0.1827 -0.9171
  879MOL0     O18533   8.241   5.715   8.306 -0.0601 -0.2613 -0.1256
  879MOL0     C18534   8.128   5.773   8.345 -0.1224  0.3394  0.0556
  879MOL0     C18535   8.121   5.834   8.469 -1.8431 -1.2951  0.1939
  879MOL0     C18536   8.005   5.911   8.490  0.5884  0.5557 -0.4163
  879MOL0     C18537   7.896   5.911   8.405  0.9267  0.0892 -0.3657
  879MOL0     O18538   7.791   5.999   8.459 -1.0044 -0.6632  0.7985
  879MOL0     C18539   7.704   6.051   8.355  0.1097 -0.2789  0.0175
  879MOL0     C18540   7.638   6.173   8.406  0.0825  0.2172 -0.2877
  879MOL0     C18541   7.739   6.290   8.436  0.1266 -0.0772  0.5575
  879MOL0     C18542   7.696   6.402   8.530  0.4595  0.1753 -0.9556
  879MOL0     C18543   7.808   6.502   8.561  0.0201 -0.1810  1.0584
  879MOL0     C18544   7.769   6.605   8.673  0.2053 -0.4329  1.0171
  879MOL0     C18545   7.626   6.673   8.654 -0.0121 -0.2900  0.0966
  879MOL0     C18546   7.620   6.781   8.773 -0.3356 -0.0309  1.1653
  879MOL0     N18547   7.481   6.808   8.814  0.5372  0.1120 -0.8821
  879MOL0     C18548   7.403   6.915   8.790  0.5378  0.4215  0.5703
  879MOL0     C18549   7.293   6.897   8.873  1.0469 -0.3975 -0.3915
  879MOL0     C18550   7.173   6.993   8.880  0.8238 -0.4024 -0.4901
  879MOL0     C18551   7.086   6.994   8.750 -0.5725 -0.6951  0.5028
  879MOL0     C18552   6.990   6.882   8.735  0.3677  0.5921 -0.5366
  879MOL0     C18553   6.907   6.883   8.607 -0.6212  0.5157 -0.1775
  879MOL0     O18554   6.821   6.994   8.584  0.6487 -0.0560 -0.1132
  879MOL0     C18555   6.750   6.987   8.464  0.0716  0.4886  0.3199
  879MOL0     C18556   6.746   6.881   8.369  0.3597 -0.6303 -0.1684
  879MOL0     C18557   6.657   6.879   8.266  0.3009  0.3019  0.1752
  879MOL0     C18558   6.661   6.765   8.177 -0.7011  0.1832 -0.5344
  879MOL0     C18559   6.570   6.981   8.239  0.3298 -0.3334 -0.0389
  879MOL0     C18560   6.487   7.001   8.118  0.3436 -0.3692 -1.4240
  879MOL0     O18561   6.369   7.074   8.136  0.2589 -0.0155 -0.0872
  879MOL0     C18562   6.299   7.116   8.028 -0.0393  0.2333  0.3136
  879MOL0     C18563   6.208   7.032   7.953  0.3333  0.7155  1.0942
  879MOL0     C18564   6.144   7.071   7.837  0.3026  0.4242  0.4073
  879MOL0     C18565   6.162   7.200   7.783  0.4917 -1.0256  0.0166
  879MOL0     O18566   6.081   7.244   7.685  0.0846 -0.0022  1.0700
  879MOL0     C18567   6.074   7.152   7.573  0.0499 -0.8533  0.0570
  879MOL0     C18568   6.036   7.222   7.432 -0.1450 -0.4188 -0.6789
  879MOL0     C18569   5.884   7.266   7.445 -0.5882  0.4456  1.0801
  879MOL0     C18570   5.850   7.369   7.331 -0.1443  0.5120 -0.4607
  879MOL0     C18571   5.703   7.348   7.291 -0.6456  0.2185  0.4432
  879MOL0     C18572   5.668   7.458   7.198  0.0527 -1.0434  0.1935
  879MOL0     C18573   5.556   7.418   7.100 -0.1038 -0.5175  1.1606
  879MOL0     C18574   5.423   7.376   7.170  0.3422 -0.8446  0.7874
  879MOL0    Cl18575   5.300   7.319   7.040  0.2453 -0.1930  0.0005
  879MOL0     C18576   6.242   7.291   7.860 -0.6157  0.4775  0.0505
  879MOL0     C18577   6.311   7.246   7.977  0.3405 -0.3331  0.2160
  879MOL0     O18578   6.512   6.935   8.016  0.1484 -0.5157  0.1413
  879MOL0     C18579   6.577   7.090   8.325  0.7074 -0.0919  0.6232
  879MOL0     C18580   6.661   7.087   8.436 -0.6171 -0.7234  0.1857
  879MOL0     N18581   7.312   6.781   8.937  0.7346  0.4638 -0.4083
  879MOL0     N18582   7.425   6.740   8.918 -0.0363  0.0763 -0.0271
  879MOL0     C18583   7.891   5.841   8.282  0.1052 -0.2148 -0.6114
  879MOL0     C18584   8.015   5.774   8.259  0.7761 -0.5737  0.1772
  879MOL0     C18585   8.450   5.727   8.174 -0.3592 -0.3296  0.4079
  879MOL0     C18586   8.493   5.735   8.043 -1.2844  0.2355  0.4134
  879MOL0     C18587   8.624   5.686   8.006  0.4656 -1.2112  0.7490
  879MOL0     C18588   8.716   5.637   8.105  0.7402  0.4866  0.3453
  879MOL0     O18589   8.840   5.596   8.065 -0.2831 -0.1371 -0.1357
  879MOL0     C18590   8.931   5.558   8.170  0.2739  0.3303  0.2539
  879MOL0     C18591   9.074   5.519   8.120  0.7552  0.0153 -0.5978
  879MOL0     C18592   9.171   5.627   8.085 -0.2035 -0.2186 -0.4269
  879MOL0     C18593   9.317   5.581   8.053 -0.7764 -0.2772 -0.2236
  879MOL0     C18594   9.396   5.688   8.001 -0.3070 -0.3629 -0.0482
  879MOL0     C18595   9.439   5.791   7.961 -0.2099 -0.2909 -0.0893
  879MOL0     C18596   8.670   5.632   8.234 -0.5728  0.0915 -0.2817
  879MOL0     C18597   8.547   5.680   8.265  1.0416 -0.3154  0.8927
  879MOL0     H18598   8.203   5.815   8.538  1.0265 -1.0049 -2.8606
  879MOL0     H18599   7.991   5.953   8.589 -3.5699  0.9072 -0.9974
  879MOL0     H18600   7.751   6.065   8.258  2.2156 -1.5694  0.7855
  879MOL0     H18601   7.628   5.980   8.321 -0.3284  0.5260 -0.7071
  879MOL0     H18602   7.579   6.203   8.319 -1.4450  0.2529  0.7345
  879MOL0     H18603   7.583   6.141   8.495  1.4340  0.0912  0.5205
  879MOL0     H18604   7.827   6.243   8.479  0.0121 -1.1456 -0.3290
  879MOL0     H18605   7.778   6.335   8.344  1.2042  0.2611  1.1652
  879MOL0     H18606   7.616   6.451   8.474 -0.7519 -0.3155  0.2797
  879MOL0     H18607   7.657   6.374   8.628 -2.3931 -0.1077 -2.0581
  879MOL0     H18608   7.905   6.457   8.584  0.2576 -0.9101 -1.1086
  879MOL0     H18609   7.821   6.562   8.470 -3.0732 -0.6936  0.1630
  879MOL0     H18610   7.772   6.558   8.772 -2.0522 -3.2594 -0.1126
  879MOL0     H18611   7.847   6.682   8.669 -0.8468  0.5960 -0.8967
  879MOL0     H18612   7.603   6.719   8.557 -1.1800 -1.1071 -0.0329
  879MOL0     H18613   7.551   6.595   8.671 -0.0285 -0.5596 -1.1103
  879MOL0     H18614   7.661   6.880   8.755 -2.6573  0.8493  0.2364
  879MOL0     H18615   7.668   6.739   8.861  0.6595  1.7064  1.4819
  879MOL0     H18616   7.416   6.987   8.710  0.1878  1.1337  1.1495
  879MOL0     H18617   7.117   6.977   8.972  0.8462  3.2997  0.3202
  879MOL0     H18618   7.218   7.091   8.898 -0.0498  0.0272 -0.5797
  879MOL0     H18619   7.158   6.987   8.667 -1.1420 -1.5626  0.0653
  879MOL0     H18620   7.039   7.092   8.754 -1.6264 -1.1956  0.7048
  879MOL0     H18621   6.919   6.878   8.817  0.4412 -0.0554 -0.5021
  879MOL0     H18622   7.044   6.787   8.733  1.1319  0.7918  3.3445
  879MOL0     H18623   6.850   6.791   8.624 -0.2172  0.6277  2.0764
  879MOL0     H18624   6.977   6.852   8.529  0.1765 -0.8136  1.0293
  879MOL0     H18625   6.807   6.793   8.384  1.2872  0.2577  1.5406
  879MOL0     H18626   6.741   6.693   8.197  0.3788  0.1279 -4.3137
  879MOL0     H18627   6.567   6.711   8.167 -0.6459  0.0457 -0.3239
  879MOL0     H18628   6.697   6.795   8.078  1.3622  1.7260  0.5953
  879MOL0     H18629   6.188   6.932   7.992 -0.2472  0.2896 -0.2364
  879MOL0     H18630   6.064   7.019   7.786  1.5864 -2.7138  1.3688
  879MOL0     H18631   6.169   7.100   7.555 -0.3487 -0.7068 -3.1155
  879MOL0     H18632   5.986   7.088   7.588 -3.1430  2.9376 -0.8376
  879MOL0     H18633   6.100   7.304   7.398  0.9745 -0.9566  0.0775
  879MOL0     H18634   6.054   7.145   7.356 -2.5969  0.6645 -2.4826
  879MOL0     H18635   5.868   7.315   7.541  0.3943  0.4209  1.2618
  879MOL0     H18636   5.816   7.181   7.438 -2.6637  1.8136  3.0312
  879MOL0     H18637   5.872   7.473   7.356 -0.8347  1.4995 -3.5398
  879MOL0     H18638   5.913   7.342   7.246  0.2858  0.0588 -0.0025
  879MOL0     H18639   5.637   7.361   7.377 -0.2443  0.2404  0.7504
  879MOL0     H18640   5.686   7.243   7.268 -1.4499  0.5269 -0.4644
  879MOL0     H18641   5.644   7.542   7.264 -0.7003 -2.9074  2.4190
  879MOL0     H18642   5.749   7.490   7.130  0.6261 -2.6881  0.0573
  879MOL0     H18643   5.585   7.337   7.033 -3.1088 -0.2156 -0.6909
  879MOL0     H18644   5.525   7.498   7.032  1.1522 -0.2008  0.9510
  879MOL0     H18645   5.381   7.452   7.237 -2.1993 -1.4758  0.0469
  879MOL0     H18646   5.435   7.291   7.237  2.4328 -1.5282 -0.3841
  879MOL0     H18647   6.268   7.393   7.832 -1.0650  1.4568  2.9395
  879MOL0     H18648   6.383   7.319   8.014  2.7488 -1.7429 -1.3979
  879MOL0     H18649   6.525   7.182   8.299  1.2397 -0.4298 -1.9348
  879MOL0     H18650   6.664   7.181   8.491 -1.2112 -1.3462  1.3242
  879MOL0     H18651   7.820   5.845   8.200  0.5589 -1.9779 -1.1236
  879MOL0     H18652   8.021   5.717   8.167  0.7371  1.5806 -1.2032
  879MOL0     H18653   8.418   5.767   7.971 -2.0325  0.0249  1.0835
  879MOL0     H18654   8.655   5.695   7.902  0.0482  2.4744  0.8316
  879MOL0     H18655   8.936   5.642   8.240 -4.0575  1.2987 -0.2765
  879MOL0     H18656   8.890   5.476   8.229  0.0118 -0.2674 -0.7228
  879MOL0     H18657   9.058   5.461   8.028  1.4229  0.3365 -0.9207
  879MOL0     H18658   9.123   5.459   8.197 -0.0733  3.1040  2.5888
  879MOL0     H18659   9.178   5.706   8.160 -3.6503  0.2606 -0.4570
  879MOL0     H18660   9.149   5.676   7.989  1.2223 -0.3647 -0.8565
  879MOL0     H18661   9.319   5.496   7.985 -0.1137 -1.4698  1.2504
  879MOL0     H18662   9.354   5.552   8.152 -2.5322 -0.2561  0.4773
  879MOL0     H18663   9.485   5.875   7.914  1.7654 -0.7952  0.8223
  879MOL0     H18664   8.728   5.581   8.310 -2.0265  0.5801  1.2163
  879MOL0     H18665   8.514   5.673   8.368 -1.1643 -3.5351  0.1071
  880MOL0     O18666   2.011   0.354   0.532  0.5650 -0.8281 -0.6087
  880MOL0     C18667   2.048   0.433   0.441 -0.2501 -0.3872 -0.4208
  880MOL0     O18668   2.035   0.404   0.312 -0.9408 -0.4713 -0.6411
  880MOL0     C18669   1.960   0.304   0.254  0.0502  0.0748 -0.4287
  880MOL0     C18670   1.887   0.198   0.312  0.3940 -0.0716  0.3194
  880MOL0     C18671   1.788   0.120   0.247  0.5889  0.2989 -0.6791
  880MOL0     C18672   1.772   0.133   0.105  0.5142 -0.6398  0.3665
  880MOL0     O18673   1.684   0.058   0.033  1.0383  1.0798 -0.3892
  880MOL0     C18674   1.591   0.123  -0.055  0.1793  0.4902 -0.4462
  880MOL0     C18675   1.463   0.041  -0.034  0.0188 -1.1426  0.1357
  880MOL0     C18676   1.394   0.061   0.097  0.5159 -0.9427  0.0553
  880MOL0     C18677   1.301   0.187   0.084 -0.0220 -0.2875  1.1500
  880MOL0     C18678   1.238   0.228   0.217 -0.1185  0.1291  0.8823
  880MOL0     C18679   1.148   0.339   0.192 -0.5462  0.0689 -0.5578
  880MOL0     C18680   1.047   0.354   0.303  0.5204  0.4255  0.2599
  880MOL0     C18681   0.964   0.478   0.279 -0.7118 -0.0390 -0.2330
  880MOL0     N18682   0.859   0.480   0.374  0.1717  0.4618  1.2140
  880MOL0     C18683   0.736   0.419   0.347  0.2328 -0.6632  0.1595
  880MOL0     C18684   0.663   0.451   0.454 -0.3655 -0.1785  0.0302
  880MOL0     C18685   0.534   0.404   0.503 -0.2184 -0.0490  0.2351
  880MOL0     C18686   0.424   0.407   0.394 -0.1540 -0.5925 -0.0512
  880MOL0     C18687   0.314   0.310   0.422  0.1749 -0.4220  0.4345
  880MOL0     C18688   0.184   0.322   0.338  0.2259  0.4867  0.0084
  880MOL0     O18689   0.108   0.443   0.365  0.1236  0.2844 -0.2090
  880MOL0     C18690  -0.032   0.445   0.349 -0.4715  0.3917 -0.4016
  880MOL0     C18691  -0.118   0.343   0.391 -0.7363  0.1874  0.8488
  880MOL0     C18692  -0.258   0.358   0.398 -0.0244 -0.3300  0.3515
  880MOL0     C18693  -0.323   0.237   0.455 -0.5588  0.8610  0.1148
  880MOL0     C18694  -0.320   0.481   0.355  0.5634 -0.0975  0.5079
  880MOL0     C18695  -0.460   0.523   0.379 -0.0160 -0.5000 -0.0950
  880MOL0     O18696  -0.519   0.595   0.283  0.0126  0.9911  0.2590
  880MOL0     C18697  -0.655   0.622   0.289  0.3776 -0.2226  1.6253
  880MOL0     C18698  -0.695   0.746   0.244  0.0590  0.0259  0.2508
  880MOL0     C18699  -0.838   0.784   0.259 -0.0229  0.3892  0.9111
  880MOL0     C18700  -0.932   0.696   0.316 -0.3276  0.1985 -0.0500
  880MOL0     O18701  -1.061   0.742   0.335  0.8062 -1.1948  0.4826
  880MOL0     C18702  -1.158   0.648   0.383  0.2660 -0.3519 -1.0074
  880MOL0     C18703  -1.298   0.690   0.386 -0.2404  0.4728  0.9512
  880MOL0     C18704  -1.397   0.579   0.439  0.5111 -0.1847 -0.0516
  880MOL0     C18705  -1.542   0.604   0.384 -0.1337  1.4597  0.5013
  880MOL0     C18706  -1.636   0.494   0.429  0.0200 -0.3654 -0.7525
  880MOL0     C18707  -1.726   0.539   0.552 -0.8265  0.2007 -0.1706
  880MOL0     C18708  -1.832   0.645   0.524  0.5862  0.0983  0.1932
  880MOL0     C18709  -1.939   0.647   0.630 -0.2443  0.1485  0.5989
  880MOL0    Cl18710  -1.891   0.764   0.752 -0.2098  0.0087  0.3235
  880MOL0     C18711  -0.888   0.570   0.348 -0.3704 -0.5705 -0.5668
  880MOL0     C18712  -0.756   0.539   0.327  0.1728  1.3645  0.4331
  880MOL0     O18713  -0.511   0.492   0.487  0.0606 -0.1952  0.0366
  880MOL0     C18714  -0.228   0.571   0.299 -0.0837 -0.4798  0.3767
  880MOL0     C18715  -0.091   0.558   0.300  0.4398  0.5228  0.7596
  880MOL0     N18716   0.743   0.514   0.549  0.3239  0.5818 -0.0412
  880MOL0     N18717   0.852   0.547   0.494  0.1048  0.3469 -0.0715
  880MOL0     C18718   1.844   0.234   0.045 -0.1552  0.0140  0.2878
  880MOL0     C18719   1.934   0.319   0.113  0.0379  0.4481  0.6696
  880MOL0     C18720   2.146   0.531   0.476 -0.9384 -0.0753 -0.3973
  880MOL0     C18721   2.262   0.535   0.400 -0.4586 -0.8039  0.0021
  880MOL0     C18722   2.357   0.629   0.411  0.2475 -0.5474 -0.3029
  880MOL0     C18723   2.341   0.727   0.523 -0.5076  0.1818  0.9908
  880MOL0     O18724   2.440   0.819   0.542  1.0172 -0.2861  0.2870
  880MOL0     C18725   2.454   0.893   0.659 -0.1189  0.5280 -0.1825
  880MOL0     C18726   2.599   0.925   0.675  0.1538  0.0460  0.7205
  880MOL0     C18727   2.654   1.042   0.582  0.2286  0.3455 -0.1370
  880MOL0     C18728   2.617   1.025   0.426 -1.1489  0.4742 -0.5168
  880MOL0     C18729   2.689   0.911   0.361 -0.2663  0.4751  0.1369
  880MOL0     C18730   2.742   0.811   0.312  0.2124 -0.1414 -0.8903
  880MOL0     C18731   2.217   0.724   0.601 -0.4417 -0.7624 -0.0049
  880MOL0     C18732   2.118   0.623   0.582 -0.1132 -0.2231 -0.9259
  880MOL0     H18733   1.899   0.170   0.417 -1.0180  0.6442  0.6924
  880MOL0     H18734   1.731   0.045   0.301  0.6995  1.4289  1.0877
  880MOL0     H18735   1.576   0.228  -0.027  2.9236  1.5862 -2.6703
  880MOL0     H18736   1.630   0.118  -0.156 -0.1811 -1.6009 -0.5359
  880MOL0     H18737   1.401   0.059  -0.122  1.6693 -0.8244 -0.9976
  880MOL0     H18738   1.491  -0.065  -0.040 -1.5280 -1.5583 -0.2176
  880MOL0     H18739   1.330  -0.023   0.125  1.0163 -0.4371  3.0848
  880MOL0     H18740   1.465   0.077   0.179 -3.3235 -0.2523  3.5927
  880MOL0     H18741   1.371   0.265   0.052  2.7081 -3.1793 -0.5332
  880MOL0     H18742   1.226   0.168   0.007 -1.5152  1.0570  2.2294
  880MOL0     H18743   1.180   0.144   0.256  0.1644 -2.1296 -3.1086
  880MOL0     H18744   1.310   0.261   0.293 -0.3562  1.1968  0.6603
  880MOL0     H18745   1.198   0.433   0.170 -1.1027  0.7465  0.9988
  880MOL0     H18746   1.096   0.314   0.098 -0.2698 -1.6701 -0.2784
  880MOL0     H18747   0.985   0.264   0.300  1.6588 -0.3639 -0.4732
  880MOL0     H18748   1.095   0.349   0.401 -0.7012 -0.1432  0.8452
  880MOL0     H18749   0.920   0.472   0.179  0.6420  0.8888 -0.9067
  880MOL0     H18750   1.031   0.564   0.279  0.4242 -0.8426  2.0780
  880MOL0     H18751   0.707   0.354   0.265 -0.7464  0.0901 -0.1144
  880MOL0     H18752   0.535   0.299   0.535  0.4791 -1.1784 -3.0745
  880MOL0     H18753   0.501   0.474   0.581  0.4362 -0.0302  0.4941
  880MOL0     H18754   0.467   0.393   0.295  0.4278 -2.7018  0.4618
  880MOL0     H18755   0.375   0.505   0.400 -2.7248 -1.8278  1.2343
  880MOL0     H18756   0.285   0.315   0.527  0.6229 -2.9848  0.7299
  880MOL0     H18757   0.346   0.208   0.401 -1.2729 -0.5471 -1.5367
  880MOL0     H18758   0.115   0.240   0.359  0.2971  0.7431  1.3685
  880MOL0     H18759   0.204   0.304   0.232  0.8562 -2.3977  0.5235
  880MOL0     H18760  -0.060   0.261   0.431  0.2208 -0.5210 -1.7717
  880MOL0     H18761  -0.291   0.145   0.405  1.9514  0.8261  1.6567
  880MOL0     H18762  -0.292   0.221   0.558 -2.2341 -1.9737  0.2675
  880MOL0     H18763  -0.432   0.239   0.447 -0.5766  0.2211  0.1658
  880MOL0     H18764  -0.611   0.811   0.220  1.4030 -1.3825  0.9482
  880MOL0     H18765  -0.874   0.886   0.244  1.2844  1.0181  1.8728
  880MOL0     H18766  -1.146   0.553   0.329  2.8408 -0.7589  0.1787
  880MOL0     H18767  -1.124   0.626   0.484 -0.2414  0.8349 -0.5588
  880MOL0     H18768  -1.296   0.781   0.447 -1.6595 -0.5006  2.5277
  880MOL0     H18769  -1.329   0.724   0.287 -0.9029 -0.7437  0.7229
  880MOL0     H18770  -1.406   0.572   0.548 -1.4407  0.5245 -0.1299
  880MOL0     H18771  -1.356   0.484   0.405  1.4149 -1.5563  4.2487
  880MOL0     H18772  -1.572   0.709   0.394  0.7137  1.6874  0.7330
  880MOL0     H18773  -1.529   0.598   0.276  0.0083  0.0995  0.5753
  880MOL0     H18774  -1.574   0.409   0.460  0.5477 -0.0615 -0.9547
  880MOL0     H18775  -1.706   0.465   0.351 -0.5873 -3.3045  0.7466
  880MOL0     H18776  -1.780   0.447   0.578  2.0834 -1.0555  1.9889
  880MOL0     H18777  -1.676   0.566   0.646 -0.1225 -0.4222 -0.3517
  880MOL0     H18778  -1.881   0.608   0.433  1.6784  0.7319 -0.6774
  880MOL0     H18779  -1.798   0.748   0.516  2.1297 -0.5036 -1.8072
  880MOL0     H18780  -1.961   0.551   0.677  0.6710 -1.3381 -1.8463
  880MOL0     H18781  -2.034   0.670   0.581  0.1250 -1.3265 -0.9065
  880MOL0     H18782  -0.953   0.500   0.399 -4.8345  2.1442 -2.0080
  880MOL0     H18783  -0.721   0.438   0.346  2.9910  2.3296  0.7208
  880MOL0     H18784  -0.278   0.660   0.262 -0.5425 -0.0522  1.9162
  880MOL0     H18785  -0.039   0.644   0.258 -1.4990  0.6920 -1.4909
  880MOL0     H18786   1.826   0.263  -0.058 -3.8134  2.9805  1.5271
  880MOL0     H18787   1.971   0.405   0.057 -2.8702  2.2546  1.2877
  880MOL0     H18788   2.284   0.453   0.332 -1.9536 -1.5714  0.3910
  880MOL0     H18789   2.437   0.633   0.338  1.8771  0.1551  1.4604
  880MOL0     H18790   2.387   0.979   0.653 -1.2229 -0.3317 -0.5355
  880MOL0     H18791   2.421   0.833   0.745 -1.6807 -0.4346 -1.4073
  880MOL0     H18792   2.663   0.836   0.669 -1.2518 -0.9521 -0.3677
  880MOL0     H18793   2.598   0.970   0.774 -1.5308 -0.4160  0.9541
  880MOL0     H18794   2.763   1.039   0.593  0.4861  0.2733 -2.3423
  880MOL0     H18795   2.605   1.137   0.607  0.7691  0.5692  0.1097
  880MOL0     H18796   2.640   1.121   0.380 -1.7877  1.0062  0.2378
  880MOL0     H18797   2.510   1.020   0.406 -0.8896  2.2828 -2.8499
  880MOL0     H18798   2.777   0.718   0.273 -3.2244 -1.3394 -1.4701
  880MOL0     H18799   2.184   0.804   0.667  0.1519 -0.4178 -0.1195
  880MOL0     H18800   2.026   0.619   0.640 -0.4252 -0.3629 -1.4271
  881MOL0     O18801   6.907   7.439  11.106  0.0177  0.1279 -0.2996
  881MOL0     C18802   6.960   7.530  11.175  0.1009 -0.1664  0.3053
  881MOL0     O18803   6.884   7.624  11.255  0.0539 -0.0332 -0.6767
  881MOL0     C18804   6.753   7.616  11.291  0.7560  0.0949 -0.2164
  881MOL0     C18805   6.708   7.736  11.349 -0.6087  0.7019  0.4353
  881MOL0     C18806   6.577   7.755  11.402 -0.7469 -0.0744  0.8388
  881MOL0     C18807   6.487   7.639  11.389 -0.5450  0.3862 -0.4502
  881MOL0     O18808   6.358   7.665  11.437  0.4229 -0.7128  0.1103
  881MOL0     C18809   6.247   7.581  11.397  0.3408 -0.2492  0.8339
  881MOL0     C18810   6.114   7.639  11.458 -0.3315  0.3577 -0.2390
  881MOL0     C18811   5.999   7.563  11.393  0.2141 -0.5145 -0.7379
  881MOL0     C18812   5.865   7.648  11.398 -0.5459  0.0285  0.4043
  881MOL0     C18813   5.813   7.667  11.544 -0.6953 -0.3652  1.0645
  881MOL0     C18814   5.720   7.788  11.570  0.5352 -0.5109  0.1328
  881MOL0     C18815   5.692   7.819  11.708  0.1218 -0.0899  0.3094
  881MOL0     C18816   5.680   7.695  11.799  0.3279  0.8413  0.0147
  881MOL0     N18817   5.650   7.739  11.933  0.1225 -0.3618 -0.5422
  881MOL0     C18818   5.747   7.770  12.025 -0.2865  0.2660  0.4623
  881MOL0     C18819   5.676   7.834  12.121  0.4914  0.5451  0.3980
  881MOL0     C18820   5.724   7.899  12.245 -0.0868 -0.0893  0.3392
  881MOL0     C18821   5.706   7.819  12.370 -0.1053  0.1849 -0.8399
  881MOL0     C18822   5.565   7.766  12.400 -0.0816 -0.5990  0.4830
  881MOL0     C18823   5.467   7.878  12.443  0.3656 -1.0487  0.5213
  881MOL0     O18824   5.347   7.828  12.502  0.0358  0.1133 -0.2367
  881MOL0     C18825   5.234   7.813  12.425  0.0498  0.0961  0.2396
  881MOL0     C18826   5.217   7.796  12.288  0.0698 -0.4869  0.1367
  881MOL0     C18827   5.089   7.774  12.226  0.3070  0.1008  0.8716
  881MOL0     C18828   5.091   7.735  12.081 -0.7200  0.9814 -0.2153
  881MOL0     C18829   4.976   7.801  12.301  0.5998  0.2191 -0.2245
  881MOL0     C18830   4.843   7.791  12.250  0.7588  0.4244  0.2888
  881MOL0     O18831   4.826   7.768  12.116 -0.1392 -0.4170 -0.1240
  881MOL0     C18832   4.705   7.752  12.051  0.3526  0.5589  0.0395
  881MOL0     C18833   4.622   7.639  12.062 -0.0767  0.4218  0.1210
  881MOL0     C18834   4.510   7.614  11.981  0.9667  0.2450  0.2015
  881MOL0     C18835   4.481   7.709  11.890 -0.7366 -0.3040  0.1934
  881MOL0     O18836   4.377   7.680  11.810  0.1745  0.5992  0.0138
  881MOL0     C18837   4.241   7.733  11.831 -0.1008  0.0493 -0.3507
  881MOL0     C18838   4.147   7.765  11.716 -0.7225 -0.7212 -0.5571
  881MOL0     C18839   4.206   7.828  11.589 -1.0965 -1.2829 -0.7930
  881MOL0     C18840   4.209   7.988  11.584 -0.4801 -0.0820  0.0638
  881MOL0     C18841   4.185   8.047  11.435 -0.4922 -0.4731  0.2172
  881MOL0     C18842   4.306   8.034  11.345 -0.4140  0.0903  0.3416
  881MOL0     C18843   4.269   8.060  11.203 -0.4777 -0.6179 -0.7620
  881MOL0     C18844   4.388   8.037  11.110 -0.9710 -0.9476  0.3241
  881MOL0    Cl18845   4.452   7.881  11.120  0.0655  0.0230 -0.2873
  881MOL0     C18846   4.555   7.829  11.874 -0.1588  0.3614 -0.4608
  881MOL0     C18847   4.667   7.844  11.953 -0.6533  0.3370 -0.5250
  881MOL0     O18848   4.754   7.804  12.336  1.0869 -0.5975  0.9504
  881MOL0     C18849   4.992   7.842  12.428 -0.0279  0.1840 -0.4101
  881MOL0     C18850   5.119   7.831  12.497 -0.6491  0.2974 -0.2923
  881MOL0     N18851   5.540   7.854  12.085  0.3082  0.8645  0.0268
  881MOL0     N18852   5.532   7.785  11.979 -0.0256  0.5759  0.3747
  881MOL0     C18853   6.538   7.515  11.338 -0.1918 -0.3198  0.1674
  881MOL0     C18854   6.671   7.500  11.283  0.5769 -0.5031  0.0875
  881MOL0     C18855   7.112   7.533  11.154  1.0041 -0.0577 -0.0839
  881MOL0     C18856   7.177   7.648  11.182 -0.3964  0.5626 -0.7992
  881MOL0     C18857   7.314   7.662  11.179  0.8162  0.9115 -0.1133
  881MOL0     C18858   7.390   7.550  11.140 -0.8291 -0.9894  0.2052
  881MOL0     O18859   7.528   7.549  11.132  0.3292 -0.5471  0.0316
  881MOL0     C18860   7.570   7.553  10.996 -0.0348  0.1294  0.3679
  881MOL0     C18861   7.713   7.589  10.983 -1.0023 -0.0309 -0.1484
  881MOL0     C18862   7.769   7.551  10.842  1.0980 -0.2510 -0.6093
  881MOL0     C18863   7.897   7.622  10.791  1.2141  0.4836  0.5147
  881MOL0     C18864   7.999   7.597  10.889 -0.1247 -0.7993  1.0399
  881MOL0     C18865   8.101   7.582  10.956 -0.0837 -0.6166 -0.3193
  881MOL0     C18866   7.324   7.431  11.123  0.5090 -0.5694  0.5663
  881MOL0     C18867   7.190   7.426  11.118 -0.4142  0.0867 -0.2316
  881MOL0     H18868   6.775   7.820  11.366  1.2568 -0.4646 -0.7789
  881MOL0     H18869   6.554   7.851  11.446  0.3476  0.2042  0.8467
  881MOL0     H18870   6.240   7.579  11.288 -1.1344  0.2093  0.9017
  881MOL0     H18871   6.261   7.480  11.436  0.0168  0.0952  1.8851
  881MOL0     H18872   6.113   7.614  11.564 -3.3969 -0.5655 -0.3813
  881MOL0     H18873   6.107   7.746  11.437  4.6753  0.4504 -2.8650
  881MOL0     H18874   6.017   7.527  11.291  3.4268  0.1925 -0.5250
  881MOL0     H18875   5.972   7.474  11.452 -2.0311  0.2275 -0.5370
  881MOL0     H18876   5.880   7.749  11.359  2.8999 -0.9691 -1.1945
  881MOL0     H18877   5.780   7.608  11.342  0.7148 -0.7473 -1.0318
  881MOL0     H18878   5.766   7.571  11.566  2.8631 -2.0676  2.0104
  881MOL0     H18879   5.907   7.669  11.601 -0.3859 -0.5593  0.5658
  881MOL0     H18880   5.756   7.875  11.514 -3.0423  0.7133 -0.5075
  881MOL0     H18881   5.627   7.784  11.513  0.8049  1.0501 -0.4915
  881MOL0     H18882   5.763   7.887  11.755 -2.0332  2.0626  0.6746
  881MOL0     H18883   5.597   7.874  11.709 -0.8584 -1.4481 -3.0449
  881MOL0     H18884   5.777   7.645  11.804 -0.1238 -0.0805 -0.2678
  881MOL0     H18885   5.596   7.633  11.764 -1.1662  3.2508 -0.9597
  881MOL0     H18886   5.852   7.742  12.023  1.4558  5.6142 -0.8602
  881MOL0     H18887   5.832   7.908  12.231 -0.1375 -0.9682 -0.7437
  881MOL0     H18888   5.681   7.999  12.258  1.6900  0.9556 -1.2206
  881MOL0     H18889   5.721   7.889  12.452 -2.6872  0.7343 -0.7564
  881MOL0     H18890   5.788   7.746  12.373 -1.3468 -1.2661 -0.6646
  881MOL0     H18891   5.577   7.694  12.482 -3.8120  0.1058  1.8493
  881MOL0     H18892   5.523   7.715  12.313 -0.4565 -0.3867  0.5364
  881MOL0     H18893   5.460   7.947  12.359  3.4165 -0.3444  0.7129
  881MOL0     H18894   5.502   7.942  12.525 -0.1744  2.0152 -1.4637
  881MOL0     H18895   5.309   7.785  12.230 -0.9976  1.7630 -2.1770
  881MOL0     H18896   5.038   7.645  12.049 -1.7092  0.8451  1.6272
  881MOL0     H18897   5.047   7.816  12.022  0.0915 -0.9760 -3.7955
  881MOL0     H18898   5.191   7.721  12.040 -1.3781 -0.2856 -1.4714
  881MOL0     H18899   4.642   7.575  12.147  1.2254 -0.0455 -0.5035
  881MOL0     H18900   4.445   7.529  12.000 -0.5469  1.0578 -1.1681
  881MOL0     H18901   4.194   7.673  11.909 -1.3658  0.3849 -0.8191
  881MOL0     H18902   4.274   7.822  11.884  1.1842 -2.1056  2.7518
  881MOL0     H18903   4.121   7.665  11.681  0.2179 -0.7769 -1.1263
  881MOL0     H18904   4.060   7.827  11.740  0.7541  1.4534 -0.4695
  881MOL0     H18905   4.157   7.795  11.497 -1.5848 -0.6804 -0.7550
  881MOL0     H18906   4.311   7.801  11.575  0.0734  1.9311  0.7888
  881MOL0     H18907   4.137   8.029  11.655  0.0041 -0.1085  0.5775
  881MOL0     H18908   4.305   8.027  11.619  0.2252 -0.2619 -1.5586
  881MOL0     H18909   4.172   8.156  11.434 -1.5173 -0.5805  0.4830
  881MOL0     H18910   4.086   8.009  11.408 -0.2782 -1.9154  1.3245
  881MOL0     H18911   4.398   8.085  11.376 -0.3071  0.7281 -0.9419
  881MOL0     H18912   4.336   7.929  11.355  1.8291  0.7723  1.5350
  881MOL0     H18913   4.251   8.167  11.187  1.1634 -0.6700 -3.7871
  881MOL0     H18914   4.189   7.997  11.163  1.2354 -1.9403 -2.2850
  881MOL0     H18915   4.463   8.114  11.128 -3.4229  1.5738  0.5560
  881MOL0     H18916   4.356   8.063  11.009  0.8353 -1.1876 -0.3358
  881MOL0     H18917   4.518   7.904  11.805 -0.9395 -0.6253 -1.1300
  881MOL0     H18918   4.726   7.934  11.941 -0.4768  0.0987 -1.5247
  881MOL0     H18919   4.912   7.860  12.500 -1.2535 -3.4362 -0.6396
  881MOL0     H18920   5.130   7.853  12.602  2.1982  2.5583 -0.9306
  881MOL0     H18921   6.478   7.424  11.345 -1.0402  0.2996  1.4990
  881MOL0     H18922   6.699   7.402  11.245 -0.0950 -1.6679  2.4349
  881MOL0     H18923   7.129   7.737  11.223 -0.0338 -0.7529  2.8512
  881MOL0     H18924   7.361   7.752  11.215  1.1084  0.4612  0.6513
  881MOL0     H18925   7.554   7.452  10.957 -0.7569 -0.9551  3.1969
  881MOL0     H18926   7.505   7.622  10.942  0.4873 -0.1156 -0.5926
  881MOL0     H18927   7.774   7.536  11.055 -0.6141  0.0634 -0.4047
  881MOL0     H18928   7.729   7.695  11.005  2.1402 -0.5889  0.6299
  881MOL0     H18929   7.687   7.568  10.772 -0.7176  0.4062  1.6013
  881MOL0     H18930   7.787   7.443  10.832  0.9756 -0.6901  2.9351
  881MOL0     H18931   7.869   7.727  10.792  1.5703  0.6238 -1.2101
  881MOL0     H18932   7.920   7.604  10.686 -0.4491  0.3011  0.1563
  881MOL0     H18933   8.183   7.557  11.019 -0.1300  0.9155  0.3918
  881MOL0     H18934   7.391   7.348  11.104 -1.1411 -1.9927  0.6832
  881MOL0     H18935   7.143   7.330  11.097 -1.9000  0.1880  2.2515
  882MOL0     O18936   7.589   7.577   1.739 -0.0027 -0.1381  0.7301
  882MOL0     C18937   7.622   7.490   1.813  1.4569 -0.4884  0.1787
  882MOL0     O18938   7.535   7.405   1.865 -1.0797 -0.2203  0.3290
  882MOL0     C18939   7.402   7.450   1.882 -0.1749  0.1187  0.0148
  882MOL0     C18940   7.380   7.562   1.953  0.2586 -0.9742  0.3360
  882MOL0     C18941   7.246   7.591   1.995 -0.5912  0.5298  0.2943
  882MOL0     C18942   7.135   7.513   1.959 -0.3634 -0.4257  0.4116
  882MOL0     O18943   7.007   7.531   1.990  0.5552 -0.8964 -0.3706
  882MOL0     C18944   6.956   7.663   2.023  0.0356 -0.2539  0.5187
  882MOL0     C18945   6.941   7.646   2.175  0.3910 -0.4094  0.5184
  882MOL0     C18946   6.867   7.771   2.227 -0.1926  0.2002 -0.0919
  882MOL0     C18947   6.810   7.743   2.368 -0.0526  0.9632 -0.9457
  882MOL0     C18948   6.925   7.733   2.477 -0.2866 -0.5221  0.1682
  882MOL0     C18949   6.891   7.729   2.624 -0.3314  0.3381  1.4779
  882MOL0     C18950   7.009   7.771   2.711  0.9337  0.0176  0.1800
  882MOL0     C18951   7.109   7.659   2.747  1.0263 -0.6180 -0.2286
  882MOL0     N18952   7.239   7.703   2.786  0.2641 -1.3402  0.0969
  882MOL0     C18953   7.276   7.726   2.918  0.5211 -0.3879  0.3429
  882MOL0     C18954   7.388   7.795   2.910 -0.4642  0.0617 -0.5032
  882MOL0     C18955   7.463   7.868   3.020  0.3057  0.1633  0.2644
  882MOL0     C18956   7.411   8.016   3.024 -0.4560  0.2289  0.2368
  882MOL0     C18957   7.449   8.078   3.157  0.0316 -0.5478  0.7856
  882MOL0     C18958   7.368   8.197   3.184  0.3467  0.1480  0.3452
  882MOL0     O18959   7.434   8.260   3.288  0.4579 -0.8804 -0.2603
  882MOL0     C18960   7.384   8.394   3.319  0.4222  0.0753  1.4453
  882MOL0     C18961   7.442   8.466   3.420  0.1544  1.2578  0.0853
  882MOL0     C18962   7.416   8.600   3.446  0.3176 -0.5942  0.8637
  882MOL0     C18963   7.487   8.669   3.557  0.0192  0.6132  0.3890
  882MOL0     C18964   7.322   8.668   3.372 -0.3145 -0.2746 -0.1413
  882MOL0     C18965   7.289   8.814   3.390 -0.2844 -0.0073  0.4766
  882MOL0     O18966   7.157   8.833   3.362 -0.7398 -0.1297 -0.1073
  882MOL0     C18967   7.104   8.956   3.393 -0.3844 -0.1656 -1.8829
  882MOL0     C18968   7.078   9.058   3.302 -0.4420  0.1215 -0.1600
  882MOL0     C18969   7.012   9.170   3.335  0.2892 -0.1075 -0.1312
  882MOL0     C18970   6.983   9.189   3.474  0.6181 -0.2982  1.2180
  882MOL0     O18971   6.894   9.289   3.505  0.1986 -0.2315 -0.3101
  882MOL0     C18972   6.769   9.294   3.443  0.8003 -0.2498 -0.3311
  882MOL0     C18973   6.676   9.198   3.504 -0.3800 -1.2049  0.2987
  882MOL0     C18974   6.531   9.224   3.443 -0.0982 -0.4515 -0.2166
  882MOL0     C18975   6.416   9.142   3.497 -0.1081 -0.5717 -0.0443
  882MOL0     C18976   6.394   9.140   3.650  0.1397 -0.6029  0.2576
  882MOL0     C18977   6.466   9.026   3.719  0.4481  0.0193 -0.3156
  882MOL0     C18978   6.429   9.035   3.862 -0.2202  0.2213 -0.0575
  882MOL0     C18979   6.284   8.992   3.895  0.1191 -0.1245 -0.7969
  882MOL0    Cl18980   6.257   8.827   3.827  0.4877 -0.0904 -0.0797
  882MOL0     C18981   7.029   9.104   3.573  0.4379 -0.3569  0.4136
  882MOL0     C18982   7.080   8.981   3.532  0.9331 -0.5592 -0.1305
  882MOL0     O18983   7.370   8.904   3.428  1.6463  0.9329 -0.1997
  882MOL0     C18984   7.251   8.597   3.275  1.5634 -0.2143 -0.4186
  882MOL0     C18985   7.280   8.462   3.243  0.1564 -0.9685 -0.0205
  882MOL0     N18986   7.442   7.783   2.779 -0.7178 -0.4562  0.5808
  882MOL0     N18987   7.347   7.739   2.702  0.6915 -0.6755  0.2656
  882MOL0     C18988   7.165   7.396   1.879 -0.1010  0.1765 -0.1394
  882MOL0     C18989   7.297   7.368   1.843  0.9114 -0.9184  0.1138
  882MOL0     C18990   7.761   7.445   1.822 -0.0966 -1.0840  0.8860
  882MOL0     C18991   7.809   7.357   1.917 -0.2188  0.1089 -0.7898
  882MOL0     C18992   7.941   7.319   1.926  0.3220  0.8167 -0.9791
  882MOL0     C18993   8.031   7.369   1.829  0.6888 -0.5512 -0.5225
  882MOL0     O18994   8.168   7.359   1.841  0.5488 -0.2759 -0.5650
  882MOL0     C18995   8.214   7.433   1.958 -0.8052  0.0993 -0.5087
  882MOL0     C18996   8.362   7.450   1.936 -0.4101  0.0405 -0.7562
  882MOL0     C18997   8.394   7.544   1.815 -0.7011 -0.5213  0.3321
  882MOL0     C18998   8.351   7.685   1.824 -0.4687  0.3114 -0.2420
  882MOL0     C18999   8.409   7.757   1.713 -0.1869  0.3401 -0.2483
  882MOL0     C19000   8.458   7.818   1.621  0.8982 -0.6955 -1.0386
  882MOL0     C19001   7.985   7.446   1.726 -1.0805 -0.1909 -0.7167
  882MOL0     C19002   7.854   7.481   1.728 -0.1243 -0.4797  0.2991
  882MOL0     H19003   7.454   7.628   1.997  0.8108 -1.6257  0.3956
  882MOL0     H19004   7.232   7.676   2.060  0.2108  1.5193 -0.7788
  882MOL0     H19005   7.016   7.750   1.997 -1.1943  0.4994  0.1132
  882MOL0     H19006   6.856   7.669   1.978  0.1363 -2.2209 -0.1061
  882MOL0     H19007   6.885   7.555   2.197  1.5503 -2.0192 -2.5801
  882MOL0     H19008   7.039   7.636   2.223  0.3660 -1.5601  0.3494
  882MOL0     H19009   6.933   7.858   2.231  0.5259 -0.3584  0.6111
  882MOL0     H19010   6.786   7.793   2.157 -0.8074 -3.0403 -0.5527
  882MOL0     H19011   6.743   7.826   2.394 -1.6860 -0.3567 -0.7552
  882MOL0     H19012   6.763   7.645   2.354  1.3027  0.3725 -1.4812
  882MOL0     H19013   6.995   7.649   2.469  0.0663 -0.2117 -0.0592
  882MOL0     H19014   6.979   7.828   2.476  0.1095 -0.7342  0.5457
  882MOL0     H19015   6.813   7.802   2.650 -0.2754  1.7046 -1.6348
  882MOL0     H19016   6.868   7.624   2.640  2.0109 -0.4686  0.0778
  882MOL0     H19017   7.069   7.849   2.663  2.2102 -1.2483 -0.3425
  882MOL0     H19018   6.960   7.807   2.803  1.6745 -2.8025  1.8044
  882MOL0     H19019   7.117   7.606   2.652  0.4983  0.8392 -1.1361
  882MOL0     H19020   7.068   7.590   2.820 -0.6295  0.3679 -0.1698
  882MOL0     H19021   7.215   7.695   3.002 -0.9776 -2.8139 -1.4840
  882MOL0     H19022   7.455   7.813   3.114  1.4966 -2.2669 -0.9439
  882MOL0     H19023   7.572   7.863   3.006  0.5500 -1.1998  2.2205
  882MOL0     H19024   7.303   8.013   3.010 -0.4169 -2.8458 -0.2041
  882MOL0     H19025   7.454   8.075   2.942  3.4267 -1.1202  1.0905
  882MOL0     H19026   7.556   8.094   3.167  0.5166 -4.0609  2.4917
  882MOL0     H19027   7.425   8.002   3.231  2.8924 -1.5013  0.8474
  882MOL0     H19028   7.266   8.170   3.210  1.7220 -2.9730  3.2552
  882MOL0     H19029   7.370   8.258   3.093  2.7653  2.9072  2.0702
  882MOL0     H19030   7.516   8.407   3.473 -0.1232 -1.5324 -2.4209
  882MOL0     H19031   7.533   8.596   3.624 -1.4007 -3.3725 -2.6294
  882MOL0     H19032   7.566   8.733   3.517  1.4606 -0.3104  1.6752
  882MOL0     H19033   7.419   8.735   3.612  1.3448  2.5292 -0.1533
  882MOL0     H19034   7.113   9.048   3.200  1.6261  4.0003 -0.0126
  882MOL0     H19035   6.990   9.238   3.253 -0.6105  0.8505  0.8724
  882MOL0     H19036   6.730   9.396   3.450 -1.4634 -1.1522  1.9140
  882MOL0     H19037   6.769   9.277   3.335 -2.2479 -0.2877 -0.4100
  882MOL0     H19038   6.714   9.096   3.488  0.0409 -0.8912 -0.7947
  882MOL0     H19039   6.677   9.215   3.612 -1.8075  2.0247 -0.0852
  882MOL0     H19040   6.538   9.194   3.338 -3.2683  2.3927 -1.4199
  882MOL0     H19041   6.503   9.329   3.441  1.5042 -0.0003 -2.0009
  882MOL0     H19042   6.322   9.173   3.451 -0.2204 -2.4158 -1.1954
  882MOL0     H19043   6.434   9.045   3.449 -0.5695  0.7031 -3.0622
  882MOL0     H19044   6.293   9.111   3.680  0.5891 -1.6157  0.8302
  882MOL0     H19045   6.427   9.237   3.689  0.6510 -1.0074  0.8370
  882MOL0     H19046   6.444   8.925   3.684  2.4509 -1.5535  2.4947
  882MOL0     H19047   6.573   9.046   3.706  0.4117  0.3632 -0.1096
  882MOL0     H19048   6.449   9.137   3.896 -0.3608  0.4448 -0.6242
  882MOL0     H19049   6.499   8.971   3.915  2.1945  3.0818  0.4455
  882MOL0     H19050   6.214   9.068   3.859  3.3601  2.3336 -2.4027
  882MOL0     H19051   6.271   8.983   4.004  0.0815  2.2325 -0.5441
  882MOL0     H19052   6.997   9.118   3.676  0.4049  4.0987  0.0071
  882MOL0     H19053   7.098   8.900   3.602  0.0084  1.3096  2.4299
  882MOL0     H19054   7.184   8.655   3.214  1.2748 -0.9598 -0.8285
  882MOL0     H19055   7.226   8.402   3.171  0.0556 -0.7465 -0.1319
  882MOL0     H19056   7.078   7.335   1.853 -0.6310  0.4020  1.0633
  882MOL0     H19057   7.321   7.278   1.786 -1.0783 -0.0733 -2.2339
  882MOL0     H19058   7.748   7.324   2.001  1.3227 -0.1251  0.2921
  882MOL0     H19059   7.971   7.254   2.007 -0.6658  2.2756  0.6246
  882MOL0     H19060   8.161   7.527   1.972  0.5770  0.5743  2.1118
  882MOL0     H19061   8.199   7.368   2.045 -0.6859 -0.5890 -0.9850
  882MOL0     H19062   8.418   7.358   1.921  0.5685  0.4151  0.3707
  882MOL0     H19063   8.402   7.499   2.025 -0.7470 -0.1988 -0.4723
  882MOL0     H19064   8.341   7.508   1.727  1.7843  0.7432 -1.8206
  882MOL0     H19065   8.502   7.549   1.795 -0.8823 -1.4201 -0.9881
  882MOL0     H19066   8.383   7.724   1.921 -0.6027 -3.3531  1.4391
  882MOL0     H19067   8.242   7.691   1.809 -0.6632 -2.2667 -0.2373
  882MOL0     H19068   8.509   7.876   1.548  0.6689 -2.0184 -2.2887
  882MOL0     H19069   8.052   7.492   1.654  2.2671  0.1672  2.2964
  882MOL0     H19070   7.821   7.547   1.648  0.4878  2.2981  2.1707
  883MOL0     O19071   4.124  10.847   3.201  0.1166  0.0166 -0.5445
  883MOL0     C19072   4.077  10.953   3.179 -0.9305  0.1576  0.5888
  883MOL0     O19073   3.979  11.013   3.251  0.4614  0.2165  0.5561
  883MOL0     C19074   3.915  10.953   3.358  0.2668  0.4252 -0.5051
  883MOL0     C19075   3.958  10.981   3.492  0.4355 -0.0330  0.2712
  883MOL0     C19076   3.897  10.920   3.596  0.5850 -0.1345 -0.4514
  883MOL0     C19077   3.797  10.818   3.581  0.0100 -1.4732  0.1237
  883MOL0     O19078   3.732  10.772   3.689  0.5580 -0.6871  0.3204
  883MOL0     C19079   3.624  10.672   3.685  0.0671  0.0076  0.1156
  883MOL0     C19080   3.532  10.697   3.805  0.8605  0.6069  0.2131
  883MOL0     C19081   3.425  10.595   3.839 -0.0534 -0.1324  0.2972
  883MOL0     C19082   3.384  10.587   3.980 -0.7713  0.3763 -0.1523
  883MOL0     C19083   3.304  10.461   3.988  0.0912  0.1293  0.2876
  883MOL0     C19084   3.209  10.456   4.108  0.5513  0.3113  0.6125
  883MOL0     C19085   3.146  10.320   4.109  0.2892  0.2500  0.5139
  883MOL0     C19086   3.040  10.315   4.225 -0.5998  0.3849  0.1219
  883MOL0     N19087   2.926  10.398   4.201  1.0346  0.3302 -0.2718
  883MOL0     C19088   2.842  10.385   4.089  0.8362 -0.6506 -0.1799
  883MOL0     C19089   2.734  10.476   4.117  0.1093 -0.1419  0.0715
  883MOL0     C19090   2.606  10.496   4.039 -0.2268 -0.3056 -0.2531
  883MOL0     C19091   2.518  10.377   4.045  1.0948 -0.3305  0.0470
  883MOL0     C19092   2.369  10.420   4.039 -0.5103 -0.0176  0.8339
  883MOL0     C19093   2.325  10.477   3.906 -0.4985  0.4290  0.3477
  883MOL0     O19094   2.309  10.360   3.812 -0.3136  0.5581  0.0942
  883MOL0     C19095   2.188  10.351   3.754 -1.2929  0.3696 -0.0082
  883MOL0     C19096   2.161  10.227   3.692  0.6599  0.0872  0.2142
  883MOL0     C19097   2.037  10.195   3.627  0.2931 -0.2405 -0.4432
  883MOL0     C19098   2.018  10.048   3.581 -0.5403 -0.2862 -0.9874
  883MOL0     C19099   1.943  10.299   3.604 -0.1429  0.1186  0.1418
  883MOL0     C19100   1.821  10.288   3.522 -0.5676 -0.0415 -0.1800
  883MOL0     O19101   1.730  10.395   3.538  0.1626  0.5183  0.0266
  883MOL0     C19102   1.613  10.383   3.469  0.7987 -0.7242  0.0772
  883MOL0     C19103   1.497  10.356   3.537  0.2538  0.6265 -0.2174
  883MOL0     C19104   1.375  10.354   3.464  1.1381  0.0252 -0.6895
  883MOL0     C19105   1.371  10.361   3.327 -0.9010  1.2974 -0.4099
  883MOL0     O19106   1.258  10.325   3.262  1.1714 -0.2959  0.1302
  883MOL0     C19107   1.262  10.300   3.125 -0.0592  0.5899  0.1018
  883MOL0     C19108   1.116  10.264   3.086  0.2025  0.3375  0.2920
  883MOL0     C19109   1.089  10.267   2.936  0.1551  0.4351 -0.9117
  883MOL0     C19110   0.932  10.245   2.902 -0.2439 -0.7294 -0.6371
  883MOL0     C19111   0.898  10.276   2.758  0.7737  0.2483 -0.3672
  883MOL0     C19112   0.764  10.207   2.717  0.3197 -0.0647 -0.5492
  883MOL0     C19113   0.717  10.258   2.570 -0.8370 -0.0498 -0.0330
  883MOL0     C19114   0.572  10.204   2.547 -0.2053 -0.3568 -0.2498
  883MOL0    Cl19115   0.568  10.029   2.554 -0.2286  0.3274 -0.2017
  883MOL0     C19116   1.495  10.386   3.263  0.2572  0.2862  0.1078
  883MOL0     C19117   1.612  10.403   3.335  0.0792  1.6680 -0.3244
  883MOL0     O19118   1.805  10.197   3.433 -0.1986  0.3479  0.3013
  883MOL0     C19119   1.973  10.424   3.663  0.2770 -0.8488 -0.1597
  883MOL0     C19120   2.087  10.452   3.741  0.2241 -0.5271 -0.3437
  883MOL0     N19121   2.775  10.545   4.226  0.6614  0.3439  0.0640
  883MOL0     N19122   2.885  10.504   4.271  0.9948 -0.2395 -0.4717
  883MOL0     C19123   3.771  10.780   3.455 -0.2345 -0.7667  0.9591
  883MOL0     C19124   3.834  10.841   3.346 -0.1538  0.4978 -0.4114
  883MOL0     C19125   4.125  11.021   3.061  0.5613  0.2961 -0.1714
  883MOL0     C19126   4.239  10.964   2.990 -0.9869  0.3301  0.2072
  883MOL0     C19127   4.288  11.029   2.874 -0.1002  1.1967 -0.5155
  883MOL0     C19128   4.223  11.147   2.825  0.3009  0.0027  0.0250
  883MOL0     O19129   4.275  11.209   2.714 -0.2423 -0.5415  0.0995
  883MOL0     C19130   4.392  11.167   2.647  0.0241 -0.2470  0.5561
  883MOL0     C19131   4.455  11.277   2.565 -0.0257 -0.2768 -0.1584
  883MOL0     C19132   4.368  11.329   2.453  0.4135 -0.5019 -0.3567
  883MOL0     C19133   4.448  11.427   2.367  0.5514 -0.1340  0.5665
  883MOL0     C19134   4.345  11.477   2.271  0.0588 -0.2441  0.0200
  883MOL0     C19135   4.267  11.512   2.183  0.4598  0.2927 -0.3194
  883MOL0     C19136   4.113  11.207   2.894 -0.0225  0.2908 -0.7953
  883MOL0     C19137   4.065  11.148   3.014 -0.3696 -0.4858 -0.6534
  883MOL0     H19138   4.032  11.059   3.510 -0.1504  0.1093  2.2851
  883MOL0     H19139   3.929  10.952   3.695 -0.7159 -0.2095  0.0121
  883MOL0     H19140   3.566  10.679   3.592  0.8324 -1.1452 -0.4661
  883MOL0     H19141   3.684  10.582   3.698  2.1272  1.2987  0.1043
  883MOL0     H19142   3.596  10.697   3.894  0.9343 -0.9466  0.1972
  883MOL0     H19143   3.486  10.795   3.794  0.9313  0.3887 -3.7222
  883MOL0     H19144   3.337  10.624   3.782 -1.3901 -0.5127  2.0836
  883MOL0     H19145   3.464  10.497   3.809  1.9857  0.4226  0.9904
  883MOL0     H19146   3.457  10.575   4.060 -0.5361 -0.4191 -0.4757
  883MOL0     H19147   3.312  10.666   4.003 -0.5012  0.1973  1.4378
  883MOL0     H19148   3.234  10.451   3.905 -0.5125 -1.9043  0.9608
  883MOL0     H19149   3.370  10.375   3.971 -0.6646  0.0080 -2.3475
  883MOL0     H19150   3.253  10.481   4.205  2.0128  0.3171 -0.0359
  883MOL0     H19151   3.133  10.532   4.087  0.1773 -0.3830 -0.6196
  883MOL0     H19152   3.111  10.298   4.007  2.3863 -1.9804  0.1890
  883MOL0     H19153   3.218  10.239   4.121 -0.4486 -0.7002 -1.0733
  883MOL0     H19154   3.081  10.360   4.316 -1.1796 -1.3074  1.2669
  883MOL0     H19155   3.023  10.209   4.245 -1.7890  0.7599  1.2902
  883MOL0     H19156   2.855  10.305   4.017  3.7283  0.5221 -1.1005
  883MOL0     H19157   2.554  10.580   4.084  0.7708  0.9111 -1.2860
  883MOL0     H19158   2.618  10.531   3.936  0.1958  1.2494  0.2984
  883MOL0     H19159   2.544  10.329   4.140  0.9192 -1.0276 -0.2526
  883MOL0     H19160   2.551  10.309   3.966  3.0939 -0.8898  1.3009
  883MOL0     H19161   2.351  10.495   4.117 -0.6889  1.9478 -0.9984
  883MOL0     H19162   2.312  10.329   4.061 -1.9756  0.8877  0.8708
  883MOL0     H19163   2.404  10.537   3.860 -1.6924  1.3605 -0.5140
  883MOL0     H19164   2.242  10.545   3.922  0.8164  1.9075  1.1643
  883MOL0     H19165   2.245  10.159   3.689 -0.8490 -1.9209  1.0609
  883MOL0     H19166   2.062   9.988   3.662 -1.4801 -1.9073 -1.6392
  883MOL0     H19167   1.916  10.010   3.579 -0.2428 -1.0747 -2.7389
  883MOL0     H19168   2.053  10.036   3.478  2.3382  1.5004 -0.3430
  883MOL0     H19169   1.478  10.361   3.644 -0.2268 -1.5340 -0.1542
  883MOL0     H19170   1.276  10.357   3.508  0.7248  2.9581 -1.5627
  883MOL0     H19171   1.289  10.386   3.063  0.4218 -0.8927 -1.8071
  883MOL0     H19172   1.324  10.213   3.101  0.1614  0.5286  0.8410
  883MOL0     H19173   1.105  10.161   3.121 -0.2483  0.0053 -0.7873
  883MOL0     H19174   1.052  10.332   3.143  0.0859  0.8460 -0.4319
  883MOL0     H19175   1.154  10.203   2.876  0.1326  1.0199 -1.5763
  883MOL0     H19176   1.108  10.371   2.907  0.2219  0.2043 -1.7130
  883MOL0     H19177   0.899  10.148   2.940 -0.6698  0.1494  1.3475
  883MOL0     H19178   0.878  10.310   2.972  0.2135 -0.5366 -0.4603
  883MOL0     H19179   0.979  10.243   2.691 -0.9710 -1.3646 -1.7834
  883MOL0     H19180   0.897  10.385   2.749 -3.5212  0.3526 -0.5535
  883MOL0     H19181   0.773  10.098   2.716 -2.9763 -0.4319 -0.8516
  883MOL0     H19182   0.687  10.240   2.787  0.3080 -1.7915  0.2937
  883MOL0     H19183   0.788  10.232   2.491  0.1174 -3.4253  1.7115
  883MOL0     H19184   0.717  10.367   2.575  2.7046  0.1008 -0.6161
  883MOL0     H19185   0.548  10.226   2.442  0.0487  3.1655  0.3088
  883MOL0     H19186   0.499  10.255   2.609  0.7848 -0.5685  1.1459
  883MOL0     H19187   1.504  10.399   3.156  1.0766 -5.1122 -0.7429
  883MOL0     H19188   1.704  10.427   3.285  0.6054  0.8077  0.1923
  883MOL0     H19189   1.916  10.514   3.642 -0.6598 -1.1797  0.8486
  883MOL0     H19190   2.091  10.551   3.785  0.9125  0.9596 -3.4553
  883MOL0     H19191   3.697  10.705   3.426 -1.1323  0.6696 -0.6840
  883MOL0     H19192   3.813  10.805   3.246 -1.0479 -0.0902 -0.0238
  883MOL0     H19193   4.285  10.876   3.034  2.1756 -0.5947 -4.1962
  883MOL0     H19194   4.380  10.991   2.832  1.1037  1.8436  1.3988
  883MOL0     H19195   4.473  11.136   2.713  1.1856  2.8946  0.7804
  883MOL0     H19196   4.363  11.083   2.584  1.3842  0.5400 -1.2079
  883MOL0     H19197   4.548  11.239   2.522 -0.6538 -2.0470 -0.0263
  883MOL0     H19198   4.484  11.361   2.629  2.2763 -0.0946 -1.3529
  883MOL0     H19199   4.280  11.384   2.487 -1.1170 -2.0292 -1.6778
  883MOL0     H19200   4.333  11.244   2.393  0.1374  0.4634 -1.6211
  883MOL0     H19201   4.526  11.369   2.316 -1.2786 -3.0507  0.8478
  883MOL0     H19202   4.483  11.513   2.424 -2.4297  1.1100  0.6801
  883MOL0     H19203   4.214  11.539   2.094 -1.3198 -1.5551  0.0843
  883MOL0     H19204   4.056  11.294   2.863 -1.3935  1.0191  3.2517
  883MOL0     H19205   3.981  11.184   3.073 -1.2847 -0.4785 -1.9079
  884MOL0     O19206   8.155   5.237   9.123 -0.1364  0.1650  0.2446
  884MOL0     C19207   8.148   5.354   9.151  0.8242 -0.3472 -0.6588
  884MOL0     O19208   8.032   5.416   9.190  0.1526  0.1273 -1.0023
  884MOL0     C19209   7.915   5.343   9.214 -0.2275 -0.3825  0.4718
  884MOL0     C19210   7.840   5.308   9.098  0.9595 -0.5525  0.2941
  884MOL0     C19211   7.727   5.243   9.103 -0.5800  0.1668 -0.7305
  884MOL0     C19212   7.664   5.219   9.226 -0.2420  0.3098  0.2697
  884MOL0     O19213   7.533   5.179   9.232 -0.6772  0.0550  0.3674
  884MOL0     C19214   7.435   5.283   9.188  0.1740 -0.0198  1.2656
  884MOL0     C19215   7.288   5.223   9.183  0.3913  0.0235  0.2231
  884MOL0     C19216   7.234   5.193   9.317  0.0785 -0.4274  0.0060
  884MOL0     C19217   7.080   5.157   9.316  1.0233 -0.3627  0.1958
  884MOL0     C19218   7.013   5.140   9.447 -0.4724 -0.4601  0.1212
  884MOL0     C19219   6.870   5.090   9.428 -0.1564 -0.2709 -0.3181
  884MOL0     C19220   6.783   5.114   9.548  0.8682 -0.6262 -0.4011
  884MOL0     C19221   6.638   5.096   9.514 -0.6925  0.3273 -0.2487
  884MOL0     N19222   6.549   5.149   9.612  0.1459  0.4297 -0.1585
  884MOL0     C19223   6.502   5.080   9.723 -0.4646  0.1633 -0.0852
  884MOL0     C19224   6.412   5.165   9.782  0.4198 -0.3697 -0.7674
  884MOL0     C19225   6.343   5.130   9.912 -0.0949  0.1822 -0.3138
  884MOL0     C19226   6.201   5.063   9.911 -0.1576 -0.0801  1.0509
  884MOL0     C19227   6.093   5.156   9.846  0.1497  0.2100 -0.9286
  884MOL0     C19228   5.956   5.147   9.902 -0.9576 -0.6747 -0.0209
  884MOL0     O19229   5.860   5.229   9.826 -0.4205 -0.3780 -0.5858
  884MOL0     C19230   5.734   5.215   9.856  0.3269  0.1663  0.1183
  884MOL0     C19231   5.647   5.289   9.771  0.2286 -0.2744 -0.1100
  884MOL0     C19232   5.509   5.279   9.780 -0.4217  0.3666  0.0692
  884MOL0     C19233   5.427   5.361   9.677 -0.2560  0.3568 -0.4070
  884MOL0     C19234   5.449   5.198   9.883 -0.3590  0.4633 -0.2705
  884MOL0     C19235   5.304   5.163   9.895  0.2672 -0.3044 -0.0666
  884MOL0     O19236   5.212   5.240   9.826 -0.2143 -0.4476 -0.6736
  884MOL0     C19237   5.085   5.185   9.810  0.8833  0.4280  0.7649
  884MOL0     C19238   4.988   5.200   9.905  0.8804  0.5165 -0.4489
  884MOL0     C19239   4.860   5.137   9.892  0.1178 -0.6826 -0.5524
  884MOL0     C19240   4.830   5.070   9.778  0.9613 -0.6285  0.0007
  884MOL0     O19241   4.697   5.015   9.767  0.0257  0.3341  0.4620
  884MOL0     C19242   4.631   5.020   9.642 -0.7758 -0.1574  0.0298
  884MOL0     C19243   4.480   5.035   9.672 -0.0468  0.6392  1.1305
  884MOL0     C19244   4.401   5.029   9.545 -0.9452 -0.1198 -0.2628
  884MOL0     C19245   4.258   5.038   9.583  0.0275  0.0260 -0.1483
  884MOL0     C19246   4.159   5.088   9.473 -0.3164  0.6593 -0.6968
  884MOL0     C19247   4.015   5.082   9.525  0.2533  0.6278  1.0161
  884MOL0     C19248   3.929   5.152   9.423  0.1270 -0.2044 -0.4566
  884MOL0     C19249   3.779   5.127   9.445 -0.1459  0.0909 -0.2059
  884MOL0    Cl19250   3.714   5.167   9.603 -0.6607  0.0366 -0.0528
  884MOL0     C19251   4.924   5.054   9.679  1.1340 -0.0342 -0.0258
  884MOL0     C19252   5.054   5.094   9.705 -0.4393  0.6563  0.1881
  884MOL0     O19253   5.277   5.076   9.979  0.1372 -0.5130  0.2539
  884MOL0     C19254   5.536   5.131   9.973 -0.8648  0.0371 -0.0648
  884MOL0     C19255   5.679   5.138   9.964  0.3663  0.0874  0.0288
  884MOL0     N19256   6.401   5.272   9.701 -0.0505 -0.2931 -0.3296
  884MOL0     N19257   6.492   5.270   9.612 -0.1350  0.1065 -0.1689
  884MOL0     C19258   7.726   5.252   9.341 -0.0891  0.2301 -0.2521
  884MOL0     C19259   7.851   5.311   9.340 -1.2499  0.3794 -0.2760
  884MOL0     C19260   8.274   5.434   9.133  0.0303  0.5048 -0.7125
  884MOL0     C19261   8.280   5.561   9.182  0.0302  0.2626 -0.4236
  884MOL0     C19262   8.407   5.621   9.172 -0.3793 -0.7927 -0.0150
  884MOL0     C19263   8.514   5.556   9.116 -0.3608 -0.3131  0.2375
  884MOL0     O19264   8.637   5.616   9.110 -0.4579  0.1611 -0.0182
  884MOL0     C19265   8.707   5.610   8.988  0.2655  0.1256 -1.1514
  884MOL0     C19266   8.751   5.750   8.956 -0.2204 -0.6681  0.2694
  884MOL0     C19267   8.871   5.802   9.033  0.2135  0.9111 -0.4121
  884MOL0     C19268   8.991   5.706   9.042 -1.2055  0.3798 -0.7557
  884MOL0     C19269   9.111   5.773   9.101 -0.0296 -0.1161  0.1892
  884MOL0     C19270   9.198   5.848   9.124  0.2186 -0.5665  0.4361
  884MOL0     C19271   8.509   5.422   9.089  0.1963  0.3095  0.2184
  884MOL0     C19272   8.392   5.365   9.096  0.1331  0.1379  0.1068
  884MOL0     H19273   7.869   5.328   8.995 -0.4097  1.6347  0.2704
  884MOL0     H19274   7.693   5.200   9.009 -1.0297  3.1347 -2.0376
  884MOL0     H19275   7.439   5.371   9.253 -1.2308  0.6678  0.4561
  884MOL0     H19276   7.460   5.317   9.087 -4.0043  1.7478  0.6141
  884MOL0     H19277   7.226   5.299   9.136 -0.3040 -0.6513  0.0231
  884MOL0     H19278   7.287   5.132   9.122  1.6572 -0.1944  0.4962
  884MOL0     H19279   7.296   5.106   9.343  0.9951  0.4534  0.8400
  884MOL0     H19280   7.253   5.276   9.385  0.7286  0.7710 -1.5898
  884MOL0     H19281   7.033   5.237   9.257  2.4892 -1.5196 -2.7933
  884MOL0     H19282   7.073   5.070   9.250  1.9334 -0.6609  0.4705
  884MOL0     H19283   7.070   5.070   9.510 -0.2152 -0.1015  0.2887
  884MOL0     H19284   7.004   5.237   9.497 -2.3211  0.4099 -1.7533
  884MOL0     H19285   6.822   5.133   9.339 -1.7100 -3.3688 -1.1037
  884MOL0     H19286   6.880   4.982   9.415 -0.9961 -0.2406 -1.3539
  884MOL0     H19287   6.805   5.051   9.635 -0.4572  1.7746  1.8366
  884MOL0     H19288   6.796   5.220   9.572 -1.8176 -0.1951 -0.4843
  884MOL0     H19289   6.620   4.988   9.515 -1.0207  0.3703  1.3426
  884MOL0     H19290   6.623   5.136   9.414 -0.1949 -0.1054 -0.5032
  884MOL0     H19291   6.515   4.974   9.743  0.2242 -0.5724 -3.6788
  884MOL0     H19292   6.407   5.056   9.961  3.0306  2.4980 -0.5806
  884MOL0     H19293   6.331   5.225   9.966 -0.3384 -0.8941  1.6055
  884MOL0     H19294   6.177   5.045  10.016  0.1297 -0.0640  1.1212
  884MOL0     H19295   6.210   4.970   9.854  1.3007  0.4237  0.3921
  884MOL0     H19296   6.108   5.144   9.738 -0.8796  3.1282 -1.4892
  884MOL0     H19297   6.104   5.265   9.854 -0.3904  0.2167 -0.1925
  884MOL0     H19298   5.958   5.185  10.004 -1.5842  0.2224 -0.3267
  884MOL0     H19299   5.940   5.039   9.896  1.8061 -1.1351 -0.3456
  884MOL0     H19300   5.689   5.334   9.682 -0.5346  0.2427 -0.2202
  884MOL0     H19301   5.489   5.380   9.589 -2.0587  0.5424 -1.6710
  884MOL0     H19302   5.338   5.311   9.640  0.6437  0.5705 -3.0371
  884MOL0     H19303   5.403   5.455   9.728 -0.5223 -0.3226  0.7670
  884MOL0     H19304   5.020   5.252   9.995  2.6050 -2.0259  0.5480
  884MOL0     H19305   4.793   5.128   9.976  1.4131 -1.8557  0.4086
  884MOL0     H19306   4.663   5.106   9.582 -3.3242 -0.4399 -1.8982
  884MOL0     H19307   4.649   4.928   9.586 -1.7341 -0.7659  0.6948
  884MOL0     H19308   4.448   4.953   9.736 -3.1152 -0.7141 -1.8446
  884MOL0     H19309   4.473   5.130   9.726  2.4837  1.3360  0.3852
  884MOL0     H19310   4.420   4.936   9.491 -1.0526  0.1286 -0.7377
  884MOL0     H19311   4.433   5.113   9.483  2.6051 -0.8679  0.3317
  884MOL0     H19312   4.231   4.935   9.609  0.6779 -1.2014 -3.7413
  884MOL0     H19313   4.256   5.106   9.669  2.8222  0.4721 -0.3196
  884MOL0     H19314   4.189   5.028   9.386  3.7710 -0.0622  0.9896
  884MOL0     H19315   4.177   5.195   9.459 -2.7428  1.1488 -0.5869
  884MOL0     H19316   3.990   4.977   9.542  0.6343  0.3122 -0.2589
  884MOL0     H19317   4.000   5.124   9.625 -4.1162 -2.1883  1.8459
  884MOL0     H19318   3.944   5.120   9.319 -0.7784  3.3527 -1.8474
  884MOL0     H19319   3.942   5.261   9.423  0.1282 -0.1861 -1.7984
  884MOL0     H19320   3.752   5.021   9.435 -1.2612  0.3664 -0.2624
  884MOL0     H19321   3.726   5.170   9.359  0.6931 -3.0729 -2.4772
  884MOL0     H19322   4.897   4.984   9.601 -1.9381  1.5232 -0.5333
  884MOL0     H19323   5.132   5.079   9.630  1.4198 -0.3832  2.2401
  884MOL0     H19324   5.498   5.067  10.052 -2.1117  1.5421  0.6313
  884MOL0     H19325   5.754   5.107  10.036  0.9743  0.3944 -0.4543
  884MOL0     H19326   7.673   5.231   9.434  0.3077 -0.5217 -0.1797
  884MOL0     H19327   7.892   5.337   9.437 -4.9894  1.7016  1.1458
  884MOL0     H19328   8.184   5.607   9.206 -1.5631 -2.2937 -1.4442
  884MOL0     H19329   8.427   5.724   9.197  1.2312 -1.3013  0.9096
  884MOL0     H19330   8.793   5.543   8.986  0.7051  0.5928  0.6115
  884MOL0     H19331   8.639   5.583   8.906 -1.8246  2.8641 -0.4877
  884MOL0     H19332   8.673   5.822   8.983 -0.1742 -0.9930  1.3114
  884MOL0     H19333   8.770   5.757   8.849 -1.0520 -4.7338 -0.3052
  884MOL0     H19334   8.838   5.830   9.133 -0.6468  1.2656 -0.7879
  884MOL0     H19335   8.905   5.896   8.987  2.1271  0.9996  1.0595
  884MOL0     H19336   9.027   5.662   8.948 -0.0941 -0.8923  0.2133
  884MOL0     H19337   8.957   5.617   9.097 -0.7899  0.0753 -0.9840
  884MOL0     H19338   9.271   5.922   9.149  1.3831 -0.8610 -1.8025
  884MOL0     H19339   8.600   5.375   9.055 -0.5972  0.8251 -2.8650
  884MOL0     H19340   8.386   5.263   9.059  1.0164  1.2141 -3.4710
  885MOL0     O19341   1.595  10.439   1.370 -0.7553 -0.0500 -0.3478
  885MOL0     C19342   1.492  10.458   1.439 -0.4842 -0.3906 -0.7688
  885MOL0     O19343   1.479  10.535   1.548 -0.1404 -0.0505 -0.0113
  885MOL0     C19344   1.563  10.648   1.563  1.0363  0.1223  0.0812
  885MOL0     C19345   1.700  10.641   1.552 -0.4724 -0.0034  0.2190
  885MOL0     C19346   1.765  10.756   1.592 -0.4118  0.8326 -1.0036
  885MOL0     C19347   1.705  10.875   1.631  0.3121  0.1295  0.1086
  885MOL0     O19348   1.770  10.995   1.664  0.5170  1.0195  0.3265
  885MOL0     C19349   1.789  11.073   1.549  0.9375  0.2924  0.2152
  885MOL0     C19350   1.831  11.214   1.599 -0.4932  0.0780  0.4568
  885MOL0     C19351   1.721  11.314   1.647 -0.5367 -0.9834 -0.1872
  885MOL0     C19352   1.607  11.251   1.725  0.7041  1.1778  0.3687
  885MOL0     C19353   1.521  11.364   1.787 -0.3248  0.4139  0.7495
  885MOL0     C19354   1.399  11.301   1.858 -0.2176 -0.9217 -1.0097
  885MOL0     C19355   1.319  11.405   1.931 -0.3236 -0.0987  0.3761
  885MOL0     C19356   1.227  11.347   2.041 -0.6965 -0.0693  0.4948
  885MOL0     N19357   1.152  11.449   2.111 -0.2381  0.2807  0.7797
  885MOL0     C19358   1.198  11.521   2.216  1.0136 -0.1714 -0.2055
  885MOL0     C19359   1.090  11.599   2.248  0.6872  0.0876 -0.5492
  885MOL0     C19360   1.077  11.672   2.384 -0.8174 -0.4163  0.3050
  885MOL0     C19361   1.197  11.773   2.401  0.3750 -0.6256  0.7420
  885MOL0     C19362   1.306  11.701   2.488  0.0897 -0.5456 -0.4571
  885MOL0     C19363   1.415  11.802   2.481  0.3409 -0.3252  0.2352
  885MOL0     O19364   1.514  11.739   2.557  0.0280 -0.7821  0.5843
  885MOL0     C19365   1.635  11.809   2.550  0.6012  0.8080  0.8950
  885MOL0     C19366   1.646  11.953   2.557  0.4771  0.0136 -0.4006
  885MOL0     C19367   1.766  12.023   2.547 -0.5094 -0.2310  0.1249
  885MOL0     C19368   1.756  12.175   2.542 -0.4032 -0.3404  0.7633
  885MOL0     C19369   1.889  11.947   2.541  0.5887  1.0824  0.3372
  885MOL0     C19370   2.012  12.012   2.524 -1.1038 -0.0895 -0.7131
  885MOL0     O19371   2.106  11.950   2.439 -0.0838 -0.5870 -0.3728
  885MOL0     C19372   2.231  11.997   2.442 -0.2679  0.4034 -0.0614
  885MOL0     C19373   2.295  12.068   2.341  0.1499 -0.6161  0.1578
  885MOL0     C19374   2.430  12.105   2.355  0.2285  0.2937  0.8157
  885MOL0     C19375   2.506  12.054   2.456  0.3227  0.2831  0.1923
  885MOL0     O19376   2.641  12.084   2.491 -0.1421  0.3614 -0.5414
  885MOL0     C19377   2.705  12.198   2.422  1.0037  0.5266  0.6811
  885MOL0     C19378   2.849  12.211   2.476  0.6128 -0.1698  1.4386
  885MOL0     C19379   2.919  12.319   2.388 -0.2531 -0.8288  0.6905
  885MOL0     C19380   3.053  12.325   2.441  0.5267 -0.6459  0.3091
  885MOL0     C19381   3.127  12.446   2.381 -0.6881 -0.7616 -0.2512
  885MOL0     C19382   3.263  12.449   2.458  0.1239 -0.1268 -0.0637
  885MOL0     C19383   3.342  12.568   2.397  0.2710  0.2863  0.7088
  885MOL0     C19384   3.458  12.599   2.485 -0.2061 -0.6559 -0.0917
  885MOL0    Cl19385   3.588  12.470   2.456  0.2118 -0.2718 -0.0910
  885MOL0     C19386   2.445  11.979   2.555  0.2819  1.3073 -0.0473
  885MOL0     C19387   2.306  11.955   2.545 -0.1634  0.8523 -0.6746
  885MOL0     O19388   2.039  12.106   2.598  0.5636 -0.0767  0.2044
  885MOL0     C19389   1.875  11.805   2.533  0.3934  0.2289 -0.0781
  885MOL0     C19390   1.749  11.736   2.528 -0.2729  0.3830 -0.4545
  885MOL0     N19391   0.986  11.569   2.160  0.5678  0.8578  0.4139
  885MOL0     N19392   1.029  11.488   2.075  0.9399 -0.0592 -0.2183
  885MOL0     C19393   1.562  10.875   1.639  0.4687  0.6623  0.3815
  885MOL0     C19394   1.497  10.761   1.612 -0.0175 -0.5365 -0.8938
  885MOL0     C19395   1.368  10.375   1.417 -0.5182 -0.4536  0.5054
  885MOL0     C19396   1.245  10.392   1.479  0.0231 -0.0793 -0.9485
  885MOL0     C19397   1.138  10.307   1.471 -0.6796  0.8386  0.3141
  885MOL0     C19398   1.144  10.189   1.392  0.4786  0.8937 -0.5429
  885MOL0     O19399   1.043  10.095   1.400 -0.5970 -0.4631 -0.3519
  885MOL0     C19400   1.016  10.001   1.282 -0.1109  0.4290  0.1434
  885MOL0     C19401   0.898   9.919   1.323 -0.5906  0.0447 -0.0043
  885MOL0     C19402   0.836   9.829   1.209  0.2272 -0.1027 -0.7630
  885MOL0     C19403   0.701   9.891   1.155 -0.2790  0.3495 -0.3954
  885MOL0     C19404   0.724  10.032   1.123 -0.7178 -0.6496  0.3349
  885MOL0     C19405   0.729  10.150   1.104 -0.1439 -0.1554  0.2107
  885MOL0     C19406   1.269  10.172   1.321 -0.4369 -0.2446 -0.5786
  885MOL0     C19407   1.373  10.265   1.331  0.3554 -0.4985  0.2325
  885MOL0     H19408   1.757  10.555   1.519  2.4466  1.7429  0.3229
  885MOL0     H19409   1.873  10.745   1.585 -0.6215 -1.7849 -1.3591
  885MOL0     H19410   1.863  11.035   1.479 -1.2368  1.3832 -2.8713
  885MOL0     H19411   1.702  11.071   1.483  1.0093 -3.0230  0.0553
  885MOL0     H19412   1.899  11.208   1.684  1.3444  3.7112 -0.5956
  885MOL0     H19413   1.904  11.260   1.532  0.9571  0.7723  2.4447
  885MOL0     H19414   1.765  11.393   1.709  0.1195  2.7805 -4.8993
  885MOL0     H19415   1.686  11.377   1.566  0.1324 -0.5748 -0.1695
  885MOL0     H19416   1.540  11.195   1.659 -0.1672  0.2224  1.9850
  885MOL0     H19417   1.639  11.175   1.798 -1.0319  0.6237  0.6080
  885MOL0     H19418   1.587  11.431   1.844 -0.0089  1.1176 -0.4072
  885MOL0     H19419   1.487  11.428   1.705  2.4137 -1.3911 -2.0492
  885MOL0     H19420   1.337  11.251   1.783  0.9449 -2.5834 -0.9066
  885MOL0     H19421   1.428  11.221   1.926  3.7258 -0.4349 -1.8527
  885MOL0     H19422   1.376  11.492   1.965 -2.8844  2.2241 -0.9519
  885MOL0     H19423   1.251  11.448   1.857 -0.9782 -0.0056  1.0268
  885MOL0     H19424   1.295  11.304   2.116  1.8706  1.0408 -1.0744
  885MOL0     H19425   1.161  11.276   1.989  0.6742 -1.4269  0.5339
  885MOL0     H19426   1.295  11.515   2.265  0.5725  3.2281  1.3265
  885MOL0     H19427   0.987  11.734   2.381 -0.0860  0.7370  1.1330
  885MOL0     H19428   1.075  11.606   2.471  0.3637 -0.1698  0.5348
  885MOL0     H19429   1.163  11.864   2.450 -1.6233 -0.0577 -1.4933
  885MOL0     H19430   1.230  11.803   2.301 -2.0833  0.4975  0.1901
  885MOL0     H19431   1.335  11.610   2.435  1.3196 -0.9596  0.8925
  885MOL0     H19432   1.271  11.683   2.590  1.7293 -0.9093  0.0697
  885MOL0     H19433   1.371  11.889   2.530  2.4413  0.9346 -0.0283
  885MOL0     H19434   1.449  11.818   2.379  2.2516 -0.2662  0.8416
  885MOL0     H19435   1.560  12.019   2.565  0.7316  0.2773  0.1732
  885MOL0     H19436   1.842  12.214   2.488 -0.3799 -1.4130 -0.0013
  885MOL0     H19437   1.672  12.208   2.480 -1.2656 -1.1407  1.4534
  885MOL0     H19438   1.741  12.218   2.642 -1.7554 -1.6105  1.1601
  885MOL0     H19439   2.241  12.074   2.248 -1.5621 -2.5577  0.9385
  885MOL0     H19440   2.465  12.169   2.274 -1.8844  1.7666  0.9954
  885MOL0     H19441   2.704  12.179   2.314  0.3720  3.6186  0.0668
  885MOL0     H19442   2.637  12.283   2.429  0.5712  0.4944 -2.0527
  885MOL0     H19443   2.839  12.248   2.579 -5.8617  0.8525  0.8291
  885MOL0     H19444   2.888  12.109   2.480 -3.4391 -2.0315 -0.5237
  885MOL0     H19445   2.858  12.410   2.391 -0.1424 -0.7848  1.8151
  885MOL0     H19446   2.925  12.284   2.284 -0.5377  0.4188  0.2335
  885MOL0     H19447   3.047  12.338   2.549 -2.7279 -1.8391  0.3780
  885MOL0     H19448   3.098  12.228   2.417 -0.3448 -0.6685 -1.4546
  885MOL0     H19449   3.071  12.536   2.408 -0.6625 -0.6566 -0.5470
  885MOL0     H19450   3.136  12.452   2.272 -0.4270 -0.5453 -0.2221
  885MOL0     H19451   3.244  12.465   2.565 -0.4531  0.3783 -0.2382
  885MOL0     H19452   3.317  12.356   2.438 -2.5449 -1.8562  0.3042
  885MOL0     H19453   3.284  12.660   2.406 -1.4071 -0.8746  2.7128
  885MOL0     H19454   3.364  12.541   2.293  2.9465  0.9425  1.0285
  885MOL0     H19455   3.433  12.597   2.592  1.3596  1.8219  0.3805
  885MOL0     H19456   3.487  12.701   2.459  1.4934 -1.0620  0.1411
  885MOL0     H19457   2.500  11.941   2.641 -1.7822 -0.2877  0.6389
  885MOL0     H19458   2.259  11.899   2.625 -0.9071 -0.4427 -1.9606
  885MOL0     H19459   1.961  11.740   2.520 -0.1203 -0.7941  1.4170
  885MOL0     H19460   1.730  11.630   2.519  1.2924  0.1179 -0.9482
  885MOL0     H19461   1.511  10.965   1.674 -0.4539  0.4469 -0.3686
  885MOL0     H19462   1.391  10.773   1.628 -0.1923  1.6566 -3.0627
  885MOL0     H19463   1.249  10.486   1.533  1.7984 -0.1739 -0.8521
  885MOL0     H19464   1.046  10.317   1.527 -0.4747  0.3225  0.7555
  885MOL0     H19465   0.995  10.044   1.184  3.6041 -0.5295 -1.2250
  885MOL0     H19466   1.094   9.927   1.264 -3.3153 -2.9014 -1.6539
  885MOL0     H19467   0.827   9.987   1.369 -1.3397 -0.6787 -0.0815
  885MOL0     H19468   0.930   9.858   1.408  0.4469  0.4568 -0.0802
  885MOL0     H19469   0.801   9.732   1.244  0.2896  0.7761  1.9433
  885MOL0     H19470   0.903   9.814   1.123  0.6416  1.0719 -0.6625
  885MOL0     H19471   0.630   9.890   1.238 -0.2189  1.4507 -0.3068
  885MOL0     H19472   0.656   9.843   1.068 -1.3109 -0.1265  0.3784
  885MOL0     H19473   0.738  10.257   1.103  1.7178 -0.1582  3.3137
  885MOL0     H19474   1.286  10.096   1.244 -1.9579 -0.9524 -0.2394
  885MOL0     H19475   1.453  10.241   1.261 -2.0356 -3.0660 -1.8456
  886MOL0     O19476   5.850   7.610   5.252 -0.0285 -0.1901 -0.1568
  886MOL0     C19477   5.854   7.740   5.258 -0.5308  0.4612  0.1162
  886MOL0     O19478   5.796   7.818   5.160  0.3175  0.1454 -0.8277
  886MOL0     C19479   5.734   7.753   5.055  0.0721 -0.5149 -0.4006
  886MOL0     C19480   5.800   7.720   4.941  0.2371  0.4698  0.5614
  886MOL0     C19481   5.730   7.661   4.838 -0.7326  1.1479 -0.0341
  886MOL0     C19482   5.592   7.637   4.841 -0.6457  0.3863  0.0581
  886MOL0     O19483   5.524   7.583   4.740 -0.2784  0.2992 -0.2807
  886MOL0     C19484   5.550   7.445   4.691  0.2299  0.2967  0.3684
  886MOL0     C19485   5.473   7.425   4.562 -0.9189  0.2875  0.3124
  886MOL0     C19486   5.328   7.469   4.554 -0.3105 -0.0155  0.2927
  886MOL0     C19487   5.238   7.389   4.650 -0.1693  0.9840 -0.6733
  886MOL0     C19488   5.088   7.410   4.629  0.5293 -0.6365  0.1352
  886MOL0     C19489   4.998   7.366   4.740 -0.2287 -0.5267 -0.0388
  886MOL0     C19490   5.014   7.458   4.868 -0.6698 -0.2775  0.1815
  886MOL0     C19491   4.945   7.403   4.998 -0.4244 -0.6387 -0.5413
  886MOL0     N19492   4.975   7.492   5.114 -0.0253  0.6484 -0.4801
  886MOL0     C19493   5.093   7.497   5.184  0.2899 -0.9220 -0.4511
  886MOL0     C19494   5.070   7.578   5.294  0.3891 -0.0805 -0.0478
  886MOL0     C19495   5.158   7.617   5.413 -0.2135  0.9457  0.2664
  886MOL0     C19496   5.170   7.521   5.530  0.0354 -0.4224 -0.7403
  886MOL0     C19497   5.259   7.572   5.652  0.4646 -0.0723  0.6158
  886MOL0     C19498   5.205   7.698   5.727 -0.6723 -0.1429  0.7158
  886MOL0     O19499   5.266   7.736   5.849  0.6057  0.1653 -0.9379
  886MOL0     C19500   5.242   7.866   5.889  0.3438  0.0779 -0.7802
  886MOL0     C19501   5.131   7.946   5.847  0.0195  0.2937  0.7705
  886MOL0     C19502   5.104   8.076   5.892  0.0687  0.0757  1.0776
  886MOL0     C19503   4.977   8.144   5.837 -0.0048  0.0459 -0.6146
  886MOL0     C19504   5.188   8.133   5.984  0.4103 -0.4913  0.2633
  886MOL0     C19505   5.174   8.274   6.046  0.2568 -0.5538  0.9769
  886MOL0     O19506   5.268   8.299   6.136 -0.4707  0.6915 -0.6702
  886MOL0     C19507   5.289   8.427   6.179 -0.1207  0.4412  0.3484
  886MOL0     C19508   5.416   8.480   6.204  0.1137  1.5167  0.5022
  886MOL0     C19509   5.436   8.605   6.257 -0.2728 -1.0299  0.7859
  886MOL0     C19510   5.330   8.688   6.283  0.0540 -0.4635  0.0727
  886MOL0     O19511   5.345   8.811   6.323  0.3865 -0.1811 -0.0463
  886MOL0     C19512   5.470   8.865   6.359  0.3518  0.5303 -1.1925
  886MOL0     C19513   5.455   8.991   6.452 -0.4196  0.5030 -0.1016
  886MOL0     C19514   5.431   9.123   6.375  0.1374  0.2430  0.1349
  886MOL0     C19515   5.437   9.249   6.468  0.5276  0.5496 -0.4949
  886MOL0     C19516   5.370   9.374   6.425 -0.0064  0.1338 -0.8516
  886MOL0     C19517   5.415   9.412   6.283 -0.0694 -0.0631 -0.0031
  886MOL0     C19518   5.370   9.550   6.249  0.5273 -0.3674 -0.4189
  886MOL0     C19519   5.220   9.556   6.193 -0.1813  0.1139  0.4316
  886MOL0    Cl19520   5.200   9.698   6.086  0.3115  0.2299 -0.3904
  886MOL0     C19521   5.197   8.638   6.269  0.4571  0.0972  0.1291
  886MOL0     C19522   5.177   8.502   6.226  0.6560  0.3024  0.1810
  886MOL0     O19523   5.094   8.354   6.006  0.8601 -0.3937  0.2210
  886MOL0     C19524   5.305   8.068   6.009 -0.4124  0.0387 -0.3776
  886MOL0     C19525   5.330   7.932   5.967  0.3952  0.0175  0.7872
  886MOL0     N19526   4.941   7.613   5.287  0.5993 -0.3985 -0.3711
  886MOL0     N19527   4.878   7.564   5.186 -0.9924  0.4730 -0.5118
  886MOL0     C19528   5.523   7.695   4.950  0.6077  0.5898 -0.0905
  886MOL0     C19529   5.597   7.751   5.059 -0.1350  0.3483 -0.4407
  886MOL0     C19530   5.913   7.808   5.372  0.3791  0.2090 -0.2498
  886MOL0     C19531   6.024   7.761   5.451  0.2154  0.2284  0.6370
  886MOL0     C19532   6.089   7.845   5.546 -0.1367  0.8820 -0.7214
  886MOL0     C19533   6.049   7.978   5.554  0.7956 -0.6214 -0.0606
  886MOL0     O19534   6.118   8.066   5.632 -0.6562  0.8150 -0.1707
  886MOL0     C19535   6.099   8.202   5.643  0.5684 -0.8937 -0.3217
  886MOL0     C19536   6.175   8.264   5.531 -0.6705 -0.5732  0.5237
  886MOL0     C19537   6.324   8.224   5.524 -0.1506  0.7983 -0.0955
  886MOL0     C19538   6.391   8.306   5.414  0.3320 -0.4618 -0.2338
  886MOL0     C19539   6.529   8.267   5.382  0.0320  0.4313  0.3717
  886MOL0     C19540   6.631   8.216   5.334  1.2024 -0.1481  0.4304
  886MOL0     C19541   5.933   8.025   5.484  0.1838  0.5013 -0.4668
  886MOL0     C19542   5.871   7.942   5.390 -0.2137 -0.9534 -0.9860
  886MOL0     H19543   5.908   7.724   4.939  0.2474  0.4246 -1.9250
  886MOL0     H19544   5.785   7.617   4.755  0.1349 -0.3286  1.2692
  886MOL0     H19545   5.655   7.427   4.668 -0.2839  0.4028 -2.2944
  886MOL0     H19546   5.515   7.369   4.761 -1.1005 -1.0049 -1.6219
  886MOL0     H19547   5.512   7.499   4.492 -0.3945 -1.0912 -0.9254
  886MOL0     H19548   5.503   7.330   4.516  1.1908  1.4356 -0.8336
  886MOL0     H19549   5.319   7.578   4.560  2.2468  0.2036  1.4887
  886MOL0     H19550   5.302   7.442   4.452  0.2605  2.2745 -0.5098
  886MOL0     H19551   5.263   7.284   4.635  2.5899  1.4395  0.0150
  886MOL0     H19552   5.264   7.410   4.755 -2.3638 -2.4103  0.7246
  886MOL0     H19553   5.074   7.517   4.612  1.9058 -0.6027 -1.0355
  886MOL0     H19554   5.061   7.365   4.533  0.6013 -0.5357  0.0676
  886MOL0     H19555   4.894   7.358   4.706  0.1914 -1.6347 -1.1649
  886MOL0     H19556   5.035   7.268   4.772  3.8023  1.1580  1.0958
  886MOL0     H19557   5.120   7.481   4.883 -0.9680  0.7730  0.7014
  886MOL0     H19558   4.959   7.550   4.848 -0.2708 -0.4180 -1.7844
  886MOL0     H19559   4.975   7.301   5.022  4.3346  0.7953  0.7904
  886MOL0     H19560   4.838   7.417   4.987 -0.1932  3.9710  0.7568
  886MOL0     H19561   5.187   7.449   5.159  1.0222  1.2923 -2.2743
  886MOL0     H19562   5.259   7.624   5.373  0.1390 -0.9431  0.7289
  886MOL0     H19563   5.127   7.718   5.442  0.1469  1.1061  0.1009
  886MOL0     H19564   5.205   7.426   5.490  0.8774  0.0465 -1.1335
  886MOL0     H19565   5.069   7.507   5.569 -0.5463  1.9309 -1.2058
  886MOL0     H19566   5.364   7.585   5.626 -0.0195  0.5688 -1.1404
  886MOL0     H19567   5.257   7.491   5.726  0.8969  3.3242  4.7670
  886MOL0     H19568   5.098   7.680   5.744 -0.5437  0.0788  1.8551
  886MOL0     H19569   5.212   7.776   5.650  1.0274 -1.5852 -0.6712
  886MOL0     H19570   5.056   7.909   5.778 -0.4710 -0.9621  1.9446
  886MOL0     H19571   4.923   8.202   5.912 -1.8635  1.6530 -3.0673
  886MOL0     H19572   5.030   8.208   5.765  1.1157 -1.5446 -1.2510
  886MOL0     H19573   4.911   8.071   5.792 -1.8291  1.2550  0.0019
  886MOL0     H19574   5.501   8.422   6.167  0.3551  2.8262 -1.1215
  886MOL0     H19575   5.538   8.642   6.264 -1.4434  2.6184  0.3085
  886MOL0     H19576   5.514   8.782   6.415  1.6035  0.7713 -1.7958
  886MOL0     H19577   5.528   8.894   6.271  0.8676  0.9441 -0.7204
  886MOL0     H19578   5.377   8.973   6.527  0.1348  1.2365  0.6670
  886MOL0     H19579   5.540   9.007   6.518 -1.8004  0.4012  1.8116
  886MOL0     H19580   5.327   9.124   6.341 -0.0285 -1.9781  0.4262
  886MOL0     H19581   5.510   9.140   6.301  1.1346  0.3754  1.1969
  886MOL0     H19582   5.389   9.218   6.562  0.7391  4.5144  1.1067
  886MOL0     H19583   5.542   9.262   6.494 -0.4841 -0.7576  6.1434
  886MOL0     H19584   5.397   9.459   6.488 -1.6041  0.4363 -0.5576
  886MOL0     H19585   5.261   9.374   6.434 -0.3691  0.4939 -4.1845
  886MOL0     H19586   5.523   9.393   6.273 -0.4762 -2.3338 -0.6332
  886MOL0     H19587   5.373   9.347   6.206  1.0250 -0.2169 -0.4929
  886MOL0     H19588   5.440   9.606   6.186 -0.2313 -0.0019 -0.9480
  886MOL0     H19589   5.362   9.610   6.340 -0.4725 -1.5844  0.3262
  886MOL0     H19590   5.149   9.556   6.276 -1.3427  1.2506 -0.5361
  886MOL0     H19591   5.202   9.468   6.130 -2.3067 -0.1224  1.2938
  886MOL0     H19592   5.114   8.693   6.312  0.0474 -1.8778  2.1015
  886MOL0     H19593   5.085   8.445   6.233  1.3083 -0.6468  1.7190
  886MOL0     H19594   5.389   8.113   6.061 -1.4570  1.0281  0.5036
  886MOL0     H19595   5.423   7.882   5.993  1.0222  1.6716  1.8964
  886MOL0     H19596   5.415   7.700   4.946  0.6467  0.6180 -1.5735
  886MOL0     H19597   5.552   7.781   5.153  1.5003  1.0630  0.1450
  886MOL0     H19598   6.059   7.658   5.442 -0.8441 -0.0104 -1.6153
  886MOL0     H19599   6.170   7.808   5.608 -2.4917 -1.1222  1.3872
  886MOL0     H19600   5.994   8.233   5.649 -0.0410 -2.6275 -1.2344
  886MOL0     H19601   6.143   8.225   5.740 -2.1286  1.4500  0.4915
  886MOL0     H19602   6.166   8.373   5.534  0.9597  0.0692 -5.1538
  886MOL0     H19603   6.139   8.245   5.429 -0.2895 -0.9206  0.4493
  886MOL0     H19604   6.328   8.117   5.502  0.5230  1.2371 -2.4062
  886MOL0     H19605   6.359   8.252   5.623 -0.1899  0.8738 -0.1032
  886MOL0     H19606   6.396   8.413   5.438 -0.8083 -0.7848  1.6854
  886MOL0     H19607   6.334   8.307   5.321  0.6721  0.4197 -0.4463
  886MOL0     H19608   6.716   8.178   5.280 -0.6261 -0.4394 -2.5013
  886MOL0     H19609   5.895   8.124   5.508 -1.7928  0.2692 -2.3155
  886MOL0     H19610   5.782   7.992   5.352 -0.1055 -0.9618 -1.2552
  887MOL0     O19611   3.605   8.455   7.884 -0.0084 -0.4177  0.5139
  887MOL0     C19612   3.672   8.356   7.865 -0.3702 -0.3400  0.1918
  887MOL0     O19613   3.791   8.323   7.924 -1.3534 -0.5877 -0.1970
  887MOL0     C19614   3.877   8.406   7.995  0.1558 -0.6198  0.8774
  887MOL0     C19615   3.858   8.542   8.015 -0.2638 -0.3803 -0.1873
  887MOL0     C19616   3.952   8.621   8.087 -0.3237  0.2207 -0.6034
  887MOL0     C19617   4.064   8.562   8.149 -0.7230  0.7244  1.1623
  887MOL0     O19618   4.148   8.627   8.234 -0.4616 -0.6833 -0.6412
  887MOL0     C19619   4.244   8.704   8.165 -0.1619 -0.2695  0.3208
  887MOL0     C19620   4.301   8.806   8.268 -0.4811  0.1126 -1.1378
  887MOL0     C19621   4.194   8.899   8.332  0.6736 -0.6118  0.6532
  887MOL0     C19622   4.266   9.020   8.411  1.1599  0.2248 -0.5695
  887MOL0     C19623   4.160   9.102   8.482  1.0247 -0.1025  0.4272
  887MOL0     C19624   4.115   9.229   8.411 -1.0270 -0.3419 -0.1713
  887MOL0     C19625   4.086   9.353   8.495  0.3202  0.3251 -0.0274
  887MOL0     C19626   3.962   9.319   8.587 -0.8082 -0.1582 -0.7664
  887MOL0     N19627   3.842   9.342   8.500  0.1183 -0.8421  0.2398
  887MOL0     C19628   3.752   9.250   8.449 -0.1332  0.1593 -0.7594
  887MOL0     C19629   3.664   9.326   8.377  0.4126 -0.8394  0.0403
  887MOL0     C19630   3.546   9.281   8.302 -0.9389  0.3526 -0.2994
  887MOL0     C19631   3.424   9.294   8.398  0.5765 -0.6000  0.9161
  887MOL0     C19632   3.291   9.337   8.331 -0.4670 -0.4666  0.6029
  887MOL0     C19633   3.297   9.490   8.295  0.7547 -0.0033  0.2405
  887MOL0     O19634   3.160   9.537   8.280 -0.3697 -0.2387  0.6285
  887MOL0     C19635   3.139   9.672   8.262 -0.6372  0.3158 -0.6895
  887MOL0     C19636   3.237   9.769   8.292 -0.0039 -0.2817  0.5224
  887MOL0     C19637   3.208   9.910   8.280 -0.5854 -0.4393  0.9883
  887MOL0     C19638   3.325  10.003   8.318 -0.6425  0.2076  0.2793
  887MOL0     C19639   3.076   9.952   8.250  0.6752  0.6525  0.3035
  887MOL0     C19640   3.031  10.092   8.226 -0.4895 -0.1369 -0.4484
  887MOL0     O19641   2.908  10.131   8.268 -0.8947  0.1085 -0.1522
  887MOL0     C19642   2.837  10.085   8.379  0.6176  0.1716 -0.3007
  887MOL0     C19643   2.897  10.065   8.503  0.2705 -0.1761 -0.0621
  887MOL0     C19644   2.835  10.036   8.623  0.6673 -0.9713 -0.6770
  887MOL0     C19645   2.700  10.037   8.629  0.0243 -0.0517 -0.3095
  887MOL0     O19646   2.630  10.028   8.744 -0.6001 -0.6783  0.6676
  887MOL0     C19647   2.652  10.131   8.844 -0.3945  0.6356 -0.4077
  887MOL0     C19648   2.522  10.194   8.867 -0.3153 -0.2512  0.2150
  887MOL0     C19649   2.535  10.290   8.988  0.1660 -0.2352 -0.4110
  887MOL0     C19650   2.412  10.381   9.009 -0.9120  0.1615 -0.2117
  887MOL0     C19651   2.443  10.490   9.116  0.3804 -0.3466  0.0873
  887MOL0     C19652   2.417  10.445   9.257 -0.4358 -0.7484  0.4081
  887MOL0     C19653   2.268  10.444   9.280  0.6850 -0.4883 -1.3042
  887MOL0     C19654   2.229  10.338   9.392  0.7120  0.3310  0.1607
  887MOL0    Cl19655   2.254  10.178   9.315 -0.2913  0.2361 -0.0781
  887MOL0     C19656   2.627  10.042   8.510 -0.3519  0.2795 -0.0990
  887MOL0     C19657   2.691  10.064   8.383  0.3470  0.0242 -0.5747
  887MOL0     O19658   3.096  10.164   8.153  0.5549 -0.3134 -0.2371
  887MOL0     C19659   2.979   9.849   8.228  0.9357  0.8510 -0.1876
  887MOL0     C19660   3.008   9.706   8.233 -0.9418  0.4724  0.6459
  887MOL0     N19661   3.698   9.458   8.397 -0.7646 -0.0605 -0.0712
  887MOL0     N19662   3.807   9.466   8.460 -0.0303 -0.2863 -0.0059
  887MOL0     C19663   4.071   8.420   8.137  0.9186 -0.1468 -0.8988
  887MOL0     C19664   3.984   8.347   8.061  0.2003 -0.1609 -0.1410
  887MOL0     C19665   3.607   8.245   7.785 -0.2431 -0.5919 -0.3831
  887MOL0     C19666   3.682   8.140   7.731 -0.1029  0.0076  0.0630
  887MOL0     C19667   3.637   8.024   7.670  0.4080 -0.0286  0.2198
  887MOL0     C19668   3.498   8.006   7.667 -0.1729 -0.5498 -0.1103
  887MOL0     O19669   3.451   7.892   7.604  0.1996 -0.0505  0.3475
  887MOL0     C19670   3.311   7.895   7.560 -1.2732 -0.6886  0.2355
  887MOL0     C19671   3.298   7.802   7.434  0.6631  0.1125 -0.0085
  887MOL0     C19672   3.311   7.664   7.490 -0.1983  0.7259 -0.0843
  887MOL0     C19673   3.321   7.558   7.380  1.5976  0.2358 -0.2997
  887MOL0     C19674   3.350   7.419   7.438 -0.1223  0.4684 -0.1501
  887MOL0     C19675   3.384   7.322   7.503  0.5784 -0.4718  0.4978
  887MOL0     C19676   3.410   8.112   7.715 -0.2014 -0.5537 -0.1347
  887MOL0     C19677   3.475   8.234   7.762 -0.4174  0.5663 -0.7529
  887MOL0     H19678   3.771   8.590   7.970 -1.5053 -2.2778  0.1031
  887MOL0     H19679   3.933   8.727   8.091  1.6218  0.6059 -0.4347
  887MOL0     H19680   4.322   8.641   8.122  0.4683  0.5599  0.2291
  887MOL0     H19681   4.188   8.771   8.099 -3.0343 -0.4974  2.3217
  887MOL0     H19682   4.355   8.740   8.337 -0.8692 -0.7751 -1.6574
  887MOL0     H19683   4.389   8.858   8.231  1.1991 -0.0041  2.3060
  887MOL0     H19684   4.126   8.944   8.259 -2.4888 -0.9278  3.1763
  887MOL0     H19685   4.135   8.830   8.392  1.0761 -1.3316  0.2484
  887MOL0     H19686   4.336   8.999   8.493  1.1527  2.5669  0.1214
  887MOL0     H19687   4.326   9.078   8.341  1.1911 -0.8468 -1.4454
  887MOL0     H19688   4.074   9.040   8.511  1.1781 -1.2391 -1.3603
  887MOL0     H19689   4.201   9.128   8.579 -0.5706  1.4080  0.7475
  887MOL0     H19690   4.206   9.249   8.353 -0.4621 -0.2970  0.7152
  887MOL0     H19691   4.036   9.201   8.340 -0.5867 -1.2777 -0.3141
  887MOL0     H19692   4.163   9.388   8.564 -1.4193  2.5425  0.9278
  887MOL0     H19693   4.068   9.441   8.432  1.5714 -0.3201 -1.3333
  887MOL0     H19694   3.972   9.392   8.668 -1.5512 -1.2960  0.3926
  887MOL0     H19695   3.963   9.219   8.631 -0.8035  0.4879  0.7672
  887MOL0     H19696   3.749   9.142   8.454 -0.9018  0.1737 -0.7597
  887MOL0     H19697   3.531   9.337   8.209 -0.6034 -0.1408 -0.6580
  887MOL0     H19698   3.566   9.177   8.273 -1.1634 -0.8424  3.3742
  887MOL0     H19699   3.437   9.373   8.474 -0.3832 -1.4355  1.9812
  887MOL0     H19700   3.413   9.192   8.437  0.8530 -0.8554  0.3313
  887MOL0     H19701   3.212   9.294   8.394 -1.4097 -1.4370 -1.1392
  887MOL0     H19702   3.262   9.290   8.236  0.3906  0.2907 -0.0548
  887MOL0     H19703   3.357   9.491   8.204 -1.1452 -3.8715 -1.2807
  887MOL0     H19704   3.340   9.551   8.376 -1.6847  0.7448  1.0615
  887MOL0     H19705   3.341   9.757   8.321  0.0796  1.1829  0.8772
  887MOL0     H19706   3.325  10.104   8.275 -2.7720  1.1926  2.3869
  887MOL0     H19707   3.328  10.016   8.426 -2.5533 -1.0989  0.5526
  887MOL0     H19708   3.423   9.963   8.289 -0.4072  0.5732  0.5618
  887MOL0     H19709   3.005  10.080   8.504  0.4655 -1.4521  0.3746
  887MOL0     H19710   2.882  10.024   8.720 -1.2218 -1.5996  0.2209
  887MOL0     H19711   2.686  10.082   8.936 -0.1883  1.5578  0.0196
  887MOL0     H19712   2.726  10.205   8.813  1.9354 -1.0772  0.6975
  887MOL0     H19713   2.498  10.264   8.786  1.2251  0.9308  0.7176
  887MOL0     H19714   2.445  10.121   8.893 -4.4950  3.8340  0.7499
  887MOL0     H19715   2.617  10.360   8.971  1.1150 -1.1349  0.3250
  887MOL0     H19716   2.546  10.229   9.078 -2.0492  0.4738  0.3923
  887MOL0     H19717   2.390  10.421   8.910 -0.0460  0.0783 -0.4462
  887MOL0     H19718   2.331  10.321   9.053 -1.0924 -0.1665 -0.9864
  887MOL0     H19719   2.390  10.582   9.091  1.6428 -0.3362 -3.0556
  887MOL0     H19720   2.542  10.537   9.117 -0.8277  2.5725 -2.3292
  887MOL0     H19721   2.444  10.339   9.259 -2.4557 -1.4471 -2.3153
  887MOL0     H19722   2.473  10.506   9.328 -1.6257  2.7037 -1.3381
  887MOL0     H19723   2.214  10.404   9.195 -0.7362 -1.6808  0.0950
  887MOL0     H19724   2.229  10.541   9.314 -0.0050 -1.1169 -0.2249
  887MOL0     H19725   2.122  10.349   9.414 -0.2731 -1.9481 -2.6913
  887MOL0     H19726   2.294  10.343   9.480  0.0260 -2.1295  0.9068
  887MOL0     H19727   2.519  10.038   8.518 -0.3946  1.1758 -0.1658
  887MOL0     H19728   2.617  10.063   8.304 -0.6195  4.0788  0.0446
  887MOL0     H19729   2.879   9.888   8.210  1.0835  1.7487  0.8011
  887MOL0     H19730   2.933   9.629   8.215 -0.6405  0.5529 -1.1895
  887MOL0     H19731   4.141   8.363   8.197  0.4938 -1.5586 -1.6871
  887MOL0     H19732   4.009   8.242   8.075 -0.3079  0.0521  3.0360
  887MOL0     H19733   3.790   8.149   7.732  0.0300 -1.0945 -1.3226
  887MOL0     H19734   3.708   7.961   7.618  0.0505  0.0498 -0.3674
  887MOL0     H19735   3.262   7.837   7.639 -0.3354 -4.2843 -1.5981
  887MOL0     H19736   3.267   7.994   7.546  0.6048  0.3438  1.2890
  887MOL0     H19737   3.371   7.823   7.356  1.0628  1.8536  0.7851
  887MOL0     H19738   3.195   7.809   7.398 -1.6704 -1.0111  5.4161
  887MOL0     H19739   3.227   7.638   7.555  0.4715  1.3468  1.0556
  887MOL0     H19740   3.397   7.649   7.556 -2.0076  1.1201  2.5219
  887MOL0     H19741   3.406   7.587   7.319  0.9219 -1.3350 -2.0942
  887MOL0     H19742   3.231   7.548   7.318 -0.3804  1.7485  2.1445
  887MOL0     H19743   3.400   7.241   7.570  0.0814  2.3995  4.4769
  887MOL0     H19744   3.302   8.106   7.708 -0.0414 -1.3368 -3.3673
  887MOL0     H19745   3.419   8.319   7.799 -0.3064  0.8396 -1.2081
  888MOL0     O19746   5.450  11.212   7.054 -0.3097  0.1865 -0.0407
  888MOL0     C19747   5.500  11.325   7.040 -0.5323  0.7041 -0.5787
  888MOL0     O19748   5.600  11.357   6.944 -0.0985 -0.1752  0.6557
  888MOL0     C19749   5.682  11.250   6.892 -0.6298 -0.3478  0.5302
  888MOL0     C19750   5.821  11.261   6.914  0.5992  0.6182  0.1373
  888MOL0     C19751   5.915  11.170   6.875  0.3233  0.7389  0.3512
  888MOL0     C19752   5.872  11.055   6.802 -0.3367 -0.0965  0.2785
  888MOL0     O19753   5.961  10.956   6.762  1.0001 -0.4030 -0.7147
  888MOL0     C19754   6.050  11.003   6.669 -0.6245 -0.0581  0.7560
  888MOL0     C19755   6.166  10.902   6.652 -0.6394 -0.0304  0.8216
  888MOL0     C19756   6.135  10.778   6.555  0.2701  0.0170 -0.6897
  888MOL0     C19757   6.148  10.818   6.409 -0.2733 -0.0605 -0.2422
  888MOL0     C19758   6.115  10.709   6.312 -0.5712 -0.1251 -0.4076
  888MOL0     C19759   6.125  10.763   6.165  0.7720  1.0489 -0.6355
  888MOL0     C19760   6.108  10.649   6.066  0.2854  0.2870 -0.2312
  888MOL0     C19761   6.126  10.693   5.926 -0.5199 -0.9751  0.3678
  888MOL0     N19762   6.016  10.740   5.836 -0.7177 -0.1526  0.2977
  888MOL0     C19763   5.929  10.841   5.857  0.0237  0.2790  0.4267
  888MOL0     C19764   5.849  10.847   5.753  0.2595 -0.7389 -0.1174
  888MOL0     C19765   5.727  10.935   5.732 -0.1524  0.0517  0.0087
  888MOL0     C19766   5.617  10.919   5.846  1.3170 -0.7481  0.2136
  888MOL0     C19767   5.472  10.954   5.779 -0.7478 -0.2664 -0.1134
  888MOL0     C19768   5.361  10.917   5.868 -0.1466 -0.3774 -0.3896
  888MOL0     O19769   5.378  10.983   5.995 -0.1403  0.1379  0.0814
  888MOL0     C19770   5.313  11.107   6.016  0.4296 -0.5782  0.7446
  888MOL0     C19771   5.264  11.191   5.912  0.6894  1.1404 -0.8343
  888MOL0     C19772   5.194  11.310   5.953  0.0409  0.2979  0.1237
  888MOL0     C19773   5.140  11.399   5.840  0.0127 -0.9171 -0.0135
  888MOL0     C19774   5.180  11.341   6.083  0.5364  0.1413  0.1711
  888MOL0     C19775   5.104  11.461   6.135 -0.5804 -0.4290  0.5435
  888MOL0     O19776   5.104  11.472   6.269 -0.0859  0.9543  0.2493
  888MOL0     C19777   5.044  11.577   6.333  0.2448  0.6474  0.3027
  888MOL0     C19778   4.910  11.567   6.368  0.9487 -0.6815  0.0550
  888MOL0     C19779   4.852  11.674   6.444 -0.0683  0.0038 -0.5493
  888MOL0     C19780   4.928  11.787   6.489 -0.0783 -0.4180  0.3937
  888MOL0     O19781   4.876  11.864   6.594  1.1497  0.2338  0.7658
  888MOL0     C19782   4.922  11.997   6.612  0.5194  0.3655  1.0435
  888MOL0     C19783   4.830  12.072   6.715 -0.7645 -0.0681  0.0077
  888MOL0     C19784   4.682  12.032   6.733 -0.5630 -0.0300  0.7861
  888MOL0     C19785   4.594  12.146   6.803 -0.7066  0.4000  0.6698
  888MOL0     C19786   4.453  12.085   6.824  0.4453  0.2428 -0.1999
  888MOL0     C19787   4.347  12.127   6.728  0.5415 -1.0526  0.1108
  888MOL0     C19788   4.207  12.095   6.772  0.1171 -0.5060 -0.6010
  888MOL0     C19789   4.105  12.096   6.658 -0.0839  0.1417  0.1151
  888MOL0    Cl19790   4.110  12.250   6.575 -0.1568  0.2914 -0.1303
  888MOL0     C19791   5.056  11.798   6.440  0.6885  0.3069 -0.1155
  888MOL0     C19792   5.110  11.694   6.355  0.0563 -0.7374  0.5883
  888MOL0     O19793   5.034  11.533   6.065  0.7290  0.1726 -0.3627
  888MOL0     C19794   5.214  11.249   6.183 -0.2967  0.1929 -1.1988
  888MOL0     C19795   5.275  11.128   6.154 -0.9299 -0.3546  0.2567
  888MOL0     N19796   5.897  10.752   5.664  0.1729 -0.0839 -0.1683
  888MOL0     N19797   6.002  10.691   5.710  0.0116 -0.2450 -0.4450
  888MOL0     C19798   5.734  11.036   6.794  0.3341  0.4292  0.8739
  888MOL0     C19799   5.645  11.129   6.826 -0.0239 -0.5902 -0.2465
  888MOL0     C19800   5.444  11.438   7.120  0.3336  0.0796 -1.1710
  888MOL0     C19801   5.316  11.427   7.187  0.0508  1.4420  0.0780
  888MOL0     C19802   5.256  11.540   7.250  0.2785  0.0612 -0.1344
  888MOL0     C19803   5.329  11.664   7.260 -0.3503 -0.3067 -0.1854
  888MOL0     O19804   5.277  11.782   7.318 -0.2698 -0.2181 -0.4244
  888MOL0     C19805   5.149  11.804   7.361  0.7324 -0.5285  0.8751
  888MOL0     C19806   5.073  11.828   7.235  0.0419  0.1846  0.2112
  888MOL0     C19807   5.095  11.968   7.170  0.0846 -0.4287 -0.7654
  888MOL0     C19808   5.016  11.979   7.049  0.0156 -0.8247  0.6618
  888MOL0     C19809   4.873  12.011   7.078 -0.1139  0.4995 -0.0119
  888MOL0     C19810   4.753  12.022   7.095 -0.1609  0.4013  0.7854
  888MOL0     C19811   5.456  11.667   7.200 -0.2249  0.4938  0.2504
  888MOL0     C19812   5.513  11.553   7.132 -0.3702 -0.9238  0.2353
  888MOL0     H19813   5.855  11.353   6.959 -3.1402  2.1074  0.2947
  888MOL0     H19814   6.016  11.183   6.912  1.2074 -1.9490 -0.8304
  888MOL0     H19815   6.010  11.039   6.574  1.8199  3.3167  0.8192
  888MOL0     H19816   6.110  11.089   6.698 -3.3591  1.8494  1.1144
  888MOL0     H19817   6.258  10.951   6.620 -0.8029  0.9167  1.7301
  888MOL0     H19818   6.191  10.861   6.750 -1.7832 -1.0938  0.6836
  888MOL0     H19819   6.200  10.693   6.578  1.6746  1.1091 -0.4765
  888MOL0     H19820   6.035  10.738   6.574  0.5529 -0.7561 -0.8069
  888MOL0     H19821   6.090  10.907   6.381  0.0909  0.3930  0.4177
  888MOL0     H19822   6.254  10.842   6.398  0.7831 -3.5881  0.8620
  888MOL0     H19823   6.189  10.628   6.320 -0.8429 -0.5911 -2.2259
  888MOL0     H19824   6.011  10.678   6.323 -0.4287 -0.3462  0.4112
  888MOL0     H19825   6.049  10.840   6.146  1.6032  1.9726 -0.2989
  888MOL0     H19826   6.215  10.820   6.140 -0.7555  3.3857 -1.1606
  888MOL0     H19827   6.189  10.580   6.093 -1.8139 -1.6504  1.5063
  888MOL0     H19828   6.014  10.596   6.080  0.5788  0.0126  0.8144
  888MOL0     H19829   6.172  10.609   5.872 -0.8303 -1.4219  0.7906
  888MOL0     H19830   6.199  10.774   5.926 -0.4068 -1.0387 -1.1647
  888MOL0     H19831   5.927  10.903   5.946  2.0075  2.9917 -1.2657
  888MOL0     H19832   5.749  11.041   5.721 -1.8017  0.2038 -3.0859
  888MOL0     H19833   5.679  10.907   5.637 -1.2273  3.1586 -0.4706
  888MOL0     H19834   5.632  10.984   5.933 -0.5137 -0.7355  0.5609
  888MOL0     H19835   5.612  10.816   5.882  0.9922 -0.7930  0.0466
  888MOL0     H19836   5.452  10.903   5.684 -2.2720 -0.5718  0.3411
  888MOL0     H19837   5.471  11.061   5.757 -0.5929 -0.2585 -0.0808
  888MOL0     H19838   5.362  10.808   5.878 -4.7330 -0.6082 -0.5345
  888MOL0     H19839   5.258  10.940   5.839 -0.6724 -1.5842  0.4274
  888MOL0     H19840   5.287  11.157   5.812  1.8426 -0.0202 -0.2145
  888MOL0     H19841   5.176  11.503   5.839 -2.8146  0.2807  2.8944
  888MOL0     H19842   5.165  11.359   5.741  0.0952  2.4024 -1.4935
  888MOL0     H19843   5.031  11.413   5.849  0.0232 -0.5133 -0.4364
  888MOL0     H19844   4.849  11.478   6.356  0.4759 -0.4363  0.5835
  888MOL0     H19845   4.753  11.654   6.483  0.4762 -3.2175 -0.5170
  888MOL0     H19846   5.028  12.010   6.633  0.2824  1.2724  1.7606
  888MOL0     H19847   4.905  12.054   6.520  0.3065  2.9215  2.5582
  888MOL0     H19848   4.870  12.052   6.815 -0.5718  3.1198  0.7003
  888MOL0     H19849   4.845  12.178   6.692  1.6648 -0.2922  0.3020
  888MOL0     H19850   4.683  11.938   6.789  1.5127 -0.2139  0.4896
  888MOL0     H19851   4.636  12.019   6.634  0.5508  1.1462  0.0838
  888MOL0     H19852   4.624  12.167   6.905 -1.0984  1.1386  0.6416
  888MOL0     H19853   4.591  12.243   6.754 -0.9491 -0.4712 -1.1547
  888MOL0     H19854   4.429  12.118   6.926  3.2352 -0.5519  0.8241
  888MOL0     H19855   4.458  11.977   6.840  0.1508  0.4493  1.5348
  888MOL0     H19856   4.362  12.233   6.702  2.1643 -0.3823  3.2419
  888MOL0     H19857   4.362  12.065   6.639 -0.5433 -3.1410  1.3240
  888MOL0     H19858   4.194  12.174   6.846 -0.2205 -0.1156 -1.0689
  888MOL0     H19859   4.194  11.997   6.820 -3.8140 -1.0654 -2.4544
  888MOL0     H19860   4.011  12.078   6.710  0.7591 -4.1597  0.5559
  888MOL0     H19861   4.122  12.012   6.590 -0.6050  2.2202 -2.7842
  888MOL0     H19862   5.128  11.872   6.474  0.0980  0.8553 -0.0311
  888MOL0     H19863   5.207  11.700   6.306  0.1952  2.6977  1.0805
  888MOL0     H19864   5.188  11.264   6.287  1.3611  1.0615 -0.8792
  888MOL0     H19865   5.315  11.064   6.233 -3.1242 -1.7297  0.3274
  888MOL0     H19866   5.709  10.953   6.729  3.5508  1.6397 -2.3195
  888MOL0     H19867   5.540  11.127   6.798  0.5919  2.5505 -3.6038
  888MOL0     H19868   5.248  11.342   7.188  0.7482  0.8575  2.1363
  888MOL0     H19869   5.158  11.544   7.297  0.6478  0.3673  0.6206
  888MOL0     H19870   5.106  11.715   7.406  0.2120 -0.2015  1.0398
  888MOL0     H19871   5.150  11.890   7.429  0.2086 -0.7769  1.1993
  888MOL0     H19872   4.969  11.800   7.254 -0.0550  1.0993  1.1037
  888MOL0     H19873   5.099  11.758   7.155 -0.0125  0.8050 -0.3661
  888MOL0     H19874   5.200  11.994   7.153  0.0667  0.8985  0.9215
  888MOL0     H19875   5.058  12.046   7.238  0.1954 -0.6673 -0.4248
  888MOL0     H19876   5.024  11.889   6.987  0.4180 -0.0059 -0.5009
  888MOL0     H19877   5.054  12.066   6.994 -0.5274 -1.5473 -0.9184
  888MOL0     H19878   4.650  12.040   7.117 -0.6911  0.1036 -1.2108
  888MOL0     H19879   5.503  11.765   7.211  1.1405 -0.2256  1.2593
  888MOL0     H19880   5.604  11.559   7.074 -0.4916 -0.1348  0.1233
  889MOL0     O19881   4.606   7.586   8.331  0.4691 -0.3443 -0.7747
  889MOL0     C19882   4.540   7.655   8.415  0.0289 -0.4314  0.7797
  889MOL0     O19883   4.589   7.710   8.534  0.0928  0.0997 -0.5622
  889MOL0     C19884   4.721   7.699   8.572 -0.7486  0.4896  0.4473
  889MOL0     C19885   4.812   7.765   8.490  0.3187  0.5748 -0.5254
  889MOL0     C19886   4.941   7.758   8.523 -0.4834 -0.7412 -0.9207
  889MOL0     C19887   4.997   7.700   8.636  0.4306 -0.0887  0.2801
  889MOL0     O19888   5.132   7.689   8.661 -0.1432 -0.1151  0.2674
  889MOL0     C19889   5.192   7.727   8.789 -0.1330 -0.1819  0.2123
  889MOL0     C19890   5.231   7.601   8.863 -0.1562  0.4431 -0.7672
  889MOL0     C19891   5.324   7.642   8.985  0.2718 -0.0430 -0.3796
  889MOL0     C19892   5.439   7.545   9.011 -0.6353 -0.0132 -0.7782
  889MOL0     C19893   5.519   7.572   9.141  1.0814  1.0368 -0.6937
  889MOL0     C19894   5.591   7.710   9.149 -0.2098  0.5502 -0.2123
  889MOL0     C19895   5.680   7.717   9.271  0.6423  0.0515  0.1874
  889MOL0     C19896   5.741   7.858   9.296  0.9911  0.0359 -0.1147
  889MOL0     N19897   5.813   7.875   9.428 -0.4689 -0.8697  0.6410
  889MOL0     C19898   5.752   7.916   9.546  0.1487  0.8376 -0.0638
  889MOL0     C19899   5.841   7.891   9.647  0.2894  0.0390  1.3448
  889MOL0     C19900   5.801   7.926   9.797  0.0612 -0.3986  0.0961
  889MOL0     C19901   5.669   7.865   9.835  0.1745  0.5974 -0.3986
  889MOL0     C19902   5.646   7.871   9.993  0.6508 -0.6221  0.6636
  889MOL0     C19903   5.501   7.810  10.030 -0.0510  0.4378  1.0329
  889MOL0     O19904   5.407   7.908   9.974  0.2675 -0.1148 -0.1223
  889MOL0     C19905   5.278   7.915  10.018  0.1398  1.3478  0.8850
  889MOL0     C19906   5.212   8.034   9.985  0.4861 -0.0775  0.3965
  889MOL0     C19907   5.073   8.048  10.006  0.0183 -0.6198  0.3475
  889MOL0     C19908   5.022   8.190   9.973 -0.2367  0.3073 -0.0121
  889MOL0     C19909   5.002   7.950  10.083 -0.0105 -0.1479 -0.6156
  889MOL0     C19910   4.862   7.958  10.122  0.1507  0.3711 -0.3060
  889MOL0     O19911   4.792   8.064  10.058  0.1395 -0.1220 -0.8476
  889MOL0     C19912   4.649   8.086  10.071  0.7468  0.5923  0.3957
  889MOL0     C19913   4.604   8.198  10.004  0.2139  0.6882  0.0439
  889MOL0     C19914   4.466   8.226  10.002  0.0941  1.2526  0.3100
  889MOL0     C19915   4.377   8.149  10.078 -0.1960 -0.0967  0.3891
  889MOL0     O19916   4.237   8.174  10.083  0.4487  0.4831 -0.1016
  889MOL0     C19917   4.171   8.157   9.950 -0.4809  0.8129 -0.3736
  889MOL0     C19918   4.043   8.078   9.971  0.4168  1.0683 -0.9781
  889MOL0     C19919   3.978   8.076   9.835 -0.2973 -0.4500 -0.8072
  889MOL0     C19920   3.831   8.046   9.835 -0.1019  0.4510  0.6225
  889MOL0     C19921   3.801   7.907   9.784  0.4658 -1.0835  0.0476
  889MOL0     C19922   3.798   7.807   9.889  0.7754 -0.5197  0.4682
  889MOL0     C19923   3.780   7.667   9.831 -0.0329  0.3020 -0.0012
  889MOL0     C19924   3.738   7.563   9.935 -0.5741 -0.3569 -0.7127
  889MOL0    Cl19925   3.864   7.511  10.047 -0.2336  0.0319  0.2373
  889MOL0     C19926   4.417   8.042  10.148 -0.4457 -0.0454  0.3833
  889MOL0     C19927   4.553   8.006  10.144 -0.1742 -0.0551  0.2453
  889MOL0     O19928   4.819   7.884  10.220  0.0475  0.1003  0.4955
  889MOL0     C19929   5.072   7.837  10.119  0.4532  0.8995  1.0722
  889MOL0     C19930   5.205   7.814  10.085 -0.4897  0.4880  1.1406
  889MOL0     N19931   5.952   7.834   9.587 -0.8158 -0.0116 -0.3542
  889MOL0     N19932   5.929   7.811   9.467 -0.9055 -0.3808 -0.1772
  889MOL0     C19933   4.901   7.633   8.715 -0.2887 -0.1788  0.0874
  889MOL0     C19934   4.766   7.632   8.689  0.6121 -0.7124 -0.1293
  889MOL0     C19935   4.398   7.697   8.384 -0.7738  0.5724 -0.1045
  889MOL0     C19936   4.320   7.630   8.285 -0.9708 -0.4024 -0.9881
  889MOL0     C19937   4.200   7.686   8.250  0.6851  1.1056  0.0414
  889MOL0     C19938   4.160   7.815   8.287  0.4600 -0.1885  0.2302
  889MOL0     O19939   4.050   7.887   8.231 -0.1879 -0.3406 -0.8175
  889MOL0     C19940   3.943   7.809   8.173 -0.5872  0.5783 -0.9364
  889MOL0     C19941   3.860   7.737   8.285  0.8642  0.2543  0.2531
  889MOL0     C19942   3.798   7.824   8.390  0.4981 -0.2391  0.2704
  889MOL0     C19943   3.685   7.766   8.480  0.3190 -0.0471  0.2505
  889MOL0     C19944   3.629   7.846   8.583 -0.7920  0.3358 -0.6008
  889MOL0     C19945   3.574   7.911   8.666 -0.4822 -0.0993 -0.6911
  889MOL0     C19946   4.232   7.871   8.389 -0.2077  0.1095 -1.2687
  889MOL0     C19947   4.355   7.818   8.441 -0.6404 -0.1936  0.3630
  889MOL0     H19948   4.775   7.835   8.415  0.6158  1.8907  0.5328
  889MOL0     H19949   5.007   7.805   8.450  1.1593 -0.8481  0.4457
  889MOL0     H19950   5.280   7.790   8.772 -0.1513  0.9457  3.4712
  889MOL0     H19951   5.136   7.785   8.862  2.5323 -0.5309  2.7676
  889MOL0     H19952   5.142   7.543   8.891  0.0688 -0.1896 -1.3334
  889MOL0     H19953   5.268   7.542   8.780 -1.2089  0.5005 -1.2951
  889MOL0     H19954   5.354   7.745   8.962  1.1515 -0.5931 -1.8246
  889MOL0     H19955   5.258   7.644   9.072 -1.7401  1.9151 -1.8648
  889MOL0     H19956   5.396   7.445   9.008  0.7190 -0.6100 -1.0968
  889MOL0     H19957   5.507   7.537   8.925  0.4959 -0.4559  0.1398
  889MOL0     H19958   5.442   7.550   9.215  2.7405 -2.9271  0.1128
  889MOL0     H19959   5.580   7.481   9.148 -1.8258 -0.9728  0.7579
  889MOL0     H19960   5.654   7.725   9.061 -0.4899 -4.1763 -1.4561
  889MOL0     H19961   5.525   7.796   9.162  2.0279  2.2251  0.7703
  889MOL0     H19962   5.625   7.690   9.361 -1.8886  2.5651 -0.4757
  889MOL0     H19963   5.752   7.636   9.257 -1.9632 -2.0835 -2.0765
  889MOL0     H19964   5.656   7.925   9.280 -0.3128 -0.9603  2.1021
  889MOL0     H19965   5.818   7.878   9.222 -0.1496  0.5323 -1.1989
  889MOL0     H19966   5.649   7.947   9.559 -0.4363 -0.0534 -2.0763
  889MOL0     H19967   5.874   7.888   9.869 -0.2751 -0.1238  0.5815
  889MOL0     H19968   5.781   8.033   9.802 -3.6471 -1.0051  0.8384
  889MOL0     H19969   5.659   7.761   9.801 -0.1644  0.5631 -0.1953
  889MOL0     H19970   5.582   7.909   9.786 -0.5550 -0.4667 -0.0931
  889MOL0     H19971   5.662   7.969  10.038  1.2225 -0.8605  0.9898
  889MOL0     H19972   5.711   7.796  10.039  0.2658 -0.2669  1.8205
  889MOL0     H19973   5.495   7.814  10.139  2.1695  3.6347  1.1702
  889MOL0     H19974   5.475   7.709   9.997 -1.0240  2.0238 -3.7799
  889MOL0     H19975   5.266   8.119   9.943 -1.5175  2.4213  2.4712
  889MOL0     H19976   4.958   8.229  10.053 -1.3621  2.6826 -1.9305
  889MOL0     H19977   5.096   8.269   9.959 -1.8067  1.5678 -1.7211
  889MOL0     H19978   4.958   8.188   9.884 -0.3054 -2.1506  0.0177
  889MOL0     H19979   4.678   8.268   9.966 -0.3587  1.0555 -0.4194
  889MOL0     H19980   4.430   8.311   9.944 -4.6434 -0.6208  0.0001
  889MOL0     H19981   4.154   8.251   9.897  0.8541  2.2549  1.5876
  889MOL0     H19982   4.239   8.108   9.880 -0.3873  2.8395 -1.7878
  889MOL0     H19983   4.045   7.974  10.007 -1.5256  0.7189 -1.7611
  889MOL0     H19984   3.982   8.134  10.041 -0.2491 -0.2328 -0.4877
  889MOL0     H19985   4.037   8.024   9.759 -0.2714 -0.3677 -0.8445
  889MOL0     H19986   3.981   8.182   9.805  0.7375  0.1102  1.0830
  889MOL0     H19987   3.793   8.044   9.937 -0.7912  0.1817  0.3718
  889MOL0     H19988   3.783   8.127   9.780  0.1555  3.4108  4.3817
  889MOL0     H19989   3.883   7.891   9.713 -0.9374 -0.9998 -1.6389
  889MOL0     H19990   3.705   7.918   9.733 -0.6070 -1.8790  1.8026
  889MOL0     H19991   3.893   7.809   9.944 -0.0817  1.8717  1.9918
  889MOL0     H19992   3.709   7.833   9.947 -0.5915 -3.1448 -0.2733
  889MOL0     H19993   3.874   7.626   9.794 -0.6109 -2.2136  1.1064
  889MOL0     H19994   3.703   7.667   9.754  1.0415  3.1826 -1.2304
  889MOL0     H19995   3.699   7.476   9.882  1.3382 -2.1178  0.5794
  889MOL0     H19996   3.649   7.589   9.993  2.1303  2.8329  2.4937
  889MOL0     H19997   4.343   7.991  10.209 -0.5818  2.0723  2.1101
  889MOL0     H19998   4.592   7.915  10.189  1.9380 -0.2676 -1.8155
  889MOL0     H19999   5.019   7.750  10.156 -0.6336 -0.3346 -2.9043
  889MOL0     H20000   5.255   7.723  10.116 -2.3679 -1.1196 -0.2533
  889MOL0     H20001   4.934   7.574   8.800  0.8195  1.4822  0.8693
  889MOL0     H20002   4.689   7.575   8.740 -1.4472  1.1325 -0.9915
  889MOL0     H20003   4.345   7.533   8.245 -0.5134 -2.1545  3.0264
  889MOL0     H20004   4.141   7.641   8.171  0.2366  2.1547 -0.2433
  889MOL0     H20005   3.867   7.868   8.122 -1.5180  2.2979  2.1823
  889MOL0     H20006   3.978   7.735   8.101  2.1999  0.8808 -0.0179
  889MOL0     H20007   3.934   7.667   8.328  0.6766  1.3319  2.4574
  889MOL0     H20008   3.780   7.674   8.244  1.7484 -1.9896  1.7397
  889MOL0     H20009   3.751   7.913   8.348 -0.7940  0.2820  2.6328
  889MOL0     H20010   3.880   7.862   8.452  0.3257 -0.3152  0.5473
  889MOL0     H20011   3.709   7.667   8.520  0.3426 -0.2068 -0.1661
  889MOL0     H20012   3.603   7.764   8.409 -1.9907  0.4862  2.7203
  889MOL0     H20013   3.519   7.950   8.749 -1.7243 -3.0672  0.0186
  889MOL0     H20014   4.194   7.961   8.438  1.0557 -0.1822  0.3357
  889MOL0     H20015   4.407   7.871   8.520  1.5926 -1.5447 -0.1152
  890MOL0     O20016   2.427  10.154   7.287  0.4907  0.3239 -0.6955
  890MOL0     C20017   2.319  10.097   7.277  0.4496 -0.6371 -0.7164
  890MOL0     O20018   2.239  10.106   7.167  0.3405 -0.3129 -0.3851
  890MOL0     C20019   2.297  10.171   7.063 -0.1047 -0.2011  0.1752
  890MOL0     C20020   2.416  10.129   6.994  0.8482  0.4539  0.5521
  890MOL0     C20021   2.462  10.208   6.882 -0.0829  0.4243  1.8063
  890MOL0     C20022   2.382  10.310   6.831 -0.5642 -0.1125 -0.3009
  890MOL0     O20023   2.407  10.390   6.728  0.0030  0.5080  0.1421
  890MOL0     C20024   2.497  10.350   6.627 -0.0877 -0.5359 -0.8235
  890MOL0     C20025   2.483  10.437   6.507  0.4979 -0.0382  0.1584
  890MOL0     C20026   2.351  10.464   6.453 -0.2742 -0.2156  1.1598
  890MOL0     C20027   2.358  10.543   6.325 -0.0196  0.2563  0.2649
  890MOL0     C20028   2.226  10.604   6.282  0.2626  0.6829 -0.4882
  890MOL0     C20029   2.114  10.499   6.276  0.8193 -0.3905 -0.1150
  890MOL0     C20030   2.017  10.536   6.165  0.0123  0.1592 -0.0271
  890MOL0     C20031   1.897  10.448   6.171  0.4943 -0.0364  0.4648
  890MOL0     N20032   1.803  10.492   6.279 -0.3785  0.0157  0.3947
  890MOL0     C20033   1.685  10.560   6.280  0.6186 -0.5556 -0.8424
  890MOL0     C20034   1.644  10.577   6.406 -0.8673  0.2734  0.6667
  890MOL0     C20035   1.522  10.660   6.438 -1.3377 -0.7151 -0.5508
  890MOL0     C20036   1.565  10.785   6.531  0.4716 -0.6841  0.5889
  890MOL0     C20037   1.465  10.898   6.522  0.0672 -0.0831 -0.3296
  890MOL0     C20038   1.313  10.867   6.500  0.0705  0.6089  0.2699
  890MOL0     O20039   1.253  10.784   6.603  0.5793  0.0113  0.8113
  890MOL0     C20040   1.135  10.717   6.572 -0.4233  0.5832  0.3117
  890MOL0     C20041   1.112  10.605   6.644  1.7706 -0.0519 -0.3001
  890MOL0     C20042   1.004  10.519   6.611  0.5427 -0.7896 -0.0795
  890MOL0     C20043   0.964  10.401   6.694  0.5872  0.6573 -0.8622
  890MOL0     C20044   0.915  10.561   6.503  0.6109  0.2428  0.8115
  890MOL0     C20045   0.802  10.485   6.456 -0.7193 -0.6363  0.1332
  890MOL0     O20046   0.688  10.554   6.417 -0.3792  0.4513  0.1331
  890MOL0     C20047   0.596  10.479   6.344  0.7983  0.4975 -0.4432
  890MOL0     C20048   0.507  10.395   6.410  0.0512  0.2775 -0.2089
  890MOL0     C20049   0.397  10.337   6.345  0.5639 -0.3684  0.7100
  890MOL0     C20050   0.383  10.343   6.208 -0.1846 -0.5996  0.6591
  890MOL0     O20051   0.271  10.281   6.149 -0.1262 -0.0050  0.9805
  890MOL0     C20052   0.290  10.256   6.002  0.0752  0.0887 -0.5983
  890MOL0     C20053   0.183  10.160   5.949  0.2737  0.8204 -0.5265
  890MOL0     C20054   0.169  10.166   5.795 -0.8166  0.8938  0.0009
  890MOL0     C20055   0.074  10.071   5.724 -0.7017 -0.2649 -0.1760
  890MOL0     C20056   0.009  10.145   5.603  1.0262  1.0647 -0.8327
  890MOL0     C20057  -0.062  10.036   5.504  0.3087 -0.3818  0.0924
  890MOL0     C20058  -0.154  10.120   5.414  0.0691 -0.7425  0.4293
  890MOL0     C20059  -0.075  10.139   5.286  0.8262 -0.2153  0.0304
  890MOL0    Cl20060  -0.153  10.254   5.181  0.1392  0.5611 -0.0225
  890MOL0     C20061   0.472  10.428   6.136  0.0919  0.1970  0.6402
  890MOL0     C20062   0.569  10.500   6.207 -0.8653 -0.8527 -0.3431
  890MOL0     O20063   0.814  10.360   6.458 -0.1245 -0.2907 -0.5787
  890MOL0     C20064   0.943  10.676   6.429  0.1697 -0.2818 -1.2805
  890MOL0     C20065   1.059  10.756   6.462  0.7509  0.2521 -0.5056
  890MOL0     N20066   1.734  10.505   6.486  0.0741  0.5790 -0.3720
  890MOL0     N20067   1.822  10.447   6.411  0.2396 -0.0516 -0.0935
  890MOL0     C20068   2.268  10.350   6.894  0.4155 -0.2485  0.3473
  890MOL0     C20069   2.228  10.283   7.013  0.1045  0.3874  0.0720
  890MOL0     C20070   2.266  10.037   7.403  1.0311 -0.5373 -0.0778
  890MOL0     C20071   2.322  10.077   7.525 -0.3824 -0.1657  0.6344
  890MOL0     C20072   2.276  10.025   7.645  0.3371  0.6385  0.3287
  890MOL0     C20073   2.165   9.934   7.644  0.6410 -0.1078 -0.4478
  890MOL0     O20074   2.103   9.866   7.754  0.8748 -0.4168  0.5470
  890MOL0     C20075   2.124   9.906   7.889 -0.0983 -0.1951  0.0406
  890MOL0     C20076   2.055  10.035   7.925  0.1320 -0.8208 -0.8653
  890MOL0     C20077   2.031  10.043   8.082 -0.4955  0.4081  0.4608
  890MOL0     C20078   1.957  10.163   8.129 -0.0446 -0.2658 -1.0072
  890MOL0     C20079   1.823  10.165   8.078 -0.6720  0.6990 -0.1076
  890MOL0     C20080   1.709  10.147   8.041  0.1086 -0.6788  0.2282
  890MOL0     C20081   2.098   9.911   7.522  0.1966  0.2447  0.9044
  890MOL0     C20082   2.142   9.965   7.404  0.4371  0.2447  0.0456
  890MOL0     H20083   2.467  10.035   7.014  1.6941  1.0617  1.2939
  890MOL0     H20084   2.544  10.166   6.826 -0.2117  0.3031  1.7089
  890MOL0     H20085   2.603  10.359   6.654  0.2196  2.3422 -2.4684
  890MOL0     H20086   2.471  10.246   6.608 -2.9721 -0.0838  0.1821
  890MOL0     H20087   2.527  10.534   6.532 -1.3362  1.1390 -0.9751
  890MOL0     H20088   2.535  10.396   6.420 -1.6029  3.4668 -3.0289
  890MOL0     H20089   2.297  10.372   6.432 -0.8927  0.8090 -2.4939
  890MOL0     H20090   2.292  10.518   6.527 -0.5131  0.9879  0.1388
  890MOL0     H20091   2.435  10.620   6.335  2.4488 -1.9460 -0.5449
  890MOL0     H20092   2.394  10.478   6.245 -3.4149 -2.8919  0.9946
  890MOL0     H20093   2.200  10.691   6.343  2.9411  0.9586  0.3714
  890MOL0     H20094   2.241  10.643   6.181  0.6026 -1.4813 -1.3302
  890MOL0     H20095   2.163  10.404   6.254 -1.4298 -1.0291 -2.9865
  890MOL0     H20096   2.061  10.494   6.372  0.9276 -4.2791 -0.1156
  890MOL0     H20097   1.982  10.639   6.175  1.4129  0.7068 -0.4732
  890MOL0     H20098   2.068  10.531   6.068  3.9481  3.2415  1.5820
  890MOL0     H20099   1.922  10.342   6.182 -1.4413 -0.5993 -0.1210
  890MOL0     H20100   1.845  10.458   6.076 -2.3363 -0.4577  1.8596
  890MOL0     H20101   1.637  10.615   6.200 -0.6541  1.5766  1.2598
  890MOL0     H20102   1.482  10.697   6.343 -0.6240  0.9971 -0.2299
  890MOL0     H20103   1.438  10.601   6.474 -2.5312  0.6747 -0.9659
  890MOL0     H20104   1.664  10.829   6.521 -0.5971  1.4232 -2.0906
  890MOL0     H20105   1.552  10.753   6.635  0.9389  0.5916  1.0512
  890MOL0     H20106   1.498  10.963   6.440 -0.8690 -1.3902 -1.7886
  890MOL0     H20107   1.477  10.954   6.615 -2.8111  0.2844 -0.0677
  890MOL0     H20108   1.308  10.829   6.398  1.8583  0.0675  0.3482
  890MOL0     H20109   1.261  10.963   6.494 -0.1173  0.4631 -5.0097
  890MOL0     H20110   1.178  10.586   6.728 -1.6672  0.3151  2.7382
  890MOL0     H20111   0.859  10.417   6.720  0.2682  2.3885 -2.9152
  890MOL0     H20112   0.979  10.317   6.626  1.1507 -0.4802  0.6275
  890MOL0     H20113   1.027  10.389   6.782 -0.2825  0.2237 -0.2852
  890MOL0     H20114   0.514  10.379   6.517  1.4866 -0.9219 -0.4544
  890MOL0     H20115   0.325  10.280   6.401 -3.4432  2.0179 -1.5339
  890MOL0     H20116   0.278  10.352   5.950 -0.6655  1.0822  1.3145
  890MOL0     H20117   0.392  10.221   5.990  0.5442  1.5008 -0.9469
  890MOL0     H20118   0.216  10.062   5.983 -2.8610 -1.5572 -3.6464
  890MOL0     H20119   0.084  10.181   5.990 -0.9163 -5.7506  1.0476
  890MOL0     H20120   0.269  10.160   5.753 -0.6028  1.0098  0.4881
  890MOL0     H20121   0.134  10.269   5.776  1.5268  1.2049 -3.7903
  890MOL0     H20122   0.115   9.971   5.707 -2.4300 -1.4070  1.8435
  890MOL0     H20123  -0.009  10.055   5.793 -2.5688  2.4682 -1.6044
  890MOL0     H20124   0.081  10.206   5.548  0.6161  3.3934  1.0505
  890MOL0     H20125  -0.062  10.216   5.645  0.6668  0.7477 -0.9022
  890MOL0     H20126   0.015   9.970   5.463  0.8829 -0.6419  1.5185
  890MOL0     H20127  -0.132   9.981   5.567  1.2630  0.3835  1.9189
  890MOL0     H20128  -0.193  10.211   5.462  3.5772  0.7443  0.7849
  890MOL0     H20129  -0.243  10.062   5.391  0.4263 -0.2515 -2.5350
  890MOL0     H20130  -0.067  10.042   5.237 -0.1771  0.2186 -1.0356
  890MOL0     H20131   0.026  10.181   5.295  0.3304  1.0992 -0.2764
  890MOL0     H20132   0.484  10.446   6.029  3.1911  2.6669  1.2383
  890MOL0     H20133   0.641  10.566   6.160  1.5743 -0.4409  3.4940
  890MOL0     H20134   0.892  10.720   6.344  0.3813  1.3253 -0.6148
  890MOL0     H20135   1.071  10.840   6.395 -0.1128 -0.1846 -1.2282
  890MOL0     H20136   2.206  10.429   6.852  1.9475 -0.3450 -2.3111
  890MOL0     H20137   2.144  10.309   7.077  0.1648 -1.0163  0.7690
  890MOL0     H20138   2.417  10.130   7.523  0.9086 -2.3469  1.6834
  890MOL0     H20139   2.338  10.043   7.731  1.8559 -0.5647 -0.4717
  890MOL0     H20140   2.080   9.823   7.944 -3.7837  1.4762 -0.1063
  890MOL0     H20141   2.230   9.901   7.918 -0.3429 -0.5947  0.9180
  890MOL0     H20142   1.954  10.048   7.885  0.7286  0.0583 -2.1643
  890MOL0     H20143   2.114  10.119   7.887 -2.9141  0.8747 -2.2676
  890MOL0     H20144   2.132  10.047   8.125 -0.6176 -4.5103  1.8804
  890MOL0     H20145   1.984   9.952   8.121  1.3731 -0.6121  0.4511
  890MOL0     H20146   2.012  10.251   8.095 -0.5339  0.1009 -0.8688
  890MOL0     H20147   1.958  10.180   8.238  1.5687  2.4309 -1.3530
  890MOL0     H20148   1.606  10.134   8.014 -0.8025  0.7726  2.7303
  890MOL0     H20149   2.008   9.850   7.520  0.8831 -0.8443  2.0339
  890MOL0     H20150   2.083   9.963   7.313 -0.7293  3.9569  0.5439
  891MOL0     O20151  10.265   0.993   5.152 -0.7411  0.3019 -0.0839
  891MOL0     C20152  10.375   1.013   5.202  0.5025 -0.1673 -0.0859
  891MOL0     O20153  10.406   1.083   5.318  0.3956 -0.1353  0.6977
  891MOL0     C20154  10.304   1.142   5.395  0.2147  0.1052 -0.3454
  891MOL0     C20155  10.177   1.180   5.349 -0.7580 -1.0296 -0.0840
  891MOL0     C20156  10.083   1.227   5.432  1.2037  0.4395  0.2102
  891MOL0     C20157  10.104   1.240   5.567  0.8514  0.3266  0.3140
  891MOL0     O20158  10.002   1.286   5.642  0.3432  0.8773 -0.6356
  891MOL0     C20159  10.033   1.379   5.753  0.2918 -0.4788  0.3948
  891MOL0     C20160   9.908   1.471   5.805 -0.5245  0.1633 -0.1788
  891MOL0     C20161   9.808   1.377   5.890 -0.3745  0.3188  0.1758
  891MOL0     C20162   9.674   1.432   5.919 -0.5396 -0.8904 -1.0647
  891MOL0     C20163   9.581   1.344   5.999  0.4558 -0.7381 -0.5308
  891MOL0     C20164   9.584   1.372   6.158  0.0162 -0.3399 -0.2946
  891MOL0     C20165   9.499   1.261   6.226  0.4600 -0.0842 -0.1370
  891MOL0     C20166   9.496   1.276   6.380 -0.4663  0.1793 -0.9554
  891MOL0     N20167   9.628   1.288   6.442  1.1390 -0.5603  0.0661
  891MOL0     C20168   9.734   1.214   6.416  0.6786 -0.6470  1.2934
  891MOL0     C20169   9.827   1.250   6.500  0.5100  0.4050  0.1571
  891MOL0     C20170   9.974   1.193   6.513 -0.0250 -0.6510 -0.4095
  891MOL0     C20171  10.093   1.293   6.512  0.1389  0.8385 -0.1087
  891MOL0     C20172  10.231   1.237   6.522 -0.9589 -0.1137  0.0384
  891MOL0     C20173  10.249   1.183   6.661  0.3943 -0.2650  0.3521
  891MOL0     O20174  10.204   1.265   6.772 -0.2175  0.4603 -0.9636
  891MOL0     C20175  10.128   1.197   6.870  0.9373  1.1065  0.0116
  891MOL0     C20176  10.001   1.247   6.895  0.1812 -0.0167 -0.7341
  891MOL0     C20177   9.917   1.173   6.984 -0.9011 -0.1481 -0.6800
  891MOL0     C20178   9.788   1.237   7.003  0.3087  0.6435  0.6751
  891MOL0     C20179   9.970   1.060   7.058  0.3201  0.4255 -0.0075
  891MOL0     C20180   9.894   0.970   7.153  0.0722  0.8545  0.0843
  891MOL0     O20181   9.760   0.957   7.142 -0.7851  0.1781 -0.1570
  891MOL0     C20182   9.686   0.882   7.238  0.6221  0.6503  0.3169
  891MOL0     C20183   9.581   0.806   7.184  0.6214  0.9192  0.5561
  891MOL0     C20184   9.489   0.733   7.263  0.2818 -0.2917  1.1994
  891MOL0     C20185   9.507   0.736   7.401  0.6965  0.0884  0.3884
  891MOL0     O20186   9.428   0.659   7.484  0.0171  0.1703 -0.2047
  891MOL0     C20187   9.363   0.716   7.599 -0.7121  0.4285 -0.5682
  891MOL0     C20188   9.283   0.604   7.671  0.2014 -0.6539 -0.0299
  891MOL0     C20189   9.230   0.655   7.811 -0.6957  0.3930 -0.1712
  891MOL0     C20190   9.117   0.557   7.857  0.9259 -0.5262  0.3225
  891MOL0     C20191   9.029   0.617   7.971 -0.1480 -0.3544 -0.1100
  891MOL0     C20192   8.913   0.528   8.007  0.2087  0.7132  0.0677
  891MOL0     C20193   8.955   0.381   8.033  0.9630 -0.4341 -0.0522
  891MOL0     C20194   8.835   0.304   8.074 -0.6099 -0.0343 -0.1400
  891MOL0    Cl20195   8.891   0.143   8.118 -0.3634 -0.0174 -0.6967
  891MOL0     C20196   9.609   0.811   7.459  0.3926  0.0548  0.0770
  891MOL0     C20197   9.698   0.879   7.376  0.3320  0.3460 -0.5717
  891MOL0     O20198   9.962   0.904   7.238 -0.1936 -0.0885  0.7782
  891MOL0     C20199  10.105   1.026   7.039 -0.6308 -0.4174 -0.3971
  891MOL0     C20200  10.179   1.096   6.952 -0.1337 -0.9863  0.1058
  891MOL0     N20201   9.774   1.356   6.581  0.1552  0.8290 -0.3611
  891MOL0     N20202   9.655   1.374   6.544  0.3113  0.0220  0.2044
  891MOL0     C20203  10.233   1.225   5.612  0.0773 -1.1354 -0.2175
  891MOL0     C20204  10.334   1.168   5.534  0.0708 -0.1104 -0.3199
  891MOL0     C20205  10.494   0.956   5.120 -0.0657 -1.1603  0.9222
  891MOL0     C20206  10.631   0.999   5.135 -1.2120 -0.1063 -0.8676
  891MOL0     C20207  10.735   0.950   5.058  0.1467 -0.1533 -1.1728
  891MOL0     C20208  10.709   0.861   4.959  1.2586 -0.7091  0.7638
  891MOL0     O20209  10.815   0.822   4.886 -0.2723  0.5339 -0.2080
  891MOL0     C20210  10.809   0.703   4.806 -0.7182 -1.2504 -0.3545
  891MOL0     C20211  10.929   0.701   4.712  0.6268 -0.2344  0.5143
  891MOL0     C20212  10.978   0.566   4.673 -0.0663  0.4308 -0.3330
  891MOL0     C20213  11.131   0.564   4.690 -0.3811  0.5872  0.0778
  891MOL0     C20214  11.187   0.433   4.719  0.1202  0.3034 -0.8250
  891MOL0     C20215  11.233   0.326   4.745  0.8038 -0.1798 -1.0877
  891MOL0     C20216  10.579   0.815   4.931 -0.6088 -0.5827 -0.4167
  891MOL0     C20217  10.473   0.865   5.014 -1.2623 -0.5466 -0.4062
  891MOL0     H20218  10.159   1.182   5.242 -0.6885  0.6515 -0.0983
  891MOL0     H20219   9.983   1.252   5.397  1.2215 -2.2012 -2.1764
  891MOL0     H20220  10.050   1.318   5.842 -4.1775 -3.1582 -0.2334
  891MOL0     H20221  10.115   1.446   5.727  0.3027 -0.8493 -0.5629
  891MOL0     H20222   9.944   1.549   5.873 -4.8170  2.1093  0.1420
  891MOL0     H20223   9.860   1.518   5.719 -0.3627  1.1442  0.2535
  891MOL0     H20224   9.795   1.276   5.850 -1.2889 -0.3360  2.0145
  891MOL0     H20225   9.855   1.368   5.988 -1.5519 -1.3312  0.6194
  891MOL0     H20226   9.694   1.519   5.982 -2.1250 -0.8214 -0.6125
  891MOL0     H20227   9.632   1.453   5.820 -0.7912  1.7237 -0.4627
  891MOL0     H20228   9.482   1.366   5.960  0.8565 -0.0424 -1.1860
  891MOL0     H20229   9.602   1.237   5.987  1.8485 -0.7889  1.8066
  891MOL0     H20230   9.687   1.364   6.196 -0.0483  0.3910  0.0674
  891MOL0     H20231   9.547   1.468   6.195 -1.4305 -2.0662  3.2429
  891MOL0     H20232   9.394   1.275   6.197 -0.6894 -1.3306  2.9889
  891MOL0     H20233   9.544   1.170   6.185  0.4590 -0.6626  1.1145
  891MOL0     H20234   9.456   1.180   6.413  1.9950 -0.5886  0.0403
  891MOL0     H20235   9.433   1.360   6.412  0.9104  0.8104  0.1785
  891MOL0     H20236   9.750   1.153   6.327 -1.9594  3.1758 -2.1681
  891MOL0     H20237   9.980   1.136   6.606 -0.1270 -1.4366 -0.8773
  891MOL0     H20238   9.990   1.131   6.424  1.7776  3.1674 -2.9940
  891MOL0     H20239  10.077   1.371   6.587 -1.3399 -1.1626  1.8197
  891MOL0     H20240  10.079   1.358   6.425  1.8756  1.0034 -0.2876
  891MOL0     H20241  10.308   1.310   6.496 -1.9655  1.0314  0.1454
  891MOL0     H20242  10.247   1.160   6.447  1.6271 -0.3896  0.7817
  891MOL0     H20243  10.352   1.149   6.679  0.3561 -0.3064  0.4964
  891MOL0     H20244  10.191   1.091   6.653  4.0127 -2.9263  1.6039
  891MOL0     H20245   9.967   1.323   6.825  1.5964  1.1524 -0.2023
  891MOL0     H20246   9.714   1.159   7.025  0.1678 -0.9887 -4.3419
  891MOL0     H20247   9.785   1.326   7.067 -1.6165  0.0077  1.5468
  891MOL0     H20248   9.755   1.266   6.903 -0.0502 -2.1296 -0.0894
  891MOL0     H20249   9.576   0.806   7.075  2.1688  4.4920  0.3470
  891MOL0     H20250   9.402   0.691   7.213 -1.3353  1.6338  2.2648
  891MOL0     H20251   9.432   0.757   7.673 -0.3262 -0.9356 -0.1244
  891MOL0     H20252   9.303   0.801   7.569 -0.9823  0.3510 -0.2495
  891MOL0     H20253   9.197   0.572   7.611  1.0119  1.6046 -2.6208
  891MOL0     H20254   9.349   0.523   7.704 -0.2298 -0.6863  0.7700
  891MOL0     H20255   9.198   0.759   7.799  0.0479  0.8409  1.4569
  891MOL0     H20256   9.312   0.656   7.884 -1.3879  1.5855  0.6087
  891MOL0     H20257   9.053   0.538   7.771  0.9362 -3.7225  0.8847
  891MOL0     H20258   9.166   0.461   7.875  0.3609 -0.6886  1.0437
  891MOL0     H20259   8.998   0.717   7.939  2.0332 -0.0498 -1.4349
  891MOL0     H20260   9.081   0.636   8.065  0.8920 -1.4471 -0.4370
  891MOL0     H20261   8.850   0.568   8.087 -0.7290  1.5876 -1.0527
  891MOL0     H20262   8.853   0.521   7.915  3.0470 -0.8842 -1.8054
  891MOL0     H20263   9.025   0.383   8.117  0.6978  1.1063  0.1668
  891MOL0     H20264   8.999   0.326   7.950 -2.4448 -0.4678 -2.0482
  891MOL0     H20265   8.761   0.301   7.993 -1.1435  3.2161  0.0662
  891MOL0     H20266   8.790   0.351   8.162  0.3649 -2.1263  1.5624
  891MOL0     H20267   9.619   0.797   7.566  0.3083 -1.7925 -0.1368
  891MOL0     H20268   9.783   0.918   7.431 -1.0481 -1.3627  3.0869
  891MOL0     H20269  10.150   0.945   7.097 -0.4615 -0.3730 -0.4667
  891MOL0     H20270  10.285   1.077   6.940 -0.0542 -0.9713  0.7654
  891MOL0     H20271  10.258   1.256   5.713 -1.8745  1.4071 -0.4079
  891MOL0     H20272  10.436   1.149   5.568  0.6867  5.7847  2.3051
  891MOL0     H20273  10.648   1.067   5.219 -2.5773 -1.7307  0.8042
  891MOL0     H20274  10.838   0.982   5.070 -0.0854 -0.2166  1.5077
  891MOL0     H20275  10.808   0.619   4.876  1.3564 -0.2146  1.0013
  891MOL0     H20276  10.730   0.693   4.730  0.2725  0.5828 -1.7132
  891MOL0     H20277  11.006   0.753   4.769  1.5161  1.0563 -1.7168
  891MOL0     H20278  10.908   0.764   4.625 -1.7427  0.6506  1.6366
  891MOL0     H20279  10.952   0.554   4.567 -1.5732  2.1240 -0.1902
  891MOL0     H20280  10.935   0.486   4.733  0.9128 -0.6390 -1.0104
  891MOL0     H20281  11.168   0.624   4.774  3.7314  0.0888 -1.1822
  891MOL0     H20282  11.176   0.602   4.599 -0.1394  0.3861  0.1122
  891MOL0     H20283  11.259   0.237   4.799  0.9173 -1.8678 -3.7740
  891MOL0     H20284  10.565   0.751   4.845 -2.4611 -1.0138  0.1510
  891MOL0     H20285  10.370   0.853   4.983 -1.6358 -0.8537  0.9112
  892MOL0     O20286   2.297  10.606   4.476 -0.3103 -0.3979 -0.2201
  892MOL0     C20287   2.303  10.649   4.599 -0.6701  0.5912  0.8071
  892MOL0     O20288   2.224  10.746   4.645  0.0481 -0.4547  0.0296
  892MOL0     C20289   2.111  10.783   4.572 -0.5265  0.0956 -0.9450
  892MOL0     C20290   1.987  10.785   4.640 -0.3621 -0.0821  0.2434
  892MOL0     C20291   1.876  10.833   4.580 -0.3170 -0.4093  1.0270
  892MOL0     C20292   1.883  10.881   4.452 -0.0527  0.2856  0.1546
  892MOL0     O20293   1.776  10.929   4.379  0.0485  0.2278 -0.5126
  892MOL0     C20294   1.677  10.836   4.363 -0.1637  0.5282  0.7418
  892MOL0     C20295   1.548  10.902   4.400  0.0475 -0.3020 -0.5609
  892MOL0     C20296   1.415  10.822   4.392  0.4355 -0.8655 -0.5821
  892MOL0     C20297   1.305  10.865   4.489 -0.1762 -0.7121  0.2193
  892MOL0     C20298   1.157  10.860   4.434  0.2141  0.5024 -0.1807
  892MOL0     C20299   1.116  10.731   4.359 -0.9310 -0.2435 -0.3537
  892MOL0     C20300   0.980  10.745   4.298  0.5719  0.2795 -1.0340
  892MOL0     C20301   0.903  10.606   4.289  0.0327 -0.3998  0.1547
  892MOL0     N20302   0.804  10.591   4.182  0.1144 -0.8564  0.5565
  892MOL0     C20303   0.704  10.685   4.139  0.7550 -0.3533 -0.8219
  892MOL0     C20304   0.646  10.614   4.034 -0.2668  0.5160 -0.0913
  892MOL0     C20305   0.525  10.656   3.948  0.0285 -0.5042 -0.0111
  892MOL0     C20306   0.428  10.543   3.950  0.6462 -0.3669 -0.4649
  892MOL0     C20307   0.291  10.584   3.902  0.3776 -0.5604  0.1586
  892MOL0     C20308   0.207  10.452   3.918 -0.1332  0.2574 -0.8441
  892MOL0     O20309   0.078  10.471   3.867 -0.8188 -1.1827  0.7020
  892MOL0     C20310   0.029  10.411   3.753  0.8824  1.0979 -0.4558
  892MOL0     C20311  -0.113  10.408   3.738  0.0655 -0.0839 -0.6282
  892MOL0     C20312  -0.181  10.373   3.619  0.0261 -0.9012 -0.4021
  892MOL0     C20313  -0.333  10.379   3.610 -0.5008 -0.5278  0.5406
  892MOL0     C20314  -0.095  10.322   3.514  0.0790 -0.3504 -1.2784
  892MOL0     C20315  -0.142  10.258   3.385  1.1974 -0.2543 -0.1522
  892MOL0     O20316  -0.052  10.239   3.279 -0.5849 -0.0756 -0.2158
  892MOL0     C20317  -0.087  10.150   3.174  0.3466 -0.8211 -0.8404
  892MOL0     C20318   0.020  10.113   3.091 -0.7800  0.0101  0.9337
  892MOL0     C20319  -0.001  10.026   2.983  0.5962 -0.1057 -0.1632
  892MOL0     C20320  -0.125   9.962   2.958  0.2509 -0.6501  0.5837
  892MOL0     O20321  -0.164   9.887   2.848  0.2649  0.3423  0.3858
  892MOL0     C20322  -0.082   9.822   2.760  0.4331 -0.4387  0.6723
  892MOL0     C20323  -0.157   9.792   2.629  0.6218 -0.0838  0.0118
  892MOL0     C20324  -0.278   9.690   2.655 -0.0326  0.4064 -0.2843
  892MOL0     C20325  -0.362   9.676   2.523  0.8202  0.6819 -0.2477
  892MOL0     C20326  -0.485   9.593   2.558 -0.1438 -0.9098 -0.2769
  892MOL0     C20327  -0.461   9.441   2.582 -1.3307  0.7851 -0.2499
  892MOL0     C20328  -0.376   9.379   2.476  0.8999 -0.3355  0.1650
  892MOL0     C20329  -0.384   9.222   2.478  0.7100  0.8677 -0.0903
  892MOL0    Cl20330  -0.358   9.156   2.638 -0.1999  0.5462  0.5060
  892MOL0     C20331  -0.221   9.996   3.048 -0.1852  0.6824 -0.1825
  892MOL0     C20332  -0.202  10.077   3.156  0.4729  0.1146  0.3836
  892MOL0     O20333  -0.265  10.250   3.372 -0.7202 -0.1681  0.6553
  892MOL0     C20334   0.041  10.322   3.534  0.3756 -0.2133  0.2662
  892MOL0     C20335   0.108  10.361   3.653 -0.1220 -0.3564 -0.0546
  892MOL0     N20336   0.714  10.506   4.015 -0.7232 -0.7681  1.0684
  892MOL0     N20337   0.810  10.484   4.096 -0.7217 -0.5485 -0.1228
  892MOL0     C20338   1.999  10.871   4.376  0.3079 -0.0213 -0.0490
  892MOL0     C20339   2.118  10.823   4.440  0.5877  0.3897  0.4586
  892MOL0     C20340   2.421  10.610   4.686  0.3899 -0.8757 -0.2672
  892MOL0     C20341   2.513  10.501   4.648 -0.2068 -0.2257  0.0751
  892MOL0     C20342   2.629  10.477   4.725 -0.4802 -0.2398  0.1133
  892MOL0     C20343   2.654  10.555   4.836 -0.2915 -1.5281 -0.5086
  892MOL0     O20344   2.771  10.520   4.899 -0.0487  0.0208  0.3383
  892MOL0     C20345   2.851  10.625   4.948 -0.1352 -0.3515  0.1582
  892MOL0     C20346   2.970  10.550   5.011 -0.3831  0.6439 -0.1902
  892MOL0     C20347   3.088  10.644   5.048 -0.8884  0.1794 -0.6871
  892MOL0     C20348   3.220  10.579   5.099 -0.2438  0.1856 -0.2287
  892MOL0     C20349   3.208  10.522   5.240  1.2427  0.3270  0.4258
  892MOL0     C20350   3.211  10.468   5.344  0.0168  0.3614  0.1328
  892MOL0     C20351   2.564  10.655   4.877 -0.6451 -0.1948 -0.2181
  892MOL0     C20352   2.443  10.686   4.804 -0.6106  1.2287 -0.2155
  892MOL0     H20353   1.963  10.754   4.741 -2.2344  0.9116  0.1573
  892MOL0     H20354   1.785  10.835   4.640  0.5813 -1.8086  2.5193
  892MOL0     H20355   1.666  10.806   4.258 -1.1596  0.9851  0.6971
  892MOL0     H20356   1.688  10.751   4.430  3.2003  1.9253  2.1637
  892MOL0     H20357   1.563  10.922   4.506  3.4848  0.7395 -1.1126
  892MOL0     H20358   1.536  11.002   4.358  0.5655  0.7728  1.7139
  892MOL0     H20359   1.374  10.838   4.292  0.6646  5.6535 -0.0446
  892MOL0     H20360   1.432  10.716   4.413 -2.6416 -1.6753 -1.6155
  892MOL0     H20361   1.331  10.803   4.576 -0.2812 -3.0339 -1.3086
  892MOL0     H20362   1.325  10.966   4.526 -0.8460 -1.4751  2.9296
  892MOL0     H20363   1.092  10.870   4.521 -0.1356  0.3272 -0.4203
  892MOL0     H20364   1.145  10.940   4.360 -0.3851  0.2402 -0.3777
  892MOL0     H20365   1.188  10.707   4.281  0.9425 -0.4444  1.3500
  892MOL0     H20366   1.124  10.659   4.441  1.1658  1.3616  0.9546
  892MOL0     H20367   0.913  10.810   4.355 -2.2033 -0.2218 -3.4773
  892MOL0     H20368   0.997  10.797   4.204  3.6630 -1.3111 -1.4865
  892MOL0     H20369   0.864  10.588   4.389  1.8275  2.0310  1.4175
  892MOL0     H20370   0.979  10.528   4.277 -0.5120 -0.9441  0.1944
  892MOL0     H20371   0.691  10.781   4.188  2.2071  0.1451 -1.3493
  892MOL0     H20372   0.494  10.752   3.989  0.3205  0.0499 -1.0335
  892MOL0     H20373   0.542  10.677   3.842 -2.7703  1.1386 -0.1997
  892MOL0     H20374   0.423  10.519   4.057  1.1989  2.1794  0.2289
  892MOL0     H20375   0.463  10.469   3.878 -0.0932  1.6064 -2.9881
  892MOL0     H20376   0.311  10.627   3.803 -0.2946 -0.4882  0.0523
  892MOL0     H20377   0.254  10.665   3.966  1.5738  0.9560 -0.9900
  892MOL0     H20378   0.202  10.430   4.024 -3.0834  1.2022 -0.6965
  892MOL0     H20379   0.265  10.375   3.867  0.5627  0.6246 -0.6187
  892MOL0     H20380  -0.183  10.438   3.815  0.5524 -1.3349  0.3249
  892MOL0     H20381  -0.372  10.296   3.552 -1.1865  1.5567 -2.1900
  892MOL0     H20382  -0.384  10.388   3.706 -0.4615 -2.5217  0.7737
  892MOL0     H20383  -0.345  10.479   3.566  1.5871 -0.2027  0.5688
  892MOL0     H20384   0.118  10.161   3.089 -0.8354  0.1442 -0.8968
  892MOL0     H20385   0.077  10.012   2.910  1.1461  2.0853 -0.0639
  892MOL0     H20386   0.013   9.870   2.737  1.4928 -3.3440 -1.6608
  892MOL0     H20387  -0.061   9.725   2.807 -3.9074 -1.7809  0.3004
  892MOL0     H20388  -0.195   9.886   2.589 -0.7116  0.0064  1.3864
  892MOL0     H20389  -0.095   9.751   2.549  1.0235 -2.1678  1.2998
  892MOL0     H20390  -0.345   9.727   2.733  0.7288  0.1175  0.5254
  892MOL0     H20391  -0.243   9.592   2.689  2.7684  1.3579 -0.2359
  892MOL0     H20392  -0.401   9.773   2.492 -0.1490  0.7468  1.0827
  892MOL0     H20393  -0.301   9.633   2.443 -0.2561  0.6752 -1.0816
  892MOL0     H20394  -0.554   9.601   2.473  1.8862 -0.1287 -1.9419
  892MOL0     H20395  -0.539   9.624   2.648 -3.0302 -2.4387 -1.3309
  892MOL0     H20396  -0.405   9.415   2.672 -0.9846 -3.1540 -1.4152
  892MOL0     H20397  -0.563   9.403   2.596 -1.6956  0.9948 -2.0693
  892MOL0     H20398  -0.274   9.416   2.493  1.0087  1.3886 -3.3188
  892MOL0     H20399  -0.415   9.418   2.382 -1.0656 -2.5757 -0.0393
  892MOL0     H20400  -0.306   9.180   2.413 -0.0479  0.7312 -0.9200
  892MOL0     H20401  -0.481   9.191   2.439 -0.0865  0.7939  1.8470
  892MOL0     H20402  -0.319   9.959   3.020 -1.6122  2.0337  2.6763
  892MOL0     H20403  -0.291  10.093   3.215 -0.3073  0.0130 -0.7445
  892MOL0     H20404   0.113  10.308   3.454 -0.8820 -1.0817 -0.7478
  892MOL0     H20405   0.215  10.352   3.665  0.2252  1.8163 -0.9080
  892MOL0     H20406   1.986  10.890   4.270 -0.2564 -3.9047 -0.8291
  892MOL0     H20407   2.213  10.814   4.387  0.4396 -1.5814  0.4541
  892MOL0     H20408   2.491  10.447   4.556 -0.5444 -1.2149  0.7264
  892MOL0     H20409   2.708  10.405   4.708 -0.2151 -0.7056  2.8468
  892MOL0     H20410   2.882  10.680   4.858 -0.0611  1.7467  1.3953
  892MOL0     H20411   2.795  10.688   5.017 -0.4120 -0.0696 -0.3186
  892MOL0     H20412   3.001  10.467   4.947 -0.1622 -1.8335  2.9344
  892MOL0     H20413   2.926  10.510   5.103 -3.1541  0.9277 -1.2859
  892MOL0     H20414   3.048  10.702   5.131  1.2070  1.3193 -0.4048
  892MOL0     H20415   3.106  10.720   4.972 -2.7071  1.1796 -0.1856
  892MOL0     H20416   3.293  10.660   5.093 -0.2339  0.2199  0.2990
  892MOL0     H20417   3.247  10.502   5.026  1.4520  0.0696  0.4920
  892MOL0     H20418   3.221  10.398   5.425  1.5854 -0.6343 -0.8557
  892MOL0     H20419   2.584  10.710   4.968 -1.7278 -0.8033  0.4066
  892MOL0     H20420   2.384  10.771   4.836  0.9743  1.9348  0.9935
  893MOL0     O20421   9.232   2.080   9.924  1.0919  0.6276  0.5111
  893MOL0     C20422   9.173   1.990   9.981 -0.1615 -0.0359 -0.0478
  893MOL0     O20423   9.144   1.864   9.924 -0.3835 -0.1442 -1.0733
  893MOL0     C20424   9.234   1.829   9.829 -0.2786 -0.1930  0.4343
  893MOL0     C20425   9.180   1.794   9.708  0.6033 -0.5045  1.2003
  893MOL0     C20426   9.259   1.768   9.596 -0.1165  0.2961  0.2503
  893MOL0     C20427   9.395   1.779   9.606 -0.7261 -0.2009  0.3218
  893MOL0     O20428   9.483   1.765   9.494 -0.0902  0.2191 -0.3535
  893MOL0     C20429   9.451   1.660   9.410 -1.1500  0.8081 -0.0762
  893MOL0     C20430   9.504   1.518   9.462  0.5320 -0.8229 -0.2766
  893MOL0     C20431   9.656   1.528   9.486  0.5645  0.3188 -0.8307
  893MOL0     C20432   9.708   1.390   9.499 -0.1153  0.0215  1.1631
  893MOL0     C20433   9.860   1.385   9.521  0.2102 -0.3932 -0.1872
  893MOL0     C20434   9.923   1.252   9.499 -0.8986  0.5790  0.3891
  893MOL0     C20435  10.069   1.252   9.533  0.3230  0.6983 -0.5246
  893MOL0     C20436  10.143   1.126   9.497  0.0591 -0.0769  0.6663
  893MOL0     N20437  10.163   1.118   9.352  0.7543  0.3875 -1.3535
  893MOL0     C20438  10.271   1.171   9.288  0.4465 -1.0522 -0.0760
  893MOL0     C20439  10.242   1.136   9.162 -0.4247 -0.4996 -0.3526
  893MOL0     C20440  10.317   1.182   9.039 -0.0703 -0.5513  0.3764
  893MOL0     C20441  10.474   1.186   9.034 -0.1021 -0.3256 -0.0075
  893MOL0     C20442  10.511   1.150   8.890 -0.3419 -0.2042 -0.0852
  893MOL0     C20443  10.665   1.168   8.883  0.8471  0.6036  0.0590
  893MOL0     O20444  10.703   1.115   8.747 -0.2179 -0.1207 -0.3351
  893MOL0     C20445  10.843   1.113   8.717  0.3774 -0.1713 -1.3436
  893MOL0     C20446  10.877   1.057   8.603 -0.2478  0.2611  0.1851
  893MOL0     C20447  11.013   1.073   8.558  0.2194  0.9180 -0.1533
  893MOL0     C20448  11.037   1.012   8.426 -0.3341  0.9789  0.1231
  893MOL0     C20449  11.118   1.135   8.635  0.3340 -0.3890 -0.3487
  893MOL0     C20450  11.254   1.170   8.584  0.1276  0.1445  0.9398
  893MOL0     O20451  11.325   1.253   8.650  0.1424 -0.6882 -0.1145
  893MOL0     C20452  11.445   1.305   8.608  0.1751 -0.3956  0.8139
  893MOL0     C20453  11.496   1.321   8.482 -0.9431  0.6320  1.1093
  893MOL0     C20454  11.616   1.391   8.462 -0.1080  0.3074 -0.1060
  893MOL0     C20455  11.686   1.450   8.565 -0.6946  1.2509  0.9083
  893MOL0     O20456  11.803   1.516   8.532 -0.4735 -0.2958 -0.0447
  893MOL0     C20457  11.882   1.594   8.629  0.6493  0.5002  0.8088
  893MOL0     C20458  12.002   1.655   8.561 -0.3551  0.0522 -0.2481
  893MOL0     C20459  12.089   1.739   8.660 -0.2631 -0.3764  0.2382
  893MOL0     C20460  12.236   1.742   8.612  0.3710 -0.0648  0.3826
  893MOL0     C20461  12.315   1.863   8.665 -0.2389  0.7359 -0.1947
  893MOL0     C20462  12.458   1.877   8.611  0.3517  0.0940 -0.8564
  893MOL0     C20463  12.567   1.785   8.662 -0.4444 -0.0551  0.9193
  893MOL0     C20464  12.699   1.846   8.633  0.3894  0.0788 -0.0433
  893MOL0    Cl20465  12.815   1.737   8.719  0.2091 -0.5954 -0.0821
  893MOL0     C20466  11.641   1.430   8.694 -0.3901  0.1954 -0.5521
  893MOL0     C20467  11.512   1.367   8.712 -0.6144  0.7854  0.7204
  893MOL0     O20468  11.282   1.108   8.480  0.1863  0.0371 -0.5263
  893MOL0     C20469  11.074   1.173   8.761  0.2611 -0.0150  0.8109
  893MOL0     C20470  10.946   1.167   8.798  0.1121  0.5334  0.2701
  893MOL0     N20471  10.126   1.068   9.148 -0.2681 -0.6971 -0.3758
  893MOL0     N20472  10.082   1.047   9.263  0.1618  0.3263  0.3175
  893MOL0     C20473   9.450   1.814   9.727 -0.2207 -0.6772 -0.4134
  893MOL0     C20474   9.371   1.838   9.843 -0.6152  0.0026 -0.2177
  893MOL0     C20475   9.115   2.028  10.115 -0.0388 -0.0905  0.0029
  893MOL0     C20476   9.048   1.929  10.187  0.3343 -1.2129 -0.5791
  893MOL0     C20477   8.983   1.972  10.304  0.1071 -0.7184  0.9703
  893MOL0     C20478   8.984   2.106  10.337  0.5930 -1.0146 -0.4056
  893MOL0     O20479   8.914   2.144  10.443  0.5297 -0.1672 -0.5416
  893MOL0     C20480   8.783   2.195  10.427  0.0755  0.2701 -0.1563
  893MOL0     C20481   8.684   2.074  10.438 -0.0386  0.8774  0.6126
  893MOL0     C20482   8.534   2.096  10.447  1.1510 -0.3728 -0.3203
  893MOL0     C20483   8.467   2.114  10.307 -0.8077 -0.3808  0.2790
  893MOL0     C20484   8.323   2.144  10.319 -1.0768  0.9427 -0.4800
  893MOL0     C20485   8.205   2.171  10.323  0.3602  0.3117  0.4325
  893MOL0     C20486   9.055   2.205  10.267  0.2473 -1.0519  0.3221
  893MOL0     C20487   9.118   2.167  10.153 -0.0674  0.3151 -0.2376
  893MOL0     H20488   9.075   1.812   9.686  1.0287 -1.5700 -2.2699
  893MOL0     H20489   9.210   1.749   9.501 -0.0692 -0.0176  0.2856
  893MOL0     H20490   9.344   1.651   9.386 -0.7279 -0.6416 -1.5601
  893MOL0     H20491   9.489   1.682   9.310  0.6001  1.3075  0.6495
  893MOL0     H20492   9.447   1.492   9.551 -0.5819 -0.9673 -1.0127
  893MOL0     H20493   9.497   1.438   9.387 -0.7045 -3.1283  2.1139
  893MOL0     H20494   9.711   1.591   9.415 -0.1947  0.2655 -1.4756
  893MOL0     H20495   9.662   1.581   9.582 -3.3706 -1.6652  0.7250
  893MOL0     H20496   9.660   1.338   9.582  1.7824 -2.8441  0.6096
  893MOL0     H20497   9.691   1.340   9.403  0.2131 -1.6726  1.9647
  893MOL0     H20498   9.926   1.457   9.472 -0.3131 -0.9706 -1.8234
  893MOL0     H20499   9.877   1.398   9.628  0.9069 -3.9628  0.2679
  893MOL0     H20500   9.875   1.168   9.549 -0.2069 -0.8565 -1.2620
  893MOL0     H20501   9.921   1.234   9.391  1.2197 -0.2350  0.4446
  893MOL0     H20502  10.113   1.340   9.484 -1.2786  1.2024 -1.1344
  893MOL0     H20503  10.092   1.271   9.638  0.9736  1.4467 -0.7893
  893MOL0     H20504  10.092   1.037   9.535  0.7688 -0.8638 -0.1921
  893MOL0     H20505  10.241   1.130   9.544  0.7180  1.3623 -0.7257
  893MOL0     H20506  10.350   1.234   9.326  1.5996 -3.2888  1.4778
  893MOL0     H20507  10.277   1.106   8.971  0.2494  0.9001 -1.4864
  893MOL0     H20508  10.279   1.279   9.007  1.0183  0.0272  0.7940
  893MOL0     H20509  10.515   1.112   9.104 -0.1802 -0.2780  0.0886
  893MOL0     H20510  10.512   1.282   9.070 -1.7776 -0.2237  1.6110
  893MOL0     H20511  10.473   1.205   8.803 -0.8391 -1.8881 -0.9684
  893MOL0     H20512  10.489   1.044   8.879 -2.5667  0.1335  0.6172
  893MOL0     H20513  10.706   1.111   8.966 -0.2180 -2.3651 -1.3198
  893MOL0     H20514  10.701   1.271   8.893  1.5002  0.4510 -0.5540
  893MOL0     H20515  10.801   1.002   8.550  1.4892 -0.0921 -2.0617
  893MOL0     H20516  11.119   0.940   8.425 -2.9855 -2.4151  1.9403
  893MOL0     H20517  10.950   0.964   8.380 -0.2562  0.7634  0.1973
  893MOL0     H20518  11.058   1.102   8.368  3.2224  0.7427  0.8419
  893MOL0     H20519  11.437   1.294   8.395 -0.4950  1.5546  0.5023
  893MOL0     H20520  11.657   1.417   8.364 -0.3987 -1.0939 -0.6118
  893MOL0     H20521  11.814   1.663   8.680 -0.6289  1.4985 -2.0674
  893MOL0     H20522  11.898   1.518   8.707  2.0129 -0.4849 -0.3765
  893MOL0     H20523  12.061   1.574   8.519 -2.2373 -1.0244 -0.9106
  893MOL0     H20524  11.967   1.722   8.482  0.0284  0.5300 -0.0234
  893MOL0     H20525  12.081   1.678   8.750 -1.7937  3.4353  2.9647
  893MOL0     H20526  12.035   1.832   8.682 -0.9741 -0.7015 -0.1026
  893MOL0     H20527  12.286   1.648   8.639 -0.1552 -0.1483  1.0922
  893MOL0     H20528  12.237   1.740   8.503 -4.0522 -1.4130  0.1969
  893MOL0     H20529  12.321   1.849   8.773  2.8044  1.0103 -0.2347
  893MOL0     H20530  12.253   1.953   8.668  2.5197  2.7409  2.0844
  893MOL0     H20531  12.451   1.871   8.502 -0.7669 -1.2129 -0.7476
  893MOL0     H20532  12.477   1.980   8.641  0.2525 -0.2609  0.5194
  893MOL0     H20533  12.571   1.689   8.610  1.6315  1.2970 -1.7078
  893MOL0     H20534  12.567   1.765   8.769  3.2016 -3.3860  0.5179
  893MOL0     H20535  12.702   1.943   8.683  3.9247 -0.2357  0.6445
  893MOL0     H20536  12.721   1.850   8.526  0.6119 -3.2663 -0.2223
  893MOL0     H20537  11.691   1.475   8.779 -1.6480 -1.8111  1.3816
  893MOL0     H20538  11.468   1.363   8.812  0.0307 -0.9669  0.9661
  893MOL0     H20539  11.143   1.215   8.834  3.3194 -0.4139 -1.6450
  893MOL0     H20540  10.925   1.191   8.901 -1.2950 -1.1890  0.4380
  893MOL0     H20541   9.559   1.814   9.722 -0.2711 -0.5210 -2.2970
  893MOL0     H20542   9.428   1.867   9.931  0.4001 -1.0617 -0.4886
  893MOL0     H20543   9.051   1.825  10.154  1.5353 -1.4448  0.1887
  893MOL0     H20544   8.927   1.896  10.357 -0.0857 -0.4553  1.1471
  893MOL0     H20545   8.760   2.265  10.508  0.0569 -0.0984  0.1569
  893MOL0     H20546   8.775   2.248  10.331  3.1073  0.1090 -0.5907
  893MOL0     H20547   8.715   2.032  10.533  1.1374  0.4863  0.0701
  893MOL0     H20548   8.709   1.997  10.365  1.6397  0.3270  1.7056
  893MOL0     H20549   8.519   2.186  10.508 -0.0974 -0.7844  0.0094
  893MOL0     H20550   8.485   2.013  10.498  1.5123  0.5482  1.6112
  893MOL0     H20551   8.487   2.031  10.239 -1.9734  2.7750 -4.4586
  893MOL0     H20552   8.510   2.206  10.265 -2.5472  0.3271 -0.0325
  893MOL0     H20553   8.099   2.185  10.334  0.2177 -0.4382  0.1190
  893MOL0     H20554   9.051   2.309  10.298  0.0734 -1.3054  1.1767
  893MOL0     H20555   9.164   2.239  10.086 -3.5614  1.6607 -1.4264
  894MOL0     O20556   1.145   1.594  11.315 -0.0067 -0.1483  0.2422
  894MOL0     C20557   1.196   1.518  11.401  0.0360 -0.2252  0.8810
  894MOL0     O20558   1.126   1.408  11.459 -0.1033  0.5840 -0.1755
  894MOL0     C20559   1.003   1.378  11.415  0.5329  0.5339  1.1532
  894MOL0     C20560   0.972   1.371  11.273 -0.3049 -1.0768  0.6056
  894MOL0     C20561   0.844   1.367  11.219  0.6419  0.4656 -0.1029
  894MOL0     C20562   0.730   1.353  11.312 -0.1051  0.9707  0.5148
  894MOL0     O20563   0.602   1.340  11.275 -0.1581  0.5452 -0.1145
  894MOL0     C20564   0.500   1.339  11.372 -0.2347  0.0162 -0.7993
  894MOL0     C20565   0.364   1.308  11.302 -0.5930  0.6707 -0.0980
  894MOL0     C20566   0.355   1.165  11.238  0.0425  0.9510  0.0631
  894MOL0     C20567   0.321   1.056  11.336  0.2347 -0.2567  0.0422
  894MOL0     C20568   0.347   0.912  11.302  0.1514 -0.2682  0.0703
  894MOL0     C20569   0.303   0.811  11.400  0.0026  0.5086  0.4055
  894MOL0     C20570   0.271   0.673  11.350  0.3785 -0.1672  0.4634
  894MOL0     C20571   0.248   0.560  11.453 -0.5386 -0.5455 -0.4103
  894MOL0     N20572   0.236   0.422  11.402  0.5125 -0.4536 -0.6201
  894MOL0     C20573   0.118   0.377  11.354  0.0579 -0.5933 -0.0909
  894MOL0     C20574   0.144   0.255  11.299 -0.1604  0.7726 -0.5019
  894MOL0     C20575   0.048   0.167  11.230 -0.9178 -0.2087  0.4205
  894MOL0     C20576   0.077   0.021  11.251 -0.2049 -0.0120 -0.2781
  894MOL0     C20577   0.082  -0.013  11.406 -0.3695  0.8164 -0.5705
  894MOL0     C20578   0.075  -0.160  11.427  0.6470 -0.8877  0.2441
  894MOL0     O20579   0.099  -0.184  11.572  0.1148 -0.5973 -0.6358
  894MOL0     C20580  -0.004  -0.170  11.656 -0.0887 -0.3162 -0.1532
  894MOL0     C20581   0.015  -0.119  11.791 -0.8338  0.6967  0.0556
  894MOL0     C20582  -0.096  -0.100  11.872 -0.4676  0.2125 -0.8697
  894MOL0     C20583  -0.062  -0.048  12.003 -0.1001 -0.5673 -0.4750
  894MOL0     C20584  -0.227  -0.132  11.836 -0.4158 -0.0331 -1.5573
  894MOL0     C20585  -0.342  -0.126  11.925 -0.2925 -0.4120  1.1962
  894MOL0     O20586  -0.452  -0.070  11.859  0.4986  0.1168  0.3142
  894MOL0     C20587  -0.564  -0.045  11.931 -1.1059 -0.1585 -0.3797
  894MOL0     C20588  -0.553   0.052  12.035 -0.0898  0.9492  0.1023
  894MOL0     C20589  -0.664   0.109  12.078  0.1785  0.5664 -1.1025
  894MOL0     C20590  -0.791   0.068  12.030  0.0052 -0.3852 -1.1107
  894MOL0     O20591  -0.898   0.138  12.082  0.3345 -0.1745 -0.1261
  894MOL0     C20592  -1.028   0.109  12.022 -0.0735  0.3024 -0.6496
  894MOL0     C20593  -1.145   0.183  12.089  0.2878  0.1832 -0.5126
  894MOL0     C20594  -1.283   0.126  12.035 -0.2153 -0.6312  0.1691
  894MOL0     C20595  -1.403   0.210  12.091  0.4729  0.1814  0.5199
  894MOL0     C20596  -1.542   0.153  12.057  0.0963  0.1884 -0.4253
  894MOL0     C20597  -1.653   0.216  12.143 -0.2955 -0.5280 -0.7416
  894MOL0     C20598  -1.786   0.167  12.077  0.3557  0.0227  0.1533
  894MOL0     C20599  -1.907   0.224  12.153  0.0176  0.4242 -0.0900
  894MOL0    Cl20600  -2.056   0.161  12.083 -0.2256 -0.1103 -0.2104
  894MOL0     C20601  -0.798  -0.042  11.948 -0.0402  0.1707  0.2220
  894MOL0     C20602  -0.684  -0.095  11.891  0.3828  0.1319 -0.2377
  894MOL0     O20603  -0.334  -0.154  12.042  0.8010  0.4851 -0.8698
  894MOL0     C20604  -0.253  -0.193  11.712 -0.0021  0.5757  0.2752
  894MOL0     C20605  -0.143  -0.196  11.622  0.0192  1.5712  0.0180
  894MOL0     N20606   0.284   0.235  11.309 -0.0780 -0.3084 -0.3078
  894MOL0     N20607   0.343   0.340  11.370  0.8355  0.0780 -0.2504
  894MOL0     C20608   0.767   1.356  11.454  0.2034 -1.1223  0.2449
  894MOL0     C20609   0.896   1.375  11.507  0.2730  0.6671 -0.0054
  894MOL0     C20610   1.334   1.557  11.461  0.2310 -0.1115 -0.3894
  894MOL0     C20611   1.383   1.685  11.432 -0.2955  0.1270 -0.5094
  894MOL0     C20612   1.515   1.715  11.474  0.8643  0.0423  0.0625
  894MOL0     C20613   1.597   1.628  11.547 -0.1449 -0.0005 -0.4514
  894MOL0     O20614   1.730   1.665  11.583  0.0324 -0.3031 -0.8418
  894MOL0     C20615   1.777   1.799  11.553 -0.2923 -0.4197 -0.3487
  894MOL0     C20616   1.925   1.817  11.583  0.5822  0.2789 -1.2893
  894MOL0     C20617   1.965   1.773  11.726  0.4063  0.7011  0.4176
  894MOL0     C20618   2.112   1.803  11.752 -0.6800  0.1228  0.8089
  894MOL0     C20619   2.138   1.771  11.886  0.0528  0.1098  0.8886
  894MOL0     C20620   2.153   1.730  12.000  0.4222  0.1495 -0.2576
  894MOL0     C20621   1.533   1.506  11.574 -0.2124  0.5722  0.9344
  894MOL0     C20622   1.406   1.466  11.535 -0.4794  0.2605  0.3032
  894MOL0     H20623   1.055   1.375  11.204  0.0388 -0.1459  1.0507
  894MOL0     H20624   0.829   1.357  11.112 -1.8125  0.5613  0.1726
  894MOL0     H20625   0.527   1.264  11.447  1.7922 -1.0326 -2.4895
  894MOL0     H20626   0.482   1.438  11.416  0.1992  0.7107 -2.1464
  894MOL0     H20627   0.275   1.316  11.366 -0.1119 -0.9222  0.8234
  894MOL0     H20628   0.342   1.390  11.233 -3.4794  0.0843  0.0061
  894MOL0     H20629   0.262   1.169  11.181 -0.4029  1.5843  0.8082
  894MOL0     H20630   0.439   1.144  11.172 -0.6074 -0.0247 -0.4585
  894MOL0     H20631   0.359   1.069  11.437 -2.6303 -1.5794  1.4127
  894MOL0     H20632   0.213   1.075  11.339  0.7368  2.7950  2.1122
  894MOL0     H20633   0.282   0.889  11.217 -0.6617  0.8415  0.3612
  894MOL0     H20634   0.453   0.897  11.281  0.2351  2.7052 -2.2460
  894MOL0     H20635   0.377   0.810  11.480 -1.9297  1.0522  2.3192
  894MOL0     H20636   0.210   0.841  11.450  0.2917  1.0816  0.6041
  894MOL0     H20637   0.178   0.687  11.294 -1.4176  1.2149  3.5186
  894MOL0     H20638   0.362   0.649  11.294  1.2239  1.7885  0.9045
  894MOL0     H20639   0.160   0.588  11.511 -0.0116  2.3719 -0.8437
  894MOL0     H20640   0.332   0.558  11.524 -1.2504 -2.1277  0.4369
  894MOL0     H20641   0.023   0.429  11.348  0.2450  0.0287  1.7280
  894MOL0     H20642  -0.060   0.178  11.244 -1.0174 -1.7883  1.2139
  894MOL0     H20643   0.061   0.178  11.122 -1.5722  1.5888  0.4906
  894MOL0     H20644   0.164  -0.017  11.196  0.0077  3.6952 -2.8624
  894MOL0     H20645  -0.009  -0.026  11.204 -1.8612  2.4758  0.0662
  894MOL0     H20646  -0.008   0.023  11.456 -0.8909  1.3245 -1.8356
  894MOL0     H20647   0.166   0.038  11.454 -1.4099  2.7260 -0.6860
  894MOL0     H20648   0.151  -0.200  11.360  3.0237  3.3400  0.0690
  894MOL0     H20649  -0.023  -0.191  11.389  0.0935  1.5380 -0.5197
  894MOL0     H20650   0.117  -0.113  11.828 -0.9152  0.8862  0.2545
  894MOL0     H20651  -0.064  -0.134  12.071  2.5564  2.0944  3.3743
  894MOL0     H20652   0.038  -0.007  11.990 -0.2549 -0.6342 -2.1698
  894MOL0     H20653  -0.127   0.026  12.050  0.3409 -1.7543  2.2116
  894MOL0     H20654  -0.454   0.080  12.069  1.6421 -2.4678 -1.6153
  894MOL0     H20655  -0.661   0.186  12.155 -1.2394 -1.9853  1.7373
  894MOL0     H20656  -1.033   0.132  11.915  2.3216  2.5795 -0.3659
  894MOL0     H20657  -1.059   0.005  12.039 -1.6881  0.9065  0.3708
  894MOL0     H20658  -1.138   0.180  12.199 -3.1410 -0.4581 -0.2173
  894MOL0     H20659  -1.129   0.289  12.070 -0.1439  0.7459  1.9246
  894MOL0     H20660  -1.295   0.022  12.065 -3.0574 -0.0353  1.3905
  894MOL0     H20661  -1.291   0.138  11.927  1.6166 -0.5705 -0.0036
  894MOL0     H20662  -1.401   0.200  12.200  1.3788  0.2183  0.5096
  894MOL0     H20663  -1.387   0.314  12.060  0.6017  0.2392  0.7753
  894MOL0     H20664  -1.537   0.046  12.075 -1.4278 -0.3731 -2.8687
  894MOL0     H20665  -1.549   0.182  11.952 -0.4827  0.8052 -0.2232
  894MOL0     H20666  -1.650   0.179  12.246  0.8747  0.5540 -0.3663
  894MOL0     H20667  -1.629   0.322  12.130  3.7060 -1.1414  0.4860
  894MOL0     H20668  -1.788   0.059  12.064 -1.5257  0.1193 -0.6411
  894MOL0     H20669  -1.793   0.202  11.974 -1.9798  2.9803  1.1363
  894MOL0     H20670  -1.909   0.333  12.140  0.1154  0.6484  1.5504
  894MOL0     H20671  -1.906   0.184  12.255 -1.6994 -2.5837 -1.1364
  894MOL0     H20672  -0.898  -0.083  11.940  0.2465 -1.1189  2.5611
  894MOL0     H20673  -0.702  -0.182  11.829 -0.5672 -0.7170  1.1655
  894MOL0     H20674  -0.353  -0.212  11.675  0.5122 -0.0780 -0.8367
  894MOL0     H20675  -0.165  -0.235  11.523 -1.8370  1.3291  0.4756
  894MOL0     H20676   0.700   1.350  11.539 -0.9865  0.3680 -0.5448
  894MOL0     H20677   0.911   1.381  11.614  4.3864 -0.4545 -0.3288
  894MOL0     H20678   1.332   1.764  11.378  1.1989  3.1102  2.1049
  894MOL0     H20679   1.554   1.813  11.448  2.2661  0.2295  2.5769
  894MOL0     H20680   1.775   1.830  11.448  2.3739  3.0656  0.4646
  894MOL0     H20681   1.714   1.872  11.605 -1.6748 -0.7018 -1.5411
  894MOL0     H20682   1.944   1.924  11.576 -0.7633  0.6233 -0.2480
  894MOL0     H20683   1.984   1.755  11.515  0.6505  0.8178 -1.7244
  894MOL0     H20684   1.928   1.671  11.745 -1.6177  1.6505  2.0056
  894MOL0     H20685   1.899   1.830  11.792 -0.1189  0.4334  0.1307
  894MOL0     H20686   2.133   1.907  11.727  1.4658 -0.2572  0.7935
  894MOL0     H20687   2.179   1.745  11.687  0.4880  0.6458  1.5246
  894MOL0     H20688   2.166   1.695  12.100  0.5185 -1.3875 -0.7768
  894MOL0     H20689   1.597   1.437  11.629  1.0824  0.3989 -0.6916
  894MOL0     H20690   1.360   1.369  11.551 -1.8831  0.9066  0.3789
  895MOL0     O20691  10.330   0.116   1.158  0.2477  0.5587  0.2876
  895MOL0     C20692  10.382   0.029   1.091  0.3697  0.6952  0.2566
  895MOL0     O20693  10.322  -0.068   1.016 -0.0138 -0.1125 -0.0336
  895MOL0     C20694  10.186  -0.078   0.996  0.2760  0.4943  0.2572
  895MOL0     C20695  10.168  -0.195   0.928  0.7010 -0.0623  1.4529
  895MOL0     C20696  10.040  -0.227   0.887 -0.0573 -1.1697 -1.4236
  895MOL0     C20697   9.929  -0.152   0.923 -0.5161 -0.7436 -0.4032
  895MOL0     O20698   9.809  -0.191   0.869  0.4608  0.7635  0.4561
  895MOL0     C20699   9.691  -0.127   0.913  0.0427 -0.3040  0.5127
  895MOL0     C20700   9.575  -0.203   0.845 -0.9981 -0.5770  0.2961
  895MOL0     C20701   9.430  -0.169   0.895  0.5477  0.6190 -0.2382
  895MOL0     C20702   9.318  -0.263   0.853 -0.1708  0.0342  0.3714
  895MOL0     C20703   9.182  -0.189   0.822  0.0767  0.7364  0.5289
  895MOL0     C20704   9.102  -0.160   0.943  0.5731  0.4700  0.2454
  895MOL0     C20705   8.958  -0.113   0.927 -0.4062 -0.1064  0.1827
  895MOL0     C20706   8.939   0.018   0.846  0.4097 -0.2065 -0.2729
  895MOL0     N20707   8.798   0.069   0.833  0.4323 -0.7549  0.6894
  895MOL0     C20708   8.741   0.177   0.910 -0.0931  0.3999 -0.2286
  895MOL0     C20709   8.618   0.181   0.858 -0.0859  0.0763  0.0636
  895MOL0     C20710   8.512   0.284   0.891 -0.7985  0.0578 -0.0094
  895MOL0     C20711   8.444   0.351   0.777  0.4400 -0.0480  0.7254
  895MOL0     C20712   8.363   0.468   0.838  0.2080 -0.5154  0.0657
  895MOL0     C20713   8.337   0.490   0.988  0.0575 -0.1693  0.1869
  895MOL0     O20714   8.245   0.398   1.037 -0.2888  1.0218  0.2007
  895MOL0     C20715   8.189   0.415   1.162 -0.2984  0.6751  0.4039
  895MOL0     C20716   8.172   0.537   1.237 -0.1063 -0.3962  0.1894
  895MOL0     C20717   8.116   0.534   1.368  0.5890 -0.2296 -0.5795
  895MOL0     C20718   8.122   0.666   1.447 -0.4091 -0.1562 -0.1323
  895MOL0     C20719   8.089   0.413   1.433 -0.7183 -0.0720 -0.3544
  895MOL0     C20720   8.038   0.389   1.575  0.1249  0.1752  0.9376
  895MOL0     O20721   8.073   0.274   1.627 -0.6129 -0.7430  0.3013
  895MOL0     C20722   8.070   0.254   1.767  0.0053  0.1448 -0.6277
  895MOL0     C20723   8.057   0.349   1.868  0.1418  0.0532 -0.4679
  895MOL0     C20724   8.077   0.310   2.002  0.1595 -0.1612 -0.1162
  895MOL0     C20725   8.111   0.177   2.044  1.3850 -0.4072 -0.0959
  895MOL0     O20726   8.123   0.144   2.179 -0.4469 -1.4135  0.4722
  895MOL0     C20727   8.191   0.240   2.271  0.6178  0.0277  0.4187
  895MOL0     C20728   8.232   0.169   2.401  0.0478 -0.6552 -0.5824
  895MOL0     C20729   8.363   0.071   2.381  0.1613  0.8515  0.5634
  895MOL0     C20730   8.356  -0.025   2.253 -0.3650 -0.2946 -0.6513
  895MOL0     C20731   8.482  -0.101   2.234  1.1715  0.4230  0.1706
  895MOL0     C20732   8.514  -0.192   2.350  0.5281  0.6531 -0.3591
  895MOL0     C20733   8.649  -0.263   2.314  0.1887  0.4017 -0.0015
  895MOL0     C20734   8.715  -0.350   2.414 -0.6061  0.3342  0.0876
  895MOL0    Cl20735   8.621  -0.492   2.463  0.0630  0.2517 -0.2162
  895MOL0     C20736   8.120   0.082   1.947  0.2238 -0.0323 -0.5998
  895MOL0     C20737   8.105   0.119   1.813 -0.2254  0.1582  0.6802
  895MOL0     O20738   7.950   0.462   1.616  0.3542  0.2128  0.4087
  895MOL0     C20739   8.108   0.291   1.359  0.8240 -1.0052 -1.3977
  895MOL0     C20740   8.144   0.299   1.227  0.1167  0.0769  0.4251
  895MOL0     N20741   8.591   0.067   0.780 -0.1226  0.4896  0.5697
  895MOL0     N20742   8.702   0.006   0.766 -0.1718  0.1243 -0.1042
  895MOL0     C20743   9.949  -0.036   1.002  0.6940  0.7808 -0.3164
  895MOL0     C20744  10.080  -0.002   1.039  0.0874  0.1128  0.0933
  895MOL0     C20745  10.526   0.025   1.087 -0.6175  0.8070  0.3876
  895MOL0     C20746  10.603   0.103   1.169 -0.2525  0.2670  0.5962
  895MOL0     C20747  10.738   0.099   1.158 -0.1077 -0.3592  0.4016
  895MOL0     C20748  10.804   0.004   1.066  0.5507 -0.7731 -0.0820
  895MOL0     O20749  10.939   0.010   1.069 -0.2163  0.1631 -0.3246
  895MOL0     C20750  11.012  -0.005   0.941  0.5016 -0.2171  0.7580
  895MOL0     C20751  11.158   0.048   0.957  1.1433 -0.0537 -0.1505
  895MOL0     C20752  11.249  -0.057   1.027 -1.5161  0.8045  0.6956
  895MOL0     C20753  11.394  -0.026   1.016 -0.0916 -0.1375  0.4581
  895MOL0     C20754  11.432   0.114   1.037  0.4370  0.1581  0.2886
  895MOL0     C20755  11.458   0.233   1.034 -0.0235 -0.2917 -0.4451
  895MOL0     C20756  10.727  -0.078   0.988  0.7267  0.9020  0.5463
  895MOL0     C20757  10.588  -0.066   0.993 -0.2923  0.3920 -0.0143
  895MOL0     H20758  10.251  -0.250   0.885  0.1333 -0.6401  1.0798
  895MOL0     H20759  10.037  -0.319   0.830  0.0958 -3.0417  1.4085
  895MOL0     H20760   9.679  -0.141   1.021  4.0321 -1.4053  1.0051
  895MOL0     H20761   9.695  -0.022   0.884  1.1668 -0.7863 -1.2356
  895MOL0     H20762   9.583  -0.183   0.737  1.4700 -2.7893 -0.0434
  895MOL0     H20763   9.594  -0.309   0.864  2.6774  0.1801  1.6092
  895MOL0     H20764   9.422  -0.134   0.998 -1.3456 -1.5576  0.4403
  895MOL0     H20765   9.403  -0.076   0.844 -1.4085  0.2273  0.0071
  895MOL0     H20766   9.351  -0.313   0.761  0.5302 -1.3698  1.3485
  895MOL0     H20767   9.302  -0.343   0.926  3.0560  0.0876  1.2896
  895MOL0     H20768   9.199  -0.098   0.765 -2.5243  1.3657  0.6587
  895MOL0     H20769   9.117  -0.252   0.760  1.6592 -1.6376  1.1171
  895MOL0     H20770   9.107  -0.252   1.001 -2.0375 -0.6355 -1.1185
  895MOL0     H20771   9.155  -0.085   1.003  0.8312  2.3233 -2.1332
  895MOL0     H20772   8.913  -0.186   0.859  0.9862  1.1039 -2.1674
  895MOL0     H20773   8.900  -0.116   1.019 -1.4805 -4.1573 -0.4205
  895MOL0     H20774   8.985   0.008   0.748  2.0926 -2.1421  0.6301
  895MOL0     H20775   8.982   0.097   0.908 -1.6407 -0.2169  1.2574
  895MOL0     H20776   8.786   0.238   0.987 -1.0336 -0.5994  1.1689
  895MOL0     H20777   8.439   0.242   0.960 -2.5014  1.3574 -0.9402
  895MOL0     H20778   8.569   0.364   0.940  2.6918 -1.2283 -1.6577
  895MOL0     H20779   8.384   0.273   0.728  0.9289  0.6205 -1.0434
  895MOL0     H20780   8.505   0.393   0.696  0.2389 -1.6283 -0.2914
  895MOL0     H20781   8.269   0.461   0.782  0.6256  0.3439 -0.7845
  895MOL0     H20782   8.398   0.561   0.792  0.3556 -0.4733  0.2624
  895MOL0     H20783   8.299   0.593   0.989  2.1177  0.7784 -3.2248
  895MOL0     H20784   8.431   0.483   1.043  0.3444 -1.7809 -0.4559
  895MOL0     H20785   8.193   0.633   1.190  1.5570 -1.2156 -0.8449
  895MOL0     H20786   8.098   0.746   1.376  1.8190  1.8881  1.2372
  895MOL0     H20787   8.050   0.672   1.529  0.0390 -0.0496  0.2549
  895MOL0     H20788   8.226   0.683   1.479 -0.9438  1.9182  0.6794
  895MOL0     H20789   8.056   0.454   1.842  1.1865 -0.1474 -1.3862
  895MOL0     H20790   8.069   0.387   2.078  2.5781  0.1375 -0.0727
  895MOL0     H20791   8.276   0.287   2.221  0.0840 -0.6178 -1.1495
  895MOL0     H20792   8.121   0.321   2.289  1.3673  0.7556  0.1422
  895MOL0     H20793   8.243   0.242   2.482 -4.8129 -0.9410  0.6537
  895MOL0     H20794   8.138   0.121   2.429  0.5547 -0.0451  2.4659
  895MOL0     H20795   8.370   0.000   2.465  1.8641  0.8227  0.4442
  895MOL0     H20796   8.456   0.128   2.387  1.4164 -1.0156 -0.1203
  895MOL0     H20797   8.277  -0.099   2.267 -0.2604 -0.2479  0.3042
  895MOL0     H20798   8.332   0.038   2.167 -0.9907 -1.4726 -1.3581
  895MOL0     H20799   8.561  -0.032   2.204  1.9254 -2.1331 -4.7171
  895MOL0     H20800   8.460  -0.160   2.145  1.4119 -3.8401  2.6726
  895MOL0     H20801   8.529  -0.146   2.448 -0.5227 -0.6800  0.4612
  895MOL0     H20802   8.422  -0.247   2.374  0.8780  0.6856  1.1929
  895MOL0     H20803   8.717  -0.178   2.301  1.9098 -1.0424 -0.9038
  895MOL0     H20804   8.645  -0.319   2.220 -0.8197  0.5112 -0.0326
  895MOL0     H20805   8.727  -0.293   2.506  0.2846  0.3500 -0.0295
  895MOL0     H20806   8.808  -0.391   2.372 -2.7624 -1.6832 -3.2215
  895MOL0     H20807   8.152  -0.017   1.980 -0.7000 -0.2242 -0.2556
  895MOL0     H20808   8.117   0.038   1.741 -2.3606  0.9537 -0.6520
  895MOL0     H20809   8.083   0.193   1.399  1.0908 -0.5989 -0.1925
  895MOL0     H20810   8.152   0.208   1.169 -3.3273  1.9465 -3.5252
  895MOL0     H20811   9.871   0.028   1.043  0.7650  1.4357 -1.1575
  895MOL0     H20812  10.097   0.082   1.106 -2.4690 -1.0060  2.3066
  895MOL0     H20813  10.549   0.172   1.233 -0.9944  0.2154  0.0359
  895MOL0     H20814  10.801   0.171   1.209  0.7115  1.2435 -2.6252
  895MOL0     H20815  11.006  -0.107   0.902 -1.6802  0.4058 -0.7071
  895MOL0     H20816  10.957   0.071   0.886  0.1289 -0.8174  0.3030
  895MOL0     H20817  11.164   0.145   1.007  0.7975  0.6223 -1.3625
  895MOL0     H20818  11.190   0.063   0.853 -0.7066  0.0944 -0.7364
  895MOL0     H20819  11.235  -0.156   0.983  1.9972  0.2529  0.4758
  895MOL0     H20820  11.219  -0.063   1.132 -0.6889  1.0616  0.9563
  895MOL0     H20821  11.422  -0.050   0.913  0.1761  0.4195  0.3983
  895MOL0     H20822  11.459  -0.089   1.077  2.8939 -0.1558 -2.4435
  895MOL0     H20823  11.484   0.336   1.030  1.6275 -0.6162  1.0444
  895MOL0     H20824  10.770  -0.155   0.925 -1.1597 -3.3980  3.9768
  895MOL0     H20825  10.524  -0.119   0.923  0.0406 -0.2479  0.1668
  896MOL0     O20826   5.206   7.341   1.464  0.3715  0.1176  0.6885
  896MOL0     C20827   5.263   7.311   1.363  0.1627 -1.9086 -0.2765
  896MOL0     O20828   5.245   7.198   1.291  0.8607  0.1224  0.2506
  896MOL0     C20829   5.140   7.114   1.316  0.5028  0.3640  0.5488
  896MOL0     C20830   5.129   7.024   1.214 -0.6688  0.0816 -0.2924
  896MOL0     C20831   5.024   6.934   1.202  0.1709 -0.1109  0.2441
  896MOL0     C20832   4.936   6.924   1.312 -0.4399 -0.8935  0.4698
  896MOL0     O20833   4.838   6.832   1.317 -0.5676  0.6117 -0.3358
  896MOL0     C20834   4.836   6.716   1.230  0.2268 -0.0190 -0.4940
  896MOL0     C20835   4.722   6.626   1.279  0.7040 -0.7499 -0.1137
  896MOL0     C20836   4.705   6.497   1.208  0.1825  0.0284 -0.1284
  896MOL0     C20837   4.838   6.423   1.192 -0.3525 -0.0545 -0.6009
  896MOL0     C20838   4.831   6.275   1.163  0.8169  0.2005  0.1834
  896MOL0     C20839   4.758   6.248   1.033  0.8151 -0.0484 -0.3175
  896MOL0     C20840   4.737   6.099   1.011  0.2298 -0.1196 -0.1219
  896MOL0     C20841   4.656   6.054   0.887  0.5083  0.0547  1.2116
  896MOL0     N20842   4.714   6.065   0.748  0.4861  0.7640 -0.5299
  896MOL0     C20843   4.759   5.968   0.663 -0.3296  0.4298  0.3451
  896MOL0     C20844   4.798   6.035   0.555 -0.6508 -0.0407  0.2739
  896MOL0     C20845   4.850   5.970   0.426 -0.4873 -0.1918  0.1125
  896MOL0     C20846   4.990   5.926   0.427  0.2550  0.3397 -0.7157
  896MOL0     C20847   5.085   6.033   0.487 -0.1926 -0.1367 -0.8921
  896MOL0     C20848   5.233   5.988   0.467 -0.3826 -0.0053  0.7346
  896MOL0     O20849   5.298   6.026   0.345  0.4573  0.4968 -0.2707
  896MOL0     C20850   5.426   5.983   0.320 -0.4255 -0.0939 -0.4552
  896MOL0     C20851   5.489   5.880   0.401  0.2105 -0.8549 -0.5702
  896MOL0     C20852   5.611   5.830   0.356 -0.4118 -0.0671  0.2110
  896MOL0     C20853   5.664   5.700   0.418 -0.0455 -0.5777 -0.0256
  896MOL0     C20854   5.669   5.886   0.240 -0.3874 -1.1594  0.1418
  896MOL0     C20855   5.802   5.851   0.198 -0.1828  0.5269  0.5525
  896MOL0     O20856   5.816   5.821   0.063  0.5310 -0.2534  0.0083
  896MOL0     C20857   5.921   5.737   0.028  0.1707 -0.2424  0.5570
  896MOL0     C20858   6.009   5.771  -0.072  0.0644 -0.0251 -1.4969
  896MOL0     C20859   6.111   5.688  -0.114 -0.3388 -0.0992  0.6394
  896MOL0     C20860   6.138   5.565  -0.053  0.1200 -1.7537 -0.5505
  896MOL0     O20861   6.236   5.492  -0.106  0.0475  0.5393  0.3773
  896MOL0     C20862   6.208   5.354  -0.135 -0.1064  0.7235  0.4293
  896MOL0     C20863   6.331   5.306  -0.212 -0.2342 -0.2593 -0.1063
  896MOL0     C20864   6.352   5.381  -0.342 -0.1603 -0.6176  0.6190
  896MOL0     C20865   6.426   5.308  -0.453  0.3599 -1.4240 -0.2928
  896MOL0     C20866   6.357   5.176  -0.486  0.2983  0.6921 -0.3283
  896MOL0     C20867   6.392   5.120  -0.627 -0.4135  0.5619 -0.0142
  896MOL0     C20868   6.381   4.963  -0.629 -1.0661 -0.2467 -0.6342
  896MOL0     C20869   6.505   4.884  -0.638 -0.9456  1.0975  0.7082
  896MOL0    Cl20870   6.447   4.712  -0.643 -0.3082  0.4506  0.1104
  896MOL0     C20871   6.047   5.528   0.053 -0.9039 -0.2803 -0.5153
  896MOL0     C20872   5.941   5.603   0.088  0.2580 -1.2562 -0.4327
  896MOL0     O20873   5.892   5.846   0.273  0.2707 -0.1855 -0.8664
  896MOL0     C20874   5.602   5.985   0.161  0.5579 -0.7702 -0.7276
  896MOL0     C20875   5.475   6.034   0.209 -0.1507 -0.3987 -0.9422
  896MOL0     N20876   4.793   6.176   0.575  0.3484 -0.2288  0.8810
  896MOL0     N20877   4.740   6.191   0.692  0.0572  0.4926 -0.0063
  896MOL0     C20878   4.947   7.010   1.413  0.5067  0.3769 -1.4504
  896MOL0     C20879   5.044   7.106   1.424  1.1239 -0.5978  0.4591
  896MOL0     C20880   5.374   7.398   1.335 -0.9166 -0.4800  0.9345
  896MOL0     C20881   5.499   7.352   1.304  0.3635 -0.5184 -1.0492
  896MOL0     C20882   5.612   7.432   1.292  1.0561 -0.4606 -0.0507
  896MOL0     C20883   5.600   7.569   1.325 -0.5663  0.6003 -0.7830
  896MOL0     O20884   5.702   7.660   1.328  1.0603 -0.1999 -0.3129
  896MOL0     C20885   5.826   7.637   1.255  0.4693  0.3027 -0.5748
  896MOL0     C20886   5.907   7.770   1.272 -0.2221  0.4014  0.2116
  896MOL0     C20887   6.033   7.759   1.193  0.4698 -0.1431  0.5294
  896MOL0     C20888   6.142   7.650   1.211  0.5208 -0.0647 -0.1445
  896MOL0     C20889   6.276   7.689   1.244 -1.0062 -0.2121 -0.2957
  896MOL0     C20890   6.397   7.720   1.250 -1.0321 -0.2727 -0.9595
  896MOL0     C20891   5.474   7.623   1.352  0.2395 -0.5627 -0.1624
  896MOL0     C20892   5.364   7.535   1.358 -0.2394  0.1041 -0.6686
  896MOL0     H20893   5.205   7.033   1.137 -2.0390  0.0870 -1.7064
  896MOL0     H20894   5.037   6.868   1.117 -1.8304 -0.4429  0.1533
  896MOL0     H20895   4.835   6.737   1.123 -2.1883 -1.1037 -0.7550
  896MOL0     H20896   4.931   6.663   1.234 -0.1087 -0.6931 -1.1555
  896MOL0     H20897   4.726   6.614   1.387 -0.6213  2.4560  0.3856
  896MOL0     H20898   4.631   6.685   1.267  1.4324  1.1222  2.7300
  896MOL0     H20899   4.644   6.438   1.277  0.1859  3.9804  3.6424
  896MOL0     H20900   4.650   6.526   1.118  2.8851 -1.2036 -2.3333
  896MOL0     H20901   4.901   6.470   1.116 -1.8126  2.0582 -0.5878
  896MOL0     H20902   4.895   6.437   1.284 -3.0140 -2.1476  1.5582
  896MOL0     H20903   4.930   6.230   1.173  0.1922 -1.0367  1.0669
  896MOL0     H20904   4.777   6.226   1.244  0.7634  0.0114  0.0326
  896MOL0     H20905   4.661   6.298   1.027  0.3590 -0.2682  3.0656
  896MOL0     H20906   4.822   6.288   0.954 -0.2483 -2.2068 -2.3795
  896MOL0     H20907   4.826   6.035   1.010 -0.4785 -1.2013  1.7093
  896MOL0     H20908   4.674   6.065   1.094 -2.0878  1.2437 -1.2204
  896MOL0     H20909   4.571   6.122   0.894  1.2163  0.7774  5.1662
  896MOL0     H20910   4.623   5.952   0.905 -0.8234  0.2096 -0.1708
  896MOL0     H20911   4.771   5.861   0.671 -2.1553  0.3036  2.5127
  896MOL0     H20912   4.787   5.881   0.428 -1.4463  0.3780  4.1832
  896MOL0     H20913   4.836   6.033   0.337  2.0878 -1.0576 -1.0001
  896MOL0     H20914   5.027   5.908   0.326  0.4937  2.4307 -1.0436
  896MOL0     H20915   4.994   5.832   0.484  1.2279 -0.9395 -2.7656
  896MOL0     H20916   5.077   6.038   0.595 -2.4763  1.7500 -1.0738
  896MOL0     H20917   5.076   6.133   0.444  1.4754  0.7557  0.7242
  896MOL0     H20918   5.228   5.880   0.454  1.0310  0.1958 -2.6190
  896MOL0     H20919   5.297   6.014   0.551  0.1758  2.6471 -0.3898
  896MOL0     H20920   5.449   5.845   0.495  1.0192 -0.0460  0.0931
  896MOL0     H20921   5.750   5.729   0.480 -2.6826 -0.2684  3.8025
  896MOL0     H20922   5.592   5.653   0.485 -1.9839  1.2741 -0.6863
  896MOL0     H20923   5.687   5.622   0.344 -0.4424  1.1093 -2.0401
  896MOL0     H20924   5.985   5.871  -0.107 -3.6622  0.0128  0.6220
  896MOL0     H20925   6.183   5.719  -0.188 -1.4230 -1.7811 -1.2081
  896MOL0     H20926   6.196   5.297  -0.043  1.0636  0.0522  0.1908
  896MOL0     H20927   6.117   5.340  -0.194  0.4762  0.4743 -0.4421
  896MOL0     H20928   6.418   5.325  -0.149 -0.6361  0.3891  0.2613
  896MOL0     H20929   6.309   5.202  -0.237 -0.4857  0.2963 -2.5299
  896MOL0     H20930   6.423   5.464  -0.332  1.1906 -1.2216 -2.5625
  896MOL0     H20931   6.259   5.425  -0.380 -0.2783  0.7283  2.3629
  896MOL0     H20932   6.427   5.370  -0.543 -0.4424 -1.5069 -0.3626
  896MOL0     H20933   6.530   5.284  -0.428  0.5760 -2.4616 -2.0067
  896MOL0     H20934   6.248   5.171  -0.477  0.4781 -1.2019  1.7943
  896MOL0     H20935   6.406   5.107  -0.416 -0.9076  0.2567  0.1170
  896MOL0     H20936   6.325   5.161  -0.702  1.0563 -1.5967 -2.7284
  896MOL0     H20937   6.488   5.151  -0.670 -2.0973  2.8345 -2.4116
  896MOL0     H20938   6.319   4.929  -0.713 -2.6370 -1.7989  1.0819
  896MOL0     H20939   6.322   4.930  -0.544 -0.4338 -1.4016 -0.6359
  896MOL0     H20940   6.584   4.900  -0.564  2.4116 -0.0891 -2.3544
  896MOL0     H20941   6.551   4.926  -0.728  0.5722 -2.1133 -0.1573
  896MOL0     H20942   6.057   5.436   0.110 -2.7855 -0.9976 -1.2690
  896MOL0     H20943   5.882   5.579   0.175  1.3987 -2.7142 -0.0267
  896MOL0     H20944   5.639   6.036   0.073  0.4696  1.9504  0.7156
  896MOL0     H20945   5.423   6.113   0.157 -0.4226  2.1334  2.7925
  896MOL0     H20946   4.868   7.000   1.488 -1.5730  2.7642 -3.1777
  896MOL0     H20947   5.037   7.173   1.509 -4.4782 -0.9693  0.6893
  896MOL0     H20948   5.515   7.248   1.277  1.8625 -0.6885  0.3642
  896MOL0     H20949   5.706   7.391   1.257 -0.3911 -2.9060 -1.3463
  896MOL0     H20950   5.878   7.550   1.295 -0.6448 -1.9833 -3.6276
  896MOL0     H20951   5.796   7.627   1.150 -2.0522  2.7307 -0.2005
  896MOL0     H20952   5.938   7.796   1.373  3.3222 -0.2955 -0.5550
  896MOL0     H20953   5.848   7.858   1.246 -0.2590  0.4151  0.3411
  896MOL0     H20954   6.085   7.844   1.239  0.1523 -0.9898  2.5537
  896MOL0     H20955   6.005   7.771   1.088 -3.1927  1.5451  1.5394
  896MOL0     H20956   6.152   7.599   1.115 -1.5397 -0.2500 -0.3051
  896MOL0     H20957   6.102   7.586   1.290 -1.3145 -1.1644 -1.8589
  896MOL0     H20958   6.502   7.737   1.261 -1.5287  1.2977  3.7655
  896MOL0     H20959   5.464   7.729   1.372  3.5995  0.1330 -1.4419
  896MOL0     H20960   5.265   7.570   1.384  0.1555  1.5356 -1.0082
  897MOL0     O20961  10.236   7.461   1.979  0.3482 -0.0532  0.2377
  897MOL0     C20962  10.244   7.415   1.864  0.0961 -0.4709  0.0423
  897MOL0     O20963  10.139   7.353   1.802  0.3642  0.0196 -0.2953
  897MOL0     C20964  10.013   7.354   1.855  0.6437 -0.2953  0.5207
  897MOL0     C20965   9.960   7.454   1.933  0.6638 -0.2566  0.1643
  897MOL0     C20966   9.826   7.442   1.973 -0.2921  0.0745 -0.9638
  897MOL0     C20967   9.748   7.324   1.960  0.6055 -0.4934 -0.2267
  897MOL0     O20968   9.618   7.316   2.004 -0.2947 -0.2715 -1.0862
  897MOL0     C20969   9.615   7.247   2.132  0.2539 -0.0717  0.4574
  897MOL0     C20970   9.519   7.328   2.222 -0.9637  0.4905 -0.4911
  897MOL0     C20971   9.371   7.329   2.196 -0.0282 -0.1411  0.4823
  897MOL0     C20972   9.312   7.196   2.157 -0.0139  1.1418  0.8215
  897MOL0     C20973   9.159   7.203   2.154 -0.2569 -0.3938 -0.7026
  897MOL0     C20974   9.103   7.057   2.167 -1.1099 -0.7700  0.3233
  897MOL0     C20975   8.953   7.046   2.181  0.2546 -0.6171  0.5876
  897MOL0     C20976   8.906   6.905   2.165  0.4984  0.0803 -0.0677
  897MOL0     N20977   8.926   6.858   2.027  0.0248  0.5450 -0.1539
  897MOL0     C20978   8.847   6.879   1.918  0.4387  0.1764 -1.1996
  897MOL0     C20979   8.913   6.833   1.812 -0.1392  0.3580 -0.1582
  897MOL0     C20980   8.857   6.851   1.679  0.1521 -0.9052  0.3611
  897MOL0     C20981   8.910   6.976   1.607  1.1723  0.4315  0.2858
  897MOL0     C20982   8.877   6.966   1.465  0.4188  0.4209 -0.3094
  897MOL0     C20983   8.728   6.984   1.438 -0.0752 -0.1433 -0.5073
  897MOL0     O20984   8.700   6.915   1.318  0.6795 -0.2065 -0.1137
  897MOL0     C20985   8.572   6.914   1.270  0.7008  0.1540 -0.0820
  897MOL0     C20986   8.552   6.844   1.149  0.4728  0.5148  0.0518
  897MOL0     C20987   8.423   6.824   1.097 -0.2729  0.3348  0.1080
  897MOL0     C20988   8.429   6.739   0.976  0.5332  0.0995  0.2802
  897MOL0     C20989   8.308   6.884   1.155  0.4151  0.7844 -0.2944
  897MOL0     C20990   8.167   6.882   1.099 -0.5770  0.0746 -0.2697
  897MOL0     O20991   8.070   6.956   1.168  0.0183  0.4425  0.8406
  897MOL0     C20992   7.939   6.954   1.117 -0.2700 -0.0767  0.7137
  897MOL0     C20993   7.837   6.939   1.205 -1.1361  0.3327 -0.5874
  897MOL0     C20994   7.706   6.931   1.164 -0.4286  0.7691  0.1121
  897MOL0     C20995   7.671   6.949   1.026 -0.6551 -0.2818  0.1278
  897MOL0     O20996   7.544   6.965   0.979 -0.6189  0.2327  0.5582
  897MOL0     C20997   7.431   6.948   1.058 -0.6032 -0.0635 -1.0333
  897MOL0     C20998   7.386   7.082   1.113 -0.9068  0.2732  0.3336
  897MOL0     C20999   7.252   7.070   1.154 -0.5321 -0.6180 -0.1226
  897MOL0     C21000   7.203   7.210   1.178 -0.0428  0.7034 -0.6025
  897MOL0     C21001   7.063   7.194   1.242 -2.0303 -0.6478  0.4823
  897MOL0     C21002   7.011   7.329   1.290  0.4824 -0.3435 -0.6442
  897MOL0     C21003   6.867   7.317   1.336  0.4355 -0.1599 -0.0133
  897MOL0     C21004   6.831   7.434   1.425  0.4057 -0.1035  0.2353
  897MOL0    Cl21005   6.658   7.442   1.456  0.0092 -0.0928  0.6942
  897MOL0     C21006   7.784   6.970   0.936 -0.1916  0.2835 -0.7516
  897MOL0     C21007   7.917   6.978   0.979 -0.4720 -0.1877  0.3840
  897MOL0     O21008   8.148   6.799   1.013 -0.1034  0.4310 -0.1853
  897MOL0     C21009   8.335   6.951   1.280  0.6275  1.1393 -0.8744
  897MOL0     C21010   8.459   6.958   1.343  0.2655  0.2894 -0.8101
  897MOL0     N21011   9.038   6.797   1.852 -1.1394 -0.5832 -0.0418
  897MOL0     N21012   9.048   6.816   1.983  0.4358  0.0924 -0.0268
  897MOL0     C21013   9.815   7.225   1.885 -0.7814  0.1047 -0.7335
  897MOL0     C21014   9.946   7.235   1.834  0.3448 -0.1709  0.2700
  897MOL0     C21015  10.371   7.426   1.793  0.2981 -0.7272  0.5818
  897MOL0     C21016  10.389   7.418   1.658 -0.0108  0.1232 -0.2497
  897MOL0     C21017  10.516   7.421   1.601 -0.5408  0.1518  0.2337
  897MOL0     C21018  10.633   7.441   1.680 -0.0852 -0.5723 -0.0623
  897MOL0     O21019  10.766   7.446   1.638  0.3685  0.4821  0.0819
  897MOL0     C21020  10.797   7.407   1.507  0.7267  0.9491 -0.6723
  897MOL0     C21021  10.946   7.369   1.507  0.5782  0.5772 -0.1918
  897MOL0     C21022  11.050   7.479   1.529 -0.2852 -0.5278 -0.3209
  897MOL0     C21023  11.035   7.604   1.433 -0.1275  0.8231 -0.1634
  897MOL0     C21024  11.138   7.702   1.454 -0.5595  0.1372  0.0295
  897MOL0     C21025  11.238   7.772   1.468  0.0101  0.4676  0.1575
  897MOL0     C21026  10.613   7.436   1.817 -0.1917 -0.1243  0.3766
  897MOL0     C21027  10.486   7.442   1.872  0.6583  0.9880  0.0515
  897MOL0     H21028  10.006   7.552   1.930 -1.7037  0.9264 -1.8334
  897MOL0     H21029   9.771   7.523   2.021 -1.5129 -1.0844 -0.3354
  897MOL0     H21030   9.570   7.148   2.124 -0.5881  0.2902  0.5816
  897MOL0     H21031   9.713   7.218   2.172 -0.0390  2.3886  3.2844
  897MOL0     H21032   9.533   7.282   2.321  1.8292 -1.1307 -1.5228
  897MOL0     H21033   9.554   7.432   2.227 -2.5533  1.0734 -0.7654
  897MOL0     H21034   9.322   7.379   2.280  3.7153  2.6228  1.2916
  897MOL0     H21035   9.361   7.399   2.113 -4.3959 -1.9394 -0.7325
  897MOL0     H21036   9.351   7.159   2.061  1.2767 -1.6295  2.2730
  897MOL0     H21037   9.329   7.117   2.231 -4.1006 -0.1153  0.6633
  897MOL0     H21038   9.119   7.271   2.229  0.7850  1.3595 -1.6605
  897MOL0     H21039   9.136   7.241   2.054  1.4729  0.7245 -0.7134
  897MOL0     H21040   9.146   7.013   2.076 -1.9253  1.0179 -0.9970
  897MOL0     H21041   9.142   7.011   2.258 -1.2149  1.6921  1.6861
  897MOL0     H21042   8.920   7.081   2.280  2.3004  0.7807  0.8255
  897MOL0     H21043   8.900   7.106   2.107  0.6341  0.5890  1.2772
  897MOL0     H21044   8.801   6.898   2.195  1.1373 -1.3503  2.0456
  897MOL0     H21045   8.956   6.839   2.236  0.3698 -1.9884 -1.7852
  897MOL0     H21046   8.743   6.909   1.919 -0.2885 -2.1195  0.5566
  897MOL0     H21047   8.858   6.760   1.618  1.1195 -0.6310 -0.0404
  897MOL0     H21048   8.750   6.865   1.700  0.3562 -1.8605  2.2716
  897MOL0     H21049   9.019   6.984   1.607  1.3861 -1.5946 -1.2551
  897MOL0     H21050   8.868   7.067   1.652  2.0408  0.0705  1.9209
  897MOL0     H21051   8.913   6.867   1.436  0.4352  0.1401  0.6316
  897MOL0     H21052   8.936   7.040   1.410  1.1722  0.4740  0.5488
  897MOL0     H21053   8.704   7.090   1.426  2.5117  0.4971 -0.5649
  897MOL0     H21054   8.670   6.933   1.515  1.4686  0.0499  0.8370
  897MOL0     H21055   8.637   6.788   1.112  0.3630 -1.0620  1.9892
  897MOL0     H21056   8.525   6.745   0.924  0.4577 -2.0046 -0.2125
  897MOL0     H21057   8.395   6.636   0.991  1.0939 -0.2171 -0.5606
  897MOL0     H21058   8.367   6.791   0.903  1.1142  1.7077  0.8937
  897MOL0     H21059   7.865   6.924   1.309 -1.6717 -2.2445 -0.7437
  897MOL0     H21060   7.630   6.916   1.240 -0.7183  0.1414 -0.2917
  897MOL0     H21061   7.348   6.912   0.997 -0.9813  0.7456 -1.0081
  897MOL0     H21062   7.442   6.871   1.134  1.1025  3.1098  2.2745
  897MOL0     H21063   7.449   7.103   1.200  1.7737 -2.8947 -0.6391
  897MOL0     H21064   7.395   7.156   1.033 -1.7775  1.0179  0.9027
  897MOL0     H21065   7.250   7.005   1.242  0.5012 -1.2206 -0.5295
  897MOL0     H21066   7.195   7.026   1.072  1.9266 -1.6737 -1.3819
  897MOL0     H21067   7.275   7.265   1.239  0.7510 -0.1966 -0.7030
  897MOL0     H21068   7.200   7.264   1.083 -1.5033 -1.5719 -1.9507
  897MOL0     H21069   7.038   7.112   1.309 -3.7854  0.3977  1.1790
  897MOL0     H21070   6.997   7.170   1.158  2.1557 -2.3637 -2.6768
  897MOL0     H21071   7.071   7.369   1.373 -0.0247 -1.7994  0.4726
  897MOL0     H21072   7.027   7.412   1.221  2.9899  0.1768  0.4278
  897MOL0     H21073   6.853   7.220   1.384  2.1859 -0.1704  0.5544
  897MOL0     H21074   6.800   7.312   1.250  0.4951 -0.1813 -0.0585
  897MOL0     H21075   6.852   7.530   1.377 -1.4920 -0.8894 -2.4068
  897MOL0     H21076   6.885   7.418   1.519  1.3232  1.0383 -0.0685
  897MOL0     H21077   7.769   6.993   0.831  0.2340  1.6908 -0.5210
  897MOL0     H21078   8.000   6.993   0.911  0.2681  0.1360  1.3254
  897MOL0     H21079   8.257   6.988   1.346 -0.7273 -0.4403 -1.5158
  897MOL0     H21080   8.460   6.996   1.445 -2.1913 -3.0594  0.6292
  897MOL0     H21081   9.781   7.124   1.869 -0.0221 -0.3734  0.5789
  897MOL0     H21082   9.995   7.158   1.774  0.1014  0.7369 -1.1437
  897MOL0     H21083  10.295   7.418   1.602  0.5523  1.5502 -1.2647
  897MOL0     H21084  10.539   7.429   1.496  1.6145 -0.0829  0.6503
  897MOL0     H21085  10.729   7.324   1.483 -1.8141  2.5081  0.7368
  897MOL0     H21086  10.778   7.486   1.434 -0.9488  1.6778  0.5017
  897MOL0     H21087  10.971   7.314   1.415  1.7310 -2.5259  1.7910
  897MOL0     H21088  10.969   7.296   1.585  0.6085  0.4247 -0.3426
  897MOL0     H21089  11.151   7.441   1.516 -0.0713 -1.2100  2.5992
  897MOL0     H21090  11.046   7.521   1.630  2.6272 -0.2306 -0.2617
  897MOL0     H21091  10.938   7.654   1.436 -1.4172 -1.2711 -2.4695
  897MOL0     H21092  11.053   7.565   1.332  1.7698  0.1761  0.3671
  897MOL0     H21093  11.329   7.821   1.498 -0.5372  1.8572 -0.3635
  897MOL0     H21094  10.695   7.456   1.884 -0.3784 -2.0991  1.2842
  897MOL0     H21095  10.486   7.453   1.980 -1.2929 -2.6196  0.5692
  898MOL0     O21096   7.579   8.695   4.025 -0.4162  0.0427 -0.0762
  898MOL0     C21097   7.624   8.777   4.109  0.2147  0.5301  0.4062
  898MOL0     O21098   7.639   8.916   4.091 -1.1515  0.0010  0.7117
  898MOL0     C21099   7.615   8.977   3.967  0.6431  0.4979 -0.3969
  898MOL0     C21100   7.647   9.106   3.970  0.2216  0.5889  0.4448
  898MOL0     C21101   7.605   9.193   3.877  0.1949 -0.5390 -0.5812
  898MOL0     C21102   7.536   9.146   3.769  0.8767  0.0595  0.1484
  898MOL0     O21103   7.487   9.236   3.675  0.4924  0.4864 -0.2096
  898MOL0     C21104   7.383   9.207   3.583  0.2114  0.1623  0.3736
  898MOL0     C21105   7.330   9.341   3.530 -0.4461 -0.7371 -0.8473
  898MOL0     C21106   7.431   9.410   3.448  0.3584 -0.0107 -0.3664
  898MOL0     C21107   7.366   9.497   3.342  0.5321 -1.3466  0.7407
  898MOL0     C21108   7.464   9.599   3.278  0.6426  0.0306  0.2492
  898MOL0     C21109   7.542   9.561   3.151  0.3793 -0.5213  0.2406
  898MOL0     C21110   7.637   9.674   3.107  0.1308 -0.0758  0.2399
  898MOL0     C21111   7.695   9.665   2.965 -0.0497  0.3179  0.7219
  898MOL0     N21112   7.594   9.677   2.857 -0.2214 -0.1599 -0.1030
  898MOL0     C21113   7.480   9.746   2.870  0.2544  0.4411 -0.1848
  898MOL0     C21114   7.402   9.712   2.762  0.0639  0.7007  0.5284
  898MOL0     C21115   7.256   9.727   2.737 -0.2764 -0.5303  0.1227
  898MOL0     C21116   7.176   9.832   2.812  0.2021 -0.2743 -1.4721
  898MOL0     C21117   7.025   9.796   2.792  0.5170 -0.5511 -0.3364
  898MOL0     C21118   6.915   9.878   2.871  0.9558 -0.1214  0.4074
  898MOL0     O21119   6.878   9.999   2.794 -0.1509  0.8937 -0.0215
  898MOL0     C21120   6.795  10.089   2.860  0.2987  1.1091 -0.1099
  898MOL0     C21121   6.755  10.058   2.996 -0.6736 -0.3655 -0.4451
  898MOL0     C21122   6.671  10.150   3.058  0.1326  0.5223  0.1559
  898MOL0     C21123   6.611  10.101   3.189  0.4887 -1.2725  0.2693
  898MOL0     C21124   6.653  10.279   3.006 -0.2389  0.4359 -0.7308
  898MOL0     C21125   6.565  10.388   3.071  0.3819 -0.8695  0.3097
  898MOL0     O21126   6.551  10.393   3.210 -0.2221 -0.1464 -0.1461
  898MOL0     C21127   6.442  10.457   3.263  0.0413  0.0188  0.5009
  898MOL0     C21128   6.465  10.545   3.366 -0.8091  0.0658  0.3147
  898MOL0     C21129   6.357  10.610   3.418  1.1685 -0.2818 -0.2997
  898MOL0     C21130   6.215  10.565   3.389 -0.2334 -0.6245  0.5661
  898MOL0     O21131   6.104  10.634   3.435  0.3428  0.3577  0.2753
  898MOL0     C21132   6.100  10.667   3.572 -0.3119 -0.1925  0.2921
  898MOL0     C21133   5.963  10.721   3.615  0.2349  0.3303  0.3350
  898MOL0     C21134   5.847  10.625   3.580  0.2775 -0.3169 -0.6664
  898MOL0     C21135   5.705  10.689   3.581  0.9055 -0.0463 -0.4207
  898MOL0     C21136   5.663  10.722   3.725  0.0510  1.1426  0.4142
  898MOL0     C21137   5.557  10.830   3.736  0.5806 -0.4711 -0.4489
  898MOL0     C21138   5.418  10.782   3.693  0.3042  0.2861  0.6581
  898MOL0     C21139   5.304  10.885   3.708 -0.0192  0.7464 -0.8850
  898MOL0    Cl21140   5.258  10.881   3.885  0.3645  0.0923  0.4761
  898MOL0     C21141   6.195  10.465   3.293  0.0138  0.1862 -0.8739
  898MOL0     C21142   6.307  10.417   3.229  0.5904  0.5243  0.3199
  898MOL0     O21143   6.493  10.454   2.987  0.4155  0.0627 -0.1933
  898MOL0     C21144   6.690  10.302   2.879 -0.0582  0.1349  1.1573
  898MOL0     C21145   6.758  10.208   2.805  0.2144  0.6167  0.5147
  898MOL0     N21146   7.481   9.637   2.675  0.0990 -0.5410 -0.4255
  898MOL0     N21147   7.596   9.611   2.732  0.0462 -0.1156  0.1406
  898MOL0     C21148   7.504   9.009   3.761 -1.3214  0.4904  0.6223
  898MOL0     C21149   7.533   8.923   3.866 -0.7209 -0.3221 -0.1701
  898MOL0     C21150   7.663   8.734   4.252 -0.0167  0.0317 -0.1827
  898MOL0     C21151   7.662   8.831   4.352  0.0469  0.5341 -0.5564
  898MOL0     C21152   7.694   8.790   4.480 -0.6018 -0.1051  0.6785
  898MOL0     C21153   7.744   8.658   4.512 -0.6366  1.0828  0.6745
  898MOL0     O21154   7.772   8.624   4.643 -0.3329 -0.0053  0.8185
  898MOL0     C21155   7.806   8.489   4.674  0.3688  0.6274 -0.8531
  898MOL0     C21156   7.852   8.483   4.820 -0.4805  0.6035 -0.9646
  898MOL0     C21157   7.875   8.344   4.865  0.1005 -1.3610  0.0221
  898MOL0     C21158   7.942   8.328   5.011  0.4438  0.3191  0.2421
  898MOL0     C21159   7.871   8.403   5.114  0.1559  0.0482  0.1931
  898MOL0     C21160   7.809   8.476   5.191  0.1186 -1.5475  0.3999
  898MOL0     C21161   7.729   8.558   4.410 -0.0528 -1.4585  0.1753
  898MOL0     C21162   7.686   8.598   4.283 -0.2240  0.2710  0.0684
  898MOL0     H21163   7.709   9.130   4.056  0.7778  0.3118  0.1255
  898MOL0     H21164   7.639   9.296   3.888  0.8187 -0.7783 -0.2602
  898MOL0     H21165   7.415   9.148   3.496  1.6420 -0.6735  1.4328
  898MOL0     H21166   7.298   9.157   3.630  0.2130  1.9416  2.4261
  898MOL0     H21167   7.239   9.327   3.472 -0.9592  1.0170 -0.5165
  898MOL0     H21168   7.308   9.408   3.614  1.3704 -0.1622 -0.7731
  898MOL0     H21169   7.497   9.460   3.520  0.8026 -1.7632  0.5093
  898MOL0     H21170   7.492   9.333   3.399 -1.7763 -1.4651 -0.8734
  898MOL0     H21171   7.326   9.433   3.264  1.4502 -2.5946  1.2517
  898MOL0     H21172   7.291   9.555   3.397 -0.8752 -1.1674 -1.2786
  898MOL0     H21173   7.403   9.688   3.257  0.5973 -0.6216 -2.9257
  898MOL0     H21174   7.548   9.628   3.340  1.0048 -1.6965  0.6173
  898MOL0     H21175   7.592   9.464   3.160  1.2470 -0.4970 -2.9696
  898MOL0     H21176   7.477   9.539   3.066 -1.9916 -3.4672  2.5567
  898MOL0     H21177   7.576   9.764   3.113 -0.4689 -0.4884  0.5083
  898MOL0     H21178   7.717   9.682   3.181  0.5864 -2.5482  0.1108
  898MOL0     H21179   7.762   9.578   2.954  0.0895  0.6105 -1.1026
  898MOL0     H21180   7.760   9.752   2.951 -1.4339  1.0268 -2.0262
  898MOL0     H21181   7.447   9.817   2.945  2.1637  0.2550  0.8761
  898MOL0     H21182   7.240   9.744   2.630 -0.8292 -0.7641  0.1594
  898MOL0     H21183   7.216   9.627   2.759  0.9570 -0.2361  4.8879
  898MOL0     H21184   7.202   9.930   2.772  0.2800 -0.7221 -2.5418
  898MOL0     H21185   7.198   9.814   2.918 -1.8214 -2.9805 -1.4161
  898MOL0     H21186   7.012   9.691   2.819 -0.2215 -0.9756 -2.1750
  898MOL0     H21187   7.006   9.807   2.685 -2.8509  0.4751  0.2522
  898MOL0     H21188   6.954   9.891   2.972 -0.7855 -0.4825  1.1557
  898MOL0     H21189   6.824   9.818   2.873  0.3430  0.3063 -3.9043
  898MOL0     H21190   6.787   9.968   3.047  0.8350  0.3090 -0.1507
  898MOL0     H21191   6.630   9.999   3.224 -0.8660 -1.2340  1.2167
  898MOL0     H21192   6.627  10.175   3.268  0.7580 -2.7708  1.7039
  898MOL0     H21193   6.502  10.103   3.174  0.5921 -0.5337 -0.3816
  898MOL0     H21194   6.567  10.570   3.395 -0.2898  0.1083 -1.3903
  898MOL0     H21195   6.380  10.694   3.483 -0.5558  0.1019 -0.1489
  898MOL0     H21196   6.115  10.579   3.634 -2.0709 -0.1903  0.7959
  898MOL0     H21197   6.180  10.740   3.589  0.9738 -1.7069  0.9597
  898MOL0     H21198   5.961  10.743   3.722 -0.0662 -1.5694  0.7478
  898MOL0     H21199   5.948  10.812   3.557 -3.5623 -1.2646 -1.4922
  898MOL0     H21200   5.857  10.538   3.646 -2.4741 -0.9997 -1.0463
  898MOL0     H21201   5.859  10.591   3.477 -1.5798  0.6777 -1.2534
  898MOL0     H21202   5.708  10.790   3.541 -1.6775  0.7992  1.2994
  898MOL0     H21203   5.625  10.629   3.536  2.6496 -2.4133 -0.6141
  898MOL0     H21204   5.745  10.756   3.789 -0.4457  2.4806  0.3644
  898MOL0     H21205   5.623  10.628   3.765  2.1213  0.6411  1.4486
  898MOL0     H21206   5.536  10.875   3.834 -0.4695  1.7467 -1.6140
  898MOL0     H21207   5.580  10.920   3.679 -1.5603 -0.1348 -0.9022
  898MOL0     H21208   5.396  10.691   3.750 -2.2684 -1.3345 -2.5918
  898MOL0     H21209   5.415  10.760   3.586 -0.4018  2.1921  0.2495
  898MOL0     H21210   5.224  10.843   3.645  0.0265 -1.1857  0.2629
  898MOL0     H21211   5.315  10.990   3.681 -2.0554  1.1973 -0.1693
  898MOL0     H21212   6.104  10.415   3.261 -0.0704  0.2540 -0.7396
  898MOL0     H21213   6.282  10.341   3.156 -2.0225  2.4681 -0.9458
  898MOL0     H21214   6.667  10.392   2.823 -1.5203 -0.0627  1.3950
  898MOL0     H21215   6.794  10.237   2.707  2.6012  1.7445  1.6278
  898MOL0     H21216   7.452   8.971   3.673 -0.9202 -1.7380  1.2844
  898MOL0     H21217   7.478   8.830   3.860 -1.6121  0.0831  1.2307
  898MOL0     H21218   7.633   8.933   4.328  2.5772  1.1937 -1.1365
  898MOL0     H21219   7.694   8.860   4.563 -1.9040 -1.2922  1.7359
  898MOL0     H21220   7.719   8.424   4.659  3.0750 -3.6171  0.0621
  898MOL0     H21221   7.891   8.449   4.619  0.3937  0.5737 -0.7756
  898MOL0     H21222   7.771   8.522   4.882 -0.2471 -1.3881  0.7103
  898MOL0     H21223   7.942   8.544   4.833  0.1527 -0.6290  0.8858
  898MOL0     H21224   7.945   8.304   4.790  4.0928 -0.1188  2.7274
  898MOL0     H21225   7.786   8.281   4.857  1.3327 -3.2042 -0.0297
  898MOL0     H21226   8.047   8.358   5.018 -0.0974  2.3624  0.2417
  898MOL0     H21227   7.944   8.223   5.041 -1.5981  0.2783  0.3696
  898MOL0     H21228   7.767   8.534   5.270  1.7026 -1.4259  1.1940
  898MOL0     H21229   7.758   8.454   4.422  2.0930 -1.2866 -2.5012
  898MOL0     H21230   7.667   8.533   4.198  3.4096 -1.1774  0.2344
  899MOL0     O21231   2.744   1.146   5.106 -0.9360  0.3209  0.0789
  899MOL0     C21232   2.819   1.210   5.176 -0.7295  0.2803  0.0736
  899MOL0     O21233   2.782   1.285   5.284  0.3860 -0.2315 -0.0877
  899MOL0     C21234   2.650   1.311   5.301 -0.3208 -0.1350  0.0202
  899MOL0     C21235   2.572   1.355   5.194  0.4042 -0.2501 -0.3688
  899MOL0     C21236   2.436   1.377   5.220  0.5712 -0.1427  0.3658
  899MOL0     C21237   2.376   1.376   5.343  1.2497 -0.3643 -0.7767
  899MOL0     O21238   2.249   1.425   5.347  0.6742 -0.4459  0.3735
  899MOL0     C21239   2.175   1.401   5.464 -0.3394  0.0114  0.5531
  899MOL0     C21240   2.042   1.479   5.463  0.4374  0.6002 -0.1124
  899MOL0     C21241   2.043   1.631   5.424 -0.6104  0.0882  0.2732
  899MOL0     C21242   1.918   1.671   5.344 -0.6651 -0.2224 -0.5815
  899MOL0     C21243   1.935   1.628   5.205  1.0713 -1.7118  0.1716
  899MOL0     C21244   1.841   1.703   5.102 -0.4917  0.0536 -0.1545
  899MOL0     C21245   1.847   1.645   4.960 -0.0339 -0.5569  0.7134
  899MOL0     C21246   1.761   1.711   4.862  0.4575 -0.5065 -0.2204
  899MOL0     N21247   1.619   1.689   4.878  0.4185 -0.3737 -0.2635
  899MOL0     C21248   1.556   1.569   4.861 -0.2349  1.0264  0.1279
  899MOL0     C21249   1.417   1.587   4.870 -0.4871  0.1270  1.0455
  899MOL0     C21250   1.308   1.480   4.868 -0.1330 -0.8584  0.1716
  899MOL0     C21251   1.228   1.502   4.741 -0.5941  0.2774  0.5105
  899MOL0     C21252   1.097   1.416   4.731  0.2785  1.2550 -0.3277
  899MOL0     C21253   1.001   1.452   4.842 -0.4025  0.4584  0.0481
  899MOL0     O21254   0.906   1.554   4.795  0.3419  0.3993 -0.0581
  899MOL0     C21255   0.783   1.563   4.854  0.1906 -0.2049  0.4377
  899MOL0     C21256   0.761   1.567   4.993  0.4607 -1.0022 -0.3862
  899MOL0     C21257   0.631   1.592   5.042  1.0604 -0.7138 -0.2756
  899MOL0     C21258   0.603   1.600   5.189 -0.0487 -1.0034 -1.3529
  899MOL0     C21259   0.532   1.623   4.944 -0.0280  0.0587 -0.1579
  899MOL0     C21260   0.396   1.642   4.983  0.5387 -0.1666 -0.2360
  899MOL0     O21261   0.335   1.547   5.058 -0.5160  0.7767 -0.2888
  899MOL0     C21262   0.209   1.565   5.099  0.6403  0.1574  0.1658
  899MOL0     C21263   0.098   1.540   5.013 -0.6361 -0.9365  0.8501
  899MOL0     C21264  -0.032   1.540   5.066 -0.1866  0.0519  0.0925
  899MOL0     C21265  -0.052   1.571   5.201 -0.7383 -0.2091 -0.6475
  899MOL0     O21266  -0.179   1.575   5.267  0.4412 -0.5231  0.0959
  899MOL0     C21267  -0.304   1.541   5.196 -1.0656  0.1405 -0.0921
  899MOL0     C21268  -0.372   1.661   5.125 -0.5463  0.4440 -0.8512
  899MOL0     C21269  -0.452   1.739   5.222 -0.3267  0.6031 -0.0983
  899MOL0     C21270  -0.370   1.836   5.298 -0.3795 -0.3454  0.5683
  899MOL0     C21271  -0.444   1.902   5.413 -0.9665 -0.3895 -0.3909
  899MOL0     C21272  -0.420   1.814   5.542  0.0919 -0.0301  0.1602
  899MOL0     C21273  -0.522   1.870   5.648 -1.0180 -1.0070 -0.2035
  899MOL0     C21274  -0.513   1.822   5.790 -0.1977  1.0299 -0.6340
  899MOL0    Cl21275  -0.577   1.660   5.855  0.5046  0.1151 -0.3019
  899MOL0     C21276   0.054   1.601   5.284  0.6931  0.0224  0.1880
  899MOL0     C21277   0.178   1.597   5.236  0.0727  0.2418  0.5175
  899MOL0     O21278   0.336   1.734   4.936 -0.2641  0.6498 -0.7533
  899MOL0     C21279   0.560   1.626   4.808  0.5505  0.2915  0.0946
  899MOL0     C21280   0.685   1.595   4.764 -0.1265 -0.3684  0.5040
  899MOL0     N21281   1.392   1.720   4.895 -0.3859  0.3412  0.0529
  899MOL0     N21282   1.510   1.775   4.901 -0.6210 -0.1606 -0.6307
  899MOL0     C21283   2.450   1.326   5.455 -0.1752 -0.2114  0.2540
  899MOL0     C21284   2.592   1.299   5.436  0.6974  0.1983  1.4809
  899MOL0     C21285   2.962   1.215   5.151  0.4723  0.7412  0.3383
  899MOL0     C21286   3.005   1.231   5.019  0.9171  0.9055  0.0363
  899MOL0     C21287   3.146   1.234   4.996  0.4712 -0.1131 -0.1391
  899MOL0     C21288   3.231   1.249   5.100 -0.5892  0.6011 -0.2392
  899MOL0     O21289   3.360   1.262   5.055 -0.2092 -0.1926 -0.9066
  899MOL0     C21290   3.459   1.322   5.136 -0.1008  0.5244 -0.5614
  899MOL0     C21291   3.593   1.270   5.093 -0.0081  0.7253 -0.1116
  899MOL0     C21292   3.601   1.121   5.127 -0.3774 -0.0653  0.4794
  899MOL0     C21293   3.727   1.053   5.076  1.0064 -0.4742  0.1383
  899MOL0     C21294   3.732   0.931   5.150  0.3136 -0.4498  0.5747
  899MOL0     C21295   3.750   0.832   5.225 -0.5318 -1.0912  0.2813
  899MOL0     C21296   3.189   1.240   5.232  0.4799  0.5653 -0.2334
  899MOL0     C21297   3.051   1.224   5.252 -0.0394 -1.2320 -0.3358
  899MOL0     H21298   2.607   1.359   5.092  2.3312  0.2570  0.2609
  899MOL0     H21299   2.372   1.404   5.136  1.8265 -1.3384 -1.0288
  899MOL0     H21300   2.156   1.293   5.455 -0.0833 -0.0947  1.2713
  899MOL0     H21301   2.228   1.409   5.559  3.9023  1.1322 -1.6547
  899MOL0     H21302   1.969   1.421   5.405  1.6825  0.1556 -1.2876
  899MOL0     H21303   2.001   1.481   5.565  0.2914 -1.2016 -0.0959
  899MOL0     H21304   2.050   1.686   5.519  0.7673  0.1900  0.1247
  899MOL0     H21305   2.128   1.658   5.361  0.5390  1.3219  2.2222
  899MOL0     H21306   1.824   1.633   5.386 -1.7962  1.5953 -1.3532
  899MOL0     H21307   1.898   1.777   5.360 -3.5331 -0.2940 -2.8236
  899MOL0     H21308   2.040   1.646   5.179  0.4393 -1.4839 -2.5277
  899MOL0     H21309   1.921   1.520   5.198 -0.1323 -1.6371  1.1778
  899MOL0     H21310   1.738   1.703   5.139  0.0817  0.2023  1.5163
  899MOL0     H21311   1.867   1.809   5.103 -3.7303  0.9856 -1.2104
  899MOL0     H21312   1.952   1.650   4.928 -1.3561 -1.2810 -4.7203
  899MOL0     H21313   1.811   1.542   4.970 -4.6403  0.6116 -1.2417
  899MOL0     H21314   1.790   1.674   4.764 -0.2849 -1.5291 -0.0669
  899MOL0     H21315   1.777   1.819   4.861  1.3624 -0.5885  1.2078
  899MOL0     H21316   1.610   1.476   4.847 -0.4203  0.6022  1.9152
  899MOL0     H21317   1.351   1.380   4.862 -0.4231 -1.1894  2.6083
  899MOL0     H21318   1.253   1.487   4.962 -1.4113 -2.5993 -0.3729
  899MOL0     H21319   1.280   1.474   4.649  0.1955  1.5671  0.5478
  899MOL0     H21320   1.194   1.606   4.739 -0.5628  0.2827  0.0884
  899MOL0     H21321   1.119   1.312   4.756  0.1644  1.1859 -0.5173
  899MOL0     H21322   1.053   1.409   4.631 -2.4116 -2.6550  0.9071
  899MOL0     H21323   1.051   1.498   4.927 -1.0875  0.7997  0.2804
  899MOL0     H21324   0.932   1.370   4.867  1.5742 -0.7926  1.7081
  899MOL0     H21325   0.848   1.548   5.055 -0.1691 -1.6172  0.3172
  899MOL0     H21326   0.687   1.629   5.252 -1.3218 -1.0329  0.4172
  899MOL0     H21327   0.528   1.677   5.209  1.3870  0.7135 -2.1970
  899MOL0     H21328   0.568   1.514   5.246 -0.8646  0.2696  0.1187
  899MOL0     H21329   0.119   1.504   4.913 -1.3405 -0.2546  0.4448
  899MOL0     H21330  -0.120   1.507   5.012  0.4295  3.0451 -3.1457
  899MOL0     H21331  -0.296   1.459   5.125 -0.0238 -1.2648  1.5695
  899MOL0     H21332  -0.374   1.506   5.273 -0.4064  0.1867  0.5450
  899MOL0     H21333  -0.288   1.719   5.085 -0.6523 -0.5911 -2.7163
  899MOL0     H21334  -0.423   1.625   5.035  1.3011 -3.7920 -0.4414
  899MOL0     H21335  -0.494   1.669   5.295 -0.3249  1.2326  0.5110
  899MOL0     H21336  -0.529   1.798   5.172  0.9930  2.7513  0.2745
  899MOL0     H21337  -0.282   1.796   5.349  0.2040  0.0778 -0.0889
  899MOL0     H21338  -0.333   1.911   5.227  2.2945 -1.5694  0.5569
  899MOL0     H21339  -0.551   1.905   5.390 -0.7242  1.0545 -1.4487
  899MOL0     H21340  -0.406   2.002   5.436 -0.0720 -0.5597 -1.0290
  899MOL0     H21341  -0.445   1.708   5.530  1.7171 -0.2772 -1.4507
  899MOL0     H21342  -0.316   1.809   5.575 -0.1287  1.5018  1.1893
  899MOL0     H21343  -0.624   1.837   5.626 -0.1082 -2.0903 -3.4648
  899MOL0     H21344  -0.512   1.979   5.641 -1.1598 -0.9916 -0.1574
  899MOL0     H21345  -0.548   1.900   5.859  1.1451 -1.2084  2.8665
  899MOL0     H21346  -0.405   1.811   5.808 -0.0070 -0.7179 -2.5058
  899MOL0     H21347   0.024   1.626   5.385 -1.1300  1.0257 -0.5453
  899MOL0     H21348   0.273   1.617   5.285  0.3237  1.2361 -0.3484
  899MOL0     H21349   0.475   1.652   4.746  0.1392  0.8339  0.8603
  899MOL0     H21350   0.708   1.609   4.659 -1.2261  1.0364  0.4118
  899MOL0     H21351   2.405   1.303   5.551 -1.2758 -5.1653 -1.1610
  899MOL0     H21352   2.659   1.265   5.514  3.0832 -0.0283 -0.5490
  899MOL0     H21353   2.944   1.236   4.930  1.2714 -1.1993 -0.3706
  899MOL0     H21354   3.176   1.247   4.892  1.8795 -3.5466 -0.3077
  899MOL0     H21355   3.472   1.427   5.110  0.7091  0.2363 -1.3374
  899MOL0     H21356   3.455   1.304   5.244  1.0445 -0.3058 -0.6498
  899MOL0     H21357   3.673   1.328   5.138  0.9397  0.0839 -0.9274
  899MOL0     H21358   3.601   1.286   4.985 -1.8854 -1.6608 -0.6963
  899MOL0     H21359   3.514   1.062   5.097 -0.0822 -0.3710  0.2094
  899MOL0     H21360   3.602   1.124   5.236  1.4514  1.8004  0.4759
  899MOL0     H21361   3.821   1.109   5.085 -0.2038  1.6308  0.2216
  899MOL0     H21362   3.704   1.035   4.971 -0.2132  1.5278  0.0014
  899MOL0     H21363   3.758   0.736   5.272 -1.7391 -1.9943 -1.2183
  899MOL0     H21364   3.254   1.249   5.318  2.6892 -0.4315 -1.6764
  899MOL0     H21365   3.027   1.235   5.358  0.7950  2.0503 -0.3913
  900MOL0     O21366   3.435   9.009   9.777 -0.3996  0.2013 -0.1634
  900MOL0     C21367   3.550   9.027   9.816  0.3302 -0.5430  0.7512
  900MOL0     O21368   3.627   8.949   9.894  0.8861  0.2428  0.1017
  900MOL0     C21369   3.594   8.817   9.918 -1.1438 -0.1827  0.5916
  900MOL0     C21370   3.488   8.733   9.870  0.0414  0.3311  0.2197
  900MOL0     C21371   3.479   8.598   9.906 -0.7601  0.7106  1.1119
  900MOL0     C21372   3.559   8.544  10.006  0.5999  0.0073  0.0024
  900MOL0     O21373   3.563   8.407  10.049  0.6688 -0.2366  0.3529
  900MOL0     C21374   3.433   8.345  10.066  0.5388 -0.6286  0.2820
  900MOL0     C21375   3.435   8.219  10.151 -0.9077  0.0426  0.8202
  900MOL0     C21376   3.528   8.122  10.090  0.0822  0.1143  0.3913
  900MOL0     C21377   3.471   8.052   9.968 -0.1586  0.6492  0.3808
  900MOL0     C21378   3.373   7.935  10.009  0.0439  0.4148 -0.1100
  900MOL0     C21379   3.315   7.878   9.877  0.3621  0.1934 -0.4151
  900MOL0     C21380   3.393   7.752   9.821  0.2891 -0.1493 -0.2585
  900MOL0     C21381   3.337   7.700   9.684 -0.3485 -0.8084  0.4004
  900MOL0     N21382   3.199   7.642   9.709  0.3153  1.0700  0.6794
  900MOL0     C21383   3.187   7.508   9.738 -1.1282 -0.6513 -0.3187
  900MOL0     C21384   3.056   7.491   9.710  0.8733  0.8778 -0.5603
  900MOL0     C21385   2.974   7.369   9.724  0.1755  0.0455 -0.3330
  900MOL0     C21386   3.049   7.237   9.692 -0.3766  0.5912  0.1484
  900MOL0     C21387   3.109   7.225   9.546 -0.5946 -0.0120 -0.3186
  900MOL0     C21388   2.995   7.259   9.439 -0.6582  0.5168  0.3270
  900MOL0     O21389   2.856   7.250   9.485 -1.0034  0.7789  0.7166
  900MOL0     C21390   2.766   7.156   9.449 -0.2806 -0.2063 -0.0232
  900MOL0     C21391   2.658   7.129   9.533  0.4710  0.5803 -0.0314
  900MOL0     C21392   2.568   7.030   9.497  0.1534 -0.6471 -0.4638
  900MOL0     C21393   2.471   6.999   9.615  0.2045  1.0347 -0.3713
  900MOL0     C21394   2.566   6.963   9.379  0.6821  0.3693 -1.4535
  900MOL0     C21395   2.473   6.848   9.363 -0.7197  0.6626  1.4256
  900MOL0     O21396   2.442   6.766   9.467  0.6760 -0.4669  0.8568
  900MOL0     C21397   2.410   6.640   9.424  0.6755  0.4869 -0.1927
  900MOL0     C21398   2.482   6.556   9.340 -0.6016  0.7044  0.6994
  900MOL0     C21399   2.451   6.422   9.321  0.1452  0.4660 -0.5342
  900MOL0     C21400   2.333   6.379   9.359 -0.8076  0.4084 -0.1868
  900MOL0     O21401   2.287   6.247   9.343  0.1009  0.2167  0.3487
  900MOL0     C21402   2.356   6.153   9.258 -1.0400  0.4544 -0.5693
  900MOL0     C21403   2.292   6.016   9.272  0.2290  0.1609  0.5395
  900MOL0     C21404   2.352   5.909   9.180  0.6726 -0.2486  0.5873
  900MOL0     C21405   2.299   5.770   9.230 -0.6975  0.2633 -0.0607
  900MOL0     C21406   2.326   5.664   9.125  0.6927  0.0343 -0.4914
  900MOL0     C21407   2.258   5.539   9.140 -0.0442 -0.2203 -0.3586
  900MOL0     C21408   2.295   5.429   9.041  0.5111  0.6094 -0.9485
  900MOL0     C21409   2.166   5.347   9.013 -0.7902  0.1733  0.4966
  900MOL0    Cl21410   2.119   5.247   9.154  0.2812 -0.1667 -0.0687
  900MOL0     C21411   2.258   6.456   9.448  0.1841 -0.1464  0.2617
  900MOL0     C21412   2.299   6.584   9.486 -0.6295 -0.2003 -0.0346
  900MOL0     O21413   2.437   6.837   9.242  0.1078  0.3574 -0.0447
  900MOL0     C21414   2.659   7.004   9.290  0.1406 -0.6891  0.6233
  900MOL0     C21415   2.754   7.101   9.318 -0.3012  0.7062  0.3383
  900MOL0     N21416   2.992   7.605   9.675  0.6525 -0.1509 -0.8542
  900MOL0     N21417   3.080   7.699   9.671  0.4584  0.1188 -1.0388
  900MOL0     C21418   3.658   8.624  10.058  1.0512  0.2520  0.6458
  900MOL0     C21419   3.684   8.752   9.998 -0.1711  1.6512 -0.5543
  900MOL0     C21420   3.621   9.148   9.764 -0.4129  0.0513  0.6278
  900MOL0     C21421   3.761   9.168   9.783  0.7568  0.5677 -0.2094
  900MOL0     C21422   3.824   9.276   9.727 -0.0128 -0.0556  0.7902
  900MOL0     C21423   3.754   9.372   9.658 -0.3783 -0.2636 -0.2627
  900MOL0     O21424   3.815   9.490   9.624  0.2042  0.1213 -0.2394
  900MOL0     C21425   3.753   9.585   9.541  0.1195 -0.4546 -0.5903
  900MOL0     C21426   3.867   9.653   9.465  0.1132  0.9149  0.4422
  900MOL0     C21427   3.963   9.742   9.543 -0.0418 -0.3729  0.6355
  900MOL0     C21428   4.071   9.672   9.622  0.3515 -0.2945  0.0972
  900MOL0     C21429   4.146   9.583   9.522 -0.6280  0.1266 -1.0128
  900MOL0     C21430   4.210   9.526   9.433 -0.1348 -0.4267  0.0516
  900MOL0     C21431   3.621   9.353   9.632  0.7754  0.4664 -0.1561
  900MOL0     C21432   3.551   9.243   9.679 -0.7802  0.0878  0.6426
  900MOL0     H21433   3.409   8.777   9.810  0.4737  1.2107  0.2672
  900MOL0     H21434   3.398   8.540   9.863  0.2683  1.6865 -2.3807
  900MOL0     H21435   3.369   8.419  10.115 -0.9394  0.2928 -2.7535
  900MOL0     H21436   3.394   8.325   9.965 -1.2234  1.6631  0.4154
  900MOL0     H21437   3.471   8.238  10.253  1.7969 -0.5140  0.0389
  900MOL0     H21438   3.336   8.178  10.173 -0.6435 -1.6155 -0.8492
  900MOL0     H21439   3.619   8.174  10.058 -0.6230  1.3377  0.3195
  900MOL0     H21440   3.558   8.046  10.163  1.1300 -1.1425 -1.2690
  900MOL0     H21441   3.418   8.120   9.900 -1.0664 -0.2583  0.1497
  900MOL0     H21442   3.556   8.008   9.915  1.3847  1.5364  2.0470
  900MOL0     H21443   3.440   7.864  10.059  0.1809  1.6209  1.5143
  900MOL0     H21444   3.291   7.965  10.074 -0.0927 -0.2221  0.0147
  900MOL0     H21445   3.213   7.846   9.898 -0.2167  0.3421 -2.7849
  900MOL0     H21446   3.311   7.956   9.801 -0.1563  0.1792 -0.4037
  900MOL0     H21447   3.497   7.781   9.804  0.9333 -2.4522 -0.5975
  900MOL0     H21448   3.392   7.674   9.898 -1.2335  1.9646  2.0295
  900MOL0     H21449   3.405   7.628   9.639 -0.0088 -0.8950  1.0391
  900MOL0     H21450   3.315   7.786   9.621 -0.8678  0.1873  1.8948
  900MOL0     H21451   3.256   7.443   9.791 -1.6275 -0.3260  0.7605
  900MOL0     H21452   2.951   7.357   9.830  0.2362  0.4547 -0.2754
  900MOL0     H21453   2.876   7.379   9.677 -0.4094  3.9246  1.3453
  900MOL0     H21454   2.981   7.151   9.685 -0.7059  0.9806 -1.9569
  900MOL0     H21455   3.127   7.230   9.768 -0.6819  1.1007  0.5166
  900MOL0     H21456   3.144   7.123   9.529  3.0877  1.5517 -3.3379
  900MOL0     H21457   3.185   7.303   9.535 -3.2590  2.9416  0.7075
  900MOL0     H21458   3.016   7.205   9.346 -4.0438 -1.8137  0.7409
  900MOL0     H21459   2.988   7.363   9.409 -2.5854  0.0367 -1.0501
  900MOL0     H21460   2.661   7.187   9.624  3.3310  3.3551 -1.7109
  900MOL0     H21461   2.368   6.999   9.579  0.0145 -0.1463  0.0977
  900MOL0     H21462   2.492   6.903   9.663 -2.4910  0.0329 -0.9741
  900MOL0     H21463   2.494   7.085   9.679 -4.2228  2.3925 -0.2675
  900MOL0     H21464   2.564   6.605   9.289 -0.5985 -0.7070 -0.7407
  900MOL0     H21465   2.502   6.352   9.255 -1.0987 -0.1194 -0.8992
  900MOL0     H21466   2.354   6.188   9.155  0.7421  0.2726 -0.6953
  900MOL0     H21467   2.459   6.148   9.292 -0.5980 -1.0930 -2.0296
  900MOL0     H21468   2.295   6.002   9.381  0.1610  1.5030  0.7325
  900MOL0     H21469   2.187   6.033   9.245  0.3348 -0.1769 -0.0885
  900MOL0     H21470   2.461   5.918   9.179  0.5434  1.6370  0.1757
  900MOL0     H21471   2.321   5.921   9.076  4.6592 -2.1251 -1.0236
  900MOL0     H21472   2.347   5.745   9.325  1.6999 -0.4421 -1.3717
  900MOL0     H21473   2.191   5.780   9.247 -1.1962 -1.9962 -1.4803
  900MOL0     H21474   2.435   5.653   9.125  0.9489  2.2293 -0.8745
  900MOL0     H21475   2.307   5.708   9.027  1.1984  0.4040 -0.4285
  900MOL0     H21476   2.267   5.501   9.242  1.3101 -0.7047 -0.6417
  900MOL0     H21477   2.153   5.565   9.122  0.1325  0.7554 -0.0622
  900MOL0     H21478   2.380   5.368   9.071  1.3781  2.6243  0.9312
  900MOL0     H21479   2.331   5.470   8.946  2.0557 -0.9502 -1.0739
  900MOL0     H21480   2.169   5.285   8.923  0.5738  0.6388  0.2003
  900MOL0     H21481   2.086   5.419   8.995 -1.1064  0.2523  2.0974
  900MOL0     H21482   2.168   6.416   9.494  1.0541 -1.5363  0.8287
  900MOL0     H21483   2.236   6.647   9.549  0.2576  3.3733 -2.4383
  900MOL0     H21484   2.662   6.951   9.195  2.3784 -1.8918  1.2845
  900MOL0     H21485   2.829   7.126   9.244 -1.3218  3.7920  0.1906
  900MOL0     H21486   3.723   8.584  10.135  0.6086  1.7925  1.8753
  900MOL0     H21487   3.771   8.808  10.032  0.0030  1.7784 -1.2072
  900MOL0     H21488   3.812   9.088   9.837  0.2825  1.6823  1.9798
  900MOL0     H21489   3.928   9.293   9.754  1.1895 -3.4990 -1.0046
  900MOL0     H21490   3.692   9.534   9.465 -0.1086  1.3468 -1.6615
  900MOL0     H21491   3.681   9.647   9.594  0.0044 -0.1843 -1.0576
  900MOL0     H21492   3.803   9.717   9.403 -0.1740 -0.3810 -0.6360
  900MOL0     H21493   3.928   9.594   9.397  3.2635  3.3222  0.9316
  900MOL0     H21494   3.910   9.810   9.609  2.2749  0.3471  1.8786
  900MOL0     H21495   4.002   9.804   9.461 -2.5946  0.4929 -0.0037
  900MOL0     H21496   4.029   9.619   9.708  0.9946  1.0195  1.2679
  900MOL0     H21497   4.132   9.750   9.669 -1.6629  0.8962  0.9041
  900MOL0     H21498   4.267   9.473   9.360 -1.5792 -0.1771 -1.3190
  900MOL0     H21499   3.563   9.430   9.583  0.0277 -0.1459 -0.2545
  900MOL0     H21500   3.448   9.228   9.648 -0.8196  0.0015  0.8148
  901MOL0     O21501   9.897  10.357   9.398 -0.6173 -0.0896 -1.2826
  901MOL0     C21502   9.930  10.478   9.410  0.4208  0.1374  0.8524
  901MOL0     O21503   9.847  10.578   9.458 -0.3966  0.1763  0.2546
  901MOL0     C21504   9.716  10.530   9.492 -0.1393 -0.4676 -0.5029
  901MOL0     C21505   9.666  10.563   9.619  0.0352 -0.0544  0.5961
  901MOL0     C21506   9.532  10.549   9.647 -0.2028  0.3973 -0.2980
  901MOL0     C21507   9.452  10.476   9.562 -0.4671  0.0001 -0.0502
  901MOL0     O21508   9.319  10.469   9.596  0.4702  0.1248 -0.1841
  901MOL0     C21509   9.252  10.347   9.570 -1.0152  0.2779 -0.0208
  901MOL0     C21510   9.108  10.354   9.632 -0.3143  0.1870  0.6600
  901MOL0     C21511   9.008  10.430   9.558 -0.1315  0.2615  0.0967
  901MOL0     C21512   8.880  10.448   9.650 -0.1323 -0.2750  0.9814
  901MOL0     C21513   8.774  10.528   9.573 -0.2449  0.4471  0.7299
  901MOL0     C21514   8.650  10.540   9.661 -0.7854 -0.3275  0.3407
  901MOL0     C21515   8.552  10.636   9.601  0.0682 -0.5490  0.0319
  901MOL0     C21516   8.429  10.673   9.679  0.3047  0.1417  0.2684
  901MOL0     N21517   8.442  10.779   9.784  0.3371 -0.2549 -0.0695
  901MOL0     C21518   8.363  10.889   9.797 -1.3944 -0.1601  0.1046
  901MOL0     C21519   8.417  10.949   9.909 -0.0658  0.0268 -0.6842
  901MOL0     C21520   8.367  11.072   9.988  0.2787  0.3710  0.9460
  901MOL0     C21521   8.226  11.057  10.050  0.2010 -0.1927  0.5328
  901MOL0     C21522   8.167  11.196  10.089  0.0673  0.0929 -0.0127
  901MOL0     C21523   8.040  11.174  10.169 -0.5348 -0.3282 -0.3898
  901MOL0     O21524   7.982  11.304  10.205 -0.1335 -0.4396  0.5569
  901MOL0     C21525   7.851  11.302  10.252  0.4071  0.1751 -0.4174
  901MOL0     C21526   7.800  11.428  10.273  0.2139 -0.5911 -0.6496
  901MOL0     C21527   7.665  11.459  10.307  0.0291  0.0435  0.3959
  901MOL0     C21528   7.615  11.597  10.328 -0.0047 -0.1221  0.6429
  901MOL0     C21529   7.589  11.345  10.345 -0.6219  0.2202 -0.0438
  901MOL0     C21530   7.448  11.346  10.399 -0.2724 -0.5625 -0.2459
  901MOL0     O21531   7.384  11.224  10.385 -0.2661  0.1053 -0.2992
  901MOL0     C21532   7.258  11.222  10.405  0.3360 -0.4321  0.1429
  901MOL0     C21533   7.206  11.204  10.531  0.4571 -0.5424 -0.3060
  901MOL0     C21534   7.063  11.195  10.548 -0.0826  0.4847  0.4902
  901MOL0     C21535   6.970  11.202  10.445  1.0305  0.6218  0.0560
  901MOL0     O21536   6.832  11.206  10.458 -0.2440 -0.0409  0.1553
  901MOL0     C21537   6.775  11.217  10.584  0.1721  0.7076 -0.3222
  901MOL0     C21538   6.629  11.184  10.582 -0.0309  0.2296 -0.8948
  901MOL0     C21539   6.561  11.295  10.500  0.9047 -0.4624 -0.4854
  901MOL0     C21540   6.413  11.260  10.503  0.8903 -0.8186  1.1704
  901MOL0     C21541   6.343  11.386  10.441  0.5318  0.7068 -0.1804
  901MOL0     C21542   6.185  11.370  10.462  0.5081  0.5464 -0.2291
  901MOL0     C21543   6.099  11.493  10.438  0.3886  0.2315 -0.1310
  901MOL0     C21544   5.962  11.470  10.394  0.6217  0.8510  1.1044
  901MOL0    Cl21545   5.972  11.384  10.242 -0.1125 -0.2732 -0.4198
  901MOL0     C21546   7.025  11.222  10.318  0.3121 -0.7478  0.0000
  901MOL0     C21547   7.167  11.235  10.296 -0.6603 -0.3106 -0.0274
  901MOL0     O21548   7.401  11.446  10.451  0.5397 -0.2877 -1.0173
  901MOL0     C21549   7.646  11.210  10.325  0.1360  0.2237 -0.4114
  901MOL0     C21550   7.772  11.189  10.272  0.9075 -0.1406 -0.7595
  901MOL0     N21551   8.520  10.876   9.957  0.3419 -1.0378  0.5790
  901MOL0     N21552   8.533  10.766   9.887  0.8486  0.6079  0.3699
  901MOL0     C21553   9.510  10.427   9.445 -1.4093  0.2992 -0.6026
  901MOL0     C21554   9.637  10.458   9.405  1.0682  0.2597  0.5861
  901MOL0     C21555  10.057  10.518   9.344  0.3738  0.6854  0.3525
  901MOL0     C21556  10.174  10.458   9.387  0.3379 -0.9142  0.7820
  901MOL0     C21557  10.293  10.516   9.333  0.0060  0.2509 -0.2675
  901MOL0     C21558  10.293  10.630   9.251  0.9082  0.3811 -0.4765
  901MOL0     O21559  10.408  10.672   9.203  0.0995 -0.5870  0.0296
  901MOL0     C21560  10.459  10.777   9.265  0.0953  0.2742  0.9330
  901MOL0     C21561  10.589  10.753   9.343  0.8808  0.0962 -0.0967
  901MOL0     C21562  10.697  10.668   9.284  0.1872 -0.8023  0.0211
  901MOL0     C21563  10.724  10.703   9.144  0.0842 -0.1944 -0.6135
  901MOL0     C21564  10.843  10.638   9.102 -0.4501 -0.4936 -1.1558
  901MOL0     C21565  10.947  10.588   9.056  0.0587  0.4376 -0.4074
  901MOL0     C21566  10.166  10.685   9.215 -0.7413  0.2877 -0.1508
  901MOL0     C21567  10.049  10.627   9.259 -0.5946 -0.0669 -0.5245
  901MOL0     H21568   9.719  10.630   9.686  2.0006  1.8137 -2.5670
  901MOL0     H21569   9.494  10.585   9.742 -0.4763 -0.6144 -0.0127
  901MOL0     H21570   9.240  10.328   9.462  0.5028  1.6356 -0.4628
  901MOL0     H21571   9.302  10.267   9.625 -1.6191  1.0706  1.7580
  901MOL0     H21572   9.079  10.249   9.639 -0.8842 -0.1577 -3.6516
  901MOL0     H21573   9.124  10.403   9.728 -2.5521  2.8935 -0.2063
  901MOL0     H21574   9.049  10.526   9.526 -2.1146  1.1428  0.0178
  901MOL0     H21575   8.995  10.371   9.466 -0.2341  0.9518 -0.3413
  901MOL0     H21576   8.848  10.347   9.674  1.7854 -2.0530 -2.8935
  901MOL0     H21577   8.907  10.500   9.743  0.1124 -2.1101  1.9753
  901MOL0     H21578   8.817  10.627   9.557  2.3698 -0.8866 -1.4545
  901MOL0     H21579   8.741  10.480   9.480 -3.0929  1.5129  1.1161
  901MOL0     H21580   8.594  10.447   9.674 -1.7375  0.1528 -0.1921
  901MOL0     H21581   8.680  10.578   9.759  1.2375  1.0191 -0.7416
  901MOL0     H21582   8.612  10.725   9.581 -0.0589  0.3443  3.0733
  901MOL0     H21583   8.516  10.581   9.514  0.3928 -0.1575 -0.3555
  901MOL0     H21584   8.391  10.585   9.732 -0.2041  0.2495  0.0937
  901MOL0     H21585   8.356  10.711   9.607 -2.1126  0.0005  2.4971
  901MOL0     H21586   8.283  10.932   9.739 -1.5643 -3.1232 -2.1150
  901MOL0     H21587   8.439  11.097  10.066  2.2271 -0.3442 -0.5352
  901MOL0     H21588   8.372  11.158   9.920  2.6075  2.6083  3.6826
  901MOL0     H21589   8.246  10.993  10.136 -1.6394 -2.8766 -0.9126
  901MOL0     H21590   8.165  11.000   9.980  2.1725 -0.5068 -1.0282
  901MOL0     H21591   8.144  11.244   9.993  0.6290 -1.1674 -0.8102
  901MOL0     H21592   8.231  11.254  10.156 -0.8416 -0.5956  1.5160
  901MOL0     H21593   8.055  11.115  10.261 -0.6708 -1.2616 -0.9533
  901MOL0     H21594   7.970  11.117  10.107 -2.3405  1.0886  0.2459
  901MOL0     H21595   7.867  11.513  10.272  2.3878 -2.2116 -0.0329
  901MOL0     H21596   7.685  11.664  10.278  1.9698 -3.8107 -1.9988
  901MOL0     H21597   7.516  11.609  10.283  0.3822  0.5488 -0.0665
  901MOL0     H21598   7.619  11.624  10.434  1.7429 -2.3429  1.2038
  901MOL0     H21599   7.280  11.206  10.609 -1.9694 -0.8642  2.1738
  901MOL0     H21600   7.026  11.172  10.648  0.0704  0.4017  0.5285
  901MOL0     H21601   6.818  11.133  10.639 -1.5810 -2.4712 -3.3476
  901MOL0     H21602   6.798  11.314  10.629 -0.6377 -0.0588  1.8565
  901MOL0     H21603   6.623  11.087  10.532  2.1580  0.7050 -2.2333
  901MOL0     H21604   6.583  11.163  10.678  1.7424 -5.1386 -0.8758
  901MOL0     H21605   6.585  11.301  10.394  0.7387 -0.1195 -0.5038
  901MOL0     H21606   6.574  11.393  10.546 -0.7150 -0.8224  0.8460
  901MOL0     H21607   6.397  11.175  10.436 -2.5654 -0.0079  0.7649
  901MOL0     H21608   6.377  11.230  10.601 -3.8668  2.4006  0.7229
  901MOL0     H21609   6.357  11.402  10.334  0.7423 -0.9162 -0.4285
  901MOL0     H21610   6.369  11.478  10.494  2.2613 -0.6384  1.4572
  901MOL0     H21611   6.162  11.287  10.394 -0.5356  0.2579  0.4346
  901MOL0     H21612   6.154  11.339  10.563 -0.2172  0.4058 -0.4850
  901MOL0     H21613   6.144  11.567  10.371  1.2625 -1.8830 -2.0285
  901MOL0     H21614   6.091  11.539  10.537 -0.7016  1.8637 -0.9326
  901MOL0     H21615   5.905  11.563  10.393  0.7814  1.0019 -1.7707
  901MOL0     H21616   5.912  11.412  10.472  0.3825 -0.9499 -0.3345
  901MOL0     H21617   6.969  11.235  10.226 -0.5416  3.5867  0.9012
  901MOL0     H21618   7.205  11.268  10.200  1.5824 -1.2790  0.4435
  901MOL0     H21619   7.582  11.123  10.334 -1.7839  1.3604 -2.1536
  901MOL0     H21620   7.819  11.092  10.262  1.8415  0.2146 -0.0103
  901MOL0     H21621   9.444  10.372   9.379 -1.4192 -1.9783  1.1684
  901MOL0     H21622   9.673  10.429   9.307  1.4894 -1.2515  1.1639
  901MOL0     H21623  10.177  10.388   9.471 -0.9425  0.7803  2.3321
  901MOL0     H21624  10.375  10.461   9.377 -2.1753  0.5099  4.7941
  901MOL0     H21625  10.476  10.847   9.183 -0.5179 -0.5989  0.0375
  901MOL0     H21626  10.381  10.822   9.328  0.6855  2.1100  0.4264
  901MOL0     H21627  10.563  10.693   9.431 -1.1780 -1.0844 -1.4379
  901MOL0     H21628  10.633  10.847   9.378  1.0156  0.0836 -0.2288
  901MOL0     H21629  10.657  10.567   9.279 -1.3714 -0.2216  0.3015
  901MOL0     H21630  10.780  10.668   9.355  1.3688  2.9439 -1.0993
  901MOL0     H21631  10.743  10.811   9.137 -2.9440  0.5217  0.5428
  901MOL0     H21632  10.630  10.678   9.093 -2.8978 -2.1248  4.9435
  901MOL0     H21633  11.038  10.536   9.029  2.2588  0.6786  5.1845
  901MOL0     H21634  10.159  10.767   9.144 -1.8613  0.0790 -0.2894
  901MOL0     H21635   9.951  10.657   9.224 -0.3716  0.8574 -0.3717
  902MOL0     O21636   0.036   7.031   9.325  0.6682  0.4891 -0.6408
  902MOL0     C21637   0.092   6.938   9.392  0.4772  0.4519 -0.2833
  902MOL0     O21638   0.057   6.893   9.521  0.3410  0.4626  0.5609
  902MOL0     C21639  -0.064   6.944   9.576 -0.1757 -0.2996  0.9920
  902MOL0     C21640  -0.192   6.903   9.528 -0.4151 -0.0035 -0.6247
  902MOL0     C21641  -0.307   6.941   9.595  0.3476 -0.4186 -0.4464
  902MOL0     C21642  -0.309   7.042   9.691  1.0832  0.5282 -0.1798
  902MOL0     O21643  -0.429   7.086   9.743  0.3805  0.4166 -0.0025
  902MOL0     C21644  -0.440   7.222   9.766  0.2150 -0.0063 -0.6921
  902MOL0     C21645  -0.434   7.265   9.915  0.8868 -0.9882  0.2095
  902MOL0     C21646  -0.512   7.185  10.028  1.0300 -0.4847  0.6643
  902MOL0     C21647  -0.448   7.047  10.045 -0.6285 -0.0445  1.0333
  902MOL0     C21648  -0.474   6.991  10.186  0.6120  0.7649  1.2263
  902MOL0     C21649  -0.407   6.852  10.205 -0.1655 -0.5432  0.0508
  902MOL0     C21650  -0.465   6.774  10.335 -0.7231  0.6629  0.2569
  902MOL0     C21651  -0.424   6.630  10.318 -0.6105 -0.0017  0.0417
  902MOL0     N21652  -0.284   6.585  10.362  0.0262  0.5321  0.2917
  902MOL0     C21653  -0.159   6.578  10.296  0.6384 -0.0551 -0.8583
  902MOL0     C21654  -0.079   6.504  10.375  0.6483 -0.0702  0.3226
  902MOL0     C21655   0.066   6.468  10.353  0.7521  0.4510  0.2786
  902MOL0     C21656   0.159   6.584  10.355  0.8160 -0.8633 -0.1386
  902MOL0     C21657   0.153   6.662  10.222 -0.6630  0.5216  0.2899
  902MOL0     C21658   0.235   6.787  10.242 -0.3340  0.3826 -0.7721
  902MOL0     O21659   0.191   6.900  10.173 -0.0622 -0.0262 -0.0199
  902MOL0     C21660   0.084   6.970  10.221  0.6982 -0.8417  0.0796
  902MOL0     C21661   0.011   6.946  10.335 -0.4530 -0.5629  0.7891
  902MOL0     C21662  -0.074   7.034  10.387  0.3387  0.3872  0.2255
  902MOL0     C21663  -0.130   7.017  10.527 -0.9271  0.2244  0.1175
  902MOL0     C21664  -0.114   7.155  10.318 -0.7739  0.1588  0.2359
  902MOL0     C21665  -0.231   7.243  10.347  0.7793  0.0399  0.1876
  902MOL0     O21666  -0.293   7.224  10.466  0.0878  0.2678 -0.0843
  902MOL0     C21667  -0.388   7.309  10.509 -0.0817 -0.2441 -0.0294
  902MOL0     C21668  -0.488   7.370  10.432  0.4097 -0.3557  0.4551
  902MOL0     C21669  -0.577   7.471  10.483  0.6599  0.6958 -0.0107
  902MOL0     C21670  -0.575   7.511  10.618 -0.6457  0.8507 -0.7192
  902MOL0     O21671  -0.657   7.611  10.649  0.9978 -0.3011 -0.8104
  902MOL0     C21672  -0.697   7.636  10.784  0.0305 -0.1584  0.1854
  902MOL0     C21673  -0.803   7.738  10.790 -0.7273 -0.1830 -0.7673
  902MOL0     C21674  -0.746   7.872  10.739  0.0267 -0.2557 -0.3538
  902MOL0     C21675  -0.825   8.003  10.751 -0.0668  0.4135 -0.3041
  902MOL0     C21676  -0.770   8.090  10.855  0.0816 -0.4802 -0.4131
  902MOL0     C21677  -0.731   8.022  10.987  0.0892  0.0059  0.3444
  902MOL0     C21678  -0.667   8.143  11.065 -0.2043  1.5461  0.6241
  902MOL0     C21679  -0.599   8.081  11.188 -0.4617 -0.0575 -0.0070
  902MOL0    Cl21680  -0.445   8.001  11.161  0.1607 -0.2003 -0.3467
  902MOL0     C21681  -0.480   7.445  10.701  0.3938  0.0324 -0.4982
  902MOL0     C21682  -0.387   7.351  10.645 -0.4549  1.2097 -0.5232
  902MOL0     O21683  -0.247   7.335  10.263  0.4531  0.7008 -0.0032
  902MOL0     C21684  -0.056   7.170  10.196  0.1800  0.1088 -0.0892
  902MOL0     C21685   0.048   7.081  10.145  0.5483  0.4486  0.4164
  902MOL0     N21686  -0.147   6.462  10.487 -0.0869  0.5699 -0.3985
  902MOL0     N21687  -0.265   6.516  10.481 -0.9189 -0.2701  0.5780
  902MOL0     C21688  -0.185   7.082   9.742  0.0001 -0.3279 -0.1794
  902MOL0     C21689  -0.064   7.037   9.680 -1.4083  0.3074 -0.1660
  902MOL0     C21690   0.215   6.887   9.325 -0.0874 -0.5505  0.1483
  902MOL0     C21691   0.229   6.887   9.184 -1.0147 -0.0770 -0.1088
  902MOL0     C21692   0.353   6.835   9.134  0.6456  0.6304 -0.6529
  902MOL0     C21693   0.449   6.788   9.229  0.6908  0.1460 -0.2856
  902MOL0     O21694   0.559   6.709   9.200 -0.4211 -0.2237  0.1004
  902MOL0     C21695   0.607   6.713   9.061 -0.0613  0.6104  1.1805
  902MOL0     C21696   0.747   6.650   9.053 -0.7584 -0.5703 -0.0269
  902MOL0     C21697   0.856   6.711   9.147  0.2986 -0.2776  0.2883
  902MOL0     C21698   0.993   6.644   9.118 -0.1737 -0.3678  0.0583
  902MOL0     C21699   1.095   6.749   9.153  0.7324  0.4624 -0.0256
  902MOL0     C21700   1.184   6.822   9.189  0.5429 -0.2576  0.2580
  902MOL0     C21701   0.435   6.801   9.367 -0.2041  0.0132 -0.3150
  902MOL0     C21702   0.319   6.856   9.414 -0.1566 -0.6142  0.0476
  902MOL0     H21703  -0.203   6.837   9.443  1.7490 -2.3893  0.7953
  902MOL0     H21704  -0.404   6.905   9.562 -1.5153  1.9338  1.9634
  902MOL0     H21705  -0.362   7.278   9.713 -1.0522  1.9442 -0.6085
  902MOL0     H21706  -0.533   7.249   9.715 -1.1497 -3.4567 -0.3034
  902MOL0     H21707  -0.333   7.280   9.955  1.0258 -0.9121 -0.1657
  902MOL0     H21708  -0.479   7.365   9.914  1.8450 -0.5200 -2.1183
  902MOL0     H21709  -0.530   7.238  10.122 -0.8850 -0.9252  0.5926
  902MOL0     H21710  -0.613   7.182   9.988  0.7731  0.9144  1.1550
  902MOL0     H21711  -0.486   6.985   9.964  0.9200 -0.0367  0.2580
  902MOL0     H21712  -0.339   7.054  10.032 -0.7853  1.3987  0.2450
  902MOL0     H21713  -0.426   7.062  10.254  2.8360  2.5866 -1.9622
  902MOL0     H21714  -0.581   6.981  10.207  0.7795 -3.7793  0.8759
  902MOL0     H21715  -0.429   6.787  10.120 -0.4906 -1.6885  1.0029
  902MOL0     H21716  -0.300   6.874  10.213 -0.5954  2.3827 -0.8923
  902MOL0     H21717  -0.428   6.801  10.435  1.8863  1.9008 -0.9569
  902MOL0     H21718  -0.574   6.766  10.333 -0.6947 -0.4433  1.4915
  902MOL0     H21719  -0.439   6.604  10.213 -1.1358  1.1157 -0.1816
  902MOL0     H21720  -0.499   6.577  10.377  0.0915  0.4804  1.4206
  902MOL0     H21721  -0.130   6.621  10.200 -1.2818 -1.7098 -2.2867
  902MOL0     H21722   0.091   6.397  10.433 -3.8843  1.1084  2.6342
  902MOL0     H21723   0.069   6.414  10.258  0.0371 -0.0597  0.5366
  902MOL0     H21724   0.257   6.547  10.385  1.0928 -0.1978 -0.1932
  902MOL0     H21725   0.124   6.655  10.431  0.0203 -1.4401  0.0490
  902MOL0     H21726   0.051   6.675  10.185 -1.8897 -4.3419  1.3343
  902MOL0     H21727   0.198   6.603  10.142 -1.9987 -0.5766  0.3255
  902MOL0     H21728   0.325   6.756  10.188 -0.3171 -0.9264 -0.0439
  902MOL0     H21729   0.269   6.818  10.341 -0.1926  0.2338 -0.7740
  902MOL0     H21730   0.047   6.861  10.391  0.4482 -0.2664  0.6757
  902MOL0     H21731  -0.238   7.003  10.538 -0.3590 -4.8905  1.6800
  902MOL0     H21732  -0.081   6.933  10.577  2.9072  0.7716 -2.2756
  902MOL0     H21733  -0.110   7.104  10.589  2.4240 -0.0898 -0.3104
  902MOL0     H21734  -0.493   7.357  10.325 -0.3795  0.0060  0.4403
  902MOL0     H21735  -0.632   7.518  10.402 -1.3542  0.5393  1.2023
  902MOL0     H21736  -0.730   7.550  10.843  2.2394  0.5742  2.7410
  902MOL0     H21737  -0.617   7.687  10.839 -1.9729  4.0404 -0.4173
  902MOL0     H21738  -0.873   7.697  10.717  1.7786 -0.3375 -3.2538
  902MOL0     H21739  -0.844   7.757  10.890 -0.9491  1.0387 -1.0789
  902MOL0     H21740  -0.746   7.861  10.631 -0.5248  1.5285 -0.5810
  902MOL0     H21741  -0.640   7.889  10.762 -0.3357  2.7961 -0.5301
  902MOL0     H21742  -0.817   8.054  10.654  2.4427  0.4714 -0.1277
  902MOL0     H21743  -0.930   7.982  10.774 -0.4331  1.7887 -0.6384
  902MOL0     H21744  -0.852   8.160  10.871 -0.0066 -1.1603  2.8036
  902MOL0     H21745  -0.682   8.137  10.811  0.3608 -0.5095  0.1101
  902MOL0     H21746  -0.814   7.974  11.040  1.3631 -0.0598  2.3364
  902MOL0     H21747  -0.653   7.947  10.972 -1.8274 -2.6936  2.8605
  902MOL0     H21748  -0.753   8.198  11.105 -2.7535 -0.4273 -1.7398
  902MOL0     H21749  -0.588   8.202  11.017  1.2974  0.6145  1.8513
  902MOL0     H21750  -0.668   8.005  11.225 -1.7475  0.7601 -0.6624
  902MOL0     H21751  -0.595   8.150  11.273 -2.7723  1.0193 -0.7120
  902MOL0     H21752  -0.472   7.475  10.805 -0.7184 -1.4280  0.0480
  902MOL0     H21753  -0.309   7.306  10.706 -0.3869  0.1697 -1.3467
  902MOL0     H21754  -0.082   7.251  10.129  1.3296  0.2702 -0.3607
  902MOL0     H21755   0.094   7.101  10.049  0.1745  0.9226  0.3303
  902MOL0     H21756  -0.177   7.148   9.828  1.0564  0.7031 -1.0301
  902MOL0     H21757   0.035   7.058   9.719  0.3500 -0.2883 -3.9055
  902MOL0     H21758   0.160   6.931   9.112 -2.2641 -1.8461 -0.0534
  902MOL0     H21759   0.374   6.833   9.028  0.5420  1.0895 -0.6867
  902MOL0     H21760   0.540   6.654   8.998  0.9179 -2.5705  2.8562
  902MOL0     H21761   0.621   6.814   9.023  3.3931  0.0137  0.5852
  902MOL0     H21762   0.778   6.657   8.949 -2.3270  2.0109 -0.4010
  902MOL0     H21763   0.745   6.543   9.079 -0.0188 -1.2327 -2.4623
  902MOL0     H21764   0.826   6.705   9.252  0.7786 -0.0893  0.4397
  902MOL0     H21765   0.858   6.816   9.117  0.0366 -1.0179 -2.5981
  902MOL0     H21766   0.990   6.619   9.012  0.0168 -0.2655  0.0288
  902MOL0     H21767   1.001   6.560   9.187 -0.6875 -0.8053 -0.4103
  902MOL0     H21768   1.264   6.884   9.224  1.7250  0.6843 -3.6401
  902MOL0     H21769   0.512   6.777   9.439 -0.5781  0.3445  0.2055
  902MOL0     H21770   0.303   6.865   9.521  0.8555 -0.8447  0.2278
  903MOL0     O21771   0.214   8.784   9.052 -0.1714 -0.2046 -0.0111
  903MOL0     C21772   0.273   8.890   9.076  0.2225  0.1709 -0.3915
  903MOL0     O21773   0.213   9.009   9.111 -0.4322 -0.1362  0.8342
  903MOL0     C21774   0.080   9.000   9.126  0.4020 -1.0212 -0.5344
  903MOL0     C21775   0.034   9.005   9.256  0.3053 -0.1470 -0.0259
  903MOL0     C21776  -0.105   9.013   9.281 -0.1197  0.2030 -0.4838
  903MOL0     C21777  -0.202   9.006   9.184 -0.7967 -0.4640  0.4011
  903MOL0     O21778  -0.336   9.012   9.209  0.0227 -0.2716  0.3740
  903MOL0     C21779  -0.433   9.005   9.107  1.5077 -0.8376  0.2021
  903MOL0     C21780  -0.452   8.869   9.050  0.7055 -0.3653  0.5298
  903MOL0     C21781  -0.504   8.767   9.153 -0.4388  0.5180  0.4019
  903MOL0     C21782  -0.556   8.647   9.080 -0.0722 -0.3210  1.1092
  903MOL0     C21783  -0.447   8.556   9.020 -0.7367  0.3366 -0.1627
  903MOL0     C21784  -0.496   8.429   8.942 -0.1400 -0.4199  0.3069
  903MOL0     C21785  -0.569   8.446   8.803 -0.6024  0.0176  0.5054
  903MOL0     C21786  -0.693   8.364   8.772 -0.2190 -0.9062 -0.1142
  903MOL0     N21787  -0.818   8.408   8.848  0.0669 -0.1775 -0.3986
  903MOL0     C21788  -0.909   8.499   8.795 -0.0004 -0.3171  0.3546
  903MOL0     C21789  -1.023   8.486   8.875  0.0804 -0.0934  0.0772
  903MOL0     C21790  -1.142   8.580   8.869 -0.9913  1.5951 -0.6533
  903MOL0     C21791  -1.162   8.678   8.980  0.5529  0.5605 -0.3486
  903MOL0     C21792  -1.032   8.756   9.003  0.7024 -0.2345 -0.3631
  903MOL0     C21793  -1.032   8.826   9.133 -0.6580  0.7137 -0.8705
  903MOL0     O21794  -1.142   8.913   9.129  0.5113  0.4901 -0.5497
  903MOL0     C21795  -1.254   8.901   9.214  0.3712  0.7736 -0.8492
  903MOL0     C21796  -1.280   8.798   9.306 -0.5732 -0.3065  0.2785
  903MOL0     C21797  -1.397   8.791   9.388 -0.9108 -0.5017 -0.0759
  903MOL0     C21798  -1.419   8.686   9.486 -0.3877  1.0311 -0.1749
  903MOL0     C21799  -1.492   8.897   9.369 -0.8160 -0.0669  0.0593
  903MOL0     C21800  -1.611   8.921   9.455 -0.2984 -0.4586 -1.0253
  903MOL0     O21801  -1.650   9.052   9.468  0.6305 -0.1070 -0.2088
  903MOL0     C21802  -1.769   9.091   9.531  0.1145  0.2540 -1.0807
  903MOL0     C21803  -1.866   9.161   9.460 -0.5074  0.4734  0.2007
  903MOL0     C21804  -1.991   9.196   9.515 -0.4687  0.7755 -0.1983
  903MOL0     C21805  -2.014   9.161   9.647 -0.3087 -1.1514 -1.4174
  903MOL0     O21806  -2.128   9.202   9.706  0.2368 -0.3187  0.5325
  903MOL0     C21807  -2.197   9.094   9.761 -0.0426 -0.2267  0.4023
  903MOL0     C21808  -2.248   8.994   9.653  1.3292 -0.6555 -0.6455
  903MOL0     C21809  -2.321   9.055   9.530 -0.5059  0.0149 -0.8908
  903MOL0     C21810  -2.440   9.133   9.578  0.1179 -0.5524  0.6197
  903MOL0     C21811  -2.539   9.162   9.450 -1.0379  0.6775  0.2651
  903MOL0     C21812  -2.661   9.228   9.527  0.4294  0.3173  0.1797
  903MOL0     C21813  -2.775   9.264   9.434 -0.5981  0.2176  0.0209
  903MOL0     C21814  -2.764   9.412   9.384  0.8222  0.1028 -0.1716
  903MOL0    Cl21815  -2.820   9.500   9.525 -0.2878  0.2704 -0.0653
  903MOL0     C21816  -1.912   9.094   9.727 -0.4409 -0.8783 -0.4146
  903MOL0     C21817  -1.792   9.067   9.672 -0.0203 -0.7206 -0.0483
  903MOL0     O21818  -1.666   8.825   9.505  0.5017 -0.3919 -0.7058
  903MOL0     C21819  -1.466   8.993   9.271 -0.1435 -0.0545  0.0986
  903MOL0     C21820  -1.347   9.000   9.193 -0.5190  0.6792 -0.9128
  903MOL0     N21821  -0.997   8.393   8.971 -0.3804 -0.2586 -0.3785
  903MOL0     N21822  -0.872   8.352   8.957 -0.3497  0.4980 -0.2384
  903MOL0     C21823  -0.146   8.994   9.048 -0.6281 -0.8195 -0.0038
  903MOL0     C21824   0.001   8.992   9.022  0.0293  0.1924 -1.3429
  903MOL0     C21825   0.421   8.878   9.067  0.4639  0.0401 -0.5070
  903MOL0     C21826   0.481   8.747   9.045  0.9589  0.2645 -0.2500
  903MOL0     C21827   0.617   8.731   9.030  0.5737  0.1688  0.1065
  903MOL0     C21828   0.702   8.842   9.043 -0.5434 -0.9667  0.2540
  903MOL0     O21829   0.836   8.831   9.023  0.2170  0.1433 -0.3411
  903MOL0     C21830   0.927   8.906   9.107  0.4054  0.1263  0.3313
  903MOL0     C21831   1.023   8.992   9.015 -0.5755 -0.5614  0.3036
  903MOL0     C21832   1.108   9.074   9.121  0.3640  0.0949 -0.5707
  903MOL0     C21833   1.219   9.145   9.049  0.7412 -0.3133  0.0459
  903MOL0     C21834   1.285   9.244   9.133 -0.6262  0.5634  0.2239
  903MOL0     C21835   1.337   9.328   9.202 -0.4475  0.1897 -0.0209
  903MOL0     C21836   0.645   8.970   9.076  0.6701 -0.6459 -0.0147
  903MOL0     C21837   0.506   8.988   9.091  0.2021 -0.2696  1.5901
  903MOL0     H21838   0.109   8.993   9.332 -0.2362  0.2122  0.5777
  903MOL0     H21839  -0.139   9.037   9.381 -1.9131 -1.6158 -0.5935
  903MOL0     H21840  -0.529   9.038   9.149  0.9905  1.5834 -2.5248
  903MOL0     H21841  -0.406   9.078   9.031  1.3219 -1.6797 -0.6945
  903MOL0     H21842  -0.518   8.878   8.964 -0.7306 -3.2465  1.2035
  903MOL0     H21843  -0.355   8.838   9.009  0.7285  1.8714 -1.3507
  903MOL0     H21844  -0.426   8.758   9.229  0.4629  2.6127 -0.2106
  903MOL0     H21845  -0.601   8.806   9.186 -2.3222 -0.1219 -3.7254
  903MOL0     H21846  -0.603   8.587   9.159  0.0342 -0.3071  1.1829
  903MOL0     H21847  -0.625   8.674   9.000  2.2308  3.2142  0.0820
  903MOL0     H21848  -0.383   8.616   8.954 -0.1197  1.0170  1.0168
  903MOL0     H21849  -0.385   8.536   9.108  0.2086  0.5460 -0.7632
  903MOL0     H21850  -0.408   8.371   8.912 -1.6834 -2.0384 -1.2808
  903MOL0     H21851  -0.563   8.366   9.003  0.5377  0.5085  2.0957
  903MOL0     H21852  -0.586   8.551   8.779  1.1845 -0.0751 -1.3859
  903MOL0     H21853  -0.491   8.420   8.731 -0.3454 -1.2265  1.2091
  903MOL0     H21854  -0.656   8.264   8.793  0.8300 -0.4173  0.4359
  903MOL0     H21855  -0.700   8.363   8.663  4.7507 -0.7264 -0.6850
  903MOL0     H21856  -0.902   8.564   8.709 -0.0961  0.1769  0.7161
  903MOL0     H21857  -1.129   8.632   8.774  4.5673  0.0011 -1.1180
  903MOL0     H21858  -1.230   8.515   8.864  0.3297 -0.3803  0.3657
  903MOL0     H21859  -1.201   8.626   9.068  0.3602 -0.0180 -0.7682
  903MOL0     H21860  -1.245   8.739   8.945 -1.7709 -0.3995  3.0726
  903MOL0     H21861  -1.011   8.818   8.915 -0.3423 -0.8892 -1.1020
  903MOL0     H21862  -0.956   8.678   9.004 -0.6902 -1.7223 -2.2051
  903MOL0     H21863  -0.937   8.878   9.154 -1.2070  0.8853  1.4040
  903MOL0     H21864  -1.041   8.750   9.211 -0.9043  0.5576 -1.0508
  903MOL0     H21865  -1.208   8.718   9.322 -0.3791  0.2805  2.8352
  903MOL0     H21866  -1.416   8.732   9.585 -2.4789  1.2468 -0.1682
  903MOL0     H21867  -1.508   8.625   9.467  1.7438 -1.9297 -1.3927
  903MOL0     H21868  -1.345   8.607   9.471  1.6278  2.4471  1.7682
  903MOL0     H21869  -1.845   9.186   9.357 -0.5438 -0.3803 -0.0215
  903MOL0     H21870  -2.071   9.248   9.461  0.0645  1.9449  0.0968
  903MOL0     H21871  -2.157   9.029   9.839 -0.1899 -0.0309  0.6413
  903MOL0     H21872  -2.280   9.137   9.818  1.9669  3.4320  0.8471
  903MOL0     H21873  -2.164   8.934   9.617  1.3221 -0.9429 -0.1932
  903MOL0     H21874  -2.315   8.922   9.701  1.4647  0.5664  1.5419
  903MOL0     H21875  -2.352   8.972   9.466 -0.8633  0.6296 -1.5285
  903MOL0     H21876  -2.259   9.130   9.480 -0.2752  1.9019  2.0242
  903MOL0     H21877  -2.497   9.074   9.650 -1.0546 -0.8823 -0.5270
  903MOL0     H21878  -2.411   9.230   9.619  0.2897 -0.0292 -0.6937
  903MOL0     H21879  -2.564   9.066   9.403 -0.0733 -0.4586  1.9815
  903MOL0     H21880  -2.481   9.228   9.385 -1.8301 -1.4430 -2.8316
  903MOL0     H21881  -2.704   9.156   9.597  2.7365 -1.9642 -0.5962
  903MOL0     H21882  -2.631   9.315   9.586 -2.0377  1.6696 -0.4393
  903MOL0     H21883  -2.870   9.228   9.476 -1.1931 -0.0522 -1.4594
  903MOL0     H21884  -2.771   9.199   9.345 -0.5248  2.9100 -2.0578
  903MOL0     H21885  -2.841   9.418   9.306  2.2267 -2.4249 -1.9033
  903MOL0     H21886  -2.671   9.448   9.341 -0.3696  1.8158 -1.4497
  903MOL0     H21887  -1.930   9.070   9.831  2.1261 -1.2196  0.0115
  903MOL0     H21888  -1.712   9.019   9.729 -0.2919 -0.6955  0.3541
  903MOL0     H21889  -1.529   9.077   9.245  1.8078  2.5287  2.9925
  903MOL0     H21890  -1.330   9.078   9.119  2.2642 -1.1733 -2.3997
  903MOL0     H21891  -0.207   8.994   8.958 -0.5422  0.8329 -0.0925
  903MOL0     H21892   0.034   8.984   8.919 -1.3512 -3.7443 -1.6655
  903MOL0     H21893   0.415   8.662   9.033  0.1693  1.1786 -3.0441
  903MOL0     H21894   0.660   8.632   9.036  0.8882  0.3500  1.0695
  903MOL0     H21895   0.877   8.965   9.184  1.8386 -2.3601  3.3610
  903MOL0     H21896   0.991   8.830   9.152 -1.3405 -1.9521 -0.5403
  903MOL0     H21897   0.974   9.058   8.944 -1.4752 -0.8789  0.6171
  903MOL0     H21898   1.084   8.922   8.957 -0.1723 -0.9751  1.2077
  903MOL0     H21899   1.150   9.007   9.197  0.1638  0.0115 -0.5351
  903MOL0     H21900   1.046   9.144   9.177  0.2213 -1.1900  0.9662
  903MOL0     H21901   1.175   9.196   8.962  1.0229 -0.9464 -0.4802
  903MOL0     H21902   1.288   9.072   9.006  0.1002  0.1038 -1.8171
  903MOL0     H21903   1.393   9.400   9.258  1.5071  0.8380 -2.6154
  903MOL0     H21904   0.710   9.056   9.069  1.3960 -1.1919 -0.0681
  903MOL0     H21905   0.463   9.083   9.121 -0.9146  0.1165 -0.9648
  904MOL0     O21906   0.361   1.541   8.215  0.0902 -0.3760 -0.7787
  904MOL0     C21907   0.370   1.632   8.138  0.5318 -0.0248 -0.0056
  904MOL0     O21908   0.259   1.708   8.096  0.2115 -0.4609  0.1801
  904MOL0     C21909   0.140   1.660   8.133  0.8749 -0.8376 -0.0333
  904MOL0     C21910   0.060   1.600   8.037  0.5956  0.2192 -0.5783
  904MOL0     C21911  -0.073   1.562   8.075  0.5965  0.1620 -0.3791
  904MOL0     C21912  -0.111   1.580   8.213  0.2065  0.4525  0.3752
  904MOL0     O21913  -0.245   1.555   8.250  0.0403  0.4093  0.4385
  904MOL0     C21914  -0.264   1.447   8.339 -0.4750  0.8011  0.4794
  904MOL0     C21915  -0.392   1.461   8.426 -0.7855  0.7401 -0.1692
  904MOL0     C21916  -0.521   1.488   8.346  0.6816 -1.2398  0.2809
  904MOL0     C21917  -0.635   1.483   8.446 -1.0905  0.3138 -0.0688
  904MOL0     C21918  -0.773   1.484   8.376  0.5702  0.4450 -0.1276
  904MOL0     C21919  -0.796   1.353   8.285  0.8682  0.7580  0.3517
  904MOL0     C21920  -0.753   1.218   8.351 -0.7418 -0.1142 -0.3537
  904MOL0     C21921  -0.816   1.093   8.300 -0.2704  1.1799  0.6898
  904MOL0     N21922  -0.950   1.074   8.349 -0.1331  0.1759 -0.1025
  904MOL0     C21923  -0.978   1.006   8.459  1.3102  0.4985 -0.1154
  904MOL0     C21924  -1.109   1.032   8.487  0.1028 -0.6215  1.5731
  904MOL0     C21925  -1.181   0.965   8.602 -0.6331  0.5062 -0.3504
  904MOL0     C21926  -1.269   1.066   8.669 -1.1804  1.0710  0.1656
  904MOL0     C21927  -1.346   1.001   8.785  0.8499  0.8174  0.4987
  904MOL0     C21928  -1.459   0.909   8.742 -0.7728 -0.0595 -0.3309
  904MOL0     O21929  -1.529   0.855   8.852 -0.0515 -0.6034 -0.6687
  904MOL0     C21930  -1.621   0.942   8.913  0.4246  0.5680  0.5462
  904MOL0     C21931  -1.626   0.949   9.045 -0.9761  0.5295 -0.1257
  904MOL0     C21932  -1.714   1.028   9.117 -0.0680 -0.1695 -1.3605
  904MOL0     C21933  -1.703   1.026   9.269  0.2524 -0.0857  0.7073
  904MOL0     C21934  -1.801   1.117   9.042  1.0815  0.2517  0.2485
  904MOL0     C21935  -1.893   1.219   9.101  0.3451 -0.5021 -0.2530
  904MOL0     O21936  -1.947   1.307   9.018  0.1181  0.5039  0.2620
  904MOL0     C21937  -2.040   1.394   9.069  1.1540 -0.1513  0.4322
  904MOL0     C21938  -2.166   1.351   9.116 -1.5201 -0.6493 -0.2101
  904MOL0     C21939  -2.260   1.443   9.158 -0.7384 -0.8248 -0.3715
  904MOL0     C21940  -2.223   1.582   9.164 -0.1918 -0.1441  0.5328
  904MOL0     O21941  -2.300   1.687   9.214 -0.2290  0.5066 -0.5084
  904MOL0     C21942  -2.441   1.657   9.213 -0.2763  0.9360 -0.5705
  904MOL0     C21943  -2.513   1.790   9.244 -0.4864 -1.0528  0.4755
  904MOL0     C21944  -2.473   1.832   9.389  0.7917 -0.5743  0.0196
  904MOL0     C21945  -2.532   1.973   9.407 -0.0782  0.1517 -0.7961
  904MOL0     C21946  -2.537   2.015   9.555  0.0210  0.3209 -0.0759
  904MOL0     C21947  -2.623   1.935   9.658  0.8861 -1.0120 -0.7776
  904MOL0     C21948  -2.603   1.980   9.800  0.2421 -0.3897  0.3878
  904MOL0     C21949  -2.674   1.901   9.901 -0.4316  0.4636 -0.2754
  904MOL0    Cl21950  -2.691   2.001  10.047  0.0069  0.3330 -0.2200
  904MOL0     C21951  -2.097   1.620   9.120  0.3190 -0.2828  0.2072
  904MOL0     C21952  -2.010   1.527   9.066 -0.5951  0.8499  0.6498
  904MOL0     O21953  -1.936   1.188   9.210  0.6454 -0.2869  0.2730
  904MOL0     C21954  -1.793   1.109   8.904  0.0809  0.1166 -0.5733
  904MOL0     C21955  -1.714   1.020   8.839 -0.1065  0.3241 -0.0286
  904MOL0     N21956  -1.158   1.126   8.395  0.9900  0.6447 -0.3951
  904MOL0     N21957  -1.062   1.150   8.318  0.5440  1.0702  0.5593
  904MOL0     C21958  -0.024   1.643   8.308  0.1316  0.9209 -0.3768
  904MOL0     C21959   0.098   1.685   8.269 -0.0073  0.8066 -0.5355
  904MOL0     C21960   0.504   1.671   8.086  0.2561  0.1296 -0.0880
  904MOL0     C21961   0.519   1.782   8.004 -0.3974  0.4679 -0.8136
  904MOL0     C21962   0.644   1.813   7.946 -0.8456  0.5151 -0.2827
  904MOL0     C21963   0.755   1.738   7.966 -0.0867  0.4376  0.2557
  904MOL0     O21964   0.867   1.779   7.892 -0.1872 -0.3463 -0.0441
  904MOL0     C21965   0.953   1.672   7.869 -0.0165 -0.2509 -0.1799
  904MOL0     C21966   1.046   1.711   7.744  0.2894  1.0836 -0.3541
  904MOL0     C21967   1.113   1.844   7.762  0.9768 -0.5538 -0.0890
  904MOL0     C21968   1.252   1.829   7.833 -0.1360  1.0576 -0.4212
  904MOL0     C21969   1.342   1.768   7.731  0.0863 -1.2536 -0.5772
  904MOL0     C21970   1.428   1.707   7.668 -0.0922  0.0195 -0.1809
  904MOL0     C21971   0.736   1.622   8.047 -0.2263 -0.1817  0.2994
  904MOL0     C21972   0.620   1.600   8.121  0.4303 -0.4299 -0.4367
  904MOL0     H21973   0.100   1.586   7.937  1.7342  0.4602 -0.1699
  904MOL0     H21974  -0.138   1.525   7.996 -0.9828 -0.2775  1.0655
  904MOL0     H21975  -0.263   1.352   8.284  2.0578  2.1844 -2.0865
  904MOL0     H21976  -0.177   1.443   8.405 -0.1337 -0.6127 -0.0214
  904MOL0     H21977  -0.415   1.377   8.492 -0.5409  0.7468 -0.0730
  904MOL0     H21978  -0.387   1.554   8.483  0.4463  0.6226 -0.0641
  904MOL0     H21979  -0.517   1.587   8.298  2.6770  0.1897  3.0746
  904MOL0     H21980  -0.526   1.408   8.271 -4.0014  2.5609 -4.2796
  904MOL0     H21981  -0.620   1.386   8.494  6.3916 -0.4073 -2.5894
  904MOL0     H21982  -0.627   1.568   8.515  0.9048 -1.1413  1.6074
  904MOL0     H21983  -0.847   1.502   8.454  2.9262 -2.0318  2.9694
  904MOL0     H21984  -0.774   1.566   8.304  0.8825  0.1600 -0.4635
  904MOL0     H21985  -0.902   1.344   8.262  1.2304  0.9596 -1.5767
  904MOL0     H21986  -0.746   1.355   8.187  0.4557 -1.6068  0.0204
  904MOL0     H21987  -0.644   1.210   8.339 -0.1468  3.5355  1.1800
  904MOL0     H21988  -0.776   1.226   8.457 -4.0432 -0.6058 -0.9420
  904MOL0     H21989  -0.749   1.018   8.342 -0.5487  1.4206  1.5719
  904MOL0     H21990  -0.823   1.080   8.191 -0.7169  0.0150  0.8404
  904MOL0     H21991  -0.902   0.960   8.521  2.2231  0.7672 -1.0209
  904MOL0     H21992  -1.237   0.877   8.569 -0.6120  1.0216 -1.8406
  904MOL0     H21993  -1.102   0.933   8.671 -0.1850  0.3332 -0.9362
  904MOL0     H21994  -1.337   1.114   8.599 -1.2662  2.1798  0.9835
  904MOL0     H21995  -1.194   1.138   8.702 -0.0124 -1.1866  2.8869
  904MOL0     H21996  -1.374   1.071   8.865 -0.6199  0.7776  0.0522
  904MOL0     H21997  -1.273   0.945   8.845  1.0501  1.5173  0.9266
  904MOL0     H21998  -1.421   0.827   8.680 -0.3443  0.0081 -0.1633
  904MOL0     H21999  -1.515   0.972   8.673 -2.1555  1.1184  1.7809
  904MOL0     H22000  -1.543   0.899   9.095  1.7238  2.5268 -2.2845
  904MOL0     H22001  -1.733   1.122   9.312  1.1649  0.0413  1.0837
  904MOL0     H22002  -1.762   0.951   9.322  1.5162 -0.6443  1.3831
  904MOL0     H22003  -1.597   1.007   9.290  0.2948  0.9484  1.5043
  904MOL0     H22004  -2.189   1.245   9.117 -1.2510 -0.7311  2.2559
  904MOL0     H22005  -2.348   1.399   9.202  0.5192 -1.4614  1.6249
  904MOL0     H22006  -2.480   1.608   9.123 -4.0985 -1.2380  1.9951
  904MOL0     H22007  -2.464   1.585   9.292  0.0206  0.9678 -0.4546
  904MOL0     H22008  -2.493   1.851   9.155  1.4033 -2.4458 -0.1312
  904MOL0     H22009  -2.621   1.775   9.245 -0.6658  0.1350  0.1806
  904MOL0     H22010  -2.364   1.840   9.395  0.6429  0.9795  1.1365
  904MOL0     H22011  -2.514   1.755   9.455 -0.6338 -0.6206 -0.8779
  904MOL0     H22012  -2.478   2.054   9.357 -3.4652  2.4451 -1.0897
  904MOL0     H22013  -2.634   1.978   9.368  0.2098  1.4230 -1.4639
  904MOL0     H22014  -2.575   2.116   9.568 -1.9892 -0.4034 -0.0386
  904MOL0     H22015  -2.431   2.008   9.583  0.2064 -1.1214 -0.9764
  904MOL0     H22016  -2.726   1.963   9.634  0.6010 -1.8947 -0.6312
  904MOL0     H22017  -2.610   1.827   9.651  3.3261 -0.7842 -0.4265
  904MOL0     H22018  -2.625   2.087   9.807  2.0627  0.0997 -0.6173
  904MOL0     H22019  -2.494   1.982   9.808  0.9474  2.1648 -5.1589
  904MOL0     H22020  -2.620   1.809   9.922  1.3326  2.0692  3.2132
  904MOL0     H22021  -2.772   1.874   9.861  0.2676 -1.9983 -0.4828
  904MOL0     H22022  -2.058   1.722   9.125  1.6277 -0.8280  2.6618
  904MOL0     H22023  -1.908   1.554   9.040  0.1410  1.0993  3.5163
  904MOL0     H22024  -1.852   1.171   8.837 -0.2775 -2.3166 -2.6619
  904MOL0     H22025  -1.708   1.033   8.732 -1.7113  2.1151  0.0538
  904MOL0     H22026  -0.059   1.671   8.407 -0.6305 -1.9010  0.2437
  904MOL0     H22027   0.165   1.736   8.337 -0.6136 -0.3234  0.9646
  904MOL0     H22028   0.444   1.860   7.990  0.4077  1.3596 -0.3083
  904MOL0     H22029   0.661   1.905   7.893 -1.8898  0.3066 -1.0183
  904MOL0     H22030   1.017   1.664   7.957  2.4150 -0.6998 -1.8938
  904MOL0     H22031   0.906   1.578   7.840 -1.0789  0.7719 -1.9221
  904MOL0     H22032   0.986   1.714   7.653  2.4534 -3.2167 -2.2240
  904MOL0     H22033   1.109   1.625   7.719  1.7061  1.6523  1.0717
  904MOL0     H22034   1.054   1.910   7.826 -0.0668  0.5084 -2.0475
  904MOL0     H22035   1.118   1.884   7.660  1.0755 -0.8877 -0.2171
  904MOL0     H22036   1.246   1.747   7.905  2.1695  0.3613 -0.9115
  904MOL0     H22037   1.297   1.919   7.876  0.5043 -0.3171  1.9991
  904MOL0     H22038   1.505   1.648   7.623  0.0859 -0.5380  0.8251
  904MOL0     H22039   0.818   1.557   8.074 -1.0319 -2.0105 -1.3797
  904MOL0     H22040   0.607   1.523   8.197  1.2813  0.1011  0.2699
  905MOL0     O22041   1.980   7.187   1.523 -0.1504 -0.5314 -0.3473
  905MOL0     C22042   2.007   7.287   1.585 -0.4105 -0.7111 -0.1886
  905MOL0     O22043   1.920   7.380   1.633  0.3996 -0.1666  0.1444
  905MOL0     C22044   1.790   7.387   1.600  0.5270  0.4806  0.8456
  905MOL0     C22045   1.694   7.407   1.698  0.2558  0.4199  0.3034
  905MOL0     C22046   1.563   7.409   1.671  0.3182  0.4536  0.7535
  905MOL0     C22047   1.512   7.360   1.552  0.2583  0.4986  1.0509
  905MOL0     O22048   1.375   7.378   1.542 -0.5822  0.4473 -0.1523
  905MOL0     C22049   1.305   7.272   1.482  0.2919  0.0415  0.2254
  905MOL0     C22050   1.150   7.264   1.507 -0.1378 -0.7445  0.4984
  905MOL0     C22051   1.111   7.292   1.655 -0.1613 -0.3229 -0.0551
  905MOL0     C22052   1.134   7.176   1.753  0.4952 -0.0462 -0.2449
  905MOL0     C22053   1.174   7.207   1.906  0.1896  0.1448  0.2590
  905MOL0     C22054   1.049   7.271   1.979  0.1048  0.1471 -0.0171
  905MOL0     C22055   1.059   7.424   1.987 -0.4652  0.4423  0.7498
  905MOL0     C22056   0.938   7.474   2.060 -0.0311  0.8249  0.9294
  905MOL0     N22057   0.808   7.448   1.990  0.9486 -0.9220  0.7477
  905MOL0     C22058   0.689   7.449   2.056 -0.2590  0.7642 -0.3566
  905MOL0     C22059   0.600   7.498   1.960 -1.4725 -0.6282 -0.5019
  905MOL0     C22060   0.457   7.511   1.983 -0.0288 -0.4680 -0.1819
  905MOL0     C22061   0.390   7.392   1.907  0.3579 -0.4222  0.9967
  905MOL0     C22062   0.358   7.435   1.758 -0.1811 -0.2376 -0.6624
  905MOL0     C22063   0.255   7.550   1.744 -0.3624  0.1075 -0.4749
  905MOL0     O22064   0.237   7.595   1.610  0.7667 -0.4060  0.6936
  905MOL0     C22065   0.147   7.521   1.530  1.0323 -1.0825 -0.1799
  905MOL0     C22066   0.086   7.397   1.554  0.5333  0.2085 -0.1627
  905MOL0     C22067  -0.016   7.341   1.475 -0.8370  0.0519  0.9401
  905MOL0     C22068  -0.068   7.204   1.512  0.0365  0.5478  0.3665
  905MOL0     C22069  -0.032   7.395   1.351  0.4745 -0.1475 -0.8040
  905MOL0     C22070  -0.119   7.335   1.248 -0.0152  1.1309  0.6796
  905MOL0     O22071  -0.050   7.285   1.142 -0.1833 -0.0494 -0.3486
  905MOL0     C22072  -0.118   7.195   1.066 -1.1557 -0.9505  0.1430
  905MOL0     C22073  -0.120   7.063   1.107 -0.5129  0.6477  0.6410
  905MOL0     C22074  -0.181   6.970   1.016  0.0836  0.9975  0.3724
  905MOL0     C22075  -0.236   7.014   0.888 -0.8782 -0.7155  0.2095
  905MOL0     O22076  -0.295   6.934   0.795  0.2923 -0.5873  0.3854
  905MOL0     C22077  -0.296   6.792   0.821  0.5037 -0.4142  0.7670
  905MOL0     C22078  -0.341   6.719   0.693 -0.0342 -0.5816 -0.7354
  905MOL0     C22079  -0.281   6.770   0.561  0.2030  0.0173  0.3389
  905MOL0     C22080  -0.237   6.653   0.472  0.0167  1.1043 -0.1934
  905MOL0     C22081  -0.343   6.543   0.468  0.1204  0.0173  1.1216
  905MOL0     C22082  -0.329   6.455   0.344 -0.5168  0.2233  0.6720
  905MOL0     C22083  -0.200   6.368   0.324  0.2888 -0.4012 -0.0065
  905MOL0     C22084  -0.236   6.226   0.266 -0.2619 -0.6828  0.2963
  905MOL0    Cl22085  -0.268   6.256   0.094 -0.0221 -0.0954 -0.6132
  905MOL0     C22086  -0.216   7.150   0.855 -0.4971 -0.3006 -0.5372
  905MOL0     C22087  -0.173   7.241   0.950  0.5305 -0.7181  0.3961
  905MOL0     O22088  -0.239   7.342   1.254 -0.0189  0.0244  0.1130
  905MOL0     C22089   0.035   7.510   1.317  0.3606 -0.4497  0.5619
  905MOL0     C22090   0.121   7.576   1.401 -0.7335 -0.1204 -0.1402
  905MOL0     N22091   0.667   7.526   1.841  0.6339 -0.2785 -0.2968
  905MOL0     N22092   0.793   7.502   1.868 -0.1104  0.6871 -0.2974
  905MOL0     C22093   1.605   7.322   1.446  0.0226 -0.5306  0.1655
  905MOL0     C22094   1.746   7.346   1.465  0.7862  0.9272 -0.7678
  905MOL0     C22095   2.154   7.313   1.604 -0.4499 -1.1582  0.0324
  905MOL0     C22096   2.250   7.220   1.568 -0.0422 -0.4521  0.7924
  905MOL0     C22097   2.381   7.246   1.596 -0.3795 -0.0582 -0.4460
  905MOL0     C22098   2.428   7.358   1.660  0.0023  0.3252 -0.2319
  905MOL0     O22099   2.559   7.357   1.698  1.0731  0.4774  0.2259
  905MOL0     C22100   2.616   7.489   1.733  0.2819 -0.5968  0.9689
  905MOL0     C22101   2.761   7.491   1.717 -0.4698 -0.1529  0.2181
  905MOL0     C22102   2.827   7.634   1.748  0.3457 -0.5826 -0.2426
  905MOL0     C22103   2.971   7.627   1.689 -0.1891 -0.1267 -0.3847
  905MOL0     C22104   3.062   7.730   1.742  0.5894 -0.1912  0.1095
  905MOL0     C22105   3.123   7.822   1.782 -0.3176  0.0404 -0.0417
  905MOL0     C22106   2.338   7.457   1.690  0.5652  0.5561 -0.1970
  905MOL0     C22107   2.197   7.434   1.667  0.9067  0.2344 -0.1813
  905MOL0     H22108   1.736   7.409   1.798  1.3107 -3.2533  0.0681
  905MOL0     H22109   1.501   7.447   1.753  1.7946 -0.4147  2.3434
  905MOL0     H22110   1.320   7.264   1.374  0.1133  2.2598 -0.0271
  905MOL0     H22111   1.339   7.178   1.525 -3.2224 -2.1020 -1.2669
  905MOL0     H22112   1.105   7.332   1.435  0.9647 -0.6912 -0.1674
  905MOL0     H22113   1.114   7.165   1.479  0.3045 -0.7232 -0.1796
  905MOL0     H22114   1.173   7.377   1.684  0.4207  0.4428 -3.2205
  905MOL0     H22115   1.008   7.331   1.658  0.9301  2.7771  0.9605
  905MOL0     H22116   1.042   7.117   1.743 -0.7358  1.2326  2.5162
  905MOL0     H22117   1.221   7.119   1.721  0.3920 -0.4410  0.1648
  905MOL0     H22118   1.184   7.106   1.946 -1.4547 -1.5495 -3.1208
  905MOL0     H22119   1.270   7.258   1.908  1.6146 -2.1193 -2.4402
  905MOL0     H22120   0.955   7.239   1.932  0.3162  0.0744 -0.4000
  905MOL0     H22121   1.047   7.239   2.084  1.6035 -1.4563 -0.4212
  905MOL0     H22122   1.154   7.441   2.039 -0.0062 -0.2434  0.1600
  905MOL0     H22123   1.068   7.483   1.896 -0.0938  1.7995  1.6432
  905MOL0     H22124   0.956   7.580   2.078  1.9788  0.4995  1.0316
  905MOL0     H22125   0.936   7.426   2.158 -0.1327 -1.0275  0.0684
  905MOL0     H22126   0.672   7.411   2.156  1.3000  0.5135 -0.1701
  905MOL0     H22127   0.451   7.501   2.091  2.1602 -0.7851 -0.0320
  905MOL0     H22128   0.405   7.607   1.975 -0.2041 -0.2594  2.6565
  905MOL0     H22129   0.298   7.355   1.952  0.7749 -0.0075  2.2480
  905MOL0     H22130   0.458   7.307   1.903  1.3980  0.4212 -0.4196
  905MOL0     H22131   0.325   7.344   1.707 -3.5210  1.1120 -1.1053
  905MOL0     H22132   0.448   7.468   1.706  0.2292 -2.0000 -1.1455
  905MOL0     H22133   0.285   7.644   1.789 -1.5718 -0.3346  1.3581
  905MOL0     H22134   0.161   7.522   1.794 -0.8188 -0.4449 -1.5984
  905MOL0     H22135   0.109   7.339   1.642  2.7200  1.1125 -0.0760
  905MOL0     H22136  -0.115   7.192   1.610  0.0515 -2.6487  0.0887
  905MOL0     H22137  -0.140   7.168   1.438  0.8718  0.4680 -0.4124
  905MOL0     H22138   0.017   7.135   1.512 -0.1171  0.3396  1.4893
  905MOL0     H22139  -0.090   7.035   1.208 -1.7311  2.7100  1.6542
  905MOL0     H22140  -0.180   6.867   1.049 -1.7673  1.3058  1.5323
  905MOL0     H22141  -0.191   6.764   0.835  1.4150  2.4123  0.3411
  905MOL0     H22142  -0.362   6.763   0.904 -1.8774  1.7841 -0.2007
  905MOL0     H22143  -0.319   6.614   0.713  1.6499 -0.1333  0.0028
  905MOL0     H22144  -0.449   6.713   0.681  0.1507 -2.6756 -1.7507
  905MOL0     H22145  -0.194   6.831   0.589 -1.5559  2.1501  1.4119
  905MOL0     H22146  -0.350   6.815   0.490 -0.5393 -3.3862 -1.3102
  905MOL0     H22147  -0.232   6.702   0.375 -1.2657 -3.4424 -2.8496
  905MOL0     H22148  -0.134   6.623   0.492  0.0859  1.0673 -0.6055
  905MOL0     H22149  -0.446   6.580   0.459  0.3424  0.2061 -1.7993
  905MOL0     H22150  -0.332   6.477   0.555 -4.7928 -0.9973  1.2645
  905MOL0     H22151  -0.412   6.384   0.353 -2.2572  1.9972 -0.4834
  905MOL0     H22152  -0.341   6.511   0.250  0.5277 -1.2033 -0.3566
  905MOL0     H22153  -0.157   6.357   0.424  1.0634 -0.2721 -0.3244
  905MOL0     H22154  -0.129   6.426   0.266  1.5861  0.1740  2.0774
  905MOL0     H22155  -0.300   6.160   0.324  1.5623 -3.8534 -0.9972
  905MOL0     H22156  -0.144   6.167   0.260  0.3252  0.2947 -0.7936
  905MOL0     H22157  -0.245   7.191   0.759  2.9139  2.4887 -0.5749
  905MOL0     H22158  -0.183   7.345   0.922  1.5184 -0.9922 -1.0790
  905MOL0     H22159   0.018   7.553   1.219 -2.3628 -0.0167  1.1377
  905MOL0     H22160   0.161   7.674   1.381 -3.9341  1.0494 -1.5295
  905MOL0     H22161   1.555   7.300   1.353 -0.3862  0.7517  0.0648
  905MOL0     H22162   1.824   7.326   1.392  1.0050  0.0610 -0.3087
  905MOL0     H22163   2.225   7.133   1.508 -0.2846 -0.2823  0.6448
  905MOL0     H22164   2.463   7.178   1.574  1.0176  1.4844 -0.2206
  905MOL0     H22165   2.577   7.559   1.658 -0.7669  0.4374  2.4374
  905MOL0     H22166   2.586   7.542   1.823 -0.4263 -1.8126  1.4782
  905MOL0     H22167   2.784   7.461   1.614 -0.1595 -1.0741  0.5468
  905MOL0     H22168   2.803   7.413   1.780 -0.3451 -0.4701 -0.2518
  905MOL0     H22169   2.825   7.653   1.856 -1.5221 -0.1616 -0.3264
  905MOL0     H22170   2.787   7.721   1.696 -0.9623 -2.2420 -2.1811
  905MOL0     H22171   2.949   7.648   1.584 -1.1216 -2.8152 -0.8153
  905MOL0     H22172   3.007   7.524   1.692 -0.7828 -0.3524 -0.7503
  905MOL0     H22173   3.193   7.902   1.796  0.9149 -1.1873  1.1268
  905MOL0     H22174   2.353   7.551   1.742  2.2316  0.7864 -1.0262
  905MOL0     H22175   2.123   7.503   1.705 -1.0103 -1.1137 -1.2735
  906MOL0     O22176  10.776   9.088   0.198  0.1771 -0.5180 -0.3783
  906MOL0     C22177  10.687   9.162   0.240 -0.4378  0.1341 -0.5240
  906MOL0     O22178  10.706   9.271   0.320  0.1420 -0.3803 -0.1807
  906MOL0     C22179  10.822   9.338   0.328 -0.3216  0.3583  0.4885
  906MOL0     C22180  10.878   9.379   0.444  0.0069  0.3866 -0.6252
  906MOL0     C22181  10.978   9.464   0.449  0.0586  0.4002 -0.2129
  906MOL0     C22182  11.041   9.505   0.330  0.2338 -0.2482 -0.1047
  906MOL0     O22183  11.145   9.596   0.333  0.1676  0.1333 -0.5592
  906MOL0     C22184  11.231   9.612   0.446  0.8016  1.1518 -0.1608
  906MOL0     C22185  11.331   9.719   0.424 -0.9694  0.4018  0.1802
  906MOL0     C22186  11.416   9.751   0.550  0.5529  0.5008  0.1856
  906MOL0     C22187  11.513   9.636   0.577  0.2422  1.3480 -0.2015
  906MOL0     C22188  11.598   9.653   0.701 -0.0805  0.5499  0.4345
  906MOL0     C22189  11.725   9.568   0.714 -0.1367 -0.0057 -0.3236
  906MOL0     C22190  11.767   9.549   0.858  0.0442  0.2322 -0.5709
  906MOL0     C22191  11.881   9.645   0.906  0.3342 -0.8325 -0.5762
  906MOL0     N22192  11.960   9.600   1.023  0.1852 -0.0120 -0.0827
  906MOL0     C22193  12.090   9.569   1.011 -1.1494  0.4513  0.9518
  906MOL0     C22194  12.129   9.514   1.129 -0.8841  1.3461  0.0278
  906MOL0     C22195  12.271   9.468   1.163  0.2316 -0.4653  0.2109
  906MOL0     C22196  12.334   9.372   1.057  0.1193 -0.2861 -0.3156
  906MOL0     C22197  12.274   9.225   1.091 -0.5634 -0.8156 -0.2709
  906MOL0     C22198  12.335   9.116   1.010 -0.8644  0.1139  0.4444
  906MOL0     O22199  12.284   8.980   1.041 -0.0543  0.5636 -0.2329
  906MOL0     C22200  12.149   8.946   1.018 -0.0014 -0.4554  0.3253
  906MOL0     C22201  12.108   8.834   1.090 -0.1418 -0.1904 -0.1249
  906MOL0     C22202  11.982   8.779   1.075 -0.1387  0.8438  0.4124
  906MOL0     C22203  11.946   8.654   1.158 -0.4582  1.1341  0.0601
  906MOL0     C22204  11.890   8.836   0.975 -0.5664 -0.0401 -0.3551
  906MOL0     C22205  11.743   8.819   0.969 -0.0546  0.4096 -0.0256
  906MOL0     O22206  11.667   8.882   0.866 -0.6598 -0.8450 -0.4235
  906MOL0     C22207  11.530   8.907   0.876 -0.7490 -0.2707  0.0591
  906MOL0     C22208  11.471   8.933   0.992 -0.0678  0.0337 -0.3176
  906MOL0     C22209  11.341   8.980   0.994 -0.5354  0.2324  0.3327
  906MOL0     C22210  11.265   8.985   0.884  0.9350 -0.9706  0.3103
  906MOL0     O22211  11.134   9.022   0.910  0.4729  0.5048 -0.6377
  906MOL0     C22212  11.041   8.994   0.810 -0.5072  0.7394  0.2690
  906MOL0     C22213  10.894   9.021   0.851 -0.2394 -0.0963  0.1931
  906MOL0     C22214  10.820   9.060   0.728 -1.0659 -0.4213  0.4465
  906MOL0     C22215  10.670   9.065   0.751  0.5957  0.4204 -0.6581
  906MOL0     C22216  10.570   9.083   0.628  0.5438  0.3614  0.5563
  906MOL0     C22217  10.424   9.063   0.654 -0.8457  0.3000 -0.3845
  906MOL0     C22218  10.338   9.108   0.537  0.6692  0.8381 -0.0173
  906MOL0     C22219  10.185   9.086   0.566  0.1592  0.6526 -0.3995
  906MOL0    Cl22220  10.116   9.184   0.692  0.2392  0.2413 -0.1408
  906MOL0     C22221  11.321   8.955   0.761 -0.1200  0.1867 -0.5887
  906MOL0     C22222  11.456   8.914   0.758 -0.1542 -0.3575  0.9207
  906MOL0     O22223  11.692   8.755   1.061 -0.2912 -0.9917  1.1701
  906MOL0     C22224  11.937   8.940   0.893  0.1871  0.1314  0.6120
  906MOL0     C22225  12.067   8.991   0.912 -0.5373 -0.3243 -1.0132
  906MOL0     N22226  12.020   9.506   1.212  0.3159  0.2427 -0.5417
  906MOL0     N22227  11.924   9.571   1.156  1.0864 -0.2681  0.4938
  906MOL0     C22228  10.978   9.480   0.209  1.3124  0.1814  0.2342
  906MOL0     C22229  10.872   9.389   0.209  0.7767  0.2090  0.0792
  906MOL0     C22230  10.557   9.131   0.198 -1.0552  0.7237 -0.3330
  906MOL0     C22231  10.459   9.227   0.187 -0.7542  0.8084  0.2118
  906MOL0     C22232  10.331   9.197   0.130  0.3601  0.8074  0.2119
  906MOL0     C22233  10.302   9.063   0.085 -0.4180  0.1596 -0.8495
  906MOL0     O22234  10.178   9.032   0.034  0.1485 -0.0632 -0.3347
  906MOL0     C22235  10.138   8.888   0.033 -0.2939 -0.9065  0.5858
  906MOL0     C22236   9.987   8.882   0.032  0.0503 -0.3746 -0.1468
  906MOL0     C22237   9.920   8.980   0.138 -1.2225  0.4837 -0.7084
  906MOL0     C22238   9.769   8.966   0.141 -0.0577 -0.3109 -0.3123
  906MOL0     C22239   9.720   8.971   0.279  0.4167  0.7370  0.3246
  906MOL0     C22240   9.681   8.966   0.395 -0.5450 -0.0590  0.8903
  906MOL0     C22241  10.402   8.967   0.094 -0.2054  0.5743  0.0768
  906MOL0     C22242  10.525   8.999   0.157  0.1656 -0.0494  0.5620
  906MOL0     H22243  10.832   9.350   0.538  0.6813 -0.3195 -0.5004
  906MOL0     H22244  11.012   9.508   0.542  1.1252 -0.4814 -0.1638
  906MOL0     H22245  11.169   9.626   0.535  0.2562  4.2058 -0.9120
  906MOL0     H22246  11.285   9.518   0.462  2.7201  2.7844  4.2856
  906MOL0     H22247  11.393   9.697   0.337 -2.4250  2.0607 -1.3546
  906MOL0     H22248  11.282   9.808   0.384  0.3203 -0.5849 -4.0694
  906MOL0     H22249  11.463   9.848   0.532 -1.0698  1.1483 -0.7049
  906MOL0     H22250  11.342   9.763   0.629 -3.1652 -0.8842 -2.7717
  906MOL0     H22251  11.462   9.540   0.588 -0.6241  1.5019 -2.3563
  906MOL0     H22252  11.585   9.639   0.494 -0.3745 -0.7106 -0.8682
  906MOL0     H22253  11.621   9.759   0.710 -3.1415  1.6415 -2.5248
  906MOL0     H22254  11.531   9.617   0.780  1.8638 -2.1753  0.9908
  906MOL0     H22255  11.709   9.467   0.677 -0.8357  0.8475 -2.5327
  906MOL0     H22256  11.804   9.612   0.653 -1.2368  0.2060 -1.6617
  906MOL0     H22257  11.680   9.561   0.922  1.0369  1.0510  0.6956
  906MOL0     H22258  11.812   9.454   0.887 -0.2806  0.4430  0.6719
  906MOL0     H22259  11.837   9.742   0.931  0.7143 -0.4282 -1.4474
  906MOL0     H22260  11.955   9.662   0.828  2.8935  2.2382  2.1985
  906MOL0     H22261  12.149   9.592   0.923 -0.3328  1.5483  1.7482
  906MOL0     H22262  12.328   9.562   1.169 -0.5336  0.0123  0.0933
  906MOL0     H22263  12.276   9.430   1.265  0.8821 -1.1661 -0.0636
  906MOL0     H22264  12.443   9.374   1.067  0.0374 -0.1985  0.6820
  906MOL0     H22265  12.316   9.403   0.954 -2.2147 -0.2825  0.0429
  906MOL0     H22266  12.167   9.227   1.069 -0.6750  0.7622  0.2654
  906MOL0     H22267  12.282   9.199   1.197 -0.5344 -3.9551 -0.9631
  906MOL0     H22268  12.439   9.106   1.042 -0.6087 -0.9918 -0.6650
  906MOL0     H22269  12.337   9.146   0.905 -0.0330 -1.7822 -0.1293
  906MOL0     H22270  12.182   8.785   1.154 -2.0407 -0.2605  2.1791
  906MOL0     H22271  12.033   8.588   1.172 -1.4142  0.1708  1.8026
  906MOL0     H22272  11.925   8.678   1.262  1.1287  0.9020  0.4638
  906MOL0     H22273  11.867   8.595   1.110 -1.1959 -1.7984  4.3585
  906MOL0     H22274  11.515   8.926   1.091 -2.9923 -1.6064  0.9949
  906MOL0     H22275  11.296   9.011   1.087 -0.6193  3.2106 -0.6057
  906MOL0     H22276  11.073   9.064   0.732  4.0693  1.0778  2.1501
  906MOL0     H22277  11.063   8.896   0.769  3.0726  1.3217  0.4923
  906MOL0     H22278  10.852   8.925   0.880 -2.0992  0.5421 -0.2589
  906MOL0     H22279  10.881   9.084   0.940  1.0644  0.0387  0.3080
  906MOL0     H22280  10.854   8.987   0.654  1.4136  2.2237 -1.2414
  906MOL0     H22281  10.858   9.159   0.703  2.2971 -2.0119 -1.4356
  906MOL0     H22282  10.646   8.966   0.793 -0.0248  1.2523  1.0600
  906MOL0     H22283  10.642   9.139   0.827 -1.2045 -0.8365  0.0015
  906MOL0     H22284  10.594   9.009   0.550  0.8594 -0.4205  1.3703
  906MOL0     H22285  10.589   9.180   0.582 -0.5728 -0.1078 -0.9865
  906MOL0     H22286  10.386   8.963   0.678 -0.4506  0.1913 -0.2002
  906MOL0     H22287  10.411   9.130   0.738  0.1366  0.1606 -0.1031
  906MOL0     H22288  10.367   9.057   0.445  2.3068 -1.9038  1.8473
  906MOL0     H22289  10.359   9.213   0.514  2.9075  0.1324 -1.5167
  906MOL0     H22290  10.157   8.985   0.597  0.2924 -0.0759 -2.4894
  906MOL0     H22291  10.128   9.113   0.477 -0.5703 -0.5490 -0.3172
  906MOL0     H22292  11.269   8.944   0.666  2.4795 -0.0905 -2.0820
  906MOL0     H22293  11.511   8.883   0.670 -0.7129 -0.6291  0.6661
  906MOL0     H22294  11.879   8.997   0.821 -3.3739 -1.6991  1.8004
  906MOL0     H22295  12.101   9.078   0.856 -0.2374  1.7954  2.1602
  906MOL0     H22296  11.022   9.534   0.125  1.3607  0.1962  0.2691
  906MOL0     H22297  10.829   9.356   0.114  0.7739 -1.6440  0.6835
  906MOL0     H22298  10.477   9.330   0.216  1.7872 -0.0206  1.9418
  906MOL0     H22299  10.256   9.276   0.131  0.6581  1.2032 -2.3238
  906MOL0     H22300  10.183   8.848  -0.058 -0.3933  1.5103 -0.5952
  906MOL0     H22301  10.179   8.839   0.121  0.5132 -2.1550 -0.4494
  906MOL0     H22302   9.972   8.777   0.059  3.7917 -0.5828  1.8302
  906MOL0     H22303   9.937   8.907  -0.062 -0.6044 -0.6878  0.1158
  906MOL0     H22304   9.966   9.077   0.118  1.1053 -0.3695  0.2076
  906MOL0     H22305   9.957   8.945   0.235 -0.3593 -1.0101 -1.5576
  906MOL0     H22306   9.732   8.871   0.100 -0.5726 -1.2631  2.1980
  906MOL0     H22307   9.726   9.048   0.083  0.4026 -1.1100 -1.8567
  906MOL0     H22308   9.661   8.951   0.499 -1.4017  0.9120  0.8785
  906MOL0     H22309  10.386   8.864   0.064 -0.1367  0.3282  0.8453
  906MOL0     H22310  10.609   8.931   0.167  3.3715  2.8676 -3.2158
  907MOL0     O22311   7.009   2.354   1.331 -0.7007  0.0692 -0.1923
  907MOL0     C22312   7.126   2.333   1.364 -0.1304  0.0947 -0.9092
  907MOL0     O22313   7.171   2.326   1.499  0.3971 -0.5938 -0.2273
  907MOL0     C22314   7.078   2.323   1.600  0.2520 -0.0032  0.5036
  907MOL0     C22315   7.040   2.197   1.643  1.2401 -0.4767  1.2580
  907MOL0     C22316   6.953   2.181   1.750 -0.2970 -0.4140 -0.8437
  907MOL0     C22317   6.929   2.292   1.838 -0.3814  0.2894 -0.0056
  907MOL0     O22318   6.841   2.300   1.945  0.2285  0.2139  0.3378
  907MOL0     C22319   6.762   2.182   1.973 -1.0043 -0.6064  0.2134
  907MOL0     C22320   6.724   2.176   2.124  0.3035 -0.2223  0.0730
  907MOL0     C22321   6.658   2.045   2.171  0.7295 -0.5656  0.0868
  907MOL0     C22322   6.542   2.000   2.081  0.2831 -0.2576 -1.3482
  907MOL0     C22323   6.491   1.872   2.146  0.3669  0.0466 -0.9636
  907MOL0     C22324   6.359   1.832   2.087 -0.5051 -0.1405 -1.4930
  907MOL0     C22325   6.305   1.709   2.167  0.2397 -0.5368 -0.8059
  907MOL0     C22326   6.200   1.632   2.088 -0.2629 -0.2589  0.0189
  907MOL0     N22327   6.260   1.541   1.989 -0.3934  0.4932 -0.5385
  907MOL0     C22328   6.300   1.407   2.008  0.5851 -0.0028 -0.6769
  907MOL0     C22329   6.352   1.368   1.897 -0.5491  0.7022  0.6554
  907MOL0     C22330   6.394   1.221   1.868  0.4762  0.2008 -0.2422
  907MOL0     C22331   6.478   1.148   1.968  0.4667 -0.3832  0.0858
  907MOL0     C22332   6.613   1.220   1.976  0.4878  0.6203 -0.2662
  907MOL0     C22333   6.706   1.146   2.065 -0.1184  0.9182 -0.5312
  907MOL0     O22334   6.806   1.235   2.113 -0.1830  0.5647 -0.5504
  907MOL0     C22335   6.919   1.165   2.162  0.0212 -0.7058  0.6787
  907MOL0     C22336   7.014   1.240   2.241  0.1838  0.7537  0.1270
  907MOL0     C22337   7.126   1.201   2.302  0.4809  0.2023  0.1822
  907MOL0     C22338   7.196   1.306   2.381 -0.6711  0.6038  0.2309
  907MOL0     C22339   7.162   1.064   2.285  0.6299 -0.0328  0.0226
  907MOL0     C22340   7.274   0.994   2.353 -0.6042 -0.3222  0.4463
  907MOL0     O22341   7.293   0.859   2.311  0.0025  0.7454 -0.4825
  907MOL0     C22342   7.416   0.800   2.314  0.1693  0.7937  0.1301
  907MOL0     C22343   7.472   0.745   2.202 -0.8258 -0.1138 -0.8079
  907MOL0     C22344   7.582   0.664   2.202  0.0585  0.0272 -0.2581
  907MOL0     C22345   7.660   0.655   2.323  0.1836  0.0108 -0.6497
  907MOL0     O22346   7.786   0.597   2.305  0.4089  0.6437 -0.3929
  907MOL0     C22347   7.876   0.596   2.420 -0.1662  0.5638  0.1262
  907MOL0     C22348   7.827   0.482   2.517  0.2288  0.6477  0.2993
  907MOL0     C22349   7.945   0.432   2.605  0.2948  0.8328  0.2804
  907MOL0     C22350   7.910   0.328   2.709  0.4660  0.1120  0.4744
  907MOL0     C22351   8.026   0.242   2.769 -0.3969 -0.4426  0.4977
  907MOL0     C22352   7.954   0.118   2.807  0.4013 -0.6609 -0.0631
  907MOL0     C22353   8.068   0.027   2.864  0.5875 -0.1838  0.8846
  907MOL0     C22354   8.033  -0.118   2.843 -0.0056  0.0884 -1.0160
  907MOL0    Cl22355   8.149  -0.218   2.932 -0.0706  0.3793 -0.1559
  907MOL0     C22356   7.603   0.701   2.447  0.0622 -0.1404 -0.3731
  907MOL0     C22357   7.484   0.781   2.439 -0.9052 -0.2489 -0.5869
  907MOL0     O22358   7.351   1.062   2.414  0.4241 -0.8702  0.5947
  907MOL0     C22359   7.069   0.979   2.217  0.0803  0.0292  0.4348
  907MOL0     C22360   6.957   1.027   2.146  0.5177 -0.3107  0.8092
  907MOL0     N22361   6.333   1.474   1.803 -0.0987  0.5260  0.4356
  907MOL0     N22362   6.279   1.582   1.856  0.2066  0.6330  0.0514
  907MOL0     C22363   6.984   2.414   1.810 -0.5507 -0.4368  0.3156
  907MOL0     C22364   7.050   2.440   1.687  1.1105  0.5008 -0.4413
  907MOL0     C22365   7.232   2.308   1.266  0.5201  0.2717 -0.2220
  907MOL0     C22366   7.364   2.278   1.300 -0.0350 -1.3591 -0.4326
  907MOL0     C22367   7.464   2.262   1.202 -0.7686 -0.2674 -0.4567
  907MOL0     C22368   7.433   2.285   1.069  0.7995  1.2467  0.1934
  907MOL0     O22369   7.530   2.316   0.982 -0.2972 -0.4448  0.1214
  907MOL0     C22370   7.551   2.223   0.872  0.3427 -0.2999  0.5533
  907MOL0     C22371   7.687   2.146   0.870 -0.0849 -0.5530 -0.2768
  907MOL0     C22372   7.797   2.251   0.874 -0.7403 -0.0472 -0.4596
  907MOL0     C22373   7.769   2.370   0.775  0.1459 -0.1742 -0.2592
  907MOL0     C22374   7.895   2.416   0.727 -0.5478 -0.5511  0.4374
  907MOL0     C22375   8.011   2.457   0.701  0.9566  0.4653 -0.2220
  907MOL0     C22376   7.306   2.318   1.033 -0.7129  0.0181 -0.4735
  907MOL0     C22377   7.206   2.335   1.131  0.2474  0.1055 -0.5597
  907MOL0     H22378   7.077   2.110   1.589 -2.8185 -0.4001 -2.2028
  907MOL0     H22379   6.916   2.083   1.777  0.0617 -0.4861 -0.6045
  907MOL0     H22380   6.666   2.190   1.922 -1.7730  1.9241  1.9003
  907MOL0     H22381   6.831   2.097   1.963  4.5538  3.2778  0.9861
  907MOL0     H22382   6.808   2.204   2.189 -0.9033  2.2247  0.7087
  907MOL0     H22383   6.647   2.251   2.147 -1.4318 -2.2014  1.0482
  907MOL0     H22384   6.733   1.966   2.182  0.7027 -0.6036  0.0003
  907MOL0     H22385   6.612   2.067   2.268 -0.1864  1.5965 -0.7753
  907MOL0     H22386   6.477   2.088   2.071  2.8302  1.6263 -2.2434
  907MOL0     H22387   6.584   1.969   1.985  0.4281  0.5336 -1.5482
  907MOL0     H22388   6.561   1.790   2.126  0.9228 -0.6939  3.1494
  907MOL0     H22389   6.476   1.891   2.253  0.6430  4.5610 -1.5036
  907MOL0     H22390   6.285   1.912   2.089 -1.5808 -1.1310  0.1299
  907MOL0     H22391   6.373   1.814   1.980  0.0222  3.9871 -2.2959
  907MOL0     H22392   6.387   1.645   2.199  1.6355  0.2389 -2.6678
  907MOL0     H22393   6.255   1.748   2.257 -0.7982  2.8583 -2.6412
  907MOL0     H22394   6.141   1.710   2.039  3.5686  1.6354 -2.0756
  907MOL0     H22395   6.124   1.583   2.150 -3.2030  4.7242  0.9168
  907MOL0     H22396   6.300   1.348   2.099  2.4713 -3.3536 -2.6377
  907MOL0     H22397   6.301   1.163   1.866 -0.9840  2.4039 -0.9007
  907MOL0     H22398   6.439   1.211   1.769 -0.3585  1.9099 -0.8394
  907MOL0     H22399   6.479   1.039   1.959 -3.3958 -0.8480  2.7318
  907MOL0     H22400   6.437   1.149   2.069  1.9304 -1.8637  0.7323
  907MOL0     H22401   6.598   1.319   2.019 -1.0808 -0.6234  2.3257
  907MOL0     H22402   6.652   1.222   1.874 -0.8135  0.2441 -0.7927
  907MOL0     H22403   6.746   1.060   2.011  2.7169  0.0417  2.6094
  907MOL0     H22404   6.658   1.120   2.160 -1.4736 -1.0262 -1.6676
  907MOL0     H22405   6.976   1.340   2.260 -0.0236  0.4846  1.1661
  907MOL0     H22406   7.299   1.316   2.345 -0.4146 -1.5631  0.2355
  907MOL0     H22407   7.138   1.399   2.376 -0.7841  0.4879 -2.0807
  907MOL0     H22408   7.203   1.285   2.488  3.0163  0.9270  0.1738
  907MOL0     H22409   7.419   0.741   2.108 -0.9754 -4.3318 -0.7372
  907MOL0     H22410   7.624   0.637   2.106  1.2272  2.9359 -0.6904
  907MOL0     H22411   7.978   0.564   2.400 -0.6334 -0.6562 -0.3645
  907MOL0     H22412   7.886   0.687   2.481 -2.4672  0.7955  0.2663
  907MOL0     H22413   7.747   0.527   2.577 -2.1557  3.4704 -4.3343
  907MOL0     H22414   7.793   0.403   2.449  0.5373  2.9452 -2.7762
  907MOL0     H22415   7.975   0.523   2.659  0.0917  1.7357 -1.0883
  907MOL0     H22416   8.026   0.396   2.540 -0.1379 -1.1123  0.7546
  907MOL0     H22417   7.857   0.376   2.791  0.3731 -1.3957  1.3488
  907MOL0     H22418   7.842   0.256   2.661 -0.2944  0.4094  1.1022
  907MOL0     H22419   8.064   0.282   2.864  1.2797  0.4025 -0.4956
  907MOL0     H22420   8.109   0.218   2.702  0.7443 -2.4545  2.4694
  907MOL0     H22421   7.877   0.149   2.879 -0.5480  2.3069 -2.1494
  907MOL0     H22422   7.907   0.076   2.718 -1.7344 -0.7184  1.0317
  907MOL0     H22423   8.095   0.038   2.970  2.3144  2.9499  0.2260
  907MOL0     H22424   8.167   0.041   2.820  0.6065 -0.2168  0.9160
  907MOL0     H22425   8.026  -0.150   2.739 -0.0075 -1.0259 -0.6868
  907MOL0     H22426   7.940  -0.140   2.896  0.0230 -1.1943 -1.4566
  907MOL0     H22427   7.663   0.708   2.537  0.8105  1.7225 -0.9728
  907MOL0     H22428   7.434   0.826   2.524 -0.3784 -0.7444 -0.0071
  907MOL0     H22429   7.082   0.871   2.215 -0.7950 -0.0717 -0.8587
  907MOL0     H22430   6.895   0.958   2.090 -2.5669  2.0253  1.0831
  907MOL0     H22431   6.962   2.493   1.881  3.2882 -0.4865  1.7942
  907MOL0     H22432   7.085   2.536   1.650  3.6277 -1.2988 -3.1769
  907MOL0     H22433   7.383   2.265   1.406 -0.2635  0.0300 -0.1940
  907MOL0     H22434   7.564   2.243   1.240 -1.9642 -2.6115  1.8652
  907MOL0     H22435   7.475   2.146   0.879  1.2406 -1.2414  0.2426
  907MOL0     H22436   7.533   2.270   0.775 -0.1357 -1.9461 -0.1812
  907MOL0     H22437   7.684   2.102   0.771 -2.5178 -0.4023 -0.3126
  907MOL0     H22438   7.696   2.068   0.947 -1.9532 -0.7739 -0.2554
  907MOL0     H22439   7.894   2.203   0.855 -1.7013 -0.9667 -3.4809
  907MOL0     H22440   7.800   2.293   0.975  2.0270 -2.0682  0.4200
  907MOL0     H22441   7.717   2.454   0.823 -1.4268 -0.0415 -2.0636
  907MOL0     H22442   7.707   2.339   0.690 -0.8581 -0.9284  0.7130
  907MOL0     H22443   8.113   2.482   0.680  2.0532 -2.0908  1.5507
  907MOL0     H22444   7.286   2.340   0.928 -1.5648 -3.3120 -1.1165
  907MOL0     H22445   7.107   2.370   1.106  0.1669  0.7030  0.5500
  908MOL0     O22446   7.398   2.536   0.648 -0.3930  0.5255 -0.0078
  908MOL0     C22447   7.385   2.646   0.609 -0.6324 -1.0073 -0.3552
  908MOL0     O22448   7.260   2.713   0.596 -0.1111 -0.2238  0.5864
  908MOL0     C22449   7.140   2.665   0.640 -0.9352 -0.0193  0.0337
  908MOL0     C22450   7.026   2.716   0.576  0.0873  0.7367 -0.5058
  908MOL0     C22451   6.900   2.682   0.622 -0.0292  0.6506  0.9487
  908MOL0     C22452   6.881   2.596   0.731  0.0055 -0.2878  0.2653
  908MOL0     O22453   6.757   2.576   0.779 -0.1310  0.3584  0.0983
  908MOL0     C22454   6.734   2.601   0.920 -0.6872 -0.2111 -0.1408
  908MOL0     C22455   6.604   2.521   0.956  0.2079  0.5979  0.7972
  908MOL0     C22456   6.534   2.554   1.091  0.8976  0.1386  0.1869
  908MOL0     C22457   6.447   2.675   1.095  0.8012  0.0248  0.1135
  908MOL0     C22458   6.400   2.715   1.232  0.5046  0.1359 -0.3678
  908MOL0     C22459   6.278   2.630   1.273 -0.0829 -0.8769  0.3187
  908MOL0     C22460   6.235   2.651   1.418  0.5589 -0.2164  0.0108
  908MOL0     C22461   6.144   2.540   1.471  0.5867 -0.4881  0.1831
  908MOL0     N22462   6.011   2.557   1.408 -0.4179  0.2740  0.3356
  908MOL0     C22463   5.909   2.631   1.450  0.2356 -0.4077  0.3652
  908MOL0     C22464   5.804   2.601   1.368 -0.0569 -0.7277 -0.6397
  908MOL0     C22465   5.666   2.653   1.391  1.0179  0.3954  0.7742
  908MOL0     C22466   5.598   2.699   1.262  0.2084  0.1539 -0.2770
  908MOL0     C22467   5.445   2.678   1.267 -0.2717 -0.0217  0.4475
  908MOL0     C22468   5.398   2.745   1.400 -0.1777 -1.6749  0.0417
  908MOL0     O22469   5.254   2.758   1.413 -0.1061  0.9830  0.7976
  908MOL0     C22470   5.203   2.796   1.532  0.1687 -0.0773  0.1024
  908MOL0     C22471   5.269   2.839   1.644 -0.7359 -0.0578 -0.7558
  908MOL0     C22472   5.201   2.909   1.749  0.4843 -0.3980  0.0311
  908MOL0     C22473   5.286   2.991   1.849 -1.1639 -0.2374 -0.4077
  908MOL0     C22474   5.062   2.904   1.745 -0.4313 -0.4679  0.0702
  908MOL0     C22475   4.974   2.982   1.839  0.4118 -0.5812  0.8519
  908MOL0     O22476   4.857   2.920   1.871 -0.0306 -0.7392 -0.7864
  908MOL0     C22477   4.741   2.986   1.879 -0.0725 -0.7440 -0.4391
  908MOL0     C22478   4.640   2.950   1.966 -0.4049  0.2986 -0.2810
  908MOL0     C22479   4.520   3.020   1.953  0.9281  0.9354 -0.6731
  908MOL0     C22480   4.498   3.128   1.874 -0.7844 -0.4465  0.3124
  908MOL0     O22481   4.372   3.167   1.863  0.6599 -0.0582 -0.3051
  908MOL0     C22482   4.326   3.256   1.759 -0.1160  1.2287  0.9904
  908MOL0     C22483   4.299   3.178   1.620  1.1873  0.4300 -0.3507
  908MOL0     C22484   4.215   3.054   1.641  0.6728 -0.9551  0.1625
  908MOL0     C22485   4.084   3.094   1.715  0.0030  0.5050 -0.7909
  908MOL0     C22486   3.983   2.981   1.695  0.6670 -0.2303  0.0040
  908MOL0     C22487   3.831   3.019   1.717 -0.2767  0.0753  0.0246
  908MOL0     C22488   3.748   2.897   1.660  0.5359  0.0471  0.0664
  908MOL0     C22489   3.600   2.896   1.697 -0.8833  0.3798 -0.1151
  908MOL0    Cl22490   3.579   2.919   1.870  0.1170 -0.1686 -0.3502
  908MOL0     C22491   4.597   3.162   1.784  0.2041 -0.3586 -0.7900
  908MOL0     C22492   4.713   3.086   1.790 -0.0816 -0.7398  0.0554
  908MOL0     O22493   5.008   3.094   1.870  0.4716 -0.5081 -0.2090
  908MOL0     C22494   4.997   2.848   1.639 -0.6034 -0.4673 -0.1863
  908MOL0     C22495   5.061   2.799   1.535 -0.1878  0.5486  0.2407
  908MOL0     N22496   5.851   2.530   1.259 -0.2689  0.6135  0.2061
  908MOL0     N22497   5.978   2.514   1.281 -0.6931  0.1333 -0.6295
  908MOL0     C22498   6.992   2.552   0.799 -0.7702  0.1101  0.2486
  908MOL0     C22499   7.121   2.587   0.754 -0.5534  0.4210  0.3276
  908MOL0     C22500   7.505   2.712   0.558 -0.1698 -0.0959  0.3514
  908MOL0     C22501   7.640   2.668   0.577  0.2285  0.6612  0.1989
  908MOL0     C22502   7.750   2.744   0.529  0.3304 -0.3825  0.4091
  908MOL0     C22503   7.730   2.859   0.466  0.5472  0.1576  0.4283
  908MOL0     O22504   7.844   2.928   0.416  0.0170 -0.2278  0.3806
  908MOL0     C22505   7.842   3.069   0.407  0.1444  0.3034 -0.1337
  908MOL0     C22506   7.986   3.111   0.382 -0.3705  0.4253  0.6469
  908MOL0     C22507   8.009   3.266   0.388 -0.2409 -0.4434  0.2865
  908MOL0     C22508   8.070   3.317   0.510 -0.8236  0.6703 -0.1277
  908MOL0     C22509   8.215   3.301   0.524 -0.4956  0.2762 -0.7813
  908MOL0     C22510   8.329   3.268   0.527 -0.7569 -0.2242 -0.2267
  908MOL0     C22511   7.606   2.902   0.441 -0.5609 -0.3374 -0.9013
  908MOL0     C22512   7.492   2.837   0.490 -0.7719  0.7120 -0.2181
  908MOL0     H22513   7.040   2.791   0.499 -0.2217  0.6722 -0.6267
  908MOL0     H22514   6.812   2.717   0.570 -0.4920 -2.5120 -0.6796
  908MOL0     H22515   6.814   2.561   0.982 -0.5891  1.1702  0.6571
  908MOL0     H22516   6.719   2.708   0.936 -1.8220 -0.2644 -0.7393
  908MOL0     H22517   6.532   2.524   0.873  1.0857  1.7948  0.0568
  908MOL0     H22518   6.629   2.414   0.962 -0.4410  0.2162 -1.9398
  908MOL0     H22519   6.484   2.461   1.119  0.7239 -0.1359 -0.9879
  908MOL0     H22520   6.615   2.561   1.164 -0.2363 -2.3080  1.8101
  908MOL0     H22521   6.509   2.748   1.042 -0.7183 -0.6117 -2.7247
  908MOL0     H22522   6.367   2.658   1.022 -0.8955  2.1181  1.4011
  908MOL0     H22523   6.475   2.698   1.310  2.8324  1.1794 -2.2555
  908MOL0     H22524   6.365   2.819   1.236  0.7114  0.2122 -0.5482
  908MOL0     H22525   6.201   2.650   1.199 -0.9856 -4.3601  0.1115
  908MOL0     H22526   6.305   2.525   1.254  0.1605 -1.2435  2.4357
  908MOL0     H22527   6.319   2.648   1.489 -0.2075  2.5290  1.1574
  908MOL0     H22528   6.186   2.747   1.438 -0.2906 -0.6258 -0.0796
  908MOL0     H22529   6.147   2.559   1.578  1.6976 -0.8929  0.2350
  908MOL0     H22530   6.176   2.437   1.453 -3.7286 -1.8521 -0.8091
  908MOL0     H22531   5.897   2.699   1.534 -2.3395  0.6666 -0.7559
  908MOL0     H22532   5.604   2.572   1.429  1.0739  0.1068  0.2670
  908MOL0     H22533   5.662   2.736   1.462 -4.7592  1.6450 -0.5151
  908MOL0     H22534   5.620   2.632   1.178 -1.1127 -1.9381  0.9484
  908MOL0     H22535   5.625   2.801   1.234  0.6562  0.4574  1.1690
  908MOL0     H22536   5.424   2.571   1.276  1.3035 -0.2058  3.7901
  908MOL0     H22537   5.390   2.713   1.179  1.7236  1.7212 -0.1780
  908MOL0     H22538   5.440   2.846   1.394  0.5847 -2.0655 -2.0883
  908MOL0     H22539   5.438   2.701   1.492 -1.0970  0.7773  1.7087
  908MOL0     H22540   5.378   2.840   1.649 -0.6314  0.0187 -2.3558
  908MOL0     H22541   5.272   3.099   1.851  2.1565  0.2915 -0.4819
  908MOL0     H22542   5.273   2.955   1.952  0.4726 -1.9100 -0.7174
  908MOL0     H22543   5.394   2.974   1.839 -1.0435  0.6447 -0.6206
  908MOL0     H22544   4.662   2.860   2.022  0.3419  0.8534  0.3437
  908MOL0     H22545   4.443   2.995   2.024 -0.3899  1.1111 -1.9993
  908MOL0     H22546   4.229   3.296   1.789 -0.5545  1.4871 -0.6489
  908MOL0     H22547   4.390   3.343   1.739 -1.7464  1.7083 -3.3972
  908MOL0     H22548   4.249   3.242   1.546 -0.4210  0.4832  0.7392
  908MOL0     H22549   4.392   3.142   1.576  0.3255  0.1698 -2.0788
  908MOL0     H22550   4.277   2.983   1.696  2.8785 -0.2618 -1.2878
  908MOL0     H22551   4.196   3.012   1.542 -0.7905  2.3740 -1.1316
  908MOL0     H22552   4.100   3.092   1.823 -0.8369 -2.6217 -0.6303
  908MOL0     H22553   4.044   3.187   1.672 -0.4374  0.5241 -0.3562
  908MOL0     H22554   3.996   2.901   1.769 -1.0221 -1.5642 -1.0665
  908MOL0     H22555   3.990   2.940   1.594 -0.5225 -1.0532  0.2400
  908MOL0     H22556   3.828   3.037   1.825  0.7194 -0.7465  0.1932
  908MOL0     H22557   3.809   3.111   1.662 -2.1813 -1.4632 -1.9803
  908MOL0     H22558   3.800   2.806   1.692  2.9112 -0.6033 -4.7704
  908MOL0     H22559   3.742   2.894   1.551  0.8925  2.7254 -0.1026
  908MOL0     H22560   3.551   2.802   1.672  2.3167 -1.1386 -1.3229
  908MOL0     H22561   3.533   2.971   1.655 -1.4149  2.1273  3.4299
  908MOL0     H22562   4.593   3.252   1.724  0.0068 -1.1313 -1.9576
  908MOL0     H22563   4.786   3.135   1.725 -0.9713  3.9514  2.1913
  908MOL0     H22564   4.889   2.840   1.636 -0.4570 -6.4401 -1.0659
  908MOL0     H22565   4.990   2.750   1.469 -1.3463 -0.0773  1.8537
  908MOL0     H22566   6.965   2.481   0.876 -2.3590  1.3413  0.8797
  908MOL0     H22567   7.202   2.545   0.812 -1.3776  1.3435  2.2304
  908MOL0     H22568   7.668   2.576   0.628  0.7706  1.0715  0.6541
  908MOL0     H22569   7.850   2.713   0.556  0.4712  0.4216  0.8452
  908MOL0     H22570   7.791   3.107   0.318  1.2134  1.0067 -0.4563
  908MOL0     H22571   7.796   3.111   0.497  0.8147 -0.7206  0.7138
  908MOL0     H22572   8.010   3.065   0.286 -1.1417 -3.3349  2.0749
  908MOL0     H22573   8.058   3.069   0.452  0.2206 -2.5967 -1.5914
  908MOL0     H22574   7.915   3.316   0.364  0.3337 -0.0194 -1.2247
  908MOL0     H22575   8.074   3.286   0.302  0.1706 -0.4247  0.6012
  908MOL0     H22576   8.019   3.265   0.592  1.1288 -0.9643  0.1367
  908MOL0     H22577   8.061   3.426   0.506 -2.2133  0.5570 -0.4906
  908MOL0     H22578   8.423   3.218   0.535 -0.0908  0.7118 -1.8527
  908MOL0     H22579   7.595   2.993   0.382 -0.6949 -0.0828 -0.4900
  908MOL0     H22580   7.394   2.870   0.457 -0.6047 -0.5883 -2.2001
  909MOL0     O22581   6.889   9.516   6.120 -0.4682  0.4857 -0.2525
  909MOL0     C22582   6.823   9.477   6.214  0.1769  0.0588  0.7781
  909MOL0     O22583   6.841   9.361   6.280  0.0899 -0.1524  0.2536
  909MOL0     C22584   6.940   9.268   6.249 -0.1179  0.0548 -0.9580
  909MOL0     C22585   6.903   9.138   6.204  0.3463 -0.2977 -0.1440
  909MOL0     C22586   6.990   9.038   6.150 -0.2041 -0.2219  0.1749
  909MOL0     C22587   7.127   9.073   6.158 -0.4698  0.6950 -0.0231
  909MOL0     O22588   7.210   8.986   6.086  0.0673  0.1976  0.1578
  909MOL0     C22589   7.346   8.964   6.124 -0.0263 -0.0699 -0.5280
  909MOL0     C22590   7.387   8.817   6.111 -0.0813 -0.5524  0.5028
  909MOL0     C22591   7.312   8.716   6.197  0.8812  0.4150 -0.3650
  909MOL0     C22592   7.386   8.578   6.182  0.1130  0.6151  0.3711
  909MOL0     C22593   7.341   8.455   6.266  0.0082 -0.7173  0.5485
  909MOL0     C22594   7.188   8.433   6.262  0.2034  0.3781  0.7392
  909MOL0     C22595   7.141   8.298   6.292 -0.9651  0.6718 -0.4891
  909MOL0     C22596   6.995   8.268   6.261 -0.6705 -0.4858 -0.0054
  909MOL0     N22597   6.915   8.333   6.361 -0.1408 -0.6553  0.0758
  909MOL0     C22598   6.862   8.274   6.476 -0.3342 -1.6156 -0.7685
  909MOL0     C22599   6.772   8.369   6.515  0.7003 -0.0372  0.7110
  909MOL0     C22600   6.684   8.367   6.630  0.5513  0.5249  0.3618
  909MOL0     C22601   6.656   8.231   6.677 -0.1727 -0.3517  0.4915
  909MOL0     C22602   6.542   8.162   6.607 -0.7583  0.2780  0.6223
  909MOL0     C22603   6.479   8.034   6.674 -1.0505 -0.0152 -0.3695
  909MOL0     O22604   6.577   7.934   6.701 -0.0887  0.3994  0.0422
  909MOL0     C22605   6.601   7.837   6.601  0.2294  0.7951 -0.0579
  909MOL0     C22606   6.549   7.830   6.471 -0.4483 -1.0737  0.5415
  909MOL0     C22607   6.562   7.720   6.382  0.6677 -0.3320  0.0056
  909MOL0     C22608   6.496   7.729   6.250  0.5402 -0.5858  0.1821
  909MOL0     C22609   6.628   7.606   6.432 -0.2272  0.1014 -0.3361
  909MOL0     C22610   6.636   7.477   6.366  0.7751 -0.5545 -0.1343
  909MOL0     O22611   6.755   7.415   6.378  0.8869 -0.5538 -0.0875
  909MOL0     C22612   6.759   7.277   6.353  1.1932 -0.9256  0.9184
  909MOL0     C22613   6.811   7.202   6.457  0.4154 -0.6424  0.6854
  909MOL0     C22614   6.839   7.075   6.430 -0.1018  0.2556 -0.1977
  909MOL0     C22615   6.802   7.006   6.315  0.1551 -0.5513  0.5285
  909MOL0     O22616   6.813   6.863   6.300 -0.0189 -0.3420 -0.5450
  909MOL0     C22617   6.865   6.824   6.173  0.4541 -0.2411  0.1694
  909MOL0     C22618   6.762   6.771   6.073  0.3578 -0.3173 -0.5721
  909MOL0     C22619   6.695   6.644   6.131  0.3517 -0.1243  0.4332
  909MOL0     C22620   6.569   6.595   6.060  1.0215 -0.5388 -0.1643
  909MOL0     C22621   6.494   6.460   6.108 -0.7905  0.3270  0.3008
  909MOL0     C22622   6.589   6.346   6.124 -0.1784  0.4773  0.3410
  909MOL0     C22623   6.508   6.235   6.190  0.4373  0.5897 -0.0651
  909MOL0     C22624   6.409   6.171   6.093 -0.1258  1.3595  0.7503
  909MOL0    Cl22625   6.482   6.129   5.942 -0.0683  0.1497  0.2058
  909MOL0     C22626   6.743   7.086   6.216  0.5645  0.3330 -0.0190
  909MOL0     C22627   6.725   7.222   6.230  0.1959  0.0705  0.1352
  909MOL0     O22628   6.551   7.435   6.296 -0.1532  0.0328 -0.0909
  909MOL0     C22629   6.692   7.617   6.560  0.0886 -0.2999 -0.0798
  909MOL0     C22630   6.668   7.726   6.643 -0.2410 -0.2279  0.0677
  909MOL0     N22631   6.780   8.480   6.432  0.2714 -0.0786 -0.3227
  909MOL0     N22632   6.867   8.458   6.340  0.4566 -0.1578 -0.2771
  909MOL0     C22633   7.167   9.199   6.202  0.9756  0.2660 -1.1401
  909MOL0     C22634   7.076   9.294   6.256 -0.4102 -0.4386 -0.5980
  909MOL0     C22635   6.703   9.550   6.245 -1.2732 -0.1047 -0.1160
  909MOL0     C22636   6.590   9.477   6.298  0.1902 -0.0181  0.1748
  909MOL0     C22637   6.487   9.553   6.348 -0.3861 -0.8076  0.8241
  909MOL0     C22638   6.485   9.697   6.346 -0.3135 -0.3185  0.2051
  909MOL0     O22639   6.360   9.738   6.378 -0.3285 -0.1440 -0.4062
  909MOL0     C22640   6.333   9.878   6.346  0.4668  0.4005 -0.2181
  909MOL0     C22641   6.377   9.961   6.466 -0.2281 -0.1853 -0.6876
  909MOL0     C22642   6.327  10.108   6.460  0.0910 -1.0489  0.0751
  909MOL0     C22643   6.189  10.136   6.497  0.2699 -0.6126 -0.6634
  909MOL0     C22644   6.151  10.276   6.498 -0.1920 -0.0834  0.4778
  909MOL0     C22645   6.099  10.385   6.497  0.3145 -0.8158 -0.3153
  909MOL0     C22646   6.597   9.767   6.289  0.4387  0.2473  1.0720
  909MOL0     C22647   6.703   9.692   6.232  1.3025 -1.6468 -0.2644
  909MOL0     H22648   6.795   9.126   6.204 -0.1086  2.7824  1.5945
  909MOL0     H22649   6.955   8.940   6.121  2.3980 -1.7550  1.8985
  909MOL0     H22650   7.418   9.027   6.071  1.3253 -0.3772  0.8654
  909MOL0     H22651   7.356   8.995   6.228  1.4596  2.9419 -1.4496
  909MOL0     H22652   7.378   8.793   6.005 -1.6085 -5.1950  1.4818
  909MOL0     H22653   7.491   8.805   6.143  0.9946  2.4538 -1.3794
  909MOL0     H22654   7.309   8.747   6.302 -4.8560  1.1349 -0.4032
  909MOL0     H22655   7.210   8.702   6.162  1.2690 -0.3145 -1.2195
  909MOL0     H22656   7.363   8.551   6.078  1.1492  0.9885  0.0311
  909MOL0     H22657   7.494   8.592   6.190  0.3260  0.1151 -1.2435
  909MOL0     H22658   7.403   8.372   6.231  1.1841  1.2162 -2.3455
  909MOL0     H22659   7.370   8.472   6.371  1.8450  1.0581 -0.1783
  909MOL0     H22660   7.130   8.497   6.330 -2.5971 -0.1512 -0.9621
  909MOL0     H22661   7.166   8.446   6.156 -0.7551 -0.4168  0.8206
  909MOL0     H22662   7.203   8.226   6.238 -1.5299 -0.0372 -0.2031
  909MOL0     H22663   7.160   8.276   6.398 -3.4034  1.1441  0.1010
  909MOL0     H22664   6.977   8.161   6.264 -2.2477 -0.2626 -0.3901
  909MOL0     H22665   6.971   8.306   6.161 -0.9596 -1.1784 -0.2067
  909MOL0     H22666   6.881   8.175   6.515 -0.2205 -2.7689 -3.5061
  909MOL0     H22667   6.726   8.425   6.712 -0.8553  0.0660  1.4638
  909MOL0     H22668   6.588   8.412   6.602  0.1500 -0.6307 -0.1989
  909MOL0     H22669   6.632   8.251   6.782 -0.0134  0.9396  0.2984
  909MOL0     H22670   6.739   8.159   6.677 -0.4493 -0.6789 -0.0110
  909MOL0     H22671   6.567   8.136   6.504 -3.4048 -0.1982  0.0215
  909MOL0     H22672   6.459   8.230   6.583  0.9205  1.3156 -2.8567
  909MOL0     H22673   6.396   7.991   6.617 -1.9931  1.6505 -0.3035
  909MOL0     H22674   6.437   8.054   6.773 -0.8430 -1.2563 -0.0130
  909MOL0     H22675   6.497   7.917   6.432 -1.4279 -0.8118  2.2990
  909MOL0     H22676   6.394   7.690   6.258 -0.1224  1.3436  1.8737
  909MOL0     H22677   6.480   7.833   6.220 -5.5525 -1.4288 -0.7821
  909MOL0     H22678   6.560   7.678   6.178  0.9186  0.5985 -0.3315
  909MOL0     H22679   6.851   7.250   6.545 -0.0045  3.1599 -1.0015
  909MOL0     H22680   6.889   7.009   6.500 -1.6132 -0.5222  0.2103
  909MOL0     H22681   6.911   6.911   6.125 -3.3612  1.7278 -0.3470
  909MOL0     H22682   6.939   6.745   6.188 -0.7818 -1.4563  0.0926
  909MOL0     H22683   6.683   6.845   6.054 -0.4687 -1.5723 -2.2759
  909MOL0     H22684   6.806   6.751   5.976 -0.2543  1.4234 -1.2486
  909MOL0     H22685   6.670   6.650   6.238 -0.1838  2.7742  0.2304
  909MOL0     H22686   6.778   6.574   6.123 -0.2667 -1.2632  2.9702
  909MOL0     H22687   6.488   6.668   6.070  0.9013 -0.8226  1.1334
  909MOL0     H22688   6.597   6.579   5.955 -0.0661 -2.2293 -0.2417
  909MOL0     H22689   6.413   6.438   6.038  0.6589 -1.9340 -0.7759
  909MOL0     H22690   6.447   6.479   6.205 -1.4502 -0.9091  0.2329
  909MOL0     H22691   6.634   6.313   6.030 -0.9655  3.0431 -1.0448
  909MOL0     H22692   6.672   6.359   6.194 -0.1335 -3.8490  1.3859
  909MOL0     H22693   6.456   6.280   6.275 -1.8428  1.7622 -1.9278
  909MOL0     H22694   6.580   6.161   6.226  1.3032  1.0631 -0.7891
  909MOL0     H22695   6.334   6.247   6.069  0.7947  1.5898 -1.6946
  909MOL0     H22696   6.365   6.084   6.142  1.2532  0.5975  0.6874
  909MOL0     H22697   6.719   7.044   6.119 -3.1610  0.1875  0.8035
  909MOL0     H22698   6.683   7.288   6.154 -0.2082  0.3580  0.5980
  909MOL0     H22699   6.743   7.532   6.606  0.2294  0.3675  1.0430
  909MOL0     H22700   6.696   7.721   6.748 -1.8535  2.4102  0.6934
  909MOL0     H22701   7.272   9.226   6.201  1.6232 -1.9405  0.2167
  909MOL0     H22702   7.101   9.393   6.291 -1.3150 -0.2634 -0.4052
  909MOL0     H22703   6.584   9.369   6.304  0.1817 -0.0753 -0.7346
  909MOL0     H22704   6.411   9.500   6.405 -1.0742 -2.2194 -1.2763
  909MOL0     H22705   6.377   9.910   6.251 -2.4817  0.8589 -1.5316
  909MOL0     H22706   6.226   9.877   6.325  0.6355  0.0041 -1.1348
  909MOL0     H22707   6.486   9.959   6.483 -0.3862  1.3804  0.7707
  909MOL0     H22708   6.331   9.906   6.549 -0.4856  0.2090 -0.5718
  909MOL0     H22709   6.344  10.142   6.358 -2.8274 -0.3240 -0.2494
  909MOL0     H22710   6.385  10.177   6.523 -2.0160 -0.5786  1.6283
  909MOL0     H22711   6.174  10.102   6.600  2.4060  0.3969  0.0556
  909MOL0     H22712   6.126  10.083   6.426 -0.6338  2.8038 -2.6518
  909MOL0     H22713   6.048  10.476   6.474 -1.0692 -1.6374 -0.6115
  909MOL0     H22714   6.597   9.874   6.276  1.8433  0.0414 -1.3325
  909MOL0     H22715   6.784   9.741   6.179  1.2029 -0.4101  0.6739
  910MOL0     O22716  11.009   2.802   4.777  0.1408 -0.1748  0.0164
  910MOL0     C22717  11.035   2.801   4.899 -0.7956  0.3746  0.0957
  910MOL0     O22718  10.953   2.801   5.012  0.9087 -0.0530  0.5709
  910MOL0     C22719  10.813   2.792   4.985  0.0761  0.1078 -0.5293
  910MOL0     C22720  10.731   2.881   5.049 -0.8301  0.1072 -0.2505
  910MOL0     C22721  10.593   2.879   5.026  0.3379  0.4315 -0.1222
  910MOL0     C22722  10.529   2.782   4.945  0.0203  0.0722  1.2519
  910MOL0     O22723  10.398   2.781   4.942  0.0683 -0.2980  0.3989
  910MOL0     C22724  10.324   2.657   4.903 -0.3391 -0.5416  0.0808
  910MOL0     C22725  10.186   2.674   4.964 -0.1344 -0.0945  0.0986
  910MOL0     C22726  10.107   2.779   4.886 -0.0416  0.2819  0.4139
  910MOL0     C22727   9.978   2.821   4.959 -0.2540 -0.1108  0.2954
  910MOL0     C22728   9.900   2.939   4.886 -0.5495 -1.3238 -0.5758
  910MOL0     C22729   9.868   2.905   4.749  0.4904  0.0748  0.1378
  910MOL0     C22730   9.729   2.968   4.717  0.4633  0.0500  0.5533
  910MOL0     C22731   9.739   3.115   4.681 -0.7813 -0.1877  0.3522
  910MOL0     N22732   9.615   3.180   4.628  0.3692 -0.0435 -0.0097
  910MOL0     C22733   9.489   3.159   4.667  0.5193  0.5950  0.7618
  910MOL0     C22734   9.408   3.244   4.597  0.1475  0.0302 -0.3500
  910MOL0     C22735   9.263   3.249   4.601  0.4871 -0.3251  0.2287
  910MOL0     C22736   9.226   3.376   4.688  0.5701  0.4443  0.6997
  910MOL0     C22737   9.082   3.371   4.736 -0.0481  0.4137 -0.2887
  910MOL0     C22738   8.984   3.350   4.621 -0.4258 -0.6968 -0.3297
  910MOL0     O22739   8.863   3.406   4.660  0.2437  0.5699 -0.1941
  910MOL0     C22740   8.778   3.336   4.743 -0.7424  0.0702 -0.7552
  910MOL0     C22741   8.779   3.363   4.886 -0.2994  0.5083  0.2932
  910MOL0     C22742   8.691   3.295   4.969 -0.4820 -0.0497 -0.6568
  910MOL0     C22743   8.706   3.313   5.116  0.4620  1.1069  0.3164
  910MOL0     C22744   8.598   3.201   4.914  0.2165  0.4795  1.1094
  910MOL0     C22745   8.504   3.112   4.990 -0.5580 -0.8470 -0.6078
  910MOL0     O22746   8.474   3.135   5.131  0.0986 -0.8119  0.3499
  910MOL0     C22747   8.403   3.046   5.198  1.0142 -0.3732  0.2247
  910MOL0     C22748   8.269   3.011   5.166 -0.7407 -0.4844  0.6921
  910MOL0     C22749   8.208   2.890   5.200 -0.2185  0.6339 -0.1991
  910MOL0     C22750   8.272   2.815   5.289  0.6955  0.4603 -0.5909
  910MOL0     O22751   8.219   2.711   5.354 -0.2389 -0.6817  1.2320
  910MOL0     C22752   8.176   2.607   5.264  0.2471  0.4941  0.0018
  910MOL0     C22753   8.189   2.459   5.329  0.3653 -0.4256  0.7429
  910MOL0     C22754   8.337   2.425   5.345  0.3373  0.3234  0.1171
  910MOL0     C22755   8.370   2.279   5.321 -0.5077 -0.7749  0.3230
  910MOL0     C22756   8.514   2.262   5.335 -0.3595  0.9310  0.0439
  910MOL0     C22757   8.569   2.126   5.278  0.1702 -0.2536 -0.6116
  910MOL0     C22758   8.692   2.060   5.355 -0.1845 -0.2493 -0.1795
  910MOL0     C22759   8.686   1.908   5.381  0.0895  0.2438 -0.0166
  910MOL0    Cl22760   8.825   1.837   5.469 -0.5322  0.0775 -0.0858
  910MOL0     C22761   8.395   2.852   5.342  0.3235 -0.4976 -0.4309
  910MOL0     C22762   8.461   2.968   5.298 -0.0723 -0.0346 -0.0957
  910MOL0     O22763   8.466   3.008   4.936  0.1799 -0.0255  0.3117
  910MOL0     C22764   8.598   3.185   4.774 -0.2161 -0.0929  0.4752
  910MOL0     C22765   8.687   3.245   4.695  0.2981 -0.1909 -0.0912
  910MOL0     N22766   9.492   3.331   4.522 -0.3027  0.5097  0.3070
  910MOL0     N22767   9.616   3.272   4.533  0.3576 -0.3353  0.0069
  910MOL0     C22768  10.617   2.692   4.876  0.6440  0.2992 -0.3668
  910MOL0     C22769  10.756   2.702   4.898 -0.2378  0.7299 -0.3624
  910MOL0     C22770  11.178   2.815   4.931 -0.4011 -0.2792 -0.3259
  910MOL0     C22771  11.218   2.848   5.068 -0.1473  0.2055 -0.8605
  910MOL0     C22772  11.354   2.859   5.093  0.6862  0.1715  0.0871
  910MOL0     C22773  11.446   2.839   4.989  0.2587 -0.2923  0.2164
  910MOL0     O22774  11.581   2.844   5.003 -0.3926 -0.0408  0.6305
  910MOL0     C22775  11.643   2.878   5.128  0.4103 -1.4643 -0.7124
  910MOL0     C22776  11.649   2.763   5.230 -0.7033 -0.4775 -0.1263
  910MOL0     C22777  11.742   2.804   5.342 -1.1616  0.1566  0.1191
  910MOL0     C22778  11.882   2.726   5.348 -0.6905 -0.4994 -0.9588
  910MOL0     C22779  11.980   2.769   5.245 -0.2005  1.0375  0.0486
  910MOL0     C22780  12.057   2.828   5.175 -0.7876 -0.2773  0.6039
  910MOL0     C22781  11.411   2.803   4.859  0.1335  0.4531 -0.7945
  910MOL0     C22782  11.274   2.799   4.834  0.0356  0.6088 -1.0072
  910MOL0     H22783  10.782   2.947   5.119 -2.3639  0.3175  0.7323
  910MOL0     H22784  10.531   2.958   5.068  0.8017  0.3928  0.6654
  910MOL0     H22785  10.310   2.638   4.796 -1.9227 -1.2081  0.3803
  910MOL0     H22786  10.369   2.567   4.944 -0.1863  0.1049  1.3861
  910MOL0     H22787  10.132   2.580   4.955  0.4300 -0.4573  0.4005
  910MOL0     H22788  10.195   2.715   5.066 -0.1306  0.7314 -0.2214
  910MOL0     H22789  10.165   2.871   4.869  1.8072 -1.1249 -1.4075
  910MOL0     H22790  10.084   2.746   4.784  1.1600 -0.6044  0.4107
  910MOL0     H22791   9.904   2.744   4.983 -2.2822  0.7326 -2.7061
  910MOL0     H22792  10.010   2.861   5.056 -2.3301  1.8396  0.2675
  910MOL0     H22793   9.809   2.963   4.942  0.8069  0.9849  0.7967
  910MOL0     H22794   9.964   3.028   4.880 -1.6552 -0.3456  1.2419
  910MOL0     H22795   9.947   2.936   4.679 -1.8457  4.4970 -0.9571
  910MOL0     H22796   9.858   2.797   4.735 -1.3062  0.1484  0.6268
  910MOL0     H22797   9.677   2.923   4.632 -0.1783  0.3667  0.7757
  910MOL0     H22798   9.655   2.954   4.796 -0.5442 -2.0542 -0.6554
  910MOL0     H22799   9.824   3.136   4.615 -2.4303  0.6440 -1.6138
  910MOL0     H22800   9.748   3.170   4.775 -4.4197  2.1910 -0.4995
  910MOL0     H22801   9.441   3.086   4.732 -0.7229  3.3399  3.1633
  910MOL0     H22802   9.223   3.262   4.500  2.2136  1.8501 -0.2652
  910MOL0     H22803   9.217   3.156   4.635  1.7577 -1.3389 -0.7272
  910MOL0     H22804   9.232   3.469   4.632 -4.1040 -0.4276 -1.8064
  910MOL0     H22805   9.288   3.378   4.778  2.0852 -2.1099 -0.1604
  910MOL0     H22806   9.062   3.468   4.782  1.0586 -0.0414  1.2085
  910MOL0     H22807   9.078   3.291   4.810  1.1912 -1.2318 -1.9025
  910MOL0     H22808   8.964   3.244   4.604 -4.1851  0.0110 -1.1243
  910MOL0     H22809   9.011   3.400   4.528  0.3165  2.0187  1.2195
  910MOL0     H22810   8.848   3.430   4.937  0.6069  0.4788 -0.8572
  910MOL0     H22811   8.780   3.389   5.140  0.3406  1.5010 -0.5281
  910MOL0     H22812   8.611   3.352   5.153  1.8596  2.9199  2.2128
  910MOL0     H22813   8.727   3.220   5.170 -2.1220  2.3387  3.8177
  910MOL0     H22814   8.223   3.078   5.094  1.1346  0.6508  0.4820
  910MOL0     H22815   8.105   2.867   5.174 -0.3209  1.1339 -0.2349
  910MOL0     H22816   8.073   2.625   5.229 -0.4890  1.2981  2.3940
  910MOL0     H22817   8.228   2.609   5.168 -1.7360 -0.5552 -1.1856
  910MOL0     H22818   8.127   2.449   5.419  1.7764 -2.8275  1.5438
  910MOL0     H22819   8.141   2.389   5.261 -1.1082  0.5771  0.7089
  910MOL0     H22820   8.374   2.464   5.440 -0.3836  2.2242 -0.3496
  910MOL0     H22821   8.393   2.491   5.279 -3.4283  1.8352 -1.8641
  910MOL0     H22822   8.310   2.202   5.371 -1.0529 -1.3899 -1.2121
  910MOL0     H22823   8.352   2.253   5.216  2.9745  0.8000 -0.7946
  910MOL0     H22824   8.542   2.262   5.441 -1.7092 -1.1008  0.4764
  910MOL0     H22825   8.566   2.345   5.288  0.8679 -0.0193 -0.3431
  910MOL0     H22826   8.490   2.050   5.287 -0.8479  1.0323  1.9574
  910MOL0     H22827   8.584   2.135   5.170 -1.2132 -0.9099 -0.8797
  910MOL0     H22828   8.701   2.107   5.453 -1.4729 -1.0744  0.3595
  910MOL0     H22829   8.781   2.089   5.297  0.5727  1.2536  1.6253
  910MOL0     H22830   8.689   1.849   5.289  0.2508  2.1247 -1.2490
  910MOL0     H22831   8.594   1.891   5.437  1.0386  0.5697  1.7175
  910MOL0     H22832   8.452   2.803   5.421  0.0711  3.3019  2.4389
  910MOL0     H22833   8.562   2.992   5.329 -0.8511  0.0316  2.6043
  910MOL0     H22834   8.528   3.123   4.718  0.8342 -1.2185  0.3690
  910MOL0     H22835   8.673   3.224   4.589 -0.4669 -0.5869  0.0848
  910MOL0     H22836  10.581   2.630   4.794  0.6104 -1.4800  0.9474
  910MOL0     H22837  10.821   2.636   4.842  1.3245  1.2240  0.7887
  910MOL0     H22838  11.145   2.843   5.148 -1.6425 -3.2684 -2.2505
  910MOL0     H22839  11.390   2.880   5.193  0.6240 -2.0737  0.6350
  910MOL0     H22840  11.741   2.894   5.084  0.2186  0.2335 -0.5824
  910MOL0     H22841  11.598   2.967   5.173 -0.7170 -3.5319  2.6627
  910MOL0     H22842  11.689   2.673   5.181  0.3501 -1.2477  2.0277
  910MOL0     H22843  11.552   2.728   5.266 -1.3116 -2.2772 -3.1793
  910MOL0     H22844  11.685   2.770   5.429 -2.6078 -0.7522 -1.1273
  910MOL0     H22845  11.767   2.909   5.358  1.3047 -0.3989  0.3100
  910MOL0     H22846  11.875   2.617   5.342 -0.2044 -0.6901  1.0058
  910MOL0     H22847  11.933   2.752   5.442 -0.6226  1.0299 -1.3966
  910MOL0     H22848  12.131   2.873   5.111 -1.1342  2.2104  1.8245
  910MOL0     H22849  11.486   2.786   4.782 -4.2018 -1.1479 -5.1495
  910MOL0     H22850  11.247   2.780   4.731 -0.9099 -0.3330 -0.6041
  911MOL0     O22851   7.529   3.237   0.489 -0.6626  0.0698  0.0323
  911MOL0     C22852   7.427   3.241   0.423  0.6436 -0.2337 -0.3502
  911MOL0     O22853   7.416   3.283   0.289  0.6044  0.2892 -0.4768
  911MOL0     C22854   7.535   3.279   0.218  0.8431  0.2240  0.0132
  911MOL0     C22855   7.566   3.184   0.122  0.3693 -0.0690  0.3106
  911MOL0     C22856   7.688   3.170   0.049 -0.2867 -1.0575 -0.8189
  911MOL0     C22857   7.780   3.269   0.073  0.6404  0.4884 -0.1844
  911MOL0     O22858   7.904   3.273   0.015  0.1938 -0.5363  0.0598
  911MOL0     C22859   7.956   3.157  -0.047  0.3874 -0.6783 -0.0345
  911MOL0     C22860   8.097   3.175  -0.089  0.4447 -0.1049  1.1084
  911MOL0     C22861   8.146   3.311  -0.138  1.1553  0.7707 -0.7272
  911MOL0     C22862   8.287   3.295  -0.187  0.3836 -0.6566  0.4760
  911MOL0     C22863   8.329   3.412  -0.272  0.0950  0.1869  0.0750
  911MOL0     C22864   8.481   3.398  -0.292 -0.3135 -0.0177 -0.2705
  911MOL0     C22865   8.524   3.523  -0.371  0.0326  0.0524 -0.3897
  911MOL0     C22866   8.486   3.505  -0.514 -0.0085 -0.3846 -0.1623
  911MOL0     N22867   8.563   3.577  -0.609  0.1795 -0.1487  0.2233
  911MOL0     C22868   8.702   3.580  -0.607 -0.2076 -0.3355 -0.0004
  911MOL0     C22869   8.739   3.669  -0.708 -0.5173 -0.4815 -0.5190
  911MOL0     C22870   8.882   3.716  -0.742  0.3011 -0.6008  0.6337
  911MOL0     C22871   8.972   3.610  -0.804  0.0825  0.6634  0.0938
  911MOL0     C22872   8.907   3.534  -0.918  0.4615 -0.3945  0.0215
  911MOL0     C22873   9.004   3.446  -0.992  0.2448  0.2606 -0.0590
  911MOL0     O22874   9.058   3.360  -0.894 -1.0210  0.0420 -0.0765
  911MOL0     C22875   9.176   3.286  -0.926 -0.5000  0.0175  1.3203
  911MOL0     C22876   9.278   3.338  -1.013  0.4782 -0.4204  0.1791
  911MOL0     C22877   9.395   3.265  -1.031  0.2834  0.4001  0.0223
  911MOL0     C22878   9.486   3.325  -1.137 -0.1636 -0.0396 -0.0476
  911MOL0     C22879   9.416   3.137  -0.960  0.5194 -0.0968 -0.5361
  911MOL0     C22880   9.535   3.052  -0.980  0.0501 -0.3211  0.4834
  911MOL0     O22881   9.636   3.086  -1.064  0.1095  0.3681 -0.7527
  911MOL0     C22882   9.731   2.986  -1.100  0.2760 -0.3675 -0.7762
  911MOL0     C22883   9.707   2.851  -1.128  0.6648  0.1684 -0.2165
  911MOL0     C22884   9.813   2.769  -1.174 -0.2923 -0.1684 -0.6790
  911MOL0     C22885   9.944   2.821  -1.205  0.4569  0.1465 -0.8532
  911MOL0     O22886  10.048   2.753  -1.260  0.0227 -0.7015  0.1374
  911MOL0     C22887  10.017   2.620  -1.304  0.1333 -0.4455 -0.8354
  911MOL0     C22888  10.137   2.561  -1.368  0.0102 -0.3821 -0.6855
  911MOL0     C22889  10.278   2.580  -1.296 -0.4789 -0.9513 -0.0485
  911MOL0     C22890  10.393   2.592  -1.391  0.0321  0.7973 -0.4631
  911MOL0     C22891  10.529   2.572  -1.325  0.1690  0.1910 -0.6795
  911MOL0     C22892  10.639   2.622  -1.417 -0.0771 -0.4222  0.7209
  911MOL0     C22893  10.771   2.634  -1.332 -0.6034  0.2554  0.6198
  911MOL0     C22894  10.888   2.680  -1.408  0.8416 -0.1683  0.6061
  911MOL0    Cl22895  10.884   2.844  -1.464  0.2029 -0.1389  0.3843
  911MOL0     C22896   9.956   2.964  -1.177  0.2820 -0.0018 -0.1641
  911MOL0     C22897   9.850   3.040  -1.133  0.0175 -0.6305 -0.1697
  911MOL0     O22898   9.534   2.948  -0.914  0.1636  0.1403 -0.4034
  911MOL0     C22899   9.320   3.091  -0.878  0.2771  0.3546 -0.0594
  911MOL0     C22900   9.198   3.157  -0.869 -1.0772 -0.6750  0.0415
  911MOL0     N22901   8.620   3.721  -0.761 -0.7277 -0.2805 -1.1064
  911MOL0     N22902   8.519   3.662  -0.705  0.3904  0.3198  0.5645
  911MOL0     C22903   7.754   3.378   0.163  0.1400  0.7295  0.2077
  911MOL0     C22904   7.633   3.374   0.238  0.5051  0.4542 -0.0822
  911MOL0     C22905   7.294   3.198   0.487 -0.3375  0.4219  0.2863
  911MOL0     C22906   7.296   3.134   0.611 -0.3104  0.6606 -0.0096
  911MOL0     C22907   7.185   3.073   0.671 -0.1059  0.3533  1.2965
  911MOL0     C22908   7.063   3.069   0.606  0.1492  0.0170  0.2977
  911MOL0     O22909   6.946   3.008   0.648 -0.3039  0.4299 -0.2764
  911MOL0     C22910   6.942   2.990   0.788 -0.4720  0.6987  0.2848
  911MOL0     C22911   6.813   2.962   0.850  0.4832 -0.4079 -0.2262
  911MOL0     C22912   6.712   3.080   0.829  0.2783 -0.4121  0.2912
  911MOL0     C22913   6.585   3.019   0.899  0.3369 -0.6879 -0.0111
  911MOL0     C22914   6.465   3.107   0.874 -0.4171 -0.3527 -0.1309
  911MOL0     C22915   6.362   3.170   0.859 -0.5164  0.5387 -0.5528
  911MOL0     C22916   7.054   3.140   0.477  0.1216 -0.3638 -0.3673
  911MOL0     C22917   7.168   3.201   0.426 -0.8480 -0.6756 -0.5292
  911MOL0     H22918   7.485   3.122   0.083 -0.3085  0.4266  0.9092
  911MOL0     H22919   7.698   3.104  -0.037  0.3651 -2.1961  0.1094
  911MOL0     H22920   7.946   3.066   0.014  1.7887  1.2271  3.3326
  911MOL0     H22921   7.898   3.142  -0.139  0.1380 -2.4897  0.3830
  911MOL0     H22922   8.158   3.143  -0.004  0.5756 -1.6723  0.4660
  911MOL0     H22923   8.113   3.092  -0.159 -2.8996 -0.8409  1.0428
  911MOL0     H22924   8.072   3.347  -0.210  0.1218  0.0087 -0.0800
  911MOL0     H22925   8.142   3.382  -0.054  1.7685 -1.2214  1.0846
  911MOL0     H22926   8.351   3.279  -0.099  3.2340 -0.8690 -1.5036
  911MOL0     H22927   8.296   3.207  -0.251  2.0516 -0.1520 -0.0451
  911MOL0     H22928   8.283   3.407  -0.371  2.4628  1.7487 -1.2043
  911MOL0     H22929   8.310   3.510  -0.227 -1.0475 -0.3018  0.6804
  911MOL0     H22930   8.527   3.397  -0.193  0.8632 -1.6923 -0.7923
  911MOL0     H22931   8.517   3.306  -0.338  3.0386  0.7490  0.5936
  911MOL0     H22932   8.484   3.614  -0.326  0.9389 -0.3128  1.2046
  911MOL0     H22933   8.633   3.532  -0.372  0.1512 -1.1732 -0.0597
  911MOL0     H22934   8.382   3.536  -0.524  0.4534  2.3871  2.1382
  911MOL0     H22935   8.493   3.398  -0.536  2.7669 -0.7298  1.7682
  911MOL0     H22936   8.769   3.511  -0.557 -0.2381 -0.1241  0.3303
  911MOL0     H22937   8.878   3.797  -0.815  0.7550  0.8099  2.1216
  911MOL0     H22938   8.932   3.759  -0.655 -1.8293  1.4433  0.9312
  911MOL0     H22939   9.012   3.537  -0.733  1.7540  1.1401 -0.3110
  911MOL0     H22940   9.063   3.660  -0.840  0.3281 -0.8797 -1.5961
  911MOL0     H22941   8.855   3.611  -0.976 -1.8993 -0.0896  2.3382
  911MOL0     H22942   8.831   3.465  -0.881 -0.6831  1.1085  0.5519
  911MOL0     H22943   9.068   3.518  -1.043  0.9092 -0.4585 -0.2675
  911MOL0     H22944   8.947   3.388  -1.065 -2.1625  3.1064 -0.6238
  911MOL0     H22945   9.259   3.432  -1.063 -1.2250 -0.9599 -0.2743
  911MOL0     H22946   9.479   3.270  -1.231  1.2451 -0.1424 -0.1193
  911MOL0     H22947   9.463   3.429  -1.160 -1.5317 -0.5407 -1.0808
  911MOL0     H22948   9.590   3.317  -1.105 -0.5847  0.2232  1.4714
  911MOL0     H22949   9.603   2.827  -1.110 -0.1196  3.2015 -0.1387
  911MOL0     H22950   9.796   2.666  -1.205  0.7084 -1.5017  2.7204
  911MOL0     H22951   9.986   2.554  -1.222  0.1352  0.8233  0.2192
  911MOL0     H22952   9.941   2.620  -1.383 -0.6487  0.5667 -0.1003
  911MOL0     H22953  10.113   2.455  -1.374 -0.0097 -0.4339  0.1418
  911MOL0     H22954  10.139   2.596  -1.472 -1.6784 -1.6076 -1.1723
  911MOL0     H22955  10.299   2.496  -1.229  1.4647 -0.7759 -0.3722
  911MOL0     H22956  10.277   2.672  -1.237  2.2703 -0.6909 -0.2396
  911MOL0     H22957  10.371   2.534  -1.481 -1.5041  1.5590 -0.6258
  911MOL0     H22958  10.389   2.697  -1.422  2.1491  1.1480  0.3006
  911MOL0     H22959  10.536   2.465  -1.304  0.7182  0.6645  1.7834
  911MOL0     H22960  10.526   2.623  -1.229 -1.5760  0.0124 -0.6113
  911MOL0     H22961  10.653   2.545  -1.493 -0.3351  0.1490  0.0782
  911MOL0     H22962  10.615   2.716  -1.468 -3.0521 -1.5375 -0.0868
  911MOL0     H22963  10.798   2.544  -1.275 -3.7883  0.3971  2.6529
  911MOL0     H22964  10.762   2.715  -1.260  0.4798  0.6039  0.3766
  911MOL0     H22965  10.895   2.607  -1.490 -1.1078  1.3122 -0.9799
  911MOL0     H22966  10.980   2.665  -1.350 -0.3651  1.7769  3.2109
  911MOL0     H22967  10.038   3.019  -1.222 -1.9086  2.3516 -1.5480
  911MOL0     H22968   9.864   3.148  -1.129  1.3718 -0.7689 -0.6031
  911MOL0     H22969   9.321   2.993  -0.830 -0.9203  0.4508  0.1989
  911MOL0     H22970   9.133   3.091  -0.813  0.1393 -2.2125 -0.2893
  911MOL0     H22971   7.807   3.472   0.171 -0.3166  1.0280 -0.2328
  911MOL0     H22972   7.617   3.454   0.310 -0.6845  0.3476 -0.2091
  911MOL0     H22973   7.386   3.138   0.672  1.1990 -2.1775 -1.8314
  911MOL0     H22974   7.201   3.011   0.758  2.4222  1.3978  1.6781
  911MOL0     H22975   7.008   2.904   0.803 -1.7877 -0.3634  0.1433
  911MOL0     H22976   6.978   3.077   0.845 -2.1921  1.4553  0.2733
  911MOL0     H22977   6.820   2.944   0.958  0.8099  1.2274  0.0476
  911MOL0     H22978   6.770   2.875   0.799 -1.6188 -0.2833  1.2151
  911MOL0     H22979   6.708   3.092   0.721 -2.4421 -2.0380  0.1282
  911MOL0     H22980   6.749   3.171   0.878 -1.1259  1.6486 -2.2631
  911MOL0     H22981   6.610   3.040   1.003  0.6326  0.3633 -0.2801
  911MOL0     H22982   6.558   2.914   0.890 -1.9920 -0.4553  2.7262
  911MOL0     H22983   6.265   3.217   0.864 -0.2393  1.0987 -0.3785
  911MOL0     H22984   6.969   3.149   0.411 -1.0237 -2.5237  0.7030
  911MOL0     H22985   7.168   3.267   0.339  0.1720 -1.2485 -0.9827
  912MOL0     O22986   7.063   6.496   6.128  0.1622  0.3589  0.4513
  912MOL0     C22987   7.113   6.401   6.072  0.7646  0.1525 -0.1411
  912MOL0     O22988   7.064   6.342   5.955 -0.0920  0.5512  0.5639
  912MOL0     C22989   6.950   6.385   5.892 -0.3344  1.1050  0.0725
  912MOL0     C22990   6.928   6.515   5.869 -0.6249  0.4129  0.8052
  912MOL0     C22991   6.818   6.542   5.780 -0.8774 -0.0821 -0.5607
  912MOL0     C22992   6.726   6.448   5.744  0.7182  0.1777 -0.0470
  912MOL0     O22993   6.623   6.479   5.661  0.2365  0.8528 -0.5633
  912MOL0     C22994   6.535   6.375   5.629  0.8567  0.4679 -0.0192
  912MOL0     C22995   6.419   6.442   5.566  0.2789  0.5198  1.1258
  912MOL0     C22996   6.297   6.347   5.547  0.8232  0.4827 -0.1451
  912MOL0     C22997   6.172   6.442   5.531  0.8136  0.2011  0.1063
  912MOL0     C22998   6.033   6.390   5.574 -0.0357  1.0390  0.5966
  912MOL0     C22999   5.925   6.495   5.555  0.3907  0.0380  0.4736
  912MOL0     C23000   5.786   6.435   5.571 -0.9606 -0.3832 -0.0943
  912MOL0     C23001   5.748   6.333   5.468  1.1210 -0.6199 -0.7520
  912MOL0     N23002   5.603   6.307   5.466 -0.0651 -0.8079  0.2138
  912MOL0     C23003   5.521   6.288   5.575  1.3498 -0.5223 -0.3262
  912MOL0     C23004   5.396   6.294   5.529  0.0606 -0.2620  0.2115
  912MOL0     C23005   5.268   6.281   5.611 -0.3056  0.3664  0.1845
  912MOL0     C23006   5.242   6.133   5.653  0.7136  0.6836  0.5332
  912MOL0     C23007   5.088   6.127   5.695 -0.1511  0.4911  0.0502
  912MOL0     C23008   5.043   5.982   5.712 -0.1402  0.0251  0.8458
  912MOL0     O23009   4.987   5.929   5.596  0.4087  0.6876 -0.1166
  912MOL0     C23010   4.900   5.823   5.598 -0.3102 -0.1085  0.2143
  912MOL0     C23011   4.878   5.735   5.707 -0.4816 -0.6522 -0.0147
  912MOL0     C23012   4.793   5.629   5.703  0.2919 -0.4774  0.4984
  912MOL0     C23013   4.779   5.545   5.833 -0.6945 -0.0720 -0.1683
  912MOL0     C23014   4.700   5.624   5.600  0.0110 -0.1986 -0.6031
  912MOL0     C23015   4.586   5.523   5.588  1.0263 -1.0764 -0.4370
  912MOL0     O23016   4.568   5.419   5.677 -0.2227  0.0017  0.5606
  912MOL0     C23017   4.450   5.354   5.680  0.0735 -0.3365  0.5905
  912MOL0     C23018   4.371   5.320   5.563 -0.9137 -0.2994 -0.1856
  912MOL0     C23019   4.257   5.246   5.591  0.6882 -0.5811 -0.1557
  912MOL0     C23020   4.215   5.201   5.714 -0.0336 -0.7959  0.7284
  912MOL0     O23021   4.092   5.133   5.730  0.0465  0.5607  0.3751
  912MOL0     C23022   4.055   5.031   5.634  0.5934 -0.1104 -0.6228
  912MOL0     C23023   3.905   5.012   5.669 -0.3540  0.7898  0.1152
  912MOL0     C23024   3.868   4.979   5.819  0.0083 -0.0407  0.5504
  912MOL0     C23025   3.872   4.834   5.856  0.3774 -1.0348 -0.2893
  912MOL0     C23026   3.790   4.802   5.982 -0.2208  1.5813 -0.1744
  912MOL0     C23027   3.857   4.845   6.116  0.2212  0.0131  0.6876
  912MOL0     C23028   3.753   4.825   6.222 -0.5530 -0.3031 -0.2432
  912MOL0     C23029   3.828   4.869   6.345 -0.3904 -0.4087  1.0154
  912MOL0    Cl23030   3.737   4.832   6.488 -0.6462 -0.4411  1.0226
  912MOL0     C23031   4.301   5.227   5.822 -0.6263  0.2609 -1.6565
  912MOL0     C23032   4.415   5.304   5.803 -0.0203  0.1279  0.3377
  912MOL0     O23033   4.526   5.538   5.482  0.3777 -0.0959  0.1834
  912MOL0     C23034   4.720   5.716   5.491  0.4533 -0.0845  0.4212
  912MOL0     C23035   4.818   5.815   5.491  0.7575 -0.3029 -0.1790
  912MOL0     N23036   5.393   6.305   5.391 -0.7521 -0.2569  0.0210
  912MOL0     N23037   5.517   6.330   5.358  0.7748  0.5967  0.2122
  912MOL0     C23038   6.749   6.321   5.792  0.6615  0.1467 -0.2173
  912MOL0     C23039   6.861   6.285   5.859 -0.2371  0.0820 -0.2176
  912MOL0     C23040   7.242   6.344   6.115  0.9530  0.1102  0.3160
  912MOL0     C23041   7.292   6.364   6.241  0.4889 -0.4432  0.8750
  912MOL0     C23042   7.411   6.307   6.286 -0.1488 -0.0551  0.8255
  912MOL0     C23043   7.487   6.217   6.199  0.0096  0.1185  0.7653
  912MOL0     O23044   7.601   6.143   6.237  0.4331  0.5878 -0.4231
  912MOL0     C23045   7.648   6.146   6.374 -1.0515  0.4239 -0.0934
  912MOL0     C23046   7.769   6.054   6.393  0.2224 -0.4911  0.2924
  912MOL0     C23047   7.833   6.075   6.529 -0.8452 -0.6650 -0.0782
  912MOL0     C23048   7.951   5.972   6.543  0.0388  0.3350 -0.0284
  912MOL0     C23049   8.034   6.008   6.656 -0.3456 -0.9586  0.9191
  912MOL0     C23050   8.108   6.029   6.749  0.8253  0.0165  0.3199
  912MOL0     C23051   7.435   6.203   6.065  0.7959  0.1714 -0.6918
  912MOL0     C23052   7.316   6.266   6.025  0.5732  0.0063  0.0710
  912MOL0     H23053   6.988   6.601   5.894  0.4182  0.5263 -1.7583
  912MOL0     H23054   6.805   6.646   5.749 -1.3776 -0.4614 -1.7126
  912MOL0     H23055   6.579   6.297   5.565  1.4390 -0.2775  1.2571
  912MOL0     H23056   6.500   6.328   5.721  0.0743 -0.7707 -0.9169
  912MOL0     H23057   6.380   6.508   5.644 -0.2274  1.6057 -0.0225
  912MOL0     H23058   6.452   6.491   5.474 -1.0385 -2.3189 -1.0200
  912MOL0     H23059   6.310   6.301   5.449  1.0017  1.3490 -0.5450
  912MOL0     H23060   6.287   6.284   5.636 -2.9741 -1.3728 -1.6730
  912MOL0     H23061   6.193   6.533   5.587  0.9585 -0.5687  1.3593
  912MOL0     H23062   6.165   6.465   5.425 -1.8935 -0.9065 -0.0356
  912MOL0     H23063   6.022   6.304   5.507 -1.0726  0.0003  2.0284
  912MOL0     H23064   6.043   6.362   5.679  2.3318  0.4571  0.2838
  912MOL0     H23065   5.940   6.573   5.631  0.3522  0.4114  0.0997
  912MOL0     H23066   5.943   6.539   5.456  0.7338  0.0423  0.5372
  912MOL0     H23067   5.777   6.398   5.673 -1.2353  2.1413  0.8545
  912MOL0     H23068   5.717   6.519   5.570 -0.8814 -0.3127 -0.9534
  912MOL0     H23069   5.787   6.232   5.480 -1.0976 -1.3317  1.0901
  912MOL0     H23070   5.777   6.374   5.371 -1.1234 -0.2888 -1.3384
  912MOL0     H23071   5.543   6.247   5.673  0.2779  0.6970  0.4611
  912MOL0     H23072   5.281   6.335   5.706 -1.1475  0.9008  0.0031
  912MOL0     H23073   5.189   6.321   5.548  1.4430  0.7537 -1.8595
  912MOL0     H23074   5.298   6.076   5.728 -0.6399 -0.7193  0.5372
  912MOL0     H23075   5.244   6.096   5.551  1.4454  1.8235  0.1144
  912MOL0     H23076   5.015   6.176   5.630 -1.6888  2.5170  3.0251
  912MOL0     H23077   5.080   6.186   5.787 -1.2208 -0.7775  0.8068
  912MOL0     H23078   4.973   5.966   5.794 -0.7883  0.6002  0.4163
  912MOL0     H23079   5.140   5.938   5.738  0.9258  0.3258 -2.1301
  912MOL0     H23080   4.937   5.758   5.795 -0.6434 -1.3999  0.2877
  912MOL0     H23081   4.688   5.566   5.890 -0.0068  0.7557  0.6316
  912MOL0     H23082   4.792   5.437   5.820 -0.8208 -0.5087  2.8076
  912MOL0     H23083   4.862   5.570   5.899 -0.8620 -0.7990  0.3314
  912MOL0     H23084   4.400   5.351   5.463  1.8116 -0.9856  0.3085
  912MOL0     H23085   4.195   5.231   5.503  1.8282  0.8934 -1.2669
  912MOL0     H23086   4.072   5.057   5.529  1.0623 -0.2638 -0.5853
  912MOL0     H23087   4.105   4.936   5.655  3.1189  1.4935  1.1187
  912MOL0     H23088   3.850   5.104   5.644 -1.5354  0.1298  0.2088
  912MOL0     H23089   3.862   4.935   5.604  0.2233  1.1753 -0.7485
  912MOL0     H23090   3.767   5.018   5.836  0.1921  1.1834 -0.9583
  912MOL0     H23091   3.934   5.037   5.885 -0.3126  0.5753  0.3369
  912MOL0     H23092   3.830   4.768   5.779 -1.1509  1.4931 -1.7825
  912MOL0     H23093   3.980   4.819   5.866  0.6210 -0.8449 -2.1415
  912MOL0     H23094   3.789   4.695   6.002  0.9049  1.5323 -0.3042
  912MOL0     H23095   3.686   4.834   5.973 -1.7700 -3.0619 -1.3580
  912MOL0     H23096   3.952   4.791   6.117 -0.0047 -0.5234 -1.5187
  912MOL0     H23097   3.870   4.952   6.097 -3.3169  0.7222  1.6723
  912MOL0     H23098   3.718   4.722   6.231  1.2292 -0.8993  0.4007
  912MOL0     H23099   3.676   4.897   6.196 -0.6037  1.1168  3.2630
  912MOL0     H23100   3.847   4.977   6.345  0.3887 -0.5183 -0.6834
  912MOL0     H23101   3.920   4.811   6.355  0.6536  1.1954  1.1014
  912MOL0     H23102   4.272   5.200   5.923  0.5274  2.1109 -0.7796
  912MOL0     H23103   4.483   5.314   5.887  0.6732 -1.8832  0.0486
  912MOL0     H23104   4.659   5.714   5.401 -0.6668  3.9214  0.9168
  912MOL0     H23105   4.826   5.890   5.413 -1.8511  1.7838  1.3702
  912MOL0     H23106   6.690   6.234   5.768  2.5060 -0.8231 -1.4862
  912MOL0     H23107   6.876   6.183   5.892 -2.7237 -1.2462 -2.7265
  912MOL0     H23108   7.240   6.431   6.309  0.9145  1.7940 -0.8732
  912MOL0     H23109   7.451   6.323   6.386  1.6461 -3.0322  0.7058
  912MOL0     H23110   7.672   6.247   6.409 -2.4333  0.3973  1.0367
  912MOL0     H23111   7.561   6.114   6.432 -1.4274 -2.1879 -1.9227
  912MOL0     H23112   7.840   6.068   6.311  1.6589  4.2431  1.9767
  912MOL0     H23113   7.740   5.949   6.387 -1.8453  0.0746 -0.6575
  912MOL0     H23114   7.763   6.072   6.613 -0.0706 -0.2442  0.5976
  912MOL0     H23115   7.874   6.176   6.524 -2.7124  0.0966 -0.8014
  912MOL0     H23116   8.017   5.947   6.460  0.1694 -1.1431  0.4798
  912MOL0     H23117   7.896   5.881   6.568 -0.7111  1.3867  2.4309
  912MOL0     H23118   8.176   6.042   6.830  1.3997  3.8337 -0.5958
  912MOL0     H23119   7.484   6.130   6.003  0.0658 -1.5588  0.6611
  912MOL0     H23120   7.282   6.240   5.926  1.8580 -0.9314 -0.1527
  913MOL0     O23121   8.349   8.803  10.899 -0.8863 -0.2624 -0.2592
  913MOL0     C23122   8.434   8.857  10.831 -0.2639  0.4862 -0.2306
  913MOL0     O23123   8.424   8.928  10.709  0.5397  0.2545  0.8680
  913MOL0     C23124   8.313   8.907  10.634  0.6315  0.1736  0.2808
  913MOL0     C23125   8.246   8.787  10.613  1.6014  0.0154 -0.1666
  913MOL0     C23126   8.132   8.777  10.529  0.8016  0.4876 -0.5579
  913MOL0     C23127   8.083   8.890  10.469  0.1071 -0.2375  0.2500
  913MOL0     O23128   7.955   8.905  10.421  0.1595  0.3313 -0.6812
  913MOL0     C23129   7.901   8.801  10.342  0.4011 -0.5553 -0.3942
  913MOL0     C23130   7.753   8.849  10.306  0.3972 -0.2095  0.2524
  913MOL0     C23131   7.666   8.857  10.436 -0.8932 -0.3860  0.3819
  913MOL0     C23132   7.529   8.904  10.396  0.2192  0.9093  0.0738
  913MOL0     C23133   7.431   8.917  10.513 -1.2808  0.1531  0.2511
  913MOL0     C23134   7.507   8.979  10.636  0.4754 -0.6436  0.3159
  913MOL0     C23135   7.545   9.124  10.602  0.2409 -0.1896  0.0664
  913MOL0     C23136   7.557   9.217  10.726  0.1012  0.7640  0.2098
  913MOL0     N23137   7.678   9.192  10.812 -0.3060 -0.1223  0.2192
  913MOL0     C23138   7.807   9.149  10.778  0.6856 -0.6681 -0.5836
  913MOL0     C23139   7.870   9.094  10.886 -1.1007  0.9196 -0.3311
  913MOL0     C23140   7.999   9.020  10.866 -0.7037 -0.1010  0.1097
  913MOL0     C23141   7.978   8.874  10.907 -0.4863 -1.0002 -0.5670
  913MOL0     C23142   7.884   8.792  10.820 -0.0634 -0.3068 -0.9759
  913MOL0     C23143   7.904   8.641  10.839 -0.0798 -0.2812 -0.3364
  913MOL0     O23144   7.856   8.559  10.726  0.1709 -0.4388  0.4950
  913MOL0     C23145   7.725   8.520  10.718  0.3325  0.3452 -0.1506
  913MOL0     C23146   7.618   8.578  10.791  0.4430  0.3559 -0.9385
  913MOL0     C23147   7.490   8.543  10.768  0.7089 -0.4401  0.4350
  913MOL0     C23148   7.392   8.627  10.854 -0.3405  0.6655  0.6679
  913MOL0     C23149   7.448   8.439  10.668  1.1505  0.1030 -0.7887
  913MOL0     C23150   7.304   8.401  10.648 -0.5403  0.6442  0.4392
  913MOL0     O23151   7.289   8.281  10.572  0.2885  0.1821  0.0041
  913MOL0     C23152   7.173   8.234  10.537  0.1547  0.3309 -0.0016
  913MOL0     C23153   7.050   8.246  10.607 -0.3420  0.0520  0.1016
  913MOL0     C23154   6.936   8.181  10.569  1.1621 -0.4231  1.0306
  913MOL0     C23155   6.929   8.109  10.450  0.6326 -0.4627  0.2336
  913MOL0     O23156   6.813   8.059  10.412  0.7424 -0.8498 -0.5811
  913MOL0     C23157   6.750   8.138  10.307 -0.4672  1.6923  0.2836
  913MOL0     C23158   6.622   8.072  10.254  0.2650 -0.9321  0.4795
  913MOL0     C23159   6.566   8.148  10.144  0.2662 -0.3905  0.7220
  913MOL0     C23160   6.437   8.069  10.095  0.2727 -0.4732  0.2008
  913MOL0     C23161   6.371   8.153   9.986  0.2534  0.0592 -0.0036
  913MOL0     C23162   6.296   8.278  10.040  0.8628 -0.5656  0.3889
  913MOL0     C23163   6.218   8.338   9.935  0.3979 -0.1575 -0.1048
  913MOL0     C23164   6.127   8.446  10.001  0.0934 -0.4242 -0.1118
  913MOL0    Cl23165   5.966   8.372  10.040 -0.1867 -0.6825  0.3273
  913MOL0     C23166   7.055   8.089  10.384 -0.7912  0.5941  0.7161
  913MOL0     C23167   7.178   8.144  10.436  0.0442 -0.0490 -0.2175
  913MOL0     O23168   7.218   8.469  10.690 -0.0973 -0.0942  0.0439
  913MOL0     C23169   7.557   8.378  10.604  0.9767  0.2438 -0.2592
  913MOL0     C23170   7.690   8.411  10.633 -0.3836 -0.4144  0.1256
  913MOL0     N23171   7.791   9.123  10.996  0.3916  0.5932 -0.4973
  913MOL0     N23172   7.690   9.188  10.952  0.3191 -0.7377 -0.5807
  913MOL0     C23173   8.155   9.006  10.484 -0.2894  0.3397  0.0211
  913MOL0     C23174   8.267   9.019  10.565 -0.3137  0.0124 -0.9769
  913MOL0     C23175   8.575   8.854  10.892 -0.0383 -0.0369 -0.2909
  913MOL0     C23176   8.597   8.777  11.010 -0.2168  0.5217  0.4569
  913MOL0     C23177   8.728   8.785  11.068 -0.4288 -0.3749 -0.1474
  913MOL0     C23178   8.834   8.856  11.008 -0.4701 -0.1604 -0.3065
  913MOL0     O23179   8.955   8.836  11.069  0.2683  0.7549  0.0260
  913MOL0     C23180   9.075   8.880  11.003  0.1294 -1.0270 -0.0300
  913MOL0     C23181   9.192   8.854  11.084 -0.9332 -0.0066 -1.2685
  913MOL0     C23182   9.186   8.930  11.219  0.0515  0.1188  0.5999
  913MOL0     C23183   9.317   8.924  11.300 -0.4212 -0.2869 -0.3788
  913MOL0     C23184   9.430   8.988  11.230  0.1362  0.4470 -0.1103
  913MOL0     C23185   9.519   9.035  11.166 -0.6067  0.2030 -0.5279
  913MOL0     C23186   8.805   8.931  10.897  0.2571  0.2995  0.6194
  913MOL0     C23187   8.676   8.938  10.837  0.9821  0.0034  0.9107
  913MOL0     H23188   8.279   8.696  10.662 -2.4960 -0.8066  1.4239
  913MOL0     H23189   8.088   8.678  10.531  3.4484 -0.8694  3.2407
  913MOL0     H23190   7.956   8.790  10.248 -0.3241  0.0186 -0.9008
  913MOL0     H23191   7.900   8.710  10.403 -0.9345 -0.1105  0.3026
  913MOL0     H23192   7.764   8.946  10.257 -2.0568  1.1160  2.0880
  913MOL0     H23193   7.707   8.778  10.237 -0.8017  2.0338 -1.3631
  913MOL0     H23194   7.673   8.762  10.489  2.3574  0.1439  1.1300
  913MOL0     H23195   7.706   8.935  10.501 -1.6237  0.2783  0.0426
  913MOL0     H23196   7.545   8.996  10.338 -0.1746  0.3769 -0.8986
  913MOL0     H23197   7.494   8.831  10.323  0.4351 -0.1352  0.9953
  913MOL0     H23198   7.345   8.978  10.486  0.8928  4.2007  1.6937
  913MOL0     H23199   7.386   8.819  10.533 -1.0680  0.6325  3.7813
  913MOL0     H23200   7.434   8.982  10.717  1.0387  3.1932  0.8568
  913MOL0     H23201   7.596   8.925  10.670  0.6660 -0.8891 -0.5501
  913MOL0     H23202   7.645   9.123  10.557  1.0697  0.2805  1.8171
  913MOL0     H23203   7.474   9.181  10.541  0.4376 -0.2898 -0.2577
  913MOL0     H23204   7.464   9.211  10.785 -0.0244  0.6386 -0.0023
  913MOL0     H23205   7.569   9.318  10.685  1.7571  0.7203  0.5124
  913MOL0     H23206   7.858   9.155  10.683  0.8846  5.1157 -0.4341
  913MOL0     H23207   8.026   9.035  10.761 -3.3007 -1.6168 -0.8938
  913MOL0     H23208   8.073   9.067  10.931 -0.3830  1.4924 -1.3387
  913MOL0     H23209   7.942   8.866  11.010 -3.0906 -0.9567 -1.4213
  913MOL0     H23210   8.080   8.836  10.915  0.8078  2.5096  3.2689
  913MOL0     H23211   7.885   8.817  10.714  1.1366  1.0076 -0.6808
  913MOL0     H23212   7.784   8.823  10.851 -1.3903 -0.2595 -4.7985
  913MOL0     H23213   7.854   8.609  10.931 -1.5148  2.5293 -0.0188
  913MOL0     H23214   8.010   8.614  10.851 -1.1283 -3.6145  5.4887
  913MOL0     H23215   7.637   8.648  10.872 -0.1994 -0.8027  0.2489
  913MOL0     H23216   7.445   8.691  10.925  0.0791  3.3893 -1.8923
  913MOL0     H23217   7.325   8.696  10.802 -3.3510 -0.6009  2.5563
  913MOL0     H23218   7.328   8.560  10.912  0.7536  0.7851  2.0738
  913MOL0     H23219   7.057   8.303  10.699 -0.4638 -2.0923  1.5243
  913MOL0     H23220   6.849   8.199  10.631  2.0944  2.5549  1.6578
  913MOL0     H23221   6.721   8.236  10.344 -3.2425  1.6977 -1.6011
  913MOL0     H23222   6.811   8.126  10.217 -3.0281 -3.5997 -1.1603
  913MOL0     H23223   6.648   7.976  10.209  1.2741  0.4994 -2.2262
  913MOL0     H23224   6.557   8.070  10.342  2.1199  1.1018  2.0239
  913MOL0     H23225   6.632   8.153  10.057  0.9938 -1.8073  1.1558
  913MOL0     H23226   6.546   8.248  10.183  0.0529 -0.1073 -0.1009
  913MOL0     H23227   6.470   7.975  10.050 -0.5718  0.1943 -1.9568
  913MOL0     H23228   6.364   8.051  10.175 -0.8309  0.9439 -0.4429
  913MOL0     H23229   6.303   8.083   9.937  1.7609 -1.0538 -0.6080
  913MOL0     H23230   6.436   8.176   9.900 -2.0026  1.6971 -1.3771
  913MOL0     H23231   6.213   8.230  10.093  0.5398  0.3060  0.6826
  913MOL0     H23232   6.354   8.348  10.100  1.6409 -1.0432  0.2079
  913MOL0     H23233   6.145   8.268   9.892 -1.0453  1.5584 -0.5919
  913MOL0     H23234   6.284   8.379   9.859  0.1438  0.7448  0.1556
  913MOL0     H23235   6.106   8.533   9.939  1.2537 -2.0957 -3.0646
  913MOL0     H23236   6.175   8.480  10.093  2.2042  0.1648 -1.3467
  913MOL0     H23237   7.044   8.019  10.302 -1.3946 -0.3794  1.6023
  913MOL0     H23238   7.276   8.106  10.409 -0.0943 -1.5096  1.1633
  913MOL0     H23239   7.522   8.295  10.543 -4.3498  1.2846  0.8708
  913MOL0     H23240   7.775   8.360  10.589  0.8023  1.1865  0.4849
  913MOL0     H23241   8.114   9.091  10.430  1.6080  0.0811 -1.9569
  913MOL0     H23242   8.319   9.114  10.576  1.2750 -1.0725  1.6538
  913MOL0     H23243   8.531   8.708  11.062 -2.2761  1.6312 -0.5793
  913MOL0     H23244   8.734   8.738  11.165 -1.6051 -0.4225 -0.0839
  913MOL0     H23245   9.081   8.827  10.907  0.9113  2.1456 -1.8776
  913MOL0     H23246   9.058   8.985  10.976  1.5933 -0.5407  0.7993
  913MOL0     H23247   9.289   8.874  11.036  0.4916 -2.0612  0.5819
  913MOL0     H23248   9.183   8.749  11.114 -0.9674 -0.1708 -1.8284
  913MOL0     H23249   9.103   8.891  11.277  1.2657 -1.3782  1.4002
  913MOL0     H23250   9.164   9.034  11.192 -0.3203  0.0582  0.6715
  913MOL0     H23251   9.337   8.820  11.329 -0.6217 -0.5395 -1.1343
  913MOL0     H23252   9.308   8.978  11.395  3.1027  1.4073 -0.8576
  913MOL0     H23253   9.590   9.097  11.115  0.1826  0.1828  0.5171
  913MOL0     H23254   8.885   8.987  10.851 -1.5756  2.7665  0.2671
  913MOL0     H23255   8.667   9.000  10.749  0.1366 -1.3389  0.0225
  914MOL0     O23256   3.738  10.881   6.727 -0.3172  0.1653  0.5716
  914MOL0     C23257   3.827  10.876   6.636  0.2398 -0.0513 -0.3938
  914MOL0     O23258   3.916  10.770   6.605 -0.1727  0.7133  0.3174
  914MOL0     C23259   3.907  10.647   6.678  0.0708 -0.3621  0.1207
  914MOL0     C23260   3.830  10.542   6.622  0.1729 -0.7743 -0.1243
  914MOL0     C23261   3.830  10.422   6.680  0.2103  0.4014 -0.1616
  914MOL0     C23262   3.924  10.396   6.781  1.2468 -0.2951  0.2012
  914MOL0     O23263   3.936  10.266   6.812  0.5956 -0.0964 -0.4069
  914MOL0     C23264   3.991  10.228   6.938 -0.2467  0.5470 -1.3158
  914MOL0     C23265   3.903  10.228   7.060  0.0613  0.4477  0.8981
  914MOL0     C23266   3.973  10.207   7.197 -0.9663  1.3442 -0.3474
  914MOL0     C23267   4.034  10.327   7.265  0.2374  0.6448 -0.2624
  914MOL0     C23268   4.121  10.272   7.382  0.2303 -0.1627 -0.0650
  914MOL0     C23269   4.197  10.371   7.472 -0.4279  0.1834  0.7617
  914MOL0     C23270   4.106  10.470   7.541 -0.1266  0.0641 -0.6227
  914MOL0     C23271   4.008  10.410   7.640  0.7382  0.4416 -0.1702
  914MOL0     N23272   3.940  10.497   7.732 -0.6066  0.2359 -1.0929
  914MOL0     C23273   3.849  10.592   7.699  0.6053  0.9106 -0.7013
  914MOL0     C23274   3.814  10.655   7.809  0.8215 -0.5216  0.0656
  914MOL0     C23275   3.718  10.776   7.817  0.1179  0.1785 -0.2668
  914MOL0     C23276   3.761  10.880   7.926 -0.0068  0.0268  0.1292
  914MOL0     C23277   3.672  11.006   7.928 -0.0511 -0.4427 -0.1686
  914MOL0     C23278   3.517  10.980   7.945 -0.3563  0.4206  0.9591
  914MOL0     O23279   3.490  10.874   8.044 -0.3168  0.1503 -0.2312
  914MOL0     C23280   3.440  10.919   8.158 -0.6626 -0.5687 -0.2906
  914MOL0     C23281   3.337  10.847   8.219  0.3800 -0.9436 -0.2014
  914MOL0     C23282   3.263  10.903   8.319  0.6452 -0.0932 -0.9168
  914MOL0     C23283   3.140  10.818   8.362  0.2145  0.6893  0.1673
  914MOL0     C23284   3.314  11.018   8.384  0.0469 -0.3602 -0.2400
  914MOL0     C23285   3.260  11.058   8.511  0.2848 -0.1931  0.3718
  914MOL0     O23286   3.242  11.191   8.532  0.4797 -0.7259 -0.1373
  914MOL0     C23287   3.147  11.237   8.622  0.2374  0.5311  0.7490
  914MOL0     C23288   3.186  11.326   8.717  0.7879 -1.2518 -0.3846
  914MOL0     C23289   3.082  11.381   8.801 -0.7438 -0.8134 -0.0674
  914MOL0     C23290   2.946  11.350   8.778  0.1905 -0.0891  0.5194
  914MOL0     O23291   2.845  11.409   8.853  0.5040 -0.2038  0.4760
  914MOL0     C23292   2.872  11.408   8.991  0.3962  0.4206  0.1328
  914MOL0     C23293   2.729  11.415   9.060 -0.0528  0.1598 -0.8808
  914MOL0     C23294   2.659  11.277   9.048  0.9692 -0.0284 -0.1908
  914MOL0     C23295   2.531  11.271   9.126  0.3486  0.1965 -0.5814
  914MOL0     C23296   2.434  11.159   9.077 -0.6379  0.2384  0.0152
  914MOL0     C23297   2.506  11.028   9.040 -0.6428  0.4533  0.1823
  914MOL0     C23298   2.588  10.963   9.158 -0.3260 -0.3216  0.4189
  914MOL0     C23299   2.584  10.814   9.150  0.1537  0.1011 -0.3254
  914MOL0    Cl23300   2.659  10.750   9.004 -0.5319 -0.1898 -0.3115
  914MOL0     C23301   2.912  11.261   8.671  0.7480 -0.4647 -0.2592
  914MOL0     C23302   3.010  11.199   8.592  0.0663 -0.4986 -0.0716
  914MOL0     O23303   3.235  10.976   8.599  0.6435 -0.0501  0.2785
  914MOL0     C23304   3.421  11.091   8.332  0.2147  0.4286  1.0340
  914MOL0     C23305   3.482  11.039   8.225 -0.2278  0.0764  0.4699
  914MOL0     N23306   3.877  10.591   7.916  0.2003 -0.0531  0.3620
  914MOL0     N23307   3.953  10.496   7.869  0.7258 -0.0778  0.5576
  914MOL0     C23308   3.991  10.506   6.843  0.1701 -0.0366  0.4332
  914MOL0     C23309   3.981  10.631   6.793  1.4617  0.4098  0.6267
  914MOL0     C23310   3.871  11.004   6.576 -0.5055 -1.1029  0.3316
  914MOL0     C23311   4.000  11.015   6.517 -0.0635 -0.0237  0.1974
  914MOL0     C23312   4.036  11.118   6.443 -0.3330 -1.1837  0.1995
  914MOL0     C23313   3.941  11.218   6.414 -0.6340  0.6339 -0.8694
  914MOL0     O23314   3.992  11.335   6.354 -0.6464  0.5712 -0.5788
  914MOL0     C23315   3.911  11.452   6.339  0.4402 -0.0536  0.6337
  914MOL0     C23316   3.917  11.535   6.477  0.6098 -0.3287  0.0248
  914MOL0     C23317   4.057  11.585   6.511  0.0451 -1.1371 -0.1428
  914MOL0     C23318   4.110  11.698   6.420  0.1751 -0.3933 -0.5416
  914MOL0     C23319   4.004  11.802   6.393  0.7642  0.0356 -0.6615
  914MOL0     C23320   3.922  11.875   6.354 -0.4301  0.5633 -0.5804
  914MOL0     C23321   3.806  11.213   6.460  0.0723 -0.2995 -0.3479
  914MOL0     C23322   3.776  11.108   6.542 -0.6847 -1.2492  0.0924
  914MOL0     H23323   3.769  10.567   6.536 -4.3688 -1.7948  2.5220
  914MOL0     H23324   3.783  10.333   6.637 -1.8292  0.6635  1.3615
  914MOL0     H23325   4.030  10.126   6.930 -1.8481 -0.9383  4.5140
  914MOL0     H23326   4.073  10.295   6.964  0.1974  0.8459 -3.3198
  914MOL0     H23327   3.857  10.327   7.064 -3.9648 -1.2110  1.4319
  914MOL0     H23328   3.825  10.151   7.049  1.5615 -0.6991 -3.5680
  914MOL0     H23329   3.902  10.159   7.265  2.1614 -0.9413  1.6158
  914MOL0     H23330   4.061  10.141   7.194 -1.1020  1.1525 -0.1685
  914MOL0     H23331   4.101  10.370   7.190  1.2281 -3.0067 -1.6807
  914MOL0     H23332   3.955  10.393   7.301 -1.7548 -2.5039  1.6189
  914MOL0     H23333   4.060  10.219   7.456 -0.9923  2.7102  1.1170
  914MOL0     H23334   4.193  10.203   7.336 -3.0745 -2.9508 -1.5487
  914MOL0     H23335   4.251  10.324   7.554  2.4474  2.7380  0.4793
  914MOL0     H23336   4.265  10.420   7.403 -0.1891 -1.8741 -0.5485
  914MOL0     H23337   4.171  10.533   7.603  0.2663 -1.7485  0.8947
  914MOL0     H23338   4.056  10.543   7.477 -2.1722 -0.5683  0.1947
  914MOL0     H23339   4.047  10.319   7.685 -1.2432 -0.6043 -0.4632
  914MOL0     H23340   3.927  10.379   7.573  1.3883 -1.5836 -0.0544
  914MOL0     H23341   3.813  10.622   7.601 -0.0869 -0.6795 -0.9713
  914MOL0     H23342   3.717  10.835   7.726  1.0228  2.0394  0.8670
  914MOL0     H23343   3.620  10.730   7.833 -0.2157 -0.2239 -3.0125
  914MOL0     H23344   3.860  10.920   7.902 -0.3597  2.0255  1.6383
  914MOL0     H23345   3.767  10.827   8.021  1.0699 -1.7866 -0.9011
  914MOL0     H23346   3.686  11.055   7.831  0.1639 -1.9286 -0.9126
  914MOL0     H23347   3.712  11.085   7.993  0.8847 -1.3472  0.3797
  914MOL0     H23348   3.482  10.940   7.849 -0.8917 -0.0440  1.3408
  914MOL0     H23349   3.457  11.070   7.962 -0.8342  0.1632  0.6778
  914MOL0     H23350   3.320  10.749   8.177 -0.1302 -1.5141  1.2855
  914MOL0     H23351   3.105  10.739   8.294 -1.2705 -1.0114  2.7530
  914MOL0     H23352   3.156  10.774   8.461 -1.0125  0.4475  0.2760
  914MOL0     H23353   3.055  10.883   8.382 -0.6180 -1.0211  2.8115
  914MOL0     H23354   3.291  11.352   8.718  1.2858 -3.1085 -0.6383
  914MOL0     H23355   3.110  11.454   8.876  0.9409 -0.8633 -0.6064
  914MOL0     H23356   2.927  11.317   9.018  0.6944  1.4730  3.6033
  914MOL0     H23357   2.923  11.502   9.008  0.9753  0.2005 -0.3571
  914MOL0     H23358   2.741  11.441   9.166 -0.7789 -1.0932 -0.4774
  914MOL0     H23359   2.664  11.484   9.006 -3.2821 -1.3316  0.8612
  914MOL0     H23360   2.714  11.196   9.096 -2.7135 -2.6294  0.0738
  914MOL0     H23361   2.643  11.263   8.940 -0.5449  1.6766 -0.2420
  914MOL0     H23362   2.555  11.264   9.233 -0.4338  1.3496 -0.3053
  914MOL0     H23363   2.477  11.363   9.101 -2.2239 -1.2774 -0.8110
  914MOL0     H23364   2.368  11.193   8.996  2.4039 -0.1854 -2.8748
  914MOL0     H23365   2.359  11.140   9.154 -4.3484  1.3437 -3.0531
  914MOL0     H23366   2.423  10.957   9.032 -1.2359  1.2267 -0.7392
  914MOL0     H23367   2.571  11.034   8.953  0.4752  0.3217  0.9910
  914MOL0     H23368   2.534  10.994   9.247 -2.1281  0.9809 -1.0482
  914MOL0     H23369   2.692  10.999   9.162 -0.9670  1.7129 -0.1306
  914MOL0     H23370   2.481  10.778   9.160  0.6671 -0.9375  1.6113
  914MOL0     H23371   2.634  10.782   9.241 -2.2283  0.6307  1.2710
  914MOL0     H23372   2.805  11.260   8.652  0.4424  0.6179  1.1755
  914MOL0     H23373   2.990  11.145   8.501  3.8840 -0.0680 -1.3320
  914MOL0     H23374   3.453  11.184   8.378 -1.1530  0.6287  1.6566
  914MOL0     H23375   3.559  11.092   8.170 -1.3165 -0.3721 -1.5942
  914MOL0     H23376   4.067  10.485   6.918  1.0952  0.0181 -0.4676
  914MOL0     H23377   4.036  10.712   6.839 -1.0179  0.8658  3.0247
  914MOL0     H23378   4.069  10.931   6.527 -1.1547 -0.9419  0.2762
  914MOL0     H23379   4.134  11.132   6.398  0.0635 -1.3435  1.0053
  914MOL0     H23380   3.948  11.506   6.251  0.6722 -1.3250 -0.0738
  914MOL0     H23381   3.803  11.436   6.327  0.2830  0.4247  1.3166
  914MOL0     H23382   3.888  11.463   6.554 -1.6946  2.2965  1.7665
  914MOL0     H23383   3.837  11.609   6.484 -1.8493 -2.7466 -0.8477
  914MOL0     H23384   4.127  11.500   6.509 -1.6963 -2.6138 -1.2380
  914MOL0     H23385   4.062  11.630   6.611  1.4886  1.2295 -1.1719
  914MOL0     H23386   4.144  11.664   6.322 -0.0221  2.4624 -1.6856
  914MOL0     H23387   4.198  11.742   6.469  0.6882  0.3557 -2.0751
  914MOL0     H23388   3.845  11.938   6.313  0.6138  1.0263 -1.8879
  914MOL0     H23389   3.726  11.284   6.440 -0.9804 -1.1370  0.7408
  914MOL0     H23390   3.676  11.122   6.583 -0.7028  1.7168 -0.7286
  915MOL0     O23391  10.671   2.265   7.202 -0.9077 -0.1244 -0.9259
  915MOL0     C23392  10.679   2.321   7.094  0.6062 -0.1091  0.3927
  915MOL0     O23393  10.577   2.327   7.000  0.1826  0.1831  0.2490
  915MOL0     C23394  10.477   2.234   7.007 -0.2314 -0.0788 -0.2790
  915MOL0     C23395  10.492   2.096   7.011  0.8269 -0.0375 -0.4246
  915MOL0     C23396  10.384   2.019   7.022 -0.4483  0.3399  0.3146
  915MOL0     C23397  10.252   2.067   7.035 -0.6675  0.3535  0.4614
  915MOL0     O23398  10.157   1.970   7.034 -0.3383 -0.6383 -0.2278
  915MOL0     C23399  10.020   1.999   7.011  0.2277 -0.2292  0.5202
  915MOL0     C23400   9.945   1.871   7.043  0.1241  0.0994  0.0361
  915MOL0     C23401   9.806   1.872   6.974 -0.4661 -0.2466 -0.2017
  915MOL0     C23402   9.750   1.731   6.938 -0.3846 -0.1208  0.5926
  915MOL0     C23403   9.615   1.744   6.872  0.6554  0.2044  0.7847
  915MOL0     C23404   9.549   1.613   6.840  0.3920  0.6496 -0.0399
  915MOL0     C23405   9.414   1.629   6.768  0.5671  0.0870  0.3358
  915MOL0     C23406   9.301   1.655   6.866 -0.0416 -0.2090 -0.9473
  915MOL0     N23407   9.178   1.725   6.810  0.4385  0.5883  0.3229
  915MOL0     C23408   9.106   1.681   6.697  0.3766 -0.7460  0.4923
  915MOL0     C23409   9.021   1.785   6.668 -0.0227 -0.1921 -0.4926
  915MOL0     C23410   8.934   1.783   6.547  0.3513 -0.2043 -0.0563
  915MOL0     C23411   8.783   1.762   6.555  0.0044  0.1744 -0.3874
  915MOL0     C23412   8.697   1.890   6.565 -0.2689  0.0708  0.2605
  915MOL0     C23413   8.672   1.969   6.440 -0.2050  0.2636  0.3493
  915MOL0     O23414   8.634   1.883   6.333 -0.0002 -0.0240  0.5726
  915MOL0     C23415   8.503   1.841   6.325 -0.5942 -0.2604  0.5206
  915MOL0     C23416   8.400   1.875   6.411  0.9740  0.0886  0.7376
  915MOL0     C23417   8.270   1.832   6.392  0.2159  0.9729  0.3770
  915MOL0     C23418   8.174   1.852   6.517 -0.1674  0.1389  0.5088
  915MOL0     C23419   8.239   1.771   6.269 -0.2862 -0.0520 -0.6138
  915MOL0     C23420   8.101   1.761   6.220 -0.3027  0.7253  0.0460
  915MOL0     O23421   8.084   1.763   6.091 -0.3990  1.6198  0.6304
  915MOL0     C23422   7.972   1.702   6.031  0.1998 -0.1762  0.7550
  915MOL0     C23423   7.898   1.761   5.918  0.1769 -0.0876 -0.0332
  915MOL0     C23424   7.788   1.697   5.862 -0.6641  0.0875 -0.7316
  915MOL0     C23425   7.743   1.581   5.912  0.3166 -0.0792 -0.4974
  915MOL0     O23426   7.635   1.514   5.853 -0.1281  0.4286 -0.3718
  915MOL0     C23427   7.554   1.567   5.748  0.4099 -0.2449 -0.7052
  915MOL0     C23428   7.454   1.447   5.731 -0.2562  0.1462 -0.0545
  915MOL0     C23429   7.323   1.486   5.677 -0.1684 -0.1518 -0.9402
  915MOL0     C23430   7.232   1.545   5.791  0.3422 -0.2377  0.2063
  915MOL0     C23431   7.098   1.594   5.734  0.5854 -0.1499 -0.6087
  915MOL0     C23432   6.998   1.476   5.715  0.3247 -0.4765 -0.6770
  915MOL0     C23433   6.865   1.520   5.656  0.0920 -1.0108 -0.2673
  915MOL0     C23434   6.797   1.628   5.729 -1.0571  0.5940  0.0191
  915MOL0    Cl23435   6.861   1.796   5.671 -0.0126 -0.1005 -0.0358
  915MOL0     C23436   7.805   1.527   6.021 -0.1581 -0.2922  0.5984
  915MOL0     C23437   7.913   1.587   6.084 -0.8185  0.1817  0.6497
  915MOL0     O23438   8.008   1.779   6.295  0.2481 -0.0143  0.4040
  915MOL0     C23439   8.341   1.735   6.182  0.2014 -0.2905  0.1929
  915MOL0     C23440   8.473   1.777   6.211  0.3267  0.0271  0.0328
  915MOL0     N23441   9.017   1.868   6.776 -0.6128  0.1209 -0.1785
  915MOL0     N23442   9.101   1.829   6.865  0.5975  0.1676  0.1839
  915MOL0     C23443  10.237   2.205   7.042 -0.2419  0.4767  0.0534
  915MOL0     C23444  10.352   2.289   7.025  0.3318  0.0454 -0.4828
  915MOL0     C23445  10.804   2.400   7.066 -0.1249  0.1423 -1.3184
  915MOL0     C23446  10.900   2.402   7.167 -0.0595 -0.1911 -0.1199
  915MOL0     C23447  11.021   2.467   7.131  0.2365 -0.6034  0.6829
  915MOL0     C23448  11.040   2.533   7.008 -0.3829  0.5733 -0.2532
  915MOL0     O23449  11.164   2.590   6.991 -0.6738 -0.3046 -0.0626
  915MOL0     C23450  11.161   2.690   6.884  1.5125  0.1655 -0.3947
  915MOL0     C23451  11.281   2.775   6.867  0.5420  0.1346  0.6504
  915MOL0     C23452  11.409   2.693   6.840 -0.3838 -0.1006  0.1199
  915MOL0     C23453  11.518   2.791   6.816  0.1030  0.2691 -0.2765
  915MOL0     C23454  11.619   2.716   6.754 -0.3739  0.2681 -0.4486
  915MOL0     C23455  11.695   2.652   6.688  0.2270 -1.6269 -0.9874
  915MOL0     C23456  10.934   2.529   6.915 -0.7701  0.0990 -0.1087
  915MOL0     C23457  10.816   2.466   6.943 -0.8161  0.3888 -0.2384
  915MOL0     H23458  10.591   2.053   7.013  2.2415  2.7708  4.0158
  915MOL0     H23459  10.403   1.912   7.018  1.3938  0.6767 -1.4231
  915MOL0     H23460   9.976   2.085   7.062  1.0111  0.2185  0.4527
  915MOL0     H23461  10.015   2.013   6.903 -0.1832 -1.1619  0.4063
  915MOL0     H23462  10.006   1.790   7.001 -0.3712 -0.7409  0.8854
  915MOL0     H23463   9.939   1.848   7.150 -1.4732  0.7286  0.1100
  915MOL0     H23464   9.735   1.914   7.046 -1.6462 -1.0428 -0.8829
  915MOL0     H23465   9.808   1.919   6.875 -4.3750 -2.4357 -1.5225
  915MOL0     H23466   9.826   1.685   6.874 -1.2990  1.4436 -1.7643
  915MOL0     H23467   9.728   1.661   7.018 -1.5762 -1.9300 -1.2253
  915MOL0     H23468   9.553   1.814   6.930  1.5831 -1.2867  3.7885
  915MOL0     H23469   9.635   1.794   6.777  0.3865  0.5555  0.9078
  915MOL0     H23470   9.628   1.570   6.778  0.1912  1.6389 -0.9925
  915MOL0     H23471   9.528   1.539   6.919  0.0260 -1.4736 -2.0145
  915MOL0     H23472   9.420   1.718   6.705  0.4784  0.3376  0.6794
  915MOL0     H23473   9.393   1.543   6.703  0.3229  1.3102 -1.2724
  915MOL0     H23474   9.335   1.711   6.953  1.5335 -1.2363 -0.8644
  915MOL0     H23475   9.273   1.558   6.909  1.5160  1.0892  3.5208
  915MOL0     H23476   9.150   1.604   6.634 -2.0042 -2.2329  0.5353
  915MOL0     H23477   8.942   1.886   6.510 -1.3695 -0.1004 -0.2346
  915MOL0     H23478   8.972   1.702   6.484 -0.1034 -2.6983  2.6335
  915MOL0     H23479   8.770   1.709   6.650  0.0301 -2.0704 -1.5677
  915MOL0     H23480   8.753   1.693   6.476 -0.8725 -1.9740  1.6737
  915MOL0     H23481   8.741   1.965   6.632 -0.1971 -0.1917  0.5113
  915MOL0     H23482   8.607   1.857   6.617  1.5675 -3.0738  1.7796
  915MOL0     H23483   8.763   2.017   6.405 -1.4727  1.7172 -1.1193
  915MOL0     H23484   8.598   2.049   6.447 -0.1626  0.4690 -1.1723
  915MOL0     H23485   8.414   1.941   6.496 -1.9497  4.7954 -1.9980
  915MOL0     H23486   8.227   1.892   6.604 -1.4253  2.4831  0.2763
  915MOL0     H23487   8.094   1.921   6.489  1.6802  1.9445 -0.7013
  915MOL0     H23488   8.129   1.755   6.537  1.8531 -0.5807  1.9286
  915MOL0     H23489   7.918   1.861   5.881 -0.1009 -0.2725 -0.6997
  915MOL0     H23490   7.753   1.732   5.766  3.0127  3.4284 -1.0902
  915MOL0     H23491   7.508   1.665   5.767 -0.1364 -0.7676  0.8977
  915MOL0     H23492   7.611   1.587   5.657  0.5495 -1.0936 -0.8117
  915MOL0     H23493   7.507   1.372   5.671 -0.1526 -0.2863  0.5734
  915MOL0     H23494   7.433   1.390   5.822  0.6947  1.6780  1.1690
  915MOL0     H23495   7.281   1.391   5.643  0.6222 -0.9849  0.3113
  915MOL0     H23496   7.328   1.562   5.599 -0.7355  2.4502  1.4038
  915MOL0     H23497   7.211   1.474   5.872 -3.2517  0.7726  0.3131
  915MOL0     H23498   7.285   1.632   5.831 -1.1662 -0.5750  3.2967
  915MOL0     H23499   7.118   1.650   5.642  1.0852  0.3240 -0.2173
  915MOL0     H23500   7.051   1.654   5.813 -0.3076 -1.4758 -0.0989
  915MOL0     H23501   7.052   1.398   5.660 -0.0686 -2.1666  1.2340
  915MOL0     H23502   6.981   1.437   5.816  3.3884 -1.7891 -0.5636
  915MOL0     H23503   6.786   1.446   5.644 -0.2938 -0.5647 -0.5181
  915MOL0     H23504   6.885   1.556   5.554  1.3405 -0.2292  0.2248
  915MOL0     H23505   6.805   1.613   5.837 -0.3683 -3.8900 -0.4753
  915MOL0     H23506   6.691   1.620   5.704 -1.1823 -0.3080  0.7957
  915MOL0     H23507   7.774   1.433   6.067 -1.3192 -0.3527 -0.2590
  915MOL0     H23508   7.963   1.527   6.160  1.4127  1.4816  0.3116
  915MOL0     H23509   8.320   1.707   6.079  0.3551  1.4392 -0.3377
  915MOL0     H23510   8.554   1.757   6.142  0.3411 -0.6317  0.2303
  915MOL0     H23511  10.146   2.262   7.058  1.2984  2.3739  2.7818
  915MOL0     H23512  10.337   2.395   7.007 -0.9383 -0.6981 -4.9065
  915MOL0     H23513  10.887   2.364   7.268 -2.0830  2.0479  0.5273
  915MOL0     H23514  11.101   2.460   7.205  0.3203  1.1804  0.7910
  915MOL0     H23515  11.150   2.639   6.788  1.9218 -3.7913  1.4604
  915MOL0     H23516  11.073   2.754   6.895  2.1785  0.7819  2.2344
  915MOL0     H23517  11.303   2.839   6.953  2.1101 -3.0876  2.8365
  915MOL0     H23518  11.253   2.843   6.786 -1.6323  0.1485  1.3298
  915MOL0     H23519  11.393   2.625   6.756  0.9548  0.7090 -0.8315
  915MOL0     H23520  11.433   2.634   6.928  1.8624  0.7586  0.1557
  915MOL0     H23521  11.543   2.826   6.917 -0.1750 -1.2016  0.3380
  915MOL0     H23522  11.488   2.872   6.750  3.8413 -0.5368 -3.3314
  915MOL0     H23523  11.764   2.597   6.628  1.5504 -0.9565 -0.1325
  915MOL0     H23524  10.935   2.570   6.815 -0.9153 -2.6643 -1.3374
  915MOL0     H23525  10.735   2.468   6.871  0.0621  1.0867 -1.2420
  916MOL0     O23526   4.055   9.949   5.877  0.2725  0.0409 -0.4171
  916MOL0     C23527   4.133   9.972   5.975  0.2967  0.0327 -0.1210
  916MOL0     O23528   4.163  10.098   6.031  0.6972 -0.2082 -0.2123
  916MOL0     C23529   4.059  10.183   6.001 -0.2755  0.4601  0.4283
  916MOL0     C23530   3.924  10.162   6.042 -0.1720 -0.4909  0.4396
  916MOL0     C23531   3.828  10.267   6.004  0.0328 -0.0048 -0.2643
  916MOL0     C23532   3.869  10.378   5.947 -0.1538 -1.0496 -0.1585
  916MOL0     O23533   3.767  10.467   5.921  0.3899  0.4353 -0.4340
  916MOL0     C23534   3.781  10.555   5.806  0.4033  0.1938 -0.2209
  916MOL0     C23535   3.650  10.615   5.770  0.2815 -0.3995 -0.8515
  916MOL0     C23536   3.656  10.712   5.651  0.4754 -0.3649  0.0747
  916MOL0     C23537   3.537  10.807   5.642  0.7218 -0.1671 -0.5465
  916MOL0     C23538   3.532  10.901   5.509  0.4188  0.6710  1.0967
  916MOL0     C23539   3.433  11.002   5.533 -0.0601  0.0968  0.1256
  916MOL0     C23540   3.347  11.059   5.418  0.0417  0.1965  0.3359
  916MOL0     C23541   3.244  11.158   5.466  0.0566  0.1332 -0.3643
  916MOL0     N23542   3.299  11.291   5.497  0.4162 -0.0386 -0.4842
  916MOL0     C23543   3.327  11.394   5.409 -0.2609 -0.2229 -0.5554
  916MOL0     C23544   3.364  11.504   5.488 -0.1488  0.3499 -0.0152
  916MOL0     C23545   3.401  11.649   5.455 -0.0035  0.0623  0.0914
  916MOL0     C23546   3.354  11.750   5.560  0.5226 -0.1688  0.5683
  916MOL0     C23547   3.411  11.891   5.515  0.4009  0.8003 -0.8981
  916MOL0     C23548   3.303  12.003   5.508  0.4915 -0.2029  0.2954
  916MOL0     O23549   3.370  12.126   5.466  0.3975 -1.3517 -0.4934
  916MOL0     C23550   3.317  12.243   5.529  0.3107 -0.1484  0.6948
  916MOL0     C23551   3.405  12.350   5.515 -0.2070  0.4308  0.9745
  916MOL0     C23552   3.373  12.482   5.558  0.5940 -0.3187 -0.2519
  916MOL0     C23553   3.465  12.598   5.524 -0.2774  1.1944  0.3687
  916MOL0     C23554   3.242  12.503   5.614 -0.8204  0.3468 -0.5001
  916MOL0     C23555   3.182  12.626   5.659 -0.7840  0.5016 -0.6125
  916MOL0     O23556   3.047  12.647   5.643  0.5520  0.3735  0.7245
  916MOL0     C23557   2.999  12.770   5.664  0.2205 -0.0485  0.6709
  916MOL0     C23558   3.068  12.888   5.616 -0.6631  1.1260  1.1048
  916MOL0     C23559   3.012  13.013   5.625  0.2480  0.4669  0.4634
  916MOL0     C23560   2.877  13.030   5.670  0.7011 -0.2816  0.9886
  916MOL0     O23561   2.823  13.160   5.641 -0.5005  0.2077 -0.0750
  916MOL0     C23562   2.730  13.212   5.743 -1.0925  0.9882  0.6761
  916MOL0     C23563   2.716  13.357   5.730 -0.1115 -0.5716  0.3344
  916MOL0     C23564   2.635  13.403   5.603 -0.4588 -0.2456 -0.5264
  916MOL0     C23565   2.660  13.549   5.583 -0.0332  0.2445  0.5207
  916MOL0     C23566   2.588  13.605   5.452 -0.5375  0.9716  0.4620
  916MOL0     C23567   2.639  13.746   5.423 -0.0054 -0.6997  0.3072
  916MOL0     C23568   2.622  13.803   5.275  0.1574  0.7306 -0.6648
  916MOL0     C23569   2.677  13.943   5.254 -0.1878  0.5299  0.7958
  916MOL0    Cl23570   2.651  13.988   5.082 -0.9078 -0.0532 -0.3426
  916MOL0     C23571   2.808  12.916   5.724  0.1450  0.0695  0.7034
  916MOL0     C23572   2.869  12.788   5.725  0.7032  0.5622 -0.5067
  916MOL0     O23573   3.257  12.699   5.722  0.4191 -0.0903 -0.0063
  916MOL0     C23574   3.160  12.386   5.634 -0.4526 -0.9961  0.3796
  916MOL0     C23575   3.196  12.255   5.579 -0.2259 -1.3616 -1.1176
  916MOL0     N23576   3.341  11.473   5.616 -0.2906  0.1723 -0.7773
  916MOL0     N23577   3.309  11.346   5.623 -0.1066  0.2583 -0.1069
  916MOL0     C23578   4.001  10.400   5.915  0.4588 -0.3678  0.5994
  916MOL0     C23579   4.095  10.296   5.928 -0.5730 -1.0667  0.1200
  916MOL0     C23580   4.221   9.860   6.026  1.2267 -0.7677  1.8014
  916MOL0     C23581   4.232   9.752   5.936 -0.2382 -0.8685  0.2480
  916MOL0     C23582   4.324   9.645   5.969  0.2549  0.3163 -0.3540
  916MOL0     C23583   4.392   9.639   6.088 -0.0944  0.9916 -0.7649
  916MOL0     O23584   4.473   9.542   6.142  0.3643  0.1524  0.5465
  916MOL0     C23585   4.448   9.411   6.102 -0.1635  0.6728  0.0964
  916MOL0     C23586   4.545   9.362   5.995  0.2920 -0.1093 -0.5649
  916MOL0     C23587   4.682   9.359   6.045  0.5755 -0.1603 -0.7371
  916MOL0     C23588   4.780   9.360   5.925 -1.2593 -0.1964  0.0758
  916MOL0     C23589   4.914   9.345   5.982 -0.1256 -0.1926 -0.4893
  916MOL0     C23590   5.022   9.319   6.030  0.9129  0.6295 -1.1967
  916MOL0     C23591   4.385   9.755   6.170  1.4048 -0.7020  0.4557
  916MOL0     C23592   4.294   9.862   6.143  0.0124  0.8183  0.3609
  916MOL0     H23593   3.899  10.077   6.105  0.2687  0.9086  2.6431
  916MOL0     H23594   3.725  10.250   6.033  0.4014  3.5140  4.2666
  916MOL0     H23595   3.855  10.634   5.825 -0.5320  1.5182 -1.8226
  916MOL0     H23596   3.821  10.495   5.724 -1.8559 -1.5834 -0.1235
  916MOL0     H23597   3.586  10.528   5.755 -2.3023  1.1991  0.1313
  916MOL0     H23598   3.619  10.662   5.864  0.5718 -4.1066  1.2692
  916MOL0     H23599   3.743  10.777   5.658  0.1674 -0.0051  0.6208
  916MOL0     H23600   3.662  10.643   5.566  1.1018  0.6441 -0.7234
  916MOL0     H23601   3.442  10.755   5.652 -0.2083  1.6525  0.5745
  916MOL0     H23602   3.547  10.872   5.729 -0.7817 -0.4250 -0.1583
  916MOL0     H23603   3.628  10.939   5.471 -0.2071 -0.0748 -1.4553
  916MOL0     H23604   3.499  10.835   5.428 -2.0165  5.3194 -2.1358
  916MOL0     H23605   3.366  10.966   5.611  1.0227 -0.5669  0.7867
  916MOL0     H23606   3.487  11.089   5.572 -1.0064  1.6166 -1.7833
  916MOL0     H23607   3.404  11.096   5.332 -0.7255 -0.9647 -0.7059
  916MOL0     H23608   3.297  10.968   5.384  1.9250 -1.3486  1.4699
  916MOL0     H23609   3.202  11.128   5.562  0.0735  2.7248  0.5154
  916MOL0     H23610   3.156  11.163   5.400  0.7670 -0.6055 -1.4093
  916MOL0     H23611   3.329  11.406   5.302 -1.2020 -1.5211 -0.7422
  916MOL0     H23612   3.510  11.652   5.446  0.0103  2.2586  0.5238
  916MOL0     H23613   3.356  11.674   5.358  1.6276 -4.7545 -2.2522
  916MOL0     H23614   3.388  11.710   5.655 -0.5762 -0.1192  0.9939
  916MOL0     H23615   3.246  11.755   5.579  0.3296 -1.5741 -0.0325
  916MOL0     H23616   3.450  11.883   5.413 -2.7868  0.0961 -2.1789
  916MOL0     H23617   3.478  11.918   5.597 -2.1461  0.2430  1.5104
  916MOL0     H23618   3.255  12.012   5.606  1.6360  3.6911  0.6721
  916MOL0     H23619   3.225  11.986   5.433  2.4432 -0.5688 -1.7477
  916MOL0     H23620   3.502  12.323   5.473 -0.5758 -0.6602  0.7971
  916MOL0     H23621   3.525  12.610   5.614 -2.1874 -1.4919  2.1289
  916MOL0     H23622   3.528  12.575   5.437  0.0310  3.2685 -0.0147
  916MOL0     H23623   3.406  12.686   5.497 -1.3811  0.8039  1.4278
  916MOL0     H23624   3.170  12.878   5.580 -0.1720 -0.7121  2.7592
  916MOL0     H23625   3.059  13.093   5.568 -2.8424  0.2379 -2.7628
  916MOL0     H23626   2.635  13.162   5.721 -0.0040 -0.3175 -1.3890
  916MOL0     H23627   2.769  13.198   5.843  2.3077  6.2357  0.4927
  916MOL0     H23628   2.657  13.387   5.817 -1.0810  0.9290 -0.7906
  916MOL0     H23629   2.811  13.411   5.728 -0.7917  0.6504  0.0119
  916MOL0     H23630   2.531  13.378   5.625 -0.2165 -1.3419 -0.5363
  916MOL0     H23631   2.665  13.351   5.511 -2.1638 -1.1773 -0.6006
  916MOL0     H23632   2.625  13.592   5.678 -2.3530  0.9389 -0.5733
  916MOL0     H23633   2.768  13.566   5.573 -0.1545  0.1633 -1.1363
  916MOL0     H23634   2.480  13.614   5.468 -0.5399  1.6264  0.1325
  916MOL0     H23635   2.606  13.541   5.366  1.0429  1.4309  0.4158
  916MOL0     H23636   2.593  13.806   5.502  0.7553  0.4599 -0.1064
  916MOL0     H23637   2.747  13.751   5.439  0.2311  3.1038 -1.3815
  916MOL0     H23638   2.516  13.806   5.250 -0.4877 -5.5920 -0.2210
  916MOL0     H23639   2.681  13.732   5.217 -1.3961 -0.2255 -1.1407
  916MOL0     H23640   2.784  13.951   5.277 -0.2275  1.9418  0.5894
  916MOL0     H23641   2.629  14.015   5.321 -4.9385 -2.0035  0.5151
  916MOL0     H23642   2.705  12.932   5.753  0.3036  4.2161 -0.3577
  916MOL0     H23643   2.809  12.706   5.764  2.6840 -0.2602  0.9765
  916MOL0     H23644   3.065  12.387   5.687 -0.4097  4.6101  0.9912
  916MOL0     H23645   3.127  12.172   5.591 -1.6806  0.0762  0.9811
  916MOL0     H23646   4.027  10.497   5.873 -1.1281  0.2885  1.0330
  916MOL0     H23647   4.199  10.306   5.901 -0.4886  0.3943  0.8961
  916MOL0     H23648   4.172   9.755   5.845 -1.1282  2.9374  0.8086
  916MOL0     H23649   4.309   9.575   5.887 -0.9267 -0.3002  0.3555
  916MOL0     H23650   4.456   9.344   6.188 -2.5499  0.2483  0.0712
  916MOL0     H23651   4.354   9.400   6.046 -0.0669 -1.6503  0.2721
  916MOL0     H23652   4.538   9.422   5.904  1.5244 -1.6277 -1.7013
  916MOL0     H23653   4.515   9.259   5.973  1.0517 -0.0088 -2.1883
  916MOL0     H23654   4.699   9.269   6.105 -3.6050 -1.2201 -0.8149
  916MOL0     H23655   4.701   9.443   6.113 -1.4261 -0.1235 -0.1607
  916MOL0     H23656   4.773   9.449   5.861  3.0321  0.1048 -0.2695
  916MOL0     H23657   4.773   9.281   5.849  1.7158  0.6202 -1.2034
  916MOL0     H23658   5.117   9.292   6.071  0.0244 -1.3630 -0.3037
  916MOL0     H23659   4.450   9.750   6.257 -2.0301  1.6395  3.5065
  916MOL0     H23660   4.299   9.946   6.211  1.8054  0.1327  1.1569
  917MOL0     O23661   5.571   7.060   2.045 -0.0164 -0.5910  1.2173
  917MOL0     C23662   5.589   7.064   1.925 -0.1570  0.4053 -0.4445
  917MOL0     O23663   5.490   7.080   1.836 -0.8287 -0.2633  1.3842
  917MOL0     C23664   5.366   7.128   1.869 -0.2706 -0.4438 -0.2758
  917MOL0     C23665   5.292   7.096   1.990 -0.3833 -0.5346  0.2503
  917MOL0     C23666   5.167   7.158   2.011  0.2666 -0.4570 -0.0561
  917MOL0     C23667   5.101   7.226   1.917  0.3266 -0.3234 -0.3107
  917MOL0     O23668   4.972   7.271   1.938  0.2486 -0.1985  0.2609
  917MOL0     C23669   4.899   7.313   1.819 -0.1224  0.1712  0.4338
  917MOL0     C23670   4.747   7.310   1.856 -0.7968  0.3231 -0.3463
  917MOL0     C23671   4.669   7.363   1.735  1.0414  0.2671  0.3604
  917MOL0     C23672   4.526   7.390   1.768 -0.0229  0.3078  0.5928
  917MOL0     C23673   4.457   7.481   1.666  0.4917 -0.2817  0.0610
  917MOL0     C23674   4.309   7.447   1.651 -0.5096  0.6118 -0.2920
  917MOL0     C23675   4.235   7.501   1.771  0.2518  0.5277 -0.8691
  917MOL0     C23676   4.088   7.457   1.785  0.8633  0.1673 -0.2175
  917MOL0     N23677   4.026   7.524   1.901 -0.2704  0.5045 -0.0229
  917MOL0     C23678   3.893   7.515   1.922  0.7115 -0.4633  0.6379
  917MOL0     C23679   3.876   7.564   2.049 -0.4822 -0.6248  0.5578
  917MOL0     C23680   3.757   7.584   2.132  0.7980  0.3734  0.0042
  917MOL0     C23681   3.653   7.688   2.058 -0.3788  0.2674  0.6202
  917MOL0     C23682   3.563   7.741   2.172 -0.1516  0.0203  1.2654
  917MOL0     C23683   3.471   7.851   2.112 -0.0310  0.1862  0.6361
  917MOL0     O23684   3.355   7.867   2.199  0.6743 -0.1732 -0.0169
  917MOL0     C23685   3.247   7.787   2.182 -1.0137 -0.0754 -0.1397
  917MOL0     C23686   3.133   7.845   2.245 -0.1163 -0.3100  0.1343
  917MOL0     C23687   3.016   7.777   2.241  0.4325  0.2551 -0.5189
  917MOL0     C23688   2.915   7.816   2.338 -0.9292  0.3324  0.2698
  917MOL0     C23689   3.009   7.647   2.182  0.6075 -0.4028  0.0469
  917MOL0     C23690   2.891   7.555   2.191 -0.2142  0.1184 -0.6115
  917MOL0     O23691   2.765   7.603   2.235 -1.0596 -0.3163 -0.2287
  917MOL0     C23692   2.654   7.525   2.204  0.1826 -0.3232  0.5571
  917MOL0     C23693   2.537   7.563   2.275 -1.0976 -0.3239  0.1344
  917MOL0     C23694   2.418   7.488   2.258 -0.9131 -0.1943  0.5566
  917MOL0     C23695   2.414   7.383   2.165 -0.4354 -0.0516  0.0787
  917MOL0     O23696   2.298   7.311   2.158 -0.4786 -0.2057  0.3557
  917MOL0     C23697   2.257   7.243   2.044  0.1227 -0.0388  0.1205
  917MOL0     C23698   2.108   7.239   2.050 -0.6192 -0.4836 -1.2770
  917MOL0     C23699   2.056   7.171   1.922 -0.1523 -0.2283  0.4589
  917MOL0     C23700   1.922   7.111   1.959  1.1855  0.4992  0.5655
  917MOL0     C23701   1.856   7.018   1.842 -0.9083 -0.1641 -0.1306
  917MOL0     C23702   1.707   7.013   1.814 -0.1175 -0.5430 -0.1781
  917MOL0     C23703   1.632   6.915   1.907 -0.0157  0.2347  0.4241
  917MOL0     C23704   1.633   6.954   2.054 -0.0041  0.2750  0.3604
  917MOL0    Cl23705   1.488   6.886   2.122 -0.0753 -0.0385 -0.0206
  917MOL0     C23706   2.522   7.365   2.077  0.0043 -0.7271  0.2210
  917MOL0     C23707   2.639   7.432   2.098  0.6614  0.4488  0.5068
  917MOL0     O23708   2.914   7.440   2.159 -0.4530  0.3244  0.0979
  917MOL0     C23709   3.122   7.608   2.104  0.3229  0.3692 -0.3278
  917MOL0     C23710   3.238   7.675   2.106  0.2591  0.4863  0.5133
  917MOL0     N23711   4.000   7.572   2.107  0.8425  0.5422  0.0500
  917MOL0     N23712   4.088   7.549   2.017 -0.1960  0.3433  0.0388
  917MOL0     C23713   5.168   7.255   1.794 -0.4407 -0.3220  0.0121
  917MOL0     C23714   5.296   7.211   1.775 -0.1021 -1.3159  0.5925
  917MOL0     C23715   5.730   7.030   1.896 -0.7339  0.4834  0.1031
  917MOL0     C23716   5.772   6.989   1.767  0.6284 -0.7437 -0.1603
  917MOL0     C23717   5.904   6.952   1.743 -0.4063 -0.3272 -0.1823
  917MOL0     C23718   6.008   6.946   1.834 -0.8518 -0.6356 -0.8453
  917MOL0     O23719   6.137   6.897   1.812  1.0392 -0.7193  0.9096
  917MOL0     C23720   6.170   6.852   1.680  0.7998  0.5983 -0.1638
  917MOL0     C23721   6.311   6.794   1.670  0.2009  0.2999  0.6290
  917MOL0     C23722   6.410   6.838   1.780 -0.3596 -0.3996  0.5779
  917MOL0     C23723   6.554   6.816   1.729  0.9631  0.6804  0.6599
  917MOL0     C23724   6.580   6.685   1.672  0.1675  0.1749  0.4887
  917MOL0     C23725   6.613   6.574   1.628  0.0542 -0.1553 -0.8283
  917MOL0     C23726   5.978   6.989   1.961  0.4599 -0.8663  0.2353
  917MOL0     C23727   5.840   7.024   1.993  0.2610 -0.0246  0.3373
  917MOL0     H23728   5.337   7.039   2.071  3.3776 -1.7100 -2.4213
  917MOL0     H23729   5.121   7.149   2.109  2.7318 -0.9761  1.1404
  917MOL0     H23730   4.938   7.409   1.784 -1.6474  1.2974  1.6797
  917MOL0     H23731   4.912   7.249   1.731 -0.4372 -0.6068  0.9429
  917MOL0     H23732   4.727   7.202   1.856  0.4175  0.0558 -2.2851
  917MOL0     H23733   4.721   7.353   1.953  1.6133 -0.3224  0.6476
  917MOL0     H23734   4.700   7.461   1.697  0.7672  0.6640  1.1405
  917MOL0     H23735   4.684   7.286   1.659  0.1739  0.5213 -0.0852
  917MOL0     H23736   4.485   7.293   1.797  0.7805  0.1653  1.3223
  917MOL0     H23737   4.525   7.440   1.866 -1.0613 -0.0875  0.7898
  917MOL0     H23738   4.461   7.586   1.698 -0.6675  0.1133 -0.9904
  917MOL0     H23739   4.510   7.475   1.571  0.5814 -0.8424  0.1482
  917MOL0     H23740   4.267   7.496   1.562  2.4510 -0.4348 -2.4104
  917MOL0     H23741   4.306   7.338   1.642  2.7520  0.5697 -2.4597
  917MOL0     H23742   4.286   7.464   1.861 -1.1835 -2.0508 -1.0460
  917MOL0     H23743   4.244   7.610   1.766 -0.0842  0.5375 -1.2992
  917MOL0     H23744   4.085   7.350   1.807 -1.4508 -0.1083 -1.5890
  917MOL0     H23745   4.042   7.485   1.690 -0.0892  2.3355  0.8117
  917MOL0     H23746   3.819   7.475   1.853  2.0553 -0.0736 -1.1130
  917MOL0     H23747   3.708   7.490   2.159  3.2398 -0.9991 -0.0099
  917MOL0     H23748   3.796   7.631   2.222  0.4549  1.9058 -0.6150
  917MOL0     H23749   3.594   7.615   2.003  0.1351 -2.0727  2.9261
  917MOL0     H23750   3.695   7.770   2.000  2.2442 -2.2675 -1.3441
  917MOL0     H23751   3.619   7.784   2.255 -1.5180 -0.3956  2.4451
  917MOL0     H23752   3.504   7.661   2.218 -1.0887 -2.3340 -3.4166
  917MOL0     H23753   3.442   7.822   2.011  1.8892  1.2176 -0.2677
  917MOL0     H23754   3.526   7.945   2.103 -1.9091  1.3072  0.3146
  917MOL0     H23755   3.143   7.944   2.287  1.6481 -0.0980 -0.6822
  917MOL0     H23756   2.896   7.741   2.414 -0.4613  2.3768  2.5200
  917MOL0     H23757   2.942   7.907   2.392  2.3558 -1.1730  1.3723
  917MOL0     H23758   2.825   7.848   2.284 -0.0521  1.2442 -0.6972
  917MOL0     H23759   2.541   7.642   2.350 -0.0881 -0.8708  0.6814
  917MOL0     H23760   2.329   7.503   2.319 -0.3414  2.9616  0.8133
  917MOL0     H23761   2.291   7.297   1.955  1.8453  1.1432  1.4282
  917MOL0     H23762   2.292   7.141   2.024 -4.5137 -1.8147 -0.1518
  917MOL0     H23763   2.078   7.187   2.142 -1.4930  1.1262 -0.6204
  917MOL0     H23764   2.069   7.340   2.066 -1.7141 -1.1332  0.5085
  917MOL0     H23765   2.123   7.094   1.883 -1.6542 -1.6951  0.6447
  917MOL0     H23766   2.049   7.250   1.847 -1.0399  0.8378  1.6093
  917MOL0     H23767   1.933   7.046   2.047 -0.2572 -2.8466 -1.5476
  917MOL0     H23768   1.852   7.193   1.977  1.0181 -0.0197  2.4765
  917MOL0     H23769   1.881   6.916   1.872  0.9117 -0.5746 -2.6909
  917MOL0     H23770   1.883   7.057   1.743 -0.7332  1.1358  0.4119
  917MOL0     H23771   1.665   7.114   1.818 -1.5042 -1.0222 -1.6958
  917MOL0     H23772   1.694   6.988   1.709 -1.7093 -0.9572  0.0920
  917MOL0     H23773   1.668   6.812   1.901 -2.2131 -0.9394  4.2159
  917MOL0     H23774   1.531   6.919   1.865 -0.5814 -0.8122  1.6261
  917MOL0     H23775   1.612   7.061   2.053 -2.4245 -0.1510 -0.2691
  917MOL0     H23776   1.730   6.924   2.096  0.2331 -2.2997 -1.7241
  917MOL0     H23777   2.519   7.290   1.999  1.2230  0.9792 -1.5547
  917MOL0     H23778   2.716   7.390   2.035 -1.4848  1.7487 -3.2616
  917MOL0     H23779   3.120   7.508   2.062 -0.9536  0.6200 -0.9252
  917MOL0     H23780   3.324   7.640   2.049  0.6616 -1.1439  1.9916
  917MOL0     H23781   5.114   7.315   1.721  1.9138 -0.1881 -1.7240
  917MOL0     H23782   5.350   7.223   1.681 -2.8937  2.8983 -0.7808
  917MOL0     H23783   5.704   6.978   1.683  2.2643  1.0807 -1.8247
  917MOL0     H23784   5.919   6.911   1.643  3.9895 -1.3647  0.7205
  917MOL0     H23785   6.094   6.783   1.642 -0.5883  2.1011 -0.1994
  917MOL0     H23786   6.172   6.941   1.617  1.3183  2.8026  2.7488
  917MOL0     H23787   6.344   6.828   1.572 -0.1601 -0.4612  0.2357
  917MOL0     H23788   6.302   6.685   1.677 -0.8754  0.3683  0.4202
  917MOL0     H23789   6.401   6.790   1.878 -0.8397  3.4178  2.5946
  917MOL0     H23790   6.411   6.944   1.806  0.4243 -0.0483 -0.8054
  917MOL0     H23791   6.624   6.835   1.811  0.1848  0.0812  1.4862
  917MOL0     H23792   6.575   6.884   1.646 -1.9895  3.0050  1.6073
  917MOL0     H23793   6.634   6.477   1.587 -0.2538 -0.6290  0.1252
  917MOL0     H23794   6.055   7.003   2.037  2.5665  2.4576 -2.2155
  917MOL0     H23795   5.822   7.050   2.097 -4.6972 -1.6268  0.1608
  918MOL0     O23796   3.035  10.476   5.994 -0.5692 -0.6649 -0.0902
  918MOL0     C23797   3.154  10.486   6.021 -0.8021  0.1137  0.2098
  918MOL0     O23798   3.202  10.530   6.135 -0.1249 -0.0047 -0.2965
  918MOL0     C23799   3.111  10.577   6.224  0.1771  1.3811 -0.7424
  918MOL0     C23800   3.064  10.710   6.230  0.5180  0.5955  0.6815
  918MOL0     C23801   2.997  10.769   6.333 -0.0882  0.1015  0.2823
  918MOL0     C23802   2.955  10.676   6.437  0.7171  0.3038  0.4740
  918MOL0     O23803   2.866  10.723   6.530  0.0499  0.6260 -0.7633
  918MOL0     C23804   2.892  10.844   6.601  0.2656  0.8934 -0.4632
  918MOL0     C23805   2.773  10.896   6.690 -0.3389  0.0820 -0.2794
  918MOL0     C23806   2.649  10.914   6.610  0.9850  0.7466 -0.5131
  918MOL0     C23807   2.521  10.935   6.699 -0.1912 -0.0046  0.2534
  918MOL0     C23808   2.394  10.966   6.611 -0.6667  0.1524  0.2529
  918MOL0     C23809   2.401  11.100   6.540 -0.7720 -0.7157 -0.2827
  918MOL0     C23810   2.271  11.130   6.462 -1.3514  0.2007 -0.0464
  918MOL0     C23811   2.267  11.272   6.404 -0.4369 -0.2651  0.5934
  918MOL0     N23812   2.133  11.311   6.369  0.0576  0.3488  0.0538
  918MOL0     C23813   2.068  11.291   6.243  0.1840 -0.3648 -1.7154
  918MOL0     C23814   1.949  11.352   6.255  1.2113  0.2870  1.0347
  918MOL0     C23815   1.854  11.379   6.137 -0.2992  0.2570 -0.6071
  918MOL0     C23816   1.745  11.271   6.148  0.3714 -0.1953 -0.8575
  918MOL0     C23817   1.638  11.292   6.041 -0.1065 -0.0814 -0.0191
  918MOL0     C23818   1.529  11.183   6.045  0.5556  0.0681  0.0278
  918MOL0     O23819   1.473  11.170   6.175  0.6056  0.1030 -0.1485
  918MOL0     C23820   1.357  11.098   6.167  0.7153  0.3369  1.0975
  918MOL0     C23821   1.348  10.978   6.099 -0.1389 -0.4207 -0.4632
  918MOL0     C23822   1.216  10.918   6.078 -0.4923  0.4578  0.5152
  918MOL0     C23823   1.223  10.776   6.012  0.0956  0.3601  0.3580
  918MOL0     C23824   1.094  10.988   6.107  0.2936  1.0200 -0.8071
  918MOL0     C23825   0.962  10.930   6.081  0.1444  0.1043 -1.0260
  918MOL0     O23826   0.862  10.995   6.137  0.5764 -0.9678 -0.1938
  918MOL0     C23827   0.727  10.962   6.127 -0.4186  0.5020 -0.0178
  918MOL0     C23828   0.659  10.935   6.242 -0.9860  0.3220 -0.7048
  918MOL0     C23829   0.526  10.925   6.246 -0.1448  0.7975 -1.1869
  918MOL0     C23830   0.446  10.921   6.130 -0.1960 -0.1395 -0.6943
  918MOL0     O23831   0.318  10.874   6.148 -0.0270  1.1236  0.6027
  918MOL0     C23832   0.242  10.834   6.033  0.2167  0.3237  0.2297
  918MOL0     C23833   0.117  10.762   6.098  0.0196  0.1629  0.3644
  918MOL0     C23834   0.004  10.740   5.993 -0.0776  0.0047  0.2153
  918MOL0     C23835  -0.131  10.697   6.059  0.1252 -0.1183 -0.0060
  918MOL0     C23836  -0.135  10.551   6.101 -0.4984  0.6107  0.4070
  918MOL0     C23837  -0.272  10.490   6.142 -0.3959  0.9026 -0.1403
  918MOL0     C23838  -0.336  10.430   6.016 -0.2667 -0.3259 -0.0623
  918MOL0     C23839  -0.487  10.406   6.024  0.5477 -0.1750 -0.5321
  918MOL0    Cl23840  -0.525  10.263   6.119  0.3691  0.3330 -0.6283
  918MOL0     C23841   0.520  10.946   6.005 -0.7091 -1.1616 -0.8332
  918MOL0     C23842   0.658  10.961   6.004 -0.1459 -0.4459  0.3154
  918MOL0     O23843   0.945  10.822   6.021  0.5771  0.9713 -0.1830
  918MOL0     C23844   1.109  11.113   6.172 -1.5060  0.2997 -0.2344
  918MOL0     C23845   1.241  11.170   6.200  1.0831  0.2389 -0.8760
  918MOL0     N23846   1.927  11.381   6.386  0.9277  0.3786  0.5086
  918MOL0     N23847   2.038  11.361   6.446 -0.0096  0.3897 -1.0782
  918MOL0     C23848   2.997  10.545   6.438 -0.2354  0.6934 -1.2078
  918MOL0     C23849   3.084  10.503   6.339 -0.8033 -1.1109  0.0220
  918MOL0     C23850   3.246  10.420   5.929 -0.0744  0.8064  0.1905
  918MOL0     C23851   3.209  10.357   5.808 -0.2213  0.3554 -0.3302
  918MOL0     C23852   3.301  10.299   5.723 -0.3867  0.6769 -0.3120
  918MOL0     C23853   3.430  10.278   5.763  0.3347 -0.3384 -0.8742
  918MOL0     O23854   3.529  10.219   5.692 -0.3006  0.1226 -0.2017
  918MOL0     C23855   3.521  10.116   5.606 -0.0354  0.2266  0.0100
  918MOL0     C23856   3.510   9.979   5.684 -0.3578  0.2708 -0.3572
  918MOL0     C23857   3.633   9.957   5.779  0.3873  0.2180  0.1153
  918MOL0     C23858   3.604   9.822   5.849  0.2756  0.5612  0.2950
  918MOL0     C23859   3.721   9.770   5.924  0.7132 -0.1063 -0.8918
  918MOL0     C23860   3.785   9.732   6.019 -0.1742  0.0655 -0.4860
  918MOL0     C23861   3.472  10.328   5.887  0.0317  0.3753  0.3033
  918MOL0     C23862   3.381  10.406   5.961  0.0782  0.5044 -0.2215
  918MOL0     H23863   3.083  10.771   6.142 -0.4962  4.1532  2.6892
  918MOL0     H23864   2.973  10.874   6.325 -0.6503  0.1199  1.8506
  918MOL0     H23865   2.983  10.824   6.659 -1.4595 -1.5582  1.5852
  918MOL0     H23866   2.915  10.931   6.538 -2.6977  0.7998 -1.8381
  918MOL0     H23867   2.740  10.837   6.775 -1.3307  0.9769 -0.0155
  918MOL0     H23868   2.790  10.999   6.722  0.1699 -0.1309  0.1409
  918MOL0     H23869   2.668  11.001   6.547  0.5281  0.9536 -0.3727
  918MOL0     H23870   2.631  10.834   6.537  2.0876  0.7650 -0.8212
  918MOL0     H23871   2.500  10.839   6.748  1.2053  0.5112  1.9927
  918MOL0     H23872   2.542  11.006   6.780 -0.8343 -2.0652  2.3268
  918MOL0     H23873   2.373  10.880   6.547 -1.1871 -1.2867  2.2485
  918MOL0     H23874   2.311  10.962   6.683 -0.7481 -2.7372  0.1049
  918MOL0     H23875   2.422  11.181   6.611 -1.3803  2.4111 -3.4041
  918MOL0     H23876   2.485  11.099   6.470  0.2246  3.2139  0.6077
  918MOL0     H23877   2.248  11.064   6.379 -1.2363 -0.2891  0.3096
  918MOL0     H23878   2.198  11.120   6.544  0.9668 -1.7292  1.9293
  918MOL0     H23879   2.331  11.265   6.316  0.5592  1.1199  1.1568
  918MOL0     H23880   2.320  11.346   6.465 -0.7809  0.0663  0.4908
  918MOL0     H23881   2.117  11.244   6.158  0.6418 -0.5613 -1.3434
  918MOL0     H23882   1.816  11.482   6.145  2.8835  1.4094  2.7057
  918MOL0     H23883   1.911  11.357   6.046  4.3404  0.8718  1.8285
  918MOL0     H23884   1.697  11.276   6.246 -1.7412 -2.5356 -1.6778
  918MOL0     H23885   1.791  11.171   6.149  1.0978  0.1342 -0.7839
  918MOL0     H23886   1.683  11.289   5.941 -0.4349 -1.7798 -0.1404
  918MOL0     H23887   1.610  11.397   6.056 -0.4163 -0.3467  1.4410
  918MOL0     H23888   1.577  11.093   6.007  2.1316  2.0603 -3.0753
  918MOL0     H23889   1.451  11.209   5.973 -2.0262  1.0013  2.9145
  918MOL0     H23890   1.436  10.915   6.086  0.1219 -0.7910  2.5329
  918MOL0     H23891   1.202  10.693   6.079  2.2250 -2.5491 -2.3039
  918MOL0     H23892   1.157  10.776   5.925 -0.3756 -0.1120  0.7145
  918MOL0     H23893   1.327  10.771   5.978  1.3621 -0.0828  3.8484
  918MOL0     H23894   0.720  10.943   6.331  1.1252 -1.5960 -1.8642
  918MOL0     H23895   0.476  10.913   6.341 -1.4332 -0.4499 -1.9919
  918MOL0     H23896   0.220  10.923   5.972  0.0979 -0.2771 -0.6294
  918MOL0     H23897   0.286  10.766   5.960 -1.1236 -1.2238  0.8134
  918MOL0     H23898   0.153  10.672   6.148  2.7493  0.2592 -1.2516
  918MOL0     H23899   0.079  10.828   6.177 -3.1499  1.1421 -1.7576
  918MOL0     H23900   0.031  10.657   5.928  1.7447 -1.5088  2.7197
  918MOL0     H23901   0.002  10.825   5.924  0.2655  0.3631  0.6312
  918MOL0     H23902  -0.153  10.767   6.140 -1.3624 -0.1183 -0.3848
  918MOL0     H23903  -0.211  10.718   5.987 -0.3892  3.0499  1.3266
  918MOL0     H23904  -0.066  10.539   6.184  0.8555 -1.6658 -0.9544
  918MOL0     H23905  -0.092  10.495   6.017  1.9260  2.6846  0.1280
  918MOL0     H23906  -0.258  10.421   6.226 -0.6190  2.4226  1.1959
  918MOL0     H23907  -0.336  10.567   6.186 -1.5683  1.2314 -2.2727
  918MOL0     H23908  -0.286  10.336   5.990 -1.0933 -0.7805 -0.0630
  918MOL0     H23909  -0.326  10.492   5.927 -3.6076 -0.4635 -0.6786
  918MOL0     H23910  -0.519  10.402   5.919 -0.5765  1.4183 -0.2820
  918MOL0     H23911  -0.533  10.497   6.063  0.1954 -0.6906  0.2735
  918MOL0     H23912   0.480  10.943   5.904  3.0478  0.1262 -2.5657
  918MOL0     H23913   0.720  10.972   5.916  1.3177  0.3742  1.4051
  918MOL0     H23914   1.037  11.192   6.189 -1.2696  0.0858  2.0176
  918MOL0     H23915   1.250  11.269   6.244 -0.4837 -1.0564  2.7315
  918MOL0     H23916   2.963  10.476   6.515 -1.7120  1.4101 -1.1836
  918MOL0     H23917   3.137  10.408   6.342  0.7282 -0.4419 -2.7856
  918MOL0     H23918   3.108  10.371   5.770  1.3206  2.7959 -4.0413
  918MOL0     H23919   3.262  10.259   5.630  1.1978 -1.4376 -0.1578
  918MOL0     H23920   3.439  10.129   5.534 -1.5053  0.7209  1.6920
  918MOL0     H23921   3.609  10.130   5.542 -1.4253  3.0067 -1.4978
  918MOL0     H23922   3.508   9.890   5.620  1.6944  0.1419 -0.3081
  918MOL0     H23923   3.420   9.977   5.746  0.6210  1.8742  1.2245
  918MOL0     H23924   3.635  10.041   5.849  1.5918  2.5711 -2.5367
  918MOL0     H23925   3.726   9.960   5.721  0.9004 -0.2888  0.8908
  918MOL0     H23926   3.593   9.750   5.767 -0.8750  0.0639  0.8577
  918MOL0     H23927   3.509   9.825   5.903  0.2895  1.5159  0.2936
  918MOL0     H23928   3.854   9.702   6.095 -0.5520 -1.7455 -0.8106
  918MOL0     H23929   3.578  10.309   5.902  0.3858  1.4163 -0.8010
  918MOL0     H23930   3.426  10.451   6.049  2.8247  0.7068 -1.6156
  919MOL0     O23931  10.299   4.831   0.484 -0.3551 -0.2191 -0.4185
  919MOL0     C23932  10.255   4.724   0.445  0.7869  1.1005 -0.5201
  919MOL0     O23933  10.308   4.652   0.346 -0.5384 -0.2749  0.4181
  919MOL0     C23934  10.417   4.707   0.282 -0.9410 -0.6000  0.5475
  919MOL0     C23935  10.546   4.648   0.287  0.1886  0.1384  0.2971
  919MOL0     C23936  10.645   4.698   0.206  0.5114 -0.1249 -0.3031
  919MOL0     C23937  10.632   4.819   0.138  0.2351 -0.1749  0.3743
  919MOL0     O23938  10.738   4.874   0.074  1.3036  1.4172  0.3705
  919MOL0     C23939  10.709   4.851  -0.065 -0.7122  0.0119 -0.0507
  919MOL0     C23940  10.841   4.869  -0.142  0.9288  0.3574 -0.7183
  919MOL0     C23941  10.949   4.774  -0.101  0.0302  0.2331  0.1612
  919MOL0     C23942  10.924   4.624  -0.119 -0.0108  0.4067 -0.2948
  919MOL0     C23943  11.026   4.540  -0.029 -0.0770  0.7251 -0.3416
  919MOL0     C23944  11.158   4.494  -0.100 -0.4742  0.2279  0.6525
  919MOL0     C23945  11.272   4.474   0.005 -0.2582 -0.5767  0.1835
  919MOL0     C23946  11.406   4.437  -0.067 -0.3861 -0.1771 -0.6527
  919MOL0     N23947  11.480   4.545  -0.131  0.7159  1.0983 -0.6188
  919MOL0     C23948  11.494   4.567  -0.269  0.4433 -1.1033 -0.3632
  919MOL0     C23949  11.581   4.679  -0.257  0.1566  0.1307  0.0931
  919MOL0     C23950  11.638   4.758  -0.379 -0.4784  0.1887 -0.0229
  919MOL0     C23951  11.738   4.673  -0.445  0.4559 -0.1293  0.0024
  919MOL0     C23952  11.779   4.729  -0.580 -0.5046  0.7865 -0.6340
  919MOL0     C23953  11.913   4.671  -0.646  0.1107 -0.5162 -0.5776
  919MOL0     O23954  11.914   4.528  -0.618 -0.7938  0.1048 -0.4156
  919MOL0     C23955  12.037   4.469  -0.616 -0.1546  0.5218 -0.0310
  919MOL0     C23956  12.156   4.531  -0.617  1.0240 -0.5783 -0.7910
  919MOL0     C23957  12.276   4.465  -0.597  1.1909  0.7738 -0.0357
  919MOL0     C23958  12.407   4.530  -0.614  0.0114 -0.0729 -0.4679
  919MOL0     C23959  12.264   4.325  -0.570 -0.6350 -0.8055  0.2031
  919MOL0     C23960  12.381   4.229  -0.558  0.0712 -0.0108 -0.6993
  919MOL0     O23961  12.351   4.096  -0.575 -0.7305 -0.2681  0.3189
  919MOL0     C23962  12.465   4.019  -0.543  1.3524  0.5409  1.3705
  919MOL0     C23963  12.441   3.935  -0.443  0.2880 -0.3115 -0.7278
  919MOL0     C23964  12.538   3.832  -0.406 -0.2219 -0.4125  0.0917
  919MOL0     C23965  12.658   3.828  -0.471 -0.1376  0.6522 -0.9058
  919MOL0     O23966  12.759   3.744  -0.425  0.0399 -0.1907  0.3818
  919MOL0     C23967  12.765   3.713  -0.283 -0.2255  0.0768 -0.0734
  919MOL0     C23968  12.903   3.747  -0.219 -0.5685  0.3522  0.2735
  919MOL0     C23969  13.023   3.699  -0.305  0.1865  0.1605 -0.4061
  919MOL0     C23970  13.153   3.754  -0.253  0.3423  0.6014  1.1067
  919MOL0     C23971  13.259   3.737  -0.364 -0.3199  0.2793 -1.0023
  919MOL0     C23972  13.402   3.763  -0.311  1.2952  1.2560 -0.0725
  919MOL0     C23973  13.513   3.738  -0.417  0.0846  0.1308  0.4058
  919MOL0     C23974  13.531   3.595  -0.466  0.6935 -0.6522 -0.9810
  919MOL0    Cl23975  13.697   3.582  -0.533 -0.1114  0.4598 -0.0947
  919MOL0     C23976  12.682   3.907  -0.578  0.4136 -0.7387 -0.2488
  919MOL0     C23977  12.584   4.002  -0.612 -0.5771 -0.1003 -0.7474
  919MOL0     O23978  12.497   4.270  -0.518  0.2936  0.0580 -0.0174
  919MOL0     C23979  12.148   4.265  -0.555  0.4855  0.5217  0.5807
  919MOL0     C23980  12.030   4.330  -0.591  0.7951 -0.4481 -1.4105
  919MOL0     N23981  11.612   4.708  -0.129  0.1013  0.6458  0.5476
  919MOL0     N23982  11.553   4.628  -0.053 -0.4305 -1.2963 -0.4673
  919MOL0     C23983  10.505   4.883   0.142  0.2625 -0.8192 -0.5244
  919MOL0     C23984  10.403   4.820   0.213  0.1825 -0.3325 -0.1465
  919MOL0     C23985  10.121   4.676   0.505  0.0889 -0.0144 -0.6071
  919MOL0     C23986  10.057   4.744   0.606 -0.9576 -0.4669  0.3165
  919MOL0     C23987   9.924   4.712   0.636  0.0198  0.2424 -0.1330
  919MOL0     C23988   9.864   4.595   0.586  0.8010 -0.7928 -0.5131
  919MOL0     O23989   9.732   4.559   0.617 -0.4397  0.0498 -0.2851
  919MOL0     C23990   9.650   4.653   0.695  1.0639  0.1727 -0.4383
  919MOL0     C23991   9.514   4.598   0.704 -0.0916  0.7057  0.6282
  919MOL0     C23992   9.434   4.666   0.814  1.1586 -0.7926  0.5929
  919MOL0     C23993   9.467   4.636   0.958  0.1315  0.2695 -0.0113
  919MOL0     C23994   9.565   4.728   1.015 -0.2803  1.7138 -1.0583
  919MOL0     C23995   9.662   4.803   1.038  1.0984  0.5091 -0.8550
  919MOL0     C23996   9.929   4.533   0.480  1.1859  0.5541  0.1613
  919MOL0     C23997  10.057   4.568   0.435  0.0581 -0.1212 -0.6588
  919MOL0     H23998  10.571   4.557   0.341 -1.7183 -0.4990  0.2178
  919MOL0     H23999  10.729   4.629   0.208  1.7621  1.3563  0.1653
  919MOL0     H24000  10.671   4.752  -0.090  0.4267 -0.6427  0.7091
  919MOL0     H24001  10.641   4.929  -0.101  2.2204  2.4385 -0.7718
  919MOL0     H24002  10.822   4.879  -0.249 -1.2454  1.0361 -0.3183
  919MOL0     H24003  10.867   4.969  -0.108  1.4278  0.5638 -1.6931
  919MOL0     H24004  11.035   4.795  -0.166  0.5496  3.1637  1.6197
  919MOL0     H24005  10.974   4.787   0.005 -1.0045  0.9442  0.3243
  919MOL0     H24006  10.833   4.599  -0.064  0.3848 -0.7545 -0.1300
  919MOL0     H24007  10.931   4.595  -0.224 -0.0864 -1.6890  0.2390
  919MOL0     H24008  11.050   4.601   0.059  0.4657 -0.0224  0.0409
  919MOL0     H24009  10.974   4.454   0.014  0.4293 -0.4615 -2.0235
  919MOL0     H24010  11.151   4.403  -0.160  2.4572  0.1821  0.2517
  919MOL0     H24011  11.180   4.565  -0.179  0.1904  2.8451  3.0485
  919MOL0     H24012  11.284   4.563   0.068  0.7449  2.1640 -3.4439
  919MOL0     H24013  11.240   4.396   0.074 -2.5145 -1.0102 -1.2253
  919MOL0     H24014  11.395   4.366  -0.149  2.8160  1.7177 -2.9405
  919MOL0     H24015  11.465   4.380   0.005 -1.2219 -0.1220  0.0897
  919MOL0     H24016  11.455   4.510  -0.352 -1.1547 -2.5455  1.2958
  919MOL0     H24017  11.562   4.787  -0.453 -0.5209 -0.2086 -0.1411
  919MOL0     H24018  11.679   4.853  -0.345  0.1184 -1.6255  5.1192
  919MOL0     H24019  11.710   4.568  -0.457 -0.6576  0.2285 -0.6690
  919MOL0     H24020  11.828   4.679  -0.382  1.0660 -0.0288 -0.8634
  919MOL0     H24021  11.801   4.834  -0.559  2.9721  0.4463 -1.8811
  919MOL0     H24022  11.694   4.711  -0.648  1.5548 -0.8395 -2.9617
  919MOL0     H24023  11.986   4.739  -0.600 -2.1164  1.8709 -0.3248
  919MOL0     H24024  11.925   4.677  -0.754  3.1486  0.0828 -0.2938
  919MOL0     H24025  12.171   4.638  -0.613 -1.1508 -0.2402  2.4799
  919MOL0     H24026  12.393   4.623  -0.669  3.5789  1.1626  0.4379
  919MOL0     H24027  12.440   4.549  -0.511  0.0254  1.5086 -0.7451
  919MOL0     H24028  12.477   4.462  -0.663  1.4652 -0.1228  1.5399
  919MOL0     H24029  12.352   3.949  -0.383 -1.8599  0.1526 -3.8229
  919MOL0     H24030  12.525   3.766  -0.320  1.0913  0.4107  0.9480
  919MOL0     H24031  12.697   3.777  -0.226 -0.7887  1.1869 -1.9263
  919MOL0     H24032  12.742   3.609  -0.256  1.0910 -0.0307  0.7342
  919MOL0     H24033  12.923   3.853  -0.200  3.2662 -0.0222 -0.8300
  919MOL0     H24034  12.903   3.696  -0.122  0.5935 -0.0116  0.0890
  919MOL0     H24035  13.010   3.735  -0.407 -0.5888  1.7833  0.2082
  919MOL0     H24036  13.022   3.590  -0.303  2.6969  0.0825  0.6738
  919MOL0     H24037  13.150   3.858  -0.219  0.1276  0.7052  0.7762
  919MOL0     H24038  13.192   3.699  -0.167  2.9108 -1.2690 -1.1092
  919MOL0     H24039  13.230   3.799  -0.448 -2.3721 -1.4225 -1.6450
  919MOL0     H24040  13.239   3.633  -0.392 -0.9308  0.0339  0.2474
  919MOL0     H24041  13.399   3.868  -0.279 -1.0089  0.9305  0.9930
  919MOL0     H24042  13.412   3.695  -0.226  0.5816 -2.0307 -2.4182
  919MOL0     H24043  13.607   3.773  -0.374 -0.9027  2.3368  0.8718
  919MOL0     H24044  13.491   3.795  -0.508  1.5224 -2.9764 -2.1261
  919MOL0     H24045  13.460   3.569  -0.545 -1.2279 -1.0357  0.8141
  919MOL0     H24046  13.516   3.526  -0.383 -3.6557  1.5770  0.3896
  919MOL0     H24047  12.764   3.886  -0.646  1.3413 -1.3798  1.0289
  919MOL0     H24048  12.604   4.061  -0.701  3.5272  0.4050  0.3312
  919MOL0     H24049  12.140   4.166  -0.510  2.4593 -0.1910 -0.4998
  919MOL0     H24050  11.938   4.278  -0.565 -0.3539  2.5617  1.2435
  919MOL0     H24051  10.495   4.977   0.090 -2.4151 -2.7562 -3.9502
  919MOL0     H24052  10.303   4.860   0.199  0.3045 -0.3048 -0.9963
  919MOL0     H24053  10.089   4.844   0.635 -0.3378 -0.7680  0.7006
  919MOL0     H24054   9.877   4.778   0.709  1.2645  0.5474  0.4148
  919MOL0     H24055   9.691   4.652   0.797 -0.1937 -2.6208  0.1349
  919MOL0     H24056   9.628   4.753   0.657 -0.0226 -0.5455 -1.7677
  919MOL0     H24057   9.515   4.491   0.728 -0.8804 -0.0492 -2.3338
  919MOL0     H24058   9.456   4.593   0.612  1.0968 -2.4029 -0.0451
  919MOL0     H24059   9.331   4.634   0.794  2.1509 -3.3798 -0.9340
  919MOL0     H24060   9.442   4.774   0.802  0.9837 -0.6487  1.6741
  919MOL0     H24061   9.512   4.537   0.968  0.7607  0.7447  2.9361
  919MOL0     H24062   9.377   4.646   1.019 -1.9328 -1.1444 -2.6318
  919MOL0     H24063   9.753   4.859   1.044  2.5822 -1.8721  0.9645
  919MOL0     H24064   9.873   4.449   0.441 -0.4314  0.7034  2.0443
  919MOL0     H24065  10.109   4.506   0.362 -0.7182 -2.1622  0.4192
  920MOL0     O24066   9.170   9.329   9.989 -0.3139 -0.5370 -0.4789
  920MOL0     C24067   9.160   9.454   9.987 -0.9389  0.1781  0.4653
  920MOL0     O24068   9.043   9.526  10.002  0.7742 -0.1063 -0.5215
  920MOL0     C24069   8.925   9.459  10.018  0.3516  0.3672  0.5018
  920MOL0     C24070   8.866   9.471  10.147 -0.3327 -0.4994  0.7267
  920MOL0     C24071   8.733   9.418  10.166 -0.2216 -0.8942 -1.1967
  920MOL0     C24072   8.669   9.353  10.052  0.6532 -0.6838 -0.0675
  920MOL0     O24073   8.537   9.314  10.051  0.1229  0.7598 -0.0205
  920MOL0     C24074   8.452   9.338  10.162 -0.9603  0.2888 -0.4045
  920MOL0     C24075   8.316   9.309  10.103 -0.0161  0.4260  1.4636
  920MOL0     C24076   8.209   9.354  10.186  0.0860  0.4818 -0.8162
  920MOL0     C24077   8.072   9.310  10.131  0.0531  0.6307 -0.7444
  920MOL0     C24078   7.948   9.356  10.220  0.7298  0.6012 -0.1336
  920MOL0     C24079   7.827   9.266  10.199 -0.4566  0.8173 -0.2928
  920MOL0     C24080   7.712   9.290  10.293  0.2427  0.5769 -0.1084
  920MOL0     C24081   7.641   9.418  10.261  0.4761  0.1029  0.7028
  920MOL0     N24082   7.533   9.463  10.356  0.1515 -0.3405 -0.0322
  920MOL0     C24083   7.398   9.468  10.317 -0.5733 -0.5938 -0.0487
  920MOL0     C24084   7.333   9.533  10.409 -0.3447  0.2022 -0.7073
  920MOL0     C24085   7.189   9.586  10.412 -0.2824 -0.6420  0.2862
  920MOL0     C24086   7.162   9.644  10.272  0.2651 -0.5011  0.2567
  920MOL0     C24087   7.065   9.759  10.276 -0.3983  0.0511 -0.4670
  920MOL0     C24088   6.958   9.732  10.155 -0.1466 -0.5288 -0.1630
  920MOL0     O24089   7.006   9.791  10.034 -0.0991  0.3474 -0.7221
  920MOL0     C24090   6.935   9.775   9.917  0.0424 -0.2519 -0.4920
  920MOL0     C24091   6.990   9.802   9.795 -0.1048  0.8151 -0.0241
  920MOL0     C24092   6.910   9.782   9.680 -0.7748  0.0496 -0.4835
  920MOL0     C24093   6.975   9.831   9.555 -0.2969  0.1821  0.3106
  920MOL0     C24094   6.771   9.740   9.685 -0.6117  0.2226 -0.0069
  920MOL0     C24095   6.681   9.724   9.571 -0.1170  1.1736 -1.4470
  920MOL0     O24096   6.550   9.705   9.603  0.9845 -0.1622 -0.3031
  920MOL0     C24097   6.460   9.670   9.507 -0.7525  0.0934  1.1197
  920MOL0     C24098   6.346   9.742   9.491  0.3441 -0.2787  0.5464
  920MOL0     C24099   6.237   9.702   9.401  0.0746 -0.4172  0.4656
  920MOL0     C24100   6.258   9.588   9.319  1.4850  0.4297  0.2652
  920MOL0     O24101   6.161   9.559   9.223 -0.6717 -0.3633  0.1620
  920MOL0     C24102   6.114   9.429   9.225  1.1716  1.1415 -0.2529
  920MOL0     C24103   5.960   9.432   9.192  0.9974  0.0226  0.7281
  920MOL0     C24104   5.863   9.493   9.288 -0.1328 -0.1383  0.2846
  920MOL0     C24105   5.722   9.459   9.229 -0.4734 -0.0820  0.1438
  920MOL0     C24106   5.605   9.525   9.298  0.6574  0.1056 -0.4719
  920MOL0     C24107   5.478   9.506   9.201 -0.6986  0.7932  0.7376
  920MOL0     C24108   5.363   9.589   9.246  0.5369 -0.5967  0.4547
  920MOL0     C24109   5.243   9.585   9.153  0.3332 -0.2555  0.1040
  920MOL0    Cl24110   5.250   9.709   9.024  0.0255  0.4601  0.4786
  920MOL0     C24111   6.376   9.511   9.338 -0.0034  0.2624 -0.8760
  920MOL0     C24112   6.471   9.549   9.431 -0.1011  0.0701 -0.7204
  920MOL0     O24113   6.733   9.726   9.456 -0.4330 -0.6900 -0.4580
  920MOL0     C24114   6.720   9.720   9.815  0.1613  0.2404  0.2032
  920MOL0     C24115   6.800   9.738   9.931 -0.5479  0.2996  0.0218
  920MOL0     N24116   7.420   9.568  10.516 -0.8161  0.4879 -0.8851
  920MOL0     N24117   7.538   9.517  10.485  0.9154 -1.0639 -0.0965
  920MOL0     C24118   8.729   9.351   9.930 -0.7707  0.2999 -0.2142
  920MOL0     C24119   8.862   9.396   9.913  0.5224 -0.4947 -1.2623
  920MOL0     C24120   9.282   9.535   9.951  0.8882  0.4259  0.8010
  920MOL0     C24121   9.288   9.670   9.983  0.5263  0.0898 -0.6464
  920MOL0     C24122   9.392   9.753   9.934 -0.4186  0.6549  0.6291
  920MOL0     C24123   9.507   9.698   9.888 -0.4147  0.2307 -0.0379
  920MOL0     O24124   9.625   9.779   9.889 -0.0564  0.5185 -0.4496
  920MOL0     C24125   9.748   9.726   9.830  0.6502 -0.1892 -1.2282
  920MOL0     C24126   9.869   9.818   9.849  0.0063 -0.0259 -0.0443
  920MOL0     C24127   9.965   9.754   9.954  0.0447 -1.0689  0.6430
  920MOL0     C24128  10.062   9.871   9.983 -0.3967  0.2318 -0.7209
  920MOL0     C24129  10.137   9.924   9.879  0.0523 -0.3722  0.2767
  920MOL0     C24130  10.186   9.969   9.777 -0.6342 -0.3018 -0.2518
  920MOL0     C24131   9.506   9.553   9.861 -0.3787 -0.9732 -0.6423
  920MOL0     C24132   9.392   9.477   9.881  1.0525 -0.3571  0.8783
  920MOL0     H24133   8.924   9.528  10.218 -0.2193 -0.8502  0.9219
  920MOL0     H24134   8.697   9.444  10.265  0.3298  0.3533 -1.2972
  920MOL0     H24135   8.468   9.274  10.249 -2.7890  0.3899  0.0495
  920MOL0     H24136   8.453   9.443  10.192  0.6706  0.0880  0.3782
  920MOL0     H24137   8.307   9.364  10.009  3.4810 -0.2024  0.6070
  920MOL0     H24138   8.302   9.202  10.083 -0.1933  0.8414 -0.9672
  920MOL0     H24139   8.218   9.327  10.292 -1.0452  1.3968 -0.4533
  920MOL0     H24140   8.213   9.463  10.174  1.1655  0.5665  0.1486
  920MOL0     H24141   8.065   9.359  10.034  0.9826 -0.1316 -1.2151
  920MOL0     H24142   8.068   9.203  10.108 -2.1629  0.1312  1.5739
  920MOL0     H24143   7.975   9.342  10.325 -0.4909 -2.0621 -0.1015
  920MOL0     H24144   7.929   9.462  10.200  0.0542  0.2732 -1.2819
  920MOL0     H24145   7.787   9.285  10.099  3.1119  1.7125 -1.7106
  920MOL0     H24146   7.852   9.160  10.201  0.0370  0.9193 -0.7281
  920MOL0     H24147   7.644   9.205  10.282  0.6591 -0.1010  2.0497
  920MOL0     H24148   7.740   9.287  10.399  0.7652  1.3144 -0.2189
  920MOL0     H24149   7.623   9.424  10.153  0.6005  3.3959  0.7580
  920MOL0     H24150   7.716   9.495  10.284 -1.6772  1.8550  2.2893
  920MOL0     H24151   7.357   9.436  10.222  0.8771 -0.0501 -0.8943
  920MOL0     H24152   7.110   9.519  10.448 -0.3953 -0.1670  0.9512
  920MOL0     H24153   7.192   9.678  10.472 -2.1535  2.5063 -3.9067
  920MOL0     H24154   7.131   9.560  10.208 -0.9262 -0.5334  0.8552
  920MOL0     H24155   7.249   9.699  10.234 -2.5690  2.5389 -2.5681
  920MOL0     H24156   7.118   9.853  10.261 -1.4463  0.6947 -0.2973
  920MOL0     H24157   7.012   9.770  10.371  0.0462  2.7148 -0.4536
  920MOL0     H24158   6.865   9.770  10.197 -0.5855 -1.2933 -0.4281
  920MOL0     H24159   6.945   9.626  10.136  2.3500 -0.9401  0.0230
  920MOL0     H24160   7.094   9.832   9.787 -0.1596  1.8514  2.3496
  920MOL0     H24161   6.974   9.752   9.480  0.6817  0.3366  0.1211
  920MOL0     H24162   6.932   9.922   9.512 -0.2846  0.3282  0.6059
  920MOL0     H24163   7.082   9.849   9.567 -0.5693  3.7679 -1.1944
  920MOL0     H24164   6.339   9.831   9.553  7.6992 -1.0016  3.4365
  920MOL0     H24165   6.151   9.765   9.381 -1.4384 -2.9608 -1.8506
  920MOL0     H24166   6.157   9.373   9.142  2.9798  0.2783  1.1958
  920MOL0     H24167   6.121   9.376   9.320 -0.9424  0.0852 -0.6368
  920MOL0     H24168   5.942   9.481   9.096  1.2529  0.2702  0.8051
  920MOL0     H24169   5.921   9.331   9.185 -3.7206  1.5788  1.1005
  920MOL0     H24170   5.874   9.601   9.285 -1.1831 -0.0321 -2.0171
  920MOL0     H24171   5.867   9.450   9.389 -0.2451  1.3525  0.9482
  920MOL0     H24172   5.731   9.486   9.123  1.0816 -1.2328 -0.0500
  920MOL0     H24173   5.709   9.351   9.221  2.8851 -0.4825 -2.0084
  920MOL0     H24174   5.634   9.629   9.313  2.0781 -0.6438  2.6844
  920MOL0     H24175   5.583   9.473   9.392  1.8421  0.9959  0.3251
  920MOL0     H24176   5.514   9.529   9.100 -0.9195 -2.6122 -0.2106
  920MOL0     H24177   5.440   9.404   9.204 -0.5699  0.7211  0.0454
  920MOL0     H24178   5.404   9.689   9.260 -0.5896  0.1254 -1.0440
  920MOL0     H24179   5.333   9.555   9.345  1.0763  0.2054  0.9016
  920MOL0     H24180   5.154   9.599   9.214  2.6333 -0.2796  3.7728
  920MOL0     H24181   5.242   9.494   9.091 -0.9082  0.5550 -1.1290
  920MOL0     H24182   6.400   9.433   9.267  0.6882  0.2035 -0.5879
  920MOL0     H24183   6.564   9.492   9.432  0.2003  0.5516  0.5672
  920MOL0     H24184   6.613   9.709   9.829 -0.4762  4.1579 -0.5216
  920MOL0     H24185   6.751   9.728  10.027 -0.8163  1.8997  0.0736
  920MOL0     H24186   8.673   9.300   9.853 -1.3542  1.0512 -0.3078
  920MOL0     H24187   8.896   9.406   9.811 -2.1638  1.3892 -2.0850
  920MOL0     H24188   9.212   9.717  10.044 -1.7320 -1.8316 -1.7862
  920MOL0     H24189   9.380   9.858   9.962  0.4809  1.8699 -3.0446
  920MOL0     H24190   9.771   9.629   9.877  2.3074 -0.2899 -2.1356
  920MOL0     H24191   9.727   9.703   9.725  2.1770  1.1322 -1.8603
  920MOL0     H24192   9.836   9.921   9.862 -0.7326 -0.1292 -0.8917
  920MOL0     H24193   9.920   9.831   9.753 -1.1939  3.8093 -0.3172
  920MOL0     H24194  10.022   9.671   9.913 -2.3491 -1.6947 -1.6923
  920MOL0     H24195   9.917   9.731  10.050  3.6270  2.4350  3.6152
  920MOL0     H24196  10.136   9.829  10.052  0.0763 -1.9302 -2.4598
  920MOL0     H24197  10.005   9.950  10.034 -0.0717 -0.2819  0.4767
  920MOL0     H24198  10.244  10.017   9.700 -2.9063  0.4779 -1.5848
  920MOL0     H24199   9.590   9.502   9.814  0.1166  0.9389 -1.9426
  920MOL0     H24200   9.387   9.370   9.863 -0.9115 -0.0186 -0.9508
  921MOL0     O24201   2.518   9.008   1.213  0.1699  0.3630 -0.4016
  921MOL0     C24202   2.566   9.041   1.324  0.2617  0.0950  0.1346
  921MOL0     O24203   2.509   9.016   1.445  0.0910  0.0158  0.9749
  921MOL0     C24204   2.379   8.977   1.441  0.2351 -0.9714 -0.9569
  921MOL0     C24205   2.280   9.069   1.393 -0.2962 -0.1442  0.3554
  921MOL0     C24206   2.143   9.025   1.381 -0.0019 -0.2363  0.2935
  921MOL0     C24207   2.103   8.898   1.419 -0.9017  0.6633  0.7707
  921MOL0     O24208   1.977   8.837   1.408 -0.1368  0.4303  0.1900
  921MOL0     C24209   1.863   8.930   1.382  0.6771  0.1215 -0.5928
  921MOL0     C24210   1.718   8.862   1.387 -0.1023 -0.2669 -0.0710
  921MOL0     C24211   1.614   8.916   1.297  0.7051 -0.0511  0.0211
  921MOL0     C24212   1.572   9.053   1.341  0.3462  0.2790  0.0775
  921MOL0     C24213   1.444   9.100   1.271 -0.1444 -0.6834 -0.6138
  921MOL0     C24214   1.476   9.128   1.118  0.6576  0.0766  0.1066
  921MOL0     C24215   1.339   9.151   1.054 -0.1026 -0.0092 -0.0300
  921MOL0     C24216   1.351   9.157   0.899  0.3108  0.2088  0.6181
  921MOL0     N24217   1.450   9.260   0.852  1.1133 -0.1125 -0.0452
  921MOL0     C24218   1.582   9.245   0.855  0.1823 -0.0230 -0.9282
  921MOL0     C24219   1.632   9.366   0.852  0.1143 -0.2093  0.9455
  921MOL0     C24220   1.777   9.379   0.877  0.0208  0.6754  0.4483
  921MOL0     C24221   1.792   9.491   0.972 -0.7283 -0.4780  0.5166
  921MOL0     C24222   1.758   9.471   1.121  0.8357 -0.0859 -0.0791
  921MOL0     C24223   1.820   9.331   1.155 -0.0542  0.5500 -0.1381
  921MOL0     O24224   1.842   9.303   1.289  0.3448 -0.3585  0.3257
  921MOL0     C24225   1.933   9.377   1.355  0.4414 -0.1869  0.1173
  921MOL0     C24226   1.935   9.348   1.493 -0.5433  0.2872  0.9085
  921MOL0     C24227   2.024   9.408   1.580  0.2986  0.2715 -1.1640
  921MOL0     C24228   2.032   9.371   1.729 -0.1705  0.2616 -0.0859
  921MOL0     C24229   2.111   9.499   1.532 -0.7728  1.1656 -0.3427
  921MOL0     C24230   2.217   9.560   1.610  0.0596  0.6872 -0.5856
  921MOL0     O24231   2.308   9.481   1.676  0.2809 -0.2330  0.1410
  921MOL0     C24232   2.373   9.526   1.794  0.3335 -0.0583  0.9575
  921MOL0     C24233   2.328   9.493   1.923  0.7874 -0.4287  0.4457
  921MOL0     C24234   2.399   9.532   2.026  0.5148 -1.0834 -0.0811
  921MOL0     C24235   2.516   9.611   2.017  0.4749 -0.2269  0.4076
  921MOL0     O24236   2.580   9.672   2.130 -0.3508 -0.4115 -0.5618
  921MOL0     C24237   2.521   9.652   2.262 -0.3716 -0.4220  0.4053
  921MOL0     C24238   2.419   9.762   2.287 -0.2527 -0.0855  0.5928
  921MOL0     C24239   2.327   9.738   2.418 -0.3241 -0.3676 -0.4475
  921MOL0     C24240   2.204   9.647   2.385 -0.1954  0.1501  0.0841
  921MOL0     C24241   2.140   9.591   2.512 -0.1000 -0.3027  0.7969
  921MOL0     C24242   2.055   9.684   2.593  0.8244 -0.7237 -0.0498
  921MOL0     C24243   1.984   9.613   2.710 -0.3833  0.7858  0.2717
  921MOL0     C24244   1.913   9.713   2.804  0.5181 -0.1774 -0.0419
  921MOL0    Cl24245   1.822   9.636   2.940  0.4395 -0.2725  0.1264
  921MOL0     C24246   2.563   9.645   1.885 -0.2863  0.5495 -1.0590
  921MOL0     C24247   2.495   9.589   1.776  0.1570 -0.4895  1.0119
  921MOL0     O24248   2.226   9.679   1.596 -0.9394 -0.4184 -0.2151
  921MOL0     C24249   2.116   9.532   1.398  0.3352 -0.3283 -0.5220
  921MOL0     C24250   2.033   9.466   1.306  1.2054  0.5013 -0.0087
  921MOL0     N24251   1.533   9.457   0.833 -0.4898 -0.4988 -0.0057
  921MOL0     N24252   1.423   9.393   0.830 -0.5925  0.3390  0.6286
  921MOL0     C24253   2.204   8.814   1.464  0.1308  0.6598  0.3283
  921MOL0     C24254   2.336   8.850   1.489 -0.4395  0.0410 -0.0449
  921MOL0     C24255   2.696   9.116   1.327  0.4755  0.4277 -0.5717
  921MOL0     C24256   2.756   9.151   1.447  0.3421  0.4219 -0.1990
  921MOL0     C24257   2.875   9.215   1.437  0.4601 -0.0889  0.0349
  921MOL0     C24258   2.935   9.247   1.312 -0.2212 -0.0867  0.1992
  921MOL0     O24259   3.060   9.314   1.304  0.4652 -0.0930 -0.4254
  921MOL0     C24260   3.088   9.399   1.196  0.1462  0.0805  0.3123
  921MOL0     C24261   3.228   9.456   1.198 -0.6316  0.7439  0.0158
  921MOL0     C24262   3.336   9.347   1.170 -0.0809 -1.0823  0.4170
  921MOL0     C24263   3.481   9.398   1.190 -0.0284  0.4381  0.0635
  921MOL0     C24264   3.568   9.286   1.187 -0.6029  0.5653  0.2852
  921MOL0     C24265   3.633   9.180   1.192  0.2357  0.5397 -0.3670
  921MOL0     C24266   2.865   9.219   1.189 -0.0491 -0.5037 -0.7675
  921MOL0     C24267   2.748   9.151   1.203  0.9666 -0.1510 -0.6677
  921MOL0     H24268   2.301   9.174   1.373  0.0948 -0.4362 -0.8375
  921MOL0     H24269   2.072   9.101   1.350  2.3989  1.4893 -1.2972
  921MOL0     H24270   1.862   9.019   1.447 -1.5384  2.0180 -3.0144
  921MOL0     H24271   1.890   8.963   1.281 -1.1240 -1.4912 -1.6524
  921MOL0     H24272   1.729   8.758   1.353 -1.2387  0.7961 -4.3285
  921MOL0     H24273   1.681   8.868   1.489 -0.6156  0.7915 -0.3159
  921MOL0     H24274   1.634   8.917   1.189 -2.1708  2.6361 -0.6296
  921MOL0     H24275   1.537   8.840   1.314  0.0911  0.8090  1.2973
  921MOL0     H24276   1.574   9.055   1.450 -2.0597  1.3460  0.1544
  921MOL0     H24277   1.644   9.128   1.305 -1.2136  2.4745  1.2894
  921MOL0     H24278   1.362   9.028   1.280 -1.5352  0.9505  0.5916
  921MOL0     H24279   1.396   9.186   1.319  0.5493 -0.0577 -1.0355
  921MOL0     H24280   1.546   9.212   1.108  0.1467  0.3437 -1.4027
  921MOL0     H24281   1.523   9.050   1.057  1.4279  0.8742 -0.3360
  921MOL0     H24282   1.276   9.063   1.067 -1.2925  0.7712 -0.3863
  921MOL0     H24283   1.285   9.238   1.091 -0.5299  0.6634 -2.0763
  921MOL0     H24284   1.255   9.185   0.853  0.1578  0.3387  1.0158
  921MOL0     H24285   1.384   9.060   0.861 -1.1734 -0.7852  1.7663
  921MOL0     H24286   1.629   9.148   0.869  0.3405 -0.0674 -1.7286
  921MOL0     H24287   1.833   9.290   0.907  1.2227  1.8822  1.9579
  921MOL0     H24288   1.824   9.410   0.783 -1.7613  1.8495 -0.1156
  921MOL0     H24289   1.758   9.589   0.937 -1.1908 -1.8355 -3.2459
  921MOL0     H24290   1.900   9.510   0.979 -0.8641  0.5477 -0.0360
  921MOL0     H24291   1.652   9.476   1.146  1.4858  3.1180  2.8320
  921MOL0     H24292   1.801   9.556   1.175 -1.8188  0.2756  1.6565
  921MOL0     H24293   1.917   9.315   1.107 -0.6222 -1.6099 -0.6889
  921MOL0     H24294   1.750   9.254   1.121 -2.0212  1.3982  1.8083
  921MOL0     H24295   1.860   9.276   1.523  0.7334 -1.3307  0.3383
  921MOL0     H24296   2.102   9.290   1.751 -0.6390  0.1305  0.9384
  921MOL0     H24297   2.064   9.460   1.785 -1.4494  2.2875 -2.3809
  921MOL0     H24298   1.936   9.355   1.779  0.5338  2.2255  2.0670
  921MOL0     H24299   2.241   9.429   1.930 -0.1394  0.8236  0.7196
  921MOL0     H24300   2.360   9.501   2.123  0.2365  2.2590  1.0108
  921MOL0     H24301   2.484   9.551   2.284 -2.9327 -0.0233 -1.5357
  921MOL0     H24302   2.596   9.675   2.338  0.6451 -0.5079 -0.5615
  921MOL0     H24303   2.462   9.862   2.297 -1.1553  0.2237  1.7566
  921MOL0     H24304   2.356   9.760   2.198  1.2928 -1.5884 -0.5220
  921MOL0     H24305   2.294   9.832   2.465  0.3112 -0.3298 -0.0630
  921MOL0     H24306   2.391   9.680   2.485  1.5772 -0.0831 -1.9270
  921MOL0     H24307   2.134   9.695   2.316 -0.7552  1.4679  1.5125
  921MOL0     H24308   2.255   9.567   2.332  2.8678  1.3615  1.0111
  921MOL0     H24309   2.215   9.541   2.574 -0.9194 -0.9258  1.3042
  921MOL0     H24310   2.064   9.524   2.471 -1.4689  0.9349  1.2385
  921MOL0     H24311   2.120   9.756   2.644 -2.3675  1.7808  0.8044
  921MOL0     H24312   1.990   9.746   2.531  0.3625  0.1471  1.2542
  921MOL0     H24313   2.060   9.565   2.772 -2.5130  0.2338  2.6546
  921MOL0     H24314   1.915   9.541   2.665  0.5792 -0.0827  0.1547
  921MOL0     H24315   1.836   9.768   2.750 -1.6444 -2.5030  0.4587
  921MOL0     H24316   1.974   9.789   2.853  0.0310 -0.5027  1.0930
  921MOL0     H24317   2.658   9.698   1.876  0.0810  0.3658  1.1612
  921MOL0     H24318   2.536   9.609   1.677  1.0876  1.9244  1.8205
  921MOL0     H24319   2.192   9.600   1.362  0.5683 -0.2981  0.0190
  921MOL0     H24320   2.037   9.485   1.199  0.5177 -0.4253 -0.2120
  921MOL0     H24321   2.158   8.722   1.499 -0.1275  1.2675  1.6437
  921MOL0     H24322   2.411   8.781   1.525  2.4789  0.7829 -4.0628
  921MOL0     H24323   2.707   9.120   1.539 -0.9381  1.1368 -0.6029
  921MOL0     H24324   2.926   9.253   1.524 -1.9752  1.0719  1.0605
  921MOL0     H24325   3.069   9.345   1.103 -1.9163  2.3263 -0.6888
  921MOL0     H24326   3.023   9.487   1.193  0.7051  0.5234  0.9221
  921MOL0     H24327   3.241   9.516   1.288 -0.4809 -0.1057  0.5816
  921MOL0     H24328   3.227   9.526   1.114 -1.7355  2.6733  1.5614
  921MOL0     H24329   3.323   9.335   1.062 -1.3324  4.3770 -0.3464
  921MOL0     H24330   3.313   9.262   1.235  0.4903 -1.9600 -0.5132
  921MOL0     H24331   3.475   9.446   1.288 -1.9835  0.9805 -0.2712
  921MOL0     H24332   3.516   9.475   1.121  2.9309  0.5102  1.5047
  921MOL0     H24333   3.689   9.089   1.195 -0.0970  0.3366 -0.2163
  921MOL0     H24334   2.893   9.252   1.090  0.4896 -0.8381 -0.7310
  921MOL0     H24335   2.702   9.128   1.107 -0.8231  2.5907 -0.5770
  922MOL0     O24336   0.782   5.134   2.132 -0.4061 -0.1009  0.2617
  922MOL0     C24337   0.724   5.244   2.163 -0.0681  0.6653  1.1709
  922MOL0     O24338   0.588   5.258   2.180  0.5274  0.0188 -0.5387
  922MOL0     C24339   0.501   5.177   2.117  0.6652  0.6262 -0.1233
  922MOL0     C24340   0.526   5.048   2.064  0.7603 -0.4153 -0.5425
  922MOL0     C24341   0.431   4.987   1.972 -0.1570 -0.2190 -0.6858
  922MOL0     C24342   0.314   5.054   1.944  0.6526  0.1124  0.3265
  922MOL0     O24343   0.230   4.993   1.853  0.3632  0.4233 -0.7331
  922MOL0     C24344   0.095   4.977   1.898 -0.4902  0.1834 -0.2436
  922MOL0     C24345   0.011   4.920   1.790 -0.2260  0.5218 -0.1917
  922MOL0     C24346  -0.137   4.900   1.824 -0.4089 -0.4004 -0.3766
  922MOL0     C24347  -0.197   4.861   1.688  0.8997  0.1683  0.0692
  922MOL0     C24348  -0.349   4.867   1.689  0.0551  0.4263 -0.0950
  922MOL0     C24349  -0.414   4.774   1.788 -0.2907  1.0478  0.2673
  922MOL0     C24350  -0.561   4.753   1.753 -0.5552 -0.1152  0.5642
  922MOL0     C24351  -0.634   4.878   1.791  0.3250  1.1622  0.9373
  922MOL0     N24352  -0.777   4.866   1.780  0.4016  0.4759 -0.0788
  922MOL0     C24353  -0.878   4.858   1.887 -0.0202  0.2249 -0.7509
  922MOL0     C24354  -0.996   4.842   1.822 -0.6732  0.4813 -0.5814
  922MOL0     C24355  -1.131   4.822   1.886  0.6027  0.2738 -0.7003
  922MOL0     C24356  -1.172   4.680   1.887  0.0900  0.5226  0.6114
  922MOL0     C24357  -1.122   4.600   2.012  0.1376  0.6554  0.3828
  922MOL0     C24358  -1.157   4.452   1.996 -0.6257  0.0849  0.7892
  922MOL0     O24359  -1.299   4.428   1.968 -0.5479 -0.6387 -0.0615
  922MOL0     C24360  -1.385   4.438   2.073  0.9000  0.5889  0.5199
  922MOL0     C24361  -1.369   4.349   2.190 -0.6566 -0.6123  0.5938
  922MOL0     C24362  -1.459   4.367   2.296 -0.3304 -0.0714 -0.6030
  922MOL0     C24363  -1.434   4.264   2.402  0.3372  0.4310  0.3915
  922MOL0     C24364  -1.574   4.456   2.283 -0.5480  0.4397  0.1963
  922MOL0     C24365  -1.684   4.462   2.383 -0.2150  0.6766  0.3409
  922MOL0     O24366  -1.743   4.582   2.394  0.2105 -0.3979 -0.2996
  922MOL0     C24367  -1.881   4.597   2.421  0.1297  0.0548  0.0215
  922MOL0     C24368  -1.983   4.494   2.449 -0.6344  0.0171  0.0687
  922MOL0     C24369  -2.114   4.532   2.472  1.1325  0.2824 -0.2027
  922MOL0     C24370  -2.159   4.670   2.459 -0.5756  0.1387  0.1341
  922MOL0     O24371  -2.283   4.721   2.486 -0.2788 -0.6822  0.5753
  922MOL0     C24372  -2.390   4.629   2.457  0.4052 -0.8500 -0.4645
  922MOL0     C24373  -2.523   4.700   2.491 -0.3316  0.3947  0.0074
  922MOL0     C24374  -2.648   4.594   2.510 -0.7704 -0.2876  0.1681
  922MOL0     C24375  -2.748   4.658   2.612  1.1126  0.1694 -0.2302
  922MOL0     C24376  -2.883   4.575   2.604  0.0234  0.7402 -0.1791
  922MOL0     C24377  -2.974   4.629   2.718  0.0266  0.1190  0.7247
  922MOL0     C24378  -3.097   4.545   2.717  0.1629  0.8842 -0.5847
  922MOL0     C24379  -3.169   4.566   2.845  0.2657 -0.2191 -0.9732
  922MOL0    Cl24380  -3.273   4.713   2.820 -0.7158 -0.2130  0.0502
  922MOL0     C24381  -2.059   4.770   2.425 -0.3371  0.7791  0.0959
  922MOL0     C24382  -1.926   4.727   2.402  0.8080  0.3649 -0.2126
  922MOL0     O24383  -1.722   4.358   2.434 -0.1194  0.2753 -1.2206
  922MOL0     C24384  -1.579   4.540   2.169 -0.2491  0.5019 -0.1006
  922MOL0     C24385  -1.489   4.524   2.073  0.0457 -0.9042 -0.4242
  922MOL0     N24386  -0.976   4.858   1.686 -0.1949 -0.4779  1.1530
  922MOL0     N24387  -0.842   4.863   1.660  0.2261 -0.7571  0.3838
  922MOL0     C24388   0.288   5.178   2.004  0.1942  0.6635 -0.9905
  922MOL0     C24389   0.386   5.244   2.079  0.6957  0.8225 -0.0154
  922MOL0     C24390   0.806   5.347   2.215  0.2271 -0.0363  0.2581
  922MOL0     C24391   0.765   5.421   2.330  0.3746  0.2906  0.4199
  922MOL0     C24392   0.849   5.511   2.386 -0.9063  0.1029 -0.2378
  922MOL0     C24393   0.982   5.523   2.338 -1.0247  0.3811 -0.7741
  922MOL0     O24394   1.073   5.607   2.376 -0.4328 -0.1260 -0.8740
  922MOL0     C24395   1.027   5.701   2.480 -0.1142 -0.4151  0.7176
  922MOL0     C24396   1.042   5.643   2.619 -0.1837  0.2672 -0.5871
  922MOL0     C24397   1.024   5.749   2.726  0.2830 -0.9635  0.6512
  922MOL0     C24398   0.876   5.783   2.761 -0.1650 -0.6294  0.7973
  922MOL0     C24399   0.791   5.676   2.827 -0.2491  0.2866 -0.0896
  922MOL0     C24400   0.717   5.609   2.884 -0.1202 -0.1651  0.2498
  922MOL0     C24401   1.026   5.452   2.233  0.3303  0.0363 -0.8509
  922MOL0     C24402   0.941   5.357   2.174 -0.3127 -0.1498  0.0104
  922MOL0     H24403   0.616   4.987   2.076  0.1486 -1.7464 -2.2566
  922MOL0     H24404   0.464   4.892   1.931  1.0248 -0.4820  0.7523
  922MOL0     H24405   0.098   4.907   1.981  2.3110 -1.0435 -1.2588
  922MOL0     H24406   0.058   5.075   1.929  2.6858  1.7487 -0.9619
  922MOL0     H24407   0.024   4.974   1.695 -0.0148 -1.7432 -1.5262
  922MOL0     H24408   0.053   4.820   1.773  0.6755  0.8661 -0.0406
  922MOL0     H24409  -0.161   4.830   1.904 -0.1221  1.5720  1.5223
  922MOL0     H24410  -0.164   5.001   1.856  0.1548 -0.3184 -0.1444
  922MOL0     H24411  -0.175   4.934   1.610 -1.2118  0.5444 -0.2258
  922MOL0     H24412  -0.166   4.764   1.647  0.2140  0.7661 -1.9605
  922MOL0     H24413  -0.386   4.968   1.709 -0.9562  0.6158 -2.5756
  922MOL0     H24414  -0.380   4.841   1.587 -0.3490  0.4282  0.0228
  922MOL0     H24415  -0.366   4.675   1.790 -1.0608  0.5518 -2.0371
  922MOL0     H24416  -0.410   4.801   1.893 -1.8382 -1.0819  0.9494
  922MOL0     H24417  -0.583   4.714   1.654 -2.4421  1.7038  0.1949
  922MOL0     H24418  -0.591   4.665   1.810 -0.8926  0.7085  1.6981
  922MOL0     H24419  -0.605   4.961   1.727 -1.4646  0.9916 -0.1678
  922MOL0     H24420  -0.611   4.899   1.895 -1.8023  1.3614  1.4042
  922MOL0     H24421  -0.854   4.863   1.993  2.2655 -0.7785 -1.1464
  922MOL0     H24422  -1.123   4.865   1.986  0.7356 -0.7020 -0.2775
  922MOL0     H24423  -1.212   4.876   1.837  1.4806 -1.7591 -4.8749
  922MOL0     H24424  -1.125   4.621   1.808 -1.9651  0.4998 -0.6682
  922MOL0     H24425  -1.280   4.668   1.881  0.1025  0.9311 -1.2816
  922MOL0     H24426  -1.177   4.621   2.105 -1.7042 -0.4190 -0.4206
  922MOL0     H24427  -1.015   4.619   2.019  0.0636  2.4359 -2.0913
  922MOL0     H24428  -1.130   4.397   2.086 -0.1961 -1.9286 -0.5005
  922MOL0     H24429  -1.098   4.404   1.918 -0.8761 -0.0882  0.7039
  922MOL0     H24430  -1.295   4.269   2.198  0.2912  0.2506  0.7313
  922MOL0     H24431  -1.329   4.231   2.409 -0.1123 -1.0104  0.5959
  922MOL0     H24432  -1.474   4.296   2.499  0.3800 -3.2085  1.7930
  922MOL0     H24433  -1.484   4.168   2.383  1.1541  0.0679  0.0003
  922MOL0     H24434  -1.962   4.389   2.461 -1.8889 -0.1639  0.8638
  922MOL0     H24435  -2.182   4.452   2.497  0.6894  0.7499  0.0995
  922MOL0     H24436  -2.396   4.614   2.348  0.5743  3.9785 -1.3753
  922MOL0     H24437  -2.387   4.539   2.519  1.1435 -0.7744 -0.3833
  922MOL0     H24438  -2.510   4.760   2.581 -3.6704  0.8382  0.3091
  922MOL0     H24439  -2.553   4.762   2.406 -2.4160 -1.0202 -0.3406
  922MOL0     H24440  -2.617   4.496   2.545  0.5351  0.3834  0.9512
  922MOL0     H24441  -2.691   4.578   2.410  0.1742 -4.3313  0.2354
  922MOL0     H24442  -2.706   4.651   2.713  0.1702 -3.1286  0.0678
  922MOL0     H24443  -2.767   4.764   2.595 -0.2516  0.0399  0.3310
  922MOL0     H24444  -2.855   4.471   2.624  1.2355  1.4060  1.8735
  922MOL0     H24445  -2.929   4.579   2.505  1.1443  0.4686 -0.7231
  922MOL0     H24446  -2.915   4.602   2.806 -0.4371 -4.5705 -0.1132
  922MOL0     H24447  -2.997   4.732   2.691  2.1150  0.3289 -0.4383
  922MOL0     H24448  -3.064   4.441   2.714  1.8954  1.4179 -1.5826
  922MOL0     H24449  -3.166   4.572   2.636  1.0423  1.3738 -1.1887
  922MOL0     H24450  -3.104   4.584   2.931 -3.0695  0.6187  1.6239
  922MOL0     H24451  -3.235   4.480   2.860  1.3112 -0.6816  1.5326
  922MOL0     H24452  -2.085   4.875   2.416  1.4826  1.1609 -1.6223
  922MOL0     H24453  -1.853   4.802   2.372  0.8043 -0.0161 -1.2333
  922MOL0     H24454  -1.659   4.610   2.147  1.5579  2.4361 -0.8125
  922MOL0     H24455  -1.500   4.589   1.987 -1.7094 -0.4997  0.0604
  922MOL0     H24456   0.198   5.235   1.982 -1.2156 -0.9112  0.3436
  922MOL0     H24457   0.350   5.340   2.112 -2.4348  0.4100 -1.8548
  922MOL0     H24458   0.664   5.412   2.369  1.2591  1.9296  3.3792
  922MOL0     H24459   0.818   5.582   2.461  1.6921  1.4084 -0.2802
  922MOL0     H24460   1.096   5.786   2.482  0.5845 -0.9105  4.2643
  922MOL0     H24461   0.928   5.745   2.460  0.2434  0.7569  1.3966
  922MOL0     H24462   1.144   5.605   2.629 -0.4846 -0.2719  0.5225
  922MOL0     H24463   0.974   5.564   2.651  0.2999 -0.2935 -0.9294
  922MOL0     H24464   1.078   5.833   2.680 -2.5382  0.5149 -0.2538
  922MOL0     H24465   1.063   5.719   2.824  0.8681 -1.7943  0.1730
  922MOL0     H24466   0.813   5.820   2.680 -2.3721  0.6785  2.9851
  922MOL0     H24467   0.878   5.853   2.845 -0.6597 -0.7718  0.9311
  922MOL0     H24468   0.644   5.549   2.933 -0.3811  0.6596  0.9034
  922MOL0     H24469   1.131   5.453   2.207  1.3381  0.0234  2.6708
  922MOL0     H24470   0.970   5.293   2.092  0.2459  1.7704 -1.3604
  923MOL0     O24471   4.969   7.717   1.498  0.5340  0.6921  0.1238
  923MOL0     C24472   4.978   7.808   1.584 -0.4824  0.2300  0.1995
  923MOL0     O24473   4.870   7.886   1.619 -0.4306 -0.2179 -0.2977
  923MOL0     C24474   4.764   7.859   1.543  0.7746  0.0662 -0.1100
  923MOL0     C24475   4.647   7.809   1.594 -0.7959  0.1814  0.5817
  923MOL0     C24476   4.534   7.800   1.515  0.9657 -0.7970  0.3000
  923MOL0     C24477   4.532   7.836   1.380 -0.1631  0.4615 -0.7955
  923MOL0     O24478   4.413   7.807   1.319  0.4922 -0.1156  0.4257
  923MOL0     C24479   4.403   7.840   1.179  0.5972 -0.2115  0.0578
  923MOL0     C24480   4.476   7.737   1.090  0.5168 -0.5643 -0.6347
  923MOL0     C24481   4.399   7.610   1.065  0.5996 -0.1539  0.3834
  923MOL0     C24482   4.368   7.537   1.197 -0.1515  0.0684 -0.3891
  923MOL0     C24483   4.337   7.387   1.181 -0.1269 -0.4837  0.2759
  923MOL0     C24484   4.267   7.334   1.314 -0.2603 -1.6951  1.3477
  923MOL0     C24485   4.235   7.184   1.290  0.0002 -1.3062 -0.3760
  923MOL0     C24486   4.158   7.144   1.413  0.3865  1.4852 -0.1480
  923MOL0     N24487   4.027   7.195   1.418  0.0664 -0.5519 -0.3698
  923MOL0     C24488   3.934   7.174   1.318  0.8379  0.1191  0.0874
  923MOL0     C24489   3.821   7.225   1.370 -0.4202  0.7409 -0.2395
  923MOL0     C24490   3.684   7.250   1.296  0.3634  0.1277  0.7716
  923MOL0     C24491   3.576   7.145   1.341 -0.7794 -0.2792  0.3812
  923MOL0     C24492   3.620   6.995   1.325  0.5877 -0.2085  0.3987
  923MOL0     C24493   3.516   6.907   1.405  0.0424  0.9711 -0.2696
  923MOL0     O24494   3.383   6.940   1.374 -0.3623 -0.4261 -0.6271
  923MOL0     C24495   3.288   6.845   1.349 -1.0140  0.0663  0.6501
  923MOL0     C24496   3.270   6.719   1.405  0.4326 -0.2899  0.4865
  923MOL0     C24497   3.168   6.630   1.364 -0.1455  0.7069  0.7314
  923MOL0     C24498   3.191   6.494   1.420  1.1751  0.1506  0.6517
  923MOL0     C24499   3.065   6.666   1.277 -0.5339 -0.2868 -0.8205
  923MOL0     C24500   2.943   6.582   1.249  0.0383 -0.1822 -1.6475
  923MOL0     O24501   2.888   6.622   1.133  0.5234 -0.3782 -0.8355
  923MOL0     C24502   2.777   6.550   1.090 -0.7696 -0.5100 -0.1727
  923MOL0     C24503   2.799   6.434   1.014  0.5569 -0.1285  0.3091
  923MOL0     C24504   2.701   6.359   0.963 -0.3686  0.3908 -0.2413
  923MOL0     C24505   2.568   6.407   0.987 -0.7779  0.2966 -0.2946
  923MOL0     O24506   2.462   6.359   0.925 -0.3005 -0.1542  0.6048
  923MOL0     C24507   2.486   6.259   0.825 -0.4014 -0.6983 -0.6575
  923MOL0     C24508   2.353   6.203   0.795  0.5778  0.7184 -0.0408
  923MOL0     C24509   2.257   6.313   0.752 -0.5419  0.0732  0.0746
  923MOL0     C24510   2.284   6.383   0.621 -0.4522 -0.3427 -1.0525
  923MOL0     C24511   2.163   6.462   0.580 -0.1977  0.0757 -0.5300
  923MOL0     C24512   2.160   6.509   0.432 -0.4370 -0.6675 -0.0124
  923MOL0     C24513   2.017   6.561   0.389 -0.6546 -0.3002 -0.2810
  923MOL0     C24514   1.987   6.698   0.446 -0.3799  1.0055 -0.0218
  923MOL0    Cl24515   2.100   6.825   0.380 -0.1574 -0.0395  0.2965
  923MOL0     C24516   2.541   6.514   1.072 -0.4716  0.0252 -0.4160
  923MOL0     C24517   2.645   6.592   1.113 -0.3104 -0.4587  0.8487
  923MOL0     O24518   2.899   6.508   1.339  0.3332 -0.3707  0.3043
  923MOL0     C24519   3.084   6.797   1.224 -0.0036  0.7252 -0.3276
  923MOL0     C24520   3.192   6.878   1.259 -0.4040 -0.2149  0.7938
  923MOL0     N24521   3.839   7.265   1.498  0.3914 -0.3756 -0.5430
  923MOL0     N24522   3.959   7.241   1.527  0.0819 -0.5446 -0.3683
  923MOL0     C24523   4.653   7.871   1.329  0.7246  0.0243 -0.2686
  923MOL0     C24524   4.764   7.891   1.406 -0.5271  0.7129  0.0743
  923MOL0     C24525   5.104   7.822   1.645 -0.2692 -0.0844 -0.7202
  923MOL0     C24526   5.142   7.931   1.721 -0.2525 -0.1666  0.5240
  923MOL0     C24527   5.264   7.938   1.783 -0.6938  0.7985 -0.2603
  923MOL0     C24528   5.367   7.846   1.757  0.5858 -0.1642  0.0209
  923MOL0     O24529   5.489   7.870   1.816  0.9403 -0.2163  0.4562
  923MOL0     C24530   5.589   7.775   1.823  0.0494 -0.7198 -0.1941
  923MOL0     C24531   5.726   7.820   1.874  0.0636 -0.3354  1.2133
  923MOL0     C24532   5.707   7.902   2.006  0.0641  1.0549  0.0359
  923MOL0     C24533   5.838   7.965   2.054 -0.0931  1.1370 -0.0762
  923MOL0     C24534   5.944   7.861   2.057 -0.3361 -1.1619  0.2252
  923MOL0     C24535   6.029   7.770   2.050 -0.2934 -0.4838 -1.3227
  923MOL0     C24536   5.338   7.739   1.675  0.5909  0.7724  0.6625
  923MOL0     C24537   5.202   7.722   1.626 -0.3202  0.0070 -0.1650
  923MOL0     H24538   4.643   7.777   1.698 -1.5015 -2.5180 -0.2011
  923MOL0     H24539   4.439   7.770   1.557  0.2624  0.4747 -0.2991
  923MOL0     H24540   4.296   7.831   1.157  0.7628 -1.0668 -0.4220
  923MOL0     H24541   4.430   7.943   1.153 -0.4516  0.3136  0.9687
  923MOL0     H24542   4.494   7.781   0.992  1.6432 -1.2219 -0.7457
  923MOL0     H24543   4.576   7.714   1.129  1.2867  1.6063 -1.1977
  923MOL0     H24544   4.307   7.628   1.009  1.3185  2.0290 -0.2202
  923MOL0     H24545   4.461   7.552   0.996  1.0574  0.4898  0.2395
  923MOL0     H24546   4.457   7.541   1.260  1.3894  0.1136 -2.5086
  923MOL0     H24547   4.285   7.580   1.255 -0.1764 -1.0332  0.4425
  923MOL0     H24548   4.262   7.377   1.103  2.2914 -1.0757 -2.1280
  923MOL0     H24549   4.429   7.335   1.152 -1.1453 -2.7882  0.9743
  923MOL0     H24550   4.322   7.362   1.405 -0.1936  0.6545  0.6599
  923MOL0     H24551   4.172   7.387   1.328 -0.2114 -1.5338  1.0641
  923MOL0     H24552   4.178   7.178   1.197  1.9982  3.1159 -2.1668
  923MOL0     H24553   4.335   7.141   1.277  0.8194  0.0795  0.9629
  923MOL0     H24554   4.211   7.174   1.503 -0.4530  2.7135 -0.0439
  923MOL0     H24555   4.152   7.035   1.421  1.0468  1.5229  1.0321
  923MOL0     H24556   3.963   7.148   1.216  0.4587 -0.3248  0.0881
  923MOL0     H24557   3.649   7.351   1.321 -1.3339  0.2441 -1.7307
  923MOL0     H24558   3.684   7.255   1.187 -0.7377 -3.3597  0.4840
  923MOL0     H24559   3.486   7.166   1.283 -0.2025  1.4445  0.0605
  923MOL0     H24560   3.555   7.162   1.446 -3.0364 -0.5107  0.0114
  923MOL0     H24561   3.726   6.977   1.343  0.9059  1.0723 -0.0334
  923MOL0     H24562   3.602   6.963   1.222  1.7538 -1.1991  0.4866
  923MOL0     H24563   3.519   6.924   1.513  1.8262 -0.4826 -0.0352
  923MOL0     H24564   3.536   6.803   1.377 -0.0494  1.2333 -1.3445
  923MOL0     H24565   3.344   6.701   1.483 -0.0140  1.5181  1.3994
  923MOL0     H24566   3.107   6.455   1.479  0.3437  0.5014 -0.2504
  923MOL0     H24567   3.205   6.423   1.338  0.2309 -0.9681  1.4295
  923MOL0     H24568   3.277   6.488   1.486  1.6664 -3.9884 -0.1357
  923MOL0     H24569   2.897   6.400   0.982  1.6704  1.5511  1.7836
  923MOL0     H24570   2.728   6.272   0.903 -5.1383 -0.0586 -2.2046
  923MOL0     H24571   2.550   6.296   0.746  1.7846  2.7033  2.4096
  923MOL0     H24572   2.538   6.175   0.873 -3.3734 -1.9129  0.7434
  923MOL0     H24573   2.353   6.118   0.727 -0.7871 -1.4067  2.4121
  923MOL0     H24574   2.316   6.164   0.890 -1.0901 -1.5888 -1.5407
  923MOL0     H24575   2.255   6.392   0.828  3.2180 -0.5715  0.9995
  923MOL0     H24576   2.165   6.259   0.728  0.4508  0.0629 -4.7251
  923MOL0     H24577   2.371   6.448   0.617 -0.6225 -0.1233 -1.2373
  923MOL0     H24578   2.307   6.301   0.552  2.9096 -0.7086  0.3217
  923MOL0     H24579   2.158   6.551   0.644  1.2059 -0.1487 -0.0764
  923MOL0     H24580   2.071   6.402   0.586  0.7324 -1.3098  0.4653
  923MOL0     H24581   2.241   6.581   0.416 -1.0070 -0.1942 -0.8377
  923MOL0     H24582   2.178   6.423   0.366  0.1656 -0.6310  0.0952
  923MOL0     H24583   1.944   6.487   0.423  1.2719 -1.9223  0.5032
  923MOL0     H24584   2.007   6.571   0.280  2.3977 -0.2687 -0.6531
  923MOL0     H24585   1.993   6.700   0.555  0.8735 -0.9113 -0.0154
  923MOL0     H24586   1.889   6.731   0.411  0.1162 -0.0822 -2.6711
  923MOL0     H24587   2.438   6.532   1.101  0.0714 -0.5352  2.1089
  923MOL0     H24588   2.626   6.686   1.163  4.8677  0.8842  0.7818
  923MOL0     H24589   3.019   6.835   1.146 -0.9330 -1.1858 -0.5490
  923MOL0     H24590   3.216   6.977   1.221 -0.0447 -1.0645 -1.3624
  923MOL0     H24591   4.675   7.884   1.224  3.2257 -0.9997  0.0567
  923MOL0     H24592   4.862   7.913   1.364  0.1672 -0.5531  0.9676
  923MOL0     H24593   5.071   8.010   1.745 -0.4499 -0.6225  1.4862
  923MOL0     H24594   5.289   8.024   1.844 -0.9218  0.7186 -0.0510
  923MOL0     H24595   5.551   7.705   1.898 -1.3484 -0.9403 -1.0686
  923MOL0     H24596   5.600   7.720   1.729  1.1435  0.5396 -0.8355
  923MOL0     H24597   5.767   7.883   1.795  1.6306 -3.0074 -0.2477
  923MOL0     H24598   5.783   7.728   1.891  0.7799 -0.0538  0.4120
  923MOL0     H24599   5.656   7.844   2.084 -1.4552 -1.7359 -2.7736
  923MOL0     H24600   5.637   7.983   1.982 -1.3014 -0.0532  0.1485
  923MOL0     H24601   5.819   8.016   2.149  0.5259  1.8919 -0.3476
  923MOL0     H24602   5.868   8.047   1.987 -0.2729  0.7270 -0.6690
  923MOL0     H24603   6.097   7.691   2.024 -2.9468 -4.7360  3.0046
  923MOL0     H24604   5.420   7.688   1.627  0.0974 -0.1835  0.8254
  923MOL0     H24605   5.191   7.642   1.553 -0.6147  0.1192 -0.2434
  924MOL0     O24606   3.193   8.941   4.167 -0.0003 -0.3401  0.5439
  924MOL0     C24607   3.175   8.921   4.284  0.2311 -0.1244 -0.4420
  924MOL0     O24608   3.077   8.975   4.357  0.0971  0.6113 -0.4854
  924MOL0     C24609   2.961   9.010   4.296 -0.3314 -0.7073  0.4368
  924MOL0     C24610   2.941   9.130   4.227  0.0193  0.1423  0.4122
  924MOL0     C24611   2.808   9.164   4.191 -0.2292  0.3340 -0.0982
  924MOL0     C24612   2.707   9.071   4.216  0.8268 -0.3080  1.1054
  924MOL0     O24613   2.570   9.093   4.179 -0.5206 -0.5525  0.1324
  924MOL0     C24614   2.555   9.212   4.092 -0.1408  0.1330  0.0132
  924MOL0     C24615   2.419   9.223   4.035  0.5459 -0.3677  0.3094
  924MOL0     C24616   2.373   9.102   3.943 -0.2125 -0.0059  0.1181
  924MOL0     C24617   2.306   9.142   3.805 -0.1230 -0.5857  0.0291
  924MOL0     C24618   2.231   9.015   3.741 -0.5161 -0.0810  0.7136
  924MOL0     C24619   2.248   9.040   3.588  0.2662  0.3580  0.0579
  924MOL0     C24620   2.182   8.919   3.519  0.6592 -0.4384  0.7965
  924MOL0     C24621   2.200   8.912   3.369  0.3403  0.1861  0.3665
  924MOL0     N24622   2.140   9.029   3.301 -0.1079 -0.2890 -0.5043
  924MOL0     C24623   2.205   9.137   3.261  0.9969 -0.2618  0.1397
  924MOL0     C24624   2.111   9.226   3.208 -0.3873  0.2070  0.0828
  924MOL0     C24625   2.155   9.360   3.160  0.2970 -0.2340 -0.3768
  924MOL0     C24626   2.095   9.399   3.030  1.0748 -0.3866 -0.2631
  924MOL0     C24627   2.114   9.310   2.912  0.4241  0.4730 -0.3097
  924MOL0     C24628   2.265   9.285   2.878  0.1518  0.0306  0.2296
  924MOL0     O24629   2.313   9.388   2.796  0.9255 -0.4425  0.3379
  924MOL0     C24630   2.438   9.379   2.741  0.2077 -0.4617  0.0260
  924MOL0     C24631   2.508   9.259   2.713 -0.2578  0.3505 -0.2459
  924MOL0     C24632   2.631   9.263   2.648 -0.0823 -1.0340  0.0550
  924MOL0     C24633   2.704   9.128   2.634  0.7076 -0.3343  0.7576
  924MOL0     C24634   2.700   9.389   2.620  0.4169 -0.5534 -0.5362
  924MOL0     C24635   2.848   9.400   2.576 -0.0903  0.7623  0.9902
  924MOL0     O24636   2.927   9.292   2.616 -0.1120  1.0293  0.5144
  924MOL0     C24637   3.054   9.270   2.556  0.6157 -1.2427  0.0402
  924MOL0     C24638   3.161   9.348   2.591 -0.0552  0.0209  0.1149
  924MOL0     C24639   3.289   9.317   2.537  0.0939 -0.0884  0.6602
  924MOL0     C24640   3.289   9.211   2.430 -0.2795  0.7445 -0.3638
  924MOL0     O24641   3.393   9.171   2.350  0.3836  0.6800  0.1631
  924MOL0     C24642   3.520   9.217   2.375 -0.9571  0.5996 -0.5675
  924MOL0     C24643   3.621   9.183   2.258  0.1168 -0.6124 -0.2548
  924MOL0     C24644   3.761   9.215   2.309  0.0195 -0.5875  0.6075
  924MOL0     C24645   3.869   9.169   2.207 -0.8231  0.4589 -0.3093
  924MOL0     C24646   4.009   9.231   2.245  0.2736 -0.8268  0.2177
  924MOL0     C24647   4.114   9.216   2.135 -1.0883  0.7090 -0.7623
  924MOL0     C24648   4.142   9.068   2.105 -0.4997  0.4005  0.6914
  924MOL0     C24649   4.265   9.059   2.011  0.2991 -0.4519 -0.0014
  924MOL0    Cl24650   4.408   9.121   2.102  0.0367 -0.4385  0.2133
  924MOL0     C24651   3.173   9.146   2.392 -0.7695 -0.4837 -0.2974
  924MOL0     C24652   3.055   9.167   2.459  0.2371 -0.1039 -0.3497
  924MOL0     O24653   2.888   9.498   2.511 -0.5346  0.5881  0.9634
  924MOL0     C24654   2.621   9.503   2.641  0.0557  0.2539  0.1353
  924MOL0     C24655   2.487   9.502   2.685 -0.0437 -0.2676 -0.6470
  924MOL0     N24656   1.996   9.157   3.214 -0.9125  0.4168 -0.3382
  924MOL0     N24657   2.012   9.045   3.271 -0.5240  0.2939 -0.3810
  924MOL0     C24658   2.726   8.959   4.287  0.7918  0.7886  0.5914
  924MOL0     C24659   2.847   8.936   4.337  0.3034 -0.4908  0.7433
  924MOL0     C24660   3.277   8.839   4.341 -0.5734 -0.0748 -0.0875
  924MOL0     C24661   3.312   8.852   4.474  0.6562 -0.0704 -0.4671
  924MOL0     C24662   3.393   8.769   4.546 -0.8174  0.7461  0.0622
  924MOL0     C24663   3.453   8.661   4.476 -0.0956  0.0038  0.9141
  924MOL0     O24664   3.540   8.585   4.550  0.1371 -0.3967 -0.2515
  924MOL0     C24665   3.543   8.440   4.513  1.2980 -0.0172  0.2329
  924MOL0     C24666   3.594   8.355   4.622  0.5945  0.0860 -0.1835
  924MOL0     C24667   3.743   8.371   4.665  0.7853  0.3672 -0.3596
  924MOL0     C24668   3.789   8.253   4.765 -0.8057 -0.5236 -0.5327
  924MOL0     C24669   3.688   8.183   4.838  0.9890  0.7180  0.2525
  924MOL0     C24670   3.605   8.123   4.896  0.8496  0.1961  0.3054
  924MOL0     C24671   3.423   8.644   4.337  0.0450  0.2798 -0.6579
  924MOL0     C24672   3.342   8.742   4.266 -0.4530 -0.3062  0.0408
  924MOL0     H24673   3.023   9.200   4.208 -0.6574  0.5185 -1.3662
  924MOL0     H24674   2.790   9.259   4.143 -2.7747  0.7193  1.4502
  924MOL0     H24675   2.581   9.301   4.149  0.6221 -0.8452  1.2546
  924MOL0     H24676   2.626   9.212   4.010  1.2986 -0.5016  1.2065
  924MOL0     H24677   2.354   9.214   4.122  0.4733  0.5147  0.3582
  924MOL0     H24678   2.395   9.314   3.979 -3.9565 -1.4076  0.2052
  924MOL0     H24679   2.459   9.036   3.930 -0.8124 -0.7331 -0.1766
  924MOL0     H24680   2.293   9.053   3.999 -0.3295  1.9272  1.7639
  924MOL0     H24681   2.238   9.227   3.809  1.2915  0.5604  0.1343
  924MOL0     H24682   2.392   9.173   3.746 -0.1918  1.3003  0.8637
  924MOL0     H24683   2.292   8.926   3.758  0.6960  0.5737 -0.0724
  924MOL0     H24684   2.125   9.009   3.767 -0.6202 -1.4405  0.0781
  924MOL0     H24685   2.208   9.134   3.548 -2.8295 -0.1566  1.6187
  924MOL0     H24686   2.352   9.020   3.563 -0.7209 -1.3426 -3.2833
  924MOL0     H24687   2.213   8.825   3.565 -0.9411 -1.3473  0.1367
  924MOL0     H24688   2.075   8.938   3.531  1.0013  3.3924 -0.8065
  924MOL0     H24689   2.146   8.828   3.324 -1.7996  2.1204 -0.9217
  924MOL0     H24690   2.307   8.894   3.355 -0.0125 -1.7717 -0.1075
  924MOL0     H24691   2.311   9.157   3.269  0.6159  2.7900 -1.2836
  924MOL0     H24692   2.137   9.433   3.239  0.0062 -1.7304  1.0017
  924MOL0     H24693   2.264   9.361   3.160  0.3741 -1.9093  1.5919
  924MOL0     H24694   2.134   9.499   3.005  1.0744  0.2155  1.8936
  924MOL0     H24695   1.987   9.415   3.037  1.4299  2.6835 -0.1983
  924MOL0     H24696   2.052   9.329   2.824  0.6368  0.3511 -0.4888
  924MOL0     H24697   2.068   9.216   2.944 -2.8778  1.4705 -1.7583
  924MOL0     H24698   2.277   9.189   2.828 -0.1047  1.5094 -2.8686
  924MOL0     H24699   2.318   9.276   2.974 -0.2847  0.1982  0.4893
  924MOL0     H24700   2.465   9.165   2.743 -0.7933  0.5950 -0.2393
  924MOL0     H24701   2.642   9.039   2.623 -0.8652  0.7982  0.1235
  924MOL0     H24702   2.769   9.127   2.546  2.9188 -0.1967  2.3053
  924MOL0     H24703   2.758   9.110   2.727  0.7182  2.2227  1.3119
  924MOL0     H24704   3.154   9.420   2.672 -0.5429  0.8497 -0.6581
  924MOL0     H24705   3.384   9.365   2.559 -0.2816  1.5478 -0.9859
  924MOL0     H24706   3.530   9.326   2.383  5.4665  0.2519  5.3102
  924MOL0     H24707   3.553   9.186   2.474 -0.4888 -1.5785 -1.3438
  924MOL0     H24708   3.622   9.075   2.239  0.5885 -0.4003 -1.5430
  924MOL0     H24709   3.590   9.242   2.171 -0.1879  0.0855  0.3151
  924MOL0     H24710   3.786   9.166   2.404  1.8202  2.8794  2.0949
  924MOL0     H24711   3.765   9.322   2.331 -2.4584  0.2334 -2.2800
  924MOL0     H24712   3.870   9.060   2.198  0.3177  0.6033 -3.3352
  924MOL0     H24713   3.854   9.208   2.106 -3.1838  0.0721 -0.1676
  924MOL0     H24714   4.040   9.180   2.337 -0.7145 -0.9157  0.5127
  924MOL0     H24715   4.005   9.340   2.252 -1.8606 -0.8962  0.9559
  924MOL0     H24716   4.072   9.267   2.048 -1.7938  2.5544  0.5970
  924MOL0     H24717   4.207   9.270   2.153 -0.2290 -0.6756 -0.9114
  924MOL0     H24718   4.058   9.016   2.057 -2.5020  0.0414  4.2656
  924MOL0     H24719   4.172   9.008   2.191 -1.8838 -1.3457  0.0133
  924MOL0     H24720   4.250   9.137   1.935  2.2595  1.0196  1.0327
  924MOL0     H24721   4.279   8.961   1.965 -2.0930  0.3708 -2.8312
  924MOL0     H24722   3.168   9.083   2.304  0.3006  2.1035 -2.3045
  924MOL0     H24723   2.969   9.108   2.427 -0.0869 -0.7035  1.4957
  924MOL0     H24724   2.668   9.598   2.617  2.3671 -0.3493  1.9116
  924MOL0     H24725   2.415   9.583   2.687 -0.7887 -0.9290  0.6292
  924MOL0     H24726   2.647   8.890   4.314  0.6278  1.0647  0.8266
  924MOL0     H24727   2.852   8.848   4.400 -0.8737 -0.5088  0.8264
  924MOL0     H24728   3.266   8.938   4.523  2.0410  0.2840  0.2619
  924MOL0     H24729   3.418   8.778   4.651  1.6875  0.2265 -0.4154
  924MOL0     H24730   3.440   8.413   4.487  1.0592 -0.6084  1.7023
  924MOL0     H24731   3.608   8.417   4.428  3.5856 -4.0666  2.7725
  924MOL0     H24732   3.564   8.257   4.583 -1.1055  2.1011 -4.5171
  924MOL0     H24733   3.523   8.375   4.703 -1.9477  1.8121 -2.6520
  924MOL0     H24734   3.764   8.468   4.711  1.4400  0.2646 -0.4454
  924MOL0     H24735   3.805   8.368   4.575  0.8932 -1.4870 -0.2513
  924MOL0     H24736   3.860   8.300   4.833 -1.4187 -2.7289  1.8119
  924MOL0     H24737   3.843   8.176   4.709 -2.8576 -1.6046 -1.1197
  924MOL0     H24738   3.530   8.076   4.957  0.6797 -0.8524 -0.6772
  924MOL0     H24739   3.473   8.556   4.297 -4.5523 -3.6917  1.3519
  924MOL0     H24740   3.311   8.724   4.163 -0.4924 -1.1073  0.1876
  925MOL0     O24741   4.743   1.130   3.326 -0.3057  0.2488 -0.2604
  925MOL0     C24742   4.801   1.101   3.434 -0.4597 -0.5214 -0.5400
  925MOL0     O24743   4.734   1.059   3.547  0.2448  0.3693  0.1962
  925MOL0     C24744   4.609   1.099   3.571  0.8933 -0.0232  0.3636
  925MOL0     C24745   4.541   1.019   3.668  0.6036  0.2049 -0.0352
  925MOL0     C24746   4.406   1.046   3.702  0.3245  0.7471  0.0680
  925MOL0     C24747   4.341   1.153   3.640 -0.7499 -0.3129  0.4351
  925MOL0     O24748   4.199   1.158   3.658 -0.3906  0.2692  0.5917
  925MOL0     C24749   4.125   1.046   3.604 -0.1381  0.1245 -0.0777
  925MOL0     C24750   3.972   1.051   3.633  0.0098 -0.0727 -0.0157
  925MOL0     C24751   3.923   1.015   3.771  0.7265  0.2620  0.5732
  925MOL0     C24752   3.778   0.952   3.773 -0.5055 -0.6757 -0.2000
  925MOL0     C24753   3.735   0.930   3.922 -0.5722  0.8498 -0.0889
  925MOL0     C24754   3.608   0.839   3.941 -0.8578  0.6171  0.8812
  925MOL0     C24755   3.538   0.857   4.081  0.1118  1.3401  1.0365
  925MOL0     C24756   3.635   0.821   4.192 -0.3874  0.1200  0.3625
  925MOL0     N24757   3.574   0.802   4.331 -0.2593  0.6335  0.1992
  925MOL0     C24758   3.536   0.896   4.416 -0.8598 -0.4400 -1.7885
  925MOL0     C24759   3.521   0.839   4.538 -0.4205  0.4304  0.2152
  925MOL0     C24760   3.479   0.892   4.677 -0.7983 -0.4792  0.7563
  925MOL0     C24761   3.336   0.903   4.693  0.5329 -0.5469 -0.2386
  925MOL0     C24762   3.302   0.984   4.828  0.0536  0.3244 -0.6264
  925MOL0     C24763   3.337   0.909   4.953 -0.8893 -0.9688  0.2564
  925MOL0     O24764   3.257   0.792   4.957 -0.3075 -0.2280  0.0850
  925MOL0     C24765   3.132   0.812   5.010  0.4952  0.1770  0.4090
  925MOL0     C24766   3.021   0.851   4.932 -0.1141  0.8005  0.5214
  925MOL0     C24767   2.893   0.859   4.980  0.4512 -0.2015 -0.3865
  925MOL0     C24768   2.783   0.899   4.889  0.0247  0.0775 -1.0704
  925MOL0     C24769   2.863   0.842   5.120 -0.2580  0.8623  0.1631
  925MOL0     C24770   2.740   0.833   5.188  1.3077  0.8990 -0.9855
  925MOL0     O24771   2.735   0.842   5.333  0.1769  0.4346  0.4822
  925MOL0     C24772   2.614   0.876   5.387 -0.5663 -0.6438 -0.2911
  925MOL0     C24773   2.532   0.974   5.318  0.7451 -0.2363 -0.3443
  925MOL0     C24774   2.409   1.009   5.384  0.0811  0.2862  0.1590
  925MOL0     C24775   2.376   0.948   5.496 -0.1421 -0.7538 -0.9604
  925MOL0     O24776   2.256   0.982   5.554  0.4916  0.1783 -0.5090
  925MOL0     C24777   2.140   0.983   5.464 -0.2101 -0.5321 -0.2788
  925MOL0     C24778   2.019   0.924   5.540 -0.5781 -0.9974  0.3039
  925MOL0     C24779   1.990   0.993   5.676 -0.7471  0.2368 -0.5327
  925MOL0     C24780   1.929   1.126   5.660 -0.0162  0.6434 -0.0570
  925MOL0     C24781   1.873   1.180   5.795  0.6205 -0.3781 -0.1188
  925MOL0     C24782   1.777   1.298   5.771  0.6204 -0.8101 -0.0991
  925MOL0     C24783   1.680   1.337   5.884 -0.2941  0.5253  1.4803
  925MOL0     C24784   1.639   1.484   5.889 -0.1713 -0.0274  0.5017
  925MOL0    Cl24785   1.772   1.602   5.934  0.2589 -0.1663 -0.0254
  925MOL0     C24786   2.447   0.852   5.562 -0.2939  0.4569  0.5466
  925MOL0     C24787   2.572   0.818   5.509 -0.4298  1.0981  0.5289
  925MOL0     O24788   2.645   0.792   5.124  0.1793 -0.4275  0.5277
  925MOL0     C24789   2.974   0.798   5.195 -0.4466 -0.9082  0.3171
  925MOL0     C24790   3.104   0.789   5.143  1.0722 -0.4600  0.4651
  925MOL0     N24791   3.545   0.706   4.515  0.3418  0.1266  0.6899
  925MOL0     N24792   3.572   0.683   4.393  0.8043  0.3293 -0.6607
  925MOL0     C24793   4.410   1.243   3.564 -0.1226 -1.0096  0.2275
  925MOL0     C24794   4.544   1.214   3.529  0.0194 -0.8243  0.6517
  925MOL0     C24795   4.949   1.073   3.431  0.1986 -0.7053  0.2991
  925MOL0     C24796   5.041   1.171   3.497  0.5902 -0.2692  0.7506
  925MOL0     C24797   5.167   1.133   3.526 -0.9841 -0.0639 -0.7828
  925MOL0     C24798   5.219   1.007   3.487 -1.4086  0.7906 -0.2513
  925MOL0     O24799   5.344   0.955   3.524  0.1428 -0.0440 -0.3015
  925MOL0     C24800   5.438   1.024   3.440 -0.5308  0.5189 -0.2050
  925MOL0     C24801   5.582   0.960   3.462  0.3833  0.0928  1.0417
  925MOL0     C24802   5.620   0.948   3.609  0.1640 -0.1584  0.8006
  925MOL0     C24803   5.777   0.951   3.618  1.0234 -1.0651 -0.5095
  925MOL0     C24804   5.823   0.917   3.752  0.1141  0.2391 -0.0187
  925MOL0     C24805   5.871   0.898   3.859  0.2241  0.2342 -0.7872
  925MOL0     C24806   5.130   0.917   3.432 -0.3030 -0.7337 -0.8066
  925MOL0     C24807   4.996   0.946   3.398 -0.4385  0.5904 -0.5358
  925MOL0     H24808   4.597   0.934   3.707  0.8781  0.1977 -0.4435
  925MOL0     H24809   4.354   0.990   3.779  0.7569  1.4656  0.9026
  925MOL0     H24810   4.137   1.032   3.496  1.0704 -1.1792  0.1844
  925MOL0     H24811   4.167   0.952   3.642  2.4381  1.5350  0.8483
  925MOL0     H24812   3.942   1.152   3.605  2.9177  0.4970 -1.4560
  925MOL0     H24813   3.926   0.976   3.567  2.3891 -1.0062 -0.7194
  925MOL0     H24814   3.982   0.937   3.821  0.8300  0.6661  1.0950
  925MOL0     H24815   3.928   1.100   3.841  0.4987  0.2480  0.6067
  925MOL0     H24816   3.715   1.027   3.724  0.7673  0.5217 -0.0562
  925MOL0     H24817   3.780   0.854   3.724  3.9996 -0.5293 -0.7858
  925MOL0     H24818   3.818   0.880   3.974 -0.7732 -0.4723 -0.9850
  925MOL0     H24819   3.711   1.022   3.976 -4.4837  0.1878 -0.4364
  925MOL0     H24820   3.536   0.869   3.865 -1.1844 -0.2919  0.8281
  925MOL0     H24821   3.646   0.737   3.931  3.5444  2.1175 -0.2235
  925MOL0     H24822   3.517   0.964   4.090  0.3001  1.6810 -1.7928
  925MOL0     H24823   3.450   0.794   4.094  1.6811 -1.3052 -0.1614
  925MOL0     H24824   3.710   0.901   4.197  1.6534 -1.2763 -3.5763
  925MOL0     H24825   3.693   0.729   4.177  2.4976  1.6539  1.3001
  925MOL0     H24826   3.528   1.003   4.401 -1.6431 -0.0140  1.1583
  925MOL0     H24827   3.518   0.825   4.754 -1.2118  1.1933  2.4744
  925MOL0     H24828   3.521   0.992   4.685 -1.3845 -0.3836  3.5940
  925MOL0     H24829   3.303   0.799   4.700  1.2778 -0.6599  3.5075
  925MOL0     H24830   3.305   0.960   4.604  0.2676 -3.0222 -1.8272
  925MOL0     H24831   3.201   1.024   4.818 -0.2374 -0.0476  0.7033
  925MOL0     H24832   3.359   1.077   4.841 -1.6887  1.6304 -1.7676
  925MOL0     H24833   3.335   0.973   5.042  2.1448  0.9594 -0.9201
  925MOL0     H24834   3.435   0.864   4.936 -1.3009 -1.1696 -1.8938
  925MOL0     H24835   3.027   0.868   4.825 -1.0483  0.2960  0.3730
  925MOL0     H24836   2.714   0.970   4.936  0.9118 -0.8113  1.7598
  925MOL0     H24837   2.832   0.952   4.807  1.3761  0.5242 -0.0167
  925MOL0     H24838   2.728   0.810   4.859  1.5073 -2.3786  2.8074
  925MOL0     H24839   2.558   1.020   5.223 -1.5977  1.8104 -0.0848
  925MOL0     H24840   2.356   1.081   5.323  0.3818 -1.9595 -3.0588
  925MOL0     H24841   2.120   1.083   5.423  2.2249 -0.7258 -2.2109
  925MOL0     H24842   2.153   0.929   5.370 -0.7243 -0.0555 -0.6294
  925MOL0     H24843   1.930   0.931   5.478  0.3737  0.0245 -1.0076
  925MOL0     H24844   2.036   0.817   5.557 -2.9540 -2.2462 -3.9008
  925MOL0     H24845   2.085   0.999   5.729 -0.4839  1.3789 -1.0984
  925MOL0     H24846   1.929   0.925   5.737 -2.1956 -3.2228 -5.2119
  925MOL0     H24847   2.007   1.196   5.628  0.5892 -0.0758 -0.1857
  925MOL0     H24848   1.849   1.120   5.586 -0.9003  0.4022  0.8895
  925MOL0     H24849   1.964   1.205   5.851  0.7961  0.3728 -0.7123
  925MOL0     H24850   1.820   1.101   5.849 -1.0968  0.8165  0.0536
  925MOL0     H24851   1.839   1.386   5.752 -0.5647 -0.4912 -3.0427
  925MOL0     H24852   1.725   1.283   5.676 -0.4306  1.6019  0.0159
  925MOL0     H24853   1.727   1.317   5.980 -1.9108 -0.6930  2.0606
  925MOL0     H24854   1.593   1.272   5.877 -1.3174  1.8070  1.7969
  925MOL0     H24855   1.549   1.500   5.948  1.3544  2.3926  2.3661
  925MOL0     H24856   1.605   1.513   5.789  0.3121  1.9583  0.8677
  925MOL0     H24857   2.407   0.794   5.645 -0.0549 -0.1679  0.2328
  925MOL0     H24858   2.638   0.750   5.561  1.9382  2.0049 -1.1010
  925MOL0     H24859   2.962   0.754   5.294 -2.7385  0.0649  0.5368
  925MOL0     H24860   3.177   0.759   5.217 -2.6590 -0.2235  4.6747
  925MOL0     H24861   4.361   1.337   3.540  1.5380  0.4933  2.3738
  925MOL0     H24862   4.597   1.285   3.466 -0.7407 -2.4630 -1.9958
  925MOL0     H24863   5.008   1.272   3.520  3.8339  1.0559  0.0831
  925MOL0     H24864   5.235   1.202   3.576 -0.3396  0.8071 -2.7792
  925MOL0     H24865   5.420   1.008   3.334 -2.4616 -2.6457  0.4791
  925MOL0     H24866   5.449   1.126   3.478  2.4707  1.0926 -2.3134
  925MOL0     H24867   5.658   1.021   3.412  0.8731  1.3196  3.1431
  925MOL0     H24868   5.603   0.860   3.423  1.3578 -0.3510  2.5923
  925MOL0     H24869   5.578   0.857   3.652 -1.5904 -0.4634 -1.3440
  925MOL0     H24870   5.575   1.027   3.669 -0.7500 -0.5502  0.6553
  925MOL0     H24871   5.803   1.054   3.591 -1.7629 -0.1858 -0.1293
  925MOL0     H24872   5.815   0.884   3.539 -1.7716 -4.2114  0.5665
  925MOL0     H24873   5.899   0.897   3.962 -0.6502  3.8913 -0.3808
  925MOL0     H24874   5.175   0.818   3.430  1.7259  0.1157 -3.4496
  925MOL0     H24875   4.934   0.867   3.357  1.2942 -1.1145 -0.0245
  926MOL0     O24876   4.880   8.589   6.600  0.2843  0.2381  0.3970
  926MOL0     C24877   4.826   8.554   6.498 -0.7830 -0.6614 -0.0940
  926MOL0     O24878   4.737   8.632   6.430  0.2580 -0.3674 -0.4015
  926MOL0     C24879   4.665   8.734   6.493 -0.8135  0.1632  0.4385
  926MOL0     C24880   4.721   8.845   6.542  0.3748 -1.3513  0.4796
  926MOL0     C24881   4.639   8.939   6.599  0.5780  0.9244  1.3813
  926MOL0     C24882   4.500   8.918   6.617 -0.7633  0.5120 -0.2045
  926MOL0     O24883   4.413   9.006   6.675  0.6939 -0.3088  0.4836
  926MOL0     C24884   4.449   9.049   6.801  0.0022 -0.4467  0.2161
  926MOL0     C24885   4.337   9.114   6.878 -0.0622  0.4093  0.3836
  926MOL0     C24886   4.268   9.242   6.817  1.1755  0.2419 -0.9139
  926MOL0     C24887   4.193   9.201   6.687 -0.3586 -0.2051  0.2044
  926MOL0     C24888   4.110   9.333   6.660 -0.3650  0.1404  0.7640
  926MOL0     C24889   4.159   9.408   6.537 -0.8829 -0.0999 -0.2418
  926MOL0     C24890   4.088   9.543   6.528 -0.0592 -0.7138  0.1746
  926MOL0     C24891   4.145   9.620   6.405 -0.2706  0.2868 -0.6162
  926MOL0     N24892   4.100   9.755   6.401 -1.0498  0.1809  0.1814
  926MOL0     C24893   4.168   9.861   6.466 -0.5340  1.0720  1.1963
  926MOL0     C24894   4.073   9.951   6.478 -0.9618  0.4240  0.1058
  926MOL0     C24895   4.081  10.077   6.571 -0.5471  0.9312 -0.3603
  926MOL0     C24896   4.138  10.206   6.502  0.9474  0.0315  0.3745
  926MOL0     C24897   4.022  10.258   6.406 -0.6248 -0.0065  0.0587
  926MOL0     C24898   4.083  10.362   6.310  0.3137  0.0180 -0.0939
  926MOL0     O24899   4.103  10.489   6.374  0.3752  0.0223 -0.1048
  926MOL0     C24900   4.114  10.603   6.307 -0.2637 -0.5395 -0.2137
  926MOL0     C24901   4.207  10.681   6.378  0.2921  0.0901  0.0866
  926MOL0     C24902   4.244  10.800   6.332 -0.2190 -0.7192  0.4943
  926MOL0     C24903   4.365  10.858   6.409 -0.4609  0.7728  0.1316
  926MOL0     C24904   4.170  10.855   6.217 -0.7755  0.2667 -0.3649
  926MOL0     C24905   4.204  10.984   6.167  0.3424  0.7263 -1.1481
  926MOL0     O24906   4.118  11.047   6.082 -0.3647 -0.4762  0.3087
  926MOL0     C24907   4.148  11.177   6.031 -0.1852  0.4533 -0.2472
  926MOL0     C24908   4.260  11.210   5.955 -0.1157  0.0358  0.5660
  926MOL0     C24909   4.273  11.331   5.884  0.5778 -0.2241  0.2472
  926MOL0     C24910   4.180  11.435   5.918  0.4561  0.1734 -0.0221
  926MOL0     O24911   4.197  11.565   5.882  0.4939 -0.7114  0.0482
  926MOL0     C24912   4.122  11.667   5.943 -0.1961  0.1687  0.5288
  926MOL0     C24913   4.198  11.799   5.902 -1.4165  0.1521  0.0142
  926MOL0     C24914   4.095  11.906   5.952  0.6240  0.1020 -0.5971
  926MOL0     C24915   4.130  11.965   6.096 -0.4504 -0.0726  0.3621
  926MOL0     C24916   4.067  12.095   6.131  0.3035 -0.7787  0.9162
  926MOL0     C24917   4.101  12.203   6.025 -0.2677  0.0178  0.6122
  926MOL0     C24918   4.059  12.343   6.066  0.9159 -0.4298  0.0357
  926MOL0     C24919   4.152  12.419   6.154  0.0996 -0.3624 -0.2432
  926MOL0    Cl24920   4.105  12.593   6.160  0.1978 -0.4096  0.2611
  926MOL0     C24921   4.072  11.397   6.003  0.0184  0.9140 -0.1311
  926MOL0     C24922   4.049  11.275   6.056  0.7377 -1.1742 -1.2649
  926MOL0     O24923   4.314  11.028   6.201 -0.0230  0.2849 -0.2619
  926MOL0     C24924   4.080  10.773   6.148 -0.0667  0.3277 -0.1068
  926MOL0     C24925   4.056  10.645   6.195  0.3897  0.1008 -0.2487
  926MOL0     N24926   3.960   9.906   6.423  0.1502 -0.0744 -0.3798
  926MOL0     N24927   3.976   9.793   6.372 -0.5872 -0.0175 -0.5326
  926MOL0     C24928   4.447   8.803   6.559 -0.5097  0.6873 -0.1543
  926MOL0     C24929   4.535   8.709   6.499  0.1911  0.3025  0.5249
  926MOL0     C24930   4.858   8.419   6.437 -0.0854 -0.3212 -0.0716
  926MOL0     C24931   4.940   8.330   6.503 -0.9802 -0.5477  0.0496
  926MOL0     C24932   4.960   8.199   6.449 -0.5635 -0.7643  0.2441
  926MOL0     C24933   4.906   8.166   6.320  0.4534  0.5051  0.5839
  926MOL0     O24934   4.916   8.043   6.244 -0.1016  0.0620 -0.0257
  926MOL0     C24935   5.026   7.946   6.277 -0.1979 -0.2133  0.1589
  926MOL0     C24936   5.020   7.823   6.192  0.1749  0.2464 -0.5066
  926MOL0     C24937   4.887   7.760   6.225 -0.5088  1.1267  0.4794
  926MOL0     C24938   4.816   7.715   6.095 -0.3332 -0.5467  1.4539
  926MOL0     C24939   4.882   7.604   6.028  0.4142  1.3915 -1.1306
  926MOL0     C24940   4.946   7.520   5.961 -0.0762  0.2858 -0.2077
  926MOL0     C24941   4.828   8.265   6.254 -0.7365  0.3497 -0.4705
  926MOL0     C24942   4.801   8.385   6.314 -0.0688  0.3096  0.2556
  926MOL0     H24943   4.828   8.861   6.529  0.3298 -2.3030 -1.3683
  926MOL0     H24944   4.682   9.033   6.633  1.7665  0.8213  0.2405
  926MOL0     H24945   4.492   8.967   6.860  1.7165  1.2788  1.4921
  926MOL0     H24946   4.513   9.137   6.789 -0.7328  0.3409  1.7204
  926MOL0     H24947   4.260   9.039   6.899 -0.5437  0.7919  0.0183
  926MOL0     H24948   4.381   9.138   6.976  1.0142 -0.7331  0.1999
  926MOL0     H24949   4.199   9.279   6.894  2.1371 -0.8411  0.5178
  926MOL0     H24950   4.337   9.326   6.814 -1.3016  3.2621  5.7993
  926MOL0     H24951   4.253   9.172   6.601 -1.2216 -2.3684  0.2607
  926MOL0     H24952   4.123   9.117   6.694 -1.4000  0.3587 -2.5059
  926MOL0     H24953   4.009   9.306   6.627 -0.6922  1.2961  0.7793
  926MOL0     H24954   4.092   9.395   6.748 -3.0412  1.0088 -0.3038
  926MOL0     H24955   4.265   9.437   6.546 -1.8232  4.4492 -1.2392
  926MOL0     H24956   4.145   9.339   6.453 -0.2456 -0.9668  0.3436
  926MOL0     H24957   3.984   9.514   6.510  0.0333 -0.5594 -0.6766
  926MOL0     H24958   4.110   9.605   6.615  3.1836  2.3409 -2.5214
  926MOL0     H24959   4.121   9.563   6.314  0.4332  0.7709 -1.1231
  926MOL0     H24960   4.254   9.617   6.409 -0.2985 -3.3796  0.7541
  926MOL0     H24961   4.267   9.857   6.510 -1.0340  0.1166  2.2863
  926MOL0     H24962   3.981  10.091   6.614  0.4158  0.9142  1.9944
  926MOL0     H24963   4.154  10.055   6.649 -0.2793  2.7005 -0.0692
  926MOL0     H24964   4.234  10.188   6.452  0.6220 -0.2023 -0.1727
  926MOL0     H24965   4.155  10.282   6.579 -2.0117  0.4060  0.7544
  926MOL0     H24966   3.938  10.307   6.456 -1.9989 -1.6371 -0.5479
  926MOL0     H24967   3.976  10.176   6.350  1.5064 -1.7329  0.6907
  926MOL0     H24968   4.011  10.373   6.228  0.2693 -2.6276 -0.5073
  926MOL0     H24969   4.171  10.318   6.261 -0.1025  1.1404 -1.9667
  926MOL0     H24970   4.235  10.652   6.479  1.7140  0.6117 -0.1476
  926MOL0     H24971   4.394  10.791   6.490 -0.5402 -2.1009 -2.0777
  926MOL0     H24972   4.451  10.881   6.346  0.6250 -1.0782  0.8673
  926MOL0     H24973   4.335  10.957   6.446 -3.8761  0.7681 -2.1996
  926MOL0     H24974   4.325  11.130   5.923 -0.5139 -0.1227  0.1505
  926MOL0     H24975   4.353  11.339   5.811  1.0148  3.7876  0.9049
  926MOL0     H24976   4.020  11.663   5.903 -1.3333  1.3621  3.1059
  926MOL0     H24977   4.125  11.648   6.050  2.1562  0.0831  0.5122
  926MOL0     H24978   4.300  11.803   5.941 -1.0837 -0.6252 -0.7311
  926MOL0     H24979   4.204  11.801   5.793 -1.7328  0.3692 -0.0002
  926MOL0     H24980   3.992  11.869   5.957 -0.9702  4.2000  0.0825
  926MOL0     H24981   4.105  11.981   5.874 -2.3278 -0.3166 -1.4939
  926MOL0     H24982   4.109  11.892   6.175  2.5035  0.1011  1.4631
  926MOL0     H24983   4.238  11.980   6.090  0.0729 -3.0658  0.7199
  926MOL0     H24984   4.106  12.116   6.232 -2.9697  0.1493  2.0951
  926MOL0     H24985   3.959  12.083   6.138  0.3326 -0.4791  2.4323
  926MOL0     H24986   4.210  12.200   6.017 -0.3636 -0.7919 -0.6168
  926MOL0     H24987   4.063  12.180   5.925  0.6688 -0.4327  0.3456
  926MOL0     H24988   3.958  12.338   6.107 -0.0933  1.5444 -1.9713
  926MOL0     H24989   4.051  12.404   5.975  2.2232  2.0445  1.4978
  926MOL0     H24990   4.253  12.423   6.111  0.2404  1.4583  0.1763
  926MOL0     H24991   4.154  12.383   6.257  3.1286 -1.1473 -0.4712
  926MOL0     H24992   3.999  11.464   6.048  0.9007  1.0300  1.2064
  926MOL0     H24993   3.963  11.244   6.115  1.3575 -0.1546  0.2425
  926MOL0     H24994   4.034  10.813   6.059 -1.0538 -0.6205 -0.0448
  926MOL0     H24995   3.983  10.583   6.144 -0.1425 -0.2885  0.9306
  926MOL0     H24996   4.344   8.773   6.576 -0.2745  0.6962  1.4092
  926MOL0     H24997   4.493   8.616   6.462 -2.4192  0.1782  3.3188
  926MOL0     H24998   4.995   8.366   6.590 -1.8867  2.5517 -0.5320
  926MOL0     H24999   5.034   8.136   6.496  1.3395  0.1648 -1.3681
  926MOL0     H25000   5.111   8.000   6.235 -0.2322 -0.7754 -0.6423
  926MOL0     H25001   5.051   7.938   6.383  2.5097  0.8875 -0.3241
  926MOL0     H25002   5.106   7.763   6.224 -0.5881 -0.3820  0.4203
  926MOL0     H25003   5.035   7.847   6.086 -1.2936 -1.9138 -1.2832
  926MOL0     H25004   4.817   7.823   6.282 -0.3317  1.5578  0.2247
  926MOL0     H25005   4.903   7.669   6.283  1.6710  0.6757 -0.7486
  926MOL0     H25006   4.778   7.790   6.025  4.4912  1.9022  1.0384
  926MOL0     H25007   4.722   7.667   6.125 -2.0423  2.2659  0.9247
  926MOL0     H25008   4.994   7.457   5.890 -0.8583 -0.5952  0.0315
  926MOL0     H25009   4.798   8.250   6.151 -1.0707 -1.3682 -0.1510
  926MOL0     H25010   4.752   8.461   6.254 -0.8993 -0.1956  0.2847
  927MOL0     O25011   7.790   1.793   6.833 -0.2215  0.1528  0.3378
  927MOL0     C25012   7.906   1.847   6.828  0.4029  0.2768 -0.7302
  927MOL0     O25013   7.931   1.979   6.805 -0.3438 -0.1002  0.5708
  927MOL0     C25014   7.821   2.062   6.825  0.3653  0.4211  0.2672
  927MOL0     C25015   7.800   2.155   6.727  1.1314 -0.9896  0.2673
  927MOL0     C25016   7.684   2.237   6.734 -0.3844  0.1757  0.5390
  927MOL0     C25017   7.604   2.246   6.844 -0.1624 -0.0251  0.1145
  927MOL0     O25018   7.496   2.333   6.862 -0.0740  0.1888  0.2160
  927MOL0     C25019   7.418   2.349   6.743 -0.2582  0.7465 -0.1201
  927MOL0     C25020   7.312   2.226   6.734 -0.2277  0.2481  0.6533
  927MOL0     C25021   7.216   2.219   6.851  1.1845  0.0948  0.7595
  927MOL0     C25022   7.095   2.115   6.835 -0.4470  0.7274  0.4062
  927MOL0     C25023   6.994   2.149   6.724  0.1126 -0.4437  0.4354
  927MOL0     C25024   6.927   2.286   6.726 -0.3569 -0.9892 -0.3499
  927MOL0     C25025   6.802   2.296   6.821  0.1124 -0.3463  0.5828
  927MOL0     C25026   6.684   2.215   6.776  0.5639  0.4632  0.1450
  927MOL0     N25027   6.564   2.241   6.867 -1.0056  0.1090 -0.2716
  927MOL0     C25028   6.542   2.161   6.985  0.3189 -1.2921  0.0976
  927MOL0     C25029   6.405   2.171   7.017  0.0193 -0.3710 -0.0611
  927MOL0     C25030   6.330   2.104   7.136  0.3535  0.2033  0.8155
  927MOL0     C25031   6.323   1.951   7.113 -0.3740  0.0071  0.2363
  927MOL0     C25032   6.198   1.907   7.048  0.0509  1.1720  0.1066
  927MOL0     C25033   6.168   1.968   6.915  0.7049 -0.1447  0.2945
  927MOL0     O25034   6.093   1.875   6.832 -0.5062 -0.9167 -0.3982
  927MOL0     C25035   5.962   1.847   6.849 -0.1598 -1.1972  0.0695
  927MOL0     C25036   5.923   1.741   6.766  0.2102  0.7486  0.0937
  927MOL0     C25037   5.798   1.679   6.767 -0.1354 -0.7700 -0.2691
  927MOL0     C25038   5.808   1.542   6.700  0.1842 -0.1814 -1.0123
  927MOL0     C25039   5.700   1.742   6.849  0.1564 -0.0857  0.2533
  927MOL0     C25040   5.562   1.687   6.861 -0.2703 -0.4061 -0.6073
  927MOL0     O25041   5.486   1.740   6.959  0.6880  0.5872  0.1283
  927MOL0     C25042   5.355   1.719   7.003  0.1548 -0.8043  1.1645
  927MOL0     C25043   5.270   1.620   6.954 -0.4292 -0.5416  0.2414
  927MOL0     C25044   5.146   1.602   7.010 -0.0201  0.2093 -0.4341
  927MOL0     C25045   5.101   1.680   7.111  0.5537 -0.5872 -0.6590
  927MOL0     O25046   4.968   1.669   7.153  0.1971 -0.0890 -1.6832
  927MOL0     C25047   4.903   1.543   7.148  0.4118  0.7270  0.0192
  927MOL0     C25048   4.787   1.539   7.246  0.3764  0.9228  0.7797
  927MOL0     C25049   4.752   1.400   7.303 -0.1050 -0.6592  0.5210
  927MOL0     C25050   4.722   1.303   7.195  0.2351 -0.6857 -0.4525
  927MOL0     C25051   4.704   1.160   7.258 -0.2150  0.1168  0.9001
  927MOL0     C25052   4.562   1.102   7.224  0.0247  0.0544 -0.1579
  927MOL0     C25053   4.551   0.961   7.289 -0.3737  0.6401  0.4149
  927MOL0     C25054   4.401   0.912   7.313  0.5206 -0.2853  0.0146
  927MOL0    Cl25055   4.315   0.912   7.158 -0.3266  0.1037 -0.2972
  927MOL0     C25056   5.182   1.788   7.155  0.6454 -0.8026  0.3959
  927MOL0     C25057   5.303   1.817   7.090  0.3115  0.4634  0.2361
  927MOL0     O25058   5.518   1.598   6.784  0.3473 -0.4029  0.2078
  927MOL0     C25059   5.728   1.869   6.908  0.3498  0.4827  0.2595
  927MOL0     C25060   5.860   1.917   6.920  0.5836 -0.2675  0.4237
  927MOL0     N25061   6.355   2.257   6.920  0.6643  0.7925  0.3552
  927MOL0     N25062   6.443   2.293   6.833 -0.2695  0.0556 -0.0381
  927MOL0     C25063   7.633   2.160   6.953  0.2955 -0.1924 -0.6536
  927MOL0     C25064   7.740   2.071   6.945  0.7436  0.0147  1.7010
  927MOL0     C25065   8.031   1.769   6.834  0.1026  0.1290  0.2730
  927MOL0     C25066   8.155   1.841   6.838 -0.6411 -0.0015 -0.1857
  927MOL0     C25067   8.275   1.766   6.850 -0.1444  0.1297 -0.3380
  927MOL0     C25068   8.267   1.625   6.851  0.0453 -0.1906 -0.5096
  927MOL0     O25069   8.379   1.546   6.857  0.0910 -0.6916 -0.0784
  927MOL0     C25070   8.371   1.408   6.887  0.1819  0.2628 -0.1590
  927MOL0     C25071   8.323   1.367   7.037 -0.4247 -0.5286  1.2421
  927MOL0     C25072   8.448   1.366   7.132 -0.2457 -0.5127  0.4440
  927MOL0     C25073   8.524   1.238   7.123  0.2792  0.5349 -0.3663
  927MOL0     C25074   8.666   1.250   7.175  0.1586  0.2698 -0.1504
  927MOL0     C25075   8.777   1.270   7.216  0.4737  0.2231  0.7156
  927MOL0     C25076   8.141   1.562   6.851  0.0749 -0.8813  0.3800
  927MOL0     C25077   8.016   1.630   6.846 -0.6312 -0.4205  0.1274
  927MOL0     H25078   7.865   2.154   6.640  1.3489 -2.2150  0.4237
  927MOL0     H25079   7.670   2.309   6.654 -1.3553  0.2393  0.7560
  927MOL0     H25080   7.359   2.440   6.758  0.8044  1.4932 -0.3430
  927MOL0     H25081   7.462   2.363   6.644 -2.6696  0.5396 -1.3061
  927MOL0     H25082   7.258   2.247   6.641 -1.8558  1.2758  1.7577
  927MOL0     H25083   7.362   2.129   6.728 -2.9873 -1.6166  4.0745
  927MOL0     H25084   7.274   2.187   6.938  2.0598  0.9620  0.5164
  927MOL0     H25085   7.175   2.319   6.868  1.5206 -0.0011  2.2700
  927MOL0     H25086   7.132   2.013   6.831  0.8238  1.2111 -0.8526
  927MOL0     H25087   7.045   2.117   6.933  2.5856  1.7464  2.0820
  927MOL0     H25088   7.050   2.130   6.632  1.0607 -1.3981  1.1841
  927MOL0     H25089   6.911   2.078   6.721 -1.0375  0.7941  1.9001
  927MOL0     H25090   6.992   2.367   6.761 -3.8361  1.1071  1.9304
  927MOL0     H25091   6.900   2.310   6.623  0.9499 -1.2625 -0.7682
  927MOL0     H25092   6.831   2.266   6.923  0.3836  0.4820  0.7541
  927MOL0     H25093   6.768   2.399   6.829  1.5344  0.2029 -0.0661
  927MOL0     H25094   6.706   2.108   6.777 -0.1361  0.3231  0.7737
  927MOL0     H25095   6.661   2.236   6.671  1.0092  1.2897  0.2021
  927MOL0     H25096   6.617   2.099   7.034  0.6010 -2.9766 -2.2616
  927MOL0     H25097   6.397   2.126   7.220 -0.5167  1.5217  1.2029
  927MOL0     H25098   6.228   2.140   7.152  0.4202 -0.2510  2.4452
  927MOL0     H25099   6.324   1.907   7.213  0.6370 -3.1814 -1.0510
  927MOL0     H25100   6.407   1.909   7.055 -0.9352 -1.6556  0.5678
  927MOL0     H25101   6.107   1.903   7.109 -0.9127 -0.6627 -1.3373
  927MOL0     H25102   6.224   1.806   7.015 -0.2167  0.9680  0.5178
  927MOL0     H25103   6.260   1.978   6.857  0.8207  1.6968  0.7107
  927MOL0     H25104   6.135   2.073   6.918  0.1569 -0.3177  0.5270
  927MOL0     H25105   5.998   1.692   6.704 -2.8844 -0.3019 -3.1345
  927MOL0     H25106   5.748   1.544   6.608  1.3233 -2.1048 -1.8551
  927MOL0     H25107   5.908   1.506   6.675  0.1262 -0.7155 -0.4979
  927MOL0     H25108   5.750   1.473   6.762 -1.9673  1.5780 -0.9136
  927MOL0     H25109   5.291   1.566   6.862 -0.7883  0.5188 -0.4903
  927MOL0     H25110   5.100   1.514   6.964  0.7770 -0.6029  0.2855
  927MOL0     H25111   4.877   1.513   7.046  3.3639 -0.0238 -0.5927
  927MOL0     H25112   4.978   1.472   7.185  1.9390  1.8984 -0.7092
  927MOL0     H25113   4.808   1.593   7.339  1.2720  0.0456  1.1082
  927MOL0     H25114   4.701   1.584   7.197 -0.2793  0.1718  1.2153
  927MOL0     H25115   4.682   1.403   7.387 -0.3654  1.3834  0.2755
  927MOL0     H25116   4.847   1.370   7.349  2.0735  0.0039 -3.1803
  927MOL0     H25117   4.629   1.336   7.146 -1.4905 -2.2917  1.5459
  927MOL0     H25118   4.805   1.303   7.124  2.0213  3.1516  1.3526
  927MOL0     H25119   4.700   1.177   7.366 -0.0491  5.0052  0.3437
  927MOL0     H25120   4.785   1.094   7.226  0.8138  2.2002 -1.0415
  927MOL0     H25121   4.473   1.148   7.268  1.3872  1.7253  0.9826
  927MOL0     H25122   4.558   1.114   7.115 -3.2194 -1.5704 -0.3566
  927MOL0     H25123   4.613   0.976   7.377  1.5702  1.8618 -1.0810
  927MOL0     H25124   4.605   0.893   7.223  2.2389  0.5624  2.5052
  927MOL0     H25125   4.358   0.980   7.387  0.8017  1.3635 -1.2835
  927MOL0     H25126   4.398   0.810   7.353 -0.9813 -0.4203 -0.3993
  927MOL0     H25127   5.128   1.859   7.217 -1.6714 -1.5227 -0.6977
  927MOL0     H25128   5.357   1.908   7.114  0.7147 -0.1018  1.5669
  927MOL0     H25129   5.652   1.940   6.940  1.6180  3.7615 -3.1429
  927MOL0     H25130   5.894   2.009   6.965  2.3097 -0.1057 -1.1035
  927MOL0     H25131   7.579   2.177   7.045 -1.0887 -0.9930 -1.2961
  927MOL0     H25132   7.756   1.999   7.025 -0.3871 -2.0447  0.1830
  927MOL0     H25133   8.165   1.949   6.837  0.8767 -0.1031  0.5558
  927MOL0     H25134   8.375   1.806   6.862 -0.6053  0.4894  3.1784
  927MOL0     H25135   8.316   1.355   6.809  0.2560 -0.9755  0.6114
  927MOL0     H25136   8.474   1.373   6.877  1.0583  2.0594  1.8039
  927MOL0     H25137   8.263   1.276   7.029 -1.7497  0.4972 -1.8091
  927MOL0     H25138   8.254   1.449   7.060 -2.0543 -0.3489 -3.3357
  927MOL0     H25139   8.407   1.385   7.231  1.3019  0.9098  0.8602
  927MOL0     H25140   8.514   1.447   7.097 -1.2726  1.4070  2.6538
  927MOL0     H25141   8.537   1.206   7.019  3.4060  0.3001  0.0110
  927MOL0     H25142   8.463   1.157   7.164  2.0819 -0.5217  0.3011
  927MOL0     H25143   8.880   1.277   7.245  1.4230 -1.3686 -1.9502
  927MOL0     H25144   8.127   1.454   6.857 -0.2179 -0.8679  0.0086
  927MOL0     H25145   7.916   1.588   6.851 -1.4427  1.4621  0.8908
  928MOL0     O25146  10.651   0.270   2.140 -0.1293  0.3433  0.2611
  928MOL0     C25147  10.629   0.348   2.046  0.9462 -0.0393 -0.1921
  928MOL0     O25148  10.499   0.399   2.010 -0.0150 -0.2356  0.1934
  928MOL0     C25149  10.399   0.371   2.099 -0.3872 -0.0447  1.0187
  928MOL0     C25150  10.348   0.464   2.193  0.2237  0.5115  0.4532
  928MOL0     C25151  10.239   0.440   2.274  0.9740 -0.8312 -0.3866
  928MOL0     C25152  10.173   0.316   2.258 -0.3039 -0.6519 -0.5831
  928MOL0     O25153  10.070   0.290   2.342 -0.3663  0.5267 -0.3085
  928MOL0     C25154  10.066   0.153   2.393  0.1877 -0.8849  0.5824
  928MOL0     C25155   9.995   0.175   2.521  0.6934  0.6087  0.1074
  928MOL0     C25156   9.842   0.189   2.512 -1.0219  0.0301 -0.1312
  928MOL0     C25157   9.780   0.165   2.653  0.5847  0.4937  1.1451
  928MOL0     C25158   9.629   0.168   2.661 -0.4028 -1.0088  0.4988
  928MOL0     C25159   9.560   0.171   2.799 -0.6246  0.1667 -0.1919
  928MOL0     C25160   9.422   0.118   2.775  0.7385 -0.5281  0.1224
  928MOL0     C25161   9.333   0.112   2.898 -0.4230  0.1980  0.5247
  928MOL0     N25162   9.197   0.150   2.864 -0.1268 -0.7580  0.0990
  928MOL0     C25163   9.156   0.275   2.829  0.1571  0.3692  0.1680
  928MOL0     C25164   9.024   0.270   2.836 -0.0007 -0.2602  0.4741
  928MOL0     C25165   8.920   0.377   2.823  0.4716  0.3786  0.3550
  928MOL0     C25166   8.834   0.400   2.953  0.3613 -0.0235 -0.4602
  928MOL0     C25167   8.918   0.463   3.070  0.0061 -0.3791  0.2016
  928MOL0     C25168   8.965   0.601   3.020 -0.0657 -0.7183 -0.3081
  928MOL0     O25169   8.958   0.688   3.134  0.7985 -0.3445 -0.3912
  928MOL0     C25170   8.836   0.749   3.160  0.1001 -0.7995  0.4766
  928MOL0     C25171   8.845   0.882   3.211  0.4473  0.2937  0.6275
  928MOL0     C25172   8.741   0.964   3.236  0.9881 -0.1565 -0.4733
  928MOL0     C25173   8.772   1.097   3.285 -1.2048 -0.5847  0.5829
  928MOL0     C25174   8.608   0.920   3.210  0.3756  1.0082  1.0426
  928MOL0     C25175   8.482   0.993   3.245  0.0724  0.8038  0.6958
  928MOL0     O25176   8.376   0.962   3.168 -0.3869 -0.1736  0.2810
  928MOL0     C25177   8.261   1.034   3.166  0.0464 -0.7513  0.4495
  928MOL0     C25178   8.141   1.015   3.233  0.8266  0.1039  0.1135
  928MOL0     C25179   8.025   1.066   3.188  0.8960  0.0313  0.5160
  928MOL0     C25180   8.013   1.128   3.062  0.4233  0.1010 -0.1341
  928MOL0     O25181   7.889   1.168   3.022  0.4894  0.4351  0.1314
  928MOL0     C25182   7.798   1.069   2.971  0.4555 -0.9615 -0.5497
  928MOL0     C25183   7.726   1.144   2.864 -0.4958  0.1518  0.3726
  928MOL0     C25184   7.633   1.046   2.777  0.0987 -0.2532 -0.0072
  928MOL0     C25185   7.511   1.005   2.872 -1.0421 -0.2080  0.5750
  928MOL0     C25186   7.433   0.886   2.821  0.3072 -0.1710  0.0845
  928MOL0     C25187   7.501   0.751   2.854  0.7808  0.6656  0.1077
  928MOL0     C25188   7.414   0.627   2.817  0.9159  0.3809  0.1604
  928MOL0     C25189   7.462   0.493   2.896  0.2975  0.1974 -0.5333
  928MOL0    Cl25190   7.349   0.357   2.885 -0.1537  0.3628 -0.1431
  928MOL0     C25191   8.126   1.156   2.994 -0.3346 -0.0511  0.1708
  928MOL0     C25192   8.250   1.100   3.045  0.8543 -0.3461  0.1169
  928MOL0     O25193   8.479   1.066   3.340 -0.0017 -0.3471  0.3580
  928MOL0     C25194   8.597   0.792   3.148 -0.5114 -0.3043  0.2879
  928MOL0     C25195   8.709   0.707   3.119 -1.1553 -0.8226 -0.6655
  928MOL0     N25196   8.988   0.139   2.866 -0.1054 -0.0741  0.4260
  928MOL0     N25197   9.096   0.075   2.891 -0.5195  0.2322 -0.0276
  928MOL0     C25198  10.213   0.229   2.154  0.0083 -0.7329 -0.6872
  928MOL0     C25199  10.326   0.254   2.079 -0.1983 -1.2753  0.2198
  928MOL0     C25200  10.740   0.371   1.948 -1.0509  0.6687 -0.7898
  928MOL0     C25201  10.745   0.489   1.873 -0.7223 -0.1721  0.9381
  928MOL0     C25202  10.849   0.511   1.782  0.4208 -0.2666  0.0727
  928MOL0     C25203  10.950   0.416   1.770 -0.0741 -0.5009  0.3361
  928MOL0     O25204  11.055   0.431   1.682 -0.7757 -0.0764  0.3301
  928MOL0     C25205  11.060   0.350   1.567 -0.0051  0.2357  0.5450
  928MOL0     C25206  11.033   0.449   1.447  0.4515  0.6220  0.0498
  928MOL0     C25207  11.052   0.367   1.324 -0.1214  1.2406  0.0087
  928MOL0     C25208  11.196   0.352   1.279 -0.0529 -0.1795 -0.7033
  928MOL0     C25209  11.251   0.468   1.206 -0.0252  0.6477 -0.1485
  928MOL0     C25210  11.304   0.569   1.159  0.1709 -0.0506 -0.5934
  928MOL0     C25211  10.958   0.305   1.850  0.3628 -0.4825 -0.3300
  928MOL0     C25212  10.858   0.292   1.948 -0.0647  0.2992  0.2739
  928MOL0     H25213  10.400   0.559   2.205  1.6126 -0.0693 -0.7056
  928MOL0     H25214  10.198   0.510   2.346 -3.5246 -2.8308 -0.6901
  928MOL0     H25215  10.004   0.088   2.330 -1.4130  0.0484  1.1543
  928MOL0     H25216  10.164   0.109   2.415 -0.3649 -2.0674  0.7581
  928MOL0     H25217  10.008   0.078   2.569  0.2699 -0.2806 -1.5136
  928MOL0     H25218  10.036   0.260   2.577  2.7380  0.2111 -0.7267
  928MOL0     H25219   9.818   0.283   2.461  0.8488 -0.3006 -1.7353
  928MOL0     H25220   9.811   0.101   2.456  1.9900 -1.4432  0.3031
  928MOL0     H25221   9.803   0.060   2.674 -2.3820 -1.4997 -3.8703
  928MOL0     H25222   9.819   0.233   2.729 -0.2793  0.7644  1.3581
  928MOL0     H25223   9.605   0.263   2.611 -0.1117 -0.8526  0.6501
  928MOL0     H25224   9.593   0.084   2.601  0.7295 -1.9124  1.0381
  928MOL0     H25225   9.611   0.100   2.864 -1.4078 -0.1790  0.0497
  928MOL0     H25226   9.550   0.266   2.851  3.8795  0.3321  0.8176
  928MOL0     H25227   9.370   0.170   2.694 -0.9735 -0.4919  1.1846
  928MOL0     H25228   9.424   0.020   2.726  3.2990  0.0775 -1.1199
  928MOL0     H25229   9.365   0.170   2.984 -2.3156  1.0928  0.6722
  928MOL0     H25230   9.326   0.004   2.915  4.3257 -0.2050  1.1920
  928MOL0     H25231   9.221   0.362   2.821  1.4645 -0.4034  1.5687
  928MOL0     H25232   8.962   0.468   2.779 -2.3416  2.1963  1.1141
  928MOL0     H25233   8.854   0.343   2.742  1.3651 -0.1812 -0.1586
  928MOL0     H25234   8.801   0.300   2.983  2.4044 -0.8099 -0.7101
  928MOL0     H25235   8.752   0.470   2.934  1.6310  1.8694  0.6805
  928MOL0     H25236   9.004   0.401   3.098  1.6726  2.1090  0.9303
  928MOL0     H25237   8.849   0.470   3.154  0.0551  2.1586  0.1044
  928MOL0     H25238   8.900   0.638   2.940  0.2772 -2.5017 -1.4684
  928MOL0     H25239   9.066   0.596   2.977 -0.3291 -1.5296 -0.8473
  928MOL0     H25240   8.947   0.915   3.228  0.6103  0.6546 -0.8735
  928MOL0     H25241   8.723   1.178   3.230  2.2895  0.2429 -1.5539
  928MOL0     H25242   8.738   1.103   3.389  0.9148  0.3349  1.2803
  928MOL0     H25243   8.879   1.117   3.291 -1.7642  3.0187  0.6005
  928MOL0     H25244   8.136   0.958   3.325  3.5761 -0.3170  0.1042
  928MOL0     H25245   7.941   1.040   3.252  1.5042 -0.1047  1.2797
  928MOL0     H25246   7.859   0.983   2.940  3.7712  0.8556  0.4969
  928MOL0     H25247   7.730   1.036   3.050  0.5851 -2.3633 -0.9819
  928MOL0     H25248   7.684   1.240   2.892 -1.2809  0.3429 -1.3994
  928MOL0     H25249   7.808   1.167   2.795  0.6265  1.2554  1.9836
  928MOL0     H25250   7.681   0.949   2.760 -2.3219 -1.3361 -1.1667
  928MOL0     H25251   7.612   1.091   2.679  2.3712  0.3359 -0.2835
  928MOL0     H25252   7.545   0.989   2.975  3.0712  2.6090 -0.1066
  928MOL0     H25253   7.441   1.090   2.874 -0.3857  0.3403  2.3392
  928MOL0     H25254   7.416   0.895   2.713 -0.5770 -1.5068  0.0939
  928MOL0     H25255   7.333   0.901   2.864  0.3954  0.2657  0.1418
  928MOL0     H25256   7.598   0.742   2.806  1.0749  0.4285  0.7424
  928MOL0     H25257   7.525   0.747   2.961  3.7146 -3.4566 -0.4820
  928MOL0     H25258   7.406   0.625   2.708 -0.8035  0.3592  0.2514
  928MOL0     H25259   7.312   0.650   2.849  0.1620  0.0640 -1.8751
  928MOL0     H25260   7.476   0.520   3.001  2.0111 -0.8832 -0.4431
  928MOL0     H25261   7.552   0.462   2.842 -0.3774  1.2344 -2.3664
  928MOL0     H25262   8.130   1.221   2.907  0.5631 -0.0039  0.2406
  928MOL0     H25263   8.336   1.123   2.983  2.1109  2.0524  2.5457
  928MOL0     H25264   8.497   0.749   3.142 -0.3946 -1.3198  3.5612
  928MOL0     H25265   8.704   0.612   3.067  0.3513 -1.2714 -0.0696
  928MOL0     H25266  10.150   0.142   2.136 -0.6419 -0.3908 -0.1399
  928MOL0     H25267  10.350   0.181   2.002  0.8689  0.8545 -1.5606
  928MOL0     H25268  10.660   0.555   1.886 -1.1097 -0.2220 -0.9925
  928MOL0     H25269  10.839   0.601   1.722 -1.4764  0.5107  1.4614
  928MOL0     H25270  11.157   0.301   1.557 -0.9673 -1.7305  0.2806
  928MOL0     H25271  10.988   0.267   1.565 -1.2634  1.2988 -0.9160
  928MOL0     H25272  11.109   0.528   1.439 -1.3108  2.3099 -0.7132
  928MOL0     H25273  10.931   0.487   1.440 -0.9225 -2.8889 -1.0601
  928MOL0     H25274  10.997   0.425   1.250 -2.0235 -0.9109 -0.3656
  928MOL0     H25275  11.011   0.267   1.341  0.6188  0.9328  0.0586
  928MOL0     H25276  11.202   0.260   1.221 -0.4912 -2.0615  2.0215
  928MOL0     H25277  11.252   0.345   1.373 -3.1016  1.2677  1.3967
  928MOL0     H25278  11.358   0.653   1.120  1.9352 -1.6756 -1.8391
  928MOL0     H25279  11.034   0.228   1.849  0.2226 -0.6320  0.0760
  928MOL0     H25280  10.873   0.201   2.006 -1.7681  0.1967  0.6176
  929MOL0     O25281   9.673   7.709   7.806 -0.1794 -0.5518 -0.2208
  929MOL0     C25282   9.653   7.829   7.809  0.1709 -0.2194 -0.2126
  929MOL0     O25283   9.540   7.890   7.769  0.3831 -0.0253  0.6153
  929MOL0     C25284   9.421   7.825   7.734  0.1915 -0.3865 -0.6069
  929MOL0     C25285   9.299   7.880   7.773  0.6851  0.0340 -0.4751
  929MOL0     C25286   9.181   7.823   7.728  1.1317  0.6775 -0.6929
  929MOL0     C25287   9.168   7.704   7.662 -0.8415  0.3447  0.5401
  929MOL0     O25288   9.051   7.640   7.647 -0.5495  0.5210 -0.6287
  929MOL0     C25289   9.031   7.552   7.532 -0.2982  0.5372 -0.5414
  929MOL0     C25290   8.878   7.505   7.507 -0.2947 -0.8058 -0.3868
  929MOL0     C25291   8.842   7.418   7.394  0.1860 -0.7135 -0.3623
  929MOL0     C25292   8.873   7.499   7.269  0.4474 -0.3693  0.5419
  929MOL0     C25293   8.814   7.441   7.136 -0.2072  0.6222  0.4610
  929MOL0     C25294   8.665   7.432   7.119 -0.1234  0.1977  0.1493
  929MOL0     C25295   8.600   7.309   7.193 -0.3647 -0.8019 -0.2608
  929MOL0     C25296   8.474   7.353   7.277  0.3280 -0.2423  0.4188
  929MOL0     N25297   8.374   7.404   7.186  0.2491 -0.0296 -0.4578
  929MOL0     C25298   8.366   7.520   7.127 -0.2655  0.9320  0.4360
  929MOL0     C25299   8.250   7.514   7.052 -0.4772  0.4728 -0.8562
  929MOL0     C25300   8.197   7.601   6.947  0.3713 -0.1859 -1.2441
  929MOL0     C25301   8.250   7.579   6.806  0.2666  0.8945 -0.1512
  929MOL0     C25302   8.216   7.440   6.747 -0.3843 -0.2984  0.7688
  929MOL0     C25303   8.196   7.454   6.597  0.6355 -0.1327 -0.1476
  929MOL0     O25304   8.068   7.520   6.571  0.4063 -0.0475  0.0968
  929MOL0     C25305   8.033   7.562   6.445 -0.5533 -0.1898  0.5979
  929MOL0     C25306   7.905   7.611   6.422  1.0274 -0.4142  0.6380
  929MOL0     C25307   7.854   7.659   6.300 -0.2847 -0.5816  0.0824
  929MOL0     C25308   7.721   7.730   6.273  0.2437  0.6061  0.1466
  929MOL0     C25309   7.944   7.638   6.182 -0.1261 -0.2664 -0.0166
  929MOL0     C25310   7.907   7.676   6.041 -0.3210  0.5456  0.2001
  929MOL0     O25311   7.791   7.617   6.005  0.4349 -0.0548 -0.3317
  929MOL0     C25312   7.742   7.601   5.880  0.4310  0.0260  0.0831
  929MOL0     C25313   7.815   7.533   5.781  0.3485  0.1351 -0.2778
  929MOL0     C25314   7.765   7.518   5.651 -0.2121  0.0980 -1.0176
  929MOL0     C25315   7.647   7.571   5.618  0.3543 -1.2887 -0.4729
  929MOL0     O25316   7.597   7.540   5.500 -0.1078 -0.3224  0.2954
  929MOL0     C25317   7.490   7.621   5.439 -0.2160  0.5828  0.3916
  929MOL0     C25318   7.475   7.578   5.300 -0.1928  0.5466 -0.0925
  929MOL0     C25319   7.584   7.638   5.208  0.0671  0.0617 -0.3945
  929MOL0     C25320   7.688   7.533   5.151 -1.0323 -1.0888  0.0482
  929MOL0     C25321   7.797   7.581   5.061  0.0298 -0.5102  0.2104
  929MOL0     C25322   7.743   7.626   4.923 -0.0451 -0.8724  0.3173
  929MOL0     C25323   7.693   7.776   4.922 -0.1238  0.5929 -0.3653
  929MOL0     C25324   7.728   7.872   4.808  0.2300 -0.1993  0.2717
  929MOL0    Cl25325   7.687   7.795   4.644 -0.3450 -0.2339 -0.3954
  929MOL0     C25326   7.571   7.638   5.712 -0.2632  0.4972  0.2073
  929MOL0     C25327   7.624   7.662   5.842  0.1506  0.8788 -0.2184
  929MOL0     O25328   7.981   7.741   5.972 -0.1735 -0.9729  1.0343
  929MOL0     C25329   8.076   7.594   6.211 -0.0551  0.1088  0.3432
  929MOL0     C25330   8.131   7.564   6.340  0.5439 -0.3462  0.5957
  929MOL0     N25331   8.184   7.402   7.060 -0.6016  1.0579 -0.2244
  929MOL0     N25332   8.255   7.339   7.154  1.0594 -0.3713 -0.0854
  929MOL0     C25333   9.297   7.655   7.623  0.3796  0.7356 -0.2303
  929MOL0     C25334   9.416   7.717   7.655  0.3298  0.0863 -0.0283
  929MOL0     C25335   9.751   7.914   7.877 -0.0101 -0.5004  0.1984
  929MOL0     C25336   9.872   7.862   7.925  0.0617 -0.2010 -0.1746
  929MOL0     C25337   9.971   7.941   7.979 -0.0147 -0.1212  0.3013
  929MOL0     C25338   9.952   8.077   8.005  0.5881  0.2162  0.1042
  929MOL0     O25339  10.036   8.158   8.073  0.3086 -0.0960  0.4047
  929MOL0     C25340  10.165   8.108   8.096 -1.0983  0.4659 -0.3203
  929MOL0     C25341  10.248   8.224   8.135 -0.9549 -0.0152  0.3089
  929MOL0     C25342  10.398   8.176   8.157  0.5475  0.8065  0.1056
  929MOL0     C25343  10.486   8.305   8.159 -0.0472 -0.7107  0.3826
  929MOL0     C25344  10.442   8.385   8.287  0.1798 -0.6245  0.2125
  929MOL0     C25345  10.415   8.455   8.376  1.3167 -0.7628  0.1239
  929MOL0     C25346   9.822   8.132   7.965  0.0378 -0.1588  0.4728
  929MOL0     C25347   9.729   8.045   7.898 -0.0875 -0.6924  0.0252
  929MOL0     H25348   9.298   7.966   7.839  2.5776 -0.0841 -0.2204
  929MOL0     H25349   9.089   7.866   7.766  1.2273 -0.5647  1.1119
  929MOL0     H25350   9.059   7.611   7.445  0.7948  0.6349 -0.1432
  929MOL0     H25351   9.088   7.459   7.532 -1.5755 -0.2775 -1.5029
  929MOL0     H25352   8.853   7.455   7.600 -0.6996 -0.1602 -0.1399
  929MOL0     H25353   8.815   7.595   7.506  0.1099 -0.4695  1.4879
  929MOL0     H25354   8.884   7.317   7.389 -3.3644 -2.3611 -0.6150
  929MOL0     H25355   8.734   7.405   7.406  0.3448 -1.0031  0.8344
  929MOL0     H25356   8.828   7.598   7.282  0.7977 -0.3202  1.4168
  929MOL0     H25357   8.982   7.510   7.270  0.4722 -0.6568  1.3012
  929MOL0     H25358   8.862   7.498   7.056  0.9016  2.0455  2.0634
  929MOL0     H25359   8.844   7.338   7.113  1.8419  1.4853 -1.0866
  929MOL0     H25360   8.626   7.525   7.160  1.8262 -0.0062  2.6997
  929MOL0     H25361   8.631   7.431   7.015 -0.7768  1.0955  0.3448
  929MOL0     H25362   8.567   7.232   7.123 -4.6233  0.0897  0.4468
  929MOL0     H25363   8.665   7.258   7.264 -0.5130 -0.9856 -0.2552
  929MOL0     H25364   8.507   7.437   7.339 -1.2186 -0.4198  1.5221
  929MOL0     H25365   8.435   7.280   7.349 -1.6659 -2.2799 -2.5147
  929MOL0     H25366   8.434   7.604   7.122 -0.2429  0.8548 -1.4242
  929MOL0     H25367   8.089   7.587   6.950  0.2051  0.5420  2.6726
  929MOL0     H25368   8.223   7.706   6.968  2.7429 -0.4766 -2.3824
  929MOL0     H25369   8.356   7.604   6.795  0.5666 -0.7208 -1.3188
  929MOL0     H25370   8.199   7.659   6.750  1.3137  1.2058 -0.6903
  929MOL0     H25371   8.125   7.392   6.782 -1.3075 -0.6689 -1.8874
  929MOL0     H25372   8.297   7.366   6.752  1.5562  1.3116 -2.5557
  929MOL0     H25373   8.183   7.349   6.569 -1.1775  0.2399 -0.8228
  929MOL0     H25374   8.282   7.504   6.554  3.5752 -1.7920  3.2986
  929MOL0     H25375   7.846   7.623   6.513  0.4764 -1.5736  0.4561
  929MOL0     H25376   7.692   7.780   6.365  1.3153  0.8336  0.3749
  929MOL0     H25377   7.728   7.805   6.194 -0.1331  0.5059  0.0147
  929MOL0     H25378   7.646   7.655   6.247 -0.8447  1.5968  0.3770
  929MOL0     H25379   7.911   7.483   5.793 -0.3683 -0.9162  1.4978
  929MOL0     H25380   7.815   7.470   5.568 -2.1457  0.8249 -2.7127
  929MOL0     H25381   7.398   7.606   5.497 -0.9380  3.5685  0.2037
  929MOL0     H25382   7.516   7.727   5.444  0.5938  0.3937  0.2858
  929MOL0     H25383   7.478   7.468   5.300 -0.0336  0.5489  0.6948
  929MOL0     H25384   7.375   7.602   5.264  0.2449 -0.7210 -2.3795
  929MOL0     H25385   7.648   7.704   5.267  0.8038 -0.8167 -0.1833
  929MOL0     H25386   7.534   7.693   5.128  0.2325  2.4045  1.0244
  929MOL0     H25387   7.736   7.481   5.235 -1.1146 -1.4450 -0.1211
  929MOL0     H25388   7.640   7.455   5.092 -2.7559  1.4587 -2.1460
  929MOL0     H25389   7.865   7.499   5.037  3.6184  2.0011  0.9408
  929MOL0     H25390   7.858   7.658   5.109  1.7698 -2.5770  1.5360
  929MOL0     H25391   7.812   7.616   4.839 -1.0302 -0.7455 -0.5231
  929MOL0     H25392   7.658   7.563   4.894 -0.2111 -0.2617 -0.5574
  929MOL0     H25393   7.701   7.812   5.025 -2.6101 -2.4468  1.0584
  929MOL0     H25394   7.587   7.749   4.928  0.1997 -0.4525  1.3380
  929MOL0     H25395   7.828   7.917   4.808 -0.8142  2.4331 -2.3201
  929MOL0     H25396   7.663   7.955   4.837  0.5192 -0.3556  1.4182
  929MOL0     H25397   7.475   7.684   5.695 -0.3292 -0.2091 -1.5408
  929MOL0     H25398   7.571   7.733   5.905  0.8400  1.3597 -0.1645
  929MOL0     H25399   8.142   7.596   6.125  0.2558  0.6609  0.5968
  929MOL0     H25400   8.237   7.549   6.357  1.6307  3.3026 -1.7845
  929MOL0     H25401   9.299   7.561   7.568  3.4690  0.7295 -0.2770
  929MOL0     H25402   9.508   7.672   7.619  0.4099 -0.4947  0.8722
  929MOL0     H25403   9.881   7.754   7.926  2.1944 -0.2049  4.1374
  929MOL0     H25404  10.065   7.905   8.019  0.8835  2.4359  0.7309
  929MOL0     H25405  10.161   8.039   8.181 -1.8688  1.7886  0.7625
  929MOL0     H25406  10.214   8.054   8.015  0.3752  0.1628  0.7350
  929MOL0     H25407  10.214   8.268   8.229  0.4916 -0.0653  0.8892
  929MOL0     H25408  10.249   8.306   8.063  0.3030  0.3351  0.6989
  929MOL0     H25409  10.432   8.130   8.063 -2.7343 -1.5845 -0.0949
  929MOL0     H25410  10.416   8.111   8.243  0.5422 -1.2465 -1.3766
  929MOL0     H25411  10.474   8.364   8.067 -2.1428  1.0776  1.7107
  929MOL0     H25412  10.593   8.285   8.167 -0.1568 -0.4162  3.9239
  929MOL0     H25413  10.375   8.509   8.459 -2.9288  0.9699 -2.7032
  929MOL0     H25414   9.787   8.233   7.986 -1.1280  0.2949 -2.9798
  929MOL0     H25415   9.642   8.094   7.855  1.5451  0.9050 -1.6363
  930MOL0     O25416   0.272   8.514   8.385  0.8191 -0.7402  0.0550
  930MOL0     C25417   0.365   8.458   8.328  0.8359 -0.7114 -0.1355
  930MOL0     O25418   0.375   8.432   8.191  0.0030  0.3410 -0.3143
  930MOL0     C25419   0.291   8.478   8.090  0.7528  1.0243 -0.5035
  930MOL0     C25420   0.265   8.397   7.979 -1.0030 -0.0179 -0.9249
  930MOL0     C25421   0.173   8.431   7.888  0.4127 -0.1278 -0.1101
  930MOL0     C25422   0.105   8.551   7.893 -0.1735 -0.4209  0.3176
  930MOL0     O25423   0.015   8.586   7.803 -0.1121  0.9606 -0.3174
  930MOL0     C25424  -0.076   8.697   7.817  0.0654 -0.0676 -0.8026
  930MOL0     C25425  -0.194   8.666   7.730  0.1113 -1.8942 -0.1976
  930MOL0     C25426  -0.224   8.790   7.643 -0.1045 -0.0586  0.7335
  930MOL0     C25427  -0.371   8.802   7.622  0.2535 -0.1348  0.3453
  930MOL0     C25428  -0.408   8.931   7.550  0.2945  0.0169 -0.2358
  930MOL0     C25429  -0.560   8.924   7.558  0.1128 -0.0988 -1.0410
  930MOL0     C25430  -0.632   9.052   7.515  1.0017  0.6057 -0.8147
  930MOL0     C25431  -0.594   9.079   7.374 -0.5923 -0.1902  0.6091
  930MOL0     N25432  -0.643   8.969   7.283 -0.2949 -0.1306  0.0327
  930MOL0     C25433  -0.766   8.957   7.228  0.2066  0.0794 -0.2649
  930MOL0     C25434  -0.748   8.847   7.145 -0.1170  0.6766  1.1545
  930MOL0     C25435  -0.853   8.782   7.055  0.2901  0.3245  0.1020
  930MOL0     C25436  -1.005   8.835   7.081 -0.3011 -0.0358  1.6728
  930MOL0     C25437  -1.091   8.763   6.978  0.5336 -0.3620 -0.5504
  930MOL0     C25438  -1.230   8.812   6.992 -1.1475 -0.6927 -1.0135
  930MOL0     O25439  -1.241   8.951   6.959 -0.9522 -1.0425 -0.1491
  930MOL0     C25440  -1.350   9.027   6.981  0.0853 -1.0241 -0.4703
  930MOL0     C25441  -1.480   8.975   6.999 -1.2570  0.6495  0.4270
  930MOL0     C25442  -1.592   9.055   7.010  0.3011  0.7135  1.1205
  930MOL0     C25443  -1.718   8.989   7.058  0.9852  0.3192 -0.5521
  930MOL0     C25444  -1.577   9.195   7.004 -0.1719 -0.1633  0.2099
  930MOL0     C25445  -1.698   9.288   7.002 -0.7549 -0.1927 -0.1108
  930MOL0     O25446  -1.830   9.239   7.007  0.3973 -0.5917  0.4910
  930MOL0     C25447  -1.945   9.321   6.991  0.5253 -0.5633  0.5149
  930MOL0     C25448  -2.051   9.306   7.081 -0.3528 -0.0474 -0.3257
  930MOL0     C25449  -2.162   9.390   7.060  0.2052 -0.2189 -0.0812
  930MOL0     C25450  -2.172   9.481   6.957 -0.4475 -0.0657  0.0425
  930MOL0     O25451  -2.292   9.543   6.945 -0.5975  0.1402 -0.5061
  930MOL0     C25452  -2.322   9.608   6.813 -0.3607  0.6320  0.1842
  930MOL0     C25453  -2.471   9.611   6.802  0.9549 -0.5421  0.0070
  930MOL0     C25454  -2.519   9.729   6.716  0.6814  0.1265  0.3408
  930MOL0     C25455  -2.497   9.698   6.570  0.1574 -0.4746 -0.4176
  930MOL0     C25456  -2.513   9.821   6.471 -0.8348  0.5481  0.4406
  930MOL0     C25457  -2.669   9.865   6.459 -1.1868  0.6013  0.5228
  930MOL0     C25458  -2.681   9.950   6.328 -0.5355  0.4528 -0.2514
  930MOL0     C25459  -2.830   9.987   6.306  0.3915  0.4118  0.1467
  930MOL0    Cl25460  -2.930   9.866   6.224  0.2126 -0.0128  0.1303
  930MOL0     C25461  -2.066   9.497   6.863 -0.4439 -0.0161 -0.3927
  930MOL0     C25462  -1.942   9.418   6.889  0.0513 -0.3483  0.2174
  930MOL0     O25463  -1.661   9.403   7.023  1.0269 -0.4625 -0.4343
  930MOL0     C25464  -1.444   9.250   6.994 -0.2572 -0.5943  0.6006
  930MOL0     C25465  -1.337   9.162   6.985 -0.6519 -0.3766  0.4342
  930MOL0     N25466  -0.621   8.803   7.160 -0.3551 -0.5384  0.0245
  930MOL0     N25467  -0.555   8.873   7.244  0.1388 -0.2107  0.1962
  930MOL0     C25468   0.143   8.637   8.000  1.0741 -0.3324  0.3539
  930MOL0     C25469   0.225   8.597   8.104 -0.6250  0.7356  0.1916
  930MOL0     C25470   0.475   8.402   8.417 -0.1054 -0.5228  0.3753
  930MOL0     C25471   0.593   8.353   8.357 -0.6201  0.3481 -0.4410
  930MOL0     C25472   0.705   8.319   8.442 -0.4970 -0.7785  0.0981
  930MOL0     C25473   0.698   8.339   8.582  0.5074  0.3626  0.0175
  930MOL0     O25474   0.814   8.310   8.653 -0.2046  0.2340 -0.4441
  930MOL0     C25475   0.812   8.325   8.796 -0.4563  0.0827 -0.1115
  930MOL0     C25476   0.840   8.477   8.827  0.9445  0.1007 -0.5116
  930MOL0     C25477   0.982   8.516   8.776  1.6543 -0.1405 -0.5637
  930MOL0     C25478   1.026   8.645   8.832  0.3749  0.1158  0.1427
  930MOL0     C25479   1.174   8.643   8.845  0.1444 -0.7668  0.3123
  930MOL0     C25480   1.296   8.643   8.860 -0.8139  0.0321 -0.3526
  930MOL0     C25481   0.579   8.390   8.633 -0.2765 -0.4113 -0.3724
  930MOL0     C25482   0.460   8.407   8.556 -0.4299 -0.2146 -0.1947
  930MOL0     H25483   0.309   8.298   7.970 -0.6745 -0.0318  0.5797
  930MOL0     H25484   0.143   8.356   7.815 -1.4259 -2.0016  2.4154
  930MOL0     H25485  -0.120   8.684   7.916  0.0612 -3.0697 -1.1114
  930MOL0     H25486  -0.035   8.798   7.803 -0.0634  0.0576 -0.3010
  930MOL0     H25487  -0.177   8.582   7.662 -1.7113 -1.9196 -0.6903
  930MOL0     H25488  -0.272   8.650   7.805  1.7364  1.1459  2.3748
  930MOL0     H25489  -0.186   8.882   7.691  1.3173  0.2537 -0.9067
  930MOL0     H25490  -0.180   8.776   7.544 -0.6206  1.2620  0.2935
  930MOL0     H25491  -0.411   8.713   7.574  1.5803  0.0288 -1.1263
  930MOL0     H25492  -0.413   8.814   7.723 -2.3255  2.0695 -0.8512
  930MOL0     H25493  -0.370   9.019   7.602  3.3882 -1.9702  1.1740
  930MOL0     H25494  -0.373   8.932   7.447  2.8956 -0.2748  0.5655
  930MOL0     H25495  -0.601   8.837   7.506 -2.7094 -0.5202  1.6007
  930MOL0     H25496  -0.597   8.914   7.660 -0.8943  1.1127 -1.2580
  930MOL0     H25497  -0.737   9.024   7.532  1.5889 -1.5956 -0.3975
  930MOL0     H25498  -0.607   9.141   7.573  3.1411 -0.6845  0.3876
  930MOL0     H25499  -0.486   9.087   7.360 -0.5668 -1.6949 -0.2342
  930MOL0     H25500  -0.639   9.174   7.344  0.7089 -0.3265 -2.1081
  930MOL0     H25501  -0.852   9.020   7.248  1.0699  2.1736 -2.5934
  930MOL0     H25502  -0.817   8.799   6.953  2.3202 -3.2070  0.0373
  930MOL0     H25503  -0.855   8.674   7.074 -0.5143  1.0074  6.0153
  930MOL0     H25504  -1.005   8.945   7.075  1.0093 -0.0861 -2.0735
  930MOL0     H25505  -1.051   8.804   7.175  0.2212 -2.8703  1.0780
  930MOL0     H25506  -1.112   8.658   7.001 -0.2813  0.2453  1.7084
  930MOL0     H25507  -1.051   8.786   6.879  1.6537 -0.1979 -0.0716
  930MOL0     H25508  -1.266   8.788   7.092  1.8592 -1.9724 -0.1361
  930MOL0     H25509  -1.292   8.749   6.928 -1.3156  0.4508 -2.0086
  930MOL0     H25510  -1.479   8.867   7.010  0.5617  0.7437  1.5589
  930MOL0     H25511  -1.769   9.041   7.140 -4.4322 -2.7125 -1.5375
  930MOL0     H25512  -1.782   8.959   6.975  0.0600 -0.3882  0.3879
  930MOL0     H25513  -1.691   8.901   7.117  2.7360  2.4805  2.0934
  930MOL0     H25514  -2.038   9.245   7.170 -0.2395 -0.5837 -0.7028
  930MOL0     H25515  -2.238   9.370   7.134  1.6762 -1.8725  1.0697
  930MOL0     H25516  -2.274   9.705   6.798 -0.9981  0.9970  0.4438
  930MOL0     H25517  -2.305   9.550   6.722 -3.0871  0.2741 -0.1988
  930MOL0     H25518  -2.505   9.521   6.749  0.6122  0.2251 -1.1256
  930MOL0     H25519  -2.528   9.621   6.895 -3.3875  1.1497 -2.5356
  930MOL0     H25520  -2.468   9.818   6.754 -0.2522  0.3767  1.0538
  930MOL0     H25521  -2.623   9.744   6.743  1.1524 -0.4543  2.7042
  930MOL0     H25522  -2.394   9.661   6.565  0.9917  1.0596  2.7577
  930MOL0     H25523  -2.555   9.608   6.547  3.6629 -3.1853  0.3634
  930MOL0     H25524  -2.463   9.804   6.375 -0.5805  2.8935  0.0799
  930MOL0     H25525  -2.463   9.914   6.502 -3.7682  1.2776  3.4869
  930MOL0     H25526  -2.741   9.783   6.453 -0.6751  0.1384  0.6466
  930MOL0     H25527  -2.707   9.926   6.542 -0.0333  0.1127  1.4277
  930MOL0     H25528  -2.641   9.899   6.240 -3.0071 -1.1291 -0.5583
  930MOL0     H25529  -2.628  10.045   6.345  0.6960 -0.2981  0.2471
  930MOL0     H25530  -2.823  10.073   6.240  2.4280 -0.4431 -0.8402
  930MOL0     H25531  -2.863  10.015   6.407  0.0762 -0.0042  0.1637
  930MOL0     H25532  -2.068   9.543   6.765 -1.9616 -0.6485 -0.6988
  930MOL0     H25533  -1.854   9.421   6.825 -0.0508  0.3970  0.1048
  930MOL0     H25534  -1.422   9.356   6.996  1.6253 -0.8666 -1.4694
  930MOL0     H25535  -1.238   9.203   6.971 -0.3615 -1.4216 -0.7233
  930MOL0     H25536   0.105   8.737   8.014 -0.2917 -0.9783  1.4932
  930MOL0     H25537   0.258   8.660   8.187  1.0689  0.1635  0.0051
  930MOL0     H25538   0.605   8.335   8.251  1.5763 -0.5288 -0.1095
  930MOL0     H25539   0.794   8.272   8.402 -0.7722 -0.7310 -0.5678
  930MOL0     H25540   0.718   8.295   8.845 -1.3784  2.4401 -0.2851
  930MOL0     H25541   0.896   8.268   8.836 -1.0278 -0.4148  0.4215
  930MOL0     H25542   0.827   8.501   8.932  0.0555 -2.0243 -0.0729
  930MOL0     H25543   0.759   8.537   8.784  0.5727 -0.8369 -1.1655
  930MOL0     H25544   0.993   8.515   8.667  5.1323 -1.2495 -0.3282
  930MOL0     H25545   1.048   8.434   8.807  2.1244  0.4952  0.1410
  930MOL0     H25546   0.987   8.647   8.934 -0.5840  0.0952 -0.2119
  930MOL0     H25547   0.987   8.732   8.778  0.0128 -1.0239 -1.5015
  930MOL0     H25548   1.400   8.644   8.887 -0.9432  2.4641  0.2469
  930MOL0     H25549   0.575   8.418   8.738 -0.5040  1.0962 -0.7644
  930MOL0     H25550   0.378   8.454   8.609  0.4619 -0.4325  1.4387
  931MOL0     O25551   7.687   4.403   0.247 -0.2570  0.1021  0.4318
  931MOL0     C25552   7.788   4.457   0.204  1.0161  1.0737 -0.4118
  931MOL0     O25553   7.845   4.566   0.267 -0.1280 -0.0287 -0.4214
  931MOL0     C25554   7.777   4.642   0.353  0.1077  0.6023  0.0235
  931MOL0     C25555   7.679   4.733   0.321 -0.0074  0.2372 -0.4179
  931MOL0     C25556   7.615   4.809   0.416  0.1933  0.6073 -0.4042
  931MOL0     C25557   7.659   4.801   0.549  0.0637 -0.6863 -0.5383
  931MOL0     O25558   7.598   4.871   0.653 -0.0758  0.0914  0.6582
  931MOL0     C25559   7.623   5.015   0.641  0.4605  0.4935 -0.5550
  931MOL0     C25560   7.601   5.075   0.784 -0.1120 -0.4910  0.2234
  931MOL0     C25561   7.457   5.058   0.838  0.2680  0.3209 -0.0097
  931MOL0     C25562   7.453   5.117   0.980 -0.5663 -0.3882  0.3158
  931MOL0     C25563   7.327   5.105   1.048  0.0598  0.0751 -0.8127
  931MOL0     C25564   7.333   5.161   1.195 -0.5109 -0.3863 -0.2653
  931MOL0     C25565   7.246   5.059   1.285  0.3568 -0.2855 -0.1981
  931MOL0     C25566   7.103   5.032   1.245 -0.2625  1.0285  0.2276
  931MOL0     N25567   7.026   5.145   1.283  0.7409 -0.6562  0.0417
  931MOL0     C25568   6.997   5.179   1.414 -0.8875  0.6067  0.1662
  931MOL0     C25569   6.927   5.294   1.397  0.5351 -0.7988  0.4054
  931MOL0     C25570   6.866   5.369   1.513  0.3452  0.6325  0.1165
  931MOL0     C25571   6.961   5.366   1.636  0.3701 -1.0740 -0.1550
  931MOL0     C25572   6.907   5.467   1.735  0.4355  0.1341 -0.4007
  931MOL0     C25573   6.983   5.464   1.862 -0.4471 -0.0446  0.2212
  931MOL0     O25574   6.964   5.338   1.931 -0.1350 -0.3991 -0.1699
  931MOL0     C25575   7.011   5.341   2.063 -0.4318  0.7500  0.2169
  931MOL0     C25576   7.146   5.324   2.092  0.1140 -0.2411 -0.4671
  931MOL0     C25577   7.202   5.314   2.229  0.7236  0.6354 -0.3174
  931MOL0     C25578   7.347   5.296   2.240  0.2585  0.5964 -0.2686
  931MOL0     C25579   7.107   5.324   2.333 -0.3374 -0.2765 -0.0933
  931MOL0     C25580   7.150   5.308   2.481 -0.2353  0.6226 -0.1106
  931MOL0     O25581   7.282   5.284   2.511  0.3980 -0.3367  0.2674
  931MOL0     C25582   7.325   5.252   2.637  0.0641  0.2410 -0.1336
  931MOL0     C25583   7.451   5.303   2.675  0.5603  0.0603  0.1433
  931MOL0     C25584   7.511   5.260   2.790 -0.4048  0.5482 -0.4454
  931MOL0     C25585   7.440   5.180   2.881 -0.3116  0.1530 -0.3206
  931MOL0     O25586   7.493   5.129   2.996 -0.5969 -0.1880 -0.2302
  931MOL0     C25587   7.620   5.165   3.049  0.3406  0.6209  0.0218
  931MOL0     C25588   7.627   5.299   3.115 -0.6672 -0.7373 -0.5163
  931MOL0     C25589   7.562   5.304   3.253 -0.6787  0.4264 -0.7100
  931MOL0     C25590   7.532   5.449   3.292 -0.2996 -1.1377 -0.0445
  931MOL0     C25591   7.458   5.452   3.432  0.2532  0.7800  0.5016
  931MOL0     C25592   7.418   5.585   3.486 -0.1754  0.0566 -0.0977
  931MOL0     C25593   7.317   5.664   3.412 -0.2743 -0.1894  0.0428
  931MOL0     C25594   7.193   5.599   3.356 -0.3372  0.0432  0.4390
  931MOL0    Cl25595   7.084   5.559   3.487 -0.1377  0.4923  0.1960
  931MOL0     C25596   7.316   5.135   2.846  0.5252  0.2543  0.7642
  931MOL0     C25597   7.258   5.168   2.725  0.2305  0.5312 -0.0810
  931MOL0     O25598   7.064   5.321   2.561  0.1681 -0.5811  0.1388
  931MOL0     C25599   6.972   5.347   2.303  0.2078  0.1379  0.1973
  931MOL0     C25600   6.923   5.341   2.170  0.0031 -0.1512  0.3308
  931MOL0     N25601   6.910   5.321   1.261 -0.2879  0.3742  0.0146
  931MOL0     N25602   6.975   5.234   1.197 -0.2922  0.1604  0.6891
  931MOL0     C25603   7.761   4.710   0.580  0.3428 -0.1917 -0.2345
  931MOL0     C25604   7.818   4.627   0.486 -0.0558  0.1105 -0.6014
  931MOL0     C25605   7.867   4.384   0.101  0.3364 -0.0782 -0.0421
  931MOL0     C25606   7.982   4.439   0.054  0.0306  0.2027  0.1761
  931MOL0     C25607   8.069   4.371  -0.035  0.0813 -0.0414 -0.4462
  931MOL0     C25608   8.040   4.244  -0.080  0.8434 -0.7590  0.0720
  931MOL0     O25609   8.109   4.162  -0.161 -0.4671  0.0968  0.4636
  931MOL0     C25610   8.248   4.187  -0.189  0.8544 -0.1659 -0.0813
  931MOL0     C25611   8.316   4.052  -0.205 -0.4044  0.1575  0.3043
  931MOL0     C25612   8.329   3.963  -0.079 -0.8062 -1.2369 -0.2822
  931MOL0     C25613   8.339   3.813  -0.118 -0.5484  0.5865 -0.6525
  931MOL0     C25614   8.301   3.723  -0.009 -0.1594  0.5208 -0.3656
  931MOL0     C25615   8.260   3.659   0.083  0.0030  0.7514 -0.4750
  931MOL0     C25616   7.921   4.185  -0.024  0.8287 -0.4976  0.2525
  931MOL0     C25617   7.831   4.253   0.054  0.9681 -1.2097 -0.4670
  931MOL0     H25618   7.642   4.741   0.220  0.3470 -4.1441 -1.0874
  931MOL0     H25619   7.528   4.872   0.399 -1.1364 -0.4464  1.8951
  931MOL0     H25620   7.729   5.034   0.626  0.9439 -0.6515  1.2303
  931MOL0     H25621   7.563   5.057   0.559  2.7888 -0.7721 -3.0502
  931MOL0     H25622   7.668   5.035   0.860  0.6551  1.6522  0.7317
  931MOL0     H25623   7.628   5.180   0.773  0.7815 -0.6481  0.8301
  931MOL0     H25624   7.381   5.106   0.775  1.4074  1.1185 -0.8184
  931MOL0     H25625   7.426   4.954   0.851 -3.5814  1.2655 -0.3368
  931MOL0     H25626   7.523   5.061   1.042 -0.2564  1.9726  2.2650
  931MOL0     H25627   7.497   5.217   0.970  0.7000 -0.8920  0.6779
  931MOL0     H25628   7.233   5.140   1.003 -0.2949 -0.0240 -0.1708
  931MOL0     H25629   7.310   4.998   1.060  0.4900  0.1543  0.7960
  931MOL0     H25630   7.437   5.166   1.229  0.2884 -1.5655 -2.3141
  931MOL0     H25631   7.295   5.263   1.205  0.4050  0.1720 -1.9891
  931MOL0     H25632   7.308   4.971   1.302 -1.7971 -1.4132  2.7014
  931MOL0     H25633   7.248   5.094   1.389 -0.1934 -1.8965  0.3726
  931MOL0     H25634   7.057   4.952   1.304 -0.5188  1.0438  0.0484
  931MOL0     H25635   7.109   4.997   1.142 -1.9153 -3.6222  1.4674
  931MOL0     H25636   7.023   5.126   1.505  0.6328  1.4824  0.2722
  931MOL0     H25637   6.843   5.472   1.486 -1.1386 -0.1941 -1.9970
  931MOL0     H25638   6.767   5.328   1.533  0.6491  0.0201  0.3829
  931MOL0     H25639   7.055   5.409   1.602 -0.1642 -1.0788 -1.7203
  931MOL0     H25640   6.980   5.268   1.681 -0.2077 -0.7113  0.9368
  931MOL0     H25641   6.807   5.436   1.764  0.4047  0.9388  0.3776
  931MOL0     H25642   6.922   5.569   1.699  2.0970  0.4830  1.1304
  931MOL0     H25643   6.968   5.550   1.927 -0.0980  1.6542 -1.8622
  931MOL0     H25644   7.091   5.454   1.849 -0.4417 -1.8935  1.3071
  931MOL0     H25645   7.213   5.297   2.011  1.3768  0.3090  0.3518
  931MOL0     H25646   7.401   5.326   2.150 -0.6291 -0.9850 -1.3750
  931MOL0     H25647   7.387   5.353   2.325  1.2411  1.1884 -1.1014
  931MOL0     H25648   7.372   5.192   2.260  0.3749  0.1831 -2.3398
  931MOL0     H25649   7.507   5.359   2.601  0.1264 -0.3435 -0.5024
  931MOL0     H25650   7.615   5.277   2.814 -0.2580  5.3455 -3.2406
  931MOL0     H25651   7.651   5.091   3.123  2.4950 -0.1020 -1.5174
  931MOL0     H25652   7.688   5.152   2.964 -1.4675  0.4483 -1.4839
  931MOL0     H25653   7.729   5.337   3.120 -1.0813  0.3885 -0.3979
  931MOL0     H25654   7.562   5.359   3.052 -2.1371 -3.8596 -2.1770
  931MOL0     H25655   7.644   5.264   3.314 -0.1734 -0.7839 -2.1477
  931MOL0     H25656   7.472   5.241   3.255 -2.9832  3.4653  1.5986
  931MOL0     H25657   7.619   5.514   3.285 -0.0655 -1.6021 -1.6268
  931MOL0     H25658   7.454   5.493   3.230 -1.1976 -1.9660  0.4540
  931MOL0     H25659   7.512   5.398   3.511  2.2048 -0.4976 -1.6110
  931MOL0     H25660   7.369   5.391   3.415 -1.2646  2.7782  0.8970
  931MOL0     H25661   7.376   5.568   3.585  2.1569  3.3063  1.6453
  931MOL0     H25662   7.512   5.641   3.497  0.0740 -0.6049  1.3918
  931MOL0     H25663   7.358   5.724   3.331  0.2129 -0.9577 -0.2920
  931MOL0     H25664   7.274   5.732   3.486 -0.6520  0.7328 -1.0069
  931MOL0     H25665   7.221   5.512   3.296  2.3756  0.3451  1.1443
  931MOL0     H25666   7.142   5.671   3.290 -0.1280  1.5534  1.8414
  931MOL0     H25667   7.255   5.067   2.904 -4.6893  2.0206 -1.9186
  931MOL0     H25668   7.159   5.129   2.705 -0.7314  2.2341  1.0495
  931MOL0     H25669   6.899   5.357   2.383 -1.1198  2.7885 -1.2173
  931MOL0     H25670   6.820   5.355   2.142  0.3235 -0.1261 -0.8599
  931MOL0     H25671   7.801   4.693   0.680 -0.6256  4.3728  1.1661
  931MOL0     H25672   7.896   4.556   0.509  0.4357  1.0867  0.8588
  931MOL0     H25673   8.028   4.533   0.083  2.9942 -1.5456  1.5836
  931MOL0     H25674   8.156   4.426  -0.069  0.3732 -0.4533 -0.3765
  931MOL0     H25675   8.251   4.238  -0.286  5.0345  0.8456  0.3605
  931MOL0     H25676   8.307   4.239  -0.112  0.5713  1.2613 -0.7898
  931MOL0     H25677   8.420   4.081  -0.225 -0.6647  0.7926 -0.1703
  931MOL0     H25678   8.273   4.005  -0.293 -2.3670  2.8088 -0.2947
  931MOL0     H25679   8.247   3.982  -0.009 -1.4116 -1.7067 -0.8541
  931MOL0     H25680   8.423   3.986  -0.028 -2.2001 -1.6862  2.6359
  931MOL0     H25681   8.439   3.786  -0.152 -0.0699 -2.6576  2.6596
  931MOL0     H25682   8.274   3.788  -0.202 -2.0043 -3.8786  1.4500
  931MOL0     H25683   8.227   3.600   0.167 -0.5511 -0.3456 -1.4397
  931MOL0     H25684   7.866   4.100  -0.065  1.6464 -1.4526  1.0771
  931MOL0     H25685   7.730   4.221   0.077  0.5440  0.4081  0.0688
  932MOL0     O25686   1.078   8.173   4.195 -0.2172 -0.9037  1.2925
  932MOL0     C25687   1.182   8.133   4.251 -0.8326 -0.1857 -0.5761
  932MOL0     O25688   1.184   8.026   4.337 -0.8712  0.0814 -0.0829
  932MOL0     C25689   1.064   7.975   4.366 -0.0122  0.4586  0.3561
  932MOL0     C25690   0.969   8.047   4.438 -0.7106 -0.0229  0.8850
  932MOL0     C25691   0.856   7.987   4.467  0.2847 -0.4172  0.0894
  932MOL0     C25692   0.820   7.857   4.429 -0.3329  0.0698  0.4306
  932MOL0     O25693   0.702   7.805   4.478 -0.7309  0.2487 -0.4426
  932MOL0     C25694   0.647   7.685   4.411 -0.1595  0.4126 -0.8376
  932MOL0     C25695   0.494   7.692   4.432  0.2848 -0.6183  0.1537
  932MOL0     C25696   0.428   7.802   4.346  0.3677  0.4992  0.1968
  932MOL0     C25697   0.266   7.799   4.364 -0.9707 -0.0014 -0.1424
  932MOL0     C25698   0.196   7.920   4.297 -0.0667 -0.0466 -0.0812
  932MOL0     C25699   0.213   7.909   4.137  0.7823  0.5359  0.0895
  932MOL0     C25700   0.124   8.015   4.057 -0.0404  1.0965  0.2398
  932MOL0     C25701  -0.023   8.015   4.088 -0.0441  0.1897  0.2322
  932MOL0     N25702  -0.101   7.995   3.958 -0.1609  0.4224  0.0070
  932MOL0     C25703  -0.176   7.878   3.940 -0.2181 -0.6041 -0.4283
  932MOL0     C25704  -0.255   7.898   3.829 -0.3158 -0.0076 -0.0655
  932MOL0     C25705  -0.333   7.802   3.748  0.4625  0.1175 -0.4809
  932MOL0     C25706  -0.486   7.805   3.767  0.7384  0.1600  0.0609
  932MOL0     C25707  -0.555   7.913   3.686  0.6474 -0.5052 -0.3694
  932MOL0     C25708  -0.704   7.913   3.716 -0.2306 -0.0643 -0.0693
  932MOL0     O25709  -0.776   7.836   3.621  0.3595  0.1999 -0.2349
  932MOL0     C25710  -0.908   7.842   3.604  0.5242 -0.7906  0.8179
  932MOL0     C25711  -0.995   7.909   3.680  0.0320  0.1724 -0.0139
  932MOL0     C25712  -1.138   7.898   3.660 -0.3260 -0.4923  0.1906
  932MOL0     C25713  -1.220   7.976   3.757  0.5869  0.5824 -0.1139
  932MOL0     C25714  -1.198   7.818   3.552  0.0522 -0.3174 -0.8150
  932MOL0     C25715  -1.336   7.798   3.526  0.6975 -0.5744 -0.2581
  932MOL0     O25716  -1.378   7.689   3.460 -0.9528 -0.9488 -0.7053
  932MOL0     C25717  -1.509   7.659   3.433  0.5560  0.0031  0.3883
  932MOL0     C25718  -1.535   7.545   3.350 -0.3773  0.2403  0.3199
  932MOL0     C25719  -1.661   7.509   3.305  0.2935 -0.4349 -0.5645
  932MOL0     C25720  -1.767   7.603   3.326  0.0466 -0.1798  0.4995
  932MOL0     O25721  -1.900   7.551   3.314 -0.2633 -0.3208 -0.1762
  932MOL0     C25722  -1.997   7.650   3.278 -0.0496  0.0824 -0.5044
  932MOL0     C25723  -2.117   7.587   3.206  0.5168 -0.2779  0.2313
  932MOL0     C25724  -2.250   7.659   3.227 -0.4369  0.2733  0.0411
  932MOL0     C25725  -2.267   7.769   3.119  0.7616 -0.5367  0.7231
  932MOL0     C25726  -2.390   7.872   3.138  0.1847 -0.4698 -0.1624
  932MOL0     C25727  -2.515   7.797   3.112 -0.1725  0.3655 -0.2118
  932MOL0     C25728  -2.639   7.889   3.113  0.5574  1.3688  0.1697
  932MOL0     C25729  -2.770   7.805   3.094 -0.4692  0.0861 -0.2983
  932MOL0    Cl25730  -2.776   7.711   2.942  0.3169 -0.0620  0.2303
  932MOL0     C25731  -1.740   7.716   3.399  0.3040  0.0229  0.1361
  932MOL0     C25732  -1.619   7.748   3.444 -0.2876  0.5575 -1.2154
  932MOL0     O25733  -1.409   7.886   3.563  0.1573 -1.3019 -0.2869
  932MOL0     C25734  -1.101   7.754   3.477  0.0183 -0.5747 -0.1985
  932MOL0     C25735  -0.961   7.765   3.494  0.2131 -0.2718 -0.0979
  932MOL0     N25736  -0.227   8.027   3.780 -0.5465 -0.4442 -0.4752
  932MOL0     N25737  -0.146   8.078   3.868  0.3098 -0.4309  1.0994
  932MOL0     C25738   0.913   7.791   4.354  0.9639  0.2075  0.4492
  932MOL0     C25739   1.037   7.848   4.325  0.1806 -0.9045 -1.0324
  932MOL0     C25740   1.299   8.204   4.217 -0.0445  1.1855 -0.7949
  932MOL0     C25741   1.321   8.274   4.101 -1.2843 -0.3804 -0.2376
  932MOL0     C25742   1.441   8.359   4.072  0.2813 -0.3330  0.5542
  932MOL0     C25743   1.544   8.367   4.170  0.7552  0.3354 -0.3401
  932MOL0     O25744   1.651   8.449   4.159  0.0222 -0.2808 -0.0243
  932MOL0     C25745   1.705   8.487   4.033  0.3591  0.1109 -0.0535
  932MOL0     C25746   1.742   8.374   3.934 -0.7446 -0.3000 -0.4363
  932MOL0     C25747   1.818   8.258   4.003  0.2729 -0.4563  0.4269
  932MOL0     C25748   1.959   8.303   4.042  0.8506  0.5358 -0.1819
  932MOL0     C25749   1.954   8.360   4.179 -0.0994  0.0508  0.6287
  932MOL0     C25750   1.963   8.409   4.289  0.1762 -0.0129  0.8998
  932MOL0     C25751   1.521   8.297   4.293 -0.0588  0.2379 -0.3642
  932MOL0     C25752   1.404   8.218   4.313 -0.1071 -0.4240 -0.3825
  932MOL0     H25753   0.993   8.148   4.470  0.4689  0.0689 -0.2083
  932MOL0     H25754   0.795   8.037   4.542  0.5952  1.1229 -0.6483
  932MOL0     H25755   0.667   7.662   4.306  1.1784 -0.2971 -0.4498
  932MOL0     H25756   0.676   7.593   4.462 -0.5417 -0.6302 -2.4444
  932MOL0     H25757   0.439   7.599   4.416  1.4402 -0.9751 -2.2692
  932MOL0     H25758   0.475   7.721   4.536  0.2851  0.1488 -0.0464
  932MOL0     H25759   0.478   7.897   4.366  1.6214  0.5733 -2.7992
  932MOL0     H25760   0.467   7.787   4.245  2.4822  1.1793  0.8479
  932MOL0     H25761   0.236   7.702   4.321  3.5517 -1.0858 -1.4474
  932MOL0     H25762   0.239   7.802   4.470 -2.5116  0.4948 -0.5333
  932MOL0     H25763   0.090   7.920   4.326 -0.1101 -1.2605 -0.1838
  932MOL0     H25764   0.244   8.010   4.336  0.4587 -0.9866  1.5446
  932MOL0     H25765   0.316   7.917   4.103  0.6922  0.9050 -0.1059
  932MOL0     H25766   0.182   7.805   4.126 -0.9366  1.1085 -0.9565
  932MOL0     H25767   0.162   8.116   4.073  0.3353  1.0325 -0.2017
  932MOL0     H25768   0.143   7.977   3.956 -0.6058  1.7858 -0.1310
  932MOL0     H25769  -0.044   8.108   4.141 -0.1928  0.3680 -0.1415
  932MOL0     H25770  -0.046   7.929   4.152  1.3037 -1.1848 -1.0390
  932MOL0     H25771  -0.164   7.787   3.999  0.8773 -0.1318  0.1229
  932MOL0     H25772  -0.307   7.821   3.643 -1.8295 -2.0177 -1.5366
  932MOL0     H25773  -0.294   7.704   3.778  0.6359  0.1930 -0.4541
  932MOL0     H25774  -0.507   7.829   3.872 -1.0673 -1.0466  0.0035
  932MOL0     H25775  -0.528   7.708   3.739 -0.5906  1.3835 -2.4814
  932MOL0     H25776  -0.545   7.885   3.581  2.1732 -1.9580  0.1089
  932MOL0     H25777  -0.520   8.016   3.701 -1.4284  0.0919  0.6937
  932MOL0     H25778  -0.735   8.018   3.706 -1.6154 -0.0857  3.0795
  932MOL0     H25779  -0.718   7.880   3.819  4.6140 -1.7079  0.3188
  932MOL0     H25780  -0.950   7.970   3.757 -2.0744  0.2383  1.2270
  932MOL0     H25781  -1.290   7.906   3.803  0.4491  1.9476  1.8743
  932MOL0     H25782  -1.164   8.023   3.838  0.3750  0.2034  0.2549
  932MOL0     H25783  -1.278   8.048   3.698 -2.5164  0.7955  2.9215
  932MOL0     H25784  -1.443   7.498   3.318  0.3865  1.8408  0.0754
  932MOL0     H25785  -1.673   7.409   3.266  2.4983 -1.3121  0.8270
  932MOL0     H25786  -2.034   7.703   3.366 -2.2762 -3.1337  0.6438
  932MOL0     H25787  -1.944   7.722   3.214 -0.9402  0.7008 -0.5692
  932MOL0     H25788  -2.090   7.574   3.101  0.6713  2.5048 -0.1523
  932MOL0     H25789  -2.119   7.485   3.244  0.9860  0.7453  3.3026
  932MOL0     H25790  -2.236   7.701   3.327  2.5757  1.8615 -0.9279
  932MOL0     H25791  -2.330   7.584   3.234  0.9996 -1.3757 -0.2810
  932MOL0     H25792  -2.174   7.825   3.105  1.5522 -1.8883  0.4465
  932MOL0     H25793  -2.295   7.711   3.030 -0.6083 -1.1742  1.5316
  932MOL0     H25794  -2.372   7.959   3.075  0.3891 -1.8506 -2.0973
  932MOL0     H25795  -2.402   7.912   3.239 -1.9519 -3.7936  1.1010
  932MOL0     H25796  -2.516   7.751   3.013 -2.4395 -1.6432  0.6354
  932MOL0     H25797  -2.519   7.717   3.187  1.8307 -0.6064 -1.0779
  932MOL0     H25798  -2.632   7.963   3.033 -0.5801  0.9620 -0.3342
  932MOL0     H25799  -2.643   7.944   3.207 -0.0779 -1.8710  2.1898
  932MOL0     H25800  -2.858   7.868   3.112 -2.8606 -2.0284 -3.5585
  932MOL0     H25801  -2.765   7.723   3.166 -3.4409 -0.4744 -0.6131
  932MOL0     H25802  -1.828   7.771   3.430 -0.7794  0.3282 -3.0959
  932MOL0     H25803  -1.622   7.840   3.501 -0.7921  2.0898 -3.5533
  932MOL0     H25804  -1.131   7.695   3.391 -1.1261  1.8258 -1.5524
  932MOL0     H25805  -0.890   7.700   3.445 -1.5804 -3.8450  1.6395
  932MOL0     H25806   0.894   7.687   4.330 -0.2366  1.1305 -3.3341
  932MOL0     H25807   1.116   7.788   4.283 -0.5254 -2.4883 -0.1695
  932MOL0     H25808   1.249   8.270   4.020 -0.9298  0.9351 -0.6404
  932MOL0     H25809   1.456   8.412   3.979  0.1760  0.9739  1.2524
  932MOL0     H25810   1.639   8.559   3.986  0.4662 -0.6476 -1.4147
  932MOL0     H25811   1.801   8.532   4.060  1.8316 -2.0714 -1.3466
  932MOL0     H25812   1.796   8.405   3.844 -2.9773 -1.5974 -2.3277
  932MOL0     H25813   1.647   8.336   3.895 -1.8918  1.3566  0.5954
  932MOL0     H25814   1.815   8.176   3.931 -2.4599  1.1254 -1.4248
  932MOL0     H25815   1.760   8.223   4.089 -0.4460 -2.1667 -0.6951
  932MOL0     H25816   1.998   8.384   3.980 -1.3107  1.9774  0.2346
  932MOL0     H25817   2.018   8.211   4.040 -0.2162 -0.1769  0.2528
  932MOL0     H25818   1.974   8.441   4.390 -0.4736 -2.7425  1.9182
  932MOL0     H25819   1.588   8.299   4.379  1.1120 -0.5503 -1.2340
  932MOL0     H25820   1.387   8.178   4.413 -0.3111 -0.3317 -0.3807
  933MOL0     O25821   8.033   5.604   4.897 -0.5785  0.2667  0.0706
  933MOL0     C25822   8.009   5.543   4.794  0.2707 -0.3799  0.9827
  933MOL0     O25823   7.885   5.525   4.742  0.1174 -0.8524 -0.1657
  933MOL0     C25824   7.761   5.584   4.796  0.3816 -0.3683  0.2075
  933MOL0     C25825   7.746   5.658   4.918 -0.5458  1.0628 -0.2257
  933MOL0     C25826   7.620   5.689   4.965  0.2019  0.3962  0.0597
  933MOL0     C25827   7.510   5.658   4.880  0.4680 -0.2545  0.0295
  933MOL0     O25828   7.379   5.699   4.925 -0.4294 -0.3517 -1.0100
  933MOL0     C25829   7.257   5.629   4.894  0.1484  0.4948 -0.2815
  933MOL0     C25830   7.169   5.713   4.812 -0.1644 -0.1635 -0.7367
  933MOL0     C25831   7.064   5.619   4.768  0.0755 -0.1732 -0.2869
  933MOL0     C25832   6.989   5.689   4.653 -0.7738 -0.1832  0.4065
  933MOL0     C25833   6.859   5.617   4.632  0.0371  0.2081  0.8431
  933MOL0     C25834   6.786   5.675   4.518 -0.1951 -0.8619  1.4172
  933MOL0     C25835   6.648   5.629   4.513 -0.1042  0.4988 -0.3596
  933MOL0     C25836   6.591   5.721   4.399  0.4586  1.0188 -0.0107
  933MOL0     N25837   6.449   5.741   4.434  0.1201  0.4300  0.7424
  933MOL0     C25838   6.352   5.631   4.426 -0.4865 -0.9688 -0.0019
  933MOL0     C25839   6.234   5.698   4.435  0.3695  0.1234  0.6231
  933MOL0     C25840   6.096   5.638   4.432  0.8670  0.1716  0.2569
  933MOL0     C25841   6.081   5.511   4.348  1.1165 -0.5583 -0.5536
  933MOL0     C25842   6.094   5.372   4.415 -0.8152  0.2070 -0.2423
  933MOL0     C25843   6.077   5.252   4.322 -0.8303 -0.6289 -0.3131
  933MOL0     O25844   6.070   5.135   4.406 -0.5514  0.0386  0.0455
  933MOL0     C25845   5.953   5.079   4.457 -0.9184  0.1022  0.9574
  933MOL0     C25846   5.963   4.987   4.555 -0.7778 -0.5490  0.3677
  933MOL0     C25847   5.861   4.923   4.620 -0.4748  1.5849 -0.6377
  933MOL0     C25848   5.906   4.840   4.739 -0.9433  0.7790  0.5674
  933MOL0     C25849   5.728   4.950   4.580  0.6603 -0.6774  0.5490
  933MOL0     C25850   5.600   4.893   4.641 -1.2932 -0.6609 -0.8246
  933MOL0     O25851   5.486   4.885   4.570  0.3691 -0.3420  1.3466
  933MOL0     C25852   5.374   4.826   4.629 -0.2606  0.6044  0.6045
  933MOL0     C25853   5.251   4.890   4.637 -0.4695 -0.7288 -0.3106
  933MOL0     C25854   5.149   4.824   4.694 -0.1320 -0.0983  0.7069
  933MOL0     C25855   5.158   4.690   4.730  0.9872 -0.1654  0.5509
  933MOL0     O25856   5.042   4.636   4.788  0.6264 -0.6806 -0.4956
  933MOL0     C25857   5.017   4.498   4.758 -0.2017 -0.2354 -0.6949
  933MOL0     C25858   4.870   4.480   4.820 -0.4031 -0.6055 -0.0781
  933MOL0     C25859   4.808   4.337   4.803  0.2407 -0.0267  0.3063
  933MOL0     C25860   4.672   4.335   4.875 -0.6626  0.3916  1.2167
  933MOL0     C25861   4.588   4.217   4.821  0.3369  0.0963 -0.1917
  933MOL0     C25862   4.467   4.184   4.905 -0.1634 -0.5031 -0.7299
  933MOL0     C25863   4.425   4.032   4.905  0.6162 -0.2854 -0.5192
  933MOL0     C25864   4.362   4.008   4.762  0.2994 -0.2608 -0.4320
  933MOL0    Cl25865   4.382   3.836   4.711  0.0145 -0.0339 -0.3876
  933MOL0     C25866   5.284   4.624   4.720  0.4654  0.2881  0.2747
  933MOL0     C25867   5.385   4.691   4.676  0.0131  0.3504  0.6282
  933MOL0     O25868   5.619   4.839   4.753 -0.6642 -0.4316  0.0777
  933MOL0     C25869   5.713   5.042   4.468  0.4467 -0.1564 -0.5359
  933MOL0     C25870   5.823   5.114   4.416 -0.0808  0.2042 -0.2528
  933MOL0     N25871   6.255   5.829   4.450  0.3352  0.4813  0.1706
  933MOL0     N25872   6.373   5.863   4.438 -0.0751  0.0009 -0.1527
  933MOL0     C25873   7.521   5.601   4.750  0.3741 -0.3933  1.0832
  933MOL0     C25874   7.648   5.566   4.718 -0.0884  0.2886  0.0542
  933MOL0     C25875   8.125   5.514   4.707  0.4635 -0.0003 -0.5315
  933MOL0     C25876   8.245   5.464   4.765  0.5351  0.2565  1.0122
  933MOL0     C25877   8.353   5.434   4.677  0.2386  0.0151  0.3619
  933MOL0     C25878   8.352   5.465   4.542 -0.3465  0.5090 -0.0957
  933MOL0     O25879   8.464   5.447   4.474  0.1265 -0.3520  1.0373
  933MOL0     C25880   8.462   5.486   4.332  0.5366  0.1209  0.5067
  933MOL0     C25881   8.588   5.436   4.260 -0.0358  0.5806  0.2702
  933MOL0     C25882   8.590   5.510   4.126 -0.0407 -0.3896  0.7138
  933MOL0     C25883   8.474   5.458   4.039  0.5251 -0.6686 -0.5063
  933MOL0     C25884   8.492   5.489   3.899  0.4493 -1.1847  0.2918
  933MOL0     C25885   8.518   5.537   3.791 -1.0240 -0.0593  0.4209
  933MOL0     C25886   8.230   5.528   4.495 -0.3507 -0.7794  0.1277
  933MOL0     C25887   8.120   5.539   4.573 -0.7013 -0.8704 -0.3007
  933MOL0     H25888   7.832   5.680   4.980  1.0414  2.1550 -2.6614
  933MOL0     H25889   7.602   5.731   5.064  1.5322  2.2168 -0.4448
  933MOL0     H25890   7.282   5.529   4.857 -1.8493  0.2191 -1.0025
  933MOL0     H25891   7.203   5.613   4.988 -2.0277 -2.3891 -1.8451
  933MOL0     H25892   7.133   5.789   4.882  2.1762  0.5994 -0.2679
  933MOL0     H25893   7.220   5.766   4.731  2.5198  2.0465  2.1442
  933MOL0     H25894   7.100   5.523   4.729  1.4096 -0.5678  1.7398
  933MOL0     H25895   6.998   5.597   4.852  0.0429  0.2099 -0.2088
  933MOL0     H25896   6.991   5.796   4.676  0.3908 -0.5493  2.2290
  933MOL0     H25897   7.047   5.686   4.560  2.6115  2.0555  2.2140
  933MOL0     H25898   6.877   5.511   4.612  1.4095  0.4957  0.4327
  933MOL0     H25899   6.787   5.615   4.714 -6.0047  1.0299 -3.7081
  933MOL0     H25900   6.788   5.782   4.544 -1.1027 -0.2370 -0.8910
  933MOL0     H25901   6.839   5.653   4.425  3.1161  3.5751  1.8694
  933MOL0     H25902   6.640   5.522   4.494 -0.0267  0.0871  1.7172
  933MOL0     H25903   6.602   5.649   4.610  2.2178  5.3898  0.0689
  933MOL0     H25904   6.601   5.669   4.303  1.8561 -3.2297  2.1797
  933MOL0     H25905   6.622   5.826   4.404  1.1698  0.8444 -0.4950
  933MOL0     H25906   6.372   5.527   4.403  0.2610 -1.3384  2.1686
  933MOL0     H25907   6.067   5.618   4.535 -0.5090 -2.2260 -0.5131
  933MOL0     H25908   6.039   5.717   4.382  1.7161  1.3723  1.1269
  933MOL0     H25909   6.152   5.507   4.265  0.0438 -1.8033 -1.4491
  933MOL0     H25910   5.981   5.501   4.306  0.8987 -3.8279  0.4802
  933MOL0     H25911   6.018   5.377   4.494 -1.0069  2.4333 -0.5024
  933MOL0     H25912   6.197   5.372   4.451  0.7907 -0.7935 -4.3860
  933MOL0     H25913   6.161   5.234   4.254  0.2133  1.1694  0.4256
  933MOL0     H25914   5.985   5.256   4.263 -1.4547  2.7081  0.6851
  933MOL0     H25915   6.067   4.967   4.577  0.0499  0.4252 -2.2505
  933MOL0     H25916   6.010   4.858   4.766 -0.8847 -1.3099  1.9682
  933MOL0     H25917   5.839   4.858   4.824 -2.4339 -3.2379  0.4557
  933MOL0     H25918   5.890   4.734   4.715 -4.0809  1.9084 -3.4557
  933MOL0     H25919   5.250   4.997   4.617  2.0320 -0.4883  0.5806
  933MOL0     H25920   5.061   4.875   4.733  1.0830  2.4963  0.2856
  933MOL0     H25921   5.020   4.468   4.653 -1.3101 -2.4541 -0.1399
  933MOL0     H25922   5.094   4.441   4.810  1.2095  1.7596 -0.4761
  933MOL0     H25923   4.877   4.499   4.928  0.3445  1.4284 -0.4361
  933MOL0     H25924   4.803   4.554   4.777 -2.1335 -0.6267  2.3644
  933MOL0     H25925   4.875   4.255   4.831 -4.0752 -4.7435 -1.6371
  933MOL0     H25926   4.792   4.324   4.696 -4.5256 -0.3893  0.8591
  933MOL0     H25927   4.684   4.313   4.981 -0.9516  1.8871  1.5785
  933MOL0     H25928   4.622   4.431   4.859  0.5449  1.0253  1.1400
  933MOL0     H25929   4.643   4.123   4.828 -1.0352 -0.6564  1.3170
  933MOL0     H25930   4.554   4.240   4.720 -2.5664 -0.2906  0.6130
  933MOL0     H25931   4.494   4.213   5.006  2.3177 -0.4563 -1.3506
  933MOL0     H25932   4.385   4.252   4.878 -0.0771 -1.2887 -3.3004
  933MOL0     H25933   4.346   4.008   4.977 -2.4574  0.4155 -3.4220
  933MOL0     H25934   4.522   3.985   4.921  1.8474  2.0629 -0.6963
  933MOL0     H25935   4.419   4.065   4.688  0.7443  0.4431  0.4216
  933MOL0     H25936   4.255   4.032   4.767 -0.4161 -3.2853  0.7956
  933MOL0     H25937   5.289   4.521   4.754 -0.5457  0.7333  1.9375
  933MOL0     H25938   5.482   4.642   4.680  0.2132  0.5088 -1.4232
  933MOL0     H25939   5.617   5.061   4.421  0.0818 -1.8516 -0.5408
  933MOL0     H25940   5.808   5.178   4.330 -1.4388  0.1943 -0.0387
  933MOL0     H25941   7.438   5.575   4.684  1.4112 -1.8321  0.2873
  933MOL0     H25942   7.660   5.520   4.620  1.1412  0.7399 -0.0318
  933MOL0     H25943   8.243   5.442   4.871  2.9170  1.4708  1.3555
  933MOL0     H25944   8.443   5.383   4.707  0.8282  1.6236  1.4453
  933MOL0     H25945   8.370   5.463   4.278 -0.8072  3.1677  1.3413
  933MOL0     H25946   8.456   5.595   4.334 -0.6362  0.1938 -2.3548
  933MOL0     H25947   8.583   5.328   4.249 -0.8078  0.4962  1.2449
  933MOL0     H25948   8.676   5.456   4.321  0.7510 -2.6654  0.3557
  933MOL0     H25949   8.681   5.491   4.069 -0.9297  1.0557 -1.2942
  933MOL0     H25950   8.586   5.619   4.137 -2.2402 -0.0102 -2.4066
  933MOL0     H25951   8.382   5.501   4.081 -0.1842  0.1970 -2.7619
  933MOL0     H25952   8.473   5.349   4.048 -1.3366 -0.5891  0.6443
  933MOL0     H25953   8.513   5.588   3.697 -0.3208  2.8963  1.8958
  933MOL0     H25954   8.224   5.565   4.393  3.2241 -1.5105 -0.5001
  933MOL0     H25955   8.033   5.578   4.522  1.0877  0.7293 -2.2747
  934MOL0     O25956   9.298   0.391   4.184  0.0607 -0.8886  0.5408
  934MOL0     C25957   9.318   0.275   4.158  0.7290 -0.1433  0.3414
  934MOL0     O25958   9.218   0.177   4.160 -0.6120 -0.5303  0.2336
  934MOL0     C25959   9.099   0.199   4.220  0.1021  0.0733  0.2019
  934MOL0     C25960   9.032   0.324   4.211  0.0668 -0.5339  0.5203
  934MOL0     C25961   8.895   0.333   4.261 -0.4039 -0.3195  0.4236
  934MOL0     C25962   8.820   0.221   4.306  0.2564  0.8635 -0.5484
  934MOL0     O25963   8.690   0.219   4.353 -0.1189 -0.7216  0.5742
  934MOL0     C25964   8.603   0.283   4.260  0.4063 -0.8568 -0.0281
  934MOL0     C25965   8.460   0.256   4.282  0.2257  1.1004  0.3071
  934MOL0     C25966   8.408   0.302   4.420  0.1569 -0.3383 -0.3358
  934MOL0     C25967   8.259   0.257   4.437 -0.2491 -0.0840  0.2713
  934MOL0     C25968   8.162   0.370   4.434 -0.2139  0.8157  0.0572
  934MOL0     C25969   8.181   0.476   4.542 -0.0884  0.3693 -0.7128
  934MOL0     C25970   8.064   0.563   4.531  0.2353  0.5273  0.9311
  934MOL0     C25971   8.065   0.686   4.618  0.3540 -0.0523  0.5005
  934MOL0     N25972   7.938   0.763   4.616  1.0772  0.3517 -0.4652
  934MOL0     C25973   7.811   0.730   4.669  0.2739  0.1996  0.2141
  934MOL0     C25974   7.714   0.813   4.614  0.0439 -0.5912  0.1355
  934MOL0     C25975   7.565   0.804   4.642  0.0898  0.9343 -0.0145
  934MOL0     C25976   7.496   0.728   4.531 -1.2318  0.2262  0.5316
  934MOL0     C25977   7.455   0.815   4.416  0.0740  1.1743  0.9563
  934MOL0     C25978   7.360   0.747   4.323  0.3552  0.1470 -0.1531
  934MOL0     O25979   7.292   0.851   4.244 -0.1652 -0.2706 -0.6106
  934MOL0     C25980   7.175   0.906   4.298 -0.1280 -0.8083 -0.2616
  934MOL0     C25981   7.134   0.911   4.436 -0.4885  0.3125 -0.6773
  934MOL0     C25982   7.012   0.964   4.482  0.1179  0.2664 -0.1232
  934MOL0     C25983   6.972   0.950   4.633  0.3614 -0.3449 -0.1979
  934MOL0     C25984   6.926   1.015   4.383 -0.2850 -0.4096 -1.0153
  934MOL0     C25985   6.790   1.069   4.403 -0.1619 -0.1823 -1.3839
  934MOL0     O25986   6.694   0.975   4.400  0.4867 -0.2072  0.0085
  934MOL0     C25987   6.571   1.010   4.435  0.7020 -0.2495 -0.3133
  934MOL0     C25988   6.542   0.968   4.565  0.9162  1.2022  0.4542
  934MOL0     C25989   6.412   0.984   4.612  0.1803  0.3102  0.9093
  934MOL0     C25990   6.312   1.018   4.519 -0.5417 -0.5556  0.0204
  934MOL0     O25991   6.176   1.028   4.548  0.6757 -0.4352  0.3602
  934MOL0     C25992   6.133   1.048   4.683 -0.5689  0.0146 -0.6031
  934MOL0     C25993   5.983   1.081   4.704  0.3805 -0.4103  0.3034
  934MOL0     C25994   5.952   1.090   4.860 -1.1404  0.5082  0.3994
  934MOL0     C25995   5.830   1.173   4.886 -0.6462 -0.5871 -0.4516
  934MOL0     C25996   5.826   1.196   5.038 -0.0891 -0.5233 -0.2635
  934MOL0     C25997   5.722   1.297   5.089  0.3948 -0.3759  0.4253
  934MOL0     C25998   5.577   1.257   5.076  1.1146 -0.0265 -0.5733
  934MOL0     C25999   5.491   1.367   5.136  0.0767  0.3920 -0.2255
  934MOL0    Cl26000   5.496   1.509   5.034 -0.0783 -0.3018  0.0091
  934MOL0     C26001   6.347   1.059   4.392 -0.4243 -0.1630 -0.0288
  934MOL0     C26002   6.481   1.063   4.349 -0.5872 -0.4252  0.2901
  934MOL0     O26003   6.776   1.186   4.438  0.2962 -0.3689  0.1400
  934MOL0     C26004   6.966   1.024   4.252 -0.3258  1.0767 -0.8770
  934MOL0     C26005   7.088   0.977   4.208 -0.3841  1.0661 -0.4039
  934MOL0     N26006   7.782   0.907   4.538  0.1227  0.4719  0.1366
  934MOL0     N26007   7.907   0.875   4.539 -0.3822  0.0743  0.4296
  934MOL0     C26008   8.893   0.107   4.320 -0.0099 -0.3054  0.7388
  934MOL0     C26009   9.023   0.088   4.270 -0.7070 -0.2749 -0.9594
  934MOL0     C26010   9.464   0.228   4.139  0.8809 -1.2069 -1.0789
  934MOL0     C26011   9.503   0.092   4.134 -1.0260 -0.2759 -0.9172
  934MOL0     C26012   9.637   0.050   4.125 -0.2955  0.1399 -0.0781
  934MOL0     C26013   9.740   0.140   4.131 -0.4090 -1.0024  0.4829
  934MOL0     O26014   9.867   0.101   4.151 -0.4973  0.7625 -0.8310
  934MOL0     C26015   9.904  -0.026   4.197 -0.6465  1.0803 -0.1066
  934MOL0     C26016   9.935  -0.111   4.070  0.3031 -0.5872  0.1573
  934MOL0     C26017  10.046  -0.043   3.984 -0.1651 -1.4050  0.3683
  934MOL0     C26018  10.185  -0.016   4.062 -0.5021  0.0598  0.6250
  934MOL0     C26019  10.293   0.011   3.971  0.2243  0.0237 -0.7603
  934MOL0     C26020  10.389   0.027   3.910  0.4574 -0.6474 -0.6627
  934MOL0     C26021   9.706   0.273   4.115  0.6264  0.6870 -0.2004
  934MOL0     C26022   9.572   0.323   4.127 -0.4283  0.3233 -0.6991
  934MOL0     H26023   9.072   0.419   4.176  2.9075 -1.4706  1.0014
  934MOL0     H26024   8.850   0.427   4.232  3.2940  1.2118 -1.0358
  934MOL0     H26025   8.618   0.392   4.265  1.4305 -0.9942  0.1059
  934MOL0     H26026   8.629   0.239   4.163  0.2610 -0.2001 -0.3778
  934MOL0     H26027   8.407   0.310   4.203 -0.7622  0.8967  0.8129
  934MOL0     H26028   8.444   0.149   4.274 -0.2526  1.3137 -2.4955
  934MOL0     H26029   8.458   0.247   4.499 -3.5510 -0.8129  1.9237
  934MOL0     H26030   8.423   0.410   4.430 -0.0605 -0.2095 -1.2552
  934MOL0     H26031   8.223   0.183   4.366 -1.7983 -1.6585  2.5666
  934MOL0     H26032   8.247   0.205   4.532 -3.2820  0.5076  0.3138
  934MOL0     H26033   8.168   0.426   4.340  2.7182  0.0911 -0.2588
  934MOL0     H26034   8.063   0.327   4.452  0.9470 -1.3745  1.6151
  934MOL0     H26035   8.177   0.421   4.637 -0.7031  0.1514 -0.8630
  934MOL0     H26036   8.277   0.529   4.544  0.6488 -0.9363  0.6762
  934MOL0     H26037   8.055   0.605   4.430 -0.0982  2.0466  1.5537
  934MOL0     H26038   7.971   0.510   4.550  1.0912 -0.7315  1.7169
  934MOL0     H26039   8.158   0.740   4.599  0.9679 -1.3660 -0.3136
  934MOL0     H26040   8.073   0.648   4.721 -1.9279 -2.2178 -0.0095
  934MOL0     H26041   7.796   0.637   4.724  2.8347 -1.7239 -2.0589
  934MOL0     H26042   7.554   0.761   4.741 -2.5401 -1.7748 -1.3384
  934MOL0     H26043   7.523   0.905   4.649 -0.1717  0.7474  1.3294
  934MOL0     H26044   7.406   0.681   4.572 -2.9813  3.3777  0.6329
  934MOL0     H26045   7.551   0.639   4.500 -0.4861  0.4831  1.1119
  934MOL0     H26046   7.544   0.844   4.359 -1.4502  1.7487 -1.2326
  934MOL0     H26047   7.408   0.909   4.445 -2.7138  0.7188 -1.6035
  934MOL0     H26048   7.292   0.688   4.384  0.4342 -0.4674 -0.6503
  934MOL0     H26049   7.428   0.688   4.261  2.9337 -0.0873  2.6313
  934MOL0     H26050   7.203   0.876   4.511 -1.4002  1.8109  0.9601
  934MOL0     H26051   7.059   0.906   4.682  0.7977 -0.2651 -0.8858
  934MOL0     H26052   6.954   1.044   4.686  2.2193  0.1357 -0.3711
  934MOL0     H26053   6.890   0.877   4.635  1.4445 -1.5927  0.2820
  934MOL0     H26054   6.622   0.935   4.631  1.5683  1.0518 -0.3931
  934MOL0     H26055   6.394   0.970   4.718 -3.2125  1.8361  0.6672
  934MOL0     H26056   6.161   0.957   4.738  1.2632  0.4222 -0.8205
  934MOL0     H26057   6.196   1.131   4.716  0.3343 -1.0831  0.5717
  934MOL0     H26058   5.963   1.176   4.653 -1.2650 -0.9366 -0.0696
  934MOL0     H26059   5.921   1.004   4.659  0.5488 -0.7977  0.7259
  934MOL0     H26060   6.040   1.139   4.902  0.5900  1.1022 -3.5405
  934MOL0     H26061   5.941   0.992   4.908 -0.0666 -0.5031 -1.3369
  934MOL0     H26062   5.836   1.269   4.833 -1.8278 -0.9741 -1.3316
  934MOL0     H26063   5.735   1.134   4.849 -1.4402  2.7638 -2.3916
  934MOL0     H26064   5.925   1.228   5.072 -0.5962  1.5937 -0.6128
  934MOL0     H26065   5.805   1.103   5.092 -0.3158  0.7428  1.9508
  934MOL0     H26066   5.737   1.324   5.194 -0.7133 -0.9995  0.7618
  934MOL0     H26067   5.739   1.392   5.037 -0.6208 -0.7882 -0.6883
  934MOL0     H26068   5.562   1.164   5.132  1.4763  0.7556  0.8480
  934MOL0     H26069   5.565   1.238   4.969  4.4772  1.4848 -1.3338
  934MOL0     H26070   5.526   1.397   5.235 -1.1294  0.0258  0.3333
  934MOL0     H26071   5.385   1.338   5.139  0.0152  0.3069 -2.0007
  934MOL0     H26072   6.272   1.100   4.325  0.0928  0.1793 -0.4063
  934MOL0     H26073   6.507   1.109   4.255 -2.7463  2.0726  0.7876
  934MOL0     H26074   6.893   1.060   4.181 -0.5315  2.6954  0.1268
  934MOL0     H26075   7.123   0.967   4.106 -0.2479  0.0502 -0.2622
  934MOL0     H26076   8.869   0.019   4.380  3.5219 -0.9120  1.4969
  934MOL0     H26077   9.066  -0.012   4.276  2.0477  0.8911  1.0589
  934MOL0     H26078   9.426   0.016   4.147 -1.2345  0.1520  0.5153
  934MOL0     H26079   9.646  -0.058   4.119 -0.7182  0.1352 -4.6082
  934MOL0     H26080  10.001  -0.030   4.247  0.2539  1.9342 -1.7270
  934MOL0     H26081   9.836  -0.075   4.269  0.8703 -0.5814  0.2680
  934MOL0     H26082   9.838  -0.110   4.018  0.7398  2.5599 -0.8095
  934MOL0     H26083   9.969  -0.210   4.099 -1.9460 -0.6819  2.8822
  934MOL0     H26084  10.011   0.049   3.935  0.8822 -1.4981 -0.5932
  934MOL0     H26085  10.054  -0.112   3.900  1.6780 -0.3231 -0.3899
  934MOL0     H26086  10.211  -0.100   4.127 -1.4200 -0.1237  0.7627
  934MOL0     H26087  10.190   0.071   4.128  1.3452 -0.4761  1.2576
  934MOL0     H26088  10.477   0.054   3.855  0.1485  0.5050 -0.6253
  934MOL0     H26089   9.787   0.346   4.110  2.3629 -1.1557 -0.4624
  934MOL0     H26090   9.551   0.429   4.126  2.6793  1.0847  1.7413
  935MOL0     O26091   3.426   0.643   7.239  0.4393 -0.2348 -0.7643
  935MOL0     C26092   3.429   0.767   7.239  0.6990  0.2629 -0.3739
  935MOL0     O26093   3.363   0.839   7.337 -0.2786 -0.3165 -0.1024
  935MOL0     C26094   3.286   0.788   7.442  1.0877  0.6566  0.4523
  935MOL0     C26095   3.247   0.879   7.546  0.4643 -0.3362 -0.7349
  935MOL0     C26096   3.141   0.853   7.639  0.4166  0.2108  0.5568
  935MOL0     C26097   3.056   0.748   7.621 -1.3152 -0.2701  0.8291
  935MOL0     O26098   2.948   0.747   7.693 -0.4235 -0.7244 -0.0843
  935MOL0     C26099   2.832   0.714   7.628 -0.0403 -0.1009  0.0496
  935MOL0     C26100   2.702   0.757   7.705  0.7335  0.3756 -0.0748
  935MOL0     C26101   2.661   0.900   7.706  0.6302  0.0256  0.4632
  935MOL0     C26102   2.547   0.920   7.798  0.6278 -1.0117  1.0077
  935MOL0     C26103   2.526   1.079   7.842 -0.1971  0.3352 -0.6415
  935MOL0     C26104   2.395   1.095   7.938 -0.7045 -0.6289 -0.2324
  935MOL0     C26105   2.387   1.244   7.984  0.1504 -0.1013 -0.2015
  935MOL0     C26106   2.285   1.278   8.094  0.1245 -0.5977  0.8689
  935MOL0     N26107   2.157   1.276   8.024  0.2652  0.7155 -0.2448
  935MOL0     C26108   2.099   1.383   7.964 -0.7415  0.2219 -0.1364
  935MOL0     C26109   1.965   1.366   7.966  1.5226  0.7148  0.1764
  935MOL0     C26110   1.852   1.446   7.908  0.8615 -0.1541  0.5943
  935MOL0     C26111   1.727   1.452   8.002 -0.2115 -0.8965  1.2870
  935MOL0     C26112   1.627   1.341   7.971  0.4347  0.5115 -0.3025
  935MOL0     C26113   1.514   1.352   8.069  0.0161  0.0006 -0.1258
  935MOL0     O26114   1.410   1.253   8.046 -0.2838  0.0166 -0.5220
  935MOL0     C26115   1.312   1.262   7.957 -0.5280  0.7535 -0.1510
  935MOL0     C26116   1.219   1.161   7.940  0.6752  0.7130 -0.1854
  935MOL0     C26117   1.120   1.152   7.845  0.1151 -0.2292 -0.4033
  935MOL0     C26118   1.039   1.025   7.839 -0.0269  0.0259  0.6340
  935MOL0     C26119   1.096   1.265   7.757  0.5616  0.2018 -0.1000
  935MOL0     C26120   0.972   1.280   7.661  0.1451 -0.3743  0.3309
  935MOL0     O26121   0.870   1.198   7.682  0.4002 -0.1964 -0.0805
  935MOL0     C26122   0.737   1.225   7.662 -0.3255 -0.0327 -0.2621
  935MOL0     C26123   0.672   1.348   7.655 -0.8401 -0.1351  0.6670
  935MOL0     C26124   0.537   1.354   7.633 -0.4035 -0.5846  0.5589
  935MOL0     C26125   0.459   1.242   7.609 -0.0856  0.1305 -0.6003
  935MOL0     O26126   0.330   1.236   7.560  0.3077 -0.0881  1.0018
  935MOL0     C26127   0.243   1.347   7.567  0.7991 -0.0342  0.8988
  935MOL0     C26128   0.107   1.303   7.491  0.3976  0.7049  0.3539
  935MOL0     C26129   0.132   1.312   7.338 -0.0457  0.1692 -0.4874
  935MOL0     C26130   0.006   1.293   7.247 -0.5806 -0.2641 -0.0985
  935MOL0     C26131   0.034   1.296   7.096  0.0354  0.0084  0.7936
  935MOL0     C26132  -0.099   1.268   7.014 -0.3407  1.2420  0.0236
  935MOL0     C26133  -0.077   1.257   6.863  0.4279  0.4049 -0.2194
  935MOL0     C26134  -0.216   1.256   6.802 -0.4799  0.2110 -1.0047
  935MOL0    Cl26135  -0.203   1.237   6.631  0.1543  0.6714 -0.5080
  935MOL0     C26136   0.525   1.119   7.611 -0.3475 -0.9181  0.0844
  935MOL0     C26137   0.661   1.109   7.642 -0.6332 -0.3671  0.4439
  935MOL0     O26138   0.972   1.377   7.584  0.2567  0.2196 -0.2192
  935MOL0     C26139   1.202   1.367   7.755  0.5681 -0.4000 -0.6115
  935MOL0     C26140   1.304   1.369   7.859 -0.5372 -0.3630  0.5361
  935MOL0     N26141   1.950   1.234   8.012 -0.2434  0.2324  0.5008
  935MOL0     N26142   2.060   1.181   8.038 -0.6700  0.5796 -0.1202
  935MOL0     C26143   3.089   0.655   7.516  0.0331 -1.0131 -0.4891
  935MOL0     C26144   3.208   0.669   7.435  0.6491 -0.1810 -0.1620
  935MOL0     C26145   3.492   0.842   7.128  0.8764 -0.7890  0.2306
  935MOL0     C26146   3.446   0.976   7.109 -0.0052  0.0845  0.4070
  935MOL0     C26147   3.496   1.033   6.990 -0.9582 -0.0086 -1.0213
  935MOL0     C26148   3.584   0.965   6.898 -0.7048  0.2146 -0.9760
  935MOL0     O26149   3.600   1.025   6.777 -0.0755  0.3875 -0.0930
  935MOL0     C26150   3.691   0.977   6.682 -0.0895 -0.4565 -1.7974
  935MOL0     C26151   3.696   1.058   6.551  0.5140  0.3408 -0.3090
  935MOL0     C26152   3.780   1.000   6.447  0.6842  0.0270  0.6651
  935MOL0     C26153   3.857   1.091   6.350 -0.7399 -1.0505  0.3075
  935MOL0     C26154   3.762   1.149   6.257  0.1593  0.6059  0.0546
  935MOL0     C26155   3.674   1.199   6.193  0.7893  0.9012 -0.5562
  935MOL0     C26156   3.645   0.849   6.938 -0.6468 -0.0583  0.7952
  935MOL0     C26157   3.588   0.784   7.046 -0.9498  0.3688 -0.2035
  935MOL0     H26158   3.308   0.967   7.564  2.5150 -1.6132 -1.0871
  935MOL0     H26159   3.120   0.916   7.725  0.4579 -2.0495  2.3276
  935MOL0     H26160   2.827   0.762   7.530  1.1987 -0.0850 -0.0234
  935MOL0     H26161   2.819   0.606   7.623 -1.9825 -0.1273  2.9734
  935MOL0     H26162   2.625   0.689   7.667  2.1189 -0.2835 -1.8072
  935MOL0     H26163   2.732   0.722   7.805  1.3255 -0.0254 -0.3874
  935MOL0     H26164   2.756   0.946   7.735  1.2028 -1.1292  0.4714
  935MOL0     H26165   2.628   0.938   7.609  4.5135  0.7762 -0.7277
  935MOL0     H26166   2.456   0.875   7.758  0.7923 -0.6064  0.1653
  935MOL0     H26167   2.575   0.857   7.884  1.2214 -2.8474 -0.4611
  935MOL0     H26168   2.615   1.108   7.897 -0.5283 -0.7527  0.5035
  935MOL0     H26169   2.530   1.136   7.749 -0.2453 -0.1977 -0.9790
  935MOL0     H26170   2.311   1.052   7.884 -0.7714 -0.7530 -0.0317
  935MOL0     H26171   2.417   1.043   8.032 -3.8158 -3.2050 -0.7698
  935MOL0     H26172   2.487   1.285   7.996  0.6294 -1.0158 -0.9114
  935MOL0     H26173   2.352   1.302   7.898  0.6237 -1.1599 -1.1461
  935MOL0     H26174   2.300   1.380   8.131 -2.1711  1.4175 -3.0870
  935MOL0     H26175   2.283   1.204   8.175  0.7956 -2.4445 -0.7015
  935MOL0     H26176   2.151   1.467   7.919 -0.5313 -0.2755 -0.8483
  935MOL0     H26177   1.890   1.546   7.885 -1.8778  0.6215 -0.9848
  935MOL0     H26178   1.816   1.412   7.811 -1.5935  0.4870  1.1955
  935MOL0     H26179   1.692   1.554   7.986 -0.3974 -1.1338  0.0381
  935MOL0     H26180   1.759   1.465   8.106  0.0169  1.4823  0.9677
  935MOL0     H26181   1.676   1.243   7.982 -0.9318 -0.3905 -1.7718
  935MOL0     H26182   1.591   1.355   7.869  0.6154 -0.3496 -0.4984
  935MOL0     H26183   1.485   1.458   8.069  1.1682  0.5439  4.2193
  935MOL0     H26184   1.560   1.336   8.167 -2.2744 -0.2670  0.9628
  935MOL0     H26185   1.235   1.084   8.015 -2.6711  1.0309  1.0159
  935MOL0     H26186   1.070   0.960   7.757  2.5878  1.8842  0.0109
  935MOL0     H26187   1.059   0.966   7.929 -2.2139 -1.9091 -0.0327
  935MOL0     H26188   0.930   1.031   7.848  0.0492  0.7238  1.1167
  935MOL0     H26189   0.722   1.444   7.668 -2.2036  0.7397 -0.3464
  935MOL0     H26190   0.504   1.456   7.622  3.4001  0.5989 -1.9859
  935MOL0     H26191   0.223   1.354   7.674 -0.0975  0.3251  0.7172
  935MOL0     H26192   0.271   1.433   7.506 -0.8210 -2.2493 -3.3781
  935MOL0     H26193   0.054   1.208   7.508 -2.1572  1.2592 -3.3142
  935MOL0     H26194   0.027   1.373   7.515 -1.8242 -1.0124 -1.5631
  935MOL0     H26195   0.202   1.232   7.313 -1.8247 -1.5643 -0.2858
  935MOL0     H26196   0.182   1.405   7.310  1.3244 -0.0875  0.9628
  935MOL0     H26197  -0.026   1.193   7.275  2.1923 -1.0638  0.5691
  935MOL0     H26198  -0.072   1.368   7.267 -0.4857 -0.5928  1.6837
  935MOL0     H26199   0.095   1.210   7.065 -0.7513  0.4560 -2.3847
  935MOL0     H26200   0.084   1.391   7.073  0.9167 -0.6478 -0.0875
  935MOL0     H26201  -0.143   1.174   7.048 -0.3841  1.3110  0.1622
  935MOL0     H26202  -0.170   1.350   7.030 -1.9792  0.7376 -3.6855
  935MOL0     H26203  -0.017   1.168   6.840 -0.6844 -0.6891  0.9229
  935MOL0     H26204  -0.033   1.348   6.823 -1.7003  1.9961  0.8567
  935MOL0     H26205  -0.267   1.349   6.830  1.2463  1.4098 -1.6915
  935MOL0     H26206  -0.282   1.178   6.839  0.5760 -1.2579 -2.0850
  935MOL0     H26207   0.477   1.026   7.580 -3.1410 -0.0213  1.4358
  935MOL0     H26208   0.696   1.009   7.620 -2.7229 -1.0177 -0.1930
  935MOL0     H26209   1.198   1.449   7.684 -4.7327  0.5211  0.3474
  935MOL0     H26210   1.370   1.454   7.844 -1.2528 -0.3845 -4.6185
  935MOL0     H26211   3.027   0.566   7.504  1.0186 -1.7685 -0.1221
  935MOL0     H26212   3.221   0.598   7.354  0.4912 -0.0354 -0.3144
  935MOL0     H26213   3.396   1.041   7.179  2.3397  2.9901 -0.4186
  935MOL0     H26214   3.470   1.135   6.963  2.3641  0.3601 -3.5352
  935MOL0     H26215   3.790   0.979   6.729  0.3851  1.3873 -2.7913
  935MOL0     H26216   3.663   0.873   6.661 -0.3364 -0.3208 -2.1406
  935MOL0     H26217   3.741   1.155   6.574  3.5518 -1.0017 -0.0720
  935MOL0     H26218   3.592   1.062   6.518  0.3772  0.4073  0.1378
  935MOL0     H26219   3.730   0.926   6.383 -1.9799  0.7547  1.7557
  935MOL0     H26220   3.860   0.945   6.498  1.1322  0.0754  0.0329
  935MOL0     H26221   3.928   1.017   6.312 -0.2146 -0.4090  0.0467
  935MOL0     H26222   3.904   1.172   6.405 -0.5974  0.1556 -1.5288
  935MOL0     H26223   3.590   1.233   6.136 -0.8089  0.0160  1.1808
  935MOL0     H26224   3.721   0.803   6.876 -0.9197  0.4385  0.0768
  935MOL0     H26225   3.616   0.683   7.075  0.6224  0.7790 -0.1753
  936MOL0     O26226   2.370   9.158   7.042  0.4918 -0.8936 -0.3499
  936MOL0     C26227   2.284   9.110   6.960  0.4806  0.2032 -0.1155
  936MOL0     O26228   2.279   8.983   6.908 -0.2566 -0.0593  0.7417
  936MOL0     C26229   2.346   8.877   6.972 -0.7479  0.2031  0.0483
  936MOL0     C26230   2.313   8.834   7.102  0.4959 -0.5358 -0.1962
  936MOL0     C26231   2.376   8.733   7.157 -1.6290  0.0095 -0.1904
  936MOL0     C26232   2.484   8.675   7.092  0.1906 -0.4770 -0.7743
  936MOL0     O26233   2.554   8.585   7.163 -0.4220 -0.2198 -0.1909
  936MOL0     C26234   2.684   8.641   7.201  0.4539  0.7919  0.0463
  936MOL0     C26235   2.750   8.554   7.305 -0.4344 -0.5691 -0.2384
  936MOL0     C26236   2.684   8.580   7.444 -0.4611  0.9436 -0.8661
  936MOL0     C26237   2.735   8.482   7.546  0.0912 -0.1165 -1.1036
  936MOL0     C26238   2.689   8.340   7.522 -0.7031  0.3960  0.9146
  936MOL0     C26239   2.546   8.317   7.490  0.7941 -0.2534  0.6062
  936MOL0     C26240   2.489   8.177   7.517  0.2311  0.1958  0.8206
  936MOL0     C26241   2.349   8.160   7.463 -0.7645 -0.1468 -0.4401
  936MOL0     N26242   2.300   8.023   7.472  0.5204  1.1138  0.5739
  936MOL0     C26243   2.249   7.955   7.579 -0.2051  0.3641  0.4406
  936MOL0     C26244   2.209   7.834   7.528 -0.3728 -0.7628 -0.6809
  936MOL0     C26245   2.144   7.729   7.602  1.1332 -0.2080 -1.0275
  936MOL0     C26246   1.999   7.705   7.545 -0.4236  0.1470  0.6848
  936MOL0     C26247   1.912   7.599   7.617  0.0662 -1.4399 -0.7568
  936MOL0     C26248   1.937   7.456   7.577  0.5176 -0.1459  0.2865
  936MOL0     O26249   2.046   7.402   7.647 -0.0388  0.5049 -0.0985
  936MOL0     C26250   2.052   7.270   7.644  0.2148  0.2739 -0.1940
  936MOL0     C26251   2.093   7.213   7.522 -0.7198  0.0341 -0.3987
  936MOL0     C26252   2.074   7.081   7.494 -0.1322  0.1320  0.5491
  936MOL0     C26253   2.085   7.044   7.349 -0.1681 -0.5493  0.2100
  936MOL0     C26254   2.036   6.988   7.591 -0.1608 -0.4750  0.2082
  936MOL0     C26255   2.044   6.844   7.581  0.5342 -0.3980  0.8683
  936MOL0     O26256   2.105   6.780   7.469 -0.2034  0.6608 -0.7860
  936MOL0     C26257   2.102   6.642   7.484 -1.0282 -0.9784  0.4477
  936MOL0     C26258   2.196   6.572   7.572  1.1287 -0.3812 -0.2924
  936MOL0     C26259   2.215   6.433   7.559 -0.1643  0.1334  0.6065
  936MOL0     C26260   2.158   6.361   7.459 -0.1801 -0.3436 -0.0529
  936MOL0     O26261   2.194   6.226   7.463 -0.3810 -0.4399 -0.0781
  936MOL0     C26262   2.158   6.147   7.344  0.0328 -0.8584 -0.0597
  936MOL0     C26263   2.161   6.002   7.379  0.4211 -0.4702  0.0743
  936MOL0     C26264   2.037   5.959   7.454 -0.1536  0.9302 -0.2983
  936MOL0     C26265   2.068   5.825   7.519 -0.6122  0.3562  0.0385
  936MOL0     C26266   1.952   5.782   7.598 -0.3076  0.2633 -0.3428
  936MOL0     C26267   1.944   5.627   7.618  0.1227 -0.2212  0.8126
  936MOL0     C26268   1.809   5.576   7.667  0.0064 -0.4511  0.6427
  936MOL0     C26269   1.816   5.431   7.711  0.0158  0.7532  0.1192
  936MOL0    Cl26270   1.888   5.344   7.568  0.2322  0.3887  0.1243
  936MOL0     C26271   2.080   6.425   7.362 -0.6026  0.0017 -0.6947
  936MOL0     C26272   2.049   6.566   7.380  0.4046  0.7364  0.5117
  936MOL0     O26273   1.999   6.789   7.676  0.2566  0.5575 -0.0554
  936MOL0     C26274   2.023   7.039   7.722  1.5235  0.5830 -0.4737
  936MOL0     C26275   2.023   7.183   7.750 -0.0702 -0.3530  0.0054
  936MOL0     N26276   2.236   7.825   7.387  0.1057  0.1907 -0.0561
  936MOL0     N26277   2.287   7.947   7.356 -0.2211 -0.0984  0.4620
  936MOL0     C26278   2.523   8.715   6.965  0.2138 -0.4457  0.9322
  936MOL0     C26279   2.449   8.818   6.901 -0.3265  0.0816  0.8585
  936MOL0     C26280   2.167   9.207   6.913  0.1388  0.8962  0.2223
  936MOL0     C26281   2.042   9.158   6.867  0.0345  0.0356 -0.8372
  936MOL0     C26282   1.945   9.246   6.799 -0.0867 -1.0349  0.1382
  936MOL0     C26283   1.984   9.377   6.773  0.3207 -1.3045 -0.8313
  936MOL0     O26284   1.912   9.453   6.696  0.1569  0.0991  0.5050
  936MOL0     C26285   1.858   9.571   6.752  0.8081  0.4676  0.0798
  936MOL0     C26286   1.754   9.632   6.657  0.4060  0.1437  0.1982
  936MOL0     C26287   1.820   9.665   6.519  0.2205  0.2180 -0.1363
  936MOL0     C26288   1.741   9.759   6.431 -0.1774  0.5710  0.5901
  936MOL0     C26289   1.612   9.691   6.405 -0.5591  0.3204  0.7572
  936MOL0     C26290   1.520   9.632   6.359 -0.0536 -0.5376 -1.0896
  936MOL0     C26291   2.113   9.421   6.817  0.2130 -1.3207 -0.1318
  936MOL0     C26292   2.202   9.339   6.891  0.7467  0.0247  0.6143
  936MOL0     H26293   2.235   8.872   7.168  0.2308 -3.2711  1.2146
  936MOL0     H26294   2.346   8.696   7.254  2.3661  1.1317  1.6815
  936MOL0     H26295   2.753   8.630   7.117  2.4417  1.5530  1.5261
  936MOL0     H26296   2.682   8.742   7.241 -2.9887  0.8083  0.1481
  936MOL0     H26297   2.738   8.451   7.269  0.7513 -1.7015  2.3470
  936MOL0     H26298   2.851   8.596   7.314 -0.0330 -1.8071  1.7184
  936MOL0     H26299   2.704   8.683   7.475 -0.8451  0.3834  1.3965
  936MOL0     H26300   2.575   8.583   7.429 -0.3284  2.4549 -1.8486
  936MOL0     H26301   2.845   8.488   7.543  0.0619  0.8666 -0.5183
  936MOL0     H26302   2.694   8.509   7.644 -0.2406 -1.4861 -0.8349
  936MOL0     H26303   2.762   8.290   7.457 -1.6137 -0.8355  0.8094
  936MOL0     H26304   2.696   8.299   7.623 -0.2550 -0.8588  0.4009
  936MOL0     H26305   2.484   8.384   7.550 -3.2682 -2.4102 -0.7779
  936MOL0     H26306   2.520   8.352   7.390  1.0004 -1.0448  0.2644
  936MOL0     H26307   2.548   8.100   7.467 -0.6375 -1.3665  2.1353
  936MOL0     H26308   2.482   8.157   7.624 -0.0991  0.1028  0.7818
  936MOL0     H26309   2.342   8.186   7.357 -1.0598  3.7947  0.3814
  936MOL0     H26310   2.291   8.234   7.520 -0.9690  0.1602 -1.0320
  936MOL0     H26311   2.238   7.997   7.679  3.9541  2.6508  0.2056
  936MOL0     H26312   2.206   7.640   7.598  4.0480  1.6722 -0.6313
  936MOL0     H26313   2.138   7.744   7.710  1.8283 -0.0301 -1.0136
  936MOL0     H26314   2.011   7.678   7.440  2.0776 -1.8309  1.3714
  936MOL0     H26315   1.951   7.803   7.538  0.2492  0.5703  1.6730
  936MOL0     H26316   1.810   7.631   7.590 -0.2297 -0.6029  1.1983
  936MOL0     H26317   1.911   7.607   7.726  0.9921  2.0899 -0.8764
  936MOL0     H26318   1.951   7.448   7.469  1.6020  1.8595  0.2321
  936MOL0     H26319   1.855   7.392   7.611  2.1136 -3.2444 -1.2501
  936MOL0     H26320   2.130   7.288   7.453  1.7900  0.5648  1.3498
  936MOL0     H26321   1.996   6.990   7.318 -1.9041 -0.1138  3.9021
  936MOL0     H26322   2.107   7.133   7.288  1.2747 -0.5103  0.7497
  936MOL0     H26323   2.168   6.978   7.323  1.4407  1.4346  0.0778
  936MOL0     H26324   2.243   6.623   7.656  0.9214  1.1758 -1.0827
  936MOL0     H26325   2.292   6.385   7.619  0.6803 -1.2968 -1.4947
  936MOL0     H26326   2.058   6.177   7.310  0.2307  2.8376  2.0514
  936MOL0     H26327   2.237   6.164   7.270 -0.1100  1.0503  0.1870
  936MOL0     H26328   2.166   5.947   7.284 -2.5250  2.4144 -1.9457
  936MOL0     H26329   2.259   5.983   7.425  1.4899  0.2070 -1.8193
  936MOL0     H26330   1.955   5.949   7.382 -0.4257 -0.7303  0.1851
  936MOL0     H26331   2.015   6.032   7.533  0.9466 -0.4978  1.4093
  936MOL0     H26332   2.105   5.748   7.451  2.0912  1.9608 -0.4767
  936MOL0     H26333   2.155   5.831   7.586 -0.8544 -1.2988  0.5530
  936MOL0     H26334   1.857   5.811   7.553  0.1535  0.6477 -1.0922
  936MOL0     H26335   1.956   5.831   7.696 -1.4575 -1.6564  0.7390
  936MOL0     H26336   1.959   5.594   7.515  0.0897  1.3119  0.2822
  936MOL0     H26337   2.020   5.594   7.689  0.6581  1.9280  1.3202
  936MOL0     H26338   1.741   5.578   7.581  0.3308 -1.8881  0.3347
  936MOL0     H26339   1.777   5.639   7.751  1.8548  0.4088  0.7327
  936MOL0     H26340   1.714   5.390   7.721  0.7093 -0.5671  3.0189
  936MOL0     H26341   1.857   5.420   7.812 -1.1968  0.4120  0.6084
  936MOL0     H26342   2.040   6.380   7.272 -0.5666 -0.6352 -0.3947
  936MOL0     H26343   1.990   6.620   7.305 -1.1222  0.0536  1.1698
  936MOL0     H26344   1.987   6.976   7.803 -0.6168  1.9440 -0.2830
  936MOL0     H26345   1.990   7.227   7.844  0.0563  0.1794 -0.1943
  936MOL0     H26346   2.618   8.676   6.930  1.5961  2.6442  0.8994
  936MOL0     H26347   2.459   8.853   6.799 -2.5355 -1.2661  0.1160
  936MOL0     H26348   2.014   9.055   6.887 -1.9036  0.7663  0.4771
  936MOL0     H26349   1.841   9.232   6.769  0.8943  0.3108 -4.7742
  936MOL0     H26350   1.808   9.542   6.845  1.2412  0.4840  0.3163
  936MOL0     H26351   1.930   9.651   6.769  1.6876 -0.0401 -1.0883
  936MOL0     H26352   1.718   9.725   6.701  1.1735  0.2341  0.6388
  936MOL0     H26353   1.668   9.565   6.646 -1.3232  2.3654 -0.7108
  936MOL0     H26354   1.843   9.575   6.462  2.9093  2.2275 -2.4867
  936MOL0     H26355   1.912   9.718   6.544  0.4877  0.3539 -1.3693
  936MOL0     H26356   1.792   9.791   6.339  3.0087 -0.4296  1.8437
  936MOL0     H26357   1.736   9.856   6.481  2.5381  1.5121 -0.7123
  936MOL0     H26358   1.433   9.576   6.330 -0.6249  0.2229 -0.8673
  936MOL0     H26359   2.145   9.518   6.781 -2.4135 -0.5866 -0.6397
  936MOL0     H26360   2.295   9.385   6.920 -0.6962  2.4501  1.7261
  937MOL0     O26361   8.679   7.334   2.050  1.0846 -0.8969  0.0324
  937MOL0     C26362   8.759   7.330   1.956 -0.9581  0.2727 -0.4092
  937MOL0     O26363   8.734   7.258   1.836  0.0414 -0.4378  0.1507
  937MOL0     C26364   8.618   7.186   1.811  0.1298 -0.0295  0.3299
  937MOL0     C26365   8.535   7.238   1.711 -0.1338  0.3591 -0.1731
  937MOL0     C26366   8.411   7.177   1.678 -0.5941 -0.0829 -0.0531
  937MOL0     C26367   8.369   7.065   1.765  0.3061 -0.5682  1.3678
  937MOL0     O26368   8.256   6.996   1.729  0.3281  0.6814  0.4882
  937MOL0     C26369   8.187   6.917   1.819  0.1345  0.8270  0.0486
  937MOL0     C26370   8.048   6.880   1.762 -0.5761 -0.2712  0.9340
  937MOL0     C26371   7.964   7.011   1.760 -0.4993 -0.8275  0.0177
  937MOL0     C26372   7.885   7.012   1.627  0.6721 -0.0163  0.6662
  937MOL0     C26373   7.771   7.120   1.630  0.3749  0.1335 -0.0424
  937MOL0     C26374   7.715   7.143   1.481  0.5740  0.2514  0.2751
  937MOL0     C26375   7.612   7.262   1.474  0.7261 -0.2780  0.0152
  937MOL0     C26376   7.496   7.244   1.576  0.5230 -0.4392 -0.0455
  937MOL0     N26377   7.414   7.123   1.548 -0.0046  0.0787  0.0846
  937MOL0     C26378   7.272   7.118   1.545  0.2934  0.5867 -0.1605
  937MOL0     C26379   7.242   6.988   1.576  0.3989 -0.0480 -1.1472
  937MOL0     C26380   7.110   6.929   1.610  0.7195 -0.2093  0.4061
  937MOL0     C26381   7.011   7.028   1.678 -0.2269  0.3033 -0.6580
  937MOL0     C26382   6.882   6.975   1.707  0.5890 -0.0768 -0.3137
  937MOL0     C26383   6.802   7.077   1.787 -0.0531  0.8508  0.3183
  937MOL0     O26384   6.778   7.191   1.712 -0.4110  0.2661  0.2652
  937MOL0     C26385   6.681   7.272   1.776  0.8374  0.5590  0.8083
  937MOL0     C26386   6.543   7.235   1.760 -1.0707 -0.1942  0.0974
  937MOL0     C26387   6.439   7.287   1.835 -0.7302  0.7025 -0.5061
  937MOL0     C26388   6.299   7.250   1.811  0.4640 -0.4340 -0.0661
  937MOL0     C26389   6.476   7.381   1.936 -0.0389  0.3689 -0.4932
  937MOL0     C26390   6.384   7.454   2.038  0.1162 -0.1697  0.6484
  937MOL0     O26391   6.434   7.504   2.155  0.3631 -0.1999  0.0419
  937MOL0     C26392   6.356   7.590   2.231  0.1194 -0.7230  0.8910
  937MOL0     C26393   6.405   7.714   2.281 -0.3600 -0.2658  0.3263
  937MOL0     C26394   6.330   7.787   2.376  0.5602  0.8501 -0.1179
  937MOL0     C26395   6.208   7.744   2.433  0.0125 -0.6852  0.0636
  937MOL0     O26396   6.146   7.828   2.529 -0.4090 -0.2700 -0.3904
  937MOL0     C26397   6.116   7.778   2.651 -0.1969  0.9125  0.0741
  937MOL0     C26398   6.168   7.860   2.766  0.3138  1.4758 -1.2058
  937MOL0     C26399   6.125   8.002   2.746 -0.6903 -0.7517 -0.1026
  937MOL0     C26400   6.151   8.087   2.868 -0.1714 -0.9211  0.0251
  937MOL0     C26401   6.082   8.216   2.840 -1.1134  0.6513  0.1080
  937MOL0     C26402   6.108   8.333   2.935 -0.4109  0.0606  0.3225
  937MOL0     C26403   6.112   8.312   3.089  0.1702  0.4595  0.0357
  937MOL0     C26404   6.140   8.432   3.172  0.3953 -0.0978  0.2832
  937MOL0    Cl26405   5.994   8.523   3.185 -0.0592 -0.2653  0.1717
  937MOL0     C26406   6.155   7.623   2.382 -0.4847 -0.0367  0.4994
  937MOL0     C26407   6.237   7.549   2.288  0.4243 -0.2256 -0.2061
  937MOL0     O26408   6.276   7.484   1.987 -0.3354 -0.2197  0.5643
  937MOL0     C26409   6.610   7.414   1.955 -0.6327  0.2175 -0.3747
  937MOL0     C26410   6.712   7.362   1.879 -0.8068  0.1250 -0.1403
  937MOL0     N26411   7.362   6.917   1.581 -0.1536 -0.6433  0.1630
  937MOL0     N26412   7.464   6.995   1.560  0.0175 -0.0713  0.2340
  937MOL0     C26413   8.451   7.026   1.870  0.1981  0.2883  0.5298
  937MOL0     C26414   8.575   7.094   1.900  0.3484 -0.0219  0.1028
  937MOL0     C26415   8.887   7.404   1.962  0.5484 -0.6052  0.6043
  937MOL0     C26416   8.916   7.493   2.067  0.0644 -0.0267  1.3117
  937MOL0     C26417   9.040   7.551   2.070  0.3033 -0.1219 -0.4019
  937MOL0     C26418   9.132   7.542   1.963  0.2959  0.6556  0.0559
  937MOL0     O26419   9.256   7.596   1.983  0.1989  0.6924  0.1233
  937MOL0     C26420   9.355   7.565   1.880  0.5398 -0.2226  0.1494
  937MOL0     C26421   9.471   7.644   1.925  0.3231  0.7597 -0.1035
  937MOL0     C26422   9.454   7.802   1.930 -0.4194  0.2954  0.2246
  937MOL0     C26423   9.557   7.866   2.025 -0.0274 -0.2251 -0.1205
  937MOL0     C26424   9.689   7.864   1.960 -0.7022  0.2941  0.2987
  937MOL0     C26425   9.811   7.878   1.933  0.2865  0.1032  0.0934
  937MOL0     C26426   9.095   7.461   1.853 -0.0789 -0.7352  0.3984
  937MOL0     C26427   8.973   7.397   1.858 -0.3759  0.3550 -0.0185
  937MOL0     H26428   8.571   7.321   1.650  0.0898 -0.8025 -1.7011
  937MOL0     H26429   8.359   7.205   1.587 -1.2121 -0.2189  0.2555
  937MOL0     H26430   8.247   6.825   1.824 -0.5893  0.3832  0.7021
  937MOL0     H26431   8.162   6.956   1.918 -1.6648  2.0969 -0.8626
  937MOL0     H26432   8.062   6.848   1.659  0.1843  0.5837  0.7585
  937MOL0     H26433   8.008   6.799   1.824 -0.0706 -0.0476  1.5762
  937MOL0     H26434   7.888   7.013   1.839 -1.6876  0.4901 -1.1142
  937MOL0     H26435   8.026   7.100   1.771  0.5070 -1.7767  3.3952
  937MOL0     H26436   7.947   7.039   1.541 -0.8954  2.6895  0.2738
  937MOL0     H26437   7.837   6.914   1.614  0.9162  0.1810 -2.3796
  937MOL0     H26438   7.691   7.082   1.692 -1.5042  0.4732 -2.1322
  937MOL0     H26439   7.821   7.208   1.671  1.4860 -0.5864  0.2181
  937MOL0     H26440   7.795   7.148   1.407 -0.5193 -0.4738 -1.0069
  937MOL0     H26441   7.663   7.054   1.445 -0.4694  0.5136  1.0887
  937MOL0     H26442   7.654   7.360   1.498  1.2504 -0.7539  1.1467
  937MOL0     H26443   7.558   7.262   1.379 -2.5081 -3.5394  1.6183
  937MOL0     H26444   7.431   7.331   1.576  1.3651  0.3360  3.3404
  937MOL0     H26445   7.535   7.242   1.678  1.4745 -1.3835 -0.4044
  937MOL0     H26446   7.211   7.207   1.541 -3.8200 -1.6684  3.6053
  937MOL0     H26447   7.061   6.912   1.514 -1.8147 -1.0927  1.7859
  937MOL0     H26448   7.127   6.837   1.667 -0.1387  1.1344  2.9965
  937MOL0     H26449   7.007   7.123   1.623  3.3593  1.0929  0.1844
  937MOL0     H26450   7.064   7.047   1.772 -0.2224  2.3361 -1.0302
  937MOL0     H26451   6.892   6.880   1.761 -0.5976 -0.4882 -0.7817
  937MOL0     H26452   6.825   6.950   1.617 -1.3543 -2.8037  1.5070
  937MOL0     H26453   6.847   7.101   1.884 -1.7786  1.7131  0.9558
  937MOL0     H26454   6.703   7.032   1.801  0.5712 -0.7092 -0.0696
  937MOL0     H26455   6.530   7.177   1.669  3.0835 -1.7355  0.2691
  937MOL0     H26456   6.256   7.328   1.747  2.9504  0.1594 -1.1343
  937MOL0     H26457   6.289   7.152   1.765  1.6656 -1.9267  2.5865
  937MOL0     H26458   6.242   7.248   1.905 -1.0808 -2.1458 -0.9824
  937MOL0     H26459   6.499   7.736   2.231 -2.6520 -1.1223 -5.1602
  937MOL0     H26460   6.371   7.878   2.420  3.3572 -0.5194  0.3162
  937MOL0     H26461   6.007   7.768   2.654 -0.1369  0.3962  0.7727
  937MOL0     H26462   6.151   7.675   2.652 -1.6839  0.2402 -3.1261
  937MOL0     H26463   6.137   7.812   2.860  1.7106 -1.9718 -2.3496
  937MOL0     H26464   6.276   7.842   2.766  1.1805  5.3977  1.1757
  937MOL0     H26465   6.021   8.020   2.716 -0.0022  3.3930 -0.5594
  937MOL0     H26466   6.183   8.035   2.659  1.6468 -1.2847  1.1624
  937MOL0     H26467   6.103   8.040   2.955 -0.3467 -2.1705 -0.7344
  937MOL0     H26468   6.257   8.116   2.872 -0.8672  1.9111  0.2243
  937MOL0     H26469   5.976   8.191   2.851 -0.7833 -2.0782 -2.0000
  937MOL0     H26470   6.116   8.256   2.744 -1.1118  0.4907  0.0422
  937MOL0     H26471   6.200   8.387   2.911 -0.8004  0.8872  0.6627
  937MOL0     H26472   6.028   8.404   2.914 -2.3214 -2.3879 -1.2301
  937MOL0     H26473   6.195   8.250   3.125  2.1920  1.6991 -2.2343
  937MOL0     H26474   6.021   8.263   3.126  1.5020 -0.5044  2.2170
  937MOL0     H26475   6.211   8.498   3.122  2.3457 -2.6430 -0.4847
  937MOL0     H26476   6.184   8.407   3.269 -0.4399 -1.4622  0.3355
  937MOL0     H26477   6.064   7.576   2.420 -0.8636  1.1827  1.1585
  937MOL0     H26478   6.188   7.460   2.252  2.1778 -2.1923  1.9598
  937MOL0     H26479   6.648   7.478   2.035 -0.4057  2.2422 -2.0266
  937MOL0     H26480   6.817   7.392   1.877 -0.3572 -1.3178  0.4852
  937MOL0     H26481   8.419   6.941   1.929 -0.3631 -1.3329 -1.9627
  937MOL0     H26482   8.637   7.065   1.985  1.9045  1.0236 -0.6309
  937MOL0     H26483   8.843   7.494   2.146 -1.4413  1.9894 -0.0227
  937MOL0     H26484   9.067   7.612   2.156 -1.5098 -0.2454  0.2888
  937MOL0     H26485   9.376   7.458   1.877 -1.6827 -0.6861 -2.0115
  937MOL0     H26486   9.319   7.593   1.781 -1.7776  1.0555  1.2756
  937MOL0     H26487   9.561   7.616   1.870 -0.9981 -1.3369 -1.3854
  937MOL0     H26488   9.496   7.615   2.027 -1.4799 -4.0884 -0.7594
  937MOL0     H26489   9.351   7.835   1.945 -0.7375 -0.0265 -1.0895
  937MOL0     H26490   9.484   7.836   1.830  0.6862 -2.8138 -0.6274
  937MOL0     H26491   9.561   7.808   2.118  0.6147 -0.0453 -0.0351
  937MOL0     H26492   9.526   7.967   2.050  0.3614  0.4333 -2.1585
  937MOL0     H26493   9.916   7.894   1.916  0.4871  0.7446  1.7659
  937MOL0     H26494   9.165   7.437   1.774 -1.9221 -1.8643 -0.9949
  937MOL0     H26495   8.941   7.336   1.775 -0.3972 -1.8117  1.4927
  938MOL0     O26496   2.623   3.579   2.622 -0.2059 -1.0006 -0.0553
  938MOL0     C26497   2.655   3.475   2.681  1.4853 -0.7802 -0.5381
  938MOL0     O26498   2.572   3.401   2.755 -0.0416 -0.0028  0.2941
  938MOL0     C26499   2.444   3.435   2.761 -0.3211 -0.5450 -0.2751
  938MOL0     C26500   2.363   3.422   2.653 -0.0701  0.4812 -0.0200
  938MOL0     C26501   2.226   3.471   2.656  0.3953  1.2285  0.8736
  938MOL0     C26502   2.177   3.544   2.767  0.2515 -1.2477  0.1362
  938MOL0     O26503   2.048   3.592   2.780  0.4819  0.5235  0.2739
  938MOL0     C26504   1.964   3.577   2.663  0.0255 -0.4673 -0.2186
  938MOL0     C26505   1.837   3.654   2.692  0.4308 -0.2355 -0.1486
  938MOL0     C26506   1.741   3.620   2.576 -0.0278 -0.1491 -0.0312
  938MOL0     C26507   1.611   3.704   2.580  0.6401  0.0383 -0.1687
  938MOL0     C26508   1.532   3.721   2.445 -0.6913 -0.0219 -0.0868
  938MOL0     C26509   1.489   3.595   2.371  0.1290  0.8003 -1.2493
  938MOL0     C26510   1.603   3.523   2.287  0.3291 -0.3796 -0.0738
  938MOL0     C26511   1.596   3.575   2.149  0.3437  0.5843 -0.3648
  938MOL0     N26512   1.525   3.479   2.064  0.0305  0.1773  0.0015
  938MOL0     C26513   1.584   3.374   2.000  0.7308  0.1434 -0.5749
  938MOL0     C26514   1.476   3.312   1.947  0.2320  0.9020 -0.4824
  938MOL0     C26515   1.474   3.200   1.850 -0.1293  0.5269  0.5294
  938MOL0     C26516   1.467   3.069   1.919 -0.3456  0.7985 -0.9140
  938MOL0     C26517   1.579   3.023   2.013 -0.0159 -0.3418  0.2772
  938MOL0     C26518   1.528   2.901   2.103 -0.7587 -0.1696 -0.8173
  938MOL0     O26519   1.485   2.800   2.010  0.3265 -0.3081  0.8687
  938MOL0     C26520   1.364   2.732   2.034  0.2175  0.5054 -0.4776
  938MOL0     C26521   1.333   2.664   2.148  0.4177 -0.3732 -0.1850
  938MOL0     C26522   1.200   2.619   2.180  0.0801 -0.0047 -0.9301
  938MOL0     C26523   1.178   2.567   2.316 -0.6030  0.4446  0.4175
  938MOL0     C26524   1.110   2.606   2.076 -0.0205 -0.5637 -0.2686
  938MOL0     C26525   0.965   2.563   2.092 -1.0548 -0.3997 -0.2372
  938MOL0     O26526   0.903   2.510   1.977  0.1605  0.0044 -0.5888
  938MOL0     C26527   0.787   2.439   1.975 -0.1710 -0.4016  0.2771
  938MOL0     C26528   0.779   2.342   1.881 -0.0456 -0.5455  0.8702
  938MOL0     C26529   0.666   2.254   1.883 -0.3310  0.1072  0.3611
  938MOL0     C26530   0.556   2.264   1.975  0.0167 -0.4707  0.7182
  938MOL0     O26531   0.450   2.182   1.982  1.0580  0.2980  0.1000
  938MOL0     C26532   0.447   2.058   1.905  0.6063 -0.1644  0.6273
  938MOL0     C26533   0.308   1.991   1.901 -0.3241 -1.2597 -0.5797
  938MOL0     C26534   0.229   2.032   1.776  0.1020 -0.1569  0.4654
  938MOL0     C26535   0.110   1.935   1.754 -0.1384 -0.6323 -0.2527
  938MOL0     C26536   0.024   1.979   1.640 -0.4575 -0.2693 -0.1621
  938MOL0     C26537  -0.118   1.923   1.636  0.1649  0.1540  0.0251
  938MOL0     C26538  -0.127   1.779   1.582 -0.1768  0.0389 -0.4900
  938MOL0     C26539  -0.244   1.719   1.628  0.5418  0.2840  0.6788
  938MOL0    Cl26540  -0.261   1.558   1.557 -0.6819  0.1547  0.3594
  938MOL0     C26541   0.580   2.356   2.074  0.3915 -0.9477 -0.6057
  938MOL0     C26542   0.687   2.443   2.074 -0.1889  0.1805 -0.4159
  938MOL0     O26543   0.918   2.575   2.203 -0.5770  0.0235 -0.1584
  938MOL0     C26544   1.152   2.655   1.948 -0.1018  1.0333 -1.4474
  938MOL0     C26545   1.271   2.727   1.932 -0.8159 -0.2962 -0.1544
  938MOL0     N26546   1.358   3.371   1.983 -0.1686 -0.1857  0.0217
  938MOL0     N26547   1.388   3.483   2.040  0.4053 -0.8088  0.6457
  938MOL0     C26548   2.268   3.575   2.865 -0.0477  0.4811 -0.4238
  938MOL0     C26549   2.396   3.518   2.866 -0.3762 -0.0381  0.3740
  938MOL0     C26550   2.802   3.463   2.690  0.5219 -0.0307  0.0239
  938MOL0     C26551   2.879   3.476   2.576  0.9126 -0.4142  0.3355
  938MOL0     C26552   3.017   3.451   2.577 -0.0216  0.3761  0.4110
  938MOL0     C26553   3.078   3.419   2.693  0.3411  0.2253 -0.4554
  938MOL0     O26554   3.212   3.385   2.695  0.7693 -0.4179 -0.4727
  938MOL0     C26555   3.261   3.331   2.818  1.1167 -0.2288 -0.0222
  938MOL0     C26556   3.406   3.319   2.786 -0.3771  0.6221  0.1374
  938MOL0     C26557   3.493   3.265   2.900  0.4951 -0.7783  0.2128
  938MOL0     C26558   3.640   3.260   2.874  0.0023 -0.6561  0.1788
  938MOL0     C26559   3.698   3.178   2.984 -0.1975 -1.0617  0.5629
  938MOL0     C26560   3.744   3.132   3.087  0.4602 -0.1353 -0.8343
  938MOL0     C26561   3.000   3.417   2.810  0.2466  0.0692 -0.9056
  938MOL0     C26562   2.862   3.437   2.804  0.4388  0.8464  0.2003
  938MOL0     H26563   2.410   3.374   2.567 -1.7814 -1.8744  0.2518
  938MOL0     H26564   2.162   3.441   2.573  0.2919 -0.6139  1.5684
  938MOL0     H26565   2.002   3.610   2.566 -0.0677 -0.8721 -0.3958
  938MOL0     H26566   1.933   3.473   2.648 -0.5724 -0.3022 -0.1269
  938MOL0     H26567   1.806   3.631   2.794 -1.1173  1.2688 -0.2328
  938MOL0     H26568   1.856   3.761   2.687 -1.1906  0.0709 -0.1960
  938MOL0     H26569   1.793   3.657   2.487 -0.7499 -0.0899 -0.4396
  938MOL0     H26570   1.710   3.516   2.568 -0.5028  0.0438 -0.8999
  938MOL0     H26571   1.543   3.661   2.654  2.7979  0.2370  2.0751
  938MOL0     H26572   1.632   3.806   2.612 -1.0915 -0.7811  4.3314
  938MOL0     H26573   1.446   3.776   2.484  0.5595  0.4995  2.1072
  938MOL0     H26574   1.594   3.783   2.379 -1.5805  0.6273 -0.3214
  938MOL0     H26575   1.455   3.520   2.444 -0.9224  1.1301 -1.3810
  938MOL0     H26576   1.399   3.613   2.311 -2.4280  4.2920  2.9346
  938MOL0     H26577   1.706   3.537   2.320  0.8475 -2.5008 -0.6428
  938MOL0     H26578   1.590   3.414   2.280  0.7079 -0.3712 -1.1412
  938MOL0     H26579   1.697   3.584   2.108  0.6094  0.5414  0.2696
  938MOL0     H26580   1.548   3.673   2.139 -0.4076  0.1538 -1.1136
  938MOL0     H26581   1.692   3.361   1.995  0.9336  1.0598  0.8111
  938MOL0     H26582   1.390   3.218   1.781  0.3601 -1.8276 -0.7837
  938MOL0     H26583   1.561   3.205   1.784 -1.2515 -1.2049 -1.1875
  938MOL0     H26584   1.455   2.993   1.841 -1.6271  1.4505 -1.3811
  938MOL0     H26585   1.384   3.067   1.991  0.6965 -2.6750  0.4273
  938MOL0     H26586   1.606   3.111   2.073 -2.4186  1.4677 -1.1177
  938MOL0     H26587   1.666   2.999   1.950 -0.7580  1.4360 -1.5549
  938MOL0     H26588   1.451   2.938   2.171  0.9322  0.4840  0.8230
  938MOL0     H26589   1.612   2.859   2.159 -0.7569 -1.2550 -1.5964
  938MOL0     H26590   1.412   2.672   2.223  0.5249  0.7647 -0.3947
  938MOL0     H26591   1.276   2.555   2.363  0.0758  4.2201  0.2676
  938MOL0     H26592   1.113   2.637   2.370 -1.0362  0.4571 -0.1101
  938MOL0     H26593   1.130   2.471   2.298 -0.2843  0.5642 -1.3212
  938MOL0     H26594   0.858   2.320   1.809 -1.5334  0.4937 -1.1727
  938MOL0     H26595   0.671   2.174   1.810 -1.0718  0.6139 -0.2638
  938MOL0     H26596   0.489   2.074   1.805  1.3277 -0.9522  0.7897
  938MOL0     H26597   0.519   1.994   1.956  0.9762 -0.8375 -0.6769
  938MOL0     H26598   0.323   1.884   1.915 -2.3178 -1.3513  1.4134
  938MOL0     H26599   0.242   2.017   1.984  1.0447 -0.9753  0.4651
  938MOL0     H26600   0.292   2.035   1.687 -1.3487  3.4643 -0.6023
  938MOL0     H26601   0.192   2.134   1.784 -0.4894  0.7824 -7.2754
  938MOL0     H26602   0.151   1.834   1.742  3.8952  0.5507  1.7435
  938MOL0     H26603   0.064   1.927   1.852  2.9743 -1.3066  1.2883
  938MOL0     H26604   0.080   1.958   1.549 -0.9343 -0.5063 -0.4024
  938MOL0     H26605   0.021   2.089   1.646  1.0503 -0.0874 -1.8845
  938MOL0     H26606  -0.162   1.933   1.736 -0.6812 -0.4922 -0.2779
  938MOL0     H26607  -0.178   1.989   1.573 -0.6511  0.7540  1.3724
  938MOL0     H26608  -0.038   1.720   1.608  1.6108  1.8082 -2.2557
  938MOL0     H26609  -0.127   1.789   1.474 -1.0821  2.1607 -0.3340
  938MOL0     H26610  -0.335   1.770   1.598  1.2994  0.4921 -1.4665
  938MOL0     H26611  -0.231   1.724   1.736  0.7033  4.2761  0.6049
  938MOL0     H26612   0.500   2.375   2.145  0.5958 -0.8880 -0.3912
  938MOL0     H26613   0.695   2.516   2.155 -2.6205  1.3816 -1.1651
  938MOL0     H26614   1.081   2.649   1.866  0.5734 -0.4424 -1.9490
  938MOL0     H26615   1.304   2.782   1.844  1.6967  1.9674  2.0317
  938MOL0     H26616   2.254   3.654   2.938  0.5728 -1.0098  1.3784
  938MOL0     H26617   2.465   3.571   2.931 -0.5541 -1.4586  1.7901
  938MOL0     H26618   2.836   3.504   2.480  3.9651 -1.3796 -1.4877
  938MOL0     H26619   3.075   3.458   2.485  1.1824 -0.2053  1.1146
  938MOL0     H26620   3.244   3.396   2.904  1.8759 -0.5495  0.3842
  938MOL0     H26621   3.220   3.231   2.834 -3.0807  0.9412 -1.9931
  938MOL0     H26622   3.455   3.414   2.763  1.3513 -0.7422 -2.3077
  938MOL0     H26623   3.422   3.264   2.693 -2.1062  4.6732 -2.8475
  938MOL0     H26624   3.458   3.163   2.915 -1.1593 -0.7869 -3.0144
  938MOL0     H26625   3.461   3.323   2.988 -2.0639 -2.0178  0.1745
  938MOL0     H26626   3.681   3.361   2.861 -3.9426  1.1016  0.2286
  938MOL0     H26627   3.662   3.206   2.782 -1.5379 -0.8391 -0.1022
  938MOL0     H26628   3.781   3.088   3.178 -2.2282 -0.8518  0.0128
  938MOL0     H26629   3.039   3.391   2.908 -0.7795  1.0024 -0.2163
  938MOL0     H26630   2.795   3.420   2.888 -1.7506 -1.5323 -1.8542
  939MOL0     O26631  10.636   0.742   8.839 -0.3393 -0.8499  0.2329
  939MOL0     C26632  10.693   0.755   8.948  0.4904 -0.3254  0.2370
  939MOL0     O26633  10.632   0.718   9.070 -0.7916 -0.6232  0.2494
  939MOL0     C26634  10.504   0.681   9.065  1.7582 -0.5455  1.3456
  939MOL0     C26635  10.472   0.548   9.023 -0.0650 -0.0226  0.2426
  939MOL0     C26636  10.339   0.499   9.020 -0.9896 -0.0312 -0.1337
  939MOL0     C26637  10.232   0.571   9.068 -0.0624 -0.4129  0.3166
  939MOL0     O26638  10.113   0.512   9.061 -0.0901  0.0265  0.5049
  939MOL0     C26639  10.002   0.590   9.106  0.4286  0.4147  0.2542
  939MOL0     C26640   9.878   0.501   9.082 -0.0187 -0.4141  0.8988
  939MOL0     C26641   9.742   0.562   9.139 -0.0254 -1.1367 -0.0601
  939MOL0     C26642   9.622   0.528   9.047  0.9050  0.8501 -0.3933
  939MOL0     C26643   9.483   0.592   9.072  0.1920 -0.9625 -0.2355
  939MOL0     C26644   9.474   0.739   9.042 -0.6677 -0.3696  0.1286
  939MOL0     C26645   9.384   0.812   9.147 -0.3141  0.3643  0.7259
  939MOL0     C26646   9.233   0.774   9.131 -0.5945 -1.0930 -0.0641
  939MOL0     N26647   9.154   0.862   9.211  0.5174 -0.0921  0.4789
  939MOL0     C26648   9.180   0.983   9.275 -0.3123  0.2580 -0.6222
  939MOL0     C26649   9.058   1.022   9.314 -0.0087  0.6880 -0.4145
  939MOL0     C26650   9.012   1.152   9.386 -0.2712 -0.5345  0.0276
  939MOL0     C26651   9.106   1.208   9.496 -0.6146 -0.3531  0.1716
  939MOL0     C26652   9.099   1.360   9.526  0.0341  0.1550  0.6934
  939MOL0     C26653   8.976   1.402   9.612 -0.6687  0.3793  0.9621
  939MOL0     O26654   8.863   1.419   9.534  0.9018  0.0098  0.1466
  939MOL0     C26655   8.765   1.503   9.580 -0.2842  0.2893  0.2096
  939MOL0     C26656   8.695   1.582   9.486 -0.2443  0.2293  0.3735
  939MOL0     C26657   8.594   1.667   9.521 -0.4342  0.8919  0.0447
  939MOL0     C26658   8.518   1.741   9.411 -0.2738  0.4428 -0.3130
  939MOL0     C26659   8.561   1.666   9.658 -0.2453  0.6021 -0.7281
  939MOL0     C26660   8.450   1.763   9.718 -0.1621 -0.2055 -0.1031
  939MOL0     O26661   8.387   1.737   9.832  0.8217  0.2353  0.1627
  939MOL0     C26662   8.291   1.811   9.885 -0.7618  0.3238  0.3727
  939MOL0     C26663   8.292   1.847  10.018 -0.1599 -0.1695  0.5973
  939MOL0     C26664   8.178   1.906  10.082  0.6507 -0.3542  0.9092
  939MOL0     C26665   8.063   1.937  10.009  0.2480  0.2866  0.3038
  939MOL0     O26666   7.953   1.976  10.076  0.3120  0.1923 -0.0733
  939MOL0     C26667   7.826   1.921  10.030 -0.4761  0.0211 -0.3887
  939MOL0     C26668   7.713   1.948  10.125  0.1160 -0.4219  0.0428
  939MOL0     C26669   7.670   2.098  10.130 -0.1066  0.6186  0.0515
  939MOL0     C26670   7.539   2.127  10.195  0.4080 -1.1344 -0.0401
  939MOL0     C26671   7.501   2.273  10.245 -0.3493  0.5750 -0.0948
  939MOL0     C26672   7.493   2.365  10.125 -0.4767 -0.0846  1.0224
  939MOL0     C26673   7.447   2.497  10.178  1.1992  0.5567  0.2130
  939MOL0     C26674   7.548   2.563  10.256  0.7516 -0.3828  0.2649
  939MOL0    Cl26675   7.486   2.724  10.310  0.3431  0.2004  0.4956
  939MOL0     C26676   8.069   1.911   9.872  0.0022 -0.5666 -0.6888
  939MOL0     C26677   8.172   1.850   9.811 -0.5292  0.7920  0.6575
  939MOL0     O26678   8.429   1.862   9.649 -0.1572  0.5107  0.2971
  939MOL0     C26679   8.613   1.568   9.746 -0.0898  0.4196  0.1444
  939MOL0     C26680   8.724   1.493   9.708 -0.3510  0.1609 -1.0229
  939MOL0     N26681   8.963   0.938   9.259 -0.0918  0.1662 -0.3209
  939MOL0     N26682   9.018   0.846   9.200  0.0800 -0.0375  0.5218
  939MOL0     C26683  10.263   0.708   9.110 -0.1535 -0.2372  0.4576
  939MOL0     C26684  10.398   0.755   9.110  0.1680 -0.1549 -0.0234
  939MOL0     C26685  10.830   0.795   8.958 -0.0887 -0.6946  0.3491
  939MOL0     C26686  10.915   0.795   8.848 -1.1927 -0.0690  0.6525
  939MOL0     C26687  11.055   0.820   8.853 -0.2781 -0.5855  0.0290
  939MOL0     C26688  11.112   0.853   8.981  0.3747  0.5702  0.5966
  939MOL0     O26689  11.241   0.897   8.991 -0.4071 -0.4207 -0.4475
  939MOL0     C26690  11.342   0.855   8.900 -0.2210  0.2112  0.1868
  939MOL0     C26691  11.472   0.918   8.945 -0.6016  0.0254  0.2534
  939MOL0     C26692  11.526   0.872   9.082  0.7328  0.1736 -0.2808
  939MOL0     C26693  11.679   0.851   9.091  0.8145 -0.5695  0.2077
  939MOL0     C26694  11.752   0.977   9.084 -0.4611 -0.8355  0.5546
  939MOL0     C26695  11.818   1.080   9.089 -0.2795 -0.9162  0.4451
  939MOL0     C26696  11.026   0.844   9.101 -0.8978  0.4034  0.4472
  939MOL0     C26697  10.888   0.826   9.088  0.4350 -0.0505 -0.2978
  939MOL0     H26698  10.552   0.476   9.010 -0.3602 -0.4017  0.4857
  939MOL0     H26699  10.314   0.395   9.003 -1.0149  0.0776 -0.7865
  939MOL0     H26700  10.011   0.624   9.210  0.4382  0.3760  0.2666
  939MOL0     H26701   9.987   0.677   9.043  1.0441  1.8904  2.0491
  939MOL0     H26702   9.882   0.495   8.973  2.2134  2.5288  0.6822
  939MOL0     H26703   9.886   0.401   9.126  1.1120  0.2665  2.3026
  939MOL0     H26704   9.729   0.529   9.243  0.2951 -1.2872 -0.0671
  939MOL0     H26705   9.753   0.671   9.137  2.4989 -1.2626  2.1440
  939MOL0     H26706   9.656   0.572   8.953 -0.9045  0.0608 -1.4665
  939MOL0     H26707   9.619   0.419   9.042  0.4014  0.8986 -1.4257
  939MOL0     H26708   9.401   0.543   9.018 -3.8781  3.5125  1.2112
  939MOL0     H26709   9.464   0.571   9.177  2.6395 -1.0144  0.2607
  939MOL0     H26710   9.567   0.796   9.052 -1.0040  0.1504  0.3126
  939MOL0     H26711   9.432   0.750   8.942 -3.1965 -0.1852  1.1307
  939MOL0     H26712   9.423   0.788   9.247  1.4162 -1.1644 -0.2632
  939MOL0     H26713   9.397   0.919   9.127  1.8738  0.6295  2.9605
  939MOL0     H26714   9.216   0.670   9.158  2.7211 -2.0323 -1.1251
  939MOL0     H26715   9.194   0.794   9.031  0.2279  0.8673 -0.0410
  939MOL0     H26716   9.276   1.031   9.289  0.6852 -0.9929 -2.7601
  939MOL0     H26717   9.006   1.229   9.308  4.4600 -0.1781 -0.3070
  939MOL0     H26718   8.920   1.131   9.440 -0.5323  1.0380  0.2548
  939MOL0     H26719   9.204   1.188   9.452 -1.5675 -0.0173 -2.2893
  939MOL0     H26720   9.093   1.148   9.586 -5.2877 -0.8001 -0.5116
  939MOL0     H26721   9.093   1.416   9.432 -0.2859 -3.9401 -1.9941
  939MOL0     H26722   9.180   1.399   9.588 -0.0639 -0.1408  1.0099
  939MOL0     H26723   8.989   1.501   9.658 -3.7845  1.0381  0.6550
  939MOL0     H26724   8.956   1.330   9.691 -0.6280  0.8994  1.4521
  939MOL0     H26725   8.724   1.587   9.381 -3.4908  0.4824 -0.6231
  939MOL0     H26726   8.525   1.698   9.311  3.5001 -1.2484  0.5174
  939MOL0     H26727   8.415   1.737   9.446  0.3721  2.2702  2.1286
  939MOL0     H26728   8.550   1.846   9.400 -1.1473  1.0892  2.4513
  939MOL0     H26729   8.371   1.822  10.088  0.8200  0.7275 -0.1515
  939MOL0     H26730   8.167   1.906  10.190 -0.8624  1.5397  0.8015
  939MOL0     H26731   7.808   1.951   9.926  1.0225  2.5380 -0.0109
  939MOL0     H26732   7.843   1.813  10.038 -0.8757 -0.0044  0.1430
  939MOL0     H26733   7.630   1.894  10.077  2.0328 -3.0735 -0.5644
  939MOL0     H26734   7.732   1.904  10.223  0.0059  2.4502  1.4459
  939MOL0     H26735   7.659   2.139  10.028 -0.3727 -1.5155 -0.8183
  939MOL0     H26736   7.754   2.147  10.181 -0.4516 -0.2307  1.4794
  939MOL0     H26737   7.466   2.085  10.125  0.6464 -0.2464 -0.8369
  939MOL0     H26738   7.541   2.064  10.284  0.7283 -0.0855  0.7183
  939MOL0     H26739   7.564   2.299  10.331 -0.6620  1.6056 -0.1690
  939MOL0     H26740   7.398   2.276  10.279 -2.0588  2.1954 -4.6263
  939MOL0     H26741   7.591   2.382  10.080 -1.2441  2.1998  0.0516
  939MOL0     H26742   7.422   2.321  10.055 -1.8295 -2.2521  3.5408
  939MOL0     H26743   7.354   2.485  10.235  1.0068 -2.1849 -0.5302
  939MOL0     H26744   7.409   2.557  10.095  0.8805  1.0423  0.6963
  939MOL0     H26745   7.642   2.578  10.202  1.1296  2.1309  1.4238
  939MOL0     H26746   7.582   2.514  10.348  0.8285  1.8609  1.5108
  939MOL0     H26747   7.985   1.936   9.807  0.0204 -1.0589 -0.8985
  939MOL0     H26748   8.159   1.838   9.704  1.7099  1.1203  0.2864
  939MOL0     H26749   8.590   1.550   9.851 -3.7475 -4.2583 -1.1544
  939MOL0     H26750   8.767   1.416   9.772 -0.1586  0.1631 -1.1475
  939MOL0     H26751  10.181   0.777   9.130  0.7752  1.3293 -0.8714
  939MOL0     H26752  10.420   0.859   9.132  0.0969 -0.2249  0.3719
  939MOL0     H26753  10.876   0.759   8.754 -1.4636 -1.3613  1.2391
  939MOL0     H26754  11.111   0.822   8.760 -2.7283 -0.6074 -1.5449
  939MOL0     H26755  11.353   0.746   8.900  0.9421  0.2944  1.7721
  939MOL0     H26756  11.317   0.894   8.801  2.6937  0.6308 -0.4626
  939MOL0     H26757  11.459   1.027   8.955 -0.6021  0.3899 -2.7814
  939MOL0     H26758  11.544   0.900   8.865 -1.3187 -1.9709  0.0197
  939MOL0     H26759  11.481   0.773   9.098  0.6740  0.4299  1.2683
  939MOL0     H26760  11.496   0.934   9.166  0.4818 -2.3629  1.6063
  939MOL0     H26761  11.712   0.779   9.014  0.5595  1.6182 -2.0691
  939MOL0     H26762  11.700   0.804   9.187 -1.2669 -0.1969  0.8922
  939MOL0     H26763  11.873   1.172   9.088 -1.2797 -0.2473  2.0495
  939MOL0     H26764  11.074   0.875   9.193 -0.0646  1.9927 -0.4742
  939MOL0     H26765  10.821   0.827   9.173  0.8553 -1.8792  0.0876
  940MOL0     O26766   6.299   1.408   9.911  0.9754  0.1191 -1.0862
  940MOL0     C26767   6.310   1.281   9.899  1.1148 -0.3934 -0.2301
  940MOL0     O26768   6.211   1.194   9.910  0.0978 -0.0797  0.2137
  940MOL0     C26769   6.089   1.206   9.959 -0.2388  0.3166  0.1519
  940MOL0     C26770   6.057   1.311  10.039 -0.9872  0.8102 -0.3180
  940MOL0     C26771   5.924   1.333  10.080  0.1266  0.2661  0.3042
  940MOL0     C26772   5.825   1.247  10.023 -0.3365 -0.6491 -0.4323
  940MOL0     O26773   5.683   1.253  10.043 -0.1005  0.2619 -0.1865
  940MOL0     C26774   5.624   1.326  10.149  0.6080 -0.7888  0.3349
  940MOL0     C26775   5.471   1.324  10.119  0.9840  0.9477  0.4379
  940MOL0     C26776   5.429   1.403   9.993 -1.2727 -0.4356  0.5536
  940MOL0     C26777   5.306   1.345   9.923 -0.7912  0.0119  0.3752
  940MOL0     C26778   5.179   1.380   9.989  0.1767 -0.7798 -0.6489
  940MOL0     C26779   5.052   1.348   9.901 -0.5353 -0.9302 -0.1735
  940MOL0     C26780   4.938   1.323   9.994 -0.1595  0.3582  0.2710
  940MOL0     C26781   4.820   1.239   9.927 -0.9522 -0.8458  0.0721
  940MOL0     N26782   4.775   1.299   9.806 -1.0571  0.0210 -0.2620
  940MOL0     C26783   4.669   1.385   9.793  0.0086  0.4311 -0.7312
  940MOL0     C26784   4.656   1.386   9.657 -0.1597  0.4504 -0.5048
  940MOL0     C26785   4.532   1.431   9.581  0.4936 -0.4805 -1.1294
  940MOL0     C26786   4.553   1.549   9.495  0.3235  0.3224 -1.0231
  940MOL0     C26787   4.421   1.630   9.482  0.4672  0.4842  0.6056
  940MOL0     C26788   4.422   1.724   9.365  0.1556 -0.6101 -0.5872
  940MOL0     O26789   4.304   1.806   9.358 -0.3322  0.1849 -0.6575
  940MOL0     C26790   4.188   1.755   9.321  0.4147  0.0207  0.0855
  940MOL0     C26791   4.080   1.783   9.408  0.4536 -1.0004  0.5204
  940MOL0     C26792   3.956   1.727   9.393  0.0673 -0.5643 -0.5366
  940MOL0     C26793   3.858   1.757   9.505  0.1507 -0.3631 -0.0128
  940MOL0     C26794   3.926   1.660   9.270  0.1755 -0.0628 -0.7560
  940MOL0     C26795   3.793   1.589   9.234  0.5731  0.0629 -0.3527
  940MOL0     O26796   3.679   1.602   9.317 -0.1415 -0.6723  0.6694
  940MOL0     C26797   3.561   1.545   9.276  0.4107  0.2603 -0.3805
  940MOL0     C26798   3.480   1.603   9.176  0.5019  0.3930  0.1481
  940MOL0     C26799   3.349   1.559   9.139  0.2946 -0.0236 -0.7413
  940MOL0     C26800   3.302   1.439   9.190 -0.0600 -0.2469  0.4563
  940MOL0     O26801   3.186   1.389   9.146 -0.4892 -0.7236 -0.5417
  940MOL0     C26802   3.159   1.259   9.195  0.7122 -1.1109 -0.1622
  940MOL0     C26803   3.017   1.201   9.165 -0.0664 -0.2620 -0.2365
  940MOL0     C26804   2.904   1.266   9.252  0.1831  0.1511  0.3901
  940MOL0     C26805   2.767   1.196   9.233  0.0264 -0.0882  0.0452
  940MOL0     C26806   2.761   1.055   9.300 -0.6035 -0.4076  0.0391
  940MOL0     C26807   2.615   0.997   9.308 -0.6877  0.1847  0.0673
  940MOL0     C26808   2.551   0.967   9.170 -0.6958 -0.4068  0.2437
  940MOL0     C26809   2.427   0.874   9.157 -0.1135  0.6204 -0.2459
  940MOL0    Cl26810   2.443   0.733   9.265  0.2091 -0.0539  0.3071
  940MOL0     C26811   3.393   1.373   9.281  0.0484 -0.2552  0.9595
  940MOL0     C26812   3.515   1.420   9.322  1.2665 -0.0812 -0.4582
  940MOL0     O26813   3.790   1.536   9.121 -0.4567  1.3228 -0.1423
  940MOL0     C26814   4.035   1.638   9.177 -0.2844 -0.1213 -1.1387
  940MOL0     C26815   4.168   1.679   9.210  0.3514 -0.9291 -0.9938
  940MOL0     N26816   4.765   1.320   9.596 -0.0868  0.3864  0.3705
  940MOL0     N26817   4.831   1.261   9.687  0.7870  0.3650 -0.5172
  940MOL0     C26818   5.860   1.138   9.948 -0.6880 -1.0292 -0.1498
  940MOL0     C26819   5.994   1.119   9.915 -0.0263 -0.0583 -0.1956
  940MOL0     C26820   6.447   1.227   9.894 -0.5605 -1.3199  0.6454
  940MOL0     C26821   6.470   1.099   9.854 -0.6400 -0.3662  0.2454
  940MOL0     C26822   6.600   1.051   9.828 -0.9874  0.6401 -0.7554
  940MOL0     C26823   6.713   1.139   9.840 -0.1410  0.8207 -0.4954
  940MOL0     O26824   6.846   1.103   9.820  1.1489 -0.9968 -0.0995
  940MOL0     C26825   6.881   0.980   9.757 -0.3444  0.8565 -0.0900
  940MOL0     C26826   7.024   0.962   9.710  0.4157  0.0889 -0.4200
  940MOL0     C26827   7.126   0.945   9.819 -0.4803 -0.7029 -0.1931
  940MOL0     C26828   7.110   1.059   9.920  0.0763  0.2876 -0.7528
  940MOL0     C26829   7.230   1.058  10.000  0.0852  1.0019  0.3881
  940MOL0     C26830   7.335   1.050  10.051  0.2175  0.4968  0.6078
  940MOL0     C26831   6.694   1.262   9.892  0.0153 -1.0399  1.6630
  940MOL0     C26832   6.561   1.309   9.911  0.0551 -0.0861 -0.3803
  940MOL0     H26833   6.135   1.375  10.078  1.4107 -0.3368 -2.9313
  940MOL0     H26834   5.896   1.412  10.149 -0.0838  1.6363 -1.2561
  940MOL0     H26835   5.637   1.275  10.245 -1.5785 -4.8101 -1.2638
  940MOL0     H26836   5.665   1.428  10.153 -3.4855  1.0808 -0.5800
  940MOL0     H26837   5.425   1.225  10.109 -0.7228  1.9083 -2.3350
  940MOL0     H26838   5.415   1.370  10.200 -2.0101 -0.9488 -0.4101
  940MOL0     H26839   5.415   1.502  10.038 -2.2950 -0.1200 -0.4219
  940MOL0     H26840   5.510   1.413   9.920 -1.3732  0.0165  0.5021
  940MOL0     H26841   5.314   1.377   9.818 -0.7166  0.6810  0.5815
  940MOL0     H26842   5.325   1.237   9.911  1.7502  0.4974 -0.6424
  940MOL0     H26843   5.181   1.336  10.089  0.2733  0.3250 -0.1474
  940MOL0     H26844   5.180   1.486  10.014 -1.0038 -1.2191  1.4930
  940MOL0     H26845   5.026   1.428   9.831  2.5260 -1.1477 -1.7464
  940MOL0     H26846   5.080   1.256   9.848  0.2522 -2.2219  2.3319
  940MOL0     H26847   4.966   1.259  10.079 -3.2531  0.0194  1.1862
  940MOL0     H26848   4.903   1.418  10.037  0.3536  0.1346  1.2067
  940MOL0     H26849   4.739   1.229  10.001 -2.4141 -1.1202 -1.5056
  940MOL0     H26850   4.848   1.135   9.915  0.3372 -0.9505  3.0683
  940MOL0     H26851   4.601   1.429   9.866 -0.5506 -0.9153 -0.3848
  940MOL0     H26852   4.490   1.348   9.523 -0.0711 -1.0075  0.0074
  940MOL0     H26853   4.464   1.457   9.662 -0.3519  1.3081 -2.3308
  940MOL0     H26854   4.575   1.503   9.399 -1.0921 -4.1017  0.5043
  940MOL0     H26855   4.628   1.610   9.545  0.7952 -1.7465  0.9854
  940MOL0     H26856   4.399   1.691   9.570  1.6817 -0.1712  1.3920
  940MOL0     H26857   4.337   1.564   9.456 -0.5818  2.0300 -0.0293
  940MOL0     H26858   4.434   1.668   9.271 -1.3185  0.2567 -1.3240
  940MOL0     H26859   4.512   1.786   9.376 -0.3702  0.4044 -1.7467
  940MOL0     H26860   4.105   1.846   9.494 -1.9615 -0.8011  1.1653
  940MOL0     H26861   3.899   1.831   9.574 -0.4587 -0.2691  0.2620
  940MOL0     H26862   3.767   1.801   9.465 -0.4795 -1.1730  0.4706
  940MOL0     H26863   3.822   1.674   9.567 -0.1148 -0.0682  0.2289
  940MOL0     H26864   3.500   1.694   9.121 -2.8235  2.2426  1.7069
  940MOL0     H26865   3.287   1.604   9.062 -1.5582  0.5554  0.9867
  940MOL0     H26866   3.237   1.194   9.153  1.6415  1.0493 -1.9987
  940MOL0     H26867   3.172   1.253   9.303 -0.0290 -1.0012 -0.0585
  940MOL0     H26868   2.995   1.208   9.058  1.4709  3.0041 -0.4651
  940MOL0     H26869   3.026   1.095   9.189  0.9232 -0.2336 -0.4479
  940MOL0     H26870   2.898   1.375   9.242  1.0156  0.3348  1.6217
  940MOL0     H26871   2.929   1.262   9.358 -3.3603  0.3093  1.3414
  940MOL0     H26872   2.694   1.259   9.285 -0.5403  1.4093 -2.3675
  940MOL0     H26873   2.742   1.203   9.127  1.6121 -0.4275 -0.3751
  940MOL0     H26874   2.804   1.055   9.400  2.0599  0.9474 -1.0183
  940MOL0     H26875   2.827   0.992   9.240  0.8975 -1.4933  2.6768
  940MOL0     H26876   2.613   0.909   9.374 -1.6916  0.8851  1.0041
  940MOL0     H26877   2.555   1.071   9.362 -3.1434 -1.5113 -0.1716
  940MOL0     H26878   2.633   0.909   9.125 -0.0571  1.1462 -0.6597
  940MOL0     H26879   2.531   1.064   9.125 -0.6507 -0.3652  0.3147
  940MOL0     H26880   2.407   0.837   9.056 -0.3334  1.5804 -0.5636
  940MOL0     H26881   2.337   0.933   9.175 -0.6400 -0.2728  0.1353
  940MOL0     H26882   3.370   1.277   9.326  2.8514 -0.2019  2.7949
  940MOL0     H26883   3.564   1.363   9.400  0.6632  0.8379  0.6253
  940MOL0     H26884   4.014   1.584   9.085  0.4649 -0.1286 -1.3119
  940MOL0     H26885   4.250   1.660   9.141 -0.3794  0.3971 -2.2554
  940MOL0     H26886   5.801   1.056   9.908 -1.6307 -0.1986 -0.4854
  940MOL0     H26887   6.019   1.039   9.847 -0.2898  1.0821 -1.6793
  940MOL0     H26888   6.382   1.036   9.847 -0.5845 -0.5003  0.7175
  940MOL0     H26889   6.610   0.948   9.794  0.8952  0.4403  0.2527
  940MOL0     H26890   6.859   0.897   9.825  1.5034 -0.9494 -1.5660
  940MOL0     H26891   6.815   0.954   9.674 -0.2648 -1.0200  0.3795
  940MOL0     H26892   7.048   1.040   9.638  2.9933  0.9596  1.2266
  940MOL0     H26893   7.046   0.878   9.644  3.1415  1.1483 -0.9806
  940MOL0     H26894   7.228   0.959   9.780  0.1647  1.5699  2.0306
  940MOL0     H26895   7.108   0.845   9.858 -0.6164  0.3199  2.5882
  940MOL0     H26896   7.023   1.036   9.981 -0.2185  2.6638 -0.1894
  940MOL0     H26897   7.100   1.153   9.866  1.0986  1.2353  0.6456
  940MOL0     H26898   7.431   1.050  10.097 -0.3896  0.9693  1.9078
  940MOL0     H26899   6.784   1.320   9.910  2.1850 -2.3247 -3.3018
  940MOL0     H26900   6.527   1.402   9.956  1.9671 -0.1770  1.4105
  941MOL0     O26901  10.778   3.617   3.901  0.0698 -0.0920 -0.1945
  941MOL0     C26902  10.728   3.504   3.875 -0.2883 -0.1248 -0.1179
  941MOL0     O26903  10.596   3.482   3.857  0.3792  1.0255  0.0623
  941MOL0     C26904  10.501   3.586   3.867 -0.2274 -0.2801  0.4369
  941MOL0     C26905  10.411   3.592   3.981 -0.3932 -0.8694  0.6408
  941MOL0     C26906  10.322   3.699   3.991 -0.4788  0.1019 -0.1012
  941MOL0     C26907  10.308   3.786   3.880  0.3630  0.7499 -0.1512
  941MOL0     O26908  10.212   3.879   3.859  0.2638 -0.5097 -0.1487
  941MOL0     C26909  10.117   3.898   3.968  0.3036  0.3260  0.5782
  941MOL0     C26910   9.992   3.983   3.929 -0.3731  0.2399 -0.1241
  941MOL0     C26911   9.932   3.938   3.799  0.4399  0.1289  0.0215
  941MOL0     C26912   9.824   4.020   3.753 -0.1599 -0.2368 -0.9273
  941MOL0     C26913   9.697   4.036   3.852  0.1374 -0.6725 -0.5155
  941MOL0     C26914   9.587   4.100   3.769 -0.7811 -0.1826  0.8456
  941MOL0     C26915   9.480   4.181   3.852  0.0784 -0.2494 -0.4186
  941MOL0     C26916   9.379   4.083   3.915 -0.2330  0.1770  0.2611
  941MOL0     N26917   9.284   4.158   3.998  0.3626  0.3078  0.4719
  941MOL0     C26918   9.290   4.199   4.123 -0.2074 -0.4871 -0.5353
  941MOL0     C26919   9.163   4.239   4.151  0.7148 -0.4998 -0.1405
  941MOL0     C26920   9.115   4.307   4.279  0.5723 -0.1719 -0.1437
  941MOL0     C26921   9.127   4.215   4.401  0.0401  0.0559  0.0420
  941MOL0     C26922   9.269   4.213   4.474  0.1653  0.5171  0.8572
  941MOL0     C26923   9.296   4.089   4.546 -0.5535 -0.2251 -0.2322
  941MOL0     O26924   9.422   4.103   4.617 -0.1297 -0.0456 -0.2628
  941MOL0     C26925   9.548   4.075   4.554  0.2002 -0.3460 -0.2454
  941MOL0     C26926   9.567   4.046   4.418  0.4722  0.0110 -0.4080
  941MOL0     C26927   9.696   4.015   4.356  0.2477 -0.4900  0.0331
  941MOL0     C26928   9.689   3.973   4.209 -0.1043  0.4458  0.5537
  941MOL0     C26929   9.811   4.023   4.434 -0.1825 -0.8074 -0.7863
  941MOL0     C26930   9.950   4.001   4.389 -0.1569 -0.2901  0.5657
  941MOL0     O26931  10.045   3.986   4.486  0.0651  0.1998 -0.6290
  941MOL0     C26932  10.162   3.936   4.438 -0.3710 -0.8918 -0.0959
  941MOL0     C26933  10.169   3.803   4.386  0.0493 -0.0373 -1.4787
  941MOL0     C26934  10.283   3.759   4.327  0.1548  0.0176  0.5599
  941MOL0     C26935  10.398   3.838   4.321 -0.9170 -0.0662  1.1665
  941MOL0     O26936  10.509   3.771   4.279  0.5198  0.2857 -0.3425
  941MOL0     C26937  10.630   3.839   4.284  0.2091  0.0438  0.0678
  941MOL0     C26938  10.736   3.740   4.234  0.5030 -0.1698  0.3598
  941MOL0     C26939  10.875   3.803   4.224 -0.4039  0.2466 -0.2219
  941MOL0     C26940  10.891   3.895   4.098  0.1458 -0.9014 -0.1806
  941MOL0     C26941  11.030   3.949   4.066 -0.5008  1.2586  0.0638
  941MOL0     C26942  11.148   3.856   4.038 -0.6086  1.1312 -0.9216
  941MOL0     C26943  11.114   3.779   3.919  0.0481 -0.4395 -0.7960
  941MOL0     C26944  11.219   3.724   3.839 -0.9828 -0.5730 -0.2332
  941MOL0    Cl26945  11.314   3.602   3.918 -0.5681 -0.3422  0.5723
  941MOL0     C26946  10.391   3.964   4.376 -0.6876 -0.0265 -0.7940
  941MOL0     C26947  10.278   4.018   4.429 -0.0396  0.1795 -0.1990
  941MOL0     O26948   9.971   3.995   4.265 -0.6039  0.4786  0.0444
  941MOL0     C26949   9.793   4.079   4.569  0.5589  0.5207  0.3955
  941MOL0     C26950   9.668   4.094   4.628  0.6200 -0.4007 -0.3463
  941MOL0     N26951   9.076   4.193   4.059  0.2547 -0.1778  0.5233
  941MOL0     N26952   9.150   4.143   3.972 -0.0057  1.3495  0.9017
  941MOL0     C26953  10.387   3.769   3.775  0.2163  0.2991 -0.1161
  941MOL0     C26954  10.486   3.676   3.761  0.4595  0.2330 -0.9608
  941MOL0     C26955  10.818   3.391   3.869  0.5132  0.9520 -0.1732
  941MOL0     C26956  10.770   3.257   3.856 -0.2546 -0.3447  1.3759
  941MOL0     C26957  10.854   3.152   3.834 -0.1668 -1.1162  0.9625
  941MOL0     C26958  10.986   3.174   3.831 -0.2316 -0.7943  0.2200
  941MOL0     O26959  11.077   3.072   3.802 -0.1932 -0.5235 -0.5919
  941MOL0     C26960  11.108   2.989   3.919  0.6427 -0.5609 -0.8862
  941MOL0     C26961  11.191   2.872   3.879  0.2333 -0.1123 -0.8113
  941MOL0     C26962  11.334   2.905   3.848 -0.4649 -0.2060 -0.2431
  941MOL0     C26963  11.430   2.880   3.969  0.5074  0.7868 -0.4265
  941MOL0     C26964  11.423   2.992   4.067 -0.9442 -0.4109 -0.8039
  941MOL0     C26965  11.415   3.066   4.154  0.4765  0.0423 -0.0948
  941MOL0     C26966  11.048   3.293   3.851 -0.0691 -0.2623 -0.9357
  941MOL0     C26967  10.959   3.400   3.872  0.1549 -0.0213  0.2286
  941MOL0     H26968  10.428   3.514   4.055  4.3144 -2.4444 -1.6798
  941MOL0     H26969  10.271   3.709   4.086 -0.2286 -0.2634  0.0723
  941MOL0     H26970  10.078   3.802   4.003 -1.7563  2.2471  4.1151
  941MOL0     H26971  10.158   3.952   4.054 -2.6512  0.2799  2.1512
  941MOL0     H26972   9.921   3.963   4.010  2.5203 -2.6350  1.9738
  941MOL0     H26973  10.028   4.086   3.922  1.9980 -0.3600  1.8295
  941MOL0     H26974  10.013   3.945   3.726  2.6054  1.1843  2.3841
  941MOL0     H26975   9.905   3.832   3.806  3.2006 -0.8424 -2.1574
  941MOL0     H26976   9.868   4.116   3.724 -1.5419 -0.6468 -4.9950
  941MOL0     H26977   9.796   3.982   3.655  2.0225 -2.4850 -0.7746
  941MOL0     H26978   9.650   3.946   3.893  2.2718 -1.9347 -0.6650
  941MOL0     H26979   9.734   4.104   3.929  2.2024 -1.2083 -0.9658
  941MOL0     H26980   9.645   4.170   3.708 -0.2368 -3.3167 -2.6097
  941MOL0     H26981   9.548   4.024   3.700 -0.6371 -0.2666  0.8552
  941MOL0     H26982   9.512   4.244   3.936 -0.9749  1.2012 -1.0455
  941MOL0     H26983   9.430   4.244   3.777  3.6553  2.3339 -0.8856
  941MOL0     H26984   9.422   4.009   3.983  0.3723 -0.7375 -1.0633
  941MOL0     H26985   9.326   4.036   3.832  0.2897  0.2031 -0.0954
  941MOL0     H26986   9.381   4.211   4.181  0.3931  0.3307 -1.6051
  941MOL0     H26987   9.173   4.398   4.292  0.3004 -0.0690  0.4301
  941MOL0     H26988   9.008   4.326   4.263  1.2492  1.5651 -3.1606
  941MOL0     H26989   9.096   4.114   4.372  3.5498 -0.9614 -0.7421
  941MOL0     H26990   9.064   4.246   4.484  0.7472 -0.1292  0.6579
  941MOL0     H26991   9.257   4.295   4.545 -2.4814  0.0844  0.9986
  941MOL0     H26992   9.352   4.223   4.403 -0.0649 -0.3590  0.4445
  941MOL0     H26993   9.301   4.004   4.478 -0.4754 -1.5635  1.3665
  941MOL0     H26994   9.219   4.062   4.619 -0.2734 -2.4095 -0.7036
  941MOL0     H26995   9.486   4.036   4.347  1.1471  2.8039 -1.6681
  941MOL0     H26996   9.592   3.970   4.159  0.5573 -1.8180 -0.7546
  941MOL0     H26997   9.736   4.055   4.153 -1.5460  0.6067 -0.4748
  941MOL0     H26998   9.740   3.877   4.191 -0.4807 -0.4612  3.8025
  941MOL0     H26999  10.088   3.735   4.412  2.2380 -1.8712  1.1539
  941MOL0     H27000  10.292   3.652   4.306  3.2884  0.2775  0.0906
  941MOL0     H27001  10.624   3.915   4.206 -0.4710 -1.0628 -0.9906
  941MOL0     H27002  10.659   3.878   4.382  2.3896  2.4016 -1.3675
  941MOL0     H27003  10.731   3.663   4.312 -0.8174  0.5544  1.0231
  941MOL0     H27004  10.703   3.704   4.136  0.5484 -0.9117  0.6079
  941MOL0     H27005  10.946   3.719   4.222 -0.3570  0.2486 -2.9602
  941MOL0     H27006  10.898   3.863   4.312  1.9702  0.9076 -1.2141
  941MOL0     H27007  10.854   3.844   4.009  0.0367 -0.1675 -0.5601
  941MOL0     H27008  10.825   3.982   4.106  0.1196 -1.0373  1.5252
  941MOL0     H27009  11.066   4.017   4.143  2.6541 -2.3113  2.1155
  941MOL0     H27010  11.031   4.006   3.972  1.3889  0.9635 -0.1375
  941MOL0     H27011  11.242   3.907   4.013 -0.5355 -0.6229 -4.9088
  941MOL0     H27012  11.155   3.792   4.127 -2.3598  1.9433 -0.1583
  941MOL0     H27013  11.045   3.837   3.857  0.2768  0.0410 -0.6091
  941MOL0     H27014  11.048   3.702   3.962 -2.5326  1.7359 -0.5768
  941MOL0     H27015  11.276   3.804   3.792 -3.5820  0.8911 -1.0814
  941MOL0     H27016  11.171   3.660   3.764 -1.3808 -2.9549  1.8919
  941MOL0     H27017  10.484   4.019   4.367  1.3212 -3.1862 -1.0336
  941MOL0     H27018  10.274   4.124   4.453 -1.8528  0.7550 -2.5692
  941MOL0     H27019   9.883   4.104   4.625  1.2404 -0.2978 -0.2996
  941MOL0     H27020   9.664   4.111   4.735  2.2717 -1.5527 -0.0651
  941MOL0     H27021  10.371   3.835   3.691  2.4306 -1.3512 -1.9627
  941MOL0     H27022  10.557   3.659   3.680  3.9400 -0.5593  2.0158
  941MOL0     H27023  10.664   3.233   3.857 -0.2024 -1.4837 -2.6343
  941MOL0     H27024  10.816   3.051   3.816 -0.4260 -0.7208 -0.9294
  941MOL0     H27025  11.165   3.055   3.985  0.4930 -0.2508 -1.0629
  941MOL0     H27026  11.019   2.957   3.972  0.7336  2.6082  1.4688
  941MOL0     H27027  11.144   2.817   3.797  1.3888 -2.6221  0.1000
  941MOL0     H27028  11.189   2.789   3.951  0.2052  1.3475  0.9433
  941MOL0     H27029  11.365   3.006   3.818  4.2424 -1.4890 -0.6094
  941MOL0     H27030  11.362   2.828   3.776  2.7337 -2.1035  2.7302
  941MOL0     H27031  11.529   2.887   3.922 -0.2625  2.9942 -1.9058
  941MOL0     H27032  11.420   2.782   4.016  0.8960  2.3160  3.0852
  941MOL0     H27033  11.411   3.129   4.240  0.0400  0.5585 -0.4938
  941MOL0     H27034  11.156   3.306   3.855  0.0574 -1.1251 -1.4322
  941MOL0     H27035  11.010   3.495   3.879  1.9941 -0.8641 -1.0459
  942MOL0     O27036   6.796   7.010   9.321  0.5806 -0.7429 -0.3622
  942MOL0     C27037   6.817   7.094   9.232  0.4143 -0.7452 -0.0042
  942MOL0     O27038   6.739   7.116   9.119  0.0748 -0.4655  0.2930
  942MOL0     C27039   6.650   7.020   9.069 -0.1224 -0.4799  0.0290
  942MOL0     C27040   6.636   7.028   8.932 -0.1604 -0.1747 -0.3327
  942MOL0     C27041   6.551   6.947   8.862 -0.0518 -0.2535 -0.8801
  942MOL0     C27042   6.496   6.842   8.938 -0.3853 -0.1805 -1.1769
  942MOL0     O27043   6.420   6.746   8.875 -0.2721  0.0230  0.7287
  942MOL0     C27044   6.501   6.664   8.796 -0.3549 -0.2613  0.1905
  942MOL0     C27045   6.410   6.605   8.690  0.3756 -0.2931 -0.5217
  942MOL0     C27046   6.408   6.703   8.572  0.7938 -1.1008 -0.2434
  942MOL0     C27047   6.289   6.665   8.475  0.2902  0.4199  1.2306
  942MOL0     C27048   6.307   6.752   8.343  0.3638  0.9115 -0.5241
  942MOL0     C27049   6.198   6.752   8.232  0.8426 -0.4621 -0.3784
  942MOL0     C27050   6.166   6.616   8.178  0.7428  0.0146  0.8902
  942MOL0     C27051   6.096   6.625   8.040 -0.2239  0.0713  0.2956
  942MOL0     N27052   5.981   6.715   8.037 -0.7139  0.3478 -0.2018
  942MOL0     C27053   5.920   6.741   7.920  0.4431  0.1064 -1.1135
  942MOL0     C27054   5.797   6.793   7.954 -1.2819  0.0785 -0.6060
  942MOL0     C27055   5.681   6.838   7.868 -0.5846  0.1684  0.5883
  942MOL0     C27056   5.730   6.899   7.730 -0.0573  0.7306  0.1664
  942MOL0     C27057   5.610   6.928   7.641  1.4270 -0.0087 -0.2005
  942MOL0     C27058   5.518   7.040   7.685  1.0579 -0.4197 -0.0747
  942MOL0     O27059   5.399   6.990   7.741  0.3235 -0.0842  0.7244
  942MOL0     C27060   5.290   6.993   7.653 -1.0158  0.6623 -0.7989
  942MOL0     C27061   5.287   6.940   7.526  0.8524 -0.5997  0.7404
  942MOL0     C27062   5.163   6.930   7.450 -0.6593 -0.2275  0.6411
  942MOL0     C27063   5.164   6.882   7.309 -0.7655  0.5533  0.4729
  942MOL0     C27064   5.050   6.999   7.503 -0.2742  0.9691 -0.8211
  942MOL0     C27065   4.931   7.023   7.429  0.7314  0.2355 -0.5267
  942MOL0     O27066   4.809   7.017   7.503  0.5073  0.1493  0.1314
  942MOL0     C27067   4.701   7.092   7.458  0.1664  0.2624  0.4269
  942MOL0     C27068   4.573   7.031   7.438  0.5140  0.4411  0.2509
  942MOL0     C27069   4.470   7.106   7.391  0.4849 -0.0408  0.8741
  942MOL0     C27070   4.486   7.243   7.376  0.3589  0.0168 -0.4396
  942MOL0     O27071   4.381   7.316   7.334  0.3859 -0.4297  0.2957
  942MOL0     C27072   4.343   7.434   7.405  0.2795  0.4057 -0.0386
  942MOL0     C27073   4.266   7.376   7.525 -0.3965 -1.4466 -0.1844
  942MOL0     C27074   4.130   7.315   7.470  0.3750 -0.1655  0.5785
  942MOL0     C27075   4.049   7.236   7.572  0.6071  0.0181 -0.0672
  942MOL0     C27076   3.922   7.181   7.508  0.4262  0.2714 -0.9098
  942MOL0     C27077   3.833   7.126   7.609 -0.2046  0.9396  0.6354
  942MOL0     C27078   3.735   7.028   7.557 -0.6096 -0.4912 -0.2311
  942MOL0     C27079   3.655   7.077   7.439  0.4128 -0.3466 -0.0961
  942MOL0    Cl27080   3.507   6.972   7.435  0.3953 -0.4880  0.0159
  942MOL0     C27081   4.610   7.299   7.382 -0.2372 -0.2307 -1.3013
  942MOL0     C27082   4.715   7.228   7.426  0.6019 -0.0041  0.3008
  942MOL0     O27083   4.941   7.058   7.310 -0.0252  1.4661  0.2633
  942MOL0     C27084   5.062   7.053   7.627  0.7179  0.1177  0.2772
  942MOL0     C27085   5.179   7.051   7.702 -0.3727 -0.4103 -0.0368
  942MOL0     N27086   5.782   6.805   8.090  0.3887  0.3240  0.8488
  942MOL0     N27087   5.893   6.751   8.132  0.0142  0.2829 -0.2939
  942MOL0     C27088   6.513   6.823   9.070 -0.8621 -0.2759 -1.0907
  942MOL0     C27089   6.579   6.922   9.138  0.4453 -0.4125 -0.5748
  942MOL0     C27090   6.943   7.163   9.245 -0.3835  0.1176 -0.1963
  942MOL0     C27091   7.038   7.126   9.343 -0.3061 -0.0772 -0.6551
  942MOL0     C27092   7.153   7.201   9.355  0.2379  0.5296  0.3440
  942MOL0     C27093   7.189   7.304   9.259 -0.7538 -0.3590 -0.4801
  942MOL0     O27094   7.298   7.386   9.259 -0.5116 -0.2823  0.3612
  942MOL0     C27095   7.385   7.384   9.374 -0.2373 -0.2565 -0.0781
  942MOL0     C27096   7.516   7.472   9.352  0.3021 -0.0482  0.0876
  942MOL0     C27097   7.606   7.400   9.251 -0.1214 -0.3858 -0.4217
  942MOL0     C27098   7.748   7.452   9.234 -0.0554 -0.3865 -0.7120
  942MOL0     C27099   7.838   7.449   9.352  0.0420  0.6357  0.2864
  942MOL0     C27100   7.884   7.410   9.460 -0.3665 -0.1785  0.2253
  942MOL0     C27101   7.102   7.327   9.155 -0.1586 -0.4451  1.0669
  942MOL0     C27102   6.979   7.258   9.149 -0.2627  0.0041 -0.3433
  942MOL0     H27103   6.691   7.102   8.874 -0.7640 -2.4034 -4.1335
  942MOL0     H27104   6.531   6.955   8.756 -1.2775  1.4598 -0.5686
  942MOL0     H27105   6.589   6.716   8.757 -2.2946  2.2697 -1.1459
  942MOL0     H27106   6.524   6.577   8.859 -3.5454  0.0332  1.9778
  942MOL0     H27107   6.457   6.513   8.655 -2.6438 -2.4841  0.7181
  942MOL0     H27108   6.309   6.580   8.726  0.5809  0.0448  0.3263
  942MOL0     H27109   6.413   6.808   8.601  0.8608 -0.9257 -0.8668
  942MOL0     H27110   6.505   6.703   8.522  0.7232  0.7837 -0.4435
  942MOL0     H27111   6.302   6.560   8.448 -0.8246  0.3238  1.0357
  942MOL0     H27112   6.196   6.685   8.529 -0.0901 -0.5580  0.9593
  942MOL0     H27113   6.331   6.856   8.366  0.0002  0.9500 -0.3027
  942MOL0     H27114   6.395   6.708   8.296  0.4950  0.0353  0.5074
  942MOL0     H27115   6.105   6.798   8.267 -0.7093 -3.4613 -0.1434
  942MOL0     H27116   6.250   6.808   8.155  3.3645 -3.1041 -0.7871
  942MOL0     H27117   6.258   6.563   8.153  1.9850  1.2368  2.6671
  942MOL0     H27118   6.109   6.551   8.245  0.1291 -3.0004 -2.2363
  942MOL0     H27119   6.059   6.527   8.010 -1.9879  0.8964 -0.3784
  942MOL0     H27120   6.168   6.662   7.966 -1.6024 -0.8063 -1.5586
  942MOL0     H27121   5.934   6.714   7.816 -1.3551 -1.2632 -1.0590
  942MOL0     H27122   5.632   6.746   7.836 -1.5415  1.0847 -0.7024
  942MOL0     H27123   5.613   6.908   7.917 -0.9449 -0.7916  1.4658
  942MOL0     H27124   5.788   6.825   7.675  0.9325 -1.1215  3.4278
  942MOL0     H27125   5.793   6.984   7.756  0.2504  0.6621 -0.3495
  942MOL0     H27126   5.554   6.834   7.639  1.2544  0.0857  0.0885
  942MOL0     H27127   5.636   6.945   7.536  2.2374  0.2247  0.0304
  942MOL0     H27128   5.505   7.113   7.605  0.5332 -1.7223 -1.2286
  942MOL0     H27129   5.563   7.091   7.771  0.2857  0.2375 -0.0537
  942MOL0     H27130   5.379   6.906   7.478 -1.3736 -2.7421 -2.4184
  942MOL0     H27131   5.237   6.801   7.300 -0.7574  0.7461 -1.8208
  942MOL0     H27132   5.067   6.860   7.265  0.0955  1.0071 -1.7968
  942MOL0     H27133   5.204   6.963   7.246 -0.9463  0.3066  0.0414
  942MOL0     H27134   4.550   6.929   7.467  1.2005  0.0020 -0.7116
  942MOL0     H27135   4.373   7.060   7.378  0.3279  0.1318  1.4107
  942MOL0     H27136   4.435   7.490   7.426  0.9431  0.1467 -2.0605
  942MOL0     H27137   4.278   7.501   7.349 -0.8890 -0.3871  0.3434
  942MOL0     H27138   4.330   7.303   7.576  1.9566 -0.9719 -2.2361
  942MOL0     H27139   4.248   7.451   7.603  0.7184  1.6350 -2.7181
  942MOL0     H27140   4.157   7.249   7.387  0.6592  0.5376  0.1016
  942MOL0     H27141   4.063   7.391   7.427  0.1822  0.2816  1.6216
  942MOL0     H27142   4.111   7.153   7.610  1.0290  0.0939 -0.5879
  942MOL0     H27143   4.012   7.301   7.652  0.9855  0.0022  0.1232
  942MOL0     H27144   3.946   7.107   7.431  0.6643 -0.4869 -0.1158
  942MOL0     H27145   3.875   7.269   7.462  4.1420  2.8157 -0.4070
  942MOL0     H27146   3.895   7.091   7.692  3.0841 -0.1261 -2.0422
  942MOL0     H27147   3.774   7.214   7.638  3.0421  2.5529  3.0214
  942MOL0     H27148   3.668   7.016   7.642 -2.9502  1.1361 -1.7410
  942MOL0     H27149   3.787   6.940   7.516 -0.6422 -0.7191  0.2194
  942MOL0     H27150   3.707   7.079   7.343 -0.3408 -1.4897 -0.5589
  942MOL0     H27151   3.617   7.177   7.459 -3.1105 -1.2397 -1.4323
  942MOL0     H27152   4.615   7.402   7.350 -2.3601  0.7313  1.1485
  942MOL0     H27153   4.815   7.270   7.430  0.4980  0.2447  0.3089
  942MOL0     H27154   4.978   7.108   7.670 -0.2018 -0.3276 -0.8763
  942MOL0     H27155   5.175   7.105   7.796 -1.8040  0.1524 -0.3841
  942MOL0     H27156   6.474   6.734   9.117  1.2472 -1.0037 -0.5773
  942MOL0     H27157   6.594   6.924   9.245  2.2410 -0.1181 -0.7963
  942MOL0     H27158   7.021   7.043   9.411 -3.5528 -0.3808 -1.6739
  942MOL0     H27159   7.223   7.181   9.436  1.9786  2.5368 -0.5528
  942MOL0     H27160   7.327   7.409   9.463  1.5019 -2.7852  1.8864
  942MOL0     H27161   7.412   7.279   9.389 -0.6951 -0.2312  0.9639
  942MOL0     H27162   7.570   7.474   9.447 -2.9227  0.2369  2.0956
  942MOL0     H27163   7.488   7.572   9.319  0.7380  0.0477  0.0090
  942MOL0     H27164   7.556   7.415   9.155 -0.8146  4.0321  0.4055
  942MOL0     H27165   7.615   7.294   9.276  0.2656 -0.6928 -1.7781
  942MOL0     H27166   7.746   7.556   9.202 -0.5517 -0.8491 -2.3244
  942MOL0     H27167   7.787   7.400   9.146 -1.4247 -0.7958 -1.1157
  942MOL0     H27168   7.921   7.363   9.549  0.3386 -0.8742 -0.4147
  942MOL0     H27169   7.124   7.404   9.082  1.3948 -1.3158  0.5631
  942MOL0     H27170   6.902   7.285   9.076 -1.1558 -1.5277 -0.0319
  943MOL0     O27171   9.469   8.484   4.909  0.5145 -0.4402 -0.0307
  943MOL0     C27172   9.539   8.396   4.856 -0.3238  0.7573 -0.6080
  943MOL0     O27173   9.645   8.407   4.769  0.2723 -0.0218  0.0345
  943MOL0     C27174   9.695   8.533   4.734  0.5415  0.6262 -0.4907
  943MOL0     C27175   9.719   8.555   4.604  1.6749  0.6148 -0.2624
  943MOL0     C27176   9.794   8.664   4.565  0.7350 -0.0247  0.0936
  943MOL0     C27177   9.844   8.753   4.658 -0.1503 -0.1122  0.8730
  943MOL0     O27178   9.918   8.858   4.616 -1.0541 -0.3493  0.5596
  943MOL0     C27179  10.059   8.831   4.644  0.5307  0.2154  0.0712
  943MOL0     C27180  10.111   8.969   4.681 -0.7037  0.0863  0.4311
  943MOL0     C27181  10.255   8.958   4.682  0.0858  0.3608 -0.2574
  943MOL0     C27182  10.321   9.090   4.708  0.5594  0.4230 -0.0309
  943MOL0     C27183  10.472   9.084   4.729  0.3224  0.4609  0.2382
  943MOL0     C27184  10.547   9.050   4.597 -0.1216  0.1095 -0.4007
  943MOL0     C27185  10.697   9.049   4.597  0.6770  0.6204 -0.0293
  943MOL0     C27186  10.741   9.188   4.590 -0.3019  1.2665  0.8387
  943MOL0     N27187  10.880   9.199   4.637  0.7738  0.3211  0.6053
  943MOL0     C27188  10.909   9.224   4.770  0.3081 -0.0966  0.2866
  943MOL0     C27189  11.044   9.217   4.781  0.0995  0.2524  0.2415
  943MOL0     C27190  11.128   9.242   4.903 -0.0687  0.8451 -0.0221
  943MOL0     C27191  11.209   9.116   4.938 -0.3302 -0.2669 -0.3574
  943MOL0     C27192  11.285   9.127   5.071  0.7876 -0.5442  1.5739
  943MOL0     C27193  11.371   9.245   5.105 -0.2640  0.4476  0.1983
  943MOL0     O27194  11.446   9.219   5.224 -0.1047  0.3764  0.0650
  943MOL0     C27195  11.547   9.301   5.257  0.6215  0.0498 -0.3291
  943MOL0     C27196  11.642   9.268   5.356 -0.2302  0.4194  0.3472
  943MOL0     C27197  11.751   9.348   5.391 -0.2261  0.2954 -0.9984
  943MOL0     C27198  11.834   9.302   5.503  0.2323  0.4072  0.2848
  943MOL0     C27199  11.760   9.482   5.344  0.5216  0.1849 -0.3209
  943MOL0     C27200  11.876   9.568   5.374  0.0271  0.0541 -0.2876
  943MOL0     O27201  11.993   9.509   5.414  0.0729  0.0649  0.3168
  943MOL0     C27202  12.103   9.572   5.457 -0.9329 -0.2265 -1.0567
  943MOL0     C27203  12.144   9.693   5.408  0.8345 -0.0951 -0.9726
  943MOL0     C27204  12.247   9.756   5.476  0.4353 -0.6489  0.2480
  943MOL0     C27205  12.311   9.704   5.593 -0.3549 -0.9421 -0.1855
  943MOL0     O27206  12.411   9.767   5.662 -1.1352  0.3313 -0.2066
  943MOL0     C27207  12.458   9.711   5.787  0.1830 -0.7847  0.2075
  943MOL0     C27208  12.557   9.798   5.853 -0.3481  0.1128  0.3494
  943MOL0     C27209  12.497   9.929   5.919  0.4480  0.1982 -0.3891
  943MOL0     C27210  12.441   9.908   6.059  0.3768  0.2746  0.4105
  943MOL0     C27211  12.413  10.045   6.121 -0.1655 -0.4299  0.7995
  943MOL0     C27212  12.532  10.114   6.179 -0.9506  0.1868  0.7207
  943MOL0     C27213  12.489  10.232   6.273  0.5660 -0.0456  0.9203
  943MOL0     C27214  12.599  10.293   6.351 -1.2262  0.5002 -0.6613
  943MOL0    Cl27215  12.726  10.380   6.257  0.2567  0.1098 -0.0676
  943MOL0     C27216  12.265   9.578   5.642 -0.0019  0.3440  0.4940
  943MOL0     C27217  12.166   9.510   5.563 -0.8939 -0.1115 -0.1007
  943MOL0     O27218  11.857   9.690   5.352 -0.0326 -0.3315 -0.3674
  943MOL0     C27219  11.667   9.520   5.249  0.4159 -0.2582 -0.4804
  943MOL0     C27220  11.570   9.428   5.201 -1.0355 -0.6259 -0.2911
  943MOL0     N27221  11.094   9.207   4.648 -0.2229  0.6602 -0.2335
  943MOL0     N27222  11.001   9.186   4.566  0.0533  0.6853 -0.4299
  943MOL0     C27223   9.820   8.732   4.795  0.1684  0.3456  0.0605
  943MOL0     C27224   9.749   8.618   4.829  0.0679  0.6346 -0.5283
  943MOL0     C27225   9.502   8.262   4.899 -0.4562 -0.0532  0.2228
  943MOL0     C27226   9.571   8.153   4.842  0.0124 -0.5156 -0.7167
  943MOL0     C27227   9.518   8.025   4.848  0.7199  0.6590 -1.6558
  943MOL0     C27228   9.410   7.993   4.932  0.8460  0.3807 -0.6119
  943MOL0     O27229   9.371   7.862   4.954 -0.4643  0.0379  0.3133
  943MOL0     C27230   9.468   7.754   4.967  1.0815  0.0980  0.4119
  943MOL0     C27231   9.555   7.783   5.100  1.1599  0.7299  0.1711
  943MOL0     C27232   9.647   7.658   5.128  0.3816  0.0051  0.0824
  943MOL0     C27233   9.746   7.696   5.237  0.3674 -0.6363  0.0157
  943MOL0     C27234   9.829   7.595   5.303 -0.6322  0.1767 -0.0124
  943MOL0     C27235   9.892   7.506   5.360  0.6709  0.8874  0.2529
  943MOL0     C27236   9.348   8.097   4.984 -1.4348 -0.6606  0.1687
  943MOL0     C27237   9.390   8.232   4.972  0.4189  0.1722  0.3055
  943MOL0     H27238   9.686   8.479   4.534 -1.9874 -0.7004  2.5375
  943MOL0     H27239   9.818   8.681   4.461 -1.0387 -0.4654 -0.4282
  943MOL0     H27240  10.088   8.766   4.727  0.7505 -1.9761 -1.6446
  943MOL0     H27241  10.106   8.792   4.553  1.1989 -2.6320  1.5299
  943MOL0     H27242  10.081   9.029   4.594 -1.0377 -3.8403 -2.4387
  943MOL0     H27243  10.069   9.008   4.774  1.1784  0.8131  1.0118
  943MOL0     H27244  10.280   8.890   4.765 -1.6988 -0.8393 -0.6336
  943MOL0     H27245  10.277   8.915   4.584 -1.5211  1.5227 -1.1765
  943MOL0     H27246  10.299   9.162   4.628  0.9162 -2.0639 -2.5229
  943MOL0     H27247  10.280   9.124   4.803  1.2518 -0.2307  0.5141
  943MOL0     H27248  10.509   9.184   4.751 -1.1580  1.3425 -1.0306
  943MOL0     H27249  10.492   9.012   4.809  0.2769 -0.6255 -0.6957
  943MOL0     H27250  10.512   8.954   4.559  2.2202 -2.6954  3.8067
  943MOL0     H27251  10.518   9.130   4.528  1.4408 -0.3377 -1.6431
  943MOL0     H27252  10.726   8.997   4.689 -1.3974  1.2044  1.0035
  943MOL0     H27253  10.737   8.996   4.510 -5.3099 -2.5894 -1.3477
  943MOL0     H27254  10.677   9.260   4.642 -4.0754  2.3644 -4.4846
  943MOL0     H27255  10.742   9.222   4.486  1.0822  1.2286  0.8281
  943MOL0     H27256  10.835   9.258   4.841 -0.6348  2.5056 -1.7836
  943MOL0     H27257  11.184   9.335   4.890 -0.9307  1.2567 -0.9443
  943MOL0     H27258  11.059   9.245   4.988 -0.3905 -0.8554 -0.1733
  943MOL0     H27259  11.283   9.089   4.862 -0.5409  2.7434 -1.7545
  943MOL0     H27260  11.142   9.030   4.951  0.5274 -0.7815  0.8851
  943MOL0     H27261  11.350   9.042   5.092 -0.1353 -0.9003  3.1401
  943MOL0     H27262  11.206   9.125   5.147  0.6487 -0.2556  1.4380
  943MOL0     H27263  11.317   9.340   5.116  2.1479  2.1691 -1.5758
  943MOL0     H27264  11.439   9.263   5.021 -1.3101  0.1218 -0.7556
  943MOL0     H27265  11.634   9.168   5.397  0.3405  1.2370  2.6211
  943MOL0     H27266  11.802   9.218   5.565  0.2366  1.0214  1.1252
  943MOL0     H27267  11.928   9.266   5.460 -1.6836 -2.2247 -2.1456
  943MOL0     H27268  11.833   9.386   5.572  0.1119  0.1592  0.5858
  943MOL0     H27269  12.085   9.749   5.337 -0.8731 -0.5078  0.0696
  943MOL0     H27270  12.281   9.855   5.448 -4.4065  0.6112 -2.2088
  943MOL0     H27271  12.375   9.714   5.859  2.2395  5.4428  2.9576
  943MOL0     H27272  12.494   9.608   5.772 -1.1221 -1.3179  0.5855
  943MOL0     H27273  12.606   9.737   5.929  0.2999  0.6116  0.3423
  943MOL0     H27274  12.630   9.818   5.774 -1.2959 -3.0033 -1.4738
  943MOL0     H27275  12.413   9.964   5.858  0.2498 -1.0599 -0.8613
  943MOL0     H27276  12.581  10.000   5.915  2.0461 -1.4529  1.5217
  943MOL0     H27277  12.356   9.839   6.056  1.1524 -0.7653  1.6136
  943MOL0     H27278  12.522   9.854   6.109  0.1856  0.0355  0.4660
  943MOL0     H27279  12.348  10.020   6.205  0.4251 -1.4321  0.9642
  943MOL0     H27280  12.357  10.107   6.050  1.5852 -0.1652 -0.4273
  943MOL0     H27281  12.578  10.034   6.237  0.4866 -0.9653 -1.8517
  943MOL0     H27282  12.596  10.142   6.095  1.1790 -1.7229  1.5996
  943MOL0     H27283  12.415  10.191   6.343  2.1303 -3.9759  0.5165
  943MOL0     H27284  12.436  10.310   6.216 -0.8910  1.0053  3.5474
  943MOL0     H27285  12.649  10.219   6.415 -1.2310  0.5949 -0.5491
  943MOL0     H27286  12.545  10.367   6.411  1.9226  1.5386  1.1043
  943MOL0     H27287  12.299   9.526   5.731 -2.3264 -1.6348  0.3319
  943MOL0     H27288  12.149   9.407   5.593 -1.6164  0.5623  1.9855
  943MOL0     H27289  11.672   9.617   5.201  0.8698 -1.1317 -2.3064
  943MOL0     H27290  11.506   9.466   5.121 -3.8238 -2.1790  1.0537
  943MOL0     H27291   9.868   8.784   4.877 -2.5593  1.2874  1.1970
  943MOL0     H27292   9.739   8.586   4.933  2.3124  1.3722 -0.0371
  943MOL0     H27293   9.656   8.160   4.775  2.7693 -0.9220  2.5230
  943MOL0     H27294   9.562   7.935   4.807 -0.6626 -1.2040  0.6444
  943MOL0     H27295   9.421   7.656   4.973  0.1248  0.6062  1.8192
  943MOL0     H27296   9.539   7.754   4.884  3.3897  3.9554  2.0901
  943MOL0     H27297   9.481   7.780   5.180  2.5684 -2.8765  1.5538
  943MOL0     H27298   9.608   7.879   5.097 -0.2221  1.5047 -1.2481
  943MOL0     H27299   9.689   7.630   5.030 -0.1954  2.0054 -0.7928
  943MOL0     H27300   9.573   7.584   5.161 -0.6067  0.3477 -1.2321
  943MOL0     H27301   9.696   7.756   5.314  0.2733 -0.9472  0.2011
  943MOL0     H27302   9.814   7.770   5.192 -1.4432  3.1289  2.8682
  943MOL0     H27303   9.946   7.434   5.419 -1.8855  1.5849  3.7707
  943MOL0     H27304   9.252   8.090   5.034 -2.1052  1.6855 -0.6687
  943MOL0     H27305   9.337   8.309   5.027  2.4704  0.4934  1.9823
  944MOL0     O27306   0.659  10.785  10.920 -0.0108 -0.1500 -0.1408
  944MOL0     C27307   0.761  10.762  10.861  0.1161 -0.3409 -0.6729
  944MOL0     O27308   0.876  10.834  10.877 -0.8209  0.1567  0.2788
  944MOL0     C27309   0.881  10.952  10.937  0.3007 -0.1858 -0.5243
  944MOL0     C27310   0.987  11.038  10.907 -0.1945  0.2238  0.6574
  944MOL0     C27311   1.002  11.166  10.965 -1.3852 -0.2152  0.3174
  944MOL0     C27312   0.913  11.205  11.066 -0.3503 -0.0114  0.3587
  944MOL0     O27313   0.921  11.332  11.136  0.1446  0.4461 -0.0931
  944MOL0     C27314   1.057  11.367  11.172 -0.0846 -0.0968  0.4437
  944MOL0     C27315   1.114  11.287  11.292  0.4599 -0.6474 -0.5184
  944MOL0     C27316   1.028  11.261  11.414 -0.0128 -0.5488  0.7598
  944MOL0     C27317   0.990  11.391  11.486  0.1781  0.0354 -1.0345
  944MOL0     C27318   0.846  11.385  11.551 -0.2140 -0.0765 -0.4594
  944MOL0     C27319   0.729  11.383  11.455  0.8415 -0.1881 -0.9170
  944MOL0     C27320   0.602  11.421  11.533  0.7746  0.5951 -0.4447
  944MOL0     C27321   0.474  11.431  11.444  0.6109 -0.4349  0.3471
  944MOL0     N27322   0.439  11.309  11.369  0.1982  0.1095 -0.0213
  944MOL0     C27323   0.402  11.318  11.244 -0.2667 -0.2093  0.1372
  944MOL0     C27324   0.392  11.187  11.202 -0.2789  0.4238 -0.0542
  944MOL0     C27325   0.367  11.143  11.056  0.2904  0.1197  0.2601
  944MOL0     C27326   0.219  11.124  11.025  0.5408  0.8131 -0.0062
  944MOL0     C27327   0.152  11.012  11.117 -0.9006 -0.2321  0.3443
  944MOL0     C27328  -0.008  11.024  11.098  0.3046 -0.0601 -0.2434
  944MOL0     O27329  -0.062  11.162  11.088  0.2883  0.2882 -0.5423
  944MOL0     C27330  -0.196  11.183  11.055  0.1090  0.2604  0.4832
  944MOL0     C27331  -0.290  11.083  11.055 -0.1540 -0.3556  0.5210
  944MOL0     C27332  -0.430  11.108  11.059  0.9891  0.8700 -0.2707
  944MOL0     C27333  -0.524  10.993  11.086  0.0505  0.5752  0.5792
  944MOL0     C27334  -0.476  11.247  11.042  0.4213 -0.0894  1.0782
  944MOL0     C27335  -0.619  11.289  11.034 -0.3326 -0.0020 -0.6212
  944MOL0     O27336  -0.718  11.201  11.061 -0.0652  0.0412  0.1226
  944MOL0     C27337  -0.832  11.239  11.131  1.3434  0.2019 -0.2870
  944MOL0     C27338  -0.856  11.356  11.204 -0.6980 -0.2066 -0.3266
  944MOL0     C27339  -0.987  11.377  11.255  0.1182  0.2446 -0.5782
  944MOL0     C27340  -1.084  11.284  11.235  0.8196  0.9583 -0.1204
  944MOL0     O27341  -1.206  11.306  11.304 -0.6895 -0.5610 -0.2303
  944MOL0     C27342  -1.311  11.211  11.311 -0.5031 -0.2508  0.2697
  944MOL0     C27343  -1.404  11.246  11.421 -0.1478  0.5690  0.1087
  944MOL0     C27344  -1.518  11.155  11.446 -0.7969  0.2803  1.1785
  944MOL0     C27345  -1.611  11.149  11.321  0.3125  0.0480 -0.5844
  944MOL0     C27346  -1.765  11.123  11.346  0.2077 -0.0175  0.9414
  944MOL0     C27347  -1.842  11.243  11.401 -0.6756 -0.7338  0.2373
  944MOL0     C27348  -1.987  11.209  11.418 -0.3058  0.6270 -0.2773
  944MOL0     C27349  -2.085  11.323  11.447 -0.0934 -0.0728 -0.1916
  944MOL0    Cl27350  -2.260  11.245  11.462 -0.2724 -0.3512  0.1624
  944MOL0     C27351  -1.070  11.180  11.148 -0.4860  0.7623  0.1416
  944MOL0     C27352  -0.947  11.155  11.087  0.1997 -1.1003 -0.0792
  944MOL0     O27353  -0.638  11.406  11.010  0.3719 -0.4424 -0.3341
  944MOL0     C27354  -0.376  11.343  11.006  0.7202 -0.0596 -0.0254
  944MOL0     C27355  -0.242  11.307  11.024  0.7403  0.2732  0.0381
  944MOL0     N27356   0.408  11.104  11.318  0.0334  0.1984 -0.6885
  944MOL0     N27357   0.449  11.181  11.415  0.3637 -0.5437  0.4264
  944MOL0     C27358   0.823  11.112  11.118 -0.1191  0.4069 -0.7768
  944MOL0     C27359   0.802  10.988  11.048  1.1378 -0.2787 -0.0491
  944MOL0     C27360   0.773  10.643  10.770  0.1904 -0.1408 -0.5763
  944MOL0     C27361   0.884  10.628  10.687 -0.5897  0.7459  0.2502
  944MOL0     C27362   0.875  10.522  10.596 -0.9663 -0.2293  0.9568
  944MOL0     C27363   0.772  10.427  10.585 -0.1093  0.2539  0.1204
  944MOL0     O27364   0.766  10.315  10.498 -0.3251 -0.2215  0.2534
  944MOL0     C27365   0.865  10.299  10.393  0.0506  0.1605  0.7137
  944MOL0     C27366   0.854  10.154  10.348  0.5556  0.2035  0.5406
  944MOL0     C27367   0.878  10.053  10.465 -0.1060  0.2960  0.6009
  944MOL0     C27368   0.753   9.982  10.523  0.1944 -0.1950  0.1762
  944MOL0     C27369   0.693   9.901  10.415 -0.8181  0.6044 -0.6104
  944MOL0     C27370   0.643   9.830  10.332  0.3089  0.8205  0.8248
  944MOL0     C27371   0.669  10.439  10.683 -0.2177 -0.1292  1.2262
  944MOL0     C27372   0.668  10.550  10.767  0.0828  0.2541 -0.3129
  944MOL0     H27373   1.061  11.007  10.834 -1.5134 -2.0966  0.2092
  944MOL0     H27374   1.083  11.223  10.922  0.6980 -2.7498  0.6205
  944MOL0     H27375   1.129  11.352  11.090 -1.2837  1.3901 -0.9472
  944MOL0     H27376   1.060  11.474  11.193  1.3606 -0.1435  0.5920
  944MOL0     H27377   1.148  11.191  11.250  3.7564 -0.5117  1.4864
  944MOL0     H27378   1.203  11.345  11.320  1.0499 -0.7572 -2.0590
  944MOL0     H27379   0.943  11.196  11.392  2.4702 -3.7874  0.0533
  944MOL0     H27380   1.087  11.198  11.481  0.4084 -1.7507 -0.6687
  944MOL0     H27381   1.074  11.401  11.555  0.2762 -0.9541 -0.9885
  944MOL0     H27382   0.990  11.476  11.418  0.2255  0.2153 -0.8116
  944MOL0     H27383   0.843  11.304  11.625  2.1482  1.2089  1.1814
  944MOL0     H27384   0.840  11.480  11.604  1.7221  0.6222 -1.3906
  944MOL0     H27385   0.745  11.443  11.365  0.1975  0.2567 -0.7400
  944MOL0     H27386   0.711  11.279  11.424  2.8525 -1.1394  0.8518
  944MOL0     H27387   0.585  11.350  11.615 -1.7185  0.7021 -0.7871
  944MOL0     H27388   0.615  11.522  11.573 -1.8521  0.8357 -0.0338
  944MOL0     H27389   0.492  11.513  11.375 -2.2922  1.3119  1.4800
  944MOL0     H27390   0.390  11.455  11.510 -1.6976  0.6137 -2.7395
  944MOL0     H27391   0.392  11.411  11.189  0.6196 -1.1295 -1.6725
  944MOL0     H27392   0.403  11.223  10.991 -0.4138  0.4901  0.3240
  944MOL0     H27393   0.420  11.052  11.025 -0.2449  0.0675 -0.5203
  944MOL0     H27394   0.212  11.100  10.918 -1.7560  2.9022 -0.4306
  944MOL0     H27395   0.164  11.218  11.037 -0.3248  0.4572 -0.9919
  944MOL0     H27396   0.168  11.020  11.224 -1.2994  1.5901  0.2958
  944MOL0     H27397   0.189  10.913  11.088  1.8766  0.9111 -0.2850
  944MOL0     H27398  -0.049  10.979  11.189  0.4816  2.7341  1.3213
  944MOL0     H27399  -0.029  10.958  11.013  2.6477  0.4526 -1.2975
  944MOL0     H27400  -0.247  10.984  11.071  2.3155  0.3917 -1.1160
  944MOL0     H27401  -0.483  10.916  11.152 -4.3867 -0.4940  2.5124
  944MOL0     H27402  -0.603  11.028  11.154  0.6503 -0.9279  2.1356
  944MOL0     H27403  -0.563  10.948  10.995  0.0706  0.8333  0.4431
  944MOL0     H27404  -0.784  11.437  11.210 -1.2797  0.3107 -0.1036
  944MOL0     H27405  -1.011  11.472  11.303 -1.1310  0.0430 -0.7706
  944MOL0     H27406  -1.366  11.220  11.217 -2.5544 -3.0920  1.0792
  944MOL0     H27407  -1.279  11.107  11.323 -0.5412 -0.0137  2.8514
  944MOL0     H27408  -1.348  11.255  11.514  0.4332 -2.8721  0.2168
  944MOL0     H27409  -1.445  11.345  11.398 -1.4654 -0.2141 -1.0186
  944MOL0     H27410  -1.575  11.188  11.533 -1.4980  1.9996  0.1358
  944MOL0     H27411  -1.492  11.051  11.465 -2.6122 -0.9577 -2.1365
  944MOL0     H27412  -1.586  11.237  11.263  3.7448 -1.3225 -1.4106
  944MOL0     H27413  -1.574  11.065  11.261 -2.3974 -1.5044 -0.2661
  944MOL0     H27414  -1.786  11.033  11.406 -0.1817 -0.4291  0.2030
  944MOL0     H27415  -1.811  11.105  11.248  1.0299  4.5568 -0.5136
  944MOL0     H27416  -1.796  11.280  11.494  0.4034 -1.3353 -0.0455
  944MOL0     H27417  -1.835  11.325  11.329 -0.7131  0.2656  1.3220
  944MOL0     H27418  -2.016  11.135  11.493 -4.7660 -0.9511 -3.2058
  944MOL0     H27419  -2.017  11.162  11.325  0.3708 -0.9736  0.2784
  944MOL0     H27420  -2.083  11.396  11.365 -1.9028  1.3960  0.9974
  944MOL0     H27421  -2.049  11.376  11.535 -1.7282  1.3587 -0.3313
  944MOL0     H27422  -1.150  11.108  11.131  1.1846 -1.7455  2.1024
  944MOL0     H27423  -0.924  11.063  11.035  3.7636 -0.7026  0.5326
  944MOL0     H27424  -0.404  11.443  10.975  0.8266 -0.1700 -0.4902
  944MOL0     H27425  -0.165  11.383  11.015 -1.1993  2.3613  0.1633
  944MOL0     H27426   0.756  11.137  11.199 -3.2960 -0.9742 -2.7678
  944MOL0     H27427   0.725  10.922  11.087  1.4318 -1.1964 -0.9857
  944MOL0     H27428   0.969  10.695  10.690 -0.1538  0.3630 -1.9425
  944MOL0     H27429   0.957  10.509  10.526 -2.0817  2.9151 -1.1289
  944MOL0     H27430   0.824  10.366  10.317  1.0651  2.8943  2.4271
  944MOL0     H27431   0.962  10.334  10.430  0.5862  1.2372 -1.5596
  944MOL0     H27432   0.926  10.142  10.266 -2.0828 -3.5445 -1.5693
  944MOL0     H27433   0.754  10.140  10.305  0.6236  0.4941  0.2814
  944MOL0     H27434   0.931  10.105  10.544  1.4125  2.6194 -1.7603
  944MOL0     H27435   0.946   9.978  10.423 -0.8851 -0.7083  1.0982
  944MOL0     H27436   0.694  10.066  10.559  1.8247  0.7424  0.7796
  944MOL0     H27437   0.786   9.922  10.609 -0.1556 -2.1786 -1.0104
  944MOL0     H27438   0.588   9.769  10.263  0.4641  2.6877 -1.0174
  944MOL0     H27439   0.580  10.378  10.690 -0.0892 -0.6149 -0.8552
  944MOL0     H27440   0.573  10.561  10.817 -2.0054  2.9647 -4.3070
  945MOL0     O27441   6.110   4.618   7.703 -0.5080  0.8048 -0.4939
  945MOL0     C27442   6.203   4.634   7.786 -1.0395  0.6356  0.4402
  945MOL0     O27443   6.199   4.677   7.915  0.3684 -0.1462 -0.8303
  945MOL0     C27444   6.084   4.719   7.967 -0.6430  0.0214  0.6849
  945MOL0     C27445   5.980   4.619   7.988 -0.5456 -0.7956 -1.1581
  945MOL0     C27446   5.865   4.657   8.055  0.5954 -0.3900 -0.0101
  945MOL0     C27447   5.837   4.799   8.084 -0.1776  1.4259 -0.7973
  945MOL0     O27448   5.714   4.816   8.138 -0.0211 -0.2327 -0.0363
  945MOL0     C27449   5.702   4.940   8.211  0.3317 -0.1369 -0.0908
  945MOL0     C27450   5.563   4.941   8.285  0.2418  0.3097 -0.0701
  945MOL0     C27451   5.548   4.831   8.386  0.6747  0.8678  0.0703
  945MOL0     C27452   5.402   4.839   8.442  0.3193 -0.4459  0.0985
  945MOL0     C27453   5.300   4.766   8.348 -0.8019  0.3877  0.0541
  945MOL0     C27454   5.171   4.762   8.424  0.5830  0.3535  0.9646
  945MOL0     C27455   5.073   4.668   8.343  0.9246  0.0105 -0.0331
  945MOL0     C27456   4.955   4.601   8.426 -0.1702 -0.4479  1.0674
  945MOL0     N27457   4.889   4.692   8.527  0.4103  0.3388  1.0507
  945MOL0     C27458   4.910   4.682   8.662  0.1046 -0.4411  0.7385
  945MOL0     C27459   4.854   4.797   8.710 -0.1108  0.3861  0.4332
  945MOL0     C27460   4.843   4.834   8.859 -0.0709  0.2881 -0.1749
  945MOL0     C27461   4.701   4.867   8.916 -0.4038  0.9343  0.8307
  945MOL0     C27462   4.611   4.745   8.926 -0.5582 -0.3490 -0.8500
  945MOL0     C27463   4.466   4.801   8.935 -0.1700 -0.4495  0.1792
  945MOL0     O27464   4.384   4.683   8.941  0.1014 -0.8150  1.2042
  945MOL0     C27465   4.250   4.720   8.927  0.0186 -0.0953 -0.7912
  945MOL0     C27466   4.163   4.621   8.872  0.6917 -0.2444 -0.0154
  945MOL0     C27467   4.026   4.651   8.861  0.4009  0.6358  1.1178
  945MOL0     C27468   3.946   4.537   8.796 -0.2482  0.2424 -0.1935
  945MOL0     C27469   3.970   4.767   8.904  0.7003 -0.2292  0.2787
  945MOL0     C27470   3.825   4.803   8.880 -0.5943  0.4556 -0.3294
  945MOL0     O27471   3.798   4.928   8.882  0.2226 -0.1867 -0.4018
  945MOL0     C27472   3.670   4.963   8.918 -0.2660  0.6493  0.5864
  945MOL0     C27473   3.636   4.977   9.050  0.0282  0.9020  0.5043
  945MOL0     C27474   3.506   5.018   9.085  0.3334 -0.6396 -0.6739
  945MOL0     C27475   3.412   5.035   8.980 -0.6066  0.8481  0.2209
  945MOL0     O27476   3.272   5.028   8.989 -0.9292  0.3214  0.0753
  945MOL0     C27477   3.222   5.061   9.120  0.5515 -0.3602  0.8218
  945MOL0     C27478   3.087   5.131   9.112  0.3373  0.5584 -0.0970
  945MOL0     C27479   3.087   5.258   9.030 -0.1434  0.4320  0.1133
  945MOL0     C27480   2.952   5.339   9.036  0.1052  0.1582 -0.3809
  945MOL0     C27481   2.961   5.485   8.985  0.4067 -0.1841 -0.4515
  945MOL0     C27482   2.824   5.552   8.964  0.5175  0.3620  0.0122
  945MOL0     C27483   2.821   5.701   8.936  1.2794  0.0649  0.6757
  945MOL0     C27484   2.683   5.758   8.983 -0.6071 -0.3470 -0.1534
  945MOL0    Cl27485   2.667   5.939   8.940 -0.1226 -0.2550 -0.0670
  945MOL0     C27486   3.455   5.031   8.845 -0.3526  0.2675 -0.1591
  945MOL0     C27487   3.579   4.989   8.817 -0.1904  0.0628  0.6464
  945MOL0     O27488   3.741   4.709   8.889  0.2226 -0.6260 -0.7486
  945MOL0     C27489   4.054   4.870   8.934  0.1106 -0.3226 -0.3325
  945MOL0     C27490   4.187   4.847   8.954 -0.6671 -0.5672  0.5507
  945MOL0     N27491   4.785   4.858   8.611  1.0772  0.3033  0.0550
  945MOL0     N27492   4.800   4.790   8.498  0.9298  0.0466 -0.6045
  945MOL0     C27493   5.938   4.895   8.060 -0.1629 -0.7517  1.0255
  945MOL0     C27494   6.064   4.852   8.009 -0.3637  0.2435 -1.2834
  945MOL0     C27495   6.338   4.593   7.737  0.1227  0.1590 -0.3900
  945MOL0     C27496   6.333   4.516   7.616 -0.8111  0.3310 -0.2476
  945MOL0     C27497   6.452   4.464   7.563 -0.6084 -0.3991 -0.5002
  945MOL0     C27498   6.571   4.472   7.632 -0.1289 -0.0727 -0.6239
  945MOL0     O27499   6.671   4.397   7.579 -0.5949  0.2372  0.6291
  945MOL0     C27500   6.778   4.345   7.653  0.1012 -0.2902  0.4201
  945MOL0     C27501   6.892   4.443   7.650  0.0721  0.7806  0.4973
  945MOL0     C27502   7.027   4.373   7.698  1.0291 -0.3918 -0.2817
  945MOL0     C27503   7.157   4.453   7.675 -0.0042  0.2041  0.5155
  945MOL0     C27504   7.210   4.443   7.537 -0.1642 -0.4701  0.5362
  945MOL0     C27505   7.254   4.429   7.426  0.5054  0.2526  0.5467
  945MOL0     C27506   6.576   4.544   7.754 -0.1744 -0.1670 -0.2786
  945MOL0     C27507   6.455   4.607   7.806 -0.0422  0.1558 -0.2608
  945MOL0     H27508   5.993   4.520   7.943  3.5606 -0.6813 -0.5543
  945MOL0     H27509   5.788   4.582   8.067  0.1276 -1.6563 -7.1068
  945MOL0     H27510   5.789   4.939   8.277  2.0209 -2.2540 -2.1428
  945MOL0     H27511   5.711   5.026   8.143 -0.9596 -0.5670 -0.8503
  945MOL0     H27512   5.561   5.024   8.356 -1.1722  0.6301 -0.4499
  945MOL0     H27513   5.486   4.936   8.207  2.1967 -2.2282 -2.0470
  945MOL0     H27514   5.556   4.733   8.338 -2.0661 -1.1367  3.3087
  945MOL0     H27515   5.628   4.822   8.460 -0.2151  0.7592  1.0428
  945MOL0     H27516   5.398   4.793   8.541 -2.7357 -3.1549 -1.0696
  945MOL0     H27517   5.382   4.945   8.457  0.7755 -0.4058  0.4127
  945MOL0     H27518   5.281   4.816   8.253 -2.0651 -0.6237 -0.2433
  945MOL0     H27519   5.349   4.669   8.333  0.4129  1.0973 -0.7797
  945MOL0     H27520   5.185   4.722   8.525 -1.1615  0.3362  1.2158
  945MOL0     H27521   5.124   4.860   8.438 -0.3282 -0.0168  0.5569
  945MOL0     H27522   5.025   4.747   8.284  1.2551  1.5344  1.6400
  945MOL0     H27523   5.124   4.605   8.269 -3.0576  1.8751 -4.9483
  945MOL0     H27524   5.000   4.513   8.474 -0.0897 -1.4983 -0.8114
  945MOL0     H27525   4.884   4.569   8.350 -0.0394 -1.0771  1.2006
  945MOL0     H27526   4.977   4.614   8.714  3.2225  0.8569 -1.2800
  945MOL0     H27527   4.894   4.756   8.916 -0.2421  0.4799  0.2404
  945MOL0     H27528   4.910   4.920   8.862  0.2544  0.0687 -0.7934
  945MOL0     H27529   4.665   4.940   8.843  3.2140 -1.5082 -3.9730
  945MOL0     H27530   4.717   4.913   9.015  1.4542 -1.4214  1.7160
  945MOL0     H27531   4.632   4.696   9.021  2.3911  4.1259  1.1903
  945MOL0     H27532   4.631   4.675   8.845  1.9433  0.1427 -0.7651
  945MOL0     H27533   4.445   4.870   8.852 -1.0516  0.5709  1.2189
  945MOL0     H27534   4.450   4.869   9.019 -0.3949  0.5475 -0.6535
  945MOL0     H27535   4.218   4.529   8.852 -0.1355 -0.1098 -3.3417
  945MOL0     H27536   3.890   4.572   8.709  0.7004  1.1743 -0.4457
  945MOL0     H27537   4.012   4.458   8.759  1.8968  2.7781 -2.2134
  945MOL0     H27538   3.871   4.496   8.864  0.0117 -0.0299 -0.0687
  945MOL0     H27539   3.701   4.937   9.127  0.2905 -2.1567 -1.1444
  945MOL0     H27540   3.474   5.027   9.188  1.1800  1.7497 -0.5646
  945MOL0     H27541   3.206   4.969   9.177  0.4486 -0.0400  1.3063
  945MOL0     H27542   3.287   5.137   9.163  0.6705  0.3935 -0.6208
  945MOL0     H27543   3.013   5.060   9.076  0.2538  0.3154  0.5334
  945MOL0     H27544   3.055   5.154   9.215 -1.0724 -1.1403 -0.1161
  945MOL0     H27545   3.097   5.222   8.927 -3.0156 -1.0154  0.2260
  945MOL0     H27546   3.165   5.325   9.066 -1.1797  1.2656  0.8627
  945MOL0     H27547   2.873   5.280   8.989  1.0722 -0.8765 -0.7367
  945MOL0     H27548   2.912   5.346   9.138 -2.0736  0.3625 -1.1866
  945MOL0     H27549   3.018   5.485   8.891  1.8154  0.5394  0.3631
  945MOL0     H27550   3.011   5.549   9.058 -1.0398  0.4597 -0.0017
  945MOL0     H27551   2.768   5.496   8.888  1.7756 -0.3459 -0.4150
  945MOL0     H27552   2.768   5.529   9.056 -1.3311 -2.1675 -1.6017
  945MOL0     H27553   2.826   5.727   8.830 -0.1982  0.0464  0.5913
  945MOL0     H27554   2.898   5.758   8.988 -1.2577  1.7297  2.8228
  945MOL0     H27555   2.685   5.758   9.092  0.0680 -2.5801 -0.1189
  945MOL0     H27556   2.603   5.709   8.926 -0.2557 -0.2484 -0.7402
  945MOL0     H27557   3.389   5.049   8.761  0.4595  0.2363 -0.8101
  945MOL0     H27558   3.602   4.970   8.713 -2.2884 -0.9245  0.2939
  945MOL0     H27559   4.024   4.972   8.955  2.1179  0.5463 -1.4069
  945MOL0     H27560   4.258   4.913   9.004  0.8623 -1.2696 -0.5987
  945MOL0     H27561   5.934   5.004   8.067 -1.3745 -0.6002 -1.1218
  945MOL0     H27562   6.146   4.923   8.010  1.6248 -1.9081 -0.2233
  945MOL0     H27563   6.240   4.488   7.566 -0.3440 -0.8671 -0.4745
  945MOL0     H27564   6.435   4.399   7.477  1.4738  1.4709 -2.4670
  945MOL0     H27565   6.756   4.338   7.760 -1.4075  1.0427  0.2335
  945MOL0     H27566   6.811   4.250   7.610  0.1232 -0.5157  0.9258
  945MOL0     H27567   6.878   4.528   7.718  2.6744  1.2457  0.5518
  945MOL0     H27568   6.904   4.483   7.549  1.5578  2.0097  1.1201
  945MOL0     H27569   7.034   4.271   7.658  2.2634  0.1555 -1.5262
  945MOL0     H27570   7.009   4.361   7.805  0.3985  0.1927 -0.3115
  945MOL0     H27571   7.234   4.419   7.745 -1.3551  1.5418  2.8024
  945MOL0     H27572   7.137   4.559   7.695 -0.0718  0.5092 -1.0908
  945MOL0     H27573   7.301   4.425   7.330 -1.6534  0.5049 -0.5800
  945MOL0     H27574   6.661   4.533   7.820 -1.1642 -1.4207  0.8688
  945MOL0     H27575   6.457   4.652   7.905 -1.0689 -0.3471 -0.0052
  946MOL0     O27576   4.220   6.492  10.863 -0.1149  0.2805 -0.8180
  946MOL0     C27577   4.263   6.511  10.975 -0.5189 -1.1411  0.3735
  946MOL0     O27578   4.192   6.506  11.094 -0.0770 -0.3212 -0.6990
  946MOL0     C27579   4.061   6.513  11.083 -0.0666 -0.2666  0.0033
  946MOL0     C27580   3.985   6.393  11.081 -0.2282 -0.3395  1.1058
  946MOL0     C27581   3.845   6.396  11.066  0.3083  0.0783  0.9278
  946MOL0     C27582   3.784   6.520  11.047  0.6497 -0.5755  0.5541
  946MOL0     O27583   3.646   6.510  11.017 -0.9285 -0.0222  1.3152
  946MOL0     C27584   3.565   6.625  10.995  0.8070  0.2133  0.6837
  946MOL0     C27585   3.459   6.589  10.885  0.9558  0.0905 -0.5099
  946MOL0     C27586   3.352   6.694  10.872 -0.2722  0.3937  0.1158
  946MOL0     C27587   3.241   6.690  10.976 -0.3369  0.1400 -0.5485
  946MOL0     C27588   3.110   6.775  10.949 -0.1095  1.0261  0.5792
  946MOL0     C27589   3.134   6.921  10.934 -0.1593  0.1159  0.1046
  946MOL0     C27590   3.019   6.981  10.857 -0.5959 -0.1583  0.5697
  946MOL0     C27591   3.008   7.133  10.877 -0.0275 -0.2601  1.0177
  946MOL0     N27592   3.139   7.199  10.846 -0.4571  0.6701 -0.5110
  946MOL0     C27593   3.172   7.299  10.752  0.3105  0.2103  0.1572
  946MOL0     C27594   3.294   7.341  10.787 -0.4326  0.3923  0.8427
  946MOL0     C27595   3.370   7.444  10.714  0.0357 -0.0826  0.7073
  946MOL0     C27596   3.512   7.393  10.683  0.5180 -0.4067  0.3101
  946MOL0     C27597   3.583   7.510  10.611  0.1540  0.2666  0.0829
  946MOL0     C27598   3.735   7.514  10.642  0.9252 -0.0398 -0.0124
  946MOL0     O27599   3.792   7.393  10.666 -0.4918 -0.3337 -0.2585
  946MOL0     C27600   3.915   7.384  10.733 -0.6762 -0.6195  0.0579
  946MOL0     C27601   3.952   7.266  10.798 -0.6839 -0.4986  0.3875
  946MOL0     C27602   4.076   7.257  10.872  0.4169 -0.6181  0.1373
  946MOL0     C27603   4.072   7.133  10.955  0.1689 -0.2184  0.0689
  946MOL0     C27604   4.171   7.365  10.862 -0.0922 -0.4150  0.5700
  946MOL0     C27605   4.306   7.367  10.923  0.0409  0.0056 -0.2723
  946MOL0     O27606   4.388   7.469  10.883  0.9429  0.5630  0.1308
  946MOL0     C27607   4.519   7.460  10.923 -0.3933 -0.2028 -0.2859
  946MOL0     C27608   4.613   7.360  10.896  0.9877  1.4261 -0.0171
  946MOL0     C27609   4.743   7.368  10.930 -0.6016 -0.1293  0.1943
  946MOL0     C27610   4.793   7.469  11.017 -1.3971 -0.1439 -0.8263
  946MOL0     O27611   4.920   7.477  11.074 -0.6084  0.2341 -0.2880
  946MOL0     C27612   4.970   7.356  11.135 -0.0822  0.5900  0.0743
  946MOL0     C27613   5.120   7.386  11.187 -0.0362  0.6085 -0.2379
  946MOL0     C27614   5.147   7.337  11.335  0.0182 -0.2956  0.3352
  946MOL0     C27615   5.290   7.375  11.394  0.3073 -0.0912  0.2375
  946MOL0     C27616   5.317   7.303  11.527 -0.1801 -0.9985  0.3255
  946MOL0     C27617   5.425   7.378  11.613  0.2773  0.4981 -0.5382
  946MOL0     C27618   5.555   7.381  11.550 -0.4162 -0.6606  0.5390
  946MOL0     C27619   5.608   7.246  11.500  0.0867 -0.6357 -0.6298
  946MOL0    Cl27620   5.780   7.254  11.440  0.0259 -0.3014  0.0882
  946MOL0     C27621   4.705   7.576  11.041  0.4655  1.2700 -0.0800
  946MOL0     C27622   4.572   7.571  10.991 -0.4784 -0.2050 -0.6418
  946MOL0     O27623   4.337   7.290  11.019  0.4879 -0.1618 -0.3824
  946MOL0     C27624   4.136   7.475  10.790  0.0164 -0.0282 -0.1470
  946MOL0     C27625   4.016   7.487  10.737 -0.1783 -0.5069  0.3147
  946MOL0     N27626   3.335   7.288  10.913 -0.2989 -0.5391  0.1073
  946MOL0     N27627   3.238   7.208  10.946 -0.0532 -0.1690 -0.0376
  946MOL0     C27628   3.854   6.640  11.064 -0.1356 -0.3008  0.5005
  946MOL0     C27629   3.988   6.632  11.077  0.3537  0.5995 -0.5916
  946MOL0     C27630   4.412   6.552  10.981 -0.5148  0.3921 -0.1027
  946MOL0     C27631   4.464   6.593  11.106  0.2683  0.3454 -0.0825
  946MOL0     C27632   4.607   6.619  11.109  0.7356  0.4858  0.7982
  946MOL0     C27633   4.694   6.603  10.994  0.1642  0.6470  0.3316
  946MOL0     O27634   4.825   6.636  11.033 -0.8534  0.8693 -0.2153
  946MOL0     C27635   4.922   6.666  10.927  0.3296  0.2304 -0.6060
  946MOL0     C27636   5.056   6.628  10.978  0.0211 -0.1077  1.0518
  946MOL0     C27637   5.080   6.472  10.978  0.2871  0.5591  0.4779
  946MOL0     C27638   5.202   6.425  11.063 -0.3808  0.0547 -0.6237
  946MOL0     C27639   5.191   6.465  11.209  0.4829 -0.1333  0.4284
  946MOL0     C27640   5.179   6.498  11.322 -0.0056 -0.3412 -0.3298
  946MOL0     C27641   4.638   6.573  10.873  0.6220  0.2352 -0.0882
  946MOL0     C27642   4.496   6.545  10.862  0.0804 -0.0945 -0.4964
  946MOL0     H27643   4.040   6.300  11.086  0.8314  0.0761 -1.5527
  946MOL0     H27644   3.789   6.307  11.040  2.0970 -1.2929  1.5792
  946MOL0     H27645   3.522   6.663  11.088 -2.3038  2.8373 -1.5961
  946MOL0     H27646   3.630   6.705  10.958  2.9026 -1.7707 -0.1109
  946MOL0     H27647   3.502   6.579  10.785 -0.6352  0.3870 -1.2588
  946MOL0     H27648   3.415   6.491  10.907  1.9130 -0.3175 -0.3847
  946MOL0     H27649   3.403   6.790  10.888  0.7239 -0.2942  1.2864
  946MOL0     H27650   3.319   6.700  10.768  2.2795  1.1169 -0.7334
  946MOL0     H27651   3.202   6.591  10.998 -3.5095  1.1444 -1.1157
  946MOL0     H27652   3.283   6.720  11.072  1.9785 -4.8836  0.3522
  946MOL0     H27653   3.054   6.736  10.863 -1.8561 -1.1127  2.5388
  946MOL0     H27654   3.038   6.748  11.027  1.0563  0.9027  1.6442
  946MOL0     H27655   3.152   6.965  11.033  0.6084 -0.3219  0.1684
  946MOL0     H27656   3.223   6.931  10.871  0.3647 -1.1263  0.5990
  946MOL0     H27657   3.038   6.976  10.750 -2.1465 -0.0307  0.2595
  946MOL0     H27658   2.932   6.917  10.873 -0.1369 -1.0603 -0.4458
  946MOL0     H27659   2.985   7.151  10.982 -1.9307 -2.8016  1.1342
  946MOL0     H27660   2.926   7.172  10.816  0.7348 -0.2160 -0.0117
  946MOL0     H27661   3.130   7.326  10.656  0.7696 -2.2236 -0.8068
  946MOL0     H27662   3.316   7.466  10.621 -2.0020 -5.4248  0.2501
  946MOL0     H27663   3.396   7.534  10.770  0.1420  1.1022 -1.1551
  946MOL0     H27664   3.502   7.300  10.625  0.6202 -1.4549  1.9087
  946MOL0     H27665   3.556   7.367  10.780 -0.5242  0.5995  1.0706
  946MOL0     H27666   3.538   7.608  10.632  0.3553 -0.3192  4.0814
  946MOL0     H27667   3.573   7.500  10.503 -0.6006  3.3604 -0.2215
  946MOL0     H27668   3.753   7.580  10.727  0.7641  1.1225 -0.8503
  946MOL0     H27669   3.791   7.549  10.554  0.7850 -0.2548 -0.1894
  946MOL0     H27670   3.872   7.194  10.815 -3.5842  2.2452 -0.5769
  946MOL0     H27671   4.176   7.099  10.943  0.7580  0.6228  2.2187
  946MOL0     H27672   4.050   7.157  11.060  1.1117  1.6360 -0.1202
  946MOL0     H27673   4.001   7.058  10.920 -0.1979 -0.2206  0.7972
  946MOL0     H27674   4.567   7.280  10.839 -0.2766  0.1504  2.6536
  946MOL0     H27675   4.802   7.283  10.898 -1.8255 -0.5128 -1.1468
  946MOL0     H27676   4.909   7.329  11.221 -0.6391 -0.9769 -0.7846
  946MOL0     H27677   4.979   7.270  11.068 -1.7795 -0.8301  1.5948
  946MOL0     H27678   5.194   7.335  11.124  2.7978 -0.4877  3.5869
  946MOL0     H27679   5.131   7.495  11.188  0.0927  0.5980 -0.3861
  946MOL0     H27680   5.129   7.230  11.337  0.5155 -0.3768  1.1430
  946MOL0     H27681   5.072   7.380  11.402 -3.0862 -2.6906 -1.3585
  946MOL0     H27682   5.367   7.355  11.319 -0.6672  1.4883 -1.2644
  946MOL0     H27683   5.288   7.483  11.411 -2.8398  0.0507 -0.4734
  946MOL0     H27684   5.354   7.200  11.514 -3.3932 -2.2918  0.5384
  946MOL0     H27685   5.224   7.281  11.579  1.1082  1.5764  4.1226
  946MOL0     H27686   5.386   7.479  11.632 -0.5136  0.2101 -0.5816
  946MOL0     H27687   5.427   7.329  11.710 -1.6046 -1.1923 -1.2713
  946MOL0     H27688   5.616   7.432  11.625  1.5124 -1.6295 -0.3121
  946MOL0     H27689   5.542   7.444  11.461 -1.8455 -0.0855  1.1175
  946MOL0     H27690   5.541   7.212  11.420  0.1298 -0.1968 -0.8577
  946MOL0     H27691   5.599   7.175  11.582  1.7139  1.0105  1.0615
  946MOL0     H27692   4.733   7.668  11.091  0.8179  1.2915 -0.3095
  946MOL0     H27693   4.508   7.657  11.001 -2.0626 -1.2994 -1.0715
  946MOL0     H27694   4.198   7.563  10.790 -1.2346  0.8814 -0.4442
  946MOL0     H27695   4.001   7.574  10.674  0.8136  0.2856  1.1426
  946MOL0     H27696   3.813   6.741  11.068 -1.3684 -0.7509 -0.2398
  946MOL0     H27697   4.039   6.727  11.086  1.9252 -0.2890  0.5132
  946MOL0     H27698   4.399   6.604  11.193 -1.8130 -0.3848 -1.4555
  946MOL0     H27699   4.660   6.661  11.194  1.4498  1.3671 -0.0594
  946MOL0     H27700   4.903   6.617  10.831  2.0765  0.2436 -0.9976
  946MOL0     H27701   4.922   6.774  10.913  2.1004  0.3075 -0.3142
  946MOL0     H27702   5.067   6.672  11.078  1.4746  0.9697  0.4490
  946MOL0     H27703   5.123   6.688  10.915 -2.0379  3.2815  1.8144
  946MOL0     H27704   5.100   6.438  10.876  0.5448  2.4749 -0.1500
  946MOL0     H27705   4.990   6.432  11.025  0.7939 -3.1194 -1.3115
  946MOL0     H27706   5.288   6.489  11.041 -1.4700  3.2550  3.0846
  946MOL0     H27707   5.230   6.321  11.045  1.4135  0.2496  0.7105
  946MOL0     H27708   5.165   6.525  11.425 -1.9020 -2.8358  0.1720
  946MOL0     H27709   4.707   6.568  10.789  1.7329  1.4078  0.7144
  946MOL0     H27710   4.465   6.524  10.760  1.3041 -0.6771 -0.7633
  947MOL0     O27711   2.202   3.682   1.473 -0.2162  1.0887  0.6910
  947MOL0     C27712   2.161   3.768   1.554 -0.2208 -0.1541 -0.4709
  947MOL0     O27713   2.061   3.743   1.642 -0.4471 -0.4477  0.9684
  947MOL0     C27714   2.005   3.616   1.658 -0.5962  0.1595 -0.3457
  947MOL0     C27715   1.872   3.605   1.697  0.0088 -0.4480 -0.0987
  947MOL0     C27716   1.809   3.478   1.716 -0.9518 -1.1491 -0.0049
  947MOL0     C27717   1.887   3.359   1.722  0.4738 -0.3959  0.8375
  947MOL0     O27718   1.827   3.245   1.745  0.3961 -0.3963  0.3836
  947MOL0     C27719   1.868   3.141   1.654 -0.0022  0.2296 -0.8426
  947MOL0     C27720   1.772   3.028   1.673  0.8310 -0.2537  0.1415
  947MOL0     C27721   1.768   2.950   1.539  0.7304  0.2943 -0.6381
  947MOL0     C27722   1.684   2.825   1.556  0.2644 -0.6577  0.0437
  947MOL0     C27723   1.652   2.742   1.424 -0.0806  0.2490 -0.2539
  947MOL0     C27724   1.652   2.583   1.439  0.2313 -0.6469 -0.1178
  947MOL0     C27725   1.597   2.508   1.318  0.1452 -0.6550 -0.0540
  947MOL0     C27726   1.677   2.504   1.197 -0.7593  0.0182  0.9837
  947MOL0     N27727   1.824   2.477   1.208 -0.2230 -0.1156 -0.1009
  947MOL0     C27728   1.872   2.353   1.236  0.3337 -0.3823  0.0741
  947MOL0     C27729   1.998   2.373   1.274 -0.9836 -0.6143  0.9332
  947MOL0     C27730   2.091   2.267   1.324  0.1707  0.5554 -0.1282
  947MOL0     C27731   2.240   2.304   1.320  0.0590 -0.0318  0.8561
  947MOL0     C27732   2.334   2.190   1.368  0.0454  0.2594  0.5009
  947MOL0     C27733   2.482   2.225   1.373  0.5316  0.0827 -0.3410
  947MOL0     O27734   2.553   2.135   1.452  0.5873 -0.4864 -0.7108
  947MOL0     C27735   2.688   2.162   1.463  0.9460 -0.3015  0.0533
  947MOL0     C27736   2.764   2.085   1.554  0.8229  0.4228  0.0297
  947MOL0     C27737   2.899   2.105   1.574  0.2919 -0.1755 -0.0039
  947MOL0     C27738   2.951   2.031   1.697 -0.4629  0.5929  0.7626
  947MOL0     C27739   2.975   2.196   1.498  0.1028  0.6657  0.2004
  947MOL0     C27740   3.130   2.205   1.492  0.4783  0.3471  0.0160
  947MOL0     O27741   3.203   2.124   1.576 -0.6327  1.2369  0.2113
  947MOL0     C27742   3.339   2.094   1.540  0.8816 -0.7902  0.0345
  947MOL0     C27743   3.439   2.183   1.576 -0.8178 -0.8803  0.5398
  947MOL0     C27744   3.572   2.156   1.537  0.3487  0.2450  0.2820
  947MOL0     C27745   3.602   2.048   1.453  0.3571  1.0102 -0.4093
  947MOL0     O27746   3.727   2.032   1.401 -0.7561 -0.3762 -0.1138
  947MOL0     C27747   3.761   1.960   1.286  0.5190 -0.7613  0.2463
  947MOL0     C27748   3.917   1.975   1.268  0.2267 -0.0161 -0.8366
  947MOL0     C27749   3.976   1.871   1.175  0.2392  0.0533  0.5357
  947MOL0     C27750   3.930   1.873   1.028  0.5450  0.0982  1.0879
  947MOL0     C27751   3.998   1.979   0.942  0.9974  0.4204  0.1018
  947MOL0     C27752   4.122   1.918   0.873 -0.9610 -0.6888  1.0560
  947MOL0     C27753   4.209   2.033   0.817 -0.7728  1.1563  0.1053
  947MOL0     C27754   4.156   2.072   0.681  0.3094  0.5789 -0.9645
  947MOL0    Cl27755   4.249   2.222   0.641  0.0343  0.1490  0.2037
  947MOL0     C27756   3.503   1.950   1.425 -0.7038 -0.5427  0.0993
  947MOL0     C27757   3.368   1.974   1.471 -0.1276  0.2806 -0.2500
  947MOL0     O27758   3.179   2.264   1.396 -0.2662 -0.4266 -0.1188
  947MOL0     C27759   2.900   2.276   1.401  0.0124  0.8989 -0.9096
  947MOL0     C27760   2.759   2.261   1.397  0.2586  0.5627 -0.8078
  947MOL0     N27761   2.028   2.504   1.250  0.3976  0.2618  0.3385
  947MOL0     N27762   1.926   2.570   1.220  0.5777 -0.0085 -0.5015
  947MOL0     C27763   2.024   3.377   1.711  0.1793  0.1716  0.3577
  947MOL0     C27764   2.089   3.502   1.682 -0.9280 -0.3157 -1.1571
  947MOL0     C27765   2.213   3.905   1.559 -0.7458 -0.4288  0.5601
  947MOL0     C27766   2.347   3.942   1.526  0.5071 -0.0365  0.0083
  947MOL0     C27767   2.386   4.071   1.527 -0.8226 -1.5853 -0.4484
  947MOL0     C27768   2.300   4.180   1.560  0.7922  1.3782  0.6040
  947MOL0     O27769   2.334   4.311   1.554 -0.6748 -0.3888 -0.0273
  947MOL0     C27770   2.469   4.337   1.539 -0.6887 -0.2251 -0.2192
  947MOL0     C27771   2.517   4.478   1.575 -0.4317  0.5177 -0.7278
  947MOL0     C27772   2.667   4.493   1.543  0.6720 -0.2771  0.3989
  947MOL0     C27773   2.714   4.642   1.532  1.3682 -0.1885  0.6114
  947MOL0     C27774   2.700   4.709   1.662 -1.1305 -0.5483 -0.1999
  947MOL0     C27775   2.685   4.755   1.775 -1.2620  0.8109 -0.0957
  947MOL0     C27776   2.164   4.148   1.598 -0.4690 -0.9705  0.3442
  947MOL0     C27777   2.122   4.010   1.593 -0.0600  0.6308 -0.5131
  947MOL0     H27778   1.805   3.690   1.700 -2.3789 -1.9502  6.3637
  947MOL0     H27779   1.702   3.481   1.734 -0.4605  0.4605  3.4647
  947MOL0     H27780   1.880   3.192   1.559  3.5146  1.7126  0.2107
  947MOL0     H27781   1.968   3.101   1.676 -1.4235 -2.2535  1.9702
  947MOL0     H27782   1.806   2.961   1.752  0.9618 -1.4730 -0.9146
  947MOL0     H27783   1.670   3.058   1.700  1.0386 -0.1166  0.7992
  947MOL0     H27784   1.745   3.012   1.452  4.1570 -1.1492 -2.7969
  947MOL0     H27785   1.872   2.922   1.523  0.5214 -1.8999  1.4424
  947MOL0     H27786   1.730   2.753   1.624  1.6393  1.1977  1.1762
  947MOL0     H27787   1.593   2.857   1.608 -0.0916  1.0492 -1.5244
  947MOL0     H27788   1.551   2.772   1.391 -0.1231  1.6379  0.9937
  947MOL0     H27789   1.725   2.771   1.348 -0.5666 -0.3454 -0.9669
  947MOL0     H27790   1.754   2.548   1.457 -0.5203 -1.9715  1.9620
  947MOL0     H27791   1.588   2.559   1.524 -3.9392  0.9825 -2.4951
  947MOL0     H27792   1.591   2.405   1.356  1.0452 -1.1436 -1.1417
  947MOL0     H27793   1.496   2.542   1.295  0.2463 -0.5038 -0.2845
  947MOL0     H27794   1.668   2.605   1.156  0.4768  0.1289  0.9604
  947MOL0     H27795   1.637   2.426   1.131  0.8821  1.5569 -2.0570
  947MOL0     H27796   1.812   2.263   1.230 -1.7057  0.8980  0.5224
  947MOL0     H27797   2.052   2.237   1.422 -2.2684 -0.0604 -1.2051
  947MOL0     H27798   2.066   2.182   1.259 -1.6485  0.3678  0.7418
  947MOL0     H27799   2.250   2.392   1.385  0.4843 -0.7093  1.7277
  947MOL0     H27800   2.269   2.344   1.222 -2.8431  0.4137  0.1059
  947MOL0     H27801   2.312   2.105   1.303  0.4599  1.6499 -1.5836
  947MOL0     H27802   2.302   2.174   1.471  0.5366  0.0547  0.6236
  947MOL0     H27803   2.485   2.324   1.419 -0.2826 -0.2683  0.5068
  947MOL0     H27804   2.525   2.231   1.273 -2.2274  2.1777 -1.5172
  947MOL0     H27805   2.704   2.025   1.622  2.2985 -1.1359  0.0208
  947MOL0     H27806   2.871   1.992   1.760  0.0646 -0.8438  0.5766
  947MOL0     H27807   3.010   1.944   1.668 -1.4177 -0.7616  2.6679
  947MOL0     H27808   3.020   2.095   1.752  0.3600 -1.4766  2.2539
  947MOL0     H27809   3.434   2.282   1.622  1.8545 -0.8316  0.9023
  947MOL0     H27810   3.653   2.227   1.552 -0.6054  1.3893  0.2431
  947MOL0     H27811   3.744   1.853   1.300  2.1640 -1.0227  0.4762
  947MOL0     H27812   3.713   1.995   1.194  0.0174  0.4933  0.9674
  947MOL0     H27813   3.943   2.073   1.227  2.8025  0.3054  1.2463
  947MOL0     H27814   3.962   1.960   1.367  0.3889  1.4783 -0.6659
  947MOL0     H27815   3.963   1.775   1.226 -0.8025  1.3342  2.8750
  947MOL0     H27816   4.083   1.891   1.176  0.5076 -1.2469 -0.3549
  947MOL0     H27817   3.940   1.775   0.981 -0.4354 -0.2064  1.4684
  947MOL0     H27818   3.822   1.887   1.013  0.9113  0.0733 -2.2097
  947MOL0     H27819   4.026   2.060   1.010  0.5672 -1.0390  2.0907
  947MOL0     H27820   3.933   2.017   0.862 -0.0522 -0.3244  0.5741
  947MOL0     H27821   4.180   1.851   0.937  0.0421 -1.6900 -0.8122
  947MOL0     H27822   4.080   1.861   0.790  0.5825 -0.5693  0.1783
  947MOL0     H27823   4.305   1.984   0.798 -2.5792 -2.5874 -0.1896
  947MOL0     H27824   4.213   2.113   0.892 -2.3405  0.2930  1.1731
  947MOL0     H27825   4.049   2.096   0.685 -0.0728 -0.4533 -3.2715
  947MOL0     H27826   4.147   1.991   0.608 -6.2631 -1.5216  1.4629
  947MOL0     H27827   3.515   1.864   1.361  1.1191  0.6672 -1.2717
  947MOL0     H27828   3.285   1.905   1.453 -0.0764 -0.1468  1.0757
  947MOL0     H27829   2.943   2.353   1.338 -2.8846  1.3402 -2.5266
  947MOL0     H27830   2.723   2.336   1.328  0.6936  2.3771  0.8304
  947MOL0     H27831   2.088   3.291   1.727 -1.2866 -2.1275 -4.2851
  947MOL0     H27832   2.197   3.511   1.684 -1.0340  1.0110 -0.4118
  947MOL0     H27833   2.413   3.859   1.503 -0.7181 -1.5084  1.5587
  947MOL0     H27834   2.493   4.085   1.514 -0.6293 -1.0284  1.4738
  947MOL0     H27835   2.511   4.267   1.611 -0.3085 -0.2864 -0.4912
  947MOL0     H27836   2.509   4.306   1.442 -1.5488 -0.0062 -0.6554
  947MOL0     H27837   2.509   4.486   1.683  2.7735  0.4228 -0.3733
  947MOL0     H27838   2.454   4.553   1.526  0.8284  1.3761 -1.0717
  947MOL0     H27839   2.682   4.442   1.448  1.3012  1.0652 -0.2588
  947MOL0     H27840   2.731   4.451   1.622 -1.4011 -0.2865  2.1719
  947MOL0     H27841   2.651   4.687   1.455 -3.1122 -2.2150  2.7129
  947MOL0     H27842   2.820   4.627   1.508  1.3116 -2.1575  1.3728
  947MOL0     H27843   2.669   4.801   1.871  2.8530  0.3199  0.9927
  947MOL0     H27844   2.090   4.218   1.636  0.6419  1.1693 -1.2568
  947MOL0     H27845   2.021   3.992   1.629  0.7162 -1.0062  0.9756
  948MOL0     O27846   8.413   3.026   8.083 -0.6671  0.4631 -0.1979
  948MOL0     C27847   8.481   3.126   8.085 -1.0799 -0.6766  0.3886
  948MOL0     O27848   8.435   3.252   8.117  0.3144 -0.3593 -0.3050
  948MOL0     C27849   8.303   3.277   8.131  0.8593 -0.3603  0.9771
  948MOL0     C27850   8.201   3.214   8.054  0.5779 -0.5187  0.3394
  948MOL0     C27851   8.076   3.256   8.067  0.1816  0.2828  0.1848
  948MOL0     C27852   8.038   3.354   8.158  0.1919  0.3963 -0.6225
  948MOL0     O27853   7.909   3.380   8.176 -0.1930 -0.1815  0.0723
  948MOL0     C27854   7.856   3.512   8.168 -0.2765  0.1274  0.4471
  948MOL0     C27855   7.808   3.567   8.307 -0.4172  0.2627 -0.4220
  948MOL0     C27856   7.696   3.478   8.370 -0.7480 -0.6030  0.2487
  948MOL0     C27857   7.639   3.556   8.489 -0.1334 -0.1809  0.3976
  948MOL0     C27858   7.530   3.483   8.565  0.2537 -0.4358 -0.4335
  948MOL0     C27859   7.395   3.488   8.491 -0.5532 -0.6070  0.1975
  948MOL0     C27860   7.326   3.622   8.488  0.5783 -0.1078  0.1208
  948MOL0     C27861   7.256   3.655   8.355  0.1903  0.1352  0.6404
  948MOL0     N27862   7.359   3.685   8.244  0.7151 -0.0559 -0.3207
  948MOL0     C27863   7.439   3.795   8.235  0.2294  0.9246  0.7252
  948MOL0     C27864   7.517   3.770   8.134  0.0276  0.0999 -0.5320
  948MOL0     C27865   7.613   3.868   8.099 -0.0479 -0.2031 -0.7047
  948MOL0     C27866   7.717   3.804   8.001 -0.5190 -0.1213 -1.2273
  948MOL0     C27867   7.806   3.918   7.951  0.1473  0.8119  0.3589
  948MOL0     C27868   7.901   3.971   8.063  0.5882 -0.4787 -0.0936
  948MOL0     O27869   7.985   3.862   8.077  0.2421 -0.3382 -0.0623
  948MOL0     C27870   8.105   3.872   8.133  0.0101  0.1342 -0.6241
  948MOL0     C27871   8.161   3.986   8.186 -0.4644 -0.3519  0.5814
  948MOL0     C27872   8.299   3.994   8.223 -0.3172  0.0882  0.4771
  948MOL0     C27873   8.355   4.131   8.276  0.6143 -0.2919  0.7264
  948MOL0     C27874   8.376   3.877   8.210  0.5059  0.6303 -0.3421
  948MOL0     C27875   8.514   3.862   8.245  0.6098 -0.1345 -0.4218
  948MOL0     O27876   8.576   3.751   8.200 -0.3811 -0.5781 -0.1788
  948MOL0     C27877   8.714   3.746   8.224  1.1586 -0.8462 -0.3663
  948MOL0     C27878   8.807   3.846   8.203 -0.5877  0.0331  0.6621
  948MOL0     C27879   8.946   3.833   8.228 -0.4463  0.5243  0.1261
  948MOL0     C27880   8.992   3.705   8.264 -0.3642  0.0298  0.7443
  948MOL0     O27881   9.129   3.693   8.272 -0.5004 -0.2175  0.3621
  948MOL0     C27882   9.188   3.571   8.321  0.0171 -0.5668 -0.2593
  948MOL0     C27883   9.346   3.575   8.288  0.1104  0.6242  0.1590
  948MOL0     C27884   9.397   3.437   8.340  0.0002 -0.5745  0.2498
  948MOL0     C27885   9.543   3.420   8.300 -0.5210 -1.0403  0.1108
  948MOL0     C27886   9.632   3.333   8.390 -0.1689 -0.6056  0.0390
  948MOL0     C27887   9.561   3.200   8.409  0.1276  0.3139 -0.1156
  948MOL0     C27888   9.623   3.113   8.515  0.2486 -0.8791 -1.2840
  948MOL0     C27889   9.565   2.974   8.520  0.3919  0.8757  0.0878
  948MOL0    Cl27890   9.586   2.893   8.369  0.4122 -0.1494  0.2262
  948MOL0     C27891   8.899   3.601   8.262 -0.2085  0.8377 -0.2488
  948MOL0     C27892   8.761   3.619   8.241  0.2209  0.0020 -0.4485
  948MOL0     O27893   8.556   3.950   8.327 -0.3196  0.0908  0.5394
  948MOL0     C27894   8.319   3.759   8.161 -0.1726  0.9386  0.8977
  948MOL0     C27895   8.189   3.758   8.124  0.5130  0.5769 -0.7825
  948MOL0     N27896   7.487   3.647   8.080 -0.3932 -0.0394 -0.0103
  948MOL0     N27897   7.395   3.595   8.149 -0.2738  0.1580  0.8458
  948MOL0     C27898   8.137   3.419   8.233  0.3417 -0.1856  0.0142
  948MOL0     C27899   8.271   3.383   8.215 -0.2354  0.3077  1.0780
  948MOL0     C27900   8.629   3.124   8.056 -0.1204  0.1193 -0.1709
  948MOL0     C27901   8.714   3.235   8.069 -0.5853  0.0972 -0.6918
  948MOL0     C27902   8.846   3.232   8.047 -0.9838 -0.3221 -0.1248
  948MOL0     C27903   8.899   3.119   7.975 -0.3443  0.3882  0.0547
  948MOL0     O27904   9.031   3.137   7.937 -0.4783  0.2283  0.3400
  948MOL0     C27905   9.129   3.060   8.004 -0.7163  0.5930  0.7545
  948MOL0     C27906   9.240   3.140   8.083 -0.6773 -0.3582  0.0060
  948MOL0     C27907   9.305   3.242   7.986 -0.5964 -0.0965  0.0729
  948MOL0     C27908   9.408   3.177   7.883  0.3738  0.0598  0.2900
  948MOL0     C27909   9.530   3.155   7.953  0.0443  0.3567 -0.1206
  948MOL0     C27910   9.628   3.168   8.023 -0.3405  0.4727 -0.0571
  948MOL0     C27911   8.824   3.009   7.956 -0.2288  0.1897 -0.1830
  948MOL0     C27912   8.687   3.007   7.989 -0.2639 -0.2498 -0.3021
  948MOL0     H27913   8.236   3.129   7.997  0.4548 -0.5396  0.2949
  948MOL0     H27914   7.998   3.209   8.007  0.7684 -2.0883  1.1837
  948MOL0     H27915   7.923   3.577   8.111 -0.9920  0.5014  0.0179
  948MOL0     H27916   7.764   3.502   8.108 -0.0017  1.5651 -0.2658
  948MOL0     H27917   7.893   3.583   8.374 -0.8980  1.3341 -0.0481
  948MOL0     H27918   7.759   3.663   8.284 -1.2403  0.0013  0.1943
  948MOL0     H27919   7.624   3.452   8.291 -0.0759  1.2890 -1.0583
  948MOL0     H27920   7.749   3.390   8.409  0.0006 -0.0561  0.4866
  948MOL0     H27921   7.713   3.585   8.565 -3.5936  3.0564  2.9089
  948MOL0     H27922   7.603   3.651   8.448  1.7114  1.1994  1.8109
  948MOL0     H27923   7.559   3.379   8.585 -1.7386 -1.6782 -3.4317
  948MOL0     H27924   7.511   3.542   8.656  0.7102 -0.9596  0.0144
  948MOL0     H27925   7.415   3.457   8.387  0.7891  1.7071 -0.3167
  948MOL0     H27926   7.327   3.417   8.539 -0.5742  0.2321  1.4404
  948MOL0     H27927   7.244   3.618   8.560  0.7270 -1.0011  0.2547
  948MOL0     H27928   7.395   3.700   8.521  0.3206  1.6051 -3.0879
  948MOL0     H27929   7.199   3.747   8.374  0.6033  0.1626  1.8677
  948MOL0     H27930   7.188   3.574   8.329  2.0402 -0.6231 -2.3574
  948MOL0     H27931   7.446   3.890   8.287 -1.6637  3.4221 -3.1159
  948MOL0     H27932   7.560   3.951   8.052  1.2591  1.6842  0.9738
  948MOL0     H27933   7.660   3.916   8.185 -0.6535  1.2517 -1.1471
  948MOL0     H27934   7.662   3.762   7.916  0.5464 -0.7385 -1.6454
  948MOL0     H27935   7.773   3.728   8.057  0.7676  0.1440 -2.0947
  948MOL0     H27936   7.751   4.000   7.905  1.9320  0.4221 -2.7489
  948MOL0     H27937   7.871   3.876   7.874  0.5297 -2.1083  2.1145
  948MOL0     H27938   7.843   3.989   8.153  0.8164 -0.9132  0.1458
  948MOL0     H27939   7.944   4.064   8.023 -0.4046  0.4774  1.0012
  948MOL0     H27940   8.101   4.076   8.195 -0.1832  0.1737 -2.0886
  948MOL0     H27941   8.377   4.103   8.380 -0.4269 -0.9246  0.7986
  948MOL0     H27942   8.438   4.159   8.212 -1.0607  1.1043 -0.9504
  948MOL0     H27943   8.282   4.212   8.267  1.6080  0.3707 -2.7727
  948MOL0     H27944   8.774   3.945   8.174 -1.2445 -0.2585  0.3915
  948MOL0     H27945   9.031   3.898   8.216  2.0050 -2.1189  1.8884
  948MOL0     H27946   9.175   3.576   8.429 -2.4703  1.1170 -0.5414
  948MOL0     H27947   9.136   3.486   8.275  0.4849 -0.2878 -1.3334
  948MOL0     H27948   9.366   3.591   8.182  1.1724 -0.6557  0.1362
  948MOL0     H27949   9.385   3.661   8.345 -2.2579 -0.1737  3.2801
  948MOL0     H27950   9.335   3.353   8.309 -0.6182 -0.1616  0.3502
  948MOL0     H27951   9.394   3.426   8.449  1.4233 -2.4561  0.1570
  948MOL0     H27952   9.547   3.394   8.194  1.8162  2.9282 -0.9832
  948MOL0     H27953   9.596   3.516   8.301 -0.9059 -0.8226  1.1478
  948MOL0     H27954   9.652   3.398   8.475 -2.3170  3.0968 -2.0446
  948MOL0     H27955   9.725   3.314   8.336  0.3246  2.7657 -0.5162
  948MOL0     H27956   9.456   3.213   8.435  0.3964  0.7835  0.8032
  948MOL0     H27957   9.564   3.130   8.326 -0.0498  0.6609 -0.4145
  948MOL0     H27958   9.616   3.167   8.610  0.9762  0.3924 -1.9299
  948MOL0     H27959   9.729   3.102   8.490  0.3177  0.4696 -1.6488
  948MOL0     H27960   9.461   2.974   8.554  0.8000  1.5640  1.4258
  948MOL0     H27961   9.621   2.914   8.592 -0.3681 -0.6440 -0.5545
  948MOL0     H27962   8.928   3.497   8.272  0.7185  1.1905  0.9584
  948MOL0     H27963   8.690   3.538   8.255 -1.3725  1.3926 -0.1139
  948MOL0     H27964   8.378   3.667   8.159  0.5595  1.4145 -0.6192
  948MOL0     H27965   8.137   3.671   8.084 -0.8099  0.3475  1.2757
  948MOL0     H27966   8.122   3.491   8.313  0.6018 -0.2506  0.1228
  948MOL0     H27967   8.340   3.440   8.277  0.6338  3.1594 -2.1714
  948MOL0     H27968   8.671   3.329   8.105 -1.7791 -0.8357  0.4179
  948MOL0     H27969   8.908   3.316   8.078 -1.7196 -0.6508  2.5120
  948MOL0     H27970   9.078   2.996   8.077 -1.6090  0.9405  0.4466
  948MOL0     H27971   9.185   3.000   7.933  2.4007  1.9425  1.8678
  948MOL0     H27972   9.317   3.074   8.124 -3.0743 -1.6830  2.7384
  948MOL0     H27973   9.199   3.198   8.166  2.0715  4.8452 -1.8137
  948MOL0     H27974   9.356   3.324   8.037  0.1290 -1.3771  1.4999
  948MOL0     H27975   9.219   3.291   7.940 -0.4743 -1.0384 -1.1887
  948MOL0     H27976   9.428   3.257   7.811  0.0367  0.3326  0.4964
  948MOL0     H27977   9.375   3.087   7.831 -0.1284 -1.0167  2.3739
  948MOL0     H27978   9.720   3.174   8.078  0.0667 -1.3658 -0.4754
  948MOL0     H27979   8.871   2.928   7.901  0.3323 -0.1448  0.7703
  948MOL0     H27980   8.626   2.923   7.958  1.0042 -1.6490  0.8310
  949MOL0     O27981   3.298   2.131   7.485 -0.2595  0.4447 -0.7645
  949MOL0     C27982   3.321   2.251   7.499 -0.3546 -0.7283 -0.1076
  949MOL0     O27983   3.236   2.346   7.552  0.7700 -0.1874 -0.2819
  949MOL0     C27984   3.110   2.310   7.569  0.1048  0.4753 -0.3481
  949MOL0     C27985   3.078   2.256   7.684  0.7909  0.0511  0.8463
  949MOL0     C27986   2.950   2.217   7.713  1.2368  0.7065 -0.6676
  949MOL0     C27987   2.846   2.242   7.621  0.8265  0.0208  0.7352
  949MOL0     O27988   2.726   2.212   7.672  0.1807 -0.4597 -0.0806
  949MOL0     C27989   2.614   2.224   7.582  0.1427 -0.4132  0.1706
  949MOL0     C27990   2.477   2.206   7.656  0.8886  0.4314 -0.8775
  949MOL0     C27991   2.449   2.322   7.755 -0.0863  0.5095 -0.9002
  949MOL0     C27992   2.295   2.327   7.790  0.5489  0.1953  0.2189
  949MOL0     C27993   2.261   2.264   7.927  0.2255 -0.6006 -0.4009
  949MOL0     C27994   2.126   2.310   7.978  0.5144 -0.2873 -0.0324
  949MOL0     C27995   2.088   2.242   8.113 -0.3736 -0.2619  0.8632
  949MOL0     C27996   1.959   2.305   8.163  0.0398  0.3044  0.0785
  949MOL0     N27997   1.910   2.249   8.288  0.6915  0.6803  0.0166
  949MOL0     C27998   1.937   2.302   8.413 -0.7829 -0.0101  0.8312
  949MOL0     C27999   1.867   2.215   8.490  0.1379 -0.6500 -0.0820
  949MOL0     C28000   1.833   2.222   8.638 -0.0007  0.1683 -0.1153
  949MOL0     C28001   1.718   2.315   8.668 -0.4260 -0.4782 -0.8767
  949MOL0     C28002   1.583   2.259   8.618 -0.8927  0.1249  0.3090
  949MOL0     C28003   1.455   2.340   8.656  0.9738  0.1261 -0.6453
  949MOL0     O28004   1.344   2.276   8.591  0.0726  0.4533  0.1033
  949MOL0     C28005   1.225   2.271   8.659 -0.4679 -0.1778  1.2797
  949MOL0     C28006   1.216   2.213   8.780 -0.0244  0.2412  0.6187
  949MOL0     C28007   1.087   2.211   8.846 -0.2908  0.8474  0.6886
  949MOL0     C28008   1.093   2.133   8.976  0.1760 -0.0402  0.4287
  949MOL0     C28009   0.978   2.273   8.792  0.8957  0.9101 -0.0211
  949MOL0     C28010   0.845   2.257   8.853  0.4821  0.2887 -0.9559
  949MOL0     O28011   0.808   2.135   8.896 -0.4516 -0.0031 -0.3166
  949MOL0     C28012   0.679   2.093   8.875 -0.5360  1.1331 -0.6735
  949MOL0     C28013   0.621   2.015   8.976 -0.1941 -0.3856  0.3296
  949MOL0     C28014   0.492   1.960   8.956  0.4601 -0.0132 -0.5343
  949MOL0     C28015   0.403   1.986   8.840 -0.0233  0.0461 -0.0937
  949MOL0     O28016   0.278   1.925   8.837 -0.1561  0.2050 -0.2846
  949MOL0     C28017   0.195   1.974   8.737 -0.3110  0.3519 -0.3233
  949MOL0     C28018   0.058   1.902   8.759  0.1064 -0.2681  0.7221
  949MOL0     C28019   0.064   1.758   8.693 -0.5393 -0.1383 -0.5574
  949MOL0     C28020  -0.081   1.700   8.663 -0.1366  0.1082  0.7932
  949MOL0     C28021  -0.158   1.674   8.799  0.0962 -0.0142  0.3472
  949MOL0     C28022  -0.292   1.620   8.763 -0.7218  0.2373 -0.1065
  949MOL0     C28023  -0.360   1.598   8.899 -0.5268  0.9839  0.4038
  949MOL0     C28024  -0.494   1.549   8.869  0.1937 -0.4895 -0.2613
  949MOL0    Cl28025  -0.581   1.554   9.021  0.3868  0.1464  0.1863
  949MOL0     C28026   0.470   2.052   8.721 -0.9822 -0.2350 -0.7483
  949MOL0     C28027   0.607   2.099   8.750 -0.2335  0.5505 -0.5144
  949MOL0     O28028   0.767   2.353   8.846  0.0193 -0.0062  0.7053
  949MOL0     C28029   0.993   2.322   8.659  0.2202 -0.6085  0.0336
  949MOL0     C28030   1.113   2.341   8.609  0.2432  0.1450 -0.4551
  949MOL0     N28031   1.820   2.114   8.407  0.3937  0.7405 -0.4955
  949MOL0     N28032   1.826   2.142   8.287 -0.4364  0.3793 -0.9059
  949MOL0     C28033   2.877   2.287   7.491 -0.3195 -0.5965 -1.0711
  949MOL0     C28034   3.011   2.321   7.470  0.5127  0.6207 -0.4058
  949MOL0     C28035   3.449   2.310   7.443 -0.3507 -0.4280  0.3748
  949MOL0     C28036   3.558   2.226   7.397  0.5194  0.1226  0.1737
  949MOL0     C28037   3.680   2.274   7.347  0.9385 -0.7821  0.7546
  949MOL0     C28038   3.690   2.411   7.337 -0.9911  0.3327  0.0250
  949MOL0     O28039   3.796   2.482   7.288 -0.2735  0.1238  0.3896
  949MOL0     C28040   3.932   2.416   7.281 -1.4113 -0.1383  0.2520
  949MOL0     C28041   4.014   2.501   7.189 -0.0862 -0.6207  0.7964
  949MOL0     C28042   4.026   2.643   7.243  1.0754  0.1822  0.2380
  949MOL0     C28043   4.134   2.732   7.177 -0.2061  0.9613  0.4593
  949MOL0     C28044   4.106   2.736   7.027 -0.5765 -0.5073 -0.4667
  949MOL0     C28045   4.094   2.767   6.902 -0.9159 -0.5190  0.2363
  949MOL0     C28046   3.587   2.497   7.373  0.2628  0.6240  0.2762
  949MOL0     C28047   3.468   2.444   7.426 -0.6957 -0.7652  0.2918
  949MOL0     H28048   3.155   2.250   7.760  1.7760  0.2680 -0.1208
  949MOL0     H28049   2.933   2.178   7.813  1.7042  1.9911 -0.0660
  949MOL0     H28050   2.617   2.319   7.529  0.4207 -0.0185  0.8755
  949MOL0     H28051   2.620   2.145   7.506  1.2214 -0.7811  0.6199
  949MOL0     H28052   2.392   2.190   7.589  2.2664 -3.5512 -1.8994
  949MOL0     H28053   2.488   2.114   7.712  0.9489  0.3492 -1.0226
  949MOL0     H28054   2.507   2.309   7.846 -2.5911  1.3696  0.9435
  949MOL0     H28055   2.483   2.418   7.716  0.1901  1.3695  1.3195
  949MOL0     H28056   2.272   2.434   7.792  0.5703  0.2438 -1.1038
  949MOL0     H28057   2.235   2.281   7.711 -0.0281  1.1766  0.0709
  949MOL0     H28058   2.254   2.155   7.921 -1.7192 -0.5276 -0.2016
  949MOL0     H28059   2.330   2.298   8.004 -2.2036 -2.3326  2.8222
  949MOL0     H28060   2.127   2.418   7.997 -1.1123 -0.5584  2.0077
  949MOL0     H28061   2.054   2.281   7.901  2.3253 -1.0359 -1.4952
  949MOL0     H28062   2.070   2.135   8.095 -0.2393 -0.6790  2.9352
  949MOL0     H28063   2.165   2.266   8.186 -1.9699  3.4720  1.5452
  949MOL0     H28064   1.877   2.304   8.091 -0.3535  1.2268  0.5017
  949MOL0     H28065   1.958   2.413   8.178 -3.0612  0.1915  1.5811
  949MOL0     H28066   2.000   2.383   8.449  3.1104 -0.8470 -3.2352
  949MOL0     H28067   1.805   2.123   8.676  1.0324  0.3573  1.1877
  949MOL0     H28068   1.920   2.259   8.692  0.8692 -0.6895 -0.8864
  949MOL0     H28069   1.733   2.412   8.619  1.0617 -0.6437 -0.7918
  949MOL0     H28070   1.708   2.340   8.774 -0.6203  2.0441 -1.4284
  949MOL0     H28071   1.557   2.158   8.653  3.5268 -1.2569  0.1793
  949MOL0     H28072   1.584   2.255   8.509 -0.8461  1.4819  0.2499
  949MOL0     H28073   1.469   2.446   8.632 -0.6227  1.2024  2.6251
  949MOL0     H28074   1.438   2.343   8.763  0.6416 -0.5231 -0.6738
  949MOL0     H28075   1.300   2.152   8.812  0.2357 -0.3617 -1.1135
  949MOL0     H28076   1.004   2.157   9.035 -0.3896 -0.1007 -0.3716
  949MOL0     H28077   1.086   2.024   8.964 -0.1244 -0.1462  1.5117
  949MOL0     H28078   1.181   2.167   9.030 -0.5113  2.0538  0.3093
  949MOL0     H28079   0.674   1.997   9.069  1.1097  0.8975 -0.1268
  949MOL0     H28080   0.437   1.897   9.025 -1.8813 -0.6477 -2.8635
  949MOL0     H28081   0.191   2.083   8.740  0.3490  0.3672  0.1196
  949MOL0     H28082   0.235   1.943   8.640 -2.8636 -0.4717 -1.2109
  949MOL0     H28083   0.024   1.894   8.863 -0.3852 -1.0702  0.5027
  949MOL0     H28084  -0.018   1.963   8.709  1.8149  2.8761  1.6510
  949MOL0     H28085   0.125   1.695   8.757  1.2013  1.2846 -0.7197
  949MOL0     H28086   0.123   1.759   8.601  2.6251 -0.8736  1.3242
  949MOL0     H28087  -0.141   1.761   8.595 -1.5624 -0.3229  1.6271
  949MOL0     H28088  -0.078   1.609   8.603 -1.9483 -0.5646  1.6554
  949MOL0     H28089  -0.176   1.765   8.857  0.6198  0.9945 -1.0080
  949MOL0     H28090  -0.097   1.601   8.852 -2.3320 -0.6970  2.3967
  949MOL0     H28091  -0.359   1.687   8.709 -0.4023 -0.6427 -1.6469
  949MOL0     H28092  -0.284   1.530   8.703  0.4705  0.0094  0.3678
  949MOL0     H28093  -0.373   1.696   8.945  0.7622  1.3898 -0.0479
  949MOL0     H28094  -0.307   1.519   8.953 -0.3218 -0.2008 -1.4405
  949MOL0     H28095  -0.510   1.449   8.828 -3.5741  0.3593 -1.2261
  949MOL0     H28096  -0.544   1.610   8.794  1.4127 -1.2970 -1.7895
  949MOL0     H28097   0.425   2.067   8.623 -2.1062  3.2566  0.1590
  949MOL0     H28098   0.649   2.170   8.679 -3.5822  3.4405  0.1057
  949MOL0     H28099   0.908   2.359   8.602  3.3586  0.7033 -4.2847
  949MOL0     H28100   1.121   2.396   8.516 -0.0486  2.1966  0.6795
  949MOL0     H28101   2.812   2.286   7.404  0.4500 -3.0861 -1.6973
  949MOL0     H28102   3.037   2.361   7.373 -0.7069 -1.8927 -1.8734
  949MOL0     H28103   3.541   2.119   7.407 -1.4147  0.3422 -0.3172
  949MOL0     H28104   3.760   2.206   7.320  0.4015 -0.8010 -0.9400
  949MOL0     H28105   3.986   2.406   7.376 -1.4706 -0.3010  0.2695
  949MOL0     H28106   3.915   2.323   7.225 -2.6188  0.2019  0.0258
  949MOL0     H28107   3.971   2.523   7.091 -1.3971  1.4109  1.7464
  949MOL0     H28108   4.114   2.462   7.168  0.5317  1.6840 -1.1366
  949MOL0     H28109   4.051   2.636   7.350 -0.7883 -0.6279  0.6516
  949MOL0     H28110   3.935   2.703   7.241  2.8663  3.1454  0.7519
  949MOL0     H28111   4.232   2.697   7.210  0.3461  0.8222 -1.2125
  949MOL0     H28112   4.116   2.833   7.216 -0.1099  1.2742 -0.2905
  949MOL0     H28113   4.080   2.785   6.798 -2.4728 -0.2025  0.4764
  949MOL0     H28114   3.606   2.601   7.351  1.1156  0.0198 -2.2780
  949MOL0     H28115   3.387   2.508   7.460  0.0760 -1.1664  3.2138
  950MOL0     O28116   5.660   0.596   3.811 -0.3807  0.0645 -0.6715
  950MOL0     C28117   5.686   0.480   3.777  0.9426  0.0991 -0.2960
  950MOL0     O28118   5.622   0.365   3.838 -0.9428 -0.8401 -0.7639
  950MOL0     C28119   5.512   0.378   3.910 -0.6106 -0.1134  0.1436
  950MOL0     C28120   5.385   0.333   3.853 -0.7508  0.1268 -0.0240
  950MOL0     C28121   5.258   0.351   3.919  0.2455 -0.2953  0.6199
  950MOL0     C28122   5.257   0.400   4.055 -0.0411 -0.4522 -0.1893
  950MOL0     O28123   5.133   0.414   4.111 -0.4614 -0.1024 -0.3688
  950MOL0     C28124   5.123   0.527   4.210 -0.8187 -0.2354 -0.2982
  950MOL0     C28125   4.977   0.538   4.248  0.5831  0.1694  0.4546
  950MOL0     C28126   4.918   0.404   4.312 -0.4789 -0.1449  0.3371
  950MOL0     C28127   4.777   0.437   4.371 -0.9763  0.9542 -0.2156
  950MOL0     C28128   4.694   0.311   4.427 -0.8789 -0.0335 -0.4781
  950MOL0     C28129   4.740   0.269   4.573  0.9344 -0.0312 -0.0407
  950MOL0     C28130   4.656   0.149   4.620 -0.6149  0.0344  0.1550
  950MOL0     C28131   4.506   0.172   4.635 -0.1314  0.1701  0.0581
  950MOL0     N28132   4.446   0.079   4.734 -0.1990 -0.1844  0.3441
  950MOL0     C28133   4.441  -0.060   4.719  0.2325  0.9878 -0.1869
  950MOL0     C28134   4.394  -0.100   4.845 -0.0252 -0.5868  0.0948
  950MOL0     C28135   4.360  -0.239   4.896  0.5286 -0.4287  0.3832
  950MOL0     C28136   4.205  -0.266   4.888 -0.7293 -1.1612 -0.5377
  950MOL0     C28137   4.176  -0.410   4.944 -1.1039 -0.4938 -0.0775
  950MOL0     C28138   4.216  -0.516   4.842  0.4720  0.6122  0.6006
  950MOL0     O28139   4.142  -0.641   4.847  0.4639 -0.4451 -0.1823
  950MOL0     C28140   4.005  -0.643   4.802 -1.1246 -0.6347 -0.3312
  950MOL0     C28141   3.928  -0.759   4.818  0.7555  0.4419  0.1077
  950MOL0     C28142   3.798  -0.778   4.772 -0.7769 -0.7540 -0.2881
  950MOL0     C28143   3.722  -0.903   4.819 -0.5875 -0.9207 -0.4324
  950MOL0     C28144   3.746  -0.672   4.698  0.6466 -0.0985  0.1137
  950MOL0     C28145   3.611  -0.678   4.638 -0.3287 -1.0977 -0.1913
  950MOL0     O28146   3.521  -0.578   4.683 -0.4872 -0.0865 -0.1486
  950MOL0     C28147   3.392  -0.595   4.686 -0.8419 -0.0374  0.4516
  950MOL0     C28148   3.329  -0.718   4.725 -0.0842 -1.3107  0.3176
  950MOL0     C28149   3.188  -0.722   4.708 -0.3368  0.4922  0.5407
  950MOL0     C28150   3.122  -0.611   4.644 -0.3636  0.3917 -0.4238
  950MOL0     O28151   2.990  -0.613   4.625 -0.1622 -0.0168  0.1045
  950MOL0     C28152   2.927  -0.725   4.569 -0.4587  0.7908 -0.5850
  950MOL0     C28153   2.780  -0.695   4.544  0.2078 -0.9102 -0.5061
  950MOL0     C28154   2.781  -0.581   4.428  0.2228  0.3097 -0.6204
  950MOL0     C28155   2.641  -0.523   4.404  0.7702 -0.6345 -0.8187
  950MOL0     C28156   2.661  -0.389   4.336  0.9714  0.4448  0.0801
  950MOL0     C28157   2.523  -0.334   4.292 -0.2638  0.7149  0.2678
  950MOL0     C28158   2.448  -0.293   4.418  0.0817  0.3885 -0.7143
  950MOL0     C28159   2.295  -0.273   4.378 -0.9135  0.1177  0.1815
  950MOL0    Cl28160   2.262  -0.121   4.274 -0.3603  0.1938 -0.0044
  950MOL0     C28161   3.187  -0.486   4.625 -0.4194  0.5381  0.3389
  950MOL0     C28162   3.326  -0.483   4.642 -0.3918 -0.7243 -0.5206
  950MOL0     O28163   3.589  -0.761   4.549  0.6117  0.1529 -0.2353
  950MOL0     C28164   3.817  -0.553   4.679  0.0540 -0.1991  0.2226
  950MOL0     C28165   3.943  -0.534   4.737  0.0477  0.3719  0.4304
  950MOL0     N28166   4.384   0.015   4.927  0.6886  0.2405 -0.7498
  950MOL0     N28167   4.406   0.117   4.862  0.2456  0.2063  0.1481
  950MOL0     C28168   5.384   0.449   4.105 -0.0035  0.2726 -0.0075
  950MOL0     C28169   5.504   0.444   4.033  0.1613  1.8091  0.6829
  950MOL0     C28170   5.783   0.451   3.677 -0.5237 -0.0665 -1.3730
  950MOL0     C28171   5.849   0.560   3.615  0.1244  0.3329 -0.8315
  950MOL0     C28172   5.959   0.535   3.526  0.1427 -0.4186 -0.9672
  950MOL0     C28173   5.999   0.405   3.490 -0.1441  0.0176  0.0871
  950MOL0     O28174   6.106   0.377   3.406  0.0379  0.5858 -0.8508
  950MOL0     C28175   6.122   0.250   3.342 -0.2244 -0.0563  0.3176
  950MOL0     C28176   6.205   0.153   3.427  1.0676  0.1961 -0.3227
  950MOL0     C28177   6.160   0.010   3.389 -1.1253 -0.6046 -0.3564
  950MOL0     C28178   6.251  -0.081   3.475 -0.6558  0.5952  0.3299
  950MOL0     C28179   6.371  -0.106   3.403  0.0266  0.6647  0.0169
  950MOL0     C28180   6.470  -0.139   3.341 -0.2822 -0.5713 -0.2745
  950MOL0     C28181   5.923   0.298   3.547  0.7068  0.1453 -0.1473
  950MOL0     C28182   5.825   0.322   3.637  0.5325 -0.5811  0.4424
  950MOL0     H28183   5.390   0.272   3.764 -0.8876 -1.7866  1.2234
  950MOL0     H28184   5.168   0.300   3.885  0.0703  0.4047 -0.0059
  950MOL0     H28185   5.178   0.512   4.303  1.0119 -0.1987 -1.3192
  950MOL0     H28186   5.154   0.624   4.169  1.3387  0.0410  1.8286
  950MOL0     H28187   4.964   0.630   4.306  2.1860  0.6317  0.1074
  950MOL0     H28188   4.913   0.548   4.160 -0.0369 -3.6550  0.3051
  950MOL0     H28189   4.911   0.324   4.237 -0.5648 -1.0170  1.2508
  950MOL0     H28190   4.990   0.368   4.387 -1.2126 -3.0188 -0.2381
  950MOL0     H28191   4.779   0.513   4.449  2.6274 -1.3917  2.3264
  950MOL0     H28192   4.718   0.472   4.285 -0.3399  2.9338  0.1247
  950MOL0     H28193   4.593   0.354   4.422 -0.5499  0.6318 -2.2865
  950MOL0     H28194   4.703   0.226   4.358 -0.7721 -0.3060 -0.1283
  950MOL0     H28195   4.848   0.252   4.562  0.5197 -1.4829 -2.8229
  950MOL0     H28196   4.728   0.351   4.644 -1.0820  1.8052 -2.2977
  950MOL0     H28197   4.660   0.072   4.543 -0.7555  0.0143  0.1674
  950MOL0     H28198   4.694   0.114   4.716  0.2190  1.0927  0.2299
  950MOL0     H28199   4.450   0.162   4.542  0.9489  2.0447 -0.8631
  950MOL0     H28200   4.489   0.270   4.681 -1.1724  0.6914 -1.3524
  950MOL0     H28201   4.462  -0.123   4.633  0.9732  2.4723 -1.1369
  950MOL0     H28202   4.410  -0.314   4.834 -0.0755  1.0286 -2.0279
  950MOL0     H28203   4.392  -0.245   5.000 -2.0038 -0.2833  1.2448
  950MOL0     H28204   4.177  -0.249   4.784  2.9086  1.5657 -1.2746
  950MOL0     H28205   4.144  -0.195   4.946 -1.6615 -0.4453 -2.3155
  950MOL0     H28206   4.069  -0.412   4.966 -1.3742 -0.0179 -1.2655
  950MOL0     H28207   4.235  -0.423   5.035 -1.0715 -1.1817 -0.1959
  950MOL0     H28208   4.320  -0.540   4.867  0.2971  0.5638  1.2999
  950MOL0     H28209   4.221  -0.466   4.745  2.2895  1.8389  1.2666
  950MOL0     H28210   3.963  -0.847   4.873 -0.8878 -0.7561 -0.6739
  950MOL0     H28211   3.706  -0.966   4.731  1.1212  0.9196 -2.2023
  950MOL0     H28212   3.764  -0.965   4.897 -1.3447 -1.0332 -0.1054
  950MOL0     H28213   3.626  -0.870   4.860 -0.1361 -0.9728  0.6926
  950MOL0     H28214   3.388  -0.802   4.757 -1.6643 -1.0264  4.5947
  950MOL0     H28215   3.133  -0.811   4.736  2.2437 -1.4602 -0.1764
  950MOL0     H28216   2.969  -0.745   4.470  0.9356 -0.2480  0.1876
  950MOL0     H28217   2.935  -0.816   4.629  4.0924  0.9482 -0.5964
  950MOL0     H28218   2.710  -0.774   4.514 -1.2442  0.0492  0.2453
  950MOL0     H28219   2.742  -0.662   4.641 -1.6642  0.0046 -1.4759
  950MOL0     H28220   2.823  -0.616   4.333  3.4485  0.5367  0.5889
  950MOL0     H28221   2.852  -0.499   4.442 -0.2788  0.3745  2.1131
  950MOL0     H28222   2.569  -0.589   4.355 -2.5031 -0.0662  2.7918
  950MOL0     H28223   2.590  -0.503   4.498 -1.3515  1.0398 -2.2306
  950MOL0     H28224   2.722  -0.398   4.246 -0.3490  0.7656 -0.8699
  950MOL0     H28225   2.707  -0.315   4.402  3.7908  1.0545 -2.3871
  950MOL0     H28226   2.530  -0.250   4.223 -0.3985  2.3564  2.1683
  950MOL0     H28227   2.465  -0.406   4.233 -2.0018  0.2390  2.4147
  950MOL0     H28228   2.487  -0.203   4.466  2.5777 -0.3272 -1.3056
  950MOL0     H28229   2.432  -0.379   4.483 -1.9305 -0.6009 -2.3856
  950MOL0     H28230   2.224  -0.273   4.462 -2.4705  0.3587 -1.0887
  950MOL0     H28231   2.257  -0.351   4.311 -2.0373  2.8686 -2.6190
  950MOL0     H28232   3.119  -0.406   4.596 -0.2714  1.5376  2.5122
  950MOL0     H28233   3.379  -0.394   4.611 -0.9621 -0.4872 -0.8405
  950MOL0     H28234   3.781  -0.468   4.621  0.2553  0.0125  0.4027
  950MOL0     H28235   3.987  -0.436   4.723  1.2178 -0.5687 -4.8607
  950MOL0     H28236   5.384   0.493   4.205  0.5124  2.1183 -0.7764
  950MOL0     H28237   5.585   0.497   4.083  1.8438  0.6779 -0.7037
  950MOL0     H28238   5.838   0.663   3.649  3.9585  0.5238  0.3131
  950MOL0     H28239   6.038   0.605   3.502  0.0825 -0.6325 -1.8418
  950MOL0     H28240   6.026   0.203   3.317  0.1083  0.8870 -3.1464
  950MOL0     H28241   6.170   0.267   3.246 -2.2718  2.9602 -0.3141
  950MOL0     H28242   6.187   0.158   3.535 -1.2162 -2.2064 -0.4975
  950MOL0     H28243   6.312   0.174   3.420  1.0198  0.4744 -0.2347
  950MOL0     H28244   6.170  -0.004   3.281 -1.3101  1.0092 -0.6038
  950MOL0     H28245   6.055   0.005   3.419 -0.3532  1.2570  3.2326
  950MOL0     H28246   6.200  -0.177   3.485  2.8525 -1.1948  3.4171
  950MOL0     H28247   6.266  -0.045   3.577 -2.1785 -3.6569  2.2759
  950MOL0     H28248   6.564  -0.150   3.291 -0.0249 -0.0642  0.0857
  950MOL0     H28249   5.937   0.191   3.541  3.1823  0.4050  0.0613
  950MOL0     H28250   5.777   0.231   3.673  0.3006  0.0002  1.6554
  951MOL0     O28251   0.832   3.647   8.002  0.4170 -0.5641 -0.0163
  951MOL0     C28252   0.901   3.600   8.089 -0.5477 -0.2077 -0.0728
  951MOL0     O28253   0.855   3.560   8.214 -0.7721  0.9246 -0.2764
  951MOL0     C28254   0.718   3.574   8.232 -0.7818 -0.4512 -0.4860
  951MOL0     C28255   0.624   3.480   8.189  0.0530 -0.9361 -0.4460
  951MOL0     C28256   0.487   3.489   8.220 -0.3458  0.5609 -0.1240
  951MOL0     C28257   0.438   3.585   8.301  0.7059 -0.9197 -0.9150
  951MOL0     O28258   0.309   3.603   8.335 -0.8446 -0.9229 -0.1156
  951MOL0     C28259   0.218   3.546   8.244  0.1687  0.5912 -0.0224
  951MOL0     C28260   0.076   3.592   8.281  0.0510  0.2070  0.2120
  951MOL0     C28261   0.040   3.553   8.422  0.6341 -0.2527  0.1999
  951MOL0     C28262  -0.103   3.592   8.436  0.4792  0.8382 -0.5947
  951MOL0     C28263  -0.164   3.512   8.555 -0.5791 -0.4032  1.4853
  951MOL0     C28264  -0.298   3.545   8.599 -0.9460  0.0253  0.3971
  951MOL0     C28265  -0.360   3.441   8.693  0.4875  0.3361  0.4750
  951MOL0     C28266  -0.494   3.483   8.732  0.0116  0.1382  0.0341
  951MOL0     N28267  -0.600   3.479   8.630 -0.1202  0.3891  0.2458
  951MOL0     C28268  -0.641   3.374   8.546 -0.6221 -0.4970 -0.0155
  951MOL0     C28269  -0.758   3.423   8.490 -0.2214  0.7047  1.0640
  951MOL0     C28270  -0.842   3.349   8.387 -0.3395  0.6441  0.2900
  951MOL0     C28271  -0.840   3.409   8.244  0.5663 -0.8195 -0.0059
  951MOL0     C28272  -0.853   3.314   8.132 -0.0618  0.2388  0.4663
  951MOL0     C28273  -0.989   3.248   8.136  0.4077 -0.1799 -0.3398
  951MOL0     O28274  -0.970   3.141   8.221 -0.5272 -0.4436  0.1084
  951MOL0     C28275  -1.078   3.087   8.287 -0.0195  0.1072  0.0029
  951MOL0     C28276  -1.210   3.117   8.254 -0.3172  0.0151  0.2853
  951MOL0     C28277  -1.314   3.054   8.327 -0.2563  0.0468 -0.2172
  951MOL0     C28278  -1.458   3.098   8.307 -0.3860  0.4596 -0.1956
  951MOL0     C28279  -1.278   2.953   8.425  0.7147 -0.2238 -1.0115
  951MOL0     C28280  -1.374   2.869   8.511 -0.1381 -0.0765 -0.8244
  951MOL0     O28281  -1.333   2.824   8.637 -0.3884 -0.5013 -0.5329
  951MOL0     C28282  -1.434   2.769   8.715 -0.5432  0.3294  0.7581
  951MOL0     C28283  -1.527   2.852   8.779  0.5729 -0.0894  0.4620
  951MOL0     C28284  -1.609   2.785   8.871 -0.2813  0.2913  0.4982
  951MOL0     C28285  -1.598   2.647   8.895 -0.4833 -0.1298  0.4417
  951MOL0     O28286  -1.682   2.587   8.980 -0.3382  0.0620  0.3196
  951MOL0     C28287  -1.764   2.669   9.063 -0.8260  0.3178 -0.0899
  951MOL0     C28288  -1.847   2.584   9.158  0.1035  0.1342  0.0705
  951MOL0     C28289  -1.982   2.649   9.199  0.0454  0.0329  0.3846
  951MOL0     C28290  -2.072   2.534   9.251 -0.5205  0.8247  0.5788
  951MOL0     C28291  -2.199   2.584   9.327 -0.3619 -0.5263  0.7665
  951MOL0     C28292  -2.273   2.696   9.241 -0.3207 -0.0429 -0.3631
  951MOL0     C28293  -2.416   2.731   9.280 -0.1116  0.2944 -0.2609
  951MOL0     C28294  -2.422   2.790   9.422 -0.6980  0.1257  0.9487
  951MOL0    Cl28295  -2.338   2.943   9.447 -0.2531 -0.3646  0.3995
  951MOL0     C28296  -1.504   2.569   8.821  0.6103 -0.7564 -0.8434
  951MOL0     C28297  -1.422   2.628   8.732  1.1271 -0.0417 -0.1997
  951MOL0     O28298  -1.489   2.863   8.474 -0.5929 -0.2917  0.6149
  951MOL0     C28299  -1.147   2.912   8.445  0.1802  0.3994  0.3702
  951MOL0     C28300  -1.045   2.978   8.374 -0.3284  0.0901 -1.4738
  951MOL0     N28301  -0.780   3.555   8.537  0.1189  0.8746 -0.0893
  951MOL0     N28302  -0.685   3.588   8.621 -0.8046  0.2808  0.3413
  951MOL0     C28303   0.527   3.687   8.342  0.2623 -0.4174  0.9181
  951MOL0     C28304   0.668   3.679   8.317  0.8054 -0.1211  0.3629
  951MOL0     C28305   1.044   3.591   8.059  0.3329 -1.4300  0.3257
  951MOL0     C28306   1.093   3.645   7.940  0.6733 -0.7047 -0.8242
  951MOL0     C28307   1.230   3.659   7.921  0.4841 -0.2331  0.2136
  951MOL0     C28308   1.316   3.601   8.011 -0.5645 -0.3810 -0.7499
  951MOL0     O28309   1.450   3.635   7.998  0.5199  0.4789 -0.6252
  951MOL0     C28310   1.547   3.576   8.084 -0.3772  0.4295  0.3100
  951MOL0     C28311   1.684   3.625   8.038  0.2000 -0.0595 -0.2993
  951MOL0     C28312   1.782   3.592   8.146  0.5017 -0.3764  0.0420
  951MOL0     C28313   1.895   3.700   8.151 -1.1318 -0.1119 -0.8138
  951MOL0     C28314   2.002   3.651   8.245  1.6873 -0.4576  0.4247
  951MOL0     C28315   2.083   3.618   8.326  0.4468  0.4185 -0.1974
  951MOL0     C28316   1.269   3.514   8.116  0.5120 -0.0555  0.0930
  951MOL0     C28317   1.136   3.528   8.148 -0.5459 -0.4557 -0.1653
  951MOL0     H28318   0.648   3.395   8.126  0.1325 -2.7373  1.8381
  951MOL0     H28319   0.434   3.402   8.183 -1.3447  0.8450  0.5930
  951MOL0     H28320   0.243   3.583   8.144  3.1028 -4.1314 -1.3669
  951MOL0     H28321   0.223   3.437   8.236 -3.0661  0.4366 -1.6091
  951MOL0     H28322   0.075   3.699   8.256  1.5017 -0.1403 -1.5014
  951MOL0     H28323   0.014   3.547   8.203 -0.4385  0.6595  0.3304
  951MOL0     H28324   0.044   3.444   8.431 -1.3725 -0.4204 -0.3038
  951MOL0     H28325   0.094   3.600   8.504 -2.6459  1.5173  1.5363
  951MOL0     H28326  -0.121   3.700   8.442  1.3383  0.9071  1.8229
  951MOL0     H28327  -0.148   3.550   8.346  1.6589  2.5597 -2.0516
  951MOL0     H28328  -0.170   3.408   8.521  0.2417  0.6283 -2.3554
  951MOL0     H28329  -0.097   3.527   8.640  1.7875  1.0743 -0.4896
  951MOL0     H28330  -0.278   3.645   8.638 -0.7518 -0.1303  0.6947
  951MOL0     H28331  -0.361   3.546   8.509 -0.6109 -0.0679  0.1570
  951MOL0     H28332  -0.360   3.346   8.639 -0.1940  0.8403 -0.4394
  951MOL0     H28333  -0.295   3.429   8.780 -0.5430  2.8539  1.6952
  951MOL0     H28334  -0.477   3.590   8.748 -0.8408  0.6182 -1.9712
  951MOL0     H28335  -0.523   3.433   8.825 -0.5707 -1.2267 -0.8518
  951MOL0     H28336  -0.584   3.282   8.531 -1.4502 -1.0197  0.0021
  951MOL0     H28337  -0.815   3.243   8.386 -0.5486  0.5449  1.9483
  951MOL0     H28338  -0.948   3.347   8.411 -0.4370 -1.4390 -0.0946
  951MOL0     H28339  -0.739   3.449   8.245  1.3083 -1.8810  6.3928
  951MOL0     H28340  -0.925   3.478   8.249  1.1537 -0.1700  1.6445
  951MOL0     H28341  -0.775   3.238   8.124 -1.7465 -1.4557 -1.0231
  951MOL0     H28342  -0.843   3.359   8.033 -2.0773 -0.4377 -0.1057
  951MOL0     H28343  -1.020   3.213   8.037 -1.3400  0.7844 -0.1602
  951MOL0     H28344  -1.064   3.320   8.169  3.3004  2.9689 -0.0561
  951MOL0     H28345  -1.233   3.169   8.162  1.7316 -1.4694 -1.1524
  951MOL0     H28346  -1.477   3.163   8.221 -0.5699  1.8659  0.8869
  951MOL0     H28347  -1.526   3.013   8.292  0.3448 -0.4363  1.3513
  951MOL0     H28348  -1.485   3.157   8.394 -0.4430 -0.4914  0.4466
  951MOL0     H28349  -1.545   2.955   8.750  3.0593 -0.2553 -2.1388
  951MOL0     H28350  -1.688   2.848   8.910 -1.7979  2.2468 -4.9123
  951MOL0     H28351  -1.699   2.737   9.120 -0.4046 -1.7717  2.1035
  951MOL0     H28352  -1.828   2.725   8.995  0.4343 -1.2845 -2.7430
  951MOL0     H28353  -1.864   2.485   9.116 -1.8748  0.7037 -0.5853
  951MOL0     H28354  -1.779   2.572   9.243  1.2311 -1.2537 -0.9898
  951MOL0     H28355  -2.024   2.703   9.114  0.9911 -1.8828 -1.3922
  951MOL0     H28356  -1.970   2.727   9.274  0.8213  2.1302 -1.8090
  951MOL0     H28357  -2.093   2.458   9.175  1.9657 -1.1096  1.6862
  951MOL0     H28358  -2.012   2.472   9.319 -1.3575 -0.7547 -0.0676
  951MOL0     H28359  -2.184   2.628   9.427  1.5823 -0.9777  0.7168
  951MOL0     H28360  -2.268   2.500   9.341  1.0174 -1.7401  0.5789
  951MOL0     H28361  -2.211   2.787   9.243 -0.7295  0.2430 -0.4475
  951MOL0     H28362  -2.282   2.659   9.138  1.6245 -1.4893 -0.0599
  951MOL0     H28363  -2.476   2.641   9.263 -0.4076  1.1707 -5.6811
  951MOL0     H28364  -2.450   2.817   9.221  0.9361  0.0437 -1.2665
  951MOL0     H28365  -2.384   2.717   9.493  1.6315  0.7419  0.4471
  951MOL0     H28366  -2.530   2.791   9.436 -0.5475 -1.1028  2.3993
  951MOL0     H28367  -1.497   2.462   8.834 -0.1043 -0.5407  1.7058
  951MOL0     H28368  -1.345   2.575   8.676  1.4509 -1.6845  1.6931
  951MOL0     H28369  -1.123   2.831   8.513 -1.4806  1.3512  2.2093
  951MOL0     H28370  -0.943   2.948   8.394 -0.6745  0.3912  1.1894
  951MOL0     H28371   0.486   3.767   8.403 -1.4462 -1.8130  1.6674
  951MOL0     H28372   0.734   3.760   8.348  1.0186 -0.8816  1.9695
  951MOL0     H28373   1.031   3.695   7.865  1.2262 -1.3788 -1.7485
  951MOL0     H28374   1.272   3.719   7.841  3.6383 -0.8683  1.2508
  951MOL0     H28375   1.522   3.598   8.188 -0.1652  0.4236  0.3621
  951MOL0     H28376   1.538   3.467   8.076 -1.2168  0.4693  0.6035
  951MOL0     H28377   1.679   3.734   8.039  0.7654 -0.0272 -0.6805
  951MOL0     H28378   1.712   3.595   7.936 -2.5224  0.7765 -1.3682
  951MOL0     H28379   1.830   3.495   8.135  2.6754  0.1752  3.0285
  951MOL0     H28380   1.734   3.600   8.244  1.1053  2.1839  0.2220
  951MOL0     H28381   1.856   3.800   8.174 -0.0835 -0.1125  1.2732
  951MOL0     H28382   1.938   3.701   8.051  0.8568 -1.1979 -0.0427
  951MOL0     H28383   2.156   3.582   8.395  2.1488  1.6176 -1.2827
  951MOL0     H28384   1.341   3.454   8.171 -0.1552 -1.2550 -0.3027
  951MOL0     H28385   1.090   3.478   8.233 -1.6460  1.5674  0.4804
  952MOL0     O28386   7.821   9.197   0.577  0.3442  0.4568 -0.3665
  952MOL0     C28387   7.871   9.259   0.496 -1.6596  0.2693 -0.0305
  952MOL0     O28388   7.825   9.375   0.444  0.1892 -0.3767 -0.2899
  952MOL0     C28389   7.704   9.421   0.484  0.3294 -0.5681 -0.2848
  952MOL0     C28390   7.703   9.549   0.546  0.4173 -0.3854 -0.7777
  952MOL0     C28391   7.581   9.600   0.597  0.3471 -0.0647  0.2865
  952MOL0     C28392   7.463   9.529   0.580 -0.3560 -0.3488  0.6626
  952MOL0     O28393   7.334   9.574   0.627  0.3398  0.2316  0.1306
  952MOL0     C28394   7.307   9.719   0.603  0.1091 -0.1295 -0.1087
  952MOL0     C28395   7.271   9.760   0.463 -0.1550  0.4864  0.3695
  952MOL0     C28396   7.178   9.665   0.389 -0.0887 -0.2851 -1.1855
  952MOL0     C28397   7.094   9.737   0.282 -0.5725 -0.0734 -0.0132
  952MOL0     C28398   6.992   9.657   0.219  0.4109 -0.6873 -0.5207
  952MOL0     C28399   6.885   9.713   0.116 -0.5279 -0.9540 -0.4414
  952MOL0     C28400   6.821   9.614   0.032 -0.1604 -0.0727  0.1719
  952MOL0     C28401   6.714   9.676  -0.065 -0.3433  0.0631 -0.5301
  952MOL0     N28402   6.785   9.722  -0.185 -0.6147 -0.1166 -0.0423
  952MOL0     C28403   6.882   9.820  -0.202  0.0031 -0.2206 -0.4864
  952MOL0     C28404   6.928   9.815  -0.335  0.0269 -0.5171 -1.0251
  952MOL0     C28405   7.035   9.895  -0.400  0.2102  0.5502 -0.2610
  952MOL0     C28406   7.173   9.866  -0.345 -0.7040  0.1023  0.1982
  952MOL0     C28407   7.219   9.942  -0.223  0.2549  0.0021  0.3936
  952MOL0     C28408   7.369   9.946  -0.208  0.1596 -0.3949  0.2798
  952MOL0     O28409   7.416   9.819  -0.193  0.3568 -0.5935  0.1248
  952MOL0     C28410   7.546   9.807  -0.140 -0.0410 -0.3777 -0.0860
  952MOL0     C28411   7.569   9.810  -0.006 -0.2227 -0.6651  0.3123
  952MOL0     C28412   7.698   9.798   0.048 -0.6899 -0.5445  0.8058
  952MOL0     C28413   7.726   9.831   0.196  0.4409 -0.4750  0.0379
  952MOL0     C28414   7.803   9.781  -0.046 -0.6328  0.8934 -0.8609
  952MOL0     C28415   7.948   9.761  -0.007  0.4942 -0.5157 -0.6496
  952MOL0     O28416   8.034   9.781  -0.116  0.6561 -0.4653 -0.9985
  952MOL0     C28417   8.162   9.826  -0.088 -0.4688 -0.1219 -0.2002
  952MOL0     C28418   8.193   9.934   0.000  0.0436  0.8250 -0.1722
  952MOL0     C28419   8.324   9.946   0.044  0.0155 -0.1522 -0.2596
  952MOL0     C28420   8.422   9.858   0.003 -1.0355  0.6742  0.0900
  952MOL0     O28421   8.556   9.873   0.019 -0.2154 -0.4837 -0.6537
  952MOL0     C28422   8.604   9.957   0.120 -0.1407  0.0450 -0.1460
  952MOL0     C28423   8.753   9.945   0.130 -0.1434  0.8434 -0.3794
  952MOL0     C28424   8.794   9.804   0.180  0.4682  0.3663 -0.1048
  952MOL0     C28425   8.939   9.811   0.218  0.0493  0.2863  0.9010
  952MOL0     C28426   9.012   9.673   0.244 -0.2927 -0.3159 -0.2885
  952MOL0     C28427   9.162   9.696   0.290  0.3066  0.3926 -0.3822
  952MOL0     C28428   9.238   9.567   0.306 -0.3801  0.3020  0.0276
  952MOL0     C28429   9.395   9.586   0.304  0.2835 -0.2407  0.6177
  952MOL0    Cl28430   9.435   9.694   0.440  0.4245  0.7936 -0.1841
  952MOL0     C28431   8.392   9.757  -0.096  0.6673  1.1027 -0.2373
  952MOL0     C28432   8.262   9.750  -0.147  0.7197  0.7763  0.0363
  952MOL0     O28433   7.978   9.743   0.112  0.5078 -1.0927  0.4109
  952MOL0     C28434   7.771   9.763  -0.181  0.0165  0.0214  1.3002
  952MOL0     C28435   7.646   9.789  -0.239 -0.9342 -0.5915  0.3766
  952MOL0     N28436   6.843   9.724  -0.393  0.8882  0.2467  0.1246
  952MOL0     N28437   6.762   9.672  -0.313  1.0082  0.1517 -0.5432
  952MOL0     C28438   7.472   9.395   0.524 -0.4166 -0.7840 -0.0162
  952MOL0     C28439   7.588   9.345   0.476  1.1862 -0.8949  0.4530
  952MOL0     C28440   7.994   9.195   0.439  0.3657 -0.0145 -0.5368
  952MOL0     C28441   8.022   9.057   0.456  0.1121 -1.0617 -0.2522
  952MOL0     C28442   8.147   9.006   0.421  0.1202 -0.4408 -0.3210
  952MOL0     C28443   8.253   9.095   0.376 -0.2208  1.1460 -0.1524
  952MOL0     O28444   8.380   9.036   0.367  0.0315 -0.4412  0.1675
  952MOL0     C28445   8.490   9.119   0.320 -0.3833  0.9123  0.4617
  952MOL0     C28446   8.608   9.026   0.280 -0.5146 -0.3048  0.2492
  952MOL0     C28447   8.584   8.936   0.161 -0.1105  0.4736  1.0492
  952MOL0     C28448   8.701   8.834   0.147 -0.5755 -0.8330  0.3445
  952MOL0     C28449   8.842   8.890   0.147  0.5151 -0.5533 -0.2112
  952MOL0     C28450   8.954   8.919   0.154 -0.6938  0.1308 -0.3086
  952MOL0     C28451   8.226   9.224   0.339  0.3366  0.1412 -0.1767
  952MOL0     C28452   8.091   9.273   0.372  0.4227 -0.7963 -0.4518
  952MOL0     H28453   7.797   9.603   0.539  0.9976 -1.6143 -3.7323
  952MOL0     H28454   7.568   9.691   0.656  0.3070 -1.0526  1.8457
  952MOL0     H28455   7.215   9.739   0.660 -0.2506  0.4806 -0.8945
  952MOL0     H28456   7.390   9.781   0.637 -1.1172  1.7782 -0.3935
  952MOL0     H28457   7.217   9.854   0.470 -3.5489 -1.3654  1.0302
  952MOL0     H28458   7.361   9.777   0.403  0.0145 -1.2156  0.0913
  952MOL0     H28459   7.239   9.589   0.339  0.5254  0.2075 -1.2073
  952MOL0     H28460   7.113   9.623   0.466  0.2333  1.9613  0.4324
  952MOL0     H28461   7.056   9.822   0.339 -1.1901 -0.1485 -0.3064
  952MOL0     H28462   7.160   9.765   0.199 -1.3088 -1.2676 -1.0454
  952MOL0     H28463   7.048   9.592   0.152 -0.3973 -0.2610 -1.6450
  952MOL0     H28464   6.946   9.591   0.293  4.4336 -2.7555  0.4153
  952MOL0     H28465   6.813   9.763   0.182  1.4660 -0.2038  1.2922
  952MOL0     H28466   6.925   9.796   0.058  2.4147 -2.9145 -1.5085
  952MOL0     H28467   6.897   9.565  -0.030  1.3073  0.1862  1.6679
  952MOL0     H28468   6.770   9.540   0.094  0.9894 -1.9180 -0.9914
  952MOL0     H28469   6.643   9.742  -0.014 -2.6255 -1.6380 -1.3205
  952MOL0     H28470   6.649   9.592  -0.093 -1.3484  0.4646  0.5254
  952MOL0     H28471   6.915   9.888  -0.124 -0.4279 -3.7025  3.0029
  952MOL0     H28472   7.039   9.863  -0.504  1.1822 -2.2861  0.5619
  952MOL0     H28473   7.011  10.001  -0.390  1.4047  1.0904 -2.5238
  952MOL0     H28474   7.237   9.883  -0.431 -1.6864 -2.0619 -1.0349
  952MOL0     H28475   7.185   9.758  -0.328 -1.7381 -0.5245 -2.5760
  952MOL0     H28476   7.178   9.909  -0.127 -1.7209  2.9936  0.7223
  952MOL0     H28477   7.176  10.041  -0.241 -2.3452 -0.7580  1.8588
  952MOL0     H28478   7.396  10.008  -0.122 -2.1926  1.7427 -0.3994
  952MOL0     H28479   7.425   9.985  -0.295  6.1048 -2.8175  2.4964
  952MOL0     H28480   7.479   9.827   0.052 -1.1425 -0.6072 -1.0776
  952MOL0     H28481   7.759   9.739   0.245 -0.5461 -0.5242  0.6386
  952MOL0     H28482   7.810   9.901   0.207  3.0188 -3.3720  0.2054
  952MOL0     H28483   7.639   9.874   0.247  2.0250 -0.2620  2.7845
  952MOL0     H28484   8.122   9.994   0.056  1.8038 -0.2538  3.5752
  952MOL0     H28485   8.347  10.024   0.115 -0.2954  0.3792 -0.7297
  952MOL0     H28486   8.573  10.059   0.093 -0.4058  0.3448  1.1883
  952MOL0     H28487   8.556   9.939   0.217  1.3257  0.2948  0.6635
  952MOL0     H28488   8.785   9.944   0.026  1.0700  0.8057 -0.0199
  952MOL0     H28489   8.789  10.026   0.195 -0.6920  0.7822  0.0050
  952MOL0     H28490   8.765   9.725   0.111  0.6546 -1.0936  1.4250
  952MOL0     H28491   8.742   9.778   0.273 -2.0317 -1.6635 -1.9335
  952MOL0     H28492   8.998   9.855   0.137  0.9096  0.0022  1.3622
  952MOL0     H28493   8.948   9.873   0.308 -0.3602 -0.2744  1.3377
  952MOL0     H28494   9.016   9.620   0.148 -1.1424  1.8703 -1.5878
  952MOL0     H28495   8.964   9.615   0.323 -0.4045  1.5860  1.1048
  952MOL0     H28496   9.218   9.755   0.216  3.7326  0.5027  2.0420
  952MOL0     H28497   9.163   9.763   0.376  2.9147  2.8704 -2.1456
  952MOL0     H28498   9.222   9.502   0.219 -3.3479  3.8516 -2.4260
  952MOL0     H28499   9.223   9.512   0.399  5.7603 -4.2267 -1.0365
  952MOL0     H28500   9.430   9.627   0.210  1.4653 -1.4241  0.5069
  952MOL0     H28501   9.444   9.488   0.304 -1.1534 -1.0553 -1.8863
  952MOL0     H28502   8.476   9.703  -0.139 -1.2248 -0.9095 -1.6093
  952MOL0     H28503   8.230   9.661  -0.199  0.9545  0.3926  0.5423
  952MOL0     H28504   7.848   9.729  -0.251 -0.6352 -1.4865  1.2857
  952MOL0     H28505   7.622   9.799  -0.344  1.4676  2.3892 -0.0488
  952MOL0     H28506   7.377   9.342   0.523 -1.0243  0.0437  2.9176
  952MOL0     H28507   7.582   9.249   0.425 -1.2125  0.5993 -2.3726
  952MOL0     H28508   7.955   8.977   0.488  0.4268 -0.8775  0.9386
  952MOL0     H28509   8.165   8.899   0.424  0.2466 -0.4005  0.6423
  952MOL0     H28510   8.461   9.182   0.236 -3.3685 -0.1375  0.6057
  952MOL0     H28511   8.513   9.187   0.404 -2.5569  0.6443  1.3473
  952MOL0     H28512   8.622   8.964   0.369 -0.8748 -0.6429  0.0750
  952MOL0     H28513   8.705   9.071   0.259 -0.0362 -1.5172 -0.2209
  952MOL0     H28514   8.566   8.994   0.070 -1.8333 -1.0446  0.3499
  952MOL0     H28515   8.486   8.887   0.165 -1.9415  3.5808 -0.8507
  952MOL0     H28516   8.702   8.779   0.053  1.0675  0.4565 -0.4493
  952MOL0     H28517   8.688   8.757   0.224  1.0116 -2.0904 -0.5881
  952MOL0     H28518   9.054   8.948   0.177  0.0540 -1.0093 -1.9699
  952MOL0     H28519   8.300   9.289   0.293  0.0868  0.2977 -0.3644
  952MOL0     H28520   8.070   9.378   0.356  1.6119 -0.2382  1.2934
  953MOL0     O28521   6.678   5.786   1.719  0.0568  0.2604  0.0266
  953MOL0     C28522   6.735   5.861   1.799  0.2188  1.3260  0.2844
  953MOL0     O28523   6.790   5.979   1.766 -0.3050  0.5403  0.6168
  953MOL0     C28524   6.729   6.038   1.660 -0.5477  0.3124  0.0062
  953MOL0     C28525   6.810   6.049   1.546  0.2306  0.1206 -0.3677
  953MOL0     C28526   6.764   6.146   1.448 -0.5062 -0.7493  0.1146
  953MOL0     C28527   6.642   6.217   1.458  0.0262 -0.3655  0.4163
  953MOL0     O28528   6.603   6.319   1.378 -0.0879  0.4779  0.8550
  953MOL0     C28529   6.655   6.315   1.244 -0.0315 -0.1474 -0.2687
  953MOL0     C28530   6.586   6.431   1.165  0.2838  0.9235  0.6217
  953MOL0     C28531   6.622   6.392   1.025 -0.0767 -0.2245  0.1928
  953MOL0     C28532   6.568   6.483   0.923  0.3455 -1.1201  0.0566
  953MOL0     C28533   6.409   6.502   0.932 -0.7587  0.0624 -0.3873
  953MOL0     C28534   6.356   6.582   0.820 -0.4048  0.3364  0.5563
  953MOL0     C28535   6.325   6.496   0.691 -0.1937 -0.1185 -0.5403
  953MOL0     C28536   6.378   6.556   0.566 -0.2033  0.4687  0.6525
  953MOL0     N28537   6.313   6.510   0.438  0.5420  0.2130 -0.4762
  953MOL0     C28538   6.180   6.508   0.411 -1.0188  0.3524  0.4551
  953MOL0     C28539   6.173   6.430   0.296 -0.5028 -0.6750  0.3767
  953MOL0     C28540   6.040   6.394   0.220 -0.1682  0.3268 -0.9469
  953MOL0     C28541   6.008   6.517   0.137 -1.2503  0.6823  0.0306
  953MOL0     C28542   5.873   6.524   0.067 -0.6153  0.7482  0.5172
  953MOL0     C28543   5.853   6.655  -0.002 -0.1090 -0.2181  0.4883
  953MOL0     O28544   5.725   6.661  -0.068 -1.1569 -0.1392  0.2628
  953MOL0     C28545   5.671   6.770  -0.128  0.5478 -0.3077  0.2663
  953MOL0     C28546   5.535   6.765  -0.164  0.5171  0.0117  0.3117
  953MOL0     C28547   5.474   6.865  -0.237  0.2094  0.6688  0.2386
  953MOL0     C28548   5.340   6.849  -0.293 -0.8947 -0.2863  0.1854
  953MOL0     C28549   5.543   6.985  -0.260  0.0621  0.3596 -0.9029
  953MOL0     C28550   5.490   7.103  -0.318  1.0831 -0.6240  0.1781
  953MOL0     O28551   5.572   7.175  -0.394  0.3169 -0.6790  0.5435
  953MOL0     C28552   5.541   7.306  -0.408 -0.0425 -0.3581  0.9554
  953MOL0     C28553   5.629   7.407  -0.354 -0.4941 -0.5628 -1.1587
  953MOL0     C28554   5.613   7.547  -0.379 -0.7175 -0.6171 -0.1120
  953MOL0     C28555   5.495   7.588  -0.451 -0.0985  0.2681 -0.1284
  953MOL0     O28556   5.480   7.722  -0.464 -0.6423  0.3098 -0.3477
  953MOL0     C28557   5.357   7.775  -0.508  0.6396  0.2208  0.1452
  953MOL0     C28558   5.377   7.921  -0.565 -0.5715  0.5923 -0.6813
  953MOL0     C28559   5.398   8.035  -0.457 -0.4493  0.0033  0.3817
  953MOL0     C28560   5.399   8.179  -0.514  0.2783  0.2743  0.4857
  953MOL0     C28561   5.409   8.273  -0.400  0.0135 -0.4041 -0.7545
  953MOL0     C28562   5.435   8.412  -0.446 -0.1715 -0.5928 -1.6188
  953MOL0     C28563   5.475   8.500  -0.325 -0.7976 -0.5761  0.0792
  953MOL0     C28564   5.549   8.623  -0.381 -0.0668 -0.2092 -0.5047
  953MOL0    Cl28565   5.704   8.588  -0.458  0.0879 -0.2976  0.0054
  953MOL0     C28566   5.413   7.491  -0.510  1.1326 -0.2747 -0.0981
  953MOL0     C28567   5.436   7.359  -0.488 -0.0407  0.3046 -1.0867
  953MOL0     O28568   5.382   7.149  -0.280 -0.0772 -0.2901  0.2864
  953MOL0     C28569   5.676   6.989  -0.219  0.3392 -0.2728 -0.2402
  953MOL0     C28570   5.740   6.888  -0.162 -0.0376  0.0160  0.5973
  953MOL0     N28571   6.300   6.389   0.262  1.0790  1.2289  0.6706
  953MOL0     N28572   6.383   6.442   0.348  0.2527 -0.6699 -0.5333
  953MOL0     C28573   6.561   6.200   1.569 -0.6284 -0.5107  0.0025
  953MOL0     C28574   6.608   6.112   1.670  0.8078 -1.5221 -0.8873
  953MOL0     C28575   6.762   5.803   1.926 -0.8852 -0.2036  0.5090
  953MOL0     C28576   6.708   5.679   1.966  0.5237 -0.1605  0.5692
  953MOL0     C28577   6.735   5.632   2.098 -0.7938  0.3938  0.5455
  953MOL0     C28578   6.825   5.700   2.174  0.4681  0.3930 -0.2830
  953MOL0     O28579   6.874   5.651   2.287  1.0807  0.0538  0.1435
  953MOL0     C28580   6.779   5.626   2.397  0.1131 -0.7573  0.0114
  953MOL0     C28581   6.786   5.745   2.492  0.5260 -0.1334 -0.1903
  953MOL0     C28582   6.916   5.741   2.577  0.4396 -0.5574 -0.2871
  953MOL0     C28583   6.898   5.847   2.687  0.2028  0.9800  0.1776
  953MOL0     C28584   6.818   5.795   2.795  0.9633 -0.4033  0.1837
  953MOL0     C28585   6.759   5.773   2.900 -0.3299 -0.4665  0.5866
  953MOL0     C28586   6.876   5.819   2.139  0.8646 -1.1175 -0.1900
  953MOL0     C28587   6.845   5.873   2.011 -0.3235 -0.1625 -0.0626
  953MOL0     H28588   6.904   5.997   1.536 -0.8340 -2.2547  1.1719
  953MOL0     H28589   6.826   6.164   1.361  1.0710 -1.7416  0.9614
  953MOL0     H28590   6.764   6.317   1.239  0.2092 -3.0172  1.4668
  953MOL0     H28591   6.628   6.215   1.208  1.1187  0.2316 -2.3021
  953MOL0     H28592   6.477   6.421   1.166  0.3112 -0.6033 -1.7362
  953MOL0     H28593   6.614   6.532   1.196  0.9227  1.1504 -0.6438
  953MOL0     H28594   6.730   6.388   1.010 -0.2538 -4.6235 -1.4019
  953MOL0     H28595   6.594   6.292   0.991  0.7083  0.7548 -3.8894
  953MOL0     H28596   6.617   6.580   0.927 -1.2564 -0.1873 -1.3865
  953MOL0     H28597   6.589   6.440   0.824 -2.3661 -3.5830  0.4004
  953MOL0     H28598   6.350   6.411   0.944 -0.5983 -0.0634 -0.5362
  953MOL0     H28599   6.393   6.554   1.027 -0.3514  1.6950 -1.1723
  953MOL0     H28600   6.261   6.630   0.844 -0.4981  0.1857  0.4917
  953MOL0     H28601   6.427   6.663   0.798 -0.2005  0.0310  0.0684
  953MOL0     H28602   6.356   6.392   0.705 -1.8795 -0.9445 -2.4267
  953MOL0     H28603   6.217   6.483   0.681  0.1385 -1.0685 -3.9561
  953MOL0     H28604   6.485   6.534   0.574 -0.3258 -0.4760 -0.1907
  953MOL0     H28605   6.359   6.663   0.553  0.1539  0.2313 -2.5858
  953MOL0     H28606   6.093   6.542   0.466 -2.0955 -1.7477  0.1477
  953MOL0     H28607   6.053   6.314   0.145 -2.0118  0.7505 -1.7773
  953MOL0     H28608   5.952   6.369   0.280 -0.1399 -0.0890 -1.0713
  953MOL0     H28609   6.078   6.516   0.053 -0.0150 -1.2796  1.0153
  953MOL0     H28610   6.025   6.612   0.188  1.4974  1.2705 -1.7790
  953MOL0     H28611   5.802   6.511   0.149  0.3675 -0.4523  1.2171
  953MOL0     H28612   5.848   6.443  -0.003 -0.5147  0.2304  1.0665
  953MOL0     H28613   5.931   6.658  -0.079 -0.6026  1.6995  0.0174
  953MOL0     H28614   5.862   6.743   0.061 -1.5539  0.5839 -0.3496
  953MOL0     H28615   5.486   6.668  -0.163 -1.4629  0.9491  1.7665
  953MOL0     H28616   5.310   6.743  -0.296  1.9878 -1.2573  1.8727
  953MOL0     H28617   5.266   6.910  -0.241  0.9879  3.1000 -0.8444
  953MOL0     H28618   5.332   6.883  -0.397 -2.4858 -1.8008 -0.2526
  953MOL0     H28619   5.705   7.372  -0.285 -0.8262 -0.7379 -0.8801
  953MOL0     H28620   5.685   7.617  -0.337 -2.1406  0.6756  0.2820
  953MOL0     H28621   5.316   7.716  -0.591 -0.8989 -0.9412  1.6491
  953MOL0     H28622   5.278   7.764  -0.433 -0.3766  1.4304 -0.6932
  953MOL0     H28623   5.464   7.922  -0.631  1.4076  0.8775  1.8263
  953MOL0     H28624   5.279   7.940  -0.612 -2.3291 -2.7848  1.2399
  953MOL0     H28625   5.493   8.019  -0.405 -0.0997 -0.3485 -0.3530
  953MOL0     H28626   5.312   8.037  -0.389  0.3518 -2.7736  1.5966
  953MOL0     H28627   5.486   8.186  -0.580  0.8614 -2.7623  0.7440
  953MOL0     H28628   5.309   8.205  -0.570 -0.1433 -0.4695  0.7908
  953MOL0     H28629   5.495   8.247  -0.338  0.6014  0.2506 -1.2879
  953MOL0     H28630   5.317   8.257  -0.342  0.3087 -4.2352 -1.0705
  953MOL0     H28631   5.526   8.415  -0.506 -0.1519  1.0158 -1.5410
  953MOL0     H28632   5.343   8.457  -0.482 -2.0792 -1.2270  1.9461
  953MOL0     H28633   5.540   8.439  -0.262 -0.4947 -0.1878  0.1492
  953MOL0     H28634   5.390   8.531  -0.263  0.0601 -0.2204  1.1104
  953MOL0     H28635   5.576   8.678  -0.290 -3.6632 -2.2369  2.0334
  953MOL0     H28636   5.489   8.674  -0.458  1.7213  3.6626  0.4158
  953MOL0     H28637   5.333   7.514  -0.579  1.6365 -1.3889 -1.0801
  953MOL0     H28638   5.381   7.279  -0.536 -2.9785  0.2422  2.0031
  953MOL0     H28639   5.729   7.081  -0.239  0.5065 -0.3544 -0.1816
  953MOL0     H28640   5.845   6.895  -0.136  0.5134 -0.7478 -1.2614
  953MOL0     H28641   6.467   6.255   1.575  0.5858  2.0846 -2.4752
  953MOL0     H28642   6.553   6.116   1.764  1.7931 -1.6486 -0.2934
  953MOL0     H28643   6.635   5.627   1.904 -1.0315  1.8360  0.6040
  953MOL0     H28644   6.677   5.549   2.137  0.5014 -0.2089  1.2405
  953MOL0     H28645   6.672   5.620   2.373  0.4993 -0.5018 -1.9238
  953MOL0     H28646   6.804   5.534   2.451 -1.3092 -2.3164 -1.8369
  953MOL0     H28647   6.700   5.729   2.558 -0.2103 -2.1862 -1.5431
  953MOL0     H28648   6.776   5.834   2.430  2.7047 -0.7453 -1.4861
  953MOL0     H28649   6.991   5.769   2.503 -0.1731 -1.2010 -1.1706
  953MOL0     H28650   6.938   5.643   2.621 -0.9650  0.4960  3.0921
  953MOL0     H28651   6.843   5.929   2.640 -1.6810 -1.9177 -3.2312
  953MOL0     H28652   6.993   5.870   2.736 -0.9959  2.1878  2.0445
  953MOL0     H28653   6.697   5.761   2.987  0.5894 -3.8584  0.9009
  953MOL0     H28654   6.943   5.878   2.202  3.4839  0.2037 -3.8920
  953MOL0     H28655   6.900   5.962   1.981 -2.8595  2.0599  1.3511
  954MOL0     O28656   3.416   5.573   5.630 -0.1978  0.8365 -0.4014
  954MOL0     C28657   3.415   5.465   5.685  0.4244 -0.1252 -0.6667
  954MOL0     O28658   3.523   5.403   5.741 -0.3681 -0.7169 -0.2457
  954MOL0     C28659   3.642   5.464   5.745  0.1028 -0.3541  0.6244
  954MOL0     C28660   3.661   5.604   5.769  0.4361 -1.2621  0.0950
  954MOL0     C28661   3.791   5.657   5.773 -0.0197 -0.0847 -0.7219
  954MOL0     C28662   3.907   5.582   5.754  0.5122  0.7905  1.0723
  954MOL0     O28663   4.025   5.650   5.753  0.0217  0.0079 -0.0680
  954MOL0     C28664   4.134   5.572   5.706 -0.7728  0.0589  0.1668
  954MOL0     C28665   4.257   5.658   5.689 -0.5135  0.4951 -0.6315
  954MOL0     C28666   4.242   5.797   5.625  0.7913 -0.1919  0.1819
  954MOL0     C28667   4.369   5.874   5.611 -0.4444  0.4451  0.8326
  954MOL0     C28668   4.364   5.958   5.488 -0.6533  0.2211  0.7684
  954MOL0     C28669   4.292   6.094   5.528  0.1571  0.5007 -0.0390
  954MOL0     C28670   4.246   6.169   5.420  0.0125  1.3193 -0.4398
  954MOL0     C28671   4.138   6.267   5.446  0.9123 -0.1835  0.2407
  954MOL0     N28672   4.180   6.377   5.532 -0.1177 -0.1807 -0.1749
  954MOL0     C28673   4.136   6.395   5.666 -0.0337  0.4249  0.3126
  954MOL0     C28674   4.212   6.496   5.710 -0.0526  0.8108  0.0734
  954MOL0     C28675   4.217   6.550   5.853  0.1231  0.2719 -0.3024
  954MOL0     C28676   4.329   6.489   5.939 -0.5554  0.6120  1.1215
  954MOL0     C28677   4.328   6.336   5.971 -0.5971  0.1658  0.6152
  954MOL0     C28678   4.195   6.275   6.016  0.2296 -0.5656 -0.3969
  954MOL0     O28679   4.154   6.345   6.138 -0.6771  0.1292  0.2341
  954MOL0     C28680   4.047   6.300   6.203  0.1661  0.5367  0.7495
  954MOL0     C28681   4.038   6.328   6.338  0.1770 -0.3859  0.3840
  954MOL0     C28682   3.923   6.301   6.417 -0.0635 -0.9937 -0.0853
  954MOL0     C28683   3.925   6.341   6.562  0.3306  0.0383 -0.2641
  954MOL0     C28684   3.813   6.254   6.350 -0.3411  0.8382 -0.0454
  954MOL0     C28685   3.678   6.204   6.405  0.2476  0.7963  0.1534
  954MOL0     O28686   3.565   6.207   6.319 -0.4705  0.2350  0.3321
  954MOL0     C28687   3.452   6.161   6.379  0.2198 -0.2854  0.2931
  954MOL0     C28688   3.411   6.035   6.342 -0.3183 -0.3501  0.6845
  954MOL0     C28689   3.296   5.980   6.399 -0.0584 -0.2958  0.1304
  954MOL0     C28690   3.221   6.053   6.502 -0.4973  0.0487  1.0482
  954MOL0     O28691   3.109   6.002   6.548 -0.0217  0.3941  0.1483
  954MOL0     C28692   3.052   5.890   6.481 -0.0994  0.1271  0.0617
  954MOL0     C28693   2.907   5.860   6.542 -0.0275 -0.0216  0.0930
  954MOL0     C28694   2.821   5.982   6.550  0.0082  0.4504  0.4831
  954MOL0     C28695   2.696   5.940   6.617  0.3395 -0.0040 -0.2225
  954MOL0     C28696   2.591   6.053   6.623 -0.3116  0.3633 -0.5251
  954MOL0     C28697   2.647   6.175   6.688  0.1667 -0.0541  0.1970
  954MOL0     C28698   2.541   6.278   6.717  0.2177  0.0237 -0.4902
  954MOL0     C28699   2.606   6.413   6.756  0.3631 -0.6304  0.2774
  954MOL0    Cl28700   2.460   6.526   6.760 -0.2797 -0.5881 -0.0408
  954MOL0     C28701   3.282   6.167   6.550  0.3758 -0.7143 -0.0549
  954MOL0     C28702   3.393   6.219   6.491 -0.7900 -0.7500 -0.1436
  954MOL0     O28703   3.677   6.168   6.528  0.5587  0.2463  0.0116
  954MOL0     C28704   3.815   6.232   6.213  0.3179  0.4553  0.0423
  954MOL0     C28705   3.931   6.264   6.135 -0.6980 -1.0750  0.0556
  954MOL0     N28706   4.292   6.542   5.606 -0.8676 -0.5907 -0.2996
  954MOL0     N28707   4.272   6.472   5.501 -0.6586 -0.0146  0.1227
  954MOL0     C28708   3.886   5.444   5.739  0.7962 -0.8444  0.1095
  954MOL0     C28709   3.757   5.388   5.735 -0.1693  0.3325  1.1494
  954MOL0     C28710   3.281   5.395   5.692  0.8121 -0.3218 -0.5219
  954MOL0     C28711   3.276   5.265   5.733  1.1989 -0.1472  0.1646
  954MOL0     C28712   3.156   5.196   5.728 -0.7999  0.0199  0.3067
  954MOL0     C28713   3.044   5.257   5.689  0.6647 -0.1276  0.1581
  954MOL0     O28714   2.926   5.188   5.681 -0.1999  0.4858 -0.0688
  954MOL0     C28715   2.854   5.186   5.799 -0.6655  0.3318  0.6350
  954MOL0     C28716   2.809   5.037   5.839  0.0248 -0.8290  0.4537
  954MOL0     C28717   2.705   4.991   5.734  0.2695 -0.6489 -0.2403
  954MOL0     C28718   2.665   4.835   5.742  0.4095 -0.2611  0.5092
  954MOL0     C28719   2.784   4.772   5.687 -0.3637  0.1975  0.1564
  954MOL0     C28720   2.883   4.720   5.641 -0.9800 -0.3151 -0.5205
  954MOL0     C28721   3.041   5.390   5.654  0.5620 -0.0168  0.6654
  954MOL0     C28722   3.159   5.464   5.655 -0.6377 -1.2916  0.0934
  954MOL0     H28723   3.577   5.671   5.758  0.8259 -0.8869 -0.6932
  954MOL0     H28724   3.794   5.765   5.785 -1.6564  0.0504 -1.3178
  954MOL0     H28725   4.155   5.484   5.767  1.8039  0.3284 -0.2026
  954MOL0     H28726   4.103   5.536   5.608 -2.6662 -0.1719  0.8160
  954MOL0     H28727   4.299   5.674   5.789  0.5172  0.5593 -1.0623
  954MOL0     H28728   4.328   5.594   5.637 -0.7115 -0.3330  0.0886
  954MOL0     H28729   4.193   5.771   5.530 -0.3240 -0.0747  0.7067
  954MOL0     H28730   4.171   5.858   5.680 -0.4076 -1.0445 -0.3594
  954MOL0     H28731   4.380   5.926   5.706 -0.4203 -1.7342  2.0885
  954MOL0     H28732   4.450   5.801   5.617  0.4169  1.2741 -0.2658
  954MOL0     H28733   4.468   5.967   5.456 -0.7727  0.6727  0.5155
  954MOL0     H28734   4.312   5.910   5.405  0.7985  2.9462 -1.8716
  954MOL0     H28735   4.202   6.056   5.577  2.0681 -1.8726  1.9022
  954MOL0     H28736   4.344   6.146   5.608 -0.0713 -2.1713  1.9831
  954MOL0     H28737   4.336   6.215   5.379 -0.8551  3.8736  0.3315
  954MOL0     H28738   4.207   6.100   5.345  2.0085  0.8157 -1.0698
  954MOL0     H28739   4.066   6.208   5.503 -1.2013  1.2834 -0.7716
  954MOL0     H28740   4.093   6.301   5.353 -3.9526 -2.0461  1.6087
  954MOL0     H28741   4.054   6.346   5.718 -0.5636 -0.6158 -1.4122
  954MOL0     H28742   4.240   6.657   5.842  3.7154 -0.2447  0.8012
  954MOL0     H28743   4.119   6.529   5.895  0.4610 -1.5474 -0.3791
  954MOL0     H28744   4.322   6.545   6.033 -0.8708  2.8553 -0.1596
  954MOL0     H28745   4.422   6.521   5.892 -0.7461  1.8787  1.5588
  954MOL0     H28746   4.395   6.323   6.057 -1.5374  3.6879  2.0578
  954MOL0     H28747   4.367   6.291   5.879  2.2845  3.9468 -0.2700
  954MOL0     H28748   4.228   6.178   6.054  1.4588 -0.8733 -2.1038
  954MOL0     H28749   4.127   6.268   5.931  0.1649 -0.9679 -0.3118
  954MOL0     H28750   4.129   6.364   6.385  0.3860 -1.4083  0.7846
  954MOL0     H28751   3.842   6.408   6.588  0.7367  0.2477  0.5276
  954MOL0     H28752   3.931   6.249   6.622 -0.8692  0.3792  0.4189
  954MOL0     H28753   4.012   6.400   6.590  1.3272 -0.1674 -2.7591
  954MOL0     H28754   3.453   5.982   6.257 -1.4591  3.3522 -2.4742
  954MOL0     H28755   3.273   5.881   6.359 -1.0968  0.1587 -0.4607
  954MOL0     H28756   3.036   5.912   6.375  0.0713  0.1530  0.0400
  954MOL0     H28757   3.114   5.800   6.491  1.4144  1.2159  0.9043
  954MOL0     H28758   2.866   5.780   6.479  1.3681 -1.6914  1.1949
  954MOL0     H28759   2.910   5.816   6.642 -5.0198 -0.5141  0.2794
  954MOL0     H28760   2.799   6.019   6.450 -0.1638 -0.1774  0.2811
  954MOL0     H28761   2.878   6.056   6.606  1.6996  0.3459 -0.9992
  954MOL0     H28762   2.652   5.848   6.578  2.1735 -0.8448 -0.4027
  954MOL0     H28763   2.721   5.925   6.722 -0.4876  2.4199  0.4018
  954MOL0     H28764   2.513   6.013   6.688 -1.3378 -0.3231 -2.1236
  954MOL0     H28765   2.546   6.064   6.524 -1.6649  3.4868  0.3015
  954MOL0     H28766   2.682   6.136   6.784 -1.7713  1.3429  1.5328
  954MOL0     H28767   2.739   6.208   6.638  1.2453 -3.6489 -0.4966
  954MOL0     H28768   2.478   6.245   6.800  1.2816  2.8216  1.5685
  954MOL0     H28769   2.475   6.294   6.631 -1.8243 -0.9314  0.8266
  954MOL0     H28770   2.675   6.450   6.679  1.5693 -1.4126  0.9440
  954MOL0     H28771   2.653   6.412   6.855  1.3387  0.7627 -0.1362
  954MOL0     H28772   3.236   6.218   6.635 -1.4808 -1.3867 -0.5940
  954MOL0     H28773   3.443   6.315   6.502  0.8625 -1.5804 -0.1644
  954MOL0     H28774   3.732   6.209   6.148  3.5999 -0.1841 -4.3700
  954MOL0     H28775   3.916   6.245   6.029 -1.3545 -1.9243  0.2897
  954MOL0     H28776   3.969   5.374   5.731  0.1377 -1.5225 -1.2700
  954MOL0     H28777   3.741   5.284   5.708  1.3668  0.4562 -0.3417
  954MOL0     H28778   3.370   5.222   5.765  0.2095 -2.2823  0.3570
  954MOL0     H28779   3.152   5.094   5.764  0.0695 -0.0306  0.2865
  954MOL0     H28780   2.913   5.228   5.881 -1.0510  0.1471  1.0132
  954MOL0     H28781   2.765   5.246   5.781 -1.1314 -0.7714 -0.9623
  954MOL0     H28782   2.774   5.025   5.942  0.2242 -3.2446  0.3035
  954MOL0     H28783   2.896   4.971   5.829  1.7211  1.6310 -3.1045
  954MOL0     H28784   2.745   5.014   5.635  0.2390  1.9357  0.2663
  954MOL0     H28785   2.620   5.059   5.748 -0.3002 -1.7051  1.7121
  954MOL0     H28786   2.587   4.813   5.668 -0.2853  2.9214  0.1661
  954MOL0     H28787   2.627   4.806   5.840  1.1189  1.4019  1.3045
  954MOL0     H28788   2.967   4.663   5.606  2.1236  1.5866  3.1070
  954MOL0     H28789   2.946   5.424   5.613  0.6591 -2.1008 -1.5085
  954MOL0     H28790   3.160   5.569   5.627 -0.2887 -1.7532 -1.8337
  955MOL0     O28791   2.613   5.447   9.872 -0.4782 -0.3716 -0.1354
  955MOL0     C28792   2.635   5.534   9.957  0.0971  0.7222  0.1243
  955MOL0     O28793   2.597   5.519  10.086 -0.0806  0.4412 -0.4223
  955MOL0     C28794   2.509   5.425  10.133 -0.3330  0.0255 -0.2636
  955MOL0     C28795   2.495   5.447  10.273  0.0983  0.0071 -0.2785
  955MOL0     C28796   2.406   5.368  10.344  0.1091  0.2050 -0.1421
  955MOL0     C28797   2.322   5.280  10.268  0.3931  1.1450 -1.1841
  955MOL0     O28798   2.216   5.200  10.331 -0.6292 -0.8135  0.1586
  955MOL0     C28799   2.164   5.244  10.449 -0.0492 -0.4616  0.0688
  955MOL0     C28800   2.007   5.214  10.442  0.0967 -0.2121  0.1677
  955MOL0     C28801   1.987   5.062  10.423 -0.8199 -0.0258 -0.7194
  955MOL0     C28802   1.904   5.030  10.300 -0.1030 -0.3908 -0.7558
  955MOL0     C28803   1.857   4.890  10.286  0.8449  1.3089 -0.0204
  955MOL0     C28804   1.972   4.780  10.288  0.4100 -0.1620  0.1935
  955MOL0     C28805   2.077   4.799  10.170 -0.6538  0.1276  0.9569
  955MOL0     C28806   2.004   4.788  10.034 -0.2634 -0.0146 -0.2441
  955MOL0     N28807   2.114   4.777   9.932 -0.0549 -0.1168 -0.2578
  955MOL0     C28808   2.203   4.882   9.900  0.9630  0.7262 -0.0499
  955MOL0     C28809   2.295   4.813   9.813 -0.2376 -0.3136  0.2320
  955MOL0     C28810   2.397   4.895   9.746  0.5714 -0.0165  0.2394
  955MOL0     C28811   2.335   5.020   9.679 -0.6204  0.3984 -0.5326
  955MOL0     C28812   2.224   4.992   9.580  0.9049  0.9097 -0.5774
  955MOL0     C28813   2.124   5.112   9.544  0.8763 -0.5410 -0.1837
  955MOL0     O28814   2.013   5.051   9.481  0.8098  0.4844 -0.4220
  955MOL0     C28815   1.902   5.131   9.449 -0.8147  0.8056  0.0890
  955MOL0     C28816   1.794   5.045   9.431  0.1333 -0.1275  0.0050
  955MOL0     C28817   1.665   5.083   9.441  1.0573  0.5113  0.6113
  955MOL0     C28818   1.564   4.969   9.453  0.5013 -0.0405  0.1213
  955MOL0     C28819   1.634   5.217   9.439  0.7818  0.4005  0.5506
  955MOL0     C28820   1.494   5.268   9.458 -0.4466 -0.3558  0.8293
  955MOL0     O28821   1.403   5.184   9.506  0.0819  0.2769  0.5017
  955MOL0     C28822   1.274   5.202   9.475 -1.3174  0.1672  0.1353
  955MOL0     C28823   1.184   5.259   9.570 -0.1720  0.7166 -0.5750
  955MOL0     C28824   1.056   5.307   9.540  0.0446 -0.5887 -0.0447
  955MOL0     C28825   1.014   5.296   9.405  0.5817  0.1518 -0.1017
  955MOL0     O28826   0.890   5.328   9.366  0.3539  0.1325  0.3649
  955MOL0     C28827   0.791   5.389   9.449  1.1218  0.2864  0.8698
  955MOL0     C28828   0.696   5.469   9.351 -0.3450  0.9086  0.1872
  955MOL0     C28829   0.606   5.558   9.427  0.0591  0.3430 -0.3562
  955MOL0     C28830   0.507   5.625   9.336  0.3543  0.1462  0.1557
  955MOL0     C28831   0.421   5.731   9.408  0.0852 -1.3399 -1.3036
  955MOL0     C28832   0.299   5.764   9.321  0.7021 -0.2942 -0.1181
  955MOL0     C28833   0.210   5.876   9.380  0.1695  0.2779  0.5242
  955MOL0     C28834   0.134   5.954   9.263  0.0538 -1.5053 -0.3493
  955MOL0    Cl28835   0.018   5.851   9.185 -0.0582 -0.0171 -0.6396
  955MOL0     C28836   1.087   5.223   9.316 -1.3912 -0.2404  0.1235
  955MOL0     C28837   1.218   5.182   9.343  0.9886 -0.2147  0.0601
  955MOL0     O28838   1.474   5.388   9.440 -0.2272 -0.0694  0.3271
  955MOL0     C28839   1.739   5.309   9.450 -0.5898 -0.5272  0.5559
  955MOL0     C28840   1.870   5.272   9.460 -0.0106  0.3622  0.4245
  955MOL0     N28841   2.255   4.687   9.795 -0.2505  0.7585 -0.0329
  955MOL0     N28842   2.159   4.665   9.875 -0.7426 -0.0668  1.1775
  955MOL0     C28843   2.330   5.262  10.135  0.0656 -0.7221  0.5433
  955MOL0     C28844   2.429   5.332  10.064 -0.3006 -0.1838 -0.8718
  955MOL0     C28845   2.717   5.644   9.917  0.0002 -0.0981 -0.0942
  955MOL0     C28846   2.729   5.749  10.009 -0.2585 -1.6854 -0.1378
  955MOL0     C28847   2.813   5.867   9.984 -0.2945  0.0128  0.5861
  955MOL0     C28848   2.880   5.866   9.860  0.2113 -0.4018  0.5453
  955MOL0     O28849   2.981   5.962   9.834 -0.0698 -0.6047 -1.1397
  955MOL0     C28850   2.943   6.092   9.811  0.3389  0.4314  0.3186
  955MOL0     C28851   3.059   6.183   9.817 -0.9068  0.2853 -0.7105
  955MOL0     C28852   3.179   6.134   9.729  0.2067  0.7221 -0.2776
  955MOL0     C28853   3.150   6.109   9.576 -0.3603  0.5578 -0.7636
  955MOL0     C28854   3.073   6.225   9.523 -0.6531 -0.0633 -0.6529
  955MOL0     C28855   3.000   6.309   9.476 -0.5888 -0.5738 -0.8706
  955MOL0     C28856   2.879   5.759   9.767  0.2942  0.1713  0.2832
  955MOL0     C28857   2.802   5.653   9.797  0.3465  0.2052  0.3094
  955MOL0     H28858   2.541   5.523  10.335 -2.3982  0.4545  1.1731
  955MOL0     H28859   2.387   5.380  10.450 -1.3395  0.1812 -0.3782
  955MOL0     H28860   2.208   5.182  10.528  0.0704  0.9766  1.1649
  955MOL0     H28861   2.184   5.347  10.478 -2.4304  0.8567 -2.4468
  955MOL0     H28862   1.960   5.247  10.536  0.2115  1.0736 -0.2049
  955MOL0     H28863   1.954   5.279  10.371  2.2051 -0.1829 -1.4621
  955MOL0     H28864   2.086   5.016  10.415  0.4225  1.8684  2.1693
  955MOL0     H28865   1.939   5.022  10.513  0.4751  0.2315  0.1147
  955MOL0     H28866   1.818   5.098  10.303 -0.3537 -0.7316  0.3150
  955MOL0     H28867   1.954   5.061  10.208 -1.1673 -0.5520 -1.4049
  955MOL0     H28868   1.784   4.878  10.367  1.8863 -1.1679  0.6458
  955MOL0     H28869   1.792   4.886  10.198  2.5160 -0.5057 -1.2544
  955MOL0     H28870   2.018   4.787  10.387 -0.1742 -2.2931  0.6564
  955MOL0     H28871   1.925   4.682  10.283  1.3485 -0.5581 -2.5925
  955MOL0     H28872   2.133   4.893  10.174  0.4272 -0.3913 -0.5944
  955MOL0     H28873   2.160   4.726  10.168 -0.6490 -0.2147 -5.0570
  955MOL0     H28874   1.945   4.877  10.009 -1.7031 -0.7516  0.3948
  955MOL0     H28875   1.944   4.697  10.024  0.9910 -0.7839 -1.1031
  955MOL0     H28876   2.200   4.982   9.942 -3.1995  1.2519 -1.1459
  955MOL0     H28877   2.463   4.912   9.832 -2.4247 -4.3202  3.8318
  955MOL0     H28878   2.450   4.828   9.677 -2.9260 -1.7487 -1.0175
  955MOL0     H28879   2.411   5.073   9.621  1.4344 -1.7980 -0.0125
  955MOL0     H28880   2.305   5.085   9.762  2.1115  0.2078  0.6940
  955MOL0     H28881   2.169   4.904   9.613 -0.5065  1.0263 -2.4716
  955MOL0     H28882   2.270   4.954   9.488 -0.1116  0.7211 -1.0225
  955MOL0     H28883   2.165   5.186   9.474 -2.4427  3.5979  1.7907
  955MOL0     H28884   2.093   5.158   9.639  1.8553 -1.1516  0.4530
  955MOL0     H28885   1.813   4.938   9.422 -1.4649 -0.2777 -2.5004
  955MOL0     H28886   1.489   4.975   9.374 -0.2577  0.6040  0.8729
  955MOL0     H28887   1.608   4.869   9.442 -0.7174 -0.5158 -0.7258
  955MOL0     H28888   1.515   4.964   9.551  1.2417  0.8687  0.5559
  955MOL0     H28889   1.227   5.263   9.669 -4.8885 -3.5808  2.1562
  955MOL0     H28890   0.980   5.346   9.607 -0.0880 -0.4366 -0.2786
  955MOL0     H28891   0.729   5.326   9.513  0.0552 -1.0077 -1.2879
  955MOL0     H28892   0.836   5.466   9.511 -3.5937  3.3111  1.0061
  955MOL0     H28893   0.753   5.537   9.287  0.2757  0.0489 -0.2018
  955MOL0     H28894   0.639   5.399   9.289 -0.4380  0.4978  0.7278
  955MOL0     H28895   0.658   5.636   9.483 -1.3339 -0.8378  2.8384
  955MOL0     H28896   0.560   5.500   9.507 -0.9153  0.4213 -0.8424
  955MOL0     H28897   0.563   5.671   9.254 -0.0388 -1.3617 -0.9977
  955MOL0     H28898   0.445   5.538   9.313 -0.0028  0.8473 -1.6381
  955MOL0     H28899   0.482   5.821   9.417 -0.4112 -0.9417 -1.8242
  955MOL0     H28900   0.384   5.695   9.504  1.9076  2.7768  1.2029
  955MOL0     H28901   0.327   5.779   9.216 -2.6413  0.7730 -0.9855
  955MOL0     H28902   0.230   5.679   9.323  0.2344  0.0971  0.9542
  955MOL0     H28903   0.285   5.931   9.438 -0.3511  0.0370  1.4438
  955MOL0     H28904   0.141   5.822   9.445 -0.6365 -2.1919 -2.2077
  955MOL0     H28905   0.191   6.011   9.189 -0.8889  3.8709  2.5348
  955MOL0     H28906   0.075   6.031   9.312  2.9870  2.3202 -2.2702
  955MOL0     H28907   1.051   5.192   9.219 -1.0882  1.3868 -0.5508
  955MOL0     H28908   1.286   5.133   9.275  1.5557  1.6374 -0.7587
  955MOL0     H28909   1.739   5.418   9.454 -1.2169 -0.4484 -1.0751
  955MOL0     H28910   1.939   5.354   9.474 -0.6209  1.3182 -1.6994
  955MOL0     H28911   2.259   5.203  10.078  1.2843  1.5552 -3.8207
  955MOL0     H28912   2.436   5.312   9.958 -2.7754 -2.1397 -0.7792
  955MOL0     H28913   2.657   5.754  10.090 -1.9716 -4.4003 -1.3539
  955MOL0     H28914   2.823   5.951  10.052  0.9436  1.5886 -1.4379
  955MOL0     H28915   2.901   6.094   9.710 -0.5814 -2.5014  0.5425
  955MOL0     H28916   2.870   6.124   9.886 -2.5450 -0.7165 -1.8065
  955MOL0     H28917   3.084   6.179   9.924 -2.8271 -0.1538 -0.2452
  955MOL0     H28918   3.029   6.285   9.792 -1.5096 -0.0593 -1.4186
  955MOL0     H28919   3.215   6.041   9.774  2.7107  0.7608 -1.9915
  955MOL0     H28920   3.243   6.222   9.731  1.1739  0.0903 -1.7900
  955MOL0     H28921   3.097   6.014   9.566 -0.5006  0.5831 -0.3071
  955MOL0     H28922   3.246   6.096   9.527  1.2678 -1.4453  2.6097
  955MOL0     H28923   2.925   6.379   9.445 -1.2970 -0.7739  0.3362
  955MOL0     H28924   2.944   5.762   9.680 -0.8616  1.7337 -0.5864
  955MOL0     H28925   2.798   5.567   9.730 -0.6063 -1.8309  2.8048
  956MOL0     O28926   4.692  10.314   9.185 -0.2980  0.0664  1.0755
  956MOL0     C28927   4.746  10.429   9.180  0.0787  0.0018  0.2939
  956MOL0     O28928   4.673  10.541   9.171 -0.3171 -0.1436 -0.2055
  956MOL0     C28929   4.542  10.552   9.158  0.0052 -0.3236  0.0940
  956MOL0     C28930   4.441  10.457   9.178 -0.2525 -0.2714  0.1149
  956MOL0     C28931   4.307  10.491   9.170  0.0340  0.2612 -0.7181
  956MOL0     C28932   4.264  10.615   9.139 -1.3104 -0.5813 -0.5873
  956MOL0     O28933   4.129  10.645   9.115 -0.7579  0.1627 -0.1643
  956MOL0     C28934   4.037  10.575   9.196  1.5337  0.1831 -0.0548
  956MOL0     C28935   3.960  10.472   9.127  0.1475  0.1752 -0.4384
  956MOL0     C28936   3.953  10.496   8.974  0.4060  0.0459  0.5305
  956MOL0     C28937   3.865  10.399   8.898 -0.7486 -0.0794 -0.1405
  956MOL0     C28938   3.823  10.459   8.762 -0.2446  0.5351  0.1046
  956MOL0     C28939   3.765  10.339   8.679  0.9258 -0.6731  0.5205
  956MOL0     C28940   3.624  10.312   8.735 -0.0081 -0.8929  0.1184
  956MOL0     C28941   3.534  10.211   8.662 -0.1793 -1.3320  0.6328
  956MOL0     N28942   3.414  10.191   8.735 -0.7317 -0.2306  0.2581
  956MOL0     C28943   3.392  10.183   8.871 -0.2319  1.3797  0.3543
  956MOL0     C28944   3.254  10.157   8.873  0.8456 -0.3639  0.1460
  956MOL0     C28945   3.183  10.122   9.002 -0.3086 -0.1888 -0.0222
  956MOL0     C28946   3.161  10.231   9.113  1.3652  0.5390  0.6392
  956MOL0     C28947   3.072  10.341   9.060  0.5189 -0.6327 -0.2423
  956MOL0     C28948   2.923  10.309   9.034  0.1697 -1.0996 -0.4794
  956MOL0     O28949   2.854  10.231   9.134  0.4393 -0.5487 -0.3118
  956MOL0     C28950   2.801  10.299   9.243 -0.2362 -0.4774 -0.1579
  956MOL0     C28951   2.751  10.211   9.342  0.1638  0.0346  0.5461
  956MOL0     C28952   2.704  10.254   9.466 -0.5111  0.3119  0.2198
  956MOL0     C28953   2.636  10.136   9.537  0.9421 -0.7630 -1.2990
  956MOL0     C28954   2.713  10.388   9.502  0.1032  0.7568  0.7137
  956MOL0     C28955   2.671  10.438   9.636  0.1359 -0.0929 -0.9247
  956MOL0     O28956   2.681  10.573   9.654 -0.4053 -0.0196  0.0306
  956MOL0     C28957   2.661  10.623   9.777  0.0147 -0.6345 -0.2091
  956MOL0     C28958   2.534  10.620   9.837 -0.4272 -0.7149  0.5639
  956MOL0     C28959   2.518  10.678   9.959 -0.3281 -0.4987  0.5178
  956MOL0     C28960   2.630  10.736  10.031  0.7825  0.1848 -0.5227
  956MOL0     O28961   2.613  10.797  10.154 -0.9923 -0.0535 -0.1639
  956MOL0     C28962   2.486  10.832  10.192 -0.6734  0.5067  0.5462
  956MOL0     C28963   2.465  10.941  10.303  0.1892 -1.0586  0.1244
  956MOL0     C28964   2.562  11.059  10.297 -0.5833  0.8227 -0.7670
  956MOL0     C28965   2.708  11.021  10.343  0.2583  0.7525  0.5510
  956MOL0     C28966   2.704  10.958  10.483  0.0518  0.3049  0.7748
  956MOL0     C28967   2.642  11.042  10.596  0.3706 -0.4152  0.6034
  956MOL0     C28968   2.706  11.181  10.612 -0.7793 -0.3360  0.0682
  956MOL0     C28969   2.673  11.241  10.752  0.1732  1.7361 -0.5760
  956MOL0    Cl28970   2.509  11.316  10.736 -0.3845 -0.0971 -0.4105
  956MOL0     C28971   2.759  10.727   9.968 -0.3169 -0.0082 -0.4862
  956MOL0     C28972   2.775  10.675   9.841  0.3827  0.7315 -0.0847
  956MOL0     O28973   2.646  10.356   9.726 -0.3358  0.3858 -0.5514
  956MOL0     C28974   2.775  10.473   9.408 -0.1013 -0.4830  0.4111
  956MOL0     C28975   2.813  10.431   9.276  0.5958  0.0301 -0.7127
  956MOL0     N28976   3.206  10.143   8.741  0.0789  0.7667  0.0456
  956MOL0     N28977   3.303  10.157   8.664 -0.1128 -0.2723  0.1901
  956MOL0     C28978   4.363  10.716   9.124 -0.2599  0.0743  0.4907
  956MOL0     C28979   4.494  10.685   9.133 -0.3544  0.5652  0.3120
  956MOL0     C28980   4.899  10.437   9.168  0.5745  0.0752  0.4525
  956MOL0     C28981   4.972  10.321   9.190  0.1571 -0.4028 -0.5695
  956MOL0     C28982   5.113  10.323   9.167  0.1938  0.2441 -1.5223
  956MOL0     C28983   5.178  10.439   9.133 -0.2367  0.4753 -0.0594
  956MOL0     O28984   5.308  10.456   9.108 -0.2055  0.2533  0.5943
  956MOL0     C28985   5.393  10.327   9.114 -0.0465 -0.7308 -0.1775
  956MOL0     C28986   5.543  10.355   9.076  0.5974  0.7550 -0.3774
  956MOL0     C28987   5.569  10.379   8.928 -0.6141 -0.5315  0.0683
  956MOL0     C28988   5.584  10.251   8.842  0.2457 -0.6883 -0.2717
  956MOL0     C28989   5.706  10.180   8.868  0.5460  0.5819 -0.1675
  956MOL0     C28990   5.806  10.129   8.899  0.2665  0.2276 -0.0548
  956MOL0     C28991   5.108  10.550   9.122  0.2926 -0.8618 -0.2778
  956MOL0     C28992   4.966  10.556   9.143  0.2080  0.2606 -0.5788
  956MOL0     H28993   4.474  10.357   9.205  1.1412 -1.2240 -4.2817
  956MOL0     H28994   4.227  10.420   9.189  1.0664 -0.3093  1.9927
  956MOL0     H28995   4.076  10.526   9.286 -0.4634 -1.5786 -0.0878
  956MOL0     H28996   3.968  10.647   9.241  0.0162 -0.8106 -0.7111
  956MOL0     H28997   4.001  10.372   9.145  0.4603  0.5608  1.1661
  956MOL0     H28998   3.857  10.469   9.165 -0.4040  0.8589 -1.8332
  956MOL0     H28999   3.918  10.596   8.945 -1.9744 -1.9654 -4.9408
  956MOL0     H29000   4.047  10.491   8.918 -1.2344 -0.6079 -2.4097
  956MOL0     H29001   3.920  10.306   8.878 -0.4621 -0.2064  1.1703
  956MOL0     H29002   3.788  10.371   8.970 -0.5813 -1.2229 -0.3862
  956MOL0     H29003   3.757  10.545   8.752  0.5014  0.9335 -1.7657
  956MOL0     H29004   3.915  10.495   8.716 -0.7509  1.2499 -0.3476
  956MOL0     H29005   3.752  10.371   8.575 -1.3598 -1.8478  0.3737
  956MOL0     H29006   3.828  10.249   8.676  0.4508 -1.1443  2.8079
  956MOL0     H29007   3.644  10.275   8.836 -0.0987 -0.9443  0.1176
  956MOL0     H29008   3.568  10.403   8.759  0.3199 -0.4859 -0.6287
  956MOL0     H29009   3.583  10.115   8.641 -0.1957 -0.5690 -4.1736
  956MOL0     H29010   3.517  10.251   8.561  2.0989 -1.3515  0.1930
  956MOL0     H29011   3.457  10.199   8.956 -2.5155  2.0187  2.0741
  956MOL0     H29012   3.090  10.073   8.971 -0.6282  1.0977 -1.1501
  956MOL0     H29013   3.243  10.047   9.054  0.4382 -1.9951 -3.2230
  956MOL0     H29014   3.254  10.272   9.154  0.3747  0.5639  3.0360
  956MOL0     H29015   3.125  10.185   9.205  1.4854 -1.1851 -0.1469
  956MOL0     H29016   3.120  10.385   8.972 -0.5293  0.0344 -0.5027
  956MOL0     H29017   3.055  10.412   9.142  0.2736 -1.0733  0.0938
  956MOL0     H29018   2.920  10.244   8.945  1.5079 -1.4793 -0.2776
  956MOL0     H29019   2.860  10.398   9.023 -1.2114 -2.0501 -0.5674
  956MOL0     H29020   2.767  10.107   9.313  1.2011  1.2654 -4.2303
  956MOL0     H29021   2.604  10.045   9.484 -1.0509  0.1290 -1.7277
  956MOL0     H29022   2.679  10.102   9.632 -0.5125 -0.0889 -0.3753
  956MOL0     H29023   2.543  10.175   9.578  2.6576 -0.9489  3.3525
  956MOL0     H29024   2.442  10.581   9.794 -0.8503 -0.0003  0.7961
  956MOL0     H29025   2.414  10.685   9.988 -1.0261 -1.0483 -1.6983
  956MOL0     H29026   2.444  10.887  10.107  0.5038 -1.5518 -1.4708
  956MOL0     H29027   2.419  10.746  10.205 -0.9531  1.0109  3.0583
  956MOL0     H29028   2.365  10.981  10.288  0.8914  0.0635 -2.0010
  956MOL0     H29029   2.457  10.887  10.398 -1.5948 -0.7585  0.1775
  956MOL0     H29030   2.530  11.146  10.354 -1.6523 -0.1041  0.0734
  956MOL0     H29031   2.564  11.100  10.195 -1.0176  0.3502 -0.9693
  956MOL0     H29032   2.746  10.956  10.264 -1.2945  1.9108 -1.2355
  956MOL0     H29033   2.782  11.100  10.356  1.5776  0.1979 -2.5120
  956MOL0     H29034   2.807  10.950  10.520  0.3657 -1.2136 -0.3255
  956MOL0     H29035   2.663  10.858  10.476  0.1407  0.3828 -2.2117
  956MOL0     H29036   2.537  11.065  10.573  0.4890  1.3037  1.6267
  956MOL0     H29037   2.643  10.980  10.686 -2.3261 -1.0641  0.2888
  956MOL0     H29038   2.678  11.245  10.528 -1.5050 -0.3705  0.2801
  956MOL0     H29039   2.815  11.171  10.607 -0.5120  0.6528  2.4534
  956MOL0     H29040   2.740  11.316  10.794  1.9254  0.1163 -0.3579
  956MOL0     H29041   2.671  11.158  10.822 -1.7751  0.5220 -1.9501
  956MOL0     H29042   2.846  10.762  10.023 -1.5321 -0.3128  1.7629
  956MOL0     H29043   2.864  10.664   9.781 -1.8599  0.6775 -3.6571
  956MOL0     H29044   2.789  10.579   9.427  1.0752 -0.6432  0.5440
  956MOL0     H29045   2.865  10.496   9.206  0.4628 -1.2986 -2.0931
  956MOL0     H29046   4.323  10.814   9.101  1.8066  0.9356  0.3570
  956MOL0     H29047   4.558  10.771   9.118  0.1921  0.1151  0.0143
  956MOL0     H29048   4.933  10.222   9.214 -0.6184  0.4460  1.9688
  956MOL0     H29049   5.156  10.226   9.190 -3.0321 -1.0058 -0.0113
  956MOL0     H29050   5.396  10.290   9.217 -3.4063  3.2002  1.6579
  956MOL0     H29051   5.356  10.255   9.041 -0.7155 -0.3851 -0.1845
  956MOL0     H29052   5.605  10.272   9.112 -0.0117  0.8213  0.8662
  956MOL0     H29053   5.578  10.440   9.134  0.4230  1.1875 -0.8960
  956MOL0     H29054   5.655  10.445   8.917 -1.0531  0.4399  1.8876
  956MOL0     H29055   5.482  10.438   8.898 -0.6462  0.0605  1.2699
  956MOL0     H29056   5.603  10.281   8.738 -0.5466 -0.9769 -0.5073
  956MOL0     H29057   5.497  10.185   8.849  1.8235 -2.9743 -0.9793
  956MOL0     H29058   5.886  10.073   8.942 -0.7596 -1.1596  0.1521
  956MOL0     H29059   5.159  10.646   9.112  2.6432 -1.7919  1.8241
  956MOL0     H29060   4.925  10.656   9.143 -1.0117 -0.0599  4.0124
  957MOL0     O29061   4.211  10.551   1.135 -0.0638  0.2311  0.1681
  957MOL0     C29062   4.209  10.570   1.013  0.9197 -0.7872  0.2980
  957MOL0     O29063   4.317  10.580   0.929  0.5740 -0.3181  0.3309
  957MOL0     C29064   4.440  10.548   0.979  0.0247  0.1810  0.7629
  957MOL0     C29065   4.502  10.430   0.937  1.9428  0.4047 -0.1240
  957MOL0     C29066   4.630  10.396   0.962 -0.0866  0.7163 -0.3616
  957MOL0     C29067   4.707  10.484   1.038  0.6756  0.1242 -0.2203
  957MOL0     O29068   4.839  10.456   1.054 -0.1028 -0.4188  0.4612
  957MOL0     C29069   4.913  10.399   0.946 -0.6656 -1.3280  0.2909
  957MOL0     C29070   5.058  10.407   0.983 -0.1846  0.4454 -0.3668
  957MOL0     C29071   5.138  10.349   0.862 -0.7766  0.5808 -0.2520
  957MOL0     C29072   5.268  10.274   0.893  0.8462 -0.0122  0.7544
  957MOL0     C29073   5.381  10.356   0.931  0.6207 -0.9956  0.4152
  957MOL0     C29074   5.515  10.282   0.947  0.1111  0.1979 -0.4970
  957MOL0     C29075   5.636  10.378   0.937  0.2096 -0.0035  0.3434
  957MOL0     C29076   5.753  10.296   0.900 -0.3829  0.1941  0.0590
  957MOL0     N29077   5.887  10.346   0.940 -0.9830 -0.7520  0.3025
  957MOL0     C29078   6.005  10.274   0.923  0.1078 -0.3970  0.4687
  957MOL0     C29079   6.099  10.372   0.948  0.6306 -0.4463  0.2575
  957MOL0     C29080   6.245  10.365   0.921 -1.0724  0.0538 -0.0798
  957MOL0     C29081   6.334  10.324   1.046 -0.0625 -0.5143  0.0296
  957MOL0     C29082   6.297  10.177   1.091  0.5575 -0.0804 -0.3214
  957MOL0     C29083   6.323  10.069   0.981  0.1015  0.5622  0.1725
  957MOL0     O29084   6.353   9.946   1.051  0.3754  0.5458  0.0904
  957MOL0     C29085   6.476   9.920   1.100 -1.0158 -0.4046  0.8148
  957MOL0     C29086   6.581  10.012   1.080 -0.2664  0.2160  0.7881
  957MOL0     C29087   6.714   9.978   1.118 -0.2661  0.7346 -0.4672
  957MOL0     C29088   6.831  10.068   1.077  0.7149 -0.3506 -0.6401
  957MOL0     C29089   6.742   9.856   1.185  0.2534 -0.0812  1.2685
  957MOL0     C29090   6.873   9.809   1.212  0.9180 -0.8031 -0.1713
  957MOL0     O29091   6.899   9.775   1.350 -0.4399  0.4950 -0.5997
  957MOL0     C29092   7.031   9.732   1.387 -0.3030 -0.4453  1.0613
  957MOL0     C29093   7.115   9.637   1.313  0.3321  0.8400 -0.2208
  957MOL0     C29094   7.230   9.596   1.376  0.3390  0.3748 -0.3654
  957MOL0     C29095   7.266   9.636   1.504 -0.1220 -0.5648  0.0514
  957MOL0     O29096   7.386   9.602   1.570 -0.0152 -1.0021 -0.3684
  957MOL0     C29097   7.406   9.461   1.577  0.3008  0.3976 -0.5240
  957MOL0     C29098   7.441   9.420   1.720  0.4096 -0.8441 -0.4258
  957MOL0     C29099   7.351   9.484   1.824 -0.8574  0.1827  0.0659
  957MOL0     C29100   7.199   9.462   1.809  0.2483  0.2799  0.1935
  957MOL0     C29101   7.120   9.527   1.928 -0.3912  0.2719  1.1314
  957MOL0     C29102   6.971   9.528   1.904 -0.1647  0.4585 -0.1334
  957MOL0     C29103   6.891   9.542   2.034  1.1217  0.1203  0.1375
  957MOL0     C29104   6.751   9.491   2.021  0.0528  0.7306 -0.6756
  957MOL0    Cl29105   6.658   9.593   1.909 -0.0721 -0.2327 -0.1144
  957MOL0     C29106   7.197   9.731   1.563  0.6405 -0.5037 -0.3591
  957MOL0     C29107   7.081   9.776   1.511  0.7066 -0.1236  0.6537
  957MOL0     O29108   6.940   9.774   1.117 -0.5804  0.2536  0.4057
  957MOL0     C29109   6.632   9.779   1.225 -0.5009  0.2823  0.2072
  957MOL0     C29110   6.503   9.811   1.181 -0.0137 -0.4909  0.5130
  957MOL0     N29111   6.034  10.483   1.000  0.4457 -0.1101 -0.0067
  957MOL0     N29112   5.910  10.458   1.005 -0.4297 -0.5652 -0.1786
  957MOL0     C29113   4.648  10.593   1.097  0.8010  0.2374  0.2574
  957MOL0     C29114   4.507  10.621   1.083 -0.4326  0.0801  0.7829
  957MOL0     C29115   4.087  10.605   0.956  0.0112  0.9544  0.8000
  957MOL0     C29116   3.969  10.627   1.024 -0.1314 -0.9340 -0.4907
  957MOL0     C29117   3.849  10.662   0.965 -0.0147  0.1406  0.1964
  957MOL0     C29118   3.828  10.640   0.831 -0.5627  0.5180 -0.4453
  957MOL0     O29119   3.709  10.654   0.769 -0.4520  0.0247 -0.0082
  957MOL0     C29120   3.590  10.686   0.849 -0.0057  0.1285 -0.0898
  957MOL0     C29121   3.494  10.743   0.749  0.2094 -0.0639  0.1525
  957MOL0     C29122   3.346  10.759   0.792 -0.0759  0.2923  0.0679
  957MOL0     C29123   3.252  10.668   0.715 -0.0567  0.9084 -0.7533
  957MOL0     C29124   3.111  10.679   0.751  0.5085  0.9374 -1.1265
  957MOL0     C29125   2.998  10.696   0.786  0.3230 -0.7424  0.2495
  957MOL0     C29126   3.941  10.606   0.754 -0.6145 -0.6524 -0.0774
  957MOL0     C29127   4.071  10.589   0.816  1.0030 -0.0501  0.3240
  957MOL0     H29128   4.445  10.363   0.873  0.3316  1.4548  0.1405
  957MOL0     H29129   4.663  10.297   0.933 -2.0976 -1.1581  3.0634
  957MOL0     H29130   4.885  10.296   0.922 -4.2897 -0.4173  0.0662
  957MOL0     H29131   4.895  10.459   0.856  0.3384  0.5485  1.2882
  957MOL0     H29132   5.091  10.509   1.002 -0.3908  0.3260  0.7064
  957MOL0     H29133   5.065  10.349   1.076  0.2157  2.7871  1.1344
  957MOL0     H29134   5.070  10.273   0.822  0.6972 -0.6393 -0.5516
  957MOL0     H29135   5.159  10.427   0.788  1.2570  1.6947  1.3867
  957MOL0     H29136   5.265  10.199   0.974 -0.8388  1.6774  2.3584
  957MOL0     H29137   5.292  10.213   0.806  0.6342 -0.3467  0.9224
  957MOL0     H29138   5.399  10.422   0.845  1.2284 -2.2950 -0.4828
  957MOL0     H29139   5.361  10.414   1.022 -2.6990  1.6884 -1.7550
  957MOL0     H29140   5.520  10.233   1.045 -0.3639 -2.9503 -1.9102
  957MOL0     H29141   5.517  10.196   0.879  3.6468 -0.1015 -0.1822
  957MOL0     H29142   5.630  10.456   0.860  3.7236  1.5773  1.4551
  957MOL0     H29143   5.659  10.433   1.029  0.2618  1.7535 -0.6653
  957MOL0     H29144   5.755  10.285   0.792 -0.2962 -0.4297  0.1185
  957MOL0     H29145   5.743  10.196   0.944  1.2006 -1.0285 -2.1712
  957MOL0     H29146   6.013  10.174   0.884  0.1645 -0.2225  0.0243
  957MOL0     H29147   6.269  10.299   0.838 -0.5815  3.1564 -2.6272
  957MOL0     H29148   6.285  10.457   0.876 -0.8635  0.5959  1.1800
  957MOL0     H29149   6.319  10.404   1.119 -0.6271 -1.6347  1.1999
  957MOL0     H29150   6.440  10.316   1.020 -0.1222  0.3709 -0.5118
  957MOL0     H29151   6.191  10.164   1.114  0.1468  0.9184 -1.4627
  957MOL0     H29152   6.356  10.148   1.178  1.6891  1.1733 -0.6330
  957MOL0     H29153   6.401  10.083   0.906 -1.6297  0.2601 -1.7482
  957MOL0     H29154   6.223  10.067   0.938 -0.1607  0.0331  0.7837
  957MOL0     H29155   6.576  10.101   1.019  0.9632  2.1720  3.3521
  957MOL0     H29156   6.793  10.171   1.076 -1.8969 -1.1822  0.9938
  957MOL0     H29157   6.917  10.074   1.144 -1.1377  2.6867  1.7265
  957MOL0     H29158   6.863  10.028   0.980  1.5928 -1.1954 -0.0112
  957MOL0     H29159   7.084   9.594   1.218  4.2409  0.2823 -1.4069
  957MOL0     H29160   7.292   9.516   1.334  1.4852  1.7408 -1.3752
  957MOL0     H29161   7.318   9.403   1.546  0.0484  0.7195 -0.4117
  957MOL0     H29162   7.493   9.449   1.512  0.8270  3.1667 -0.4488
  957MOL0     H29163   7.421   9.314   1.740 -5.3883  0.2505  1.3586
  957MOL0     H29164   7.542   9.457   1.741 -1.2868  3.3157  1.6016
  957MOL0     H29165   7.360   9.593   1.820 -0.2111  0.1717  0.9221
  957MOL0     H29166   7.395   9.452   1.920  0.7179 -1.5445 -1.1553
  957MOL0     H29167   7.155   9.502   1.717 -1.5290 -0.7870  0.5267
  957MOL0     H29168   7.185   9.354   1.820 -0.0430  0.4846  2.2073
  957MOL0     H29169   7.151   9.631   1.943  3.1944 -0.1919 -1.7085
  957MOL0     H29170   7.142   9.463   2.013  0.7123 -0.5408  0.2614
  957MOL0     H29171   6.941   9.604   1.831 -0.1164 -0.8900 -1.5968
  957MOL0     H29172   6.950   9.434   1.853 -1.3676  1.2426 -1.1449
  957MOL0     H29173   6.890   9.649   2.058 -2.0623  0.8648 -2.5818
  957MOL0     H29174   6.951   9.496   2.113  1.2000  1.1848  0.7195
  957MOL0     H29175   6.706   9.482   2.120 -0.3390  0.5662 -0.8657
  957MOL0     H29176   6.749   9.389   1.982 -0.7437  0.3373  0.3595
  957MOL0     H29177   7.220   9.767   1.662  1.2602  0.2134 -0.7614
  957MOL0     H29178   7.028   9.846   1.575  1.0764  2.1666 -1.4187
  957MOL0     H29179   6.643   9.681   1.270 -0.6842  0.4014  0.5119
  957MOL0     H29180   6.414   9.752   1.200 -2.2266  1.4942 -2.8259
  957MOL0     H29181   4.707  10.653   1.165  0.8498  1.6196 -0.9538
  957MOL0     H29182   4.470  10.714   1.124 -1.0162  0.9871 -1.6155
  957MOL0     H29183   3.969  10.620   1.133 -3.4863 -3.1110 -0.4931
  957MOL0     H29184   3.766  10.680   1.033 -0.9823 -1.9482 -0.3449
  957MOL0     H29185   3.541  10.599   0.893 -2.3183  0.0463 -2.5837
  957MOL0     H29186   3.610  10.765   0.922  2.0516 -2.0670  1.9359
  957MOL0     H29187   3.507  10.701   0.648  3.3328  1.9499 -0.4460
  957MOL0     H29188   3.518  10.849   0.734  0.4936  0.3082  2.7808
  957MOL0     H29189   3.323  10.866   0.784  2.0434  1.1347  3.3272
  957MOL0     H29190   3.348  10.738   0.899  2.8436  3.4689  0.8436
  957MOL0     H29191   3.281  10.568   0.748 -4.0174  0.1158  0.7782
  957MOL0     H29192   3.260  10.684   0.607  0.1021 -1.8952 -1.2284
  957MOL0     H29193   2.897  10.719   0.813  1.9913  3.5761  3.9465
  957MOL0     H29194   3.933  10.579   0.649  2.9403  0.4520 -0.7817
  957MOL0     H29195   4.158  10.573   0.753  2.0735 -1.0842  1.9898
  958MOL0     O29196   2.577   7.308   0.611 -0.0811  0.0512 -0.0407
  958MOL0     C29197   2.486   7.382   0.644 -0.2656  0.4961 -0.7892
  958MOL0     O29198   2.504   7.511   0.694 -0.0062 -0.0660 -0.2469
  958MOL0     C29199   2.625   7.575   0.680  0.4258  0.0579 -0.3916
  958MOL0     C29200   2.629   7.713   0.693 -1.1877  0.3801 -0.4118
  958MOL0     C29201   2.753   7.781   0.699 -0.5267 -0.1569  0.2780
  958MOL0     C29202   2.877   7.717   0.686 -1.2836  0.5115  0.2711
  958MOL0     O29203   3.000   7.777   0.687  0.5668 -0.1818 -0.0817
  958MOL0     C29204   3.012   7.914   0.724  0.2132 -0.8716 -0.0804
  958MOL0     C29205   3.154   7.965   0.745  0.7109  0.4323  0.8659
  958MOL0     C29206   3.222   7.896   0.865  0.8324 -0.1867 -0.6107
  958MOL0     C29207   3.360   7.951   0.868 -0.0686  0.3318  0.7725
  958MOL0     C29208   3.451   7.898   0.988  0.6991 -0.7047  0.4365
  958MOL0     C29209   3.381   7.919   1.125 -0.5338  0.4864  0.4505
  958MOL0     C29210   3.475   7.895   1.242 -0.6877 -0.2987  0.2786
  958MOL0     C29211   3.392   7.922   1.366  0.2140 -0.1464  0.9308
  958MOL0     N29212   3.433   7.844   1.484  0.2039 -0.2035  0.7671
  958MOL0     C29213   3.472   7.712   1.475 -0.3171  0.1709  0.1130
  958MOL0     C29214   3.486   7.679   1.608 -0.9977  0.0978 -0.2383
  958MOL0     C29215   3.546   7.559   1.672  0.0722 -0.0095  0.0857
  958MOL0     C29216   3.446   7.452   1.693  0.1242  0.1586  0.5399
  958MOL0     C29217   3.518   7.330   1.758  0.4333  0.5845 -0.3091
  958MOL0     C29218   3.416   7.210   1.771  0.3180 -0.5914 -0.4009
  958MOL0     O29219   3.296   7.267   1.832  0.1037 -0.0503 -0.5372
  958MOL0     C29220   3.187   7.184   1.852  0.0578  0.5062  0.9971
  958MOL0     C29221   3.185   7.043   1.827 -0.1579 -0.0480 -0.1596
  958MOL0     C29222   3.072   6.965   1.847 -0.3410  0.2393  0.6869
  958MOL0     C29223   3.099   6.818   1.815 -0.0968  0.3266  0.1194
  958MOL0     C29224   2.956   7.023   1.901 -0.8221  0.5942 -0.0712
  958MOL0     C29225   2.815   6.958   1.910 -0.2880 -0.5235 -0.6324
  958MOL0     O29226   2.709   7.026   1.957 -0.5508  0.0703 -1.0529
  958MOL0     C29227   2.581   6.976   1.963 -0.2860  0.2875 -0.2036
  958MOL0     C29228   2.522   6.948   2.084 -0.6348  0.5961  0.4388
  958MOL0     C29229   2.394   6.898   2.096 -0.2816  0.5088 -0.0873
  958MOL0     C29230   2.318   6.860   1.987  0.4391  1.0161 -0.2511
  958MOL0     O29231   2.194   6.802   1.996 -0.1049  0.9735  0.2148
  958MOL0     C29232   2.206   6.685   2.081 -0.4398 -0.0093 -0.5422
  958MOL0     C29233   2.091   6.595   2.040  0.3257  0.0436  0.3841
  958MOL0     C29234   2.015   6.543   2.154  0.7008 -0.3034 -0.9153
  958MOL0     C29235   1.918   6.437   2.139 -0.7899  0.1723 -0.1937
  958MOL0     C29236   1.799   6.484   2.056  0.6391  0.6766 -0.0626
  958MOL0     C29237   1.688   6.377   2.028 -0.8792 -0.2408  0.8102
  958MOL0     C29238   1.578   6.436   1.943 -0.1361 -0.0185  0.0543
  958MOL0     C29239   1.455   6.335   1.923 -0.1599  0.9807  0.0298
  958MOL0    Cl29240   1.372   6.325   2.082  0.0464 -0.3187 -0.0881
  958MOL0     C29241   2.375   6.893   1.860  0.2175  0.2870 -0.5701
  958MOL0     C29242   2.501   6.950   1.853  0.2635  0.3793 -0.1502
  958MOL0     O29243   2.808   6.839   1.886 -0.1295  0.1450  0.2923
  958MOL0     C29244   2.962   7.159   1.942  0.7912  0.1086 -0.1495
  958MOL0     C29245   3.072   7.235   1.919 -0.4076 -0.2208 -0.3826
  958MOL0     N29246   3.462   7.786   1.687  0.0190  0.1087  0.3300
  958MOL0     N29247   3.428   7.888   1.615 -0.1418  0.0084 -0.3183
  958MOL0     C29248   2.873   7.579   0.677  0.1114 -0.2484  0.8257
  958MOL0     C29249   2.753   7.508   0.678  0.2837  0.9572 -0.2676
  958MOL0     C29250   2.348   7.325   0.646 -0.4134 -0.4469  0.0657
  958MOL0     C29251   2.316   7.206   0.576 -0.1362  0.0159  0.2059
  958MOL0     C29252   2.191   7.154   0.577  0.5943  0.9932  0.3957
  958MOL0     C29253   2.084   7.225   0.632 -0.7306  0.0134  0.2299
  958MOL0     O29254   1.951   7.196   0.614  0.9730 -0.9376 -0.0562
  958MOL0     C29255   1.916   7.073   0.558  0.0225 -0.1630 -0.2052
  958MOL0     C29256   1.758   7.066   0.526  0.1374 -0.9704  1.3837
  958MOL0     C29257   1.711   7.175   0.426  0.6624  0.5004  0.7303
  958MOL0     C29258   1.559   7.199   0.438 -0.1737  0.1254 -0.7179
  958MOL0     C29259   1.487   7.070   0.398 -0.3382 -0.3842 -0.3761
  958MOL0     C29260   1.447   6.954   0.370 -0.1739  0.4431 -0.7823
  958MOL0     C29261   2.114   7.340   0.703 -0.4254 -0.5973 -0.1764
  958MOL0     C29262   2.245   7.391   0.701 -0.5226  0.4311 -0.5271
  958MOL0     H29263   2.537   7.766   0.716 -0.3410  1.0736  1.6546
  958MOL0     H29264   2.764   7.889   0.690  0.9889 -0.2814  0.4173
  958MOL0     H29265   2.968   7.966   0.638 -4.5601 -2.4121  1.0925
  958MOL0     H29266   2.951   7.939   0.812  1.8754 -0.6705  1.0549
  958MOL0     H29267   3.204   7.946   0.650 -0.8366 -1.4611  0.3677
  958MOL0     H29268   3.161   8.069   0.778  0.6018 -0.2424  3.1968
  958MOL0     H29269   3.171   7.905   0.962 -1.8168 -3.0065 -1.5619
  958MOL0     H29270   3.233   7.789   0.841  3.8188  0.3037 -1.9655
  958MOL0     H29271   3.417   7.915   0.782  0.6311  0.8769  1.0044
  958MOL0     H29272   3.360   8.060   0.868  1.9938  0.4310 -1.7722
  958MOL0     H29273   3.479   7.793   0.978  2.1783 -0.4149  1.1951
  958MOL0     H29274   3.542   7.959   0.987 -0.5376  1.2522 -1.2063
  958MOL0     H29275   3.345   8.022   1.136 -0.0342  0.4029  4.1434
  958MOL0     H29276   3.287   7.862   1.135 -1.5503  1.8762 -0.7985
  958MOL0     H29277   3.518   7.795   1.238 -0.4102 -0.3330  2.7227
  958MOL0     H29278   3.559   7.966   1.235  0.2584 -1.3544  0.6698
  958MOL0     H29279   3.289   7.886   1.355  0.8981 -2.2765  0.9318
  958MOL0     H29280   3.380   8.028   1.388 -0.3468 -0.7277  3.9064
  958MOL0     H29281   3.469   7.652   1.385 -2.7944  1.9499 -1.1308
  958MOL0     H29282   3.630   7.512   1.621  1.3415  1.1442  1.0272
  958MOL0     H29283   3.586   7.598   1.767 -3.8466 -2.2483  2.9656
  958MOL0     H29284   3.390   7.419   1.605 -0.8982  2.4979  0.2387
  958MOL0     H29285   3.374   7.500   1.759  0.6285  0.0422  1.1828
  958MOL0     H29286   3.560   7.352   1.857  1.2367 -0.9316 -0.2645
  958MOL0     H29287   3.591   7.293   1.685  6.3049  1.8176  4.1701
  958MOL0     H29288   3.444   7.121   1.827 -1.4946 -1.4048 -0.7336
  958MOL0     H29289   3.395   7.183   1.667  0.6106  0.7514 -0.8311
  958MOL0     H29290   3.278   6.990   1.810  1.5300  2.2090  1.4047
  958MOL0     H29291   3.058   6.753   1.893 -0.3994 -0.4203 -0.6535
  958MOL0     H29292   3.051   6.787   1.722 -3.0579  2.0583  0.9221
  958MOL0     H29293   3.203   6.791   1.797  0.3954  2.7211 -1.0795
  958MOL0     H29294   2.580   6.965   2.174 -3.8347 -1.5376  3.1643
  958MOL0     H29295   2.345   6.881   2.191 -1.8147 -4.4120 -1.4497
  958MOL0     H29296   2.296   6.627   2.061  0.8011  1.6141  0.1384
  958MOL0     H29297   2.200   6.711   2.187  1.9389  1.4806 -0.7099
  958MOL0     H29298   2.013   6.639   1.977 -1.4673  0.7693  2.9416
  958MOL0     H29299   2.126   6.508   1.983  2.4786  1.3790 -0.4758
  958MOL0     H29300   1.959   6.624   2.201  1.4577  0.8231 -1.8796
  958MOL0     H29301   2.081   6.506   2.233 -1.4455  0.5800  1.4102
  958MOL0     H29302   1.978   6.356   2.097  3.5930  2.3336  1.2255
  958MOL0     H29303   1.884   6.402   2.237  0.4848  0.0300  0.2082
  958MOL0     H29304   1.832   6.532   1.964  1.1206  2.0999  0.8231
  958MOL0     H29305   1.749   6.553   2.125  0.8748 -0.6849  1.5472
  958MOL0     H29306   1.732   6.290   1.978  0.3272 -0.0157  1.4521
  958MOL0     H29307   1.658   6.356   2.131  3.9575  3.0166  3.2621
  958MOL0     H29308   1.619   6.445   1.842 -0.9356 -1.8649 -0.4810
  958MOL0     H29309   1.540   6.531   1.982 -2.8458 -2.3226  3.7769
  958MOL0     H29310   1.483   6.234   1.892  2.3610  2.1730 -1.9303
  958MOL0     H29311   1.384   6.375   1.850 -1.7552  1.3284  1.6874
  958MOL0     H29312   2.316   6.864   1.772 -0.6545  0.4344 -0.0454
  958MOL0     H29313   2.535   6.987   1.756  0.0061  0.9763 -0.0206
  958MOL0     H29314   2.874   7.189   1.998  0.2226 -2.9152  0.7697
  958MOL0     H29315   3.065   7.342   1.935 -0.2162 -0.3833  0.8609
  958MOL0     H29316   2.968   7.528   0.690 -0.2422 -2.2597 -2.9319
  958MOL0     H29317   2.766   7.401   0.680  0.1456  0.9409 -0.2618
  958MOL0     H29318   2.393   7.163   0.514  1.0813  1.3140  0.7579
  958MOL0     H29319   2.177   7.068   0.513 -1.7506  2.9100 -1.9347
  958MOL0     H29320   1.971   7.057   0.465  1.1001 -2.8317  0.7879
  958MOL0     H29321   1.948   6.999   0.632  3.5345  2.7031  1.4072
  958MOL0     H29322   1.719   7.073   0.628  0.6470 -1.6798  1.6325
  958MOL0     H29323   1.739   6.973   0.472 -0.9283 -1.6344  2.8336
  958MOL0     H29324   1.725   7.140   0.324 -1.9644 -0.3408  0.5790
  958MOL0     H29325   1.766   7.269   0.435  0.9481  0.8123 -2.9988
  958MOL0     H29326   1.524   7.278   0.370 -0.2280  0.5791 -0.1726
  958MOL0     H29327   1.527   7.228   0.539  2.3203 -1.0316  0.4862
  958MOL0     H29328   1.421   6.854   0.341  0.9456  0.2921 -1.3206
  958MOL0     H29329   2.048   7.406   0.759  2.0519  0.8646  1.2177
  958MOL0     H29330   2.279   7.476   0.759 -0.1668  2.0202 -2.9207
  959MOL0     O29331   4.467   5.937   8.870 -0.1392  0.0817 -0.4990
  959MOL0     C29332   4.344   5.948   8.854  0.3921  0.0885 -0.2071
  959MOL0     O29333   4.274   5.886   8.765  0.2065 -0.0148  0.3518
  959MOL0     C29334   4.336   5.787   8.698  0.7394 -0.3090  0.6506
  959MOL0     C29335   4.379   5.662   8.751 -0.3326  0.5476  0.1273
  959MOL0     C29336   4.406   5.552   8.669 -0.3617 -0.0061  0.1602
  959MOL0     C29337   4.410   5.558   8.534 -0.5073  0.6784  0.3963
  959MOL0     O29338   4.450   5.444   8.467  0.7280  0.1732 -0.2699
  959MOL0     C29339   4.462   5.465   8.329  0.1505  0.0266  0.7273
  959MOL0     C29340   4.503   5.343   8.264  0.2395  0.3350 -0.3847
  959MOL0     C29341   4.635   5.275   8.316 -0.8516  0.0231 -0.2537
  959MOL0     C29342   4.764   5.359   8.289 -0.0360 -0.4710  0.2827
  959MOL0     C29343   4.885   5.267   8.324 -1.1902 -0.4006  0.3875
  959MOL0     C29344   4.900   5.250   8.473  0.2828 -0.0176  0.1414
  959MOL0     C29345   5.023   5.166   8.502  0.8012  0.3088  0.2381
  959MOL0     C29346   5.044   5.144   8.661 -0.1767  0.6866  0.2020
  959MOL0     N29347   5.165   5.073   8.707 -0.0310  0.1315 -0.1946
  959MOL0     C29348   5.300   5.112   8.710  0.0618  0.3982  0.0113
  959MOL0     C29349   5.367   5.009   8.779 -0.2122 -0.1889 -0.2442
  959MOL0     C29350   5.519   4.999   8.815  0.0668  0.2281  0.3439
  959MOL0     C29351   5.624   5.025   8.701 -1.1758 -0.3842 -0.8741
  959MOL0     C29352   5.771   5.045   8.736  0.7357  0.2104 -0.1511
  959MOL0     C29353   5.860   4.995   8.625 -0.0376 -0.2581 -0.2412
  959MOL0     O29354   5.991   5.046   8.665  0.3758  0.0283 -0.8903
  959MOL0     C29355   6.076   4.974   8.739 -0.5277 -0.0163  0.4997
  959MOL0     C29356   6.039   4.855   8.797  0.2491 -0.1569  0.1153
  959MOL0     C29357   6.138   4.780   8.871  0.1646  0.0204 -0.1068
  959MOL0     C29358   6.078   4.642   8.922 -0.9549 -0.6523 -0.5099
  959MOL0     C29359   6.270   4.824   8.882 -0.4769  0.3318 -0.7760
  959MOL0     C29360   6.371   4.773   8.971  0.6156  0.0391 -0.0265
  959MOL0     O29361   6.499   4.826   8.938  0.0348  0.5013 -0.2460
  959MOL0     C29362   6.610   4.797   9.017  0.2327  0.2005  0.2999
  959MOL0     C29363   6.675   4.909   9.080  0.3721  0.6438  0.7328
  959MOL0     C29364   6.791   4.882   9.151 -0.2396  0.0222  0.0645
  959MOL0     C29365   6.843   4.756   9.150  0.5724  0.8256 -0.3696
  959MOL0     O29366   6.958   4.731   9.230  0.5068 -1.0492  0.1225
  959MOL0     C29367   7.069   4.665   9.168  0.6386 -0.2822  1.3099
  959MOL0     C29368   7.169   4.769   9.129  0.2828 -0.0663  0.4486
  959MOL0     C29369   7.290   4.721   9.040 -0.5723 -0.3072 -0.6311
  959MOL0     C29370   7.373   4.837   9.013  0.6151 -0.8594  0.0938
  959MOL0     C29371   7.498   4.827   8.917 -0.5665 -0.1599  0.7528
  959MOL0     C29372   7.578   4.707   8.942 -0.0463 -0.4589  0.8447
  959MOL0     C29373   7.714   4.720   8.870  0.2710  0.3159  0.0705
  959MOL0     C29374   7.776   4.587   8.843  0.2372  0.1175  0.3044
  959MOL0    Cl29375   7.691   4.471   8.730 -0.1519 -0.4635  0.2162
  959MOL0     C29376   6.775   4.644   9.096 -0.0080  0.3861  0.4204
  959MOL0     C29377   6.653   4.665   9.022  0.0807 -0.4640 -0.3386
  959MOL0     O29378   6.349   4.686   9.057 -0.0085 -0.2399  0.0824
  959MOL0     C29379   6.299   4.943   8.813  0.2668 -0.5335 -0.9897
  959MOL0     C29380   6.207   5.020   8.742  0.2359  0.4545  0.0649
  959MOL0     N29381   5.275   4.905   8.781 -1.5392  0.0036 -0.1784
  959MOL0     N29382   5.158   4.948   8.757 -0.6162  0.5961  0.0638
  959MOL0     C29383   4.370   5.681   8.476 -0.5756  0.1741 -0.4774
  959MOL0     C29384   4.326   5.785   8.559  0.7710 -0.2748  0.8357
  959MOL0     C29385   4.276   6.050   8.938  0.2535  0.0991 -0.5135
  959MOL0     C29386   4.353   6.110   9.044  0.0042  0.5287  0.3490
  959MOL0     C29387   4.286   6.184   9.130  0.3224  0.0106 -0.6339
  959MOL0     C29388   4.152   6.201   9.143  0.3390  0.6194 -0.7449
  959MOL0     O29389   4.109   6.290   9.250  0.1802  0.0273  0.4419
  959MOL0     C29390   3.965   6.313   9.263 -0.9471  0.1053 -0.4996
  959MOL0     C29391   3.941   6.454   9.317 -0.3799 -0.0002  0.6659
  959MOL0     C29392   3.811   6.507   9.268 -0.1351  0.0733  0.0685
  959MOL0     C29393   3.758   6.620   9.355  0.2975 -0.2896 -0.2583
  959MOL0     C29394   3.806   6.755   9.338 -0.7984  0.0379  0.7682
  959MOL0     C29395   3.838   6.871   9.332 -0.0644  0.3328  0.1125
  959MOL0     C29396   4.077   6.132   9.038  0.1656  0.1115 -0.6659
  959MOL0     C29397   4.131   6.058   8.938 -1.5565 -0.9403 -0.4477
  959MOL0     H29398   4.381   5.650   8.859 -4.0347  0.7148  0.3482
  959MOL0     H29399   4.431   5.461   8.722 -1.8393  0.2362  1.3489
  959MOL0     H29400   4.366   5.489   8.282  0.7433  0.6528 -0.2099
  959MOL0     H29401   4.539   5.543   8.318 -0.4610  0.3665 -2.1284
  959MOL0     H29402   4.420   5.274   8.280  2.2194 -1.6452  2.3611
  959MOL0     H29403   4.511   5.354   8.156 -2.2935  0.1062 -0.6559
  959MOL0     H29404   4.628   5.260   8.424 -0.5804 -2.1670 -0.5023
  959MOL0     H29405   4.646   5.173   8.280  0.8877 -0.1983  0.7969
  959MOL0     H29406   4.772   5.394   8.186 -1.4740  3.2176  1.2605
  959MOL0     H29407   4.766   5.451   8.347  3.8838  0.3390 -0.8272
  959MOL0     H29408   4.875   5.167   8.280  0.5602 -0.0566 -0.8809
  959MOL0     H29409   4.980   5.303   8.286 -0.4654 -1.5788  1.0156
  959MOL0     H29410   4.904   5.350   8.518 -0.6670 -0.1316  0.5018
  959MOL0     H29411   4.812   5.204   8.518 -0.3449 -0.0940 -1.1057
  959MOL0     H29412   5.015   5.075   8.443  0.7308  1.9137 -2.3835
  959MOL0     H29413   5.109   5.226   8.470 -1.0023  1.3474 -3.1528
  959MOL0     H29414   4.958   5.085   8.695  1.0512 -2.1781 -1.3621
  959MOL0     H29415   5.047   5.236   8.721 -0.9414 -0.7778  2.6301
  959MOL0     H29416   5.345   5.209   8.689  0.5622  0.3243  0.6925
  959MOL0     H29417   5.534   5.074   8.893 -0.0696  0.0768  0.5165
  959MOL0     H29418   5.542   4.899   8.854 -0.6806 -0.6011 -1.2398
  959MOL0     H29419   5.595   5.107   8.635 -2.4923  0.5369  0.7648
  959MOL0     H29420   5.641   4.939   8.636  3.7821  1.6012 -2.6537
  959MOL0     H29421   5.802   4.982   8.820  2.2702  1.0694 -0.0399
  959MOL0     H29422   5.782   5.148   8.769  1.9569 -0.0795  0.4078
  959MOL0     H29423   5.842   5.036   8.524 -1.4898  0.7262  0.3803
  959MOL0     H29424   5.851   4.887   8.618 -1.0441 -0.0778 -2.9232
  959MOL0     H29425   5.933   4.831   8.800 -0.7534  3.4470 -1.3781
  959MOL0     H29426   6.119   4.602   9.015  2.2417 -1.2187 -2.0299
  959MOL0     H29427   5.971   4.659   8.939 -1.1058 -1.8689 -0.0883
  959MOL0     H29428   6.085   4.555   8.856 -2.9070 -1.4524  0.2602
  959MOL0     H29429   6.634   5.008   9.066 -2.7985 -0.7757 -0.9046
  959MOL0     H29430   6.852   4.953   9.206 -1.4295  2.1903 -1.2586
  959MOL0     H29431   7.106   4.585   9.232  1.6100  1.1089  2.5390
  959MOL0     H29432   7.049   4.606   9.078  1.1161  1.3641  0.0544
  959MOL0     H29433   7.116   4.842   9.068 -0.2618 -0.6400  0.2269
  959MOL0     H29434   7.204   4.816   9.222 -0.0575  1.2043 -0.0461
  959MOL0     H29435   7.260   4.667   8.950  3.8173 -5.2137  0.3218
  959MOL0     H29436   7.337   4.639   9.095 -0.4119 -0.3975 -0.9015
  959MOL0     H29437   7.309   4.904   8.955 -2.3346 -4.1617 -0.7827
  959MOL0     H29438   7.392   4.883   9.110 -2.3337 -0.1168  0.4253
  959MOL0     H29439   7.553   4.921   8.930 -1.7827  0.4736  1.5727
  959MOL0     H29440   7.459   4.824   8.815  0.3108 -1.5044  0.4460
  959MOL0     H29441   7.590   4.691   9.049 -0.5567 -1.6131  0.7406
  959MOL0     H29442   7.517   4.622   8.910 -2.4712  1.1997  0.7606
  959MOL0     H29443   7.778   4.783   8.933 -1.7002  1.2122  1.2699
  959MOL0     H29444   7.700   4.773   8.776  0.2491  0.6245  0.2480
  959MOL0     H29445   7.774   4.543   8.943 -1.3847  2.0071  1.1669
  959MOL0     H29446   7.874   4.600   8.795 -1.8014  0.6930 -4.3046
  959MOL0     H29447   6.815   4.544   9.101  1.4697  0.8229 -1.4485
  959MOL0     H29448   6.608   4.573   8.986  0.4632 -0.9818  0.4793
  959MOL0     H29449   6.396   4.992   8.823  0.0293 -0.0529 -1.0316
  959MOL0     H29450   6.243   5.107   8.689  1.5768 -1.0717 -1.6377
  959MOL0     H29451   4.372   5.704   8.370 -1.6498  2.8702 -0.0212
  959MOL0     H29452   4.290   5.876   8.512  2.4300  1.3907  2.6356
  959MOL0     H29453   4.457   6.088   9.068  0.3414 -1.8328 -2.7105
  959MOL0     H29454   4.338   6.237   9.209 -2.1933  2.0435 -0.1951
  959MOL0     H29455   3.927   6.306   9.160  0.1005 -3.2029 -0.7859
  959MOL0     H29456   3.917   6.233   9.321  1.0155 -0.2481  0.7175
  959MOL0     H29457   4.030   6.516   9.300  0.8624 -0.0141  5.4799
  959MOL0     H29458   3.950   6.451   9.426  4.6657  3.9097  0.7494
  959MOL0     H29459   3.737   6.427   9.266 -0.8029  0.6345  1.2533
  959MOL0     H29460   3.809   6.547   9.166 -1.9214 -1.6763 -0.6590
  959MOL0     H29461   3.787   6.601   9.459  0.2891 -0.6488 -0.3191
  959MOL0     H29462   3.650   6.620   9.342  0.1730  1.5888  0.4821
  959MOL0     H29463   3.861   6.975   9.343 -0.0406  0.0908  3.8988
  959MOL0     H29464   3.968   6.132   9.046  0.2663  1.7869  1.6507
  959MOL0     H29465   4.068   6.009   8.864 -3.0283  1.4106 -0.8574
  960MOL0     O29466   0.218   0.925   4.044  0.5486 -0.5006 -0.4959
  960MOL0     C29467   0.274   0.904   3.933  0.1624 -0.0259 -0.4634
  960MOL0     O29468   0.209   0.913   3.812 -0.0592  0.0341 -0.1881
  960MOL0     C29469   0.072   0.938   3.805  0.6847 -0.6414  0.1537
  960MOL0     C29470   0.029   1.039   3.722  0.5974  0.0728  0.8411
  960MOL0     C29471  -0.107   1.067   3.697 -0.0470  0.7631  0.4111
  960MOL0     C29472  -0.204   1.005   3.777 -0.1704  0.2825  0.1784
  960MOL0     O29473  -0.340   1.004   3.764 -0.2295 -0.3352  0.3467
  960MOL0     C29474  -0.395   1.141   3.756 -0.8980 -0.3552  0.4187
  960MOL0     C29475  -0.544   1.155   3.790 -0.0178 -0.1151  0.3795
  960MOL0     C29476  -0.586   1.114   3.924 -0.6888 -0.9718 -0.7526
  960MOL0     C29477  -0.741   1.099   3.929 -0.1545 -0.0993 -0.3271
  960MOL0     C29478  -0.788   1.014   4.045 -0.1854 -0.9426  0.4471
  960MOL0     C29479  -0.937   1.014   4.073  0.2269  0.2086  0.3783
  960MOL0     C29480  -0.999   1.148   4.102  0.4781 -0.1906 -0.3673
  960MOL0     C29481  -1.144   1.131   4.156  0.7883 -0.5791  0.2162
  960MOL0     N29482  -1.237   1.076   4.057 -0.3335  0.5725  0.7133
  960MOL0     C29483  -1.268   1.145   3.940  0.5965 -0.5817 -0.5172
  960MOL0     C29484  -1.349   1.061   3.868 -0.3338  0.7551 -1.0852
  960MOL0     C29485  -1.398   1.063   3.729 -0.3597 -0.5784 -0.3750
  960MOL0     C29486  -1.550   1.095   3.720 -0.5069 -0.1219 -0.7988
  960MOL0     C29487  -1.632   0.998   3.808 -0.8347  0.8351 -0.0884
  960MOL0     C29488  -1.787   1.016   3.783 -0.3994  0.3043 -0.0938
  960MOL0     O29489  -1.817   1.146   3.823 -0.3073  0.2202 -0.2974
  960MOL0     C29490  -1.913   1.208   3.754 -0.1211  0.6022  0.0695
  960MOL0     C29491  -2.040   1.148   3.737  0.6780 -0.1147 -0.8820
  960MOL0     C29492  -2.147   1.210   3.658  0.2094  0.6350  0.2438
  960MOL0     C29493  -2.267   1.133   3.625 -0.0096 -0.0815  1.1951
  960MOL0     C29494  -2.121   1.338   3.609 -1.0965 -0.1184 -0.6354
  960MOL0     C29495  -2.210   1.413   3.512  0.5121  0.7690  1.2888
  960MOL0     O29496  -2.314   1.351   3.452 -0.4881  0.3655 -0.5895
  960MOL0     C29497  -2.403   1.424   3.374 -1.5875  0.0520  0.7801
  960MOL0     C29498  -2.529   1.449   3.425 -0.1105 -0.2520  0.4861
  960MOL0     C29499  -2.615   1.523   3.354  0.1668 -0.4065  0.2285
  960MOL0     C29500  -2.588   1.579   3.224  0.7333 -0.8502  0.3751
  960MOL0     O29501  -2.679   1.658   3.154 -0.6992  0.8267  0.4007
  960MOL0     C29502  -2.819   1.637   3.166  0.1125  0.0978 -0.8744
  960MOL0     C29503  -2.868   1.495   3.108  0.1555  0.0524  0.1135
  960MOL0     C29504  -3.017   1.495   3.069  0.3429 -0.6267 -0.2016
  960MOL0     C29505  -3.113   1.516   3.190  0.3707 -0.1257 -0.2235
  960MOL0     C29506  -3.262   1.518   3.151  0.7546  0.2423 -0.1890
  960MOL0     C29507  -3.358   1.526   3.261  0.0576 -1.1364 -0.4648
  960MOL0     C29508  -3.500   1.549   3.205  0.0004  0.0137 -0.1325
  960MOL0     C29509  -3.549   1.422   3.143  0.7865  0.3231  0.0686
  960MOL0    Cl29510  -3.722   1.455   3.099  0.3325  0.2568 -0.1363
  960MOL0     C29511  -2.456   1.555   3.172  0.0942  0.2866 -0.8668
  960MOL0     C29512  -2.367   1.481   3.245 -0.6675 -0.3614  0.4492
  960MOL0     O29513  -2.201   1.536   3.513  0.5753  0.4444  0.5329
  960MOL0     C29514  -1.999   1.402   3.641  0.3029  0.1008 -0.2144
  960MOL0     C29515  -1.894   1.341   3.709 -0.6053 -0.4012 -0.0778
  960MOL0     N29516  -1.365   0.947   3.943 -0.4447  0.0545 -0.9215
  960MOL0     N29517  -1.295   0.952   4.053 -0.6215  0.0038  0.0742
  960MOL0     C29518  -0.158   0.898   3.862 -0.4170  0.4539 -0.3489
  960MOL0     C29519  -0.018   0.872   3.869 -0.0568  0.1453  0.6161
  960MOL0     C29520   0.411   0.867   3.933 -0.1446  0.3505  0.0816
  960MOL0     C29521   0.488   0.849   3.820  0.9338 -0.2449  0.1421
  960MOL0     C29522   0.622   0.820   3.823  0.5540 -0.1657  0.4705
  960MOL0     C29523   0.688   0.801   3.945 -1.0763 -0.3528  0.4495
  960MOL0     O29524   0.826   0.773   3.944 -0.5791 -0.2125 -0.7902
  960MOL0     C29525   0.896   0.744   3.823 -0.0452 -0.5622  0.7336
  960MOL0     C29526   1.028   0.684   3.870  0.0493 -0.2448  0.3106
  960MOL0     C29527   1.142   0.670   3.767  0.0077  0.2319  0.0982
  960MOL0     C29528   1.179   0.804   3.697  0.1406  0.4793  0.5294
  960MOL0     C29529   1.100   0.825   3.571  0.1563  0.1933  0.0642
  960MOL0     C29530   1.050   0.834   3.464  0.5734  0.6171 -0.1439
  960MOL0     C29531   0.611   0.817   4.061 -0.7766 -0.0236  0.8151
  960MOL0     C29532   0.476   0.846   4.050 -0.0388  0.4778 -0.4624
  960MOL0     H29533   0.100   1.103   3.670 -0.9599  0.0588 -1.4759
  960MOL0     H29534  -0.147   1.140   3.628 -0.6203 -0.7308 -0.8910
  960MOL0     H29535  -0.344   1.213   3.821 -3.6390  2.8587 -0.7194
  960MOL0     H29536  -0.382   1.185   3.657  0.7707  0.9985  1.1940
  960MOL0     H29537  -0.569   1.259   3.769  2.2666  0.2065 -1.0975
  960MOL0     H29538  -0.605   1.095   3.721 -0.2298  1.0242 -0.4504
  960MOL0     H29539  -0.528   1.025   3.949 -0.1626 -0.3609  0.2701
  960MOL0     H29540  -0.547   1.188   3.994  2.3274 -2.8276 -0.3134
  960MOL0     H29541  -0.801   1.190   3.931  1.0175  0.7398 -1.5798
  960MOL0     H29542  -0.774   1.046   3.839 -0.3734  0.7256 -0.7406
  960MOL0     H29543  -0.755   0.913   4.017 -0.3243 -0.8246 -0.1649
  960MOL0     H29544  -0.733   1.048   4.133 -1.4122  1.7502  0.2724
  960MOL0     H29545  -0.994   0.976   3.987 -0.9805 -0.1871  1.3288
  960MOL0     H29546  -0.949   0.949   4.160  3.3810 -4.0210 -1.9646
  960MOL0     H29547  -0.944   1.208   4.175 -0.2304  0.0142  0.0052
  960MOL0     H29548  -0.998   1.205   4.009  3.5011 -0.4167 -0.5708
  960MOL0     H29549  -1.179   1.231   4.186  0.6163 -0.6511  0.2565
  960MOL0     H29550  -1.140   1.072   4.248  2.0065 -0.1398  0.4676
  960MOL0     H29551  -1.231   1.243   3.910  1.3512 -1.2729 -1.9728
  960MOL0     H29552  -1.341   1.135   3.668 -0.0978 -0.1508  0.3475
  960MOL0     H29553  -1.375   0.961   3.700  1.7062 -1.0554  2.4574
  960MOL0     H29554  -1.577   1.093   3.614 -1.9727 -0.4091 -0.4343
  960MOL0     H29555  -1.575   1.196   3.754 -0.4964  0.3796 -2.2084
  960MOL0     H29556  -1.607   1.012   3.913  0.2096  3.2246 -0.5907
  960MOL0     H29557  -1.619   0.894   3.778 -0.4360  0.3597  1.6232
  960MOL0     H29558  -1.843   0.950   3.850  1.0925  1.4197  2.4105
  960MOL0     H29559  -1.816   0.997   3.679 -0.0469  0.7258 -0.2709
  960MOL0     H29560  -2.046   1.047   3.775  2.0055  0.5937  1.3665
  960MOL0     H29561  -2.276   1.035   3.672 -3.2581 -1.7437 -2.4286
  960MOL0     H29562  -2.352   1.195   3.656 -1.3580 -0.7744 -0.9202
  960MOL0     H29563  -2.271   1.123   3.517 -1.4535  0.3419  1.1862
  960MOL0     H29564  -2.556   1.416   3.525  2.5996  0.4060  1.5234
  960MOL0     H29565  -2.709   1.553   3.400 -0.0434 -1.9455  0.8382
  960MOL0     H29566  -2.846   1.636   3.272  1.4849  0.8574 -0.5005
  960MOL0     H29567  -2.865   1.720   3.112  0.1154  0.4339 -0.3663
  960MOL0     H29568  -2.812   1.467   3.018  1.5125 -2.1437  1.5462
  960MOL0     H29569  -2.840   1.419   3.182  2.5555 -0.5560 -1.2941
  960MOL0     H29570  -3.035   1.399   3.019 -1.0285 -1.0326  0.9948
  960MOL0     H29571  -3.030   1.573   2.994  1.3616 -0.1958  0.0485
  960MOL0     H29572  -3.112   1.427   3.253  2.3310 -0.2609 -0.3837
  960MOL0     H29573  -3.086   1.602   3.252 -1.8467  1.4887 -1.3610
  960MOL0     H29574  -3.278   1.430   3.087  1.8741  0.7387 -1.2022
  960MOL0     H29575  -3.271   1.611   3.094  0.7268  3.0087  3.9143
  960MOL0     H29576  -3.351   1.433   3.318  1.0212 -1.1335 -0.5611
  960MOL0     H29577  -3.318   1.605   3.326 -0.0314 -4.8678  4.7883
  960MOL0     H29578  -3.503   1.627   3.128 -2.1128 -0.6077 -0.7475
  960MOL0     H29579  -3.564   1.575   3.291 -0.5700 -0.6761 -0.3397
  960MOL0     H29580  -3.556   1.345   3.221 -3.5254  0.0719 -0.3226
  960MOL0     H29581  -3.491   1.398   3.054  0.7830  0.0851  0.1322
  960MOL0     H29582  -2.432   1.604   3.078 -2.1977  0.1598 -1.5923
  960MOL0     H29583  -2.269   1.467   3.203 -1.6708 -1.6718 -1.6108
  960MOL0     H29584  -1.984   1.497   3.591 -0.2164  0.3565  0.1080
  960MOL0     H29585  -1.801   1.395   3.726 -1.7354  1.7505 -0.3223
  960MOL0     H29586  -0.226   0.835   3.918  1.9819 -2.6369 -0.6748
  960MOL0     H29587   0.012   0.783   3.922  2.5188 -0.1734 -1.1727
  960MOL0     H29588   0.438   0.860   3.725  1.0656  0.1083  0.1131
  960MOL0     H29589   0.670   0.822   3.726 -2.5534 -0.1542 -1.2001
  960MOL0     H29590   0.845   0.670   3.761 -0.4705  1.5540 -1.6250
  960MOL0     H29591   0.905   0.835   3.762 -1.2414 -0.5030  0.6255
  960MOL0     H29592   0.996   0.594   3.925  2.5627 -0.8406  0.9475
  960MOL0     H29593   1.073   0.741   3.952  0.3493 -0.0440  0.0111
  960MOL0     H29594   1.116   0.588   3.700 -1.0437  1.0047 -0.4694
  960MOL0     H29595   1.234   0.652   3.822  0.4591 -2.0411 -1.2682
  960MOL0     H29596   1.284   0.808   3.668  0.2313 -1.2952  0.5520
  960MOL0     H29597   1.157   0.883   3.770  2.5242 -1.7954  4.0253
  960MOL0     H29598   1.005   0.852   3.368  2.5180  0.5084 -1.1150
  960MOL0     H29599   0.660   0.799   4.156  0.1433 -0.8793  0.1841
  960MOL0     H29600   0.421   0.846   4.143 -0.6217  1.1428 -0.8037
  961MOL0     O29601   1.843   3.120   6.081  0.7452  0.3831 -0.0693
  961MOL0     C29602   1.832   3.057   5.977  0.1172  0.7545 -0.5031
  961MOL0     O29603   1.741   2.950   5.965 -0.0461 -0.1516  0.2567
  961MOL0     C29604   1.657   2.922   6.073 -0.7607  0.0556  0.6108
  961MOL0     C29605   1.566   3.010   6.128  0.8949  0.1306 -0.1332
  961MOL0     C29606   1.473   2.971   6.228  0.1257 -0.8704  0.8434
  961MOL0     C29607   1.480   2.841   6.272  0.2010 -0.4736  0.0569
  961MOL0     O29608   1.410   2.793   6.374 -0.3560  0.2265 -0.1697
  961MOL0     C29609   1.268   2.808   6.354 -0.2604 -0.8143  0.1015
  961MOL0     C29610   1.180   2.728   6.449  0.0044  0.1998 -0.7218
  961MOL0     C29611   1.198   2.581   6.419  0.6966 -0.5000 -0.8597
  961MOL0     C29612   1.108   2.485   6.512  0.1339 -0.2981  0.6746
  961MOL0     C29613   0.956   2.498   6.502  1.0857  0.1454  1.3217
  961MOL0     C29614   0.890   2.378   6.564  0.1214 -0.2548  0.2738
  961MOL0     C29615   0.754   2.424   6.637 -0.7412 -0.1588 -0.1570
  961MOL0     C29616   0.662   2.499   6.549  0.0221  0.3544 -0.1447
  961MOL0     N29617   0.587   2.399   6.473 -0.1930  0.7896  0.0366
  961MOL0     C29618   0.478   2.336   6.526 -0.2838  0.0269 -0.1336
  961MOL0     C29619   0.411   2.295   6.407  0.4829  0.1543  0.4734
  961MOL0     C29620   0.277   2.230   6.396  0.2213  0.5384 -0.0065
  961MOL0     C29621   0.151   2.326   6.423  0.1101 -0.2039  0.8769
  961MOL0     C29622   0.152   2.457   6.338 -0.3648  0.5245  0.6055
  961MOL0     C29623   0.155   2.428   6.191  0.6269  0.3735 -0.0619
  961MOL0     O29624   0.150   2.552   6.125 -1.0256  0.5532 -0.1108
  961MOL0     C29625   0.026   2.613   6.112  0.9871 -0.2353  0.0627
  961MOL0     C29626   0.026   2.750   6.062 -0.2141  0.3722 -0.4084
  961MOL0     C29627  -0.092   2.831   6.049  0.8847  0.3024  0.5883
  961MOL0     C29628  -0.075   2.964   5.964 -0.7499  0.0689 -0.3812
  961MOL0     C29629  -0.214   2.779   6.100  0.0749  0.4743 -0.0983
  961MOL0     C29630  -0.346   2.843   6.091  0.2500 -0.6367  0.2278
  961MOL0     O29631  -0.453   2.772   6.027 -0.2079 -0.8640  0.1074
  961MOL0     C29632  -0.579   2.823   6.030 -0.1041  0.2677 -0.3641
  961MOL0     C29633  -0.631   2.899   6.139  0.1497 -0.6020  1.1626
  961MOL0     C29634  -0.766   2.933   6.138  0.4881 -0.4258 -0.1529
  961MOL0     C29635  -0.858   2.891   6.042 -0.4747  0.3182 -0.5975
  961MOL0     O29636  -0.991   2.929   6.028 -0.0388 -0.6682  0.2007
  961MOL0     C29637  -1.058   2.970   6.150 -0.7722 -0.1393 -0.7145
  961MOL0     C29638  -1.210   2.940   6.126  0.3099  0.7245 -0.4284
  961MOL0     C29639  -1.260   3.021   6.003 -0.1162 -0.5980 -0.4934
  961MOL0     C29640  -1.403   2.990   5.986 -0.0652 -0.5292  0.0175
  961MOL0     C29641  -1.474   3.062   5.865  0.4119 -0.2495 -0.0252
  961MOL0     C29642  -1.608   2.998   5.830  1.0988 -0.5725 -0.1028
  961MOL0     C29643  -1.678   3.087   5.734  0.1404  0.3740 -0.7372
  961MOL0     C29644  -1.817   3.033   5.697 -0.0754 -0.6720 -0.1956
  961MOL0    Cl29645  -1.871   3.117   5.551  0.6369  0.3653 -0.2077
  961MOL0     C29646  -0.804   2.820   5.938 -0.3650 -0.5850  0.5641
  961MOL0     C29647  -0.669   2.785   5.923 -0.1597 -0.7581 -0.2308
  961MOL0     O29648  -0.349   2.962   6.133  0.4601  0.3461 -0.6372
  961MOL0     C29649  -0.220   2.636   6.136 -0.4165 -0.6566 -0.1380
  961MOL0     C29650  -0.103   2.551   6.145  0.2979 -0.1672  0.2647
  961MOL0     N29651   0.498   2.328   6.300 -0.1723 -0.5305 -0.2873
  961MOL0     N29652   0.603   2.386   6.342 -0.1373  0.0939 -0.7676
  961MOL0     C29653   1.570   2.748   6.208  0.3179  0.4579  0.2076
  961MOL0     C29654   1.652   2.786   6.106 -0.4837 -1.0319 -0.4126
  961MOL0     C29655   1.924   3.090   5.860 -0.4122 -0.1610 -0.8615
  961MOL0     C29656   2.002   3.211   5.856  0.7955 -0.0514 -0.3903
  961MOL0     C29657   2.088   3.237   5.750 -0.2254  0.4695  1.2143
  961MOL0     C29658   2.087   3.155   5.636  0.2937  0.3870  0.4442
  961MOL0     O29659   2.167   3.189   5.531 -0.2341 -0.2388 -0.4921
  961MOL0     C29660   2.158   3.107   5.405  0.2178 -0.4637 -0.7435
  961MOL0     C29661   2.253   2.987   5.407 -0.3520  0.1592 -0.4849
  961MOL0     C29662   2.228   2.906   5.277  0.1945  0.8856  0.5780
  961MOL0     C29663   2.336   2.817   5.245 -0.6099 -0.2992 -0.8555
  961MOL0     C29664   2.331   2.698   5.321 -0.7702 -0.3777  0.4566
  961MOL0     C29665   2.332   2.593   5.382  0.5766 -0.8607 -0.4267
  961MOL0     C29666   2.014   3.030   5.649  0.6197  0.7287  0.1618
  961MOL0     C29667   1.940   3.003   5.757  0.3467 -0.5566 -0.7027
  961MOL0     H29668   1.558   3.110   6.085 -1.1920 -0.3190 -0.9165
  961MOL0     H29669   1.400   3.038   6.272 -0.3490 -0.1300 -0.9915
  961MOL0     H29670   1.239   2.912   6.374 -0.3974 -0.4070 -1.9907
  961MOL0     H29671   1.237   2.784   6.252 -1.5733 -2.3875  0.8381
  961MOL0     H29672   1.214   2.755   6.550 -0.1480  1.7566 -1.0579
  961MOL0     H29673   1.076   2.756   6.427  0.8700  0.9084 -4.5110
  961MOL0     H29674   1.198   2.561   6.312  3.4557  0.5486 -1.1232
  961MOL0     H29675   1.294   2.556   6.464 -0.2111  0.6261  1.9578
  961MOL0     H29676   1.127   2.380   6.485 -1.2546 -0.4680  0.2773
  961MOL0     H29677   1.139   2.493   6.617  2.0337 -0.7345  0.1804
  961MOL0     H29678   0.933   2.591   6.554  2.0887  0.7892  0.6556
  961MOL0     H29679   0.916   2.504   6.400  0.6626  0.3249  1.4982
  961MOL0     H29680   0.881   2.287   6.503  1.0455  0.2120 -0.5846
  961MOL0     H29681   0.949   2.334   6.644  1.7570 -1.0688 -1.3224
  961MOL0     H29682   0.714   2.335   6.687  2.9768 -3.9033 -3.0900
  961MOL0     H29683   0.787   2.489   6.718 -0.9196 -2.6570  2.0731
  961MOL0     H29684   0.716   2.563   6.479  0.7345  1.1847  1.1281
  961MOL0     H29685   0.587   2.559   6.601 -0.7116  0.4734 -1.2945
  961MOL0     H29686   0.450   2.338   6.630 -0.7569  0.6614 -0.2607
  961MOL0     H29687   0.267   2.183   6.298  0.1239  1.3116 -0.3809
  961MOL0     H29688   0.282   2.154   6.474 -0.1054  2.5932  2.1281
  961MOL0     H29689   0.148   2.358   6.528 -1.1257 -0.9694  1.0997
  961MOL0     H29690   0.057   2.273   6.405 -0.3647  0.5810  1.0151
  961MOL0     H29691   0.236   2.526   6.354  1.5231 -1.4272 -0.3786
  961MOL0     H29692   0.049   2.486   6.359 -1.5501 -1.7531 -1.5325
  961MOL0     H29693   0.069   2.364   6.169  1.0900  0.2944 -1.8135
  961MOL0     H29694   0.252   2.381   6.175  0.3070 -0.5472  0.6383
  961MOL0     H29695   0.121   2.788   6.026 -0.5280  1.7333  0.1099
  961MOL0     H29696  -0.175   3.000   5.937 -1.0791  1.7525  2.6600
  961MOL0     H29697  -0.027   3.032   6.035 -2.5218  0.8148  0.1620
  961MOL0     H29698  -0.016   2.955   5.873 -1.3151  0.2169 -0.7701
  961MOL0     H29699  -0.573   2.926   6.226  1.8517 -0.2357 -0.0475
  961MOL0     H29700  -0.800   3.006   6.210  1.7068  0.2944 -0.2784
  961MOL0     H29701  -1.028   2.914   6.239 -0.3450  1.8560  0.4452
  961MOL0     H29702  -1.051   3.077   6.171  1.1525 -0.2157 -0.8417
  961MOL0     H29703  -1.224   2.835   6.100  2.3038  0.0853  0.7799
  961MOL0     H29704  -1.270   2.965   6.214  0.2791 -0.2623 -0.1585
  961MOL0     H29705  -1.205   2.987   5.915 -1.8095  0.0235 -1.8530
  961MOL0     H29706  -1.241   3.124   6.035  0.8687 -0.8492 -0.2368
  961MOL0     H29707  -1.417   2.884   5.963  3.4169 -1.3141  0.9397
  961MOL0     H29708  -1.462   3.019   6.074 -1.5794  0.8346 -1.3684
  961MOL0     H29709  -1.409   3.073   5.778  1.5562 -1.4826  0.6443
  961MOL0     H29710  -1.493   3.163   5.903  0.4012 -1.4312  3.4308
  961MOL0     H29711  -1.585   2.896   5.798  0.1577 -0.9156  0.2686
  961MOL0     H29712  -1.673   2.997   5.918  3.0124 -0.7502  1.3904
  961MOL0     H29713  -1.620   3.101   5.643 -0.3173 -0.5424 -1.1798
  961MOL0     H29714  -1.686   3.187   5.777  0.7351  0.2235 -0.2449
  961MOL0     H29715  -1.885   3.043   5.782 -1.3348  0.0903 -1.2530
  961MOL0     H29716  -1.818   2.924   5.684  0.5896 -0.6759 -0.2453
  961MOL0     H29717  -0.874   2.793   5.859  1.0901 -3.4792  0.1191
  961MOL0     H29718  -0.632   2.718   5.845  0.0633 -1.7064  0.6721
  961MOL0     H29719  -0.308   2.603   6.189  0.5306  0.0121  1.9589
  961MOL0     H29720  -0.113   2.452   6.186 -2.1450 -0.3547 -0.5956
  961MOL0     H29721   1.557   2.645   6.238  3.5709  0.2159  1.1162
  961MOL0     H29722   1.734   2.731   6.062  0.2372  0.8927 -1.5808
  961MOL0     H29723   1.990   3.291   5.928  1.2423  1.7846 -2.2786
  961MOL0     H29724   2.155   3.322   5.748  0.1536  0.1617  0.0243
  961MOL0     H29725   2.056   3.072   5.390  0.2533 -0.4338 -1.0583
  961MOL0     H29726   2.184   3.174   5.323  4.4855 -0.3664  0.4335
  961MOL0     H29727   2.235   2.931   5.499  3.7147 -0.0652  0.3519
  961MOL0     H29728   2.359   3.012   5.403  0.1371 -1.8234 -0.9237
  961MOL0     H29729   2.207   2.979   5.198 -0.8780 -1.2980 -1.2457
  961MOL0     H29730   2.139   2.842   5.276 -0.3049  1.5285 -1.3474
  961MOL0     H29731   2.427   2.877   5.257 -1.8037  1.6338 -1.1416
  961MOL0     H29732   2.350   2.786   5.141  2.6081 -2.9376  0.1602
  961MOL0     H29733   2.337   2.521   5.460  3.8155  0.2162  0.5255
  961MOL0     H29734   2.023   2.953   5.573  2.6572 -1.7368  2.6524
  961MOL0     H29735   1.884   2.911   5.770 -0.9452  0.4594  1.4725
  962MOL0     O29736   7.119   2.598   7.454 -0.1166  0.6803 -0.5614
  962MOL0     C29737   7.096   2.695   7.534  1.2850 -0.5708 -0.3051
  962MOL0     O29738   7.191   2.748   7.624  0.3708  0.9097 -0.6907
  962MOL0     C29739   7.307   2.681   7.633 -0.2884 -0.0209  0.3423
  962MOL0     C29740   7.323   2.571   7.716 -0.2961  0.5121  0.1679
  962MOL0     C29741   7.439   2.497   7.716  0.7558 -0.0993 -0.0368
  962MOL0     C29742   7.537   2.523   7.624 -0.1329  0.2742 -0.4876
  962MOL0     O29743   7.648   2.440   7.628 -0.8131  0.2781 -0.3557
  962MOL0     C29744   7.769   2.498   7.570  0.0699  0.5664 -0.3252
  962MOL0     C29745   7.884   2.415   7.627  0.1945  0.0416  0.0213
  962MOL0     C29746   8.023   2.475   7.594 -0.3727  0.6131 -0.3856
  962MOL0     C29747   8.131   2.401   7.668  0.5977  0.1516  0.2144
  962MOL0     C29748   8.261   2.441   7.606  0.7030 -0.2697 -0.1070
  962MOL0     C29749   8.371   2.365   7.663 -1.0546 -0.5240 -0.3311
  962MOL0     C29750   8.498   2.373   7.580  0.0924  0.2206  0.5014
  962MOL0     C29751   8.635   2.368   7.653  0.6538 -0.0275  0.8371
  962MOL0     N29752   8.747   2.330   7.569 -0.1031 -0.0955 -0.4666
  962MOL0     C29753   8.817   2.215   7.600  0.6792  0.2933 -0.4083
  962MOL0     C29754   8.893   2.193   7.495 -0.1472  0.2233 -0.0109
  962MOL0     C29755   8.994   2.073   7.501 -0.0757 -0.3916  0.0278
  962MOL0     C29756   9.085   2.072   7.629 -0.6294  0.0733  0.4227
  962MOL0     C29757   9.218   1.983   7.619 -0.2681 -0.3779  0.1506
  962MOL0     C29758   9.321   2.025   7.731 -0.0874 -0.6064  0.7439
  962MOL0     O29759   9.365   2.163   7.706 -0.3631  0.7161  0.6407
  962MOL0     C29760   9.494   2.203   7.749 -0.1245 -0.5418 -0.2058
  962MOL0     C29761   9.540   2.325   7.693  0.4203  1.3693 -0.5373
  962MOL0     C29762   9.659   2.391   7.729 -0.0490  0.1985  0.4493
  962MOL0     C29763   9.687   2.518   7.649  0.7506  1.1900  0.1596
  962MOL0     C29764   9.751   2.319   7.814 -0.2680  0.2702  0.6852
  962MOL0     C29765   9.883   2.362   7.857  0.2833 -0.1071  0.6277
  962MOL0     O29766   9.977   2.261   7.884  0.4674  0.3512 -0.4558
  962MOL0     C29767  10.092   2.288   7.947  0.6744 -0.6259 -0.1123
  962MOL0     C29768  10.132   2.212   8.061  0.0536  0.2564 -0.4256
  962MOL0     C29769  10.256   2.219   8.121  0.2838 -1.1218  0.1584
  962MOL0     C29770  10.352   2.299   8.053  0.3257 -0.1904  0.1248
  962MOL0     O29771  10.483   2.309   8.100 -0.6457 -0.3247  0.1690
  962MOL0     C29772  10.580   2.242   8.017 -0.0394  0.1395 -0.2665
  962MOL0     C29773  10.634   2.115   8.078 -0.8818  0.7998  0.3120
  962MOL0     C29774  10.699   2.137   8.217 -0.1364 -0.3397  0.8260
  962MOL0     C29775  10.820   2.234   8.194  0.2167 -0.1701 -0.1328
  962MOL0     C29776  10.929   2.226   8.305  0.8660 -0.0148 -0.0257
  962MOL0     C29777  11.035   2.329   8.271  0.2519  0.0828  0.5548
  962MOL0     C29778  11.136   2.338   8.380  0.9128  0.4165 -0.6796
  962MOL0     C29779  11.229   2.457   8.358  0.7218  0.0499 -0.0323
  962MOL0    Cl29780  11.327   2.481   8.505 -0.2322 -0.2186  0.2585
  962MOL0     C29781  10.318   2.386   7.944 -0.8761  1.2044 -0.3706
  962MOL0     C29782  10.192   2.372   7.883 -0.9119  0.7702 -0.6996
  962MOL0     O29783   9.893   2.478   7.884  0.2355  0.2741  0.2327
  962MOL0     C29784   9.709   2.183   7.856 -0.3458 -0.7137  0.7562
  962MOL0     C29785   9.584   2.130   7.822 -0.5000 -0.0819  0.4215
  962MOL0     N29786   8.852   2.265   7.387 -0.2840 -0.2166  0.2024
  962MOL0     N29787   8.766   2.352   7.436  0.5257 -0.2304  0.2137
  962MOL0     C29788   7.527   2.629   7.532 -0.2515 -0.3104 -0.9124
  962MOL0     C29789   7.416   2.718   7.550  0.3544 -0.2468  0.1499
  962MOL0     C29790   6.965   2.757   7.532  0.3941  0.2672  0.4139
  962MOL0     C29791   6.918   2.812   7.651 -0.9216 -0.5871 -0.0467
  962MOL0     C29792   6.791   2.864   7.662 -0.3446 -0.0148 -0.7477
  962MOL0     C29793   6.698   2.867   7.553  1.1104  0.8844 -0.3434
  962MOL0     O29794   6.575   2.923   7.567  0.0797  0.7470 -0.4239
  962MOL0     C29795   6.461   2.868   7.482  0.0542 -0.3279 -0.1552
  962MOL0     C29796   6.429   2.954   7.359  0.4842  0.1004  0.3860
  962MOL0     C29797   6.285   2.915   7.299 -0.2302  0.8808  0.0570
  962MOL0     C29798   6.238   3.001   7.181 -0.1065  0.4810 -0.2376
  962MOL0     C29799   6.220   3.143   7.222  0.4261  0.3345 -0.1271
  962MOL0     C29800   6.196   3.261   7.238  0.0376 -0.3710  1.0030
  962MOL0     C29801   6.749   2.808   7.442 -0.3186 -0.2691  0.9807
  962MOL0     C29802   6.877   2.750   7.422  1.3391  0.5539  0.1520
  962MOL0     H29803   7.234   2.551   7.775  1.3248  2.0015  3.3199
  962MOL0     H29804   7.455   2.419   7.789  0.1530 -0.5489 -0.3775
  962MOL0     H29805   7.755   2.487   7.463 -2.9917 -0.2569  0.0586
  962MOL0     H29806   7.777   2.606   7.581  3.2634  0.3838  0.1343
  962MOL0     H29807   7.876   2.406   7.735 -0.3199 -2.1606 -0.1423
  962MOL0     H29808   7.870   2.311   7.597  2.7777 -0.8234  1.5278
  962MOL0     H29809   8.044   2.476   7.486  3.0445  4.9577  0.0406
  962MOL0     H29810   8.024   2.580   7.624  0.5102  0.4453  0.2110
  962MOL0     H29811   8.133   2.417   7.776 -0.1431 -0.3466  0.3072
  962MOL0     H29812   8.112   2.295   7.649 -1.3018  0.9207 -2.9844
  962MOL0     H29813   8.257   2.419   7.499  0.2809  1.6238 -0.5268
  962MOL0     H29814   8.270   2.549   7.620 -0.3937  0.1295 -2.1074
  962MOL0     H29815   8.381   2.402   7.766 -4.1558 -0.8396  0.1784
  962MOL0     H29816   8.347   2.259   7.667 -1.1891 -0.4663  2.2175
  962MOL0     H29817   8.488   2.290   7.510 -0.7652  1.0604 -0.3965
  962MOL0     H29818   8.492   2.468   7.527 -1.5478 -0.7897 -1.2141
  962MOL0     H29819   8.622   2.297   7.736 -1.7607  0.7353  1.2063
  962MOL0     H29820   8.662   2.465   7.696 -0.9204  1.1452 -0.6777
  962MOL0     H29821   8.814   2.158   7.692 -1.3239  1.6958  0.4798
  962MOL0     H29822   8.940   1.978   7.513  0.7712 -0.5327  4.4315
  962MOL0     H29823   9.059   2.071   7.413 -0.5271 -0.5491 -0.3097
  962MOL0     H29824   9.028   2.045   7.718 -0.6140 -0.4471  0.2792
  962MOL0     H29825   9.111   2.178   7.631  0.0064 -0.0754  0.3858
  962MOL0     H29826   9.266   2.010   7.524  2.6437  1.3076  1.9736
  962MOL0     H29827   9.202   1.875   7.617  0.2302 -0.4467 -0.3251
  962MOL0     H29828   9.412   1.965   7.725  2.1397  2.6192 -0.2381
  962MOL0     H29829   9.285   2.016   7.834  1.1117  2.2167  1.5060
  962MOL0     H29830   9.467   2.386   7.641  1.2691  2.0326 -0.9821
  962MOL0     H29831   9.598   2.569   7.610  1.2047  2.1912  0.3838
  962MOL0     H29832   9.732   2.593   7.715  1.2925  1.3413 -0.3597
  962MOL0     H29833   9.761   2.501   7.570 -1.3776  2.4691 -2.2579
  962MOL0     H29834  10.050   2.154   8.102  1.7116 -1.6150  0.4237
  962MOL0     H29835  10.287   2.165   8.210 -0.7513 -0.6971  0.7951
  962MOL0     H29836  10.542   2.220   7.916 -1.1579 -0.3567  0.2503
  962MOL0     H29837  10.654   2.323   8.011 -1.2038  1.3862  1.2819
  962MOL0     H29838  10.554   2.041   8.091 -1.5878  0.9243 -2.6064
  962MOL0     H29839  10.711   2.076   8.011  0.1511  4.1236 -0.6195
  962MOL0     H29840  10.736   2.037   8.241  0.6851 -0.1932  0.2210
  962MOL0     H29841  10.635   2.174   8.297  2.5651 -2.1323  4.0566
  962MOL0     H29842  10.867   2.212   8.097 -1.2248 -0.8239 -0.7203
  962MOL0     H29843  10.776   2.334   8.185  2.1931  1.0810  2.8677
  962MOL0     H29844  10.975   2.127   8.308 -1.1891 -1.1447 -2.2962
  962MOL0     H29845  10.886   2.263   8.399  0.5853  2.0549 -0.9259
  962MOL0     H29846  11.081   2.292   8.179 -2.2935  1.7700 -1.5656
  962MOL0     H29847  10.982   2.425   8.263 -1.9563 -1.1363 -0.4801
  962MOL0     H29848  11.197   2.248   8.382 -1.5773 -1.3573 -0.1267
  962MOL0     H29849  11.082   2.357   8.474  1.1681  0.8296 -0.6116
  962MOL0     H29850  11.167   2.544   8.336  1.1750  0.4420  0.2313
  962MOL0     H29851  11.287   2.439   8.267 -0.4734 -0.1861 -0.7722
  962MOL0     H29852  10.393   2.454   7.904  0.8852 -2.0481 -3.2117
  962MOL0     H29853  10.172   2.436   7.798 -0.6708 -1.9212 -2.9703
  962MOL0     H29854   9.780   2.131   7.920 -0.8179 -0.3505  1.5766
  962MOL0     H29855   9.550   2.037   7.865  0.9510 -2.0199 -2.3744
  962MOL0     H29856   7.599   2.667   7.460 -0.9269  2.2332 -0.3623
  962MOL0     H29857   7.414   2.808   7.491 -1.4647 -0.2686  0.1226
  962MOL0     H29858   6.984   2.829   7.735  3.1348  2.5055 -3.4433
  962MOL0     H29859   6.761   2.896   7.761  0.9093 -0.5075 -0.1810
  962MOL0     H29860   6.478   2.761   7.468  0.7342 -0.4793  1.6347
  962MOL0     H29861   6.373   2.858   7.546  1.8729 -1.4608  2.3377
  962MOL0     H29862   6.508   2.958   7.283 -0.9405  1.9385 -1.1026
  962MOL0     H29863   6.444   3.059   7.388  2.2159 -0.0540  0.1511
  962MOL0     H29864   6.206   2.911   7.376 -0.0016 -2.8587  0.2775
  962MOL0     H29865   6.286   2.812   7.263  0.9150  0.7105  0.5490
  962MOL0     H29866   6.147   2.950   7.148 -0.6562 -0.8076  2.8429
  962MOL0     H29867   6.314   2.989   7.104  2.3395 -0.3753  2.1230
  962MOL0     H29868   6.183   3.366   7.259  2.9160  0.2928 -0.0444
  962MOL0     H29869   6.690   2.808   7.352  0.3222  1.5095  0.5157
  962MOL0     H29870   6.897   2.700   7.328 -0.7284 -0.2062  0.0504
  963MOL0     O29871   5.218   3.660  11.219  0.0268  0.1547  0.0598
  963MOL0     C29872   5.232   3.538  11.247  0.0418 -0.6286 -0.6126
  963MOL0     O29873   5.140   3.434  11.219 -0.9130 -0.5812  0.7899
  963MOL0     C29874   5.015   3.466  11.195  0.0963  0.0323  0.1753
  963MOL0     C29875   4.958   3.403  11.086  0.0850 -0.7129 -0.0800
  963MOL0     C29876   4.815   3.393  11.073 -0.4551 -0.4057  0.8657
  963MOL0     C29877   4.740   3.445  11.177  0.6466 -0.8215  0.2563
  963MOL0     O29878   4.603   3.443  11.174  0.0778 -0.0245 -0.6071
  963MOL0     C29879   4.539   3.554  11.099 -0.5279  0.3960 -1.1300
  963MOL0     C29880   4.459   3.497  10.979 -0.7911  0.2204 -0.5785
  963MOL0     C29881   4.344   3.595  10.943 -0.3803 -0.5727 -0.5628
  963MOL0     C29882   4.360   3.653  10.802  0.1528  0.2703  0.4609
  963MOL0     C29883   4.264   3.758  10.770 -0.1444 -0.8671 -0.6495
  963MOL0     C29884   4.246   3.807  10.626 -0.5123 -0.5929  0.3105
  963MOL0     C29885   4.188   3.947  10.636 -0.9947 -0.3625 -0.4455
  963MOL0     C29886   4.039   3.941  10.668 -0.2547  1.3465 -0.7857
  963MOL0     N29887   3.971   4.072  10.643 -0.4004 -0.1246  0.6085
  963MOL0     C29888   3.969   4.139  10.515 -0.2596  1.2010 -0.1347
  963MOL0     C29889   3.927   4.263  10.536  0.9267 -0.3956 -0.3727
  963MOL0     C29890   3.909   4.374  10.435 -0.6788 -1.2431 -0.5304
  963MOL0     C29891   3.762   4.430  10.461 -0.4708  0.7000 -0.4575
  963MOL0     C29892   3.708   4.512  10.351 -0.0454 -0.2805 -0.9035
  963MOL0     C29893   3.572   4.574  10.375 -0.4471 -0.0859  0.1573
  963MOL0     O29894   3.496   4.469  10.433  0.2357 -0.5167 -0.0481
  963MOL0     C29895   3.422   4.504  10.541  0.9671 -0.1397  0.3358
  963MOL0     C29896   3.357   4.624  10.567 -0.3305 -0.0991  0.3923
  963MOL0     C29897   3.299   4.654  10.693 -0.5811 -0.4300  0.2336
  963MOL0     C29898   3.230   4.785  10.702 -0.3506  0.2404  0.1443
  963MOL0     C29899   3.306   4.558  10.792 -0.1291 -0.2533 -0.1711
  963MOL0     C29900   3.238   4.584  10.931  0.4084 -0.4195  0.7076
  963MOL0     O29901   3.238   4.479  11.007 -0.2705  0.3838  0.1584
  963MOL0     C29902   3.150   4.473  11.117  0.1532  0.2153  0.1903
  963MOL0     C29903   3.198   4.429  11.232 -0.0508  0.0083  0.3521
  963MOL0     C29904   3.121   4.411  11.344 -0.2560 -0.1074  0.1601
  963MOL0     C29905   2.982   4.422  11.339  0.3851 -0.1987 -0.2076
  963MOL0     O29906   2.905   4.396  11.447 -0.1253 -0.2268  0.3483
  963MOL0     C29907   2.935   4.270  11.505  0.9740  0.1894 -0.5348
  963MOL0     C29908   2.819   4.164  11.476 -0.5404 -0.0425 -0.0194
  963MOL0     C29909   2.883   4.033  11.435  0.2439  0.6984  0.4222
  963MOL0     C29910   2.772   3.926  11.405  0.7049  0.2228  0.4356
  963MOL0     C29911   2.824   3.779  11.368  0.4323 -0.1195  0.8158
  963MOL0     C29912   2.870   3.714  11.494 -0.0176  0.4128 -0.0701
  963MOL0     C29913   2.907   3.568  11.484 -0.6635  0.1043  0.5676
  963MOL0     C29914   2.978   3.506  11.610 -0.9365  0.4711  0.2054
  963MOL0    Cl29915   2.855   3.444  11.717  0.2308  0.2654 -0.0282
  963MOL0     C29916   2.931   4.467  11.222 -0.4988 -0.2960 -0.1715
  963MOL0     C29917   3.015   4.502  11.106  0.4847  0.8472  0.1346
  963MOL0     O29918   3.203   4.699  10.963  0.1551 -0.1958 -0.7083
  963MOL0     C29919   3.357   4.433  10.758 -0.9801 -0.1196 -0.0425
  963MOL0     C29920   3.411   4.406  10.637  0.1431 -0.8008  0.3406
  963MOL0     N29921   3.888   4.266  10.671 -0.2108  0.0585 -0.0193
  963MOL0     N29922   3.913   4.158  10.727  0.0374  0.5375 -0.8582
  963MOL0     C29923   4.795   3.514  11.286  0.2740 -0.8052 -0.0945
  963MOL0     C29924   4.932   3.528  11.284  0.4685  0.6639  0.1603
  963MOL0     C29925   5.356   3.495  11.309 -0.4400  0.4656 -0.7584
  963MOL0     C29926   5.386   3.360  11.322  0.2201  0.5811 -0.4520
  963MOL0     C29927   5.503   3.320  11.390  0.5790  0.0507 -0.5647
  963MOL0     C29928   5.604   3.406  11.434 -0.1914 -0.6281 -0.2380
  963MOL0     O29929   5.722   3.357  11.477  0.5510  0.2741 -0.1255
  963MOL0     C29930   5.830   3.434  11.512  0.4077 -0.3630  0.5984
  963MOL0     C29931   5.962   3.368  11.546  0.4532 -0.6668  0.0387
  963MOL0     C29932   6.001   3.268  11.433  0.1374 -0.2369  0.8771
  963MOL0     C29933   5.958   3.123  11.455 -1.1289 -0.0305  0.6710
  963MOL0     C29934   5.829   3.088  11.397  0.1305  1.2734 -0.7386
  963MOL0     C29935   5.723   3.050  11.346  0.0388 -0.4338 -0.6570
  963MOL0     C29936   5.575   3.540  11.419  0.0163  0.1782  0.1278
  963MOL0     C29937   5.452   3.578  11.361  0.1388 -0.4316  0.1761
  963MOL0     H29938   5.025   3.343  11.025  3.9198  1.4161  1.6674
  963MOL0     H29939   4.769   3.348  10.985  2.1603  0.6279 -1.1660
  963MOL0     H29940   4.469   3.608  11.163 -0.2006  0.7609 -1.0789
  963MOL0     H29941   4.613   3.626  11.063  0.8744 -1.1287 -1.4328
  963MOL0     H29942   4.531   3.490  10.897  0.3256  3.0879  0.0352
  963MOL0     H29943   4.413   3.400  11.001  0.4036  0.3894  3.1757
  963MOL0     H29944   4.261   3.524  10.937  2.0173 -3.5716 -0.5917
  963MOL0     H29945   4.334   3.669  11.023  1.0350  0.1982 -1.0657
  963MOL0     H29946   4.462   3.686  10.778  0.2903 -0.2610  0.3073
  963MOL0     H29947   4.350   3.568  10.733 -2.9142 -0.0510  1.1742
  963MOL0     H29948   4.160   3.747  10.801 -1.5114  3.2977 -3.0410
  963MOL0     H29949   4.305   3.835  10.836 -0.2014  1.2334 -2.9125
  963MOL0     H29950   4.347   3.819  10.587 -1.0151 -2.0200 -1.5626
  963MOL0     H29951   4.189   3.743  10.557 -1.1318  0.7625 -0.4674
  963MOL0     H29952   4.241   4.011  10.707 -0.4459 -0.8908 -0.3694
  963MOL0     H29953   4.184   4.005  10.544  0.2819 -2.6902 -2.0987
  963MOL0     H29954   4.026   3.917  10.775  0.3615 -0.2110 -1.0267
  963MOL0     H29955   3.991   3.856  10.619 -1.4214 -0.3978  2.9265
  963MOL0     H29956   4.013   4.097  10.425  0.1292  0.3074  0.4570
  963MOL0     H29957   3.979   4.450  10.472 -2.5652  0.5162 -0.4295
  963MOL0     H29958   3.936   4.343  10.334  1.4092  0.4912 -0.5792
  963MOL0     H29959   3.755   4.491  10.552 -0.0660  0.4505 -0.2589
  963MOL0     H29960   3.699   4.341  10.473 -1.8852  1.4073 -2.1497
  963MOL0     H29961   3.710   4.444  10.265  2.7457  1.0012 -1.9882
  963MOL0     H29962   3.780   4.592  10.327 -0.2938  0.1889 -0.1377
  963MOL0     H29963   3.536   4.616  10.280 -0.5767 -0.3731  0.0805
  963MOL0     H29964   3.588   4.650  10.452 -0.3864 -1.0561  1.1183
  963MOL0     H29965   3.359   4.692  10.483 -3.3168  3.0856  2.6349
  963MOL0     H29966   3.121   4.780  10.691 -0.4945 -1.7203  1.8634
  963MOL0     H29967   3.257   4.831  10.797  0.2969 -0.2477  0.1989
  963MOL0     H29968   3.258   4.855  10.623 -2.6000 -0.5848 -1.4870
  963MOL0     H29969   3.306   4.418  11.245  0.1900 -0.5977 -1.6626
  963MOL0     H29970   3.183   4.385  11.430  4.4333 -2.6815 -3.5010
  963MOL0     H29971   3.018   4.238  11.442  1.2139  1.3908 -0.8517
  963MOL0     H29972   2.961   4.274  11.611 -0.1243 -1.8364 -0.1424
  963MOL0     H29973   2.755   4.158  11.565 -0.2197 -0.8490  0.1711
  963MOL0     H29974   2.760   4.208  11.395 -1.0554  1.9526  1.3595
  963MOL0     H29975   2.953   3.981  11.502 -1.4870  1.5072  3.0289
  963MOL0     H29976   2.931   4.051  11.339 -2.2891  1.7244 -0.7284
  963MOL0     H29977   2.701   3.922  11.487 -1.3257 -1.4063 -1.2997
  963MOL0     H29978   2.713   3.969  11.323 -1.8578  0.3233  2.2344
  963MOL0     H29979   2.905   3.773  11.296  1.4286 -2.9561  2.0310
  963MOL0     H29980   2.736   3.725  11.330 -0.3527  1.5008  0.2370
  963MOL0     H29981   2.961   3.773  11.509 -0.5637  2.5037 -3.7861
  963MOL0     H29982   2.802   3.728  11.579  0.1900  0.3346  0.1112
  963MOL0     H29983   2.976   3.561  11.399  0.6169 -1.0266  1.6435
  963MOL0     H29984   2.819   3.510  11.454 -0.1600  0.4601 -1.8127
  963MOL0     H29985   3.035   3.581  11.664 -3.3977  2.8655 -0.2601
  963MOL0     H29986   3.049   3.429  11.580 -0.7919  0.7134 -0.0770
  963MOL0     H29987   2.823   4.477  11.221 -0.4054  0.9180 -1.2691
  963MOL0     H29988   2.976   4.550  11.016 -3.2293  0.4648  1.3758
  963MOL0     H29989   3.369   4.357  10.834 -0.1462  2.2386  2.3642
  963MOL0     H29990   3.460   4.310  10.624  3.2778  0.6289  0.5795
  963MOL0     H29991   4.730   3.544  11.368  2.0089  1.4634  0.5286
  963MOL0     H29992   4.970   3.570  11.377 -1.2180  1.6051  0.4721
  963MOL0     H29993   5.314   3.286  11.288  1.0413  0.3078 -1.6362
  963MOL0     H29994   5.522   3.213  11.402 -1.3249 -0.2819 -0.2880
  963MOL0     H29995   5.850   3.505  11.431  1.1369 -1.9817 -0.7075
  963MOL0     H29996   5.811   3.487  11.606  1.0791 -2.2719  1.8760
  963MOL0     H29997   5.948   3.315  11.640 -0.5166  0.9551  0.8625
  963MOL0     H29998   6.030   3.454  11.553 -0.2651 -0.0137 -0.7556
  963MOL0     H29999   6.111   3.272  11.434  0.2387 -2.0699  1.8669
  963MOL0     H30000   5.971   3.301  11.333 -0.2852 -2.3370  0.2696
  963MOL0     H30001   5.961   3.109  11.564 -0.4823  1.1187  0.8232
  963MOL0     H30002   6.029   3.056  11.406 -1.7251 -0.4342  0.3431
  963MOL0     H30003   5.626   3.029  11.306 -0.9164  0.0714  1.3007
  963MOL0     H30004   5.639   3.621  11.452 -2.5811  2.3894  0.0618
  963MOL0     H30005   5.428   3.683  11.346  0.2627 -0.5923 -1.2682
  964MOL0     O30006   7.790   3.187   3.777  0.0043  0.0072  0.0605
  964MOL0     C30007   7.854   3.122   3.686  0.7184  0.4668 -1.2415
  964MOL0     O30008   7.807   3.019   3.608  0.9584 -0.5844  0.4698
  964MOL0     C30009   7.680   2.969   3.637  0.7700  0.5079 -0.1633
  964MOL0     C30010   7.583   2.956   3.535 -0.1567 -0.9499  0.2110
  964MOL0     C30011   7.448   2.934   3.561 -0.5515 -1.2641 -0.9342
  964MOL0     C30012   7.410   2.913   3.693  0.8049 -0.4484 -0.2470
  964MOL0     O30013   7.275   2.907   3.729 -0.5553 -0.5499 -0.2294
  964MOL0     C30014   7.179   2.873   3.630  0.2022  1.0141  0.0042
  964MOL0     C30015   7.056   2.818   3.707 -0.1518  0.4910  0.5525
  964MOL0     C30016   6.975   2.934   3.757  0.4834 -0.9042 -0.4368
  964MOL0     C30017   6.838   2.888   3.805 -0.2911  0.3391 -0.4499
  964MOL0     C30018   6.774   2.989   3.892  0.7277  0.4399 -0.0473
  964MOL0     C30019   6.832   2.973   4.029 -0.3278 -0.2211  0.1121
  964MOL0     C30020   6.748   3.064   4.125 -0.5193  0.0101  0.6313
  964MOL0     C30021   6.833   3.108   4.236  0.2205  0.1885  0.7840
  964MOL0     N30022   6.762   3.183   4.333  0.5013  0.6542  0.4240
  964MOL0     C30023   6.710   3.306   4.304  0.0771  0.7803 -0.0687
  964MOL0     C30024   6.669   3.346   4.430  0.5513 -0.0937  0.3144
  964MOL0     C30025   6.614   3.471   4.481 -0.5261 -0.1722 -0.0027
  964MOL0     C30026   6.459   3.476   4.444 -0.3308 -0.9698  0.5356
  964MOL0     C30027   6.368   3.376   4.514 -0.0300 -0.3349 -0.0679
  964MOL0     C30028   6.264   3.323   4.421 -0.2110  0.3861  0.1244
  964MOL0     O30029   6.170   3.423   4.381  0.6237 -0.3536 -0.2320
  964MOL0     C30030   6.049   3.440   4.449 -0.5576  0.5200 -0.6820
  964MOL0     C30031   5.966   3.537   4.403  0.1671  0.5035  0.0277
  964MOL0     C30032   5.840   3.573   4.461 -0.0251  0.3256  0.4692
  964MOL0     C30033   5.752   3.677   4.383 -0.4957 -0.0693 -0.6031
  964MOL0     C30034   5.795   3.498   4.575 -1.1994  0.3148  0.3612
  964MOL0     C30035   5.665   3.526   4.646  0.4948  0.3438  0.3168
  964MOL0     O30036   5.565   3.579   4.572  0.1130  0.1038  0.8226
  964MOL0     C30037   5.440   3.595   4.619 -0.2194 -1.4076  0.7018
  964MOL0     C30038   5.374   3.537   4.727 -0.9305  0.3469  0.2035
  964MOL0     C30039   5.237   3.557   4.750 -0.2354  0.1490  0.3703
  964MOL0     C30040   5.162   3.643   4.667 -0.4997  0.2743  0.3036
  964MOL0     O30041   5.023   3.650   4.694  0.1142  0.4516  0.0331
  964MOL0     C30042   4.944   3.589   4.594 -0.9781 -1.4655  0.2396
  964MOL0     C30043   4.798   3.629   4.623 -0.0253 -0.2647  0.0056
  964MOL0     C30044   4.700   3.538   4.558 -0.1793  0.0356 -0.2646
  964MOL0     C30045   4.566   3.602   4.585  0.8914  0.1415 -0.1155
  964MOL0     C30046   4.446   3.526   4.523 -0.3916  0.1534 -0.0695
  964MOL0     C30047   4.444   3.534   4.374 -0.0868 -0.4690  0.5283
  964MOL0     C30048   4.311   3.477   4.317  0.5473 -0.6048 -0.3456
  964MOL0     C30049   4.295   3.457   4.167 -1.5194 -0.2332 -0.8949
  964MOL0    Cl30050   4.122   3.447   4.124  0.1052  0.3582 -0.3009
  964MOL0     C30051   5.234   3.712   4.570  0.4970  0.5807  0.3015
  964MOL0     C30052   5.367   3.684   4.540  1.0119  0.1131 -0.1279
  964MOL0     O30053   5.658   3.488   4.761  0.0774  0.4090  0.7516
  964MOL0     C30054   5.887   3.399   4.621  0.3056 -0.1369 -0.3112
  964MOL0     C30055   6.008   3.380   4.566 -0.2293  0.5453  0.1992
  964MOL0     N30056   6.685   3.242   4.517 -0.3364  0.1712 -0.3709
  964MOL0     N30057   6.738   3.142   4.456  0.1750 -0.9633 -0.3986
  964MOL0     C30058   7.503   2.913   3.798 -0.8084  0.2210  0.2494
  964MOL0     C30059   7.641   2.943   3.769 -0.6281  0.4991 -0.6570
  964MOL0     C30060   7.983   3.176   3.656 -0.7041 -0.5596 -0.6348
  964MOL0     C30061   8.050   3.178   3.533 -0.1584  0.7974  0.3813
  964MOL0     C30062   8.174   3.226   3.513 -0.4946 -0.7137  1.0310
  964MOL0     C30063   8.247   3.286   3.617 -0.3552 -0.5038  0.2445
  964MOL0     O30064   8.372   3.336   3.591  1.0940 -0.7003  1.2062
  964MOL0     C30065   8.420   3.439   3.676  0.8282  0.1037  0.4737
  964MOL0     C30066   8.527   3.524   3.608 -0.1541  0.1059  0.7050
  964MOL0     C30067   8.459   3.622   3.500  0.0420  0.5070  0.2648
  964MOL0     C30068   8.563   3.722   3.449 -0.0880  0.6463 -0.7667
  964MOL0     C30069   8.492   3.824   3.373 -0.0269 -1.1571 -0.0526
  964MOL0     C30070   8.439   3.914   3.306  1.1464  0.4805 -0.2171
  964MOL0     C30071   8.181   3.303   3.737 -1.0990  0.5222 -0.1314
  964MOL0     C30072   8.057   3.240   3.762  0.2388 -0.2173  0.2257
  964MOL0     H30073   7.621   2.971   3.434 -0.2126 -1.6899  0.0727
  964MOL0     H30074   7.377   2.935   3.479 -2.5690 -1.5337  0.7474
  964MOL0     H30075   7.156   2.961   3.571  0.7373  0.5507 -0.9194
  964MOL0     H30076   7.223   2.792   3.571  0.7391  1.6289 -0.4539
  964MOL0     H30077   6.996   2.758   3.639 -0.8876  1.4120  0.3611
  964MOL0     H30078   7.079   2.754   3.793 -2.2278  2.8050  3.0361
  964MOL0     H30079   7.030   2.985   3.837 -0.4969  1.2586 -1.0525
  964MOL0     H30080   6.952   3.014   3.686 -1.8680 -0.4558  0.7374
  964MOL0     H30081   6.772   2.883   3.718  1.7857  1.9200 -2.2270
  964MOL0     H30082   6.834   2.799   3.868 -0.3880  0.9495  0.4241
  964MOL0     H30083   6.797   3.085   3.845 -0.9022  0.3038 -1.1780
  964MOL0     H30084   6.667   2.971   3.903  0.4251  2.4429  0.7840
  964MOL0     H30085   6.838   2.870   4.065 -1.8811 -0.4142 -0.1077
  964MOL0     H30086   6.938   3.002   4.025 -0.3293 -0.3064 -0.6341
  964MOL0     H30087   6.718   3.156   4.075  3.0870 -0.1324 -2.2379
  964MOL0     H30088   6.658   3.011   4.157  1.4698 -4.7098 -0.7562
  964MOL0     H30089   6.919   3.163   4.195 -0.0330  0.5777  0.7725
  964MOL0     H30090   6.874   3.022   4.290  0.8369  1.3703  2.2724
  964MOL0     H30091   6.713   3.370   4.217  1.2316  1.5692  0.5360
  964MOL0     H30092   6.630   3.473   4.589  0.0991 -1.4937 -0.0503
  964MOL0     H30093   6.680   3.543   4.429  1.3575 -1.7130  0.1365
  964MOL0     H30094   6.465   3.467   4.336 -0.3812  2.8795  0.0813
  964MOL0     H30095   6.428   3.577   4.472  0.0705 -0.2468 -1.5179
  964MOL0     H30096   6.318   3.428   4.596  4.1117  0.3810  2.2342
  964MOL0     H30097   6.418   3.290   4.560 -2.6570 -1.7183  0.4486
  964MOL0     H30098   6.218   3.237   4.470  1.0923 -0.6384 -0.3783
  964MOL0     H30099   6.327   3.282   4.341 -1.0652  0.7770 -0.7746
  964MOL0     H30100   5.994   3.582   4.309  2.1156  1.4895  1.0269
  964MOL0     H30101   5.693   3.750   4.439  2.9997  0.9976  2.0104
  964MOL0     H30102   5.823   3.742   4.332  0.8259 -1.3322 -0.4618
  964MOL0     H30103   5.681   3.624   4.318 -1.4228 -0.7913  0.9394
  964MOL0     H30104   5.426   3.491   4.811 -0.3095  1.0923  0.2414
  964MOL0     H30105   5.190   3.524   4.842  2.5075  0.3761  1.9956
  964MOL0     H30106   4.968   3.642   4.501  0.2512 -1.6735  0.4275
  964MOL0     H30107   4.966   3.482   4.591  1.8019 -1.0055 -3.7582
  964MOL0     H30108   4.790   3.622   4.732  2.7725  3.6420  0.6909
  964MOL0     H30109   4.780   3.733   4.594 -1.6677 -0.5641 -0.1266
  964MOL0     H30110   4.702   3.441   4.608 -2.0731  0.9655  1.8033
  964MOL0     H30111   4.725   3.529   4.452  0.2402 -1.5123 -0.0579
  964MOL0     H30112   4.566   3.605   4.694  2.3588 -1.2641 -0.0504
  964MOL0     H30113   4.556   3.701   4.540  0.5204 -0.0974 -0.5692
  964MOL0     H30114   4.351   3.565   4.562  1.4101  3.4759  1.3463
  964MOL0     H30115   4.449   3.418   4.542 -0.6587 -0.1717 -1.7228
  964MOL0     H30116   4.450   3.640   4.346 -0.7505 -1.1952 -2.8724
  964MOL0     H30117   4.523   3.482   4.320  1.5734  3.8887 -1.8017
  964MOL0     H30118   4.228   3.537   4.356  1.0839 -1.0321  1.5994
  964MOL0     H30119   4.289   3.376   4.354 -1.1568 -0.6378 -1.3827
  964MOL0     H30120   4.349   3.366   4.138 -0.7317 -0.3916  0.9064
  964MOL0     H30121   4.344   3.544   4.123  1.1414 -1.8309 -1.2644
  964MOL0     H30122   5.184   3.774   4.495  1.0012  1.6165  0.7986
  964MOL0     H30123   5.429   3.717   4.458  1.9823 -0.8752  0.1857
  964MOL0     H30124   5.870   3.335   4.707  4.0009  3.4674  3.6136
  964MOL0     H30125   6.061   3.304   4.624 -2.1041 -1.6001 -0.7331
  964MOL0     H30126   7.494   2.899   3.905  0.6947 -1.8449  0.1526
  964MOL0     H30127   7.718   2.951   3.845  0.1181  1.9126 -1.5232
  964MOL0     H30128   7.998   3.131   3.450  1.0244 -3.0427  1.6118
  964MOL0     H30129   8.213   3.209   3.413 -1.3819 -3.3501  1.0501
  964MOL0     H30130   8.339   3.506   3.705  0.2462  1.4505 -3.6302
  964MOL0     H30131   8.462   3.386   3.762  2.4836  2.1906  1.0372
  964MOL0     H30132   8.603   3.461   3.562 -1.0394  1.4681 -2.9429
  964MOL0     H30133   8.592   3.571   3.683  2.5989 -0.6520 -1.1009
  964MOL0     H30134   8.374   3.674   3.545 -0.7361 -1.1034  0.7490
  964MOL0     H30135   8.421   3.555   3.422 -2.4894  2.1090  0.0372
  964MOL0     H30136   8.629   3.666   3.383  0.0883 -2.9175  2.1136
  964MOL0     H30137   8.620   3.756   3.537  2.7057 -1.7698 -1.4728
  964MOL0     H30138   8.397   3.997   3.253  2.7275 -0.1446 -2.6096
  964MOL0     H30139   8.229   3.349   3.823  0.8217 -0.3878 -0.6452
  964MOL0     H30140   8.016   3.253   3.862 -0.0171 -1.8379  0.3484
  965MOL0     O30141   4.337  10.104   6.910 -0.0687 -0.2693  0.2125
  965MOL0     C30142   4.413  10.125   6.816  0.2857 -0.1653  1.0327
  965MOL0     O30143   4.458  10.248   6.779  0.0730 -0.8034  0.4195
  965MOL0     C30144   4.426  10.352   6.863  0.0753  0.6008  0.0445
  965MOL0     C30145   4.354  10.459   6.817  0.1936  0.2441 -0.8133
  965MOL0     C30146   4.331  10.575   6.900 -0.0857  0.4653 -0.7201
  965MOL0     C30147   4.362  10.569   7.036  0.4850  0.1573  1.0980
  965MOL0     O30148   4.314  10.675   7.108 -0.4912  0.6362  0.1819
  965MOL0     C30149   4.309  10.678   7.249  0.4455 -0.0690 -1.0880
  965MOL0     C30150   4.250  10.810   7.304 -0.0987  0.0197  0.5069
  965MOL0     C30151   4.124  10.840   7.218 -0.6310  0.0818 -0.1463
  965MOL0     C30152   4.166  10.940   7.111  0.4784 -0.1577 -0.1669
  965MOL0     C30153   4.044  10.995   7.029 -0.2308 -0.7183 -0.1567
  965MOL0     C30154   4.086  11.121   6.949 -0.9095 -0.2745 -0.3027
  965MOL0     C30155   3.956  11.189   6.906  0.1592 -0.0114 -0.2732
  965MOL0     C30156   3.991  11.308   6.809  0.3254 -0.3653 -0.9885
  965MOL0     N30157   4.018  11.433   6.882 -0.2327  0.6381  0.0842
  965MOL0     C30158   3.923  11.519   6.921  0.2190  0.9557  0.6097
  965MOL0     C30159   3.986  11.639   6.923  0.1006 -0.7151  0.3075
  965MOL0     C30160   3.925  11.781   6.949 -0.9336  0.4616  0.5839
  965MOL0     C30161   3.800  11.821   6.874  0.1309 -0.6807  0.0769
  965MOL0     C30162   3.812  11.794   6.726  0.4494 -0.0191 -0.6165
  965MOL0     C30163   3.670  11.815   6.664 -1.2841  1.4200  0.3619
  965MOL0     O30164   3.623  11.949   6.663 -0.1261  0.7412 -0.1832
  965MOL0     C30165   3.511  11.985   6.728 -0.5498  0.4104 -0.3397
  965MOL0     C30166   3.454  12.101   6.691 -0.0700  0.4936 -0.4585
  965MOL0     C30167   3.342  12.160   6.759  0.2419 -0.0136  0.3846
  965MOL0     C30168   3.282  12.276   6.689  0.1870 -0.6269 -0.7497
  965MOL0     C30169   3.291  12.100   6.877  0.2835  1.8289 -0.4582
  965MOL0     C30170   3.183  12.148   6.970 -0.3547 -0.1839  1.0019
  965MOL0     O30171   3.178  12.286   6.982  0.5885  0.5363 -0.4938
  965MOL0     C30172   3.098  12.354   7.070  0.1409 -0.0819 -0.1052
  965MOL0     C30173   3.034  12.474   7.023 -0.1174 -0.2261  0.5905
  965MOL0     C30174   2.968  12.547   7.112  0.6277  0.2867 -1.4554
  965MOL0     C30175   2.939  12.505   7.245 -0.2950 -0.5107 -1.3056
  965MOL0     O30176   2.859  12.579   7.315 -0.0138 -1.0559  0.0877
  965MOL0     C30177   2.761  12.514   7.389 -0.1944  0.9781  0.6902
  965MOL0     C30178   2.636  12.592   7.398  0.5054  0.4337 -0.2105
  965MOL0     C30179   2.581  12.604   7.258 -0.7385  0.6227  0.2834
  965MOL0     C30180   2.463  12.706   7.265 -0.7270  0.7304  0.4557
  965MOL0     C30181   2.388  12.731   7.133 -0.6032  0.4744  0.1658
  965MOL0     C30182   2.289  12.845   7.160  0.0475 -0.1995  0.1783
  965MOL0     C30183   2.249  12.919   7.033 -0.9994  0.3435 -0.4065
  965MOL0     C30184   2.178  13.053   7.063 -0.1135  0.2376 -0.4975
  965MOL0    Cl30185   2.009  13.035   7.107 -0.0389  0.3338 -0.3504
  965MOL0     C30186   2.998  12.388   7.299  0.6806 -0.6009  0.5893
  965MOL0     C30187   3.077  12.313   7.207 -0.0262 -0.2918  0.8888
  965MOL0     O30188   3.105  12.062   7.028  0.0259  0.1710 -0.2789
  965MOL0     C30189   3.349  11.980   6.916 -0.1234 -0.5251 -0.1741
  965MOL0     C30190   3.441  11.918   6.834  0.0422  0.0770  0.7994
  965MOL0     N30191   4.123  11.614   6.886 -0.7727  0.5236  0.2683
  965MOL0     N30192   4.132  11.488   6.857  0.6224 -0.1934 -0.6453
  965MOL0     C30193   4.428  10.462   7.081  0.4404  0.1847 -0.0327
  965MOL0     C30194   4.458  10.356   6.997 -0.6143 -0.1861  0.3260
  965MOL0     C30195   4.443  10.013   6.725 -0.2588  0.4461 -0.6473
  965MOL0     C30196   4.511  10.028   6.603  0.8827 -0.3063 -0.0387
  965MOL0     C30197   4.531   9.925   6.522 -0.7518  0.2296 -0.1796
  965MOL0     C30198   4.506   9.791   6.551  0.3664 -0.0743  0.8237
  965MOL0     O30199   4.556   9.701   6.462  0.1029 -0.7590 -0.0473
  965MOL0     C30200   4.701   9.714   6.456  0.7070 -1.0281 -0.5394
  965MOL0     C30201   4.747   9.571   6.438  1.1282  0.3339  0.5405
  965MOL0     C30202   4.696   9.476   6.546 -0.1864 -0.5528 -0.6073
  965MOL0     C30203   4.619   9.366   6.485 -0.2615 -0.3201 -0.6297
  965MOL0     C30204   4.712   9.265   6.453  0.1081 -0.2963  0.2771
  965MOL0     C30205   4.796   9.184   6.418  0.6338  0.6441  0.3667
  965MOL0     C30206   4.440   9.768   6.671 -0.4485  0.3725  0.8027
  965MOL0     C30207   4.405   9.878   6.751 -0.1627 -0.2121 -0.7317
  965MOL0     H30208   4.328  10.453   6.712 -0.5578 -0.1922 -0.6134
  965MOL0     H30209   4.277  10.662   6.864 -2.9554 -1.0466 -0.3652
  965MOL0     H30210   4.248  10.597   7.288 -2.1319  0.8100 -3.0448
  965MOL0     H30211   4.413  10.682   7.285  0.2295  1.3646 -0.5594
  965MOL0     H30212   4.222  10.791   7.409 -0.1784  1.6148  0.8032
  965MOL0     H30213   4.324  10.890   7.301  1.3898 -1.3540 -0.6000
  965MOL0     H30214   4.080  10.756   7.163 -0.8947  1.8515 -2.8371
  965MOL0     H30215   4.043  10.877   7.281 -3.1320 -2.5464 -1.5812
  965MOL0     H30216   4.216  11.028   7.153  1.3723 -0.3362 -0.8289
  965MOL0     H30217   4.247  10.896   7.054  1.2176 -0.1896  0.8874
  965MOL0     H30218   4.013  10.921   6.954  0.1994  0.6764 -1.7996
  965MOL0     H30219   3.958  11.020   7.091  1.5544  1.8261  1.5067
  965MOL0     H30220   4.136  11.187   7.021 -0.8374 -0.7863  0.1268
  965MOL0     H30221   4.153  11.106   6.864  1.4971  2.9378  0.8033
  965MOL0     H30222   3.891  11.114   6.860 -1.7091  1.5428 -0.2972
  965MOL0     H30223   3.907  11.231   6.994  0.3156  0.5534 -0.4456
  965MOL0     H30224   3.914  11.313   6.731 -0.0688 -1.6381 -0.6934
  965MOL0     H30225   4.081  11.281   6.753  1.1098  0.8737 -0.3773
  965MOL0     H30226   3.820  11.490   6.940  0.2204 -0.8116 -1.7560
  965MOL0     H30227   3.911  11.805   7.054 -1.9514  1.6913  0.1984
  965MOL0     H30228   3.997  11.852   6.909 -2.2819  2.1356  1.0065
  965MOL0     H30229   3.786  11.928   6.897 -0.0981 -0.6045 -0.4059
  965MOL0     H30230   3.711  11.775   6.918  0.1150  1.5916  2.6899
  965MOL0     H30231   3.846  11.690   6.714 -1.2647 -0.3516 -3.4673
  965MOL0     H30232   3.876  11.859   6.664 -2.6024  1.5801 -2.3219
  965MOL0     H30233   3.593  11.749   6.708 -1.4585  1.1644 -0.3158
  965MOL0     H30234   3.680  11.779   6.562  2.3252  2.2741  0.2810
  965MOL0     H30235   3.501  12.140   6.601  2.6187 -0.0941  0.5931
  965MOL0     H30236   3.270  12.366   6.750 -1.3245 -2.7328  2.3774
  965MOL0     H30237   3.315  12.301   6.588  0.4010  0.5951 -0.3859
  965MOL0     H30238   3.178  12.245   6.672 -1.0458  2.2348  0.8521
  965MOL0     H30239   3.043  12.505   6.919  0.4022 -1.2582  0.3092
  965MOL0     H30240   2.913  12.638   7.088 -1.3559 -0.2997  0.5079
  965MOL0     H30241   2.734  12.419   7.343  3.1604 -0.8741  2.1427
  965MOL0     H30242   2.805  12.485   7.485  3.2113  0.4424 -0.8708
  965MOL0     H30243   2.564  12.540   7.462 -0.2451  0.6579 -0.8584
  965MOL0     H30244   2.662  12.688   7.443 -0.6177  0.5063  0.3037
  965MOL0     H30245   2.558  12.515   7.199  1.3708  2.2728 -3.3358
  965MOL0     H30246   2.658  12.639   7.189  1.5342 -2.9748  0.7014
  965MOL0     H30247   2.390  12.661   7.333 -0.2425  1.2108  1.3118
  965MOL0     H30248   2.509  12.792   7.315  3.6139 -1.6082  0.9816
  965MOL0     H30249   2.330  12.648   7.092 -1.3397  0.2350  1.6029
  965MOL0     H30250   2.456  12.765   7.055 -0.2125  2.0267  1.1440
  965MOL0     H30251   2.189  12.811   7.188 -0.0498 -0.7882 -0.8364
  965MOL0     H30252   2.329  12.908   7.240  0.6639 -0.7887  0.3468
  965MOL0     H30253   2.188  12.848   6.976  0.9749 -1.6703 -0.1266
  965MOL0     H30254   2.334  12.933   6.965 -2.7413  1.7983 -2.4455
  965MOL0     H30255   2.195  13.115   6.975 -2.2957  1.9374  0.1931
  965MOL0     H30256   2.225  13.110   7.144 -0.3900  2.8595 -2.0675
  965MOL0     H30257   2.985  12.350   7.400 -1.0207 -1.5187  0.0702
  965MOL0     H30258   3.117  12.213   7.221  2.3874  0.6891  1.6701
  965MOL0     H30259   3.328  11.932   7.011 -0.3797  0.9273  0.5273
  965MOL0     H30260   3.485  11.824   6.865 -0.0494  0.3664  1.8331
  965MOL0     H30261   4.453  10.464   7.186 -0.4019 -0.4867  0.1907
  965MOL0     H30262   4.519  10.275   7.034 -0.1424 -0.5489 -1.1801
  965MOL0     H30263   4.552  10.125   6.577  1.4883 -0.3382  0.7512
  965MOL0     H30264   4.584   9.950   6.430  0.5230  3.6605  1.3092
  965MOL0     H30265   4.736   9.769   6.368 -0.5500  0.2319 -0.3007
  965MOL0     H30266   4.750   9.753   6.547 -0.4156  0.1041 -0.3801
  965MOL0     H30267   4.856   9.558   6.447  1.5506  1.3414 -2.2013
  965MOL0     H30268   4.722   9.537   6.337  0.9034 -1.2741  1.1068
  965MOL0     H30269   4.631   9.529   6.616  1.1151 -2.1090  1.9143
  965MOL0     H30270   4.786   9.450   6.602 -0.2975 -1.0451 -0.6503
  965MOL0     H30271   4.561   9.391   6.395  1.3010  0.3491 -1.4838
  965MOL0     H30272   4.546   9.317   6.552  2.2119  0.8095  3.2185
  965MOL0     H30273   4.875   9.120   6.385  1.1753 -0.0456  2.8035
  965MOL0     H30274   4.429   9.667   6.708  0.2340 -0.3427 -0.8467
  965MOL0     H30275   4.356   9.854   6.845 -1.8623 -3.4975 -2.3014
  966MOL0     O30276   5.965   1.014  11.243 -0.7780  0.2041 -0.3294
  966MOL0     C30277   6.058   0.941  11.266  0.1985  0.3819 -0.7855
  966MOL0     O30278   6.044   0.819  11.331  0.1537 -0.9206 -0.0843
  966MOL0     C30279   5.929   0.785  11.403  0.5314  0.3499 -0.2805
  966MOL0     C30280   5.882   0.653  11.375 -0.7372 -1.1442  0.0873
  966MOL0     C30281   5.762   0.609  11.430  0.0251 -0.0949 -0.8662
  966MOL0     C30282   5.695   0.685  11.521  0.2626 -0.8684 -0.9171
  966MOL0     O30283   5.574   0.630  11.584  0.1150 -0.7144  0.1186
  966MOL0     C30284   5.573   0.658  11.726  0.5925  0.2571  0.6113
  966MOL0     C30285   5.459   0.573  11.787  0.4386 -0.1258 -0.7008
  966MOL0     C30286   5.327   0.572  11.711  0.3856  0.4607 -0.0046
  966MOL0     C30287   5.204   0.496  11.777 -0.2611  0.1918 -0.0904
  966MOL0     C30288   5.119   0.585  11.866  0.4051  0.2082 -0.0358
  966MOL0     C30289   5.015   0.531  11.959  0.5508 -0.8953  1.1291
  966MOL0     C30290   4.900   0.447  11.900  0.2525  0.5699  0.7051
  966MOL0     C30291   4.779   0.539  11.843 -0.1494  0.4527  0.1280
  966MOL0     N30292   4.718   0.607  11.953  0.1115 -0.4553 -0.2060
  966MOL0     C30293   4.692   0.739  11.976 -0.1338  0.6074 -0.9605
  966MOL0     C30294   4.610   0.748  12.084 -0.5426  0.7228  0.0263
  966MOL0     C30295   4.563   0.874  12.137  0.4398 -0.3064  0.9848
  966MOL0     C30296   4.417   0.909  12.079 -0.0855  0.6699  0.6027
  966MOL0     C30297   4.303   0.806  12.084 -0.1886  0.4852 -0.3677
  966MOL0     C30298   4.173   0.868  12.138 -0.0296  0.5811  0.1869
  966MOL0     O30299   4.079   0.770  12.175 -0.3486  0.0654 -0.4504
  966MOL0     C30300   3.989   0.803  12.279  0.2176  1.2694 -0.5253
  966MOL0     C30301   3.910   0.703  12.335  0.8684 -0.8965 -0.6011
  966MOL0     C30302   3.813   0.723  12.435 -0.6710  0.2675 -0.1783
  966MOL0     C30303   3.720   0.604  12.462  0.4100  0.6760 -0.5927
  966MOL0     C30304   3.813   0.849  12.511  1.0242  0.0533  0.7088
  966MOL0     C30305   3.714   0.886  12.619  0.8558  0.8739  0.5558
  966MOL0     O30306   3.698   1.024  12.645  0.6936 -0.0527 -0.3049
  966MOL0     C30307   3.588   1.061  12.721 -0.3355 -0.4765 -0.4892
  966MOL0     C30308   3.475   1.124  12.657  0.1763 -0.5049 -0.5158
  966MOL0     C30309   3.374   1.166  12.729  0.0960 -0.3065  0.0756
  966MOL0     C30310   3.375   1.160  12.864 -0.0401  0.4003  0.8896
  966MOL0     O30311   3.272   1.228  12.926 -0.1176  0.5174  0.5190
  966MOL0     C30312   3.293   1.251  13.066  0.9852 -0.6266 -0.3097
  966MOL0     C30313   3.156   1.288  13.114  0.1486  1.1979 -0.7470
  966MOL0     C30314   3.142   1.275  13.271 -0.4201  0.4544 -0.1759
  966MOL0     C30315   3.205   1.402  13.330  0.2677 -0.4794 -0.5290
  966MOL0     C30316   3.204   1.422  13.482  0.5485  0.3918  0.2880
  966MOL0     C30317   3.065   1.480  13.524 -0.2821  1.3632 -0.3558
  966MOL0     C30318   3.071   1.500  13.680 -0.0010  0.0603  0.7222
  966MOL0     C30319   2.944   1.571  13.736  0.6646 -0.5513 -0.1185
  966MOL0    Cl30320   2.809   1.470  13.681 -0.5055  0.4473  0.3958
  966MOL0     C30321   3.491   1.106  12.932 -0.1147  0.4928 -0.4276
  966MOL0     C30322   3.590   1.055  12.859 -0.4726  1.0790 -0.0967
  966MOL0     O30323   3.647   0.798  12.678  0.3832 -0.6356  0.7684
  966MOL0     C30324   3.888   0.948  12.456 -0.0340  0.1038  0.1801
  966MOL0     C30325   3.973   0.935  12.347  0.1714  0.3304 -0.9898
  966MOL0     N30326   4.592   0.620  12.132  0.7324 -0.3052 -0.4534
  966MOL0     N30327   4.644   0.543  12.050 -0.2230  0.0843 -0.0978
  966MOL0     C30328   5.748   0.815  11.561  0.3423 -0.2984 -0.8821
  966MOL0     C30329   5.864   0.864  11.498 -0.6491 -0.9034  0.0719
  966MOL0     C30330   6.192   0.985  11.223  0.4097 -0.4794  0.8330
  966MOL0     C30331   6.304   0.900  11.246  0.2961 -0.2914 -0.2436
  966MOL0     C30332   6.430   0.950  11.211  0.1245 -0.7328  0.8777
  966MOL0     C30333   6.436   1.068  11.141  0.8442 -0.5046  1.0494
  966MOL0     O30334   6.563   1.110  11.107  0.6931  0.0372  0.0340
  966MOL0     C30335   6.612   1.243  11.155 -0.0565 -0.1441  0.2527
  966MOL0     C30336   6.757   1.243  11.098  0.8489 -0.6112 -0.3243
  966MOL0     C30337   6.864   1.133  11.156 -0.2443 -0.1671  0.0549
  966MOL0     C30338   6.902   1.171  11.302 -0.2196  0.1543  0.0320
  966MOL0     C30339   6.819   1.101  11.408 -1.1829  0.6205 -0.1439
  966MOL0     C30340   6.743   1.042  11.490  0.4884  1.0544  0.8506
  966MOL0     C30341   6.328   1.150  11.113 -1.4001  0.9767  0.1371
  966MOL0     C30342   6.205   1.113  11.159  0.7907 -0.0915  0.4431
  966MOL0     H30343   5.946   0.595  11.310  1.8603 -0.0620  1.5355
  966MOL0     H30344   5.721   0.509  11.419  0.1052 -1.0594  4.6701
  966MOL0     H30345   5.672   0.633  11.764  1.5073  1.3381 -0.9555
  966MOL0     H30346   5.545   0.764  11.732  3.9056  1.3077 -0.2738
  966MOL0     H30347   5.497   0.471  11.789  5.4745  1.3463  3.6320
  966MOL0     H30348   5.455   0.610  11.890 -1.5902  2.6184 -1.6498
  966MOL0     H30349   5.309   0.677  11.685 -3.3243  0.2458  1.1797
  966MOL0     H30350   5.352   0.523  11.616  1.2996  0.0312  0.4450
  966MOL0     H30351   5.146   0.443  11.701 -2.6923 -0.2007  1.8996
  966MOL0     H30352   5.249   0.414  11.834  1.9058 -0.5232 -2.6329
  966MOL0     H30353   5.188   0.644  11.927  0.5190  0.7093 -0.6454
  966MOL0     H30354   5.062   0.652  11.801 -0.0223 -0.3536 -0.2526
  966MOL0     H30355   5.063   0.462  12.028  4.0970  0.9051  0.6725
  966MOL0     H30356   4.962   0.603  12.023 -2.0573 -1.1207 -0.5955
  966MOL0     H30357   4.923   0.386  11.812  2.5940  0.2019  1.5274
  966MOL0     H30358   4.868   0.384  11.983  2.5321 -0.7454  0.6642
  966MOL0     H30359   4.704   0.476  11.795  1.8792 -0.9170 -1.4144
  966MOL0     H30360   4.818   0.605  11.765  0.2292  1.2849  0.9999
  966MOL0     H30361   4.723   0.828  11.921  2.1401 -0.8579 -2.1789
  966MOL0     H30362   4.545   0.869  12.245  1.9673  1.0111  1.3501
  966MOL0     H30363   4.649   0.941  12.122 -0.7554  0.8535 -1.0140
  966MOL0     H30364   4.431   0.929  11.972  1.8616 -1.0269  0.4556
  966MOL0     H30365   4.391   1.007  12.120  0.0087  0.1510  1.9590
  966MOL0     H30366   4.322   0.725  12.155 -2.4657  0.1639 -0.0477
  966MOL0     H30367   4.295   0.750  11.990  1.5710 -0.7626  0.1578
  966MOL0     H30368   4.130   0.947  12.077  0.6543  2.3265  1.8696
  966MOL0     H30369   4.198   0.908  12.237  0.0320 -2.5789  1.5828
  966MOL0     H30370   3.907   0.602  12.296 -1.2523 -1.6001  1.1851
  966MOL0     H30371   3.616   0.635  12.457 -0.0608 -0.2324  2.1132
  966MOL0     H30372   3.741   0.516  12.401 -1.1036  0.0285 -0.2130
  966MOL0     H30373   3.736   0.578  12.567 -0.0941  1.1900 -0.3863
  966MOL0     H30374   3.483   1.125  12.549  2.4370 -0.0348 -0.3870
  966MOL0     H30375   3.282   1.196  12.679  1.3969  1.3712 -1.4392
  966MOL0     H30376   3.328   1.165  13.124 -0.1227  0.4379  2.0958
  966MOL0     H30377   3.358   1.338  13.078 -0.3813  0.1139  2.7632
  966MOL0     H30378   3.118   1.382  13.074 -0.6410  0.3471 -2.0580
  966MOL0     H30379   3.090   1.214  13.068 -0.5987  1.4533 -0.1052
  966MOL0     H30380   3.197   1.187  13.306  0.3165  0.4373 -1.2946
  966MOL0     H30381   3.041   1.251  13.304 -0.3951 -1.6597 -1.4202
  966MOL0     H30382   3.309   1.386  13.300 -0.1319  0.0321 -2.3148
  966MOL0     H30383   3.172   1.497  13.287  0.9133  0.6754  1.3817
  966MOL0     H30384   3.280   1.493  13.517 -0.1483  0.4969  1.6491
  966MOL0     H30385   3.221   1.326  13.533  3.4558  0.7012  0.0795
  966MOL0     H30386   3.039   1.574  13.475  3.1205  2.6445  0.0518
  966MOL0     H30387   2.988   1.406  13.501  2.2572 -1.1916 -1.2958
  966MOL0     H30388   3.152   1.568  13.711 -1.4568  0.5662  3.8184
  966MOL0     H30389   3.079   1.400  13.723 -1.2308 -0.4080 -0.0980
  966MOL0     H30390   2.936   1.673  13.695 -0.0209  0.6146  2.6833
  966MOL0     H30391   2.941   1.582  13.845  3.1399 -6.6757  0.9886
  966MOL0     H30392   3.502   1.118  13.039 -0.4932  0.6621 -0.4056
  966MOL0     H30393   3.670   1.000  12.906 -1.3381 -0.7492 -0.6833
  966MOL0     H30394   3.882   1.051  12.492 -0.0370  1.1510 -2.5507
  966MOL0     H30395   4.026   1.026  12.319 -4.4091  3.1085 -1.6720
  966MOL0     H30396   5.719   0.886  11.638  0.3371 -1.8756  0.6326
  966MOL0     H30397   5.910   0.958  11.527 -0.4705 -1.3495  1.2959
  966MOL0     H30398   6.283   0.803  11.289  0.6742 -0.0629  0.4645
  966MOL0     H30399   6.520   0.889  11.213 -1.1053 -3.0279 -3.0598
  966MOL0     H30400   6.559   1.321  11.098 -0.7692 -1.7564 -1.3937
  966MOL0     H30401   6.613   1.259  11.263 -3.8527 -1.0763  0.5891
  966MOL0     H30402   6.799   1.343  11.109  1.9006 -0.9899 -0.7828
  966MOL0     H30403   6.734   1.213  10.995 -1.6041 -0.8113  0.2094
  966MOL0     H30404   6.961   1.122  11.106  1.0931 -2.5047  2.8291
  966MOL0     H30405   6.825   1.031  11.155  2.4813 -1.3025 -1.3815
  966MOL0     H30406   6.911   1.279  11.311  3.2382  0.2423 -2.4490
  966MOL0     H30407   6.999   1.122  11.313 -0.5991 -0.7609 -0.5292
  966MOL0     H30408   6.682   0.982  11.555 -1.3098  1.1523 -0.6406
  966MOL0     H30409   6.349   1.240  11.055  0.0997 -0.6556 -2.0230
  966MOL0     H30410   6.132   1.190  11.140 -0.9028 -1.8837 -0.7100
  967MOL0     O30411   0.562   7.671   7.826  0.7380 -0.4737  0.3789
  967MOL0     C30412   0.590   7.714   7.940 -0.2616 -0.3128 -0.5109
  967MOL0     O30413   0.718   7.697   8.001  0.2319 -0.2698  0.2958
  967MOL0     C30414   0.817   7.630   7.934  0.6636 -0.3436 -0.0318
  967MOL0     C30415   0.872   7.508   7.981 -0.0178  0.5772 -0.7808
  967MOL0     C30416   0.968   7.441   7.913 -0.6638 -0.2870  0.4561
  967MOL0     C30417   1.018   7.492   7.791 -0.1761  0.5907  0.7740
  967MOL0     O30418   1.108   7.410   7.729 -0.0686  0.2746 -0.4223
  967MOL0     C30419   1.247   7.441   7.754 -0.8808  0.3844 -0.9928
  967MOL0     C30420   1.290   7.562   7.674 -0.7162 -0.8070 -1.3935
  967MOL0     C30421   1.271   7.532   7.521 -0.2896 -0.2142  0.0659
  967MOL0     C30422   1.327   7.647   7.443 -1.0603  0.0533 -0.3002
  967MOL0     C30423   1.333   7.611   7.295 -0.0100 -0.6440 -1.0359
  967MOL0     C30424   1.398   7.715   7.209  0.3900  0.0998 -0.8884
  967MOL0     C30425   1.398   7.665   7.062  0.5421  0.2775 -0.2185
  967MOL0     C30426   1.271   7.675   6.983 -0.2179 -0.3088  0.2030
  967MOL0     N30427   1.268   7.650   6.843 -0.6226 -0.3457  0.5966
  967MOL0     C30428   1.354   7.561   6.767  0.2589  0.4769 -0.1479
  967MOL0     C30429   1.313   7.566   6.641 -0.2881  0.4102  0.2992
  967MOL0     C30430   1.373   7.476   6.532  0.7953 -0.2823 -0.7119
  967MOL0     C30431   1.444   7.557   6.429  0.0353  0.1375  1.1614
  967MOL0     C30432   1.346   7.618   6.319 -0.5293  0.9181  0.7870
  967MOL0     C30433   1.404   7.695   6.210  0.3238  1.4092 -0.3534
  967MOL0     O30434   1.501   7.626   6.124  0.4885 -0.0045  0.1824
  967MOL0     C30435   1.625   7.674   6.128 -0.3661  0.2166 -0.6143
  967MOL0     C30436   1.650   7.805   6.089  0.5701 -0.5403 -0.2242
  967MOL0     C30437   1.781   7.857   6.061  0.2835  0.0013  0.1427
  967MOL0     C30438   1.781   7.990   5.994 -0.1519  0.0341 -0.2207
  967MOL0     C30439   1.897   7.779   6.086  0.1401 -0.2521 -0.4069
  967MOL0     C30440   2.029   7.825   6.077 -0.4536  0.7753 -0.2673
  967MOL0     O30441   2.102   7.784   6.193  0.3564  0.2871  0.8891
  967MOL0     C30442   2.243   7.764   6.180  0.2618 -0.5840  0.2366
  967MOL0     C30443   2.309   7.764   6.059  0.5969  0.4804 -0.2046
  967MOL0     C30444   2.452   7.744   6.060  0.7775 -0.9374 -0.4029
  967MOL0     C30445   2.517   7.739   6.183  0.1185  0.1383 -0.2649
  967MOL0     O30446   2.654   7.723   6.190 -0.2264 -0.0888 -0.4023
  967MOL0     C30447   2.739   7.797   6.099 -0.6324  0.6976 -0.1253
  967MOL0     C30448   2.883   7.776   6.143 -0.1112 -0.4185  0.0306
  967MOL0     C30449   3.001   7.835   6.059  0.8780 -0.9900 -0.2245
  967MOL0     C30450   2.997   7.783   5.926 -0.0104  0.8871 -0.5004
  967MOL0     C30451   3.134   7.795   5.856 -0.5945 -0.4147 -0.8469
  967MOL0     C30452   3.135   7.694   5.737  0.5683 -0.7511  0.1307
  967MOL0     C30453   3.260   7.721   5.642 -0.5046 -0.9149  0.1178
  967MOL0     C30454   3.275   7.608   5.543  0.1230 -0.3507  0.1156
  967MOL0    Cl30455   3.329   7.453   5.603  0.5724 -0.1208 -0.2278
  967MOL0     C30456   2.442   7.746   6.306 -0.5051  0.3367 -0.3829
  967MOL0     C30457   2.307   7.750   6.296 -0.2215 -0.1721 -0.3712
  967MOL0     O30458   2.068   7.907   5.989  0.5864 -0.0988 -0.8008
  967MOL0     C30459   1.871   7.642   6.115  0.3222 -0.6186  0.7223
  967MOL0     C30460   1.742   7.596   6.149 -0.4804  0.0296 -0.4097
  967MOL0     N30461   1.214   7.660   6.639 -0.2553  0.8556  0.5328
  967MOL0     N30462   1.191   7.710   6.754  1.3073 -0.6965 -0.4086
  967MOL0     C30463   0.957   7.614   7.744 -0.1508 -0.4882  0.3701
  967MOL0     C30464   0.865   7.691   7.821 -0.0090  0.4894 -0.1220
  967MOL0     C30465   0.491   7.774   8.030 -0.2015  0.0211  0.8666
  967MOL0     C30466   0.353   7.796   7.971 -1.1467  0.0094 -0.0072
  967MOL0     C30467   0.253   7.849   8.050  0.4465  0.2499 -0.4220
  967MOL0     C30468   0.282   7.879   8.186  0.4839  1.6682  0.0116
  967MOL0     O30469   0.188   7.932   8.265 -0.3117  0.9048  0.0126
  967MOL0     C30470   0.191   8.071   8.238 -0.3006  0.1243 -0.6066
  967MOL0     C30471   0.073   8.141   8.299 -0.4704  0.3549  0.3750
  967MOL0     C30472  -0.059   8.087   8.265 -0.1216  0.4076 -0.2090
  967MOL0     C30473  -0.165   8.199   8.271  1.0708  0.4304  0.8435
  967MOL0     C30474  -0.297   8.143   8.224 -0.6665  0.3137  0.1185
  967MOL0     C30475  -0.403   8.086   8.191 -0.2263 -0.4158 -1.0010
  967MOL0     C30476   0.409   7.847   8.243 -0.3762 -0.5527  1.2576
  967MOL0     C30477   0.505   7.803   8.163 -0.5945  0.6702  0.3337
  967MOL0     H30478   0.825   7.466   8.070 -0.0775 -0.4044 -1.2625
  967MOL0     H30479   1.013   7.353   7.958 -1.0579 -0.1842  1.0689
  967MOL0     H30480   1.277   7.456   7.858  3.0128  2.3963 -2.2123
  967MOL0     H30481   1.312   7.358   7.726 -2.0274 -0.3521 -1.5583
  967MOL0     H30482   1.218   7.642   7.696  0.4433  0.1332 -0.9389
  967MOL0     H30483   1.388   7.589   7.714 -1.4953  0.9789 -0.5515
  967MOL0     H30484   1.338   7.448   7.499 -0.4155 -0.4547  0.5877
  967MOL0     H30485   1.171   7.515   7.482 -1.0805 -0.2274  2.0062
  967MOL0     H30486   1.265   7.736   7.456 -1.0456 -0.1586  1.5179
  967MOL0     H30487   1.431   7.658   7.477 -0.7700  0.0555 -1.1748
  967MOL0     H30488   1.388   7.518   7.277 -0.6726 -1.1876 -0.3336
  967MOL0     H30489   1.231   7.594   7.258  0.5512 -1.0616 -2.4426
  967MOL0     H30490   1.338   7.807   7.215  0.6158  0.3061 -1.5948
  967MOL0     H30491   1.495   7.733   7.256  1.5355 -0.7290 -2.8083
  967MOL0     H30492   1.462   7.739   7.015  2.0351 -0.4977  0.5210
  967MOL0     H30493   1.459   7.574   7.058  1.2232  0.4680  3.0656
  967MOL0     H30494   1.240   7.779   6.993 -0.4687  0.0054 -2.8570
  967MOL0     H30495   1.186   7.621   7.027 -1.2254  3.1125  2.8949
  967MOL0     H30496   1.433   7.494   6.800 -0.6055 -0.6847 -0.3850
  967MOL0     H30497   1.442   7.402   6.575  2.3146 -0.0281 -2.5375
  967MOL0     H30498   1.289   7.427   6.483 -1.8211  0.4466  2.7183
  967MOL0     H30499   1.517   7.495   6.376  1.1037  1.8687  0.5143
  967MOL0     H30500   1.505   7.626   6.489  0.0026 -2.0191  3.8513
  967MOL0     H30501   1.278   7.681   6.377 -1.4457 -0.6779  1.5105
  967MOL0     H30502   1.290   7.537   6.273  0.8609 -1.5918  3.1873
  967MOL0     H30503   1.454   7.783   6.251  0.9732  0.5006  0.8836
  967MOL0     H30504   1.321   7.731   6.149 -1.0523 -0.9199  0.0470
  967MOL0     H30505   1.564   7.870   6.077  1.9114  1.0125 -2.2287
  967MOL0     H30506   1.843   7.989   5.903  0.4598  3.0635  0.0674
  967MOL0     H30507   1.679   8.014   5.963 -0.7115 -0.4275  1.1923
  967MOL0     H30508   1.813   8.072   6.058  1.7370 -1.9632  1.5443
  967MOL0     H30509   2.264   7.763   5.960 -2.1930  1.6075  0.9433
  967MOL0     H30510   2.519   7.740   5.975 -0.1207  0.0474 -1.1802
  967MOL0     H30511   2.735   7.763   5.995  0.8639 -3.1094  0.8847
  967MOL0     H30512   2.709   7.902   6.102 -0.9878  0.5804  1.3112
  967MOL0     H30513   2.890   7.837   6.234 -1.2097  1.9227 -1.3775
  967MOL0     H30514   2.898   7.670   6.167 -0.1022 -0.4156  0.0392
  967MOL0     H30515   3.096   7.802   6.103  2.2759  2.2938 -0.4804
  967MOL0     H30516   2.986   7.942   6.046 -1.5183 -1.0736  1.3712
  967MOL0     H30517   2.984   7.677   5.949  1.2287  0.3171 -2.2759
  967MOL0     H30518   2.913   7.831   5.875 -0.9599  1.5140  1.5334
  967MOL0     H30519   3.219   7.779   5.923  0.2693 -1.7472 -2.1996
  967MOL0     H30520   3.155   7.891   5.807 -0.3274 -0.5949 -1.0871
  967MOL0     H30521   3.152   7.591   5.771  0.2342 -0.7099  0.4244
  967MOL0     H30522   3.046   7.710   5.676 -1.1713 -1.3717  2.3622
  967MOL0     H30523   3.358   7.728   5.690  1.5316 -1.9578 -3.4410
  967MOL0     H30524   3.256   7.815   5.586 -2.6806 -0.5731  0.7702
  967MOL0     H30525   3.350   7.629   5.466 -0.2984 -1.0364 -0.5005
  967MOL0     H30526   3.178   7.604   5.492 -0.3342 -0.5984  0.9805
  967MOL0     H30527   2.487   7.747   6.405  1.0872 -0.1806 -1.0821
  967MOL0     H30528   2.253   7.752   6.391 -0.3802  1.5953 -0.4590
  967MOL0     H30529   1.949   7.567   6.127 -0.1309 -1.4481 -1.2197
  967MOL0     H30530   1.727   7.493   6.179  0.6584 -0.0434 -0.0743
  967MOL0     H30531   0.978   7.645   7.642  0.5957 -1.9914  0.0505
  967MOL0     H30532   0.811   7.781   7.796 -0.5279 -0.0542 -0.9988
  967MOL0     H30533   0.325   7.784   7.867  0.8134 -2.0063 -0.3908
  967MOL0     H30534   0.149   7.863   8.025 -0.5179  2.0868  3.6797
  967MOL0     H30535   0.282   8.113   8.282  0.3169 -1.6286 -0.1258
  967MOL0     H30536   0.197   8.085   8.130  3.4938 -1.5864 -0.7694
  967MOL0     H30537   0.089   8.244   8.263  0.4783 -0.0680 -0.4437
  967MOL0     H30538   0.088   8.146   8.407 -1.2294 -1.2720  0.5752
  967MOL0     H30539  -0.088   8.012   8.339  1.0879  0.4946  0.3836
  967MOL0     H30540  -0.063   8.044   8.165  0.3231  3.1598 -1.5201
  967MOL0     H30541  -0.132   8.285   8.212  3.1769 -1.9693 -1.8037
  967MOL0     H30542  -0.183   8.225   8.376  1.2708  0.3328  0.9028
  967MOL0     H30543  -0.493   8.037   8.161 -1.6130  1.0687  0.5113
  967MOL0     H30544   0.423   7.862   8.349 -2.0172 -0.9829  1.5630
  967MOL0     H30545   0.603   7.783   8.206  0.5844 -0.9298 -2.7065
  968MOL0     O30546   4.197   5.459   0.159 -0.3656  0.0258  0.3570
  968MOL0     C30547   4.141   5.490   0.262 -0.1848  0.3782 -0.5391
  968MOL0     O30548   4.112   5.405   0.375 -0.2486 -0.2344  0.2396
  968MOL0     C30549   4.138   5.271   0.349 -0.2159  0.7932 -0.7530
  968MOL0     C30550   4.038   5.183   0.297 -0.2046 -0.0648 -0.3189
  968MOL0     C30551   4.055   5.045   0.280  0.1690 -0.9114  0.8109
  968MOL0     C30552   4.173   4.988   0.337  0.0259 -0.1854  0.1081
  968MOL0     O30553   4.178   4.852   0.314 -0.9154 -0.0967 -0.2390
  968MOL0     C30554   4.292   4.792   0.379  0.2692 -0.7340 -0.1519
  968MOL0     C30555   4.276   4.641   0.391 -0.5992 -0.2018 -0.5319
  968MOL0     C30556   4.272   4.563   0.260 -0.0992  0.2471  0.1487
  968MOL0     C30557   4.398   4.565   0.170 -0.2358  0.0256 -0.3455
  968MOL0     C30558   4.376   4.459   0.063  0.1542  0.4459 -0.1227
  968MOL0     C30559   4.485   4.473  -0.061 -0.4673  0.3437 -0.1310
  968MOL0     C30560   4.588   4.360  -0.038 -0.3140 -0.3121 -0.3769
  968MOL0     C30561   4.711   4.362  -0.122 -0.1892  0.4766 -0.0592
  968MOL0     N30562   4.776   4.493  -0.132 -0.9872  0.5799  0.2683
  968MOL0     C30563   4.811   4.571  -0.025  0.5931  0.4046  0.3351
  968MOL0     C30564   4.887   4.674  -0.079 -0.7390  0.2344  0.1177
  968MOL0     C30565   4.974   4.769  -0.005  0.1519 -0.5067  0.0849
  968MOL0     C30566   5.119   4.736  -0.044 -0.3900 -0.1760 -0.2159
  968MOL0     C30567   5.222   4.810   0.042 -0.2511 -0.2116  0.0393
  968MOL0     C30568   5.365   4.777   0.012  0.4200 -0.4859 -0.0265
  968MOL0     O30569   5.392   4.636   0.041 -1.1635 -0.8874 -0.4406
  968MOL0     C30570   5.513   4.587   0.009 -0.1843 -0.5066  0.0417
  968MOL0     C30571   5.630   4.655  -0.019  0.7700  0.3414  0.4113
  968MOL0     C30572   5.760   4.609  -0.042  0.2833  0.2428 -0.0664
  968MOL0     C30573   5.873   4.714  -0.070  0.4209 -0.1035 -0.0550
  968MOL0     C30574   5.775   4.470  -0.045 -0.1059  0.4271 -0.3943
  968MOL0     C30575   5.907   4.405  -0.051  0.7962 -0.0191 -0.0263
  968MOL0     O30576   6.013   4.486  -0.076 -0.2841 -0.4450  0.0920
  968MOL0     C30577   6.146   4.446  -0.060  0.0333 -0.7703  0.1392
  968MOL0     C30578   6.212   4.360  -0.137 -0.1475 -0.7760  0.1710
  968MOL0     C30579   6.345   4.320  -0.107  0.1069 -0.0135  0.3398
  968MOL0     C30580   6.403   4.361   0.015 -0.3847 -0.4802  1.0078
  968MOL0     O30581   6.517   4.306   0.065  0.3550 -0.2693  0.3289
  968MOL0     C30582   6.610   4.247  -0.029  0.2967  0.0706  0.7546
  968MOL0     C30583   6.756   4.249   0.024 -0.2107 -1.1463  0.0452
  968MOL0     C30584   6.856   4.240  -0.088  0.4507  0.4628 -0.3718
  968MOL0     C30585   7.005   4.217  -0.033  0.1297  0.4170  0.3769
  968MOL0     C30586   7.101   4.158  -0.141 -0.3390  0.4339  0.7011
  968MOL0     C30587   7.245   4.130  -0.087 -0.7296 -0.1524  0.4593
  968MOL0     C30588   7.298   4.267  -0.031 -0.4851 -0.5038 -0.2228
  968MOL0     C30589   7.451   4.279  -0.034  1.0347 -0.2482  0.2462
  968MOL0    Cl30590   7.511   4.454  -0.045 -0.0753  0.1261 -0.1400
  968MOL0     C30591   6.338   4.456   0.095 -0.8278  0.2603  1.0986
  968MOL0     C30592   6.210   4.494   0.057 -0.0483 -0.0278 -0.2628
  968MOL0     O30593   5.910   4.285  -0.030  0.1010  0.9317 -0.0292
  968MOL0     C30594   5.657   4.388  -0.021 -0.3566  0.0521 -0.3986
  968MOL0     C30595   5.533   4.446   0.014 -0.1899 -0.5197 -0.1681
  968MOL0     N30596   4.877   4.664  -0.216 -1.1193  0.1362  0.2779
  968MOL0     N30597   4.813   4.556  -0.253  0.1007  0.2797 -0.3966
  968MOL0     C30598   4.267   5.070   0.404 -0.0762 -0.2678  0.2193
  968MOL0     C30599   4.259   5.208   0.392  0.1841 -0.3577 -0.3505
  968MOL0     C30600   4.122   5.633   0.290 -0.9919  0.5697 -0.1507
  968MOL0     C30601   4.183   5.733   0.217 -0.0713  0.9089  0.1734
  968MOL0     C30602   4.160   5.871   0.245  0.4188 -0.0669  0.4558
  968MOL0     C30603   4.064   5.903   0.339  0.1650  0.0036  0.1146
  968MOL0     O30604   4.034   6.037   0.368  0.1290  0.7879 -0.1081
  968MOL0     C30605   3.894   6.066   0.336  0.5651  0.0815 -0.2019
  968MOL0     C30606   3.822   6.108   0.468  0.3927 -0.4628  0.9344
  968MOL0     C30607   3.876   6.242   0.500  0.2096 -0.7941  0.2807
  968MOL0     C30608   3.820   6.291   0.640  0.5399  0.6532 -0.1413
  968MOL0     C30609   3.899   6.402   0.688 -0.4742  0.2301  1.2292
  968MOL0     C30610   3.987   6.483   0.710  0.3765 -0.2677  0.5413
  968MOL0     C30611   3.998   5.797   0.409 -0.2405 -0.8366 -0.1542
  968MOL0     C30612   4.032   5.667   0.392  0.2966 -0.9426 -0.1670
  968MOL0     H30613   3.938   5.205   0.261 -1.4878 -0.2596  2.7500
  968MOL0     H30614   3.976   4.990   0.230  1.5211 -2.3784  0.2151
  968MOL0     H30615   4.383   4.811   0.321 -0.5698  1.0451 -0.9757
  968MOL0     H30616   4.305   4.832   0.480 -0.9915  0.1896 -0.3329
  968MOL0     H30617   4.363   4.607   0.449  0.2969  0.8107 -1.2548
  968MOL0     H30618   4.184   4.616   0.444 -0.6430 -0.6459 -0.8138
  968MOL0     H30619   4.240   4.461   0.286 -0.3762  0.0306 -0.9945
  968MOL0     H30620   4.183   4.595   0.205 -1.4154 -0.6680  1.6436
  968MOL0     H30621   4.417   4.663   0.127  0.7813  0.8115  1.7745
  968MOL0     H30622   4.494   4.540   0.216 -0.9440 -2.3236 -0.0071
  968MOL0     H30623   4.373   4.361   0.113  2.4894  0.7811  0.8216
  968MOL0     H30624   4.279   4.492   0.025  0.4752  3.6589  1.4909
  968MOL0     H30625   4.443   4.450  -0.159 -1.3788  0.3958  0.2375
  968MOL0     H30626   4.531   4.572  -0.054 -3.0225  1.5927 -0.0603
  968MOL0     H30627   4.618   4.353   0.067 -1.9029  0.6530  0.1853
  968MOL0     H30628   4.548   4.261  -0.060 -1.3844 -1.0047  3.8533
  968MOL0     H30629   4.680   4.327  -0.221 -0.6282 -1.3491  0.6669
  968MOL0     H30630   4.780   4.296  -0.069  1.7430  0.6867 -2.1824
  968MOL0     H30631   4.790   4.556   0.080 -2.9117 -0.0226 -0.2910
  968MOL0     H30632   4.950   4.869  -0.043 -2.1738 -1.5700 -1.4775
  968MOL0     H30633   4.951   4.770   0.102 -1.6466  0.4708 -0.2598
  968MOL0     H30634   5.149   4.777  -0.141  1.3438 -0.5529  0.1314
  968MOL0     H30635   5.137   4.628  -0.046  2.0317  0.1906 -1.4959
  968MOL0     H30636   5.217   4.784   0.148 -1.8918  1.6137  0.4565
  968MOL0     H30637   5.207   4.918   0.031  1.1201 -0.2373 -3.7394
  968MOL0     H30638   5.434   4.844   0.065  2.0298 -0.9429 -1.4660
  968MOL0     H30639   5.380   4.795  -0.094  0.1959 -0.6511 -0.0853
  968MOL0     H30640   5.615   4.762  -0.016  0.9194  0.3689  0.2162
  968MOL0     H30641   5.830   4.812  -0.092  1.6022  1.1972  2.8877
  968MOL0     H30642   5.940   4.710   0.016 -1.0714 -3.2100  1.1228
  968MOL0     H30643   5.928   4.686  -0.160  2.0118  0.1126  0.8237
  968MOL0     H30644   6.152   4.308  -0.211 -2.9229  1.1684  0.8808
  968MOL0     H30645   6.407   4.259  -0.171  3.1407  0.8884  2.2370
  968MOL0     H30646   6.585   4.144  -0.056  1.3271  0.3005 -1.3342
  968MOL0     H30647   6.609   4.307  -0.121 -1.0855  0.0391  0.7216
  968MOL0     H30648   6.757   4.355   0.054 -0.5702 -0.9072 -0.7616
  968MOL0     H30649   6.768   4.191   0.116 -3.7803  0.0916  1.4969
  968MOL0     H30650   6.847   4.326  -0.155 -1.0948  1.2540  0.7942
  968MOL0     H30651   6.832   4.151  -0.147  3.9964  0.8849 -2.7761
  968MOL0     H30652   7.049   4.312  -0.003 -1.0322  0.6290  1.4834
  968MOL0     H30653   7.009   4.146   0.051  3.0480  1.9304  1.6595
  968MOL0     H30654   7.105   4.234  -0.220 -3.8997  0.1366  0.0818
  968MOL0     H30655   7.068   4.069  -0.196 -1.6262  1.9273 -1.0866
  968MOL0     H30656   7.240   4.057  -0.006 -1.6614 -0.7872 -0.1389
  968MOL0     H30657   7.308   4.098  -0.170 -2.7750 -3.2926 -0.0560
  968MOL0     H30658   7.251   4.282   0.067 -2.2211 -3.2434 -0.5430
  968MOL0     H30659   7.270   4.346  -0.101  2.7569  0.2027 -0.8730
  968MOL0     H30660   7.486   4.238  -0.129  0.6092  2.4100 -1.1517
  968MOL0     H30661   7.497   4.225   0.050 -1.0316  0.9185  2.2383
  968MOL0     H30662   6.384   4.479   0.191  2.9510 -0.1025 -0.4631
  968MOL0     H30663   6.157   4.564   0.120 -1.8055 -1.3621 -0.2002
  968MOL0     H30664   5.654   4.280  -0.032 -0.8876 -0.1311  1.2802
  968MOL0     H30665   5.443   4.386   0.026  0.5791 -1.9459 -1.1972
  968MOL0     H30666   4.359   5.035   0.447  0.1285 -0.0938 -0.0722
  968MOL0     H30667   4.340   5.265   0.438  1.6509  0.0839 -3.2728
  968MOL0     H30668   4.246   5.698   0.136 -2.2515 -0.1492 -1.1602
  968MOL0     H30669   4.205   5.955   0.194 -0.4850 -0.1564 -0.5380
  968MOL0     H30670   3.881   6.139   0.256 -0.1976 -0.6528 -0.7710
  968MOL0     H30671   3.836   5.984   0.292 -0.0232  0.3824 -0.0072
  968MOL0     H30672   3.846   6.037   0.548  0.4890  0.6911  1.9672
  968MOL0     H30673   3.713   6.112   0.470  0.3784 -0.5313  0.4618
  968MOL0     H30674   3.833   6.315   0.430 -1.3315 -1.9728 -0.0506
  968MOL0     H30675   3.984   6.232   0.513  0.3860 -1.1442 -1.2127
  968MOL0     H30676   3.825   6.213   0.718 -0.0998  0.2057 -0.5351
  968MOL0     H30677   3.719   6.330   0.629  0.2625  1.0606  2.9517
  968MOL0     H30678   4.059   6.563   0.707 -0.1990  0.2824  1.2456
  968MOL0     H30679   3.929   5.834   0.485 -0.8430 -2.3755  0.0999
  968MOL0     H30680   3.975   5.586   0.438  2.1449 -1.7746  0.7448
  969MOL0     O30681   3.282   4.580   7.565 -0.0500  0.5378 -0.4697
  969MOL0     C30682   3.379   4.611   7.507 -0.1044 -0.5214  0.5905
  969MOL0     O30683   3.385   4.672   7.374  0.0577  0.0227 -0.3839
  969MOL0     C30684   3.267   4.717   7.311  0.2400  1.0942  0.0436
  969MOL0     C30685   3.135   4.681   7.347  1.4939 -0.2628 -0.7860
  969MOL0     C30686   3.023   4.735   7.278 -0.2389  0.5029 -0.0323
  969MOL0     C30687   3.044   4.820   7.166 -0.5935  0.3778 -0.5701
  969MOL0     O30688   2.932   4.854   7.099  0.3859 -0.2834 -1.0248
  969MOL0     C30689   2.930   4.990   7.066 -0.5602  0.1537  0.0841
  969MOL0     C30690   2.782   5.032   7.098 -0.6015 -0.6057  0.2820
  969MOL0     C30691   2.746   5.045   7.250  0.2880  0.0038  0.5617
  969MOL0     C30692   2.646   5.151   7.294 -1.1652  0.8180  0.1403
  969MOL0     C30693   2.621   5.161   7.443 -0.2207 -0.3956  0.8999
  969MOL0     C30694   2.504   5.261   7.473  0.0704 -0.6121  0.1773
  969MOL0     C30695   2.555   5.406   7.483 -0.2525  0.3060  0.4983
  969MOL0     C30696   2.448   5.512   7.518  0.6976  0.3909 -0.3021
  969MOL0     N30697   2.344   5.538   7.415 -0.0829  0.1413 -0.4621
  969MOL0     C30698   2.212   5.483   7.410 -0.2406 -0.3253  0.0520
  969MOL0     C30699   2.168   5.521   7.293  0.6664 -0.0463 -0.5207
  969MOL0     C30700   2.033   5.489   7.224  0.7635  0.5743 -0.0814
  969MOL0     C30701   2.010   5.342   7.198 -0.6076  1.6586 -0.5075
  969MOL0     C30702   2.079   5.292   7.068 -0.8777  0.2610 -0.1785
  969MOL0     C30703   2.217   5.352   7.042 -0.2741 -0.4561 -0.5626
  969MOL0     O30704   2.275   5.286   6.928  0.5745 -0.2766 -0.3593
  969MOL0     C30705   2.414   5.300   6.911  1.1918  0.1571  0.2298
  969MOL0     C30706   2.502   5.383   6.985  1.2811  0.5459 -0.4177
  969MOL0     C30707   2.636   5.391   6.969 -0.4639 -0.1174 -0.3941
  969MOL0     C30708   2.703   5.488   7.066 -0.2851 -0.3905 -0.2797
  969MOL0     C30709   2.697   5.321   6.863 -0.3785  0.1298  0.4610
  969MOL0     C30710   2.840   5.331   6.816 -0.0728 -0.6415  0.3899
  969MOL0     O30711   2.906   5.451   6.829 -0.6428 -0.6227  0.4961
  969MOL0     C30712   3.033   5.472   6.778  0.8006 -0.7163 -0.2614
  969MOL0     C30713   3.095   5.599   6.793 -0.0536  0.2236 -0.1308
  969MOL0     C30714   3.223   5.622   6.751 -0.6440 -0.0818 -0.1154
  969MOL0     C30715   3.303   5.524   6.688 -0.0222 -0.2014 -0.1568
  969MOL0     O30716   3.433   5.537   6.636 -0.1083  0.2217 -0.3259
  969MOL0     C30717   3.486   5.669   6.641 -0.1811 -1.0373 -0.0422
  969MOL0     C30718   3.631   5.652   6.597  0.3049 -0.4626  0.5203
  969MOL0     C30719   3.708   5.780   6.593  0.6963  0.4585  0.3235
  969MOL0     C30720   3.848   5.742   6.614 -1.0535  0.2993 -0.1153
  969MOL0     C30721   3.914   5.876   6.643  1.0511  0.1980 -0.5186
  969MOL0     C30722   4.061   5.876   6.647 -1.2547 -0.3288  0.3609
  969MOL0     C30723   4.109   6.027   6.665 -0.0321 -0.0935 -0.1633
  969MOL0     C30724   4.079   6.091   6.804 -0.1590 -0.3684  0.7519
  969MOL0    Cl30725   4.182   6.238   6.832  0.0675  0.5203  0.3979
  969MOL0     C30726   3.237   5.407   6.661 -0.0184  0.4521  0.9304
  969MOL0     C30727   3.107   5.384   6.700 -0.2980 -0.5913 -0.0982
  969MOL0     O30728   2.888   5.226   6.771 -0.0590  0.0080  0.6658
  969MOL0     C30729   2.622   5.241   6.784  0.4442 -0.5320 -0.3860
  969MOL0     C30730   2.482   5.225   6.805 -0.0451 -0.0534 -0.2593
  969MOL0     N30731   2.253   5.611   7.238  0.3617 -0.5840 -0.6201
  969MOL0     N30732   2.350   5.636   7.324  0.1402 -0.4682 -0.0602
  969MOL0     C30733   3.180   4.857   7.134  0.0369  0.4295  0.7644
  969MOL0     C30734   3.284   4.808   7.209 -0.2533  0.3555  0.2819
  969MOL0     C30735   3.500   4.589   7.575  0.5175  0.1271  0.6950
  969MOL0     C30736   3.542   4.454   7.619  0.1579 -0.0910 -0.3329
  969MOL0     C30737   3.665   4.434   7.665 -0.3342 -0.8152  0.6470
  969MOL0     C30738   3.757   4.528   7.660 -0.3236 -0.1086 -0.2919
  969MOL0     O30739   3.880   4.516   7.710 -0.4681 -0.2660  0.0352
  969MOL0     C30740   3.923   4.414   7.802  0.2247  0.2934  0.7117
  969MOL0     C30741   4.045   4.456   7.886 -0.0677  0.6984 -0.2324
  969MOL0     C30742   4.171   4.465   7.809  0.0305  0.2780 -0.2452
  969MOL0     C30743   4.281   4.539   7.890  0.3250 -0.3433  0.4722
  969MOL0     C30744   4.333   4.488   8.015  0.0054  0.4218  0.1188
  969MOL0     C30745   4.385   4.467   8.125 -0.0861 -0.4459  0.3075
  969MOL0     C30746   3.726   4.661   7.607 -0.2007  0.5589  0.4942
  969MOL0     C30747   3.594   4.691   7.576 -0.2556  0.6311  0.3546
  969MOL0     H30748   3.116   4.604   7.421  3.2475  0.0255  0.0304
  969MOL0     H30749   2.925   4.697   7.305  0.2375  0.3481  1.6311
  969MOL0     H30750   2.994   5.055   7.126 -0.4421  1.1520 -1.0616
  969MOL0     H30751   2.952   5.003   6.959  2.9731  0.2805  0.7021
  969MOL0     H30752   2.767   5.130   7.051 -1.2816 -1.7083 -1.9131
  969MOL0     H30753   2.707   4.969   7.050 -0.7769 -0.2496  0.0875
  969MOL0     H30754   2.707   4.949   7.285  0.2349  0.5789  2.1165
  969MOL0     H30755   2.843   5.076   7.288  0.5733  0.7788 -0.7159
  969MOL0     H30756   2.677   5.250   7.262  0.4286 -0.1736 -1.5629
  969MOL0     H30757   2.552   5.135   7.241 -0.2944  2.6186 -2.0805
  969MOL0     H30758   2.588   5.062   7.475  0.4931 -2.0928 -3.0256
  969MOL0     H30759   2.710   5.187   7.501 -0.7326 -0.2626  1.6331
  969MOL0     H30760   2.419   5.252   7.405 -1.6188  1.8853  1.7777
  969MOL0     H30761   2.476   5.234   7.575  2.7788 -0.0576  1.1594
  969MOL0     H30762   2.640   5.414   7.551  1.8190  0.6321 -1.9586
  969MOL0     H30763   2.578   5.435   7.380 -2.2886 -0.7164 -0.3126
  969MOL0     H30764   2.482   5.613   7.541 -1.9328  1.2648  0.1102
  969MOL0     H30765   2.409   5.467   7.610 -2.0460  0.3581 -1.3764
  969MOL0     H30766   2.172   5.408   7.477 -0.8398  0.4282  0.5687
  969MOL0     H30767   1.956   5.526   7.293  1.7736  2.0230  0.3218
  969MOL0     H30768   2.022   5.556   7.138  0.9452  1.5429  0.6314
  969MOL0     H30769   1.907   5.308   7.191 -0.3472  0.7247  0.0015
  969MOL0     H30770   2.052   5.285   7.281 -3.1068  0.9805  0.3771
  969MOL0     H30771   2.004   5.302   6.989 -2.4553 -2.9262  0.7310
  969MOL0     H30772   2.087   5.183   7.069 -0.3875  0.2524 -1.9923
  969MOL0     H30773   2.283   5.334   7.128 -0.7576  2.0561  0.4134
  969MOL0     H30774   2.211   5.459   7.018 -1.6130  0.0314  1.6494
  969MOL0     H30775   2.447   5.452   7.048 -1.4648 -0.5270 -1.4973
  969MOL0     H30776   2.808   5.462   7.076 -0.3259 -2.0110 -3.0054
  969MOL0     H30777   2.707   5.592   7.030 -2.0233 -0.0349  0.4478
  969MOL0     H30778   2.655   5.482   7.164  1.2233  1.0885  0.6045
  969MOL0     H30779   3.036   5.675   6.843  0.1700 -0.4654  1.2601
  969MOL0     H30780   3.268   5.720   6.766 -0.8347  0.0800 -0.5788
  969MOL0     H30781   3.438   5.739   6.573  1.7570  0.7808  0.3521
  969MOL0     H30782   3.484   5.698   6.746 -0.5318  1.3138 -0.6535
  969MOL0     H30783   3.674   5.582   6.670  4.0411  0.9858 -0.0397
  969MOL0     H30784   3.631   5.601   6.500  2.8220 -0.3062  0.3718
  969MOL0     H30785   3.676   5.845   6.675 -0.5205  0.5816 -0.2283
  969MOL0     H30786   3.692   5.833   6.499 -0.0893 -0.6889 -0.2148
  969MOL0     H30787   3.876   5.672   6.694 -2.7297 -0.9575 -0.5809
  969MOL0     H30788   3.882   5.707   6.517  0.1826 -0.0829  0.4328
  969MOL0     H30789   3.885   5.923   6.737  1.8707 -0.6750  0.1901
  969MOL0     H30790   3.887   5.946   6.563 -0.3109  0.0200 -0.2388
  969MOL0     H30791   4.108   5.834   6.737  0.7862  3.3930  1.2093
  969MOL0     H30792   4.100   5.823   6.560 -1.3307 -0.2346  0.2693
  969MOL0     H30793   4.085   6.093   6.581  1.7947 -1.9773 -2.3293
  969MOL0     H30794   4.217   6.008   6.662 -0.2141 -1.2972  0.3240
  969MOL0     H30795   4.107   6.017   6.879 -1.3279  0.7452  2.3563
  969MOL0     H30796   3.972   6.113   6.804  0.1842  1.5553 -0.3826
  969MOL0     H30797   3.294   5.342   6.595 -1.1490 -0.3466  0.7281
  969MOL0     H30798   3.076   5.290   6.658 -1.3652 -0.4596  0.3630
  969MOL0     H30799   2.659   5.172   6.710 -0.0415 -0.4403 -0.7190
  969MOL0     H30800   2.425   5.158   6.742  0.2163 -0.4423 -0.0791
  969MOL0     H30801   3.191   4.916   7.043 -0.7173 -0.2526  0.2074
  969MOL0     H30802   3.390   4.828   7.194 -0.4086 -0.4660 -2.3798
  969MOL0     H30803   3.471   4.371   7.621 -0.0865 -0.0301  3.9264
  969MOL0     H30804   3.695   4.339   7.708  0.2437 -0.6444  0.6205
  969MOL0     H30805   3.834   4.395   7.861 -1.5492  1.6548 -1.3627
  969MOL0     H30806   3.951   4.322   7.750  0.4996  0.0192  1.3338
  969MOL0     H30807   4.057   4.382   7.965 -1.5169  3.3688  2.7237
  969MOL0     H30808   4.015   4.543   7.945  1.3035  0.2350  1.2298
  969MOL0     H30809   4.155   4.520   7.716  2.9610  0.0084 -1.0076
  969MOL0     H30810   4.203   4.361   7.798  0.3933  0.3974 -0.3268
  969MOL0     H30811   4.235   4.637   7.901  1.1478  0.1056 -0.0273
  969MOL0     H30812   4.370   4.546   7.828  0.9155  0.0878  1.3538
  969MOL0     H30813   4.441   4.460   8.217 -1.0962  0.8847  1.0666
  969MOL0     H30814   3.803   4.737   7.619  1.4919 -1.3855  3.0458
  969MOL0     H30815   3.572   4.787   7.529 -0.9450  0.4048  0.1957
  970MOL0     O30816   6.779   7.773   6.069 -0.5948 -0.7735 -0.0288
  970MOL0     C30817   6.828   7.832   6.165  0.7729 -0.3589 -0.4331
  970MOL0     O30818   6.825   7.966   6.189  0.3529 -0.2581 -0.1868
  970MOL0     C30819   6.757   8.041   6.101 -0.1086 -0.9100  0.6171
  970MOL0     C30820   6.651   8.125   6.146  0.1443  0.0133 -0.0467
  970MOL0     C30821   6.593   8.216   6.062 -0.4281  0.2960  0.2920
  970MOL0     C30822   6.646   8.245   5.932  0.4351 -0.1249  0.4429
  970MOL0     O30823   6.587   8.350   5.875 -0.4251  0.5244 -0.4563
  970MOL0     C30824   6.642   8.382   5.740 -0.0959  0.5982  0.2640
  970MOL0     C30825   6.579   8.514   5.707 -0.4476  0.8039 -0.7465
  970MOL0     C30826   6.624   8.586   5.573  0.4010  0.3255  0.3976
  970MOL0     C30827   6.503   8.665   5.511 -0.8186 -0.5603 -0.1053
  970MOL0     C30828   6.529   8.707   5.367 -0.8203 -0.6271 -0.5373
  970MOL0     C30829   6.416   8.798   5.304  0.5225 -1.3453  0.0730
  970MOL0     C30830   6.432   8.836   5.160 -1.1671 -0.9957  0.0328
  970MOL0     C30831   6.310   8.877   5.090  0.8279  0.3186  0.8605
  970MOL0     N30832   6.344   8.961   4.971  0.2434  0.7839 -0.4695
  970MOL0     C30833   6.420   9.071   4.954 -0.2669  0.3676  0.2692
  970MOL0     C30834   6.430   9.090   4.818  0.2397  0.5317  0.1508
  970MOL0     C30835   6.507   9.196   4.741 -0.6063 -0.2689  0.2029
  970MOL0     C30836   6.605   9.278   4.826 -0.1354 -0.2422  0.2995
  970MOL0     C30837   6.724   9.200   4.870  1.2737 -0.9140 -0.3227
  970MOL0     C30838   6.841   9.294   4.897  0.2732  0.3975 -0.2419
  970MOL0     O30839   6.927   9.188   4.951 -0.5948 -0.1549  0.0874
  970MOL0     C30840   7.057   9.180   4.912 -0.2300  0.8699 -0.4048
  970MOL0     C30841   7.114   9.045   4.885  0.5456 -0.6844 -0.4946
  970MOL0     C30842   7.240   9.017   4.833  1.0546  0.6582  0.6632
  970MOL0     C30843   7.285   8.870   4.835 -0.5076 -1.0774 -0.8883
  970MOL0     C30844   7.323   9.128   4.800 -0.1051 -0.3300  0.0999
  970MOL0     C30845   7.456   9.119   4.729 -0.2063  0.1583 -0.6775
  970MOL0     O30846   7.513   9.244   4.702 -0.7594  0.1508  0.3852
  970MOL0     C30847   7.632   9.255   4.636 -0.1915 -0.1767 -0.7355
  970MOL0     C30848   7.630   9.234   4.497  0.5550  0.2965 -0.8320
  970MOL0     C30849   7.756   9.240   4.438  0.2748 -0.0107 -0.2671
  970MOL0     C30850   7.872   9.269   4.512 -0.0194 -0.5834  0.5955
  970MOL0     O30851   7.988   9.292   4.440  0.2350 -0.0881  1.3859
  970MOL0     C30852   8.078   9.182   4.464  0.5077  0.6144  0.0181
  970MOL0     C30853   8.156   9.153   4.333 -0.1620  0.1127  0.8396
  970MOL0     C30854   8.073   9.065   4.232 -0.1380  0.5064  1.1088
  970MOL0     C30855   8.051   8.925   4.289 -0.1106 -1.5409 -0.0408
  970MOL0     C30856   7.992   8.848   4.178 -0.2106 -0.1096  0.6603
  970MOL0     C30857   7.995   8.704   4.220 -0.0839 -0.1458  0.4270
  970MOL0     C30858   8.131   8.637   4.198  0.1155  0.1610 -0.2134
  970MOL0     C30859   8.166   8.582   4.055 -0.4054 -0.5012 -0.2052
  970MOL0    Cl30860   8.061   8.428   4.009  0.5884 -0.3110 -0.2359
  970MOL0     C30861   7.861   9.293   4.642 -0.8366 -0.3015 -0.6251
  970MOL0     C30862   7.743   9.301   4.707 -0.1867  0.8575 -1.2730
  970MOL0     O30863   7.508   9.010   4.704 -0.4876  0.1449 -0.0604
  970MOL0     C30864   7.273   9.258   4.821 -0.4504 -0.0172 -0.9738
  970MOL0     C30865   7.140   9.282   4.866 -0.0072  0.6637 -0.9354
  970MOL0     N30866   6.349   8.991   4.759  0.2944  0.9650 -0.1936
  970MOL0     N30867   6.299   8.915   4.849  0.3383 -0.4491 -0.0530
  970MOL0     C30868   6.761   8.170   5.891 -0.5209  0.0275  1.0424
  970MOL0     C30869   6.809   8.062   5.969  0.4169  0.1496 -0.0356
  970MOL0     C30870   6.902   7.761   6.276 -0.5965  0.1331  0.0071
  970MOL0     C30871   6.959   7.830   6.391  0.6857  0.5760 -0.1861
  970MOL0     C30872   7.023   7.746   6.485 -0.1716 -0.6560  0.4515
  970MOL0     C30873   7.036   7.604   6.472 -0.4058  0.4236 -0.1664
  970MOL0     O30874   7.099   7.539   6.571 -1.2697 -0.3281  0.4181
  970MOL0     C30875   7.039   7.557   6.701  0.1218  0.3462 -0.2809
  970MOL0     C30876   7.114   7.462   6.796  0.3869 -0.3559  0.2274
  970MOL0     C30877   7.068   7.311   6.770 -1.0991  0.1983  0.4237
  970MOL0     C30878   7.130   7.213   6.880  1.0095  0.1385 -0.8254
  970MOL0     C30879   7.142   7.073   6.843  0.2956  0.2989  0.0202
  970MOL0     C30880   7.159   6.957   6.828 -0.0883  1.2920 -1.0318
  970MOL0     C30881   6.993   7.548   6.356  0.5626 -0.4101  0.7565
  970MOL0     C30882   6.932   7.629   6.258 -0.6360  0.3524  0.7652
  970MOL0     H30883   6.608   8.129   6.245  2.0053  1.4066  0.7687
  970MOL0     H30884   6.502   8.263   6.099 -0.4671 -0.2845  0.9683
  970MOL0     H30885   6.750   8.394   5.733 -0.0018  0.0552  0.7234
  970MOL0     H30886   6.616   8.300   5.671  2.0036 -0.5010  0.7171
  970MOL0     H30887   6.469   8.511   5.712 -0.4301 -0.8650 -0.7768
  970MOL0     H30888   6.609   8.573   5.794 -2.5935 -0.4531  0.9510
  970MOL0     H30889   6.705   8.658   5.592  1.6507 -1.6536  3.3814
  970MOL0     H30890   6.664   8.508   5.508 -0.9538 -0.7705  0.8531
  970MOL0     H30891   6.409   8.610   5.515 -1.6592  0.8643  0.4197
  970MOL0     H30892   6.506   8.754   5.575  4.7302  0.4240 -1.1811
  970MOL0     H30893   6.630   8.749   5.355  0.3311 -2.5301  1.6144
  970MOL0     H30894   6.539   8.609   5.320  1.0144 -0.2340 -1.0483
  970MOL0     H30895   6.321   8.744   5.300  0.0624 -0.4870 -2.4224
  970MOL0     H30896   6.389   8.884   5.365 -1.4979 -2.4275  0.7764
  970MOL0     H30897   6.501   8.920   5.161 -0.1837 -1.7748 -0.4229
  970MOL0     H30898   6.473   8.751   5.104 -1.7115 -0.7970 -0.6877
  970MOL0     H30899   6.241   8.929   5.157 -1.5334 -0.6465 -0.6846
  970MOL0     H30900   6.253   8.789   5.060  2.1114 -0.8791  1.8359
  970MOL0     H30901   6.468   9.133   5.029  0.8333 -1.6944  1.3473
  970MOL0     H30902   6.547   9.137   4.657 -1.2479 -1.3615  0.6356
  970MOL0     H30903   6.446   9.270   4.689  0.6818 -0.3245 -1.4657
  970MOL0     H30904   6.555   9.313   4.916  1.5868 -4.7299  3.3670
  970MOL0     H30905   6.643   9.353   4.756  2.0110 -1.2507  0.2898
  970MOL0     H30906   6.750   9.126   4.794  1.2534 -1.6609  0.3798
  970MOL0     H30907   6.701   9.156   4.968  0.1434 -1.9671 -1.0322
  970MOL0     H30908   6.799   9.360   4.974 -4.2147 -4.0320  1.6308
  970MOL0     H30909   6.884   9.355   4.816 -1.9060  2.8435  0.3053
  970MOL0     H30910   7.044   8.965   4.907 -1.2410  0.3838 -2.0033
  970MOL0     H30911   7.383   8.859   4.884 -1.9043 -0.5744  2.2701
  970MOL0     H30912   7.214   8.809   4.891 -2.9656  2.1725 -0.2040
  970MOL0     H30913   7.305   8.840   4.732  3.0990  2.0236 -1.3116
  970MOL0     H30914   7.548   9.200   4.435  0.3486 -0.6802 -0.0426
  970MOL0     H30915   7.774   9.239   4.331 -2.4907  0.4647 -0.8058
  970MOL0     H30916   8.150   9.207   4.542 -0.2830  0.4038  0.8325
  970MOL0     H30917   8.023   9.093   4.495  0.1789  0.8937  0.2485
  970MOL0     H30918   8.182   9.254   4.300  2.3834 -0.3509  1.2499
  970MOL0     H30919   8.249   9.101   4.358 -2.7060 -3.5743  3.7824
  970MOL0     H30920   8.130   9.065   4.139 -1.5267 -1.6867  0.1813
  970MOL0     H30921   7.973   9.107   4.214 -0.4124  0.2697  2.0191
  970MOL0     H30922   8.143   8.896   4.340  1.0240 -2.7988 -2.6774
  970MOL0     H30923   7.969   8.929   4.362  0.9170 -0.4610  1.1185
  970MOL0     H30924   8.052   8.866   4.088 -2.7334  1.8266 -0.7881
  970MOL0     H30925   7.888   8.881   4.171 -0.5705 -0.8573  2.1434
  970MOL0     H30926   7.972   8.703   4.327  3.1902 -2.0867  1.2498
  970MOL0     H30927   7.913   8.653   4.168  0.8566  1.5867 -3.0456
  970MOL0     H30928   8.152   8.560   4.273  2.4159  1.1647  0.2556
  970MOL0     H30929   8.209   8.710   4.222  1.9416 -1.2647 -1.4343
  970MOL0     H30930   8.272   8.554   4.058 -0.9259 -2.9312 -1.6706
  970MOL0     H30931   8.144   8.669   3.993 -1.3034  0.1061  0.9324
  970MOL0     H30932   7.957   9.321   4.685 -0.6994 -0.6200 -0.7198
  970MOL0     H30933   7.746   9.338   4.809 -1.7301 -0.0233 -0.8695
  970MOL0     H30934   7.325   9.348   4.790 -1.3858  0.8613 -0.0434
  970MOL0     H30935   7.097   9.381   4.867 -0.4909  0.4670  0.9747
  970MOL0     H30936   6.805   8.197   5.796 -4.1464  0.5531 -0.6531
  970MOL0     H30937   6.888   7.994   5.941  0.6448  0.3466  0.1211
  970MOL0     H30938   6.933   7.933   6.414  1.3360  0.7231 -0.0975
  970MOL0     H30939   7.047   7.797   6.578  2.0180 -1.8140  0.6142
  970MOL0     H30940   7.041   7.654   6.752  3.4215 -1.2871  3.1378
  970MOL0     H30941   6.934   7.527   6.694  0.0340  0.0648  1.7051
  970MOL0     H30942   7.082   7.488   6.897 -1.5449 -0.6840 -0.2464
  970MOL0     H30943   7.223   7.471   6.797  0.2554  1.7609 -0.2143
  970MOL0     H30944   7.114   7.284   6.674  1.9259 -1.9083  2.2748
  970MOL0     H30945   6.959   7.305   6.766 -1.1352  1.1508 -0.3118
  970MOL0     H30946   7.079   7.227   6.975  0.6962  5.4640 -1.4969
  970MOL0     H30947   7.233   7.245   6.899  0.6485  1.0953 -0.4510
  970MOL0     H30948   7.176   6.852   6.820  0.9990  1.1234  2.1551
  970MOL0     H30949   7.009   7.445   6.327 -1.4355  0.1471 -2.9507
  970MOL0     H30950   6.895   7.575   6.171 -0.0748 -1.6497  1.7015
  971MOL0     O30951   9.815   1.774  11.299  0.1012 -0.3451  0.4670
  971MOL0     C30952   9.837   1.705  11.201  0.4526  0.7328  0.3390
  971MOL0     O30953   9.753   1.597  11.168 -0.0657 -0.2271 -0.1282
  971MOL0     C30954   9.646   1.581  11.249  0.6825  0.0358  0.0344
  971MOL0     C30955   9.631   1.465  11.320 -0.0934 -0.0491 -0.4791
  971MOL0     C30956   9.518   1.440  11.384 -0.2071  0.1035 -0.2551
  971MOL0     C30957   9.416   1.537  11.402 -0.0041  0.6117 -0.3882
  971MOL0     O30958   9.312   1.500  11.482 -0.3482  0.1243 -0.2176
  971MOL0     C30959   9.193   1.576  11.459 -0.2480  0.0088  0.4552
  971MOL0     C30960   9.068   1.528  11.538 -0.2026  0.9244 -0.3117
  971MOL0     C30961   8.948   1.616  11.499  0.2329  0.5910  0.3916
  971MOL0     C30962   8.845   1.528  11.431 -0.1564  0.2470  0.3804
  971MOL0     C30963   8.728   1.601  11.376  0.0472 -0.3952 -0.1192
  971MOL0     C30964   8.661   1.510  11.271 -0.8301 -0.5409 -0.3935
  971MOL0     C30965   8.529   1.553  11.213  0.7846 -0.3387 -0.1968
  971MOL0     C30966   8.421   1.562  11.316  0.1535 -0.5691 -0.3802
  971MOL0     N30967   8.292   1.575  11.246 -0.3483  0.4409 -0.7906
  971MOL0     C30968   8.213   1.469  11.189  0.1188  0.3057 -0.1266
  971MOL0     C30969   8.108   1.536  11.130  0.3625 -0.1870  0.6223
  971MOL0     C30970   8.005   1.464  11.053  0.6538 -0.0857  0.7789
  971MOL0     C30971   7.884   1.550  11.011 -1.1355  0.4097 -0.3182
  971MOL0     C30972   7.801   1.479  10.903  0.2143  0.1987 -0.0790
  971MOL0     C30973   7.672   1.551  10.855 -1.0186 -0.3166 -0.9155
  971MOL0     O30974   7.611   1.469  10.756  0.6352 -0.7276  0.3981
  971MOL0     C30975   7.470   1.461  10.770 -0.1910 -0.1444 -0.4131
  971MOL0     C30976   7.416   1.364  10.852 -0.1161 -0.0240 -0.0630
  971MOL0     C30977   7.275   1.357  10.885  0.7821  0.3315 -0.0927
  971MOL0     C30978   7.233   1.239  10.974 -0.3908 -0.0510 -0.2597
  971MOL0     C30979   7.187   1.449  10.833  0.1098  0.0250  0.2344
  971MOL0     C30980   7.038   1.444  10.849 -0.8363  0.0232 -0.4608
  971MOL0     O30981   6.970   1.502  10.747  0.0343  0.1842 -0.1805
  971MOL0     C30982   6.825   1.507  10.755 -1.3155 -0.7602  0.1498
  971MOL0     C30983   6.756   1.598  10.833  0.8440  0.1750 -0.4909
  971MOL0     C30984   6.619   1.594  10.853  1.0075 -0.9478 -0.4145
  971MOL0     C30985   6.539   1.501  10.794 -0.3620 -0.4240 -0.2707
  971MOL0     O30986   6.413   1.502  10.839 -0.2205  0.7878  0.7185
  971MOL0     C30987   6.336   1.391  10.811  0.3324 -0.2768 -0.2588
  971MOL0     C30988   6.185   1.419  10.826 -0.8756  0.0665 -0.0353
  971MOL0     C30989   6.152   1.492  10.955  0.4236 -0.2101  1.0095
  971MOL0     C30990   6.001   1.514  10.971 -0.2138  0.1480  0.0580
  971MOL0     C30991   5.921   1.389  11.000  0.6533 -0.9824 -0.5371
  971MOL0     C30992   5.777   1.417  11.025 -0.5100  0.1940 -0.0490
  971MOL0     C30993   5.682   1.303  11.010 -0.0325  0.2913 -0.5146
  971MOL0     C30994   5.545   1.344  10.955 -0.4158  0.6928  0.6243
  971MOL0    Cl30995   5.455   1.439  11.066 -0.0371 -0.0561  0.0047
  971MOL0     C30996   6.607   1.403  10.714  0.4125  0.0916 -0.7930
  971MOL0     C30997   6.749   1.400  10.700 -0.0011 -0.6667 -0.0649
  971MOL0     O30998   6.990   1.395  10.945  0.4604  0.3027  0.4611
  971MOL0     C30999   7.248   1.534  10.737 -0.8346 -0.8145 -0.4684
  971MOL0     C31000   7.383   1.540  10.709 -0.1459  0.1751 -0.4709
  971MOL0     N31001   8.125   1.680  11.147 -0.0531 -0.4417 -0.1483
  971MOL0     N31002   8.235   1.698  11.217 -1.2594 -0.0460  0.2387
  971MOL0     C31003   9.434   1.657  11.333  1.0277 -0.4651 -0.2513
  971MOL0     C31004   9.543   1.679  11.253 -1.5699  0.5226  0.2163
  971MOL0     C31005   9.957   1.728  11.124  0.8604 -1.1073  0.2155
  971MOL0     C31006   9.977   1.682  10.990 -1.1485 -0.2618  0.6319
  971MOL0     C31007  10.106   1.677  10.929 -1.0543  0.5765 -0.2833
  971MOL0     C31008  10.214   1.741  10.997 -0.3465  0.1170 -0.0930
  971MOL0     O31009  10.339   1.761  10.943  0.8585  0.3964 -0.2924
  971MOL0     C31010  10.388   1.686  10.835 -0.1418 -0.7163  0.8155
  971MOL0     C31011  10.414   1.545  10.870  0.0612  0.0645 -0.2845
  971MOL0     C31012  10.444   1.465  10.740 -0.1253  1.0511  0.8201
  971MOL0     C31013  10.482   1.313  10.768  0.2644 -0.2614  0.3385
  971MOL0     C31014  10.396   1.226  10.846 -0.0479  0.0900 -0.1657
  971MOL0     C31015  10.336   1.141  10.909 -0.8394 -0.8673 -0.6628
  971MOL0     C31016  10.195   1.789  11.130  0.4727 -0.0020  0.2534
  971MOL0     C31017  10.069   1.781  11.192 -0.1365 -0.5378  0.3900
  971MOL0     H31018   9.699   1.382  11.302 -1.0036 -0.9907  0.2922
  971MOL0     H31019   9.501   1.344  11.431  2.7706 -0.2132  0.3710
  971MOL0     H31020   9.213   1.678  11.493  0.3013 -0.0186  0.2246
  971MOL0     H31021   9.160   1.582  11.355 -1.7796  1.9950  0.9851
  971MOL0     H31022   9.040   1.424  11.522 -2.4795  1.8445 -3.0265
  971MOL0     H31023   9.100   1.546  11.641 -1.1710 -0.2043  0.2035
  971MOL0     H31024   8.913   1.647  11.598  1.3653 -0.4402  1.1516
  971MOL0     H31025   8.992   1.699  11.443  1.8004  1.0428  2.1970
  971MOL0     H31026   8.898   1.480  11.348  1.5407 -0.2570  1.7005
  971MOL0     H31027   8.811   1.448  11.498  1.6678  0.8713  2.1529
  971MOL0     H31028   8.663   1.624  11.460 -0.1536  1.6028 -0.7810
  971MOL0     H31029   8.755   1.695  11.328  1.4359  1.6415  4.1619
  971MOL0     H31030   8.725   1.507  11.182 -0.8405  1.1601 -0.4897
  971MOL0     H31031   8.642   1.408  11.305 -2.9343  0.3960  1.5063
  971MOL0     H31032   8.543   1.644  11.154 -2.6887  1.2133  1.0831
  971MOL0     H31033   8.501   1.471  11.147 -0.3363 -1.5198  1.6479
  971MOL0     H31034   8.441   1.634  11.395 -1.2661 -1.5334  0.9010
  971MOL0     H31035   8.404   1.466  11.366  3.6300 -0.4523  1.3352
  971MOL0     H31036   8.214   1.361  11.200  0.9407  0.1589 -1.4457
  971MOL0     H31037   8.057   1.429  10.963  4.0238  1.2150  2.0856
  971MOL0     H31038   7.966   1.372  11.099 -1.5624 -0.4072 -1.5120
  971MOL0     H31039   7.921   1.642  10.965  0.2524  0.1769  0.2800
  971MOL0     H31040   7.824   1.579  11.098  1.9799  3.0795  1.1565
  971MOL0     H31041   7.776   1.378  10.937 -2.0685  0.9813  0.8019
  971MOL0     H31042   7.870   1.480  10.818  1.8302  1.1309  1.1870
  971MOL0     H31043   7.700   1.651  10.819  0.5359 -0.5556 -0.4397
  971MOL0     H31044   7.601   1.576  10.935  0.3302 -1.8187  0.8466
  971MOL0     H31045   7.482   1.290  10.896 -0.0699 -0.7905 -1.3839
  971MOL0     H31046   7.315   1.167  10.979  0.9788  1.5027  3.0149
  971MOL0     H31047   7.226   1.280  11.076  0.3382  0.4602 -0.4133
  971MOL0     H31048   7.132   1.215  10.939  0.0949  1.0288 -2.5121
  971MOL0     H31049   6.814   1.681  10.875  1.5201  1.2725 -3.3616
  971MOL0     H31050   6.563   1.660  10.919  3.3947  0.3305  0.5062
  971MOL0     H31051   6.344   1.357  10.707 -3.0852 -0.4611 -0.5574
  971MOL0     H31052   6.369   1.303  10.867 -0.4859 -1.4008 -1.4963
  971MOL0     H31053   6.164   1.486  10.743  0.5361  1.0525  0.3514
  971MOL0     H31054   6.124   1.329  10.821 -1.7668  0.6357  0.4552
  971MOL0     H31055   6.207   1.586  10.963  1.6705 -1.0604  3.4042
  971MOL0     H31056   6.186   1.436  11.042  2.3504 -0.3918  0.1792
  971MOL0     H31057   5.982   1.577  11.059 -1.6177 -0.1983  0.0174
  971MOL0     H31058   5.955   1.556  10.882  0.1656  1.2687  0.3673
  971MOL0     H31059   5.964   1.331  11.083  2.8715  1.0608 -0.1165
  971MOL0     H31060   5.933   1.323  10.914  1.0043 -0.0563 -1.2224
  971MOL0     H31061   5.766   1.467  11.122 -0.7019 -1.6938  0.9396
  971MOL0     H31062   5.760   1.493  10.948 -2.0233  0.1776  0.2318
  971MOL0     H31063   5.664   1.270  11.113 -2.0187  3.3744  0.2405
  971MOL0     H31064   5.723   1.231  10.938 -0.6019  1.7845 -2.3981
  971MOL0     H31065   5.487   1.258  10.920  3.8509 -2.4652  0.6268
  971MOL0     H31066   5.560   1.410  10.869 -1.0425  1.3342  0.9936
  971MOL0     H31067   6.539   1.334  10.665  0.6013  1.1187 -2.6202
  971MOL0     H31068   6.787   1.324  10.633 -0.0525 -1.8891  1.2481
  971MOL0     H31069   7.190   1.615  10.693  2.9697  1.3109 -2.0352
  971MOL0     H31070   7.417   1.603  10.627 -1.1303  0.5276 -0.6314
  971MOL0     H31071   9.357   1.733  11.346  1.3469  0.0252 -1.1242
  971MOL0     H31072   9.542   1.756  11.176 -1.6671  0.6707  0.3644
  971MOL0     H31073   9.907   1.620  10.936 -0.2518 -1.1485  0.4555
  971MOL0     H31074  10.118   1.636  10.830 -0.5974 -2.9254  1.0549
  971MOL0     H31075  10.307   1.706  10.764 -0.5148  1.6897  1.8146
  971MOL0     H31076  10.483   1.729  10.801  0.5161 -1.8049  1.2294
  971MOL0     H31077  10.321   1.506  10.913  0.1329 -0.3768 -0.5221
  971MOL0     H31078  10.502   1.534  10.933  1.0336  0.5489 -1.5126
  971MOL0     H31079  10.515   1.526  10.683  0.4525 -0.2366  0.1361
  971MOL0     H31080  10.358   1.474  10.673  1.4474  1.6533 -1.2053
  971MOL0     H31081  10.583   1.328  10.809  0.8176 -0.7528 -0.7974
  971MOL0     H31082  10.491   1.267  10.669 -2.9936 -0.7367  0.1837
  971MOL0     H31083  10.285   1.066  10.965  0.4116 -2.7679 -1.9447
  971MOL0     H31084  10.282   1.832  11.178  2.3464 -2.0110 -1.1382
  971MOL0     H31085  10.066   1.805  11.298  1.7529 -1.9371  0.8232
  972MOL0     O31086   8.619   7.942   2.494 -0.2712  0.0479  0.8460
  972MOL0     C31087   8.707   8.022   2.465  0.3044  0.9789  0.4705
  972MOL0     O31088   8.721   8.092   2.349 -0.4774 -0.0115  0.0231
  972MOL0     C31089   8.609   8.102   2.273  1.0565  0.1535 -0.2788
  972MOL0     C31090   8.604   7.992   2.179 -0.7714 -0.5728  0.5977
  972MOL0     C31091   8.503   8.015   2.080 -0.5337 -0.6442 -0.2734
  972MOL0     C31092   8.412   8.128   2.070  0.4686 -0.4956 -0.2213
  972MOL0     O31093   8.334   8.135   1.962  0.7434 -0.7140 -0.3269
  972MOL0     C31094   8.192   8.139   1.996 -0.3686  0.6587  0.7482
  972MOL0     C31095   8.107   8.172   1.877 -0.0661 -0.2076  0.2377
  972MOL0     C31096   8.128   8.308   1.813  0.0979 -0.2086  0.7854
  972MOL0     C31097   8.083   8.415   1.908 -0.1424 -0.0578  0.4617
  972MOL0     C31098   8.164   8.540   1.905  0.2377  0.0047  0.2216
  972MOL0     C31099   8.097   8.662   1.964  0.3348  0.6351 -0.0165
  972MOL0     C31100   8.065   8.655   2.112  0.6559 -0.4944 -0.6436
  972MOL0     C31101   8.045   8.793   2.176 -0.7370  0.0810 -0.2095
  972MOL0     N31102   8.034   8.781   2.324 -0.0691 -0.6078  0.6605
  972MOL0     C31103   8.116   8.867   2.401  0.3183 -0.0288 -0.1596
  972MOL0     C31104   8.075   8.848   2.523  0.4633  0.0387  0.0792
  972MOL0     C31105   8.137   8.913   2.638 -0.3592  0.6265 -0.8304
  972MOL0     C31106   8.038   8.959   2.745 -0.1017  0.4676 -0.1090
  972MOL0     C31107   7.927   9.052   2.697 -1.2490  0.2342 -0.3532
  972MOL0     C31108   7.828   9.067   2.805 -0.1778 -0.6878  0.3437
  972MOL0     O31109   7.744   9.174   2.754  0.2168  0.2330  0.2391
  972MOL0     C31110   7.643   9.218   2.834  0.1495 -0.0995 -0.3654
  972MOL0     C31111   7.621   9.187   2.961 -1.1345 -1.1658 -0.2345
  972MOL0     C31112   7.497   9.208   3.020  0.8244 -0.7124  0.7888
  972MOL0     C31113   7.488   9.138   3.152 -0.0515 -0.3124  0.5726
  972MOL0     C31114   7.398   9.286   2.956 -0.5195  0.0589  0.7049
  972MOL0     C31115   7.275   9.330   3.016 -0.1419 -0.2924 -0.0480
  972MOL0     O31116   7.240   9.455   2.977  0.1813  0.7771  0.4561
  972MOL0     C31117   7.119   9.506   3.012 -0.3933 -0.3193 -0.5862
  972MOL0     C31118   7.014   9.469   2.931 -0.1263 -0.5690 -0.4422
  972MOL0     C31119   6.886   9.516   2.965  0.5426  0.3629  0.7738
  972MOL0     C31120   6.867   9.589   3.080  0.0874 -1.2410 -0.0551
  972MOL0     O31121   6.739   9.636   3.099  0.3211 -0.2442  0.5753
  972MOL0     C31122   6.678   9.581   3.212  0.2060  0.0685  0.4644
  972MOL0     C31123   6.543   9.647   3.205  0.3433  0.4528 -0.5371
  972MOL0     C31124   6.458   9.582   3.315 -0.4766 -0.7155  0.9572
  972MOL0     C31125   6.317   9.637   3.329  0.3164  0.3717 -0.9633
  972MOL0     C31126   6.242   9.572   3.446  0.0107  0.0233  0.8195
  972MOL0     C31127   6.283   9.619   3.582 -0.6882  0.8669 -0.0326
  972MOL0     C31128   6.236   9.513   3.677  0.2800 -0.2064  0.2267
  972MOL0     C31129   6.320   9.535   3.807  0.2890  0.3456  0.7046
  972MOL0    Cl31130   6.266   9.379   3.904  0.4170 -0.1693  0.0742
  972MOL0     C31131   6.970   9.618   3.166 -0.3676  0.2307  0.7735
  972MOL0     C31132   7.100   9.584   3.127 -0.1219 -1.1137  0.7796
  972MOL0     O31133   7.209   9.255   3.086 -0.9997  0.7065  0.0799
  972MOL0     C31134   7.424   9.327   2.824  0.7117 -0.2901 -0.6268
  972MOL0     C31135   7.546   9.294   2.775  0.0534  1.0756  0.1192
  972MOL0     N31136   7.966   8.756   2.525 -0.5201 -0.8803  0.1400
  972MOL0     N31137   7.934   8.726   2.404 -1.0361 -0.6173  0.2574
  972MOL0     C31138   8.433   8.235   2.168 -0.0906  0.1182 -0.1780
  972MOL0     C31139   8.532   8.216   2.266 -0.3573  0.6633 -0.5870
  972MOL0     C31140   8.812   8.039   2.565 -1.0580  0.8471 -0.8282
  972MOL0     C31141   8.828   7.943   2.664 -0.0809  0.5207  0.4486
  972MOL0     C31142   8.919   7.964   2.771 -0.4949 -0.6806 -0.0447
  972MOL0     C31143   9.001   8.080   2.769  0.0718  0.1085  0.6252
  972MOL0     O31144   9.106   8.085   2.854  0.6347  0.1106  0.2416
  972MOL0     C31145   9.140   8.224   2.901  0.1879  0.0618 -0.1006
  972MOL0     C31146   9.165   8.226   3.051 -0.6933  0.3189 -0.2594
  972MOL0     C31147   9.305   8.173   3.081  0.0263 -0.9895 -0.2970
  972MOL0     C31148   9.328   8.146   3.231 -0.6183  0.3223  0.2187
  972MOL0     C31149   9.464   8.093   3.253  0.1375  0.0507 -0.1118
  972MOL0     C31150   9.568   8.030   3.284  0.1311 -0.3133  1.1089
  972MOL0     C31151   8.982   8.181   2.673  0.0852 -0.0756  0.6751
  972MOL0     C31152   8.888   8.157   2.565 -0.3502  0.5306 -0.2765
  972MOL0     H31153   8.672   7.908   2.175  1.8880  1.4787 -1.1166
  972MOL0     H31154   8.490   7.927   2.019  0.6149 -2.3381  1.7765
  972MOL0     H31155   8.160   8.035   2.015  1.1128  0.1551  0.5878
  972MOL0     H31156   8.181   8.199   2.087 -0.5742  1.0725  0.4532
  972MOL0     H31157   8.124   8.089   1.808 -0.3830 -0.6403  0.6682
  972MOL0     H31158   8.002   8.160   1.905 -0.1867 -1.5521 -0.6784
  972MOL0     H31159   8.234   8.315   1.789  0.3213 -0.2590  1.7065
  972MOL0     H31160   8.071   8.306   1.720  0.1539 -1.8564  0.7611
  972MOL0     H31161   7.977   8.440   1.897  0.0589  1.3942  1.4280
  972MOL0     H31162   8.085   8.380   2.011  0.0018 -0.1106  0.4415
  972MOL0     H31163   8.259   8.515   1.953  0.8883 -2.8327 -2.2903
  972MOL0     H31164   8.183   8.574   1.803 -2.6364 -0.3617 -0.5296
  972MOL0     H31165   8.164   8.746   1.946  1.7740  0.0291  2.1476
  972MOL0     H31166   8.002   8.678   1.911 -0.8103 -0.3339  1.6507
  972MOL0     H31167   7.988   8.585   2.147  1.7185 -1.2925  0.1707
  972MOL0     H31168   8.152   8.611   2.160 -0.3144 -2.5541 -0.6664
  972MOL0     H31169   7.947   8.824   2.141 -0.1177  1.1567 -1.0442
  972MOL0     H31170   8.132   8.853   2.148 -0.3732 -1.0040 -1.5431
  972MOL0     H31171   8.200   8.927   2.367 -1.6596  2.6155 -0.6902
  972MOL0     H31172   8.207   8.846   2.689 -3.2705 -0.7486  1.7065
  972MOL0     H31173   8.190   9.004   2.608 -1.2398  1.1612 -0.7985
  972MOL0     H31174   8.093   9.004   2.827  0.5509 -1.7026  0.7234
  972MOL0     H31175   7.992   8.872   2.793  1.0460 -0.5988 -0.8674
  972MOL0     H31176   7.885   9.018   2.601  0.4770 -1.8540 -0.4394
  972MOL0     H31177   7.972   9.151   2.686  1.3452 -0.2432  3.8838
  972MOL0     H31178   7.873   9.097   2.899  0.6262  2.3977 -0.9117
  972MOL0     H31179   7.771   8.974   2.821  0.0079 -0.4718  2.4935
  972MOL0     H31180   7.696   9.128   3.013 -0.7005  0.7627  1.4753
  972MOL0     H31181   7.424   9.050   3.143  0.8346 -0.8553 -0.8468
  972MOL0     H31182   7.585   9.103   3.188  0.4126  0.1916 -0.1420
  972MOL0     H31183   7.446   9.201   3.231 -0.2667  0.5431 -0.2002
  972MOL0     H31184   7.032   9.403   2.846  2.7917  1.4527 -1.5640
  972MOL0     H31185   6.806   9.496   2.895 -0.1859  0.3372  1.6005
  972MOL0     H31186   6.678   9.471   3.218 -1.0698  0.1189  3.6404
  972MOL0     H31187   6.739   9.605   3.300  0.1110 -0.1678  0.5978
  972MOL0     H31188   6.552   9.754   3.226  0.0515  0.7473 -1.7997
  972MOL0     H31189   6.495   9.620   3.110  0.1517  1.5823 -0.7708
  972MOL0     H31190   6.500   9.591   3.416  1.5555  2.2438 -0.0040
  972MOL0     H31191   6.452   9.475   3.294  2.0730 -0.5702 -0.9172
  972MOL0     H31192   6.322   9.745   3.349 -1.9902  0.6359 -1.5412
  972MOL0     H31193   6.265   9.620   3.234  0.8383 -1.5106 -0.9511
  972MOL0     H31194   6.248   9.463   3.442 -0.3725 -0.0929  2.5967
  972MOL0     H31195   6.141   9.611   3.435  0.6306  1.0167 -2.1341
  972MOL0     H31196   6.391   9.636   3.585 -0.8327  2.6540 -2.2524
  972MOL0     H31197   6.243   9.719   3.603  1.5054  1.6126  0.8308
  972MOL0     H31198   6.262   9.411   3.646 -0.3144 -0.3288  0.1353
  972MOL0     H31199   6.129   9.528   3.692  0.7294  1.6703  1.8733
  972MOL0     H31200   6.296   9.629   3.857 -1.5302 -0.5699  1.6288
  972MOL0     H31201   6.429   9.530   3.799  0.3256  2.6750 -1.1495
  972MOL0     H31202   6.943   9.658   3.263 -3.7591  2.4665 -0.9149
  972MOL0     H31203   7.182   9.606   3.194  0.6752 -0.8642 -0.2615
  972MOL0     H31204   7.349   9.382   2.767  2.2868  1.2490 -1.3067
  972MOL0     H31205   7.565   9.318   2.671 -1.8139 -0.4621 -0.6472
  972MOL0     H31206   8.377   8.327   2.162 -0.8950 -0.3990 -0.7332
  972MOL0     H31207   8.551   8.283   2.350 -1.5778 -0.5127  0.6692
  972MOL0     H31208   8.768   7.853   2.653  0.5160  0.3566 -1.9514
  972MOL0     H31209   8.941   7.885   2.841  0.1297  0.5151  1.1592
  972MOL0     H31210   9.229   8.252   2.844  2.1892 -1.7287  1.9593
  972MOL0     H31211   9.067   8.301   2.876 -0.8552 -0.6333  0.7221
  972MOL0     H31212   9.100   8.155   3.103  3.1216 -1.9295  1.9121
  972MOL0     H31213   9.143   8.324   3.096 -1.6256 -0.6949  1.6101
  972MOL0     H31214   9.379   8.243   3.043  0.9375 -1.3737  0.7253
  972MOL0     H31215   9.328   8.078   3.032 -0.0450 -1.5667  0.7571
  972MOL0     H31216   9.258   8.068   3.261 -2.0855  1.0573 -1.1723
  972MOL0     H31217   9.310   8.234   3.293  3.4387  0.5498  1.4028
  972MOL0     H31218   9.670   8.008   3.306  0.1899  0.0079  1.1544
  972MOL0     H31219   9.037   8.274   2.660  1.1791 -0.7741  0.2143
  972MOL0     H31220   8.882   8.233   2.488  1.0818  0.5938 -0.3524
  973MOL0     O31221   7.274   1.940   4.431 -0.2014 -0.9593  0.7564
  973MOL0     C31222   7.361   1.901   4.510 -0.4851 -0.4902  0.2939
  973MOL0     O31223   7.344   1.866   4.644  0.1420  0.0964 -0.0504
  973MOL0     C31224   7.211   1.862   4.695  0.7214 -0.1157 -0.1573
  973MOL0     C31225   7.102   1.954   4.659  0.2962 -0.6563  0.3150
  973MOL0     C31226   6.973   1.934   4.725  0.5621  0.6626  0.6083
  973MOL0     C31227   6.960   1.840   4.828 -0.0757  0.7075  0.0250
  973MOL0     O31228   6.838   1.809   4.898  0.3495 -0.9436 -0.4114
  973MOL0     C31229   6.734   1.779   4.812  0.6907  0.3859 -0.0396
  973MOL0     C31230   6.590   1.763   4.874 -0.1188 -0.0688  1.0467
  973MOL0     C31231   6.529   1.896   4.919 -0.9386 -0.0800  0.1013
  973MOL0     C31232   6.409   1.882   5.014 -0.0372  0.0590 -0.3107
  973MOL0     C31233   6.296   1.804   4.949  0.7035  0.0828  1.0891
  973MOL0     C31234   6.180   1.794   5.037  0.2090 -0.5444  0.1368
  973MOL0     C31235   6.056   1.721   4.978 -0.3498  0.5452 -0.2662
  973MOL0     C31236   5.976   1.819   4.888 -0.3592  0.3027 -0.4639
  973MOL0     N31237   5.898   1.752   4.787 -0.6001 -0.1282  1.2589
  973MOL0     C31238   5.779   1.680   4.814  0.2050  0.2261  0.2351
  973MOL0     C31239   5.755   1.604   4.703 -0.3390 -0.2458 -0.1745
  973MOL0     C31240   5.628   1.528   4.686 -0.6566 -0.2181 -0.2108
  973MOL0     C31241   5.528   1.599   4.598 -0.5346  0.2444  0.1352
  973MOL0     C31242   5.479   1.738   4.650  0.1273 -0.8845 -0.2358
  973MOL0     C31243   5.409   1.733   4.783  1.0376  0.0008  0.4347
  973MOL0     O31244   5.306   1.633   4.781 -1.0686  0.1990 -0.2217
  973MOL0     C31245   5.180   1.670   4.801 -0.0433  0.6772 -0.0001
  973MOL0     C31246   5.086   1.679   4.691 -0.7670 -0.2356 -0.2073
  973MOL0     C31247   4.951   1.706   4.711 -0.6967 -1.4966  0.0681
  973MOL0     C31248   4.858   1.713   4.587 -0.1474  0.0259  0.4280
  973MOL0     C31249   4.906   1.725   4.845 -0.3947 -0.0056  0.3873
  973MOL0     C31250   4.761   1.770   4.881 -0.6937  0.0130 -0.2292
  973MOL0     O31251   4.740   1.815   5.008  0.2663 -0.0498  0.2843
  973MOL0     C31252   4.614   1.870   5.023  0.0708  0.0397 -0.5785
  973MOL0     C31253   4.565   1.998   4.989 -0.3035 -0.0865  0.7270
  973MOL0     C31254   4.435   2.047   5.014 -1.0098  0.5220 -0.4197
  973MOL0     C31255   4.347   1.963   5.073  0.0811  0.2990 -0.4833
  973MOL0     O31256   4.221   2.013   5.105  0.4454 -0.0316  0.2238
  973MOL0     C31257   4.115   1.922   5.103 -0.0527 -0.4505 -0.0519
  973MOL0     C31258   4.004   2.025   5.054 -0.8806  0.5854  0.4139
  973MOL0     C31259   3.865   1.972   5.056  0.9855  0.0342  0.6455
  973MOL0     C31260   3.768   2.048   4.953  0.5215  0.2568  0.3153
  973MOL0     C31261   3.622   2.023   5.010 -0.2200  0.1297  1.1442
  973MOL0     C31262   3.516   2.085   4.923 -0.3834 -0.2247 -0.2639
  973MOL0     C31263   3.379   2.079   5.006 -0.2523  0.1585 -0.0275
  973MOL0     C31264   3.250   2.132   4.938 -0.8325 -0.3745  0.3515
  973MOL0    Cl31265   3.195   2.012   4.813 -0.1151  0.0148  0.0769
  973MOL0     C31266   4.399   1.843   5.125  0.8128  0.8160 -0.8193
  973MOL0     C31267   4.523   1.787   5.090  0.5817 -0.8046  0.4607
  973MOL0     O31268   4.672   1.752   4.799 -0.0607  0.5065  0.0079
  973MOL0     C31269   4.998   1.722   4.949 -0.4277  0.0068  0.5588
  973MOL0     C31270   5.133   1.701   4.922 -0.2284  0.8470  0.4170
  973MOL0     N31271   5.856   1.633   4.614 -0.1993 -0.0391 -0.0145
  973MOL0     N31272   5.940   1.715   4.665  0.5828 -0.2752 -0.9211
  973MOL0     C31273   7.063   1.749   4.857  1.3050 -0.2105 -0.1488
  973MOL0     C31274   7.187   1.756   4.783  0.1360 -0.0433 -0.3667
  973MOL0     C31275   7.500   1.899   4.449  0.0377  0.1693  0.5757
  973MOL0     C31276   7.590   1.805   4.503 -0.3544 -0.5745  0.0638
  973MOL0     C31277   7.715   1.793   4.456 -0.7037  0.0916 -0.7901
  973MOL0     C31278   7.764   1.867   4.345 -0.3689  0.6430 -1.5086
  973MOL0     O31279   7.883   1.839   4.290  0.1716 -0.1141  0.5370
  973MOL0     C31280   7.930   1.907   4.177  0.0769  0.2713  0.0239
  973MOL0     C31281   8.074   1.868   4.148  0.4355  0.7871 -0.0916
  973MOL0     C31282   8.166   1.957   4.231 -0.1835  0.0764  0.4119
  973MOL0     C31283   8.163   1.940   4.374  0.5494  0.1832 -0.3113
  973MOL0     C31284   8.214   1.801   4.416  0.6821  0.0721  0.1231
  973MOL0     C31285   8.243   1.687   4.446  0.1669 -0.4348  0.0270
  973MOL0     C31286   7.679   1.958   4.290 -0.0172 -0.9707 -0.0389
  973MOL0     C31287   7.541   1.972   4.340 -0.0051  0.1621 -0.0176
  973MOL0     H31288   7.116   2.033   4.587 -2.0264 -0.1437  0.3469
  973MOL0     H31289   6.888   1.999   4.707  0.5664  0.6298  0.4662
  973MOL0     H31290   6.732   1.859   4.737 -2.0350  1.1138  0.7072
  973MOL0     H31291   6.754   1.685   4.760 -2.0304 -1.8189  2.5511
  973MOL0     H31292   6.522   1.719   4.800 -0.1063  1.9731 -0.2722
  973MOL0     H31293   6.586   1.690   4.955 -1.1384 -2.0465 -0.7037
  973MOL0     H31294   6.612   1.943   4.972 -2.2922 -0.7959  3.0811
  973MOL0     H31295   6.505   1.947   4.825  0.2035 -1.6068 -1.0490
  973MOL0     H31296   6.438   1.835   5.108  1.3791 -1.1949 -1.3214
  973MOL0     H31297   6.372   1.982   5.041 -0.3826 -0.1035 -0.1806
  973MOL0     H31298   6.271   1.843   4.850  1.8591 -0.2382  0.6518
  973MOL0     H31299   6.330   1.703   4.922  1.1481  0.7120 -0.8005
  973MOL0     H31300   6.212   1.741   5.127 -2.4417  0.0276  1.5505
  973MOL0     H31301   6.148   1.894   5.068  2.4002  0.2147  0.0992
  973MOL0     H31302   6.092   1.628   4.933  1.4308  0.5745  0.9761
  973MOL0     H31303   5.994   1.697   5.064  2.2084 -3.0244  0.8285
  973MOL0     H31304   6.046   1.882   4.833  3.3166 -0.3529  2.9793
  973MOL0     H31305   5.919   1.891   4.946 -0.3262  0.2149 -0.3213
  973MOL0     H31306   5.711   1.693   4.897 -0.9230 -4.4063  0.3407
  973MOL0     H31307   5.676   1.438   4.648  0.8151 -0.8907  2.9299
  973MOL0     H31308   5.581   1.505   4.782  2.3695 -0.4205  1.3610
  973MOL0     H31309   5.437   1.540   4.583  1.2117 -2.3215 -1.1657
  973MOL0     H31310   5.561   1.617   4.496 -2.3612 -0.1993 -0.5648
  973MOL0     H31311   5.410   1.781   4.577 -1.7354  0.3005  2.0946
  973MOL0     H31312   5.562   1.808   4.656  0.9293 -1.8580  0.4993
  973MOL0     H31313   5.364   1.828   4.815 -0.2377 -0.8115  1.1372
  973MOL0     H31314   5.480   1.703   4.860  0.4515 -0.3223  0.8649
  973MOL0     H31315   5.128   1.665   4.592 -0.6204 -1.2322 -0.0139
  973MOL0     H31316   4.803   1.619   4.575 -0.8487  0.4009  0.6379
  973MOL0     H31317   4.786   1.796   4.595  0.6781  0.5393  5.5292
  973MOL0     H31318   4.921   1.722   4.497  1.3302 -0.2678  1.4042
  973MOL0     H31319   4.637   2.061   4.938  1.8134 -1.2290  2.1751
  973MOL0     H31320   4.405   2.149   4.991 -1.7885  0.5740  0.7015
  973MOL0     H31321   4.119   1.841   5.029  1.0484 -0.1391 -0.3491
  973MOL0     H31322   4.090   1.870   5.196  2.6351 -1.0834  0.3937
  973MOL0     H31323   4.017   2.121   5.106  1.7884 -0.9928  2.9770
  973MOL0     H31324   4.030   2.043   4.949 -0.2404  2.1607  0.7971
  973MOL0     H31325   3.830   1.996   5.157 -0.1580 -1.7748  0.7180
  973MOL0     H31326   3.853   1.864   5.041 -2.5747  0.5202 -0.9702
  973MOL0     H31327   3.795   2.154   4.953 -1.2966  0.7591  0.5702
  973MOL0     H31328   3.780   2.003   4.854 -0.2390  0.2599  0.2169
  973MOL0     H31329   3.628   2.079   5.103  1.4716  1.0249  0.5431
  973MOL0     H31330   3.600   1.916   5.007 -3.0792  0.6454  0.6619
  973MOL0     H31331   3.553   2.185   4.901  2.7435 -0.7452  1.9119
  973MOL0     H31332   3.510   2.022   4.833 -0.7783 -0.9265  0.2419
  973MOL0     H31333   3.401   2.135   5.097  2.8189 -0.2679 -0.4121
  973MOL0     H31334   3.359   1.975   5.034  0.5052 -0.4108 -1.5119
  973MOL0     H31335   3.259   2.234   4.899  0.1533 -0.3985  0.4985
  973MOL0     H31336   3.175   2.146   5.016  0.9757  0.7270  1.9626
  973MOL0     H31337   4.332   1.787   5.190  1.0397 -2.9650 -3.4679
  973MOL0     H31338   4.557   1.686   5.111  0.2034 -0.5855  2.3144
  973MOL0     H31339   4.962   1.733   5.050 -2.2807  2.4608 -0.2798
  973MOL0     H31340   5.208   1.701   5.000 -1.3852  2.8024  1.6308
  973MOL0     H31341   7.041   1.677   4.935 -2.2833  0.4907 -0.3462
  973MOL0     H31342   7.272   1.695   4.813 -1.6063 -1.6397  1.5684
  973MOL0     H31343   7.562   1.749   4.592  1.7491 -1.3325  0.3060
  973MOL0     H31344   7.785   1.720   4.496 -2.6806 -1.4621  0.0475
  973MOL0     H31345   7.863   1.889   4.092  0.8994 -1.3899 -0.3006
  973MOL0     H31346   7.921   2.015   4.196  1.0645  0.1177  1.5248
  973MOL0     H31347   8.090   1.873   4.040 -1.1033 -1.0485 -0.4596
  973MOL0     H31348   8.110   1.765   4.157  1.6460  0.4940 -5.1944
  973MOL0     H31349   8.152   2.064   4.208  3.9529  0.5252 -0.9014
  973MOL0     H31350   8.266   1.942   4.191 -0.3196 -1.7958  0.7063
  973MOL0     H31351   8.062   1.938   4.417  0.7050 -1.9778  0.0902
  973MOL0     H31352   8.235   2.014   4.411  2.1984 -1.5028  0.0273
  973MOL0     H31353   8.267   1.594   4.493 -1.8569  1.0004  4.4728
  973MOL0     H31354   7.696   2.030   4.211 -2.9215 -0.8034 -0.6078
  973MOL0     H31355   7.467   2.025   4.280  1.7312  0.4267 -2.0691
  974MOL0     O31356   8.972   2.778  10.878  0.3247  0.1410  0.4239
  974MOL0     C31357   8.850   2.786  10.876  0.0645  0.2595  0.0971
  974MOL0     O31358   8.772   2.769  10.759  0.3612  0.0902 -0.7338
  974MOL0     C31359   8.832   2.718  10.651 -0.3960  0.4300 -0.4056
  974MOL0     C31360   8.884   2.809  10.561 -0.8569 -0.8522 -0.0288
  974MOL0     C31361   8.972   2.766  10.461  0.0185 -0.4112  0.8963
  974MOL0     C31362   8.973   2.625  10.432 -0.7317 -0.6928  0.3454
  974MOL0     O31363   9.042   2.586  10.312 -0.0141  0.5136 -0.8371
  974MOL0     C31364   9.176   2.630  10.291 -0.4131 -0.6589  0.0095
  974MOL0     C31365   9.241   2.546  10.188 -0.6177  0.4892 -0.9510
  974MOL0     C31366   9.376   2.487  10.227  0.5939 -1.0935 -0.3059
  974MOL0     C31367   9.466   2.484  10.108 -0.6251 -0.1604 -0.2327
  974MOL0     C31368   9.572   2.372  10.104 -0.4749 -0.4355  0.5988
  974MOL0     C31369   9.651   2.395   9.963 -0.8551  0.7832 -0.2730
  974MOL0     C31370   9.785   2.313   9.964 -0.5861 -0.2046  0.0149
  974MOL0     C31371   9.859   2.327   9.833  1.0145 -0.2594  0.9057
  974MOL0     N31372   9.785   2.295   9.705  0.6476 -0.4138  0.2041
  974MOL0     C31373   9.695   2.195   9.681  0.1134  0.3424  0.1296
  974MOL0     C31374   9.680   2.202   9.549  0.8526  0.6962  1.5086
  974MOL0     C31375   9.570   2.114   9.481 -0.2526  0.4567  0.2260
  974MOL0     C31376   9.438   2.131   9.543  0.2513  0.5143  0.8703
  974MOL0     C31377   9.381   2.275   9.522 -0.1411  1.0844  0.5151
  974MOL0     C31378   9.257   2.303   9.603  0.4950  0.2357 -1.2755
  974MOL0     O31379   9.208   2.434   9.612 -0.8589 -0.6597 -0.4610
  974MOL0     C31380   9.096   2.432   9.698 -0.2566 -0.3125 -0.0026
  974MOL0     C31381   8.970   2.424   9.635 -0.0207 -0.3877  0.4443
  974MOL0     C31382   8.848   2.427   9.711 -0.2040  0.0334  0.1948
  974MOL0     C31383   8.730   2.411   9.630  0.3182  0.3286 -0.3607
  974MOL0     C31384   8.854   2.455   9.848 -0.0801 -0.3364 -0.4638
  974MOL0     C31385   8.736   2.498   9.925  0.0705 -0.3914 -0.9768
  974MOL0     O31386   8.749   2.478  10.060 -0.2221  0.5314 -0.8277
  974MOL0     C31387   8.639   2.512  10.139  0.1134  0.7213  0.2382
  974MOL0     C31388   8.505   2.458  10.121 -0.3182  0.4149  0.0573
  974MOL0     C31389   8.407   2.501  10.209  0.3668  0.0045  0.0546
  974MOL0     C31390   8.421   2.586  10.320  1.2474 -0.0889  0.4290
  974MOL0     O31391   8.313   2.632  10.393  0.4342 -0.1223  0.2282
  974MOL0     C31392   8.323   2.753  10.470 -0.6567  0.3649 -0.1453
  974MOL0     C31393   8.199   2.784  10.543  0.6644  0.1577  0.0245
  974MOL0     C31394   8.106   2.879  10.458  0.0942  0.2482  0.2322
  974MOL0     C31395   8.077   2.823  10.310 -0.8534  0.0166  0.2801
  974MOL0     C31396   7.969   2.896  10.230 -0.0617 -0.3977 -0.2975
  974MOL0     C31397   7.828   2.906  10.299  0.0157 -0.4368  0.2875
  974MOL0     C31398   7.782   3.055  10.331  0.1177 -1.0458  0.6403
  974MOL0     C31399   7.643   3.060  10.393 -0.5067  0.4946 -1.2007
  974MOL0    Cl31400   7.669   2.978  10.563 -0.1608  0.0917 -0.2958
  974MOL0     C31401   8.550   2.638  10.338  0.0467  0.2857  0.2776
  974MOL0     C31402   8.655   2.597  10.249 -0.7802 -0.6980 -0.9526
  974MOL0     O31403   8.632   2.539   9.870  0.2501  0.5767  1.3958
  974MOL0     C31404   8.980   2.448   9.915 -0.6355 -0.9140 -0.4029
  974MOL0     C31405   9.095   2.443   9.838 -0.0047  0.0570 -0.6251
  974MOL0     N31406   9.755   2.301   9.484  0.6512  0.0457  0.0872
  974MOL0     N31407   9.821   2.351   9.579 -0.1610  0.1917  0.7842
  974MOL0     C31408   8.917   2.530  10.523  0.7587 -0.4599  0.6150
  974MOL0     C31409   8.840   2.580  10.631  0.4409 -0.7644  0.2349
  974MOL0     C31410   8.778   2.829  10.996  0.2957 -0.2716 -0.1136
  974MOL0     C31411   8.851   2.916  11.092  0.2248 -0.4317 -0.5686
  974MOL0     C31412   8.781   2.980  11.193  0.0383 -0.1872  0.5227
  974MOL0     C31413   8.649   2.968  11.208  0.0407  0.9130 -0.5033
  974MOL0     O31414   8.597   3.030  11.319  0.0261 -0.5394 -0.3722
  974MOL0     C31415   8.503   2.965  11.392  0.2908  0.1416 -0.0572
  974MOL0     C31416   8.453   3.048  11.504  0.4633 -0.1838  0.0154
  974MOL0     C31417   8.375   2.967  11.617  1.3024 -0.3538  0.5886
  974MOL0     C31418   8.302   2.846  11.568  0.7150 -0.2099 -0.1631
  974MOL0     C31419   8.221   2.791  11.675  0.5505 -0.6012  0.1894
  974MOL0     C31420   8.145   2.736  11.747  0.4170  0.2921  0.1298
  974MOL0     C31421   8.577   2.875  11.122 -1.0306 -0.5425 -0.1453
  974MOL0     C31422   8.642   2.815  11.017  1.3110 -0.3829 -0.2744
  974MOL0     H31423   8.872   2.916  10.571  1.2851 -0.3623 -1.9050
  974MOL0     H31424   9.036   2.826  10.397 -1.8995  2.7170  1.7356
  974MOL0     H31425   9.174   2.733  10.256  0.0630 -0.8844 -0.7098
  974MOL0     H31426   9.226   2.631  10.389 -4.1662  0.4952  2.1097
  974MOL0     H31427   9.181   2.459  10.161  2.7838 -2.0940 -0.8257
  974MOL0     H31428   9.258   2.615  10.104  0.0159  1.3291 -0.1623
  974MOL0     H31429   9.432   2.549  10.297 -0.6084  2.0356 -1.8842
  974MOL0     H31430   9.366   2.384  10.263 -1.6439 -0.4488  1.1388
  974MOL0     H31431   9.406   2.462  10.019 -0.7767 -3.6436  0.5969
  974MOL0     H31432   9.527   2.573  10.093 -0.1044 -0.6999 -1.5539
  974MOL0     H31433   9.623   2.369  10.200  0.1182 -1.9925  0.2679
  974MOL0     H31434   9.536   2.269  10.094  0.5660 -1.0113  2.3400
  974MOL0     H31435   9.587   2.363   9.880  1.8412  0.5198 -2.4145
  974MOL0     H31436   9.663   2.501   9.942 -1.8380  1.5081  2.4783
  974MOL0     H31437   9.850   2.354  10.042  0.3917 -1.5126 -0.0938
  974MOL0     H31438   9.755   2.209   9.977 -1.6660  0.0416 -0.3762
  974MOL0     H31439   9.963   2.291   9.828 -0.3669 -4.9901  1.5524
  974MOL0     H31440   9.870   2.435   9.821 -1.5179 -0.1483 -1.2362
  974MOL0     H31441   9.642   2.129   9.748  0.3222  1.5035  1.4909
  974MOL0     H31442   9.562   2.139   9.375  1.1149  0.0027 -0.0100
  974MOL0     H31443   9.602   2.010   9.494  4.0466  1.4679 -0.7281
  974MOL0     H31444   9.449   2.114   9.650  3.8720  0.6598  0.6553
  974MOL0     H31445   9.364   2.056   9.516  0.1870  0.6998  0.5176
  974MOL0     H31446   9.347   2.291   9.419 -2.5581  2.0115  1.3729
  974MOL0     H31447   9.455   2.350   9.549  0.2144  1.3596 -1.1083
  974MOL0     H31448   9.263   2.270   9.706  0.2762 -0.0903 -1.3675
  974MOL0     H31449   9.180   2.242   9.554  0.3172  1.5004 -2.6406
  974MOL0     H31450   8.971   2.412   9.527  0.3457 -1.1865  0.5302
  974MOL0     H31451   8.678   2.507   9.626 -1.3302 -0.4159  1.2990
  974MOL0     H31452   8.751   2.379   9.528 -4.0260  2.2591 -2.1386
  974MOL0     H31453   8.652   2.347   9.674 -0.6200  1.5982 -0.1026
  974MOL0     H31454   8.475   2.412  10.028 -1.7780  1.8710 -0.2293
  974MOL0     H31455   8.305   2.467  10.196 -0.2706  2.0109 -0.5428
  974MOL0     H31456   8.391   2.735  10.554  0.1018  2.6164 -0.2049
  974MOL0     H31457   8.360   2.834  10.407  1.0782 -0.7173 -0.5803
  974MOL0     H31458   8.133   2.697  10.555 -0.0758  0.3927 -1.9650
  974MOL0     H31459   8.215   2.840  10.636 -2.6977  1.0803  0.1733
  974MOL0     H31460   8.147   2.978  10.441 -0.1926  0.2111 -0.7045
  974MOL0     H31461   8.007   2.893  10.504 -0.5066  2.2976 -1.5590
  974MOL0     H31462   8.167   2.831  10.248  1.1798  0.4288  3.1079
  974MOL0     H31463   8.062   2.715  10.313 -3.1901  0.2686 -0.2746
  974MOL0     H31464   7.961   2.843  10.135  1.3379 -3.4941  1.1705
  974MOL0     H31465   8.002   2.994  10.194 -0.1045 -1.5115 -3.6678
  974MOL0     H31466   7.749   2.873  10.230  1.1704  0.6772 -1.6679
  974MOL0     H31467   7.831   2.841  10.387  2.0641 -0.6286  0.1154
  974MOL0     H31468   7.781   3.112  10.238  2.7144  1.8230  2.1811
  974MOL0     H31469   7.846   3.118  10.394 -2.5925  2.5318  0.1298
  974MOL0     H31470   7.567   3.010  10.333 -3.1650  0.4988  1.8783
  974MOL0     H31471   7.607   3.162  10.409  0.2217  0.7619 -1.2153
  974MOL0     H31472   8.567   2.720  10.407  1.3343  1.4074 -1.3077
  974MOL0     H31473   8.757   2.632  10.258 -1.5031  1.4944 -0.7106
  974MOL0     H31474   8.989   2.469  10.021  0.5925 -1.4802 -0.3797
  974MOL0     H31475   9.192   2.458   9.885  0.9450  2.7816 -3.1299
  974MOL0     H31476   8.927   2.428  10.488 -0.8578  0.3760 -2.6629
  974MOL0     H31477   8.788   2.527  10.709  0.0576 -0.3113  0.2924
  974MOL0     H31478   8.955   2.934  11.064 -0.0377  2.5422 -0.0317
  974MOL0     H31479   8.834   3.050  11.257 -2.0788  0.6602  1.4543
  974MOL0     H31480   8.421   2.949  11.321  3.0510  2.4655 -4.2178
  974MOL0     H31481   8.550   2.873  11.429 -0.5605  0.3758  1.7025
  974MOL0     H31482   8.384   3.124  11.467 -0.4152  0.1906  2.2890
  974MOL0     H31483   8.530   3.107  11.553 -0.8893  1.2433  0.5214
  974MOL0     H31484   8.287   3.020  11.653 -1.5576  0.1578 -5.7452
  974MOL0     H31485   8.448   2.944  11.696 -1.6936 -0.0167  3.6915
  974MOL0     H31486   8.377   2.772  11.538 -0.1961  0.3511 -4.6094
  974MOL0     H31487   8.234   2.879  11.489  2.3868  2.5245 -0.5868
  974MOL0     H31488   8.089   2.662  11.800  1.6273 -3.4952 -3.3813
  974MOL0     H31489   8.469   2.867  11.125 -1.1421  0.1584 -1.4898
  974MOL0     H31490   8.586   2.743  10.958 -0.7435 -1.0957  2.3384
  975MOL0     O31491  10.406   1.181   9.729  0.4117 -0.1514  0.0870
  975MOL0     C31492  10.480   1.266   9.777  0.5621 -0.3277  0.0806
  975MOL0     O31493  10.432   1.374   9.852  0.4243  0.2874 -0.0979
  975MOL0     C31494  10.297   1.369   9.901 -0.0958  0.1862 -0.5995
  975MOL0     C31495  10.192   1.428   9.848 -0.1746 -0.2930  0.4947
  975MOL0     C31496  10.067   1.429   9.906 -0.0609  0.0192 -0.4177
  975MOL0     C31497  10.055   1.368  10.036  0.2518  0.6296 -1.2165
  975MOL0     O31498   9.934   1.341  10.097  0.1165  0.3569  0.4271
  975MOL0     C31499   9.831   1.436  10.078 -0.1827  0.1141  0.2530
  975MOL0     C31500   9.728   1.399  10.185  0.1212  0.1314 -0.2139
  975MOL0     C31501   9.609   1.321  10.128  0.4808  0.9337  0.3110
  975MOL0     C31502   9.485   1.410  10.103  0.4013 -0.0033  0.7435
  975MOL0     C31503   9.363   1.339  10.044  0.0462 -0.5504 -0.5921
  975MOL0     C31504   9.264   1.424   9.968 -0.1285 -0.4680 -1.1245
  975MOL0     C31505   9.209   1.530  10.061  0.5738 -0.9844  0.2351
  975MOL0     C31506   9.122   1.477  10.176 -0.2205 -0.2184  0.2376
  975MOL0     N31507   8.997   1.543  10.209  1.1988  0.3190 -0.0373
  975MOL0     C31508   8.938   1.535  10.332 -0.3543 -0.5945  0.0606
  975MOL0     C31509   8.821   1.602  10.309 -0.2244 -0.0374 -0.4055
  975MOL0     C31510   8.728   1.636  10.417 -0.5371  0.3706  0.0655
  975MOL0     C31511   8.585   1.667  10.362 -0.3778 -0.5315 -0.0150
  975MOL0     C31512   8.487   1.707  10.471  0.8896 -0.3246 -0.0090
  975MOL0     C31513   8.351   1.743  10.417  0.7523 -0.1646  0.3774
  975MOL0     O31514   8.319   1.636  10.329  0.9206  0.0500 -0.0807
  975MOL0     C31515   8.189   1.619  10.278  0.3627  0.3606  0.3943
  975MOL0     C31516   8.181   1.536  10.166 -0.7171 -0.0829  0.5475
  975MOL0     C31517   8.070   1.509  10.092  0.4789 -0.1991  0.8080
  975MOL0     C31518   8.089   1.433   9.962  0.3808 -0.2616 -0.2788
  975MOL0     C31519   7.942   1.563  10.139 -0.4474  0.2238 -0.5115
  975MOL0     C31520   7.810   1.531  10.082 -0.1627 -0.4266  0.4252
  975MOL0     O31521   7.701   1.591  10.148 -0.6511 -0.2902 -0.0194
  975MOL0     C31522   7.571   1.562  10.115 -0.3497  0.2586 -0.1357
  975MOL0     C31523   7.473   1.656  10.136  0.3378  0.9640  0.8608
  975MOL0     C31524   7.336   1.635  10.099 -0.2074 -0.0452 -0.5132
  975MOL0     C31525   7.298   1.505  10.064  0.4908  0.1405  1.0130
  975MOL0     O31526   7.168   1.468  10.024  0.1717 -0.1469 -0.6389
  975MOL0     C31527   7.065   1.507  10.116 -0.2341 -0.7565 -0.0200
  975MOL0     C31528   6.952   1.574  10.029 -1.0820 -0.4660  0.5827
  975MOL0     C31529   6.858   1.655  10.115 -0.2288 -0.2732 -0.6906
  975MOL0     C31530   6.760   1.572  10.204  0.0433  0.1287 -0.0941
  975MOL0     C31531   6.625   1.641  10.217 -0.6269  0.1569 -0.7466
  975MOL0     C31532   6.535   1.559  10.316 -0.4225  0.0515 -1.0499
  975MOL0     C31533   6.393   1.622  10.345  0.0343  0.2774  0.3069
  975MOL0     C31534   6.306   1.501  10.414  0.2747 -0.8505 -0.0171
  975MOL0    Cl31535   6.235   1.368  10.309  0.2998  0.4821  0.3332
  975MOL0     C31536   7.394   1.402  10.058  0.0316 -1.2410  0.9613
  975MOL0     C31537   7.531   1.433  10.074  0.3237  0.5725 -0.6391
  975MOL0     O31538   7.804   1.475   9.974 -0.5470  0.0016  0.1194
  975MOL0     C31539   7.945   1.645  10.252  0.0053 -0.2947 -0.1094
  975MOL0     C31540   8.065   1.681  10.312 -0.4751  0.1505  0.6335
  975MOL0     N31541   8.814   1.647  10.184 -0.6467 -0.0291  0.1775
  975MOL0     N31542   8.917   1.601  10.117  0.3307  0.0476 -0.5954
  975MOL0     C31543  10.164   1.298  10.088 -0.6831 -0.0596  0.1776
  975MOL0     C31544  10.293   1.301  10.022  1.1673 -0.2775 -0.8187
  975MOL0     C31545  10.618   1.267   9.747 -0.6992 -0.1771 -0.5845
  975MOL0     C31546  10.694   1.382   9.799  0.3831  1.0661 -0.4645
  975MOL0     C31547  10.830   1.389   9.778  0.4970  0.6134  1.2376
  975MOL0     C31548  10.903   1.284   9.715 -0.7023  0.0984  0.3657
  975MOL0     O31549  11.035   1.297   9.672  0.1953  0.2811  0.2723
  975MOL0     C31550  11.129   1.390   9.733 -0.3090 -0.7272  0.5320
  975MOL0     C31551  11.173   1.343   9.871 -0.3184  0.1593 -0.6578
  975MOL0     C31552  11.222   1.202   9.880  0.0376  0.7242 -0.1218
  975MOL0     C31553  11.343   1.181   9.791 -0.7532 -0.4346  1.0063
  975MOL0     C31554  11.460   1.273   9.828  0.4486 -0.7769 -0.1292
  975MOL0     C31555  11.557   1.345   9.853  0.0711 -0.4229 -0.5378
  975MOL0     C31556  10.828   1.176   9.664 -0.1201 -0.6619  0.2349
  975MOL0     C31557  10.684   1.164   9.684 -0.5102  0.1963  0.8026
  975MOL0     H31558  10.212   1.492   9.763  0.8180  1.4860  1.9967
  975MOL0     H31559   9.985   1.478   9.854  0.5679  3.3279  1.4490
  975MOL0     H31560   9.871   1.537  10.087 -0.7014  0.1430  3.4439
  975MOL0     H31561   9.789   1.437   9.977 -0.6893  0.0330  0.4581
  975MOL0     H31562   9.782   1.341  10.261  0.8255  2.1476  0.8957
  975MOL0     H31563   9.682   1.479  10.244 -0.5610 -0.5969  0.2608
  975MOL0     H31564   9.646   1.268  10.039  1.7056  2.6810 -0.2872
  975MOL0     H31565   9.572   1.245  10.197 -0.9545 -0.0374 -1.4477
  975MOL0     H31566   9.451   1.445  10.201 -1.3201 -2.9054  1.3217
  975MOL0     H31567   9.511   1.501  10.048  0.8351  1.1951  2.8103
  975MOL0     H31568   9.397   1.263   9.973  0.1382 -0.6229 -0.4701
  975MOL0     H31569   9.310   1.284  10.122 -0.3866  0.6849  0.0085
  975MOL0     H31570   9.317   1.469   9.884 -2.1402  2.0610 -1.1652
  975MOL0     H31571   9.181   1.369   9.922  0.1004 -3.2006  1.4172
  975MOL0     H31572   9.290   1.591  10.101  0.1436 -1.4292  1.8738
  975MOL0     H31573   9.147   1.590   9.994  1.3253 -1.7426 -1.1856
  975MOL0     H31574   9.197   1.488  10.255  2.6206 -1.5692 -2.0504
  975MOL0     H31575   9.108   1.369  10.168 -0.6825 -0.3370  2.1147
  975MOL0     H31576   8.972   1.478  10.418 -0.3422  1.0201  1.1640
  975MOL0     H31577   8.729   1.560  10.496 -0.2231 -0.6715 -0.9051
  975MOL0     H31578   8.769   1.720  10.473  2.3876 -0.7594 -0.2317
  975MOL0     H31579   8.548   1.574  10.318 -5.1353  0.3460  1.6305
  975MOL0     H31580   8.580   1.737  10.279 -1.4396 -0.6884 -0.0992
  975MOL0     H31581   8.526   1.794  10.525  1.2571  0.5086 -1.5699
  975MOL0     H31582   8.463   1.617  10.529 -0.8727 -0.2353 -0.5455
  975MOL0     H31583   8.345   1.837  10.361  1.2399 -0.1926  0.2779
  975MOL0     H31584   8.269   1.754  10.489 -0.0580  2.0904 -0.8044
  975MOL0     H31585   8.277   1.504  10.127 -0.3516  1.0445  0.4957
  975MOL0     H31586   8.052   1.482   9.872 -1.0738 -0.6027  0.1040
  975MOL0     H31587   8.194   1.407   9.949  1.2191  3.4321 -1.8905
  975MOL0     H31588   8.022   1.346   9.971 -2.4449  1.9239  1.8113
  975MOL0     H31589   7.505   1.751  10.178 -2.8876  2.6600 -0.1189
  975MOL0     H31590   7.272   1.723  10.107  0.5319  0.6940 -2.3079
  975MOL0     H31591   7.022   1.416  10.159 -0.7154 -0.1976  0.6817
  975MOL0     H31592   7.109   1.568  10.195  1.2152  0.7638 -1.8713
  975MOL0     H31593   6.990   1.639   9.949  0.5389 -1.1878  0.7153
  975MOL0     H31594   6.894   1.491   9.989 -1.7422  1.0715 -1.8745
  975MOL0     H31595   6.790   1.714  10.053  0.3023  1.3510  0.2179
  975MOL0     H31596   6.920   1.728  10.168 -0.8583 -0.7717  0.7558
  975MOL0     H31597   6.740   1.476  10.155  0.4693  1.1850 -2.4736
  975MOL0     H31598   6.800   1.547  10.303 -2.3843 -0.6763  0.7636
  975MOL0     H31599   6.581   1.629  10.117  1.5744 -2.1059 -1.5608
  975MOL0     H31600   6.639   1.743  10.252  2.8711  0.2685 -2.0880
  975MOL0     H31601   6.517   1.457  10.282 -1.6552  1.0244 -3.5557
  975MOL0     H31602   6.598   1.555  10.406  0.4532 -2.9992 -1.6792
  975MOL0     H31603   6.341   1.640  10.251 -2.7436  0.7917  1.8529
  975MOL0     H31604   6.386   1.716  10.400 -0.3648  1.0539 -1.0411
  975MOL0     H31605   6.221   1.541  10.472  0.3319 -2.7510  1.4820
  975MOL0     H31606   6.373   1.472  10.496  1.5340 -0.6480 -0.9473
  975MOL0     H31607   7.348   1.305  10.038  0.5524 -1.2498 -0.2325
  975MOL0     H31608   7.596   1.348  10.062  0.8738  0.8703  0.1315
  975MOL0     H31609   7.855   1.695  10.288  0.7263  0.8450  0.1600
  975MOL0     H31610   8.061   1.752  10.394 -3.2680  2.3187 -1.1994
  975MOL0     H31611  10.158   1.250  10.185  1.8938 -1.5931 -0.3394
  975MOL0     H31612  10.379   1.262  10.076  2.6008  3.0367 -0.4573
  975MOL0     H31613  10.640   1.462   9.850 -1.1976  0.9494 -1.8515
  975MOL0     H31614  10.870   1.482   9.816  1.9478  0.3112  0.5207
  975MOL0     H31615  11.222   1.393   9.676 -0.9168 -2.1359 -0.5761
  975MOL0     H31616  11.081   1.489   9.735  1.5897  0.2921 -1.3134
  975MOL0     H31617  11.098   1.345   9.950 -0.1156 -1.1909 -0.4051
  975MOL0     H31618  11.246   1.419   9.901  0.4726 -0.7175 -0.3360
  975MOL0     H31619  11.141   1.131   9.859  1.4757 -1.3876  1.1591
  975MOL0     H31620  11.253   1.181   9.983  2.0617 -2.1970 -1.2169
  975MOL0     H31621  11.313   1.200   9.688  0.5357  2.3310  1.0545
  975MOL0     H31622  11.382   1.079   9.795  2.5697  0.7118  0.6984
  975MOL0     H31623  11.644   1.405   9.874 -0.1490 -0.4063  0.3390
  975MOL0     H31624  10.886   1.102   9.609 -2.4080  0.0982 -3.5609
  975MOL0     H31625  10.623   1.082   9.645 -1.8993  0.6215  2.0024
  976MOL0     O31626   8.906   5.040   7.052  0.0355 -0.2682  0.0667
  976MOL0     C31627   8.878   5.139   6.983  0.4708 -0.3790 -0.1701
  976MOL0     O31628   8.766   5.220   7.007 -0.2037 -0.1619 -0.1670
  976MOL0     C31629   8.714   5.249   7.134 -0.2896  0.6383  0.4604
  976MOL0     C31630   8.625   5.353   7.128 -0.1965 -1.1136  0.2943
  976MOL0     C31631   8.563   5.405   7.243  1.3242  0.5057 -0.5877
  976MOL0     C31632   8.590   5.340   7.370  0.9808 -0.6857  0.4810
  976MOL0     O31633   8.533   5.392   7.485  0.3439  1.0029  0.1147
  976MOL0     C31634   8.388   5.377   7.509 -0.4996  0.0639  0.3734
  976MOL0     C31635   8.307   5.470   7.417  0.4184  0.2997  0.0732
  976MOL0     C31636   8.159   5.482   7.471  1.5542 -0.0725  0.5139
  976MOL0     C31637   8.053   5.531   7.362  0.8758 -0.3524  0.8300
  976MOL0     C31638   7.914   5.529   7.428  0.5263  0.7756 -1.2591
  976MOL0     C31639   7.892   5.613   7.566 -0.6219  0.2516  0.6099
  976MOL0     C31640   7.748   5.631   7.610  0.1294  0.2882 -0.3495
  976MOL0     C31641   7.652   5.675   7.493 -0.2955 -0.6795  0.2084
  976MOL0     N31642   7.516   5.714   7.543  0.5840  1.4177  0.1716
  976MOL0     C31643   7.415   5.770   7.463  0.2500  0.2597 -0.1742
  976MOL0     C31644   7.304   5.762   7.543  0.1616 -0.3315 -0.2127
  976MOL0     C31645   7.164   5.801   7.491 -0.7993  0.3216  0.6308
  976MOL0     C31646   7.111   5.682   7.415  0.1232  0.1132 -0.1501
  976MOL0     C31647   6.989   5.696   7.320 -0.0365  0.1861 -0.1311
  976MOL0     C31648   7.030   5.708   7.175  0.7539 -0.3183 -0.5522
  976MOL0     O31649   7.071   5.580   7.113 -0.2062 -0.8436  0.5262
  976MOL0     C31650   7.122   5.594   6.986 -0.4629  0.0433  0.0442
  976MOL0     C31651   7.115   5.708   6.910 -0.5747 -1.1497  0.0061
  976MOL0     C31652   7.182   5.716   6.785  0.0820  0.0904 -0.8465
  976MOL0     C31653   7.180   5.856   6.722 -0.6309  1.1114 -0.6675
  976MOL0     C31654   7.254   5.605   6.739 -0.1374 -0.8310  0.1842
  976MOL0     C31655   7.337   5.608   6.617  0.4552 -0.1789  1.2161
  976MOL0     O31656   7.462   5.552   6.623 -0.5001 -0.1784  0.7229
  976MOL0     C31657   7.548   5.545   6.517  0.0747 -0.1561  0.5437
  976MOL0     C31658   7.679   5.567   6.531 -0.7087 -1.4374 -0.3671
  976MOL0     C31659   7.766   5.572   6.419  0.3500  0.4413 -0.6049
  976MOL0     C31660   7.721   5.509   6.296  0.5653 -0.4672  0.2581
  976MOL0     O31661   7.819   5.489   6.204 -0.7551  0.4206  0.1814
  976MOL0     C31662   7.813   5.378   6.114  0.3793  0.5302  0.0838
  976MOL0     C31663   7.929   5.288   6.168  0.4076 -0.5618  0.0891
  976MOL0     C31664   7.954   5.146   6.121 -0.2696  0.0987  0.5463
  976MOL0     C31665   7.957   5.132   5.973  0.8617  0.4628  0.0248
  976MOL0     C31666   8.002   4.982   5.943 -0.2567 -0.2098  0.4753
  976MOL0     C31667   7.961   4.959   5.800 -1.1846  0.1916  0.1178
  976MOL0     C31668   8.040   4.845   5.740  0.1433  0.1313 -0.7752
  976MOL0     C31669   7.973   4.780   5.614 -0.9867 -0.8600  0.2725
  976MOL0    Cl31670   7.809   4.699   5.645  0.0550 -0.4024 -0.0286
  976MOL0     C31671   7.584   5.486   6.281  0.2554 -0.0682 -0.1103
  976MOL0     C31672   7.496   5.505   6.387 -0.0097  0.3479 -0.3223
  976MOL0     O31673   7.285   5.643   6.511  0.3527 -0.8477  0.7445
  976MOL0     C31674   7.266   5.496   6.814 -0.2542 -0.5124  0.8218
  976MOL0     C31675   7.195   5.485   6.930  1.3469 -0.5897 -0.5168
  976MOL0     N31676   7.344   5.723   7.672 -1.2679  0.2809  0.3215
  976MOL0     N31677   7.466   5.688   7.662 -0.4856 -0.1863  0.2740
  976MOL0     C31678   8.676   5.225   7.367  0.0993  0.2164  0.3601
  976MOL0     C31679   8.743   5.186   7.251 -0.0957  0.5556 -0.2016
  976MOL0     C31680   8.976   5.177   6.884  0.1790 -0.2002  0.3083
  976MOL0     C31681   8.961   5.299   6.816  0.3179  0.7497  0.1268
  976MOL0     C31682   9.054   5.335   6.721  0.0896 -0.7638  0.3682
  976MOL0     C31683   9.167   5.255   6.689 -0.8711 -0.1091  0.5937
  976MOL0     O31684   9.260   5.286   6.588  0.2478  0.3055  0.3266
  976MOL0     C31685   9.244   5.403   6.510  0.2064  0.8511  0.9680
  976MOL0     C31686   9.338   5.371   6.394  0.3425  0.2861 -1.0376
  976MOL0     C31687   9.311   5.486   6.292  0.4042  0.5303  0.2819
  976MOL0     C31688   9.355   5.454   6.145 -0.4343  0.0131 -0.8519
  976MOL0     C31689   9.333   5.573   6.056  0.9042 -0.2599 -0.3216
  976MOL0     C31690   9.329   5.686   6.001  0.0844  1.2499 -0.6974
  976MOL0     C31691   9.170   5.125   6.737 -0.6690  0.2605 -0.4503
  976MOL0     C31692   9.082   5.094   6.830  0.3012 -0.0768  0.0673
  976MOL0     H31693   8.612   5.418   7.042 -2.6777 -1.3349  0.4368
  976MOL0     H31694   8.502   5.494   7.231 -1.1003 -0.9477  0.3466
  976MOL0     H31695   8.353   5.277   7.483 -0.2198  0.7097 -3.0339
  976MOL0     H31696   8.376   5.403   7.615 -0.3048  2.6795 -0.1649
  976MOL0     H31697   8.344   5.573   7.415  2.9974 -0.4791 -3.5074
  976MOL0     H31698   8.321   5.427   7.317  1.1901 -1.6299  0.9725
  976MOL0     H31699   8.138   5.380   7.506  0.8073 -0.1181 -0.0411
  976MOL0     H31700   8.140   5.534   7.565 -4.0876 -1.7215  0.6509
  976MOL0     H31701   8.076   5.633   7.329 -1.0355 -0.6916 -1.7817
  976MOL0     H31702   8.072   5.476   7.270 -0.9557  1.0012 -0.4083
  976MOL0     H31703   7.833   5.562   7.362 -1.8510  2.3425  2.1683
  976MOL0     H31704   7.896   5.423   7.449  2.2011  0.8594  0.9745
  976MOL0     H31705   7.958   5.582   7.647  0.8979  1.2624 -0.1865
  976MOL0     H31706   7.918   5.718   7.550  0.1012  0.3126  2.0608
  976MOL0     H31707   7.715   5.538   7.657  1.8139  0.8206  2.1139
  976MOL0     H31708   7.748   5.704   7.692 -0.2272  0.4508 -0.4924
  976MOL0     H31709   7.640   5.592   7.424 -1.9582  0.7741 -1.3680
  976MOL0     H31710   7.695   5.761   7.442 -2.1921  2.6271  3.6163
  976MOL0     H31711   7.427   5.794   7.358  0.9841  0.2198 -0.1101
  976MOL0     H31712   7.095   5.837   7.569  0.2552  3.7839  0.1559
  976MOL0     H31713   7.179   5.895   7.436  0.6111  1.0264  2.1398
  976MOL0     H31714   7.081   5.624   7.503 -0.1805  2.0282  1.0627
  976MOL0     H31715   7.191   5.630   7.361 -1.5106 -4.0468  1.0315
  976MOL0     H31716   6.915   5.773   7.344  0.1728  0.1301  0.7164
  976MOL0     H31717   6.934   5.602   7.329  3.0297 -1.6179  1.3939
  976MOL0     H31718   7.115   5.777   7.177 -1.9387  3.3309  1.5461
  976MOL0     H31719   6.947   5.757   7.122  0.7532  0.7729  0.4155
  976MOL0     H31720   7.061   5.795   6.944 -1.2811 -1.9278  0.8948
  976MOL0     H31721   7.244   5.862   6.634  1.2140  2.3269  0.6895
  976MOL0     H31722   7.079   5.874   6.684 -1.7096  1.5065  2.1390
  976MOL0     H31723   7.198   5.931   6.799  0.6313 -1.0377  1.2327
  976MOL0     H31724   7.733   5.594   6.621 -3.5461  0.6715  0.8643
  976MOL0     H31725   7.871   5.596   6.431  0.6189 -1.0897  0.2583
  976MOL0     H31726   7.724   5.315   6.107  2.3133 -2.1930 -2.5476
  976MOL0     H31727   7.839   5.397   6.009  1.6742 -0.4546  0.2052
  976MOL0     H31728   8.020   5.348   6.156  0.1003 -0.1447 -0.1698
  976MOL0     H31729   7.917   5.286   6.277 -0.4399 -1.9660 -0.0106
  976MOL0     H31730   7.885   5.072   6.163  2.6708 -3.3087 -0.0603
  976MOL0     H31731   8.048   5.102   6.156 -0.1673  0.7175  1.0697
  976MOL0     H31732   7.852   5.155   5.952  1.0744  0.4486 -1.0845
  976MOL0     H31733   8.018   5.204   5.919 -0.9367  3.3272  1.5358
  976MOL0     H31734   7.942   4.905   5.993 -3.1946  0.2963 -1.9980
  976MOL0     H31735   8.110   4.976   5.960 -0.2496 -0.1340  0.4550
  976MOL0     H31736   7.857   4.928   5.814 -0.9864  0.5702  3.1110
  976MOL0     H31737   7.977   5.046   5.735 -0.5578 -2.1429 -3.0671
  976MOL0     H31738   8.055   4.774   5.822 -0.1272  1.5201  0.5489
  976MOL0     H31739   8.139   4.887   5.720  0.8115 -0.7492  0.5662
  976MOL0     H31740   8.041   4.709   5.565  0.5076 -0.3975  1.6009
  976MOL0     H31741   7.967   4.859   5.539  0.7938  2.3972  3.2383
  976MOL0     H31742   7.558   5.441   6.185 -3.0274 -1.0385  1.0721
  976MOL0     H31743   7.390   5.492   6.363  0.3744 -2.7857 -0.8138
  976MOL0     H31744   7.316   5.409   6.772 -1.4059 -1.3242  1.0836
  976MOL0     H31745   7.212   5.397   6.992 -1.2457  0.8415  2.5709
  976MOL0     H31746   8.682   5.150   7.445 -1.1118 -0.6748 -0.3606
  976MOL0     H31747   8.826   5.117   7.258  1.6567  2.7069  2.5806
  976MOL0     H31748   8.881   5.367   6.842 -0.7597  0.2515 -1.7413
  976MOL0     H31749   9.044   5.435   6.679 -2.4091  0.1683  2.8945
  976MOL0     H31750   9.139   5.411   6.482  0.7877 -1.5434 -2.4577
  976MOL0     H31751   9.280   5.496   6.556 -1.0849  2.5667 -1.3038
  976MOL0     H31752   9.313   5.273   6.354 -0.9100  0.4040 -0.5959
  976MOL0     H31753   9.438   5.361   6.437 -0.5388  0.1546  1.1174
  976MOL0     H31754   9.361   5.577   6.325  0.6574 -0.2228  2.1268
  976MOL0     H31755   9.209   5.523   6.295  0.2618  0.1875 -0.1027
  976MOL0     H31756   9.301   5.364   6.117  1.8170 -1.0725 -1.9971
  976MOL0     H31757   9.459   5.418   6.147 -0.4259  0.0733  0.7415
  976MOL0     H31758   9.318   5.789   5.973 -0.5050  1.6200  0.8456
  976MOL0     H31759   9.256   5.061   6.720  0.0236  1.1967 -0.6020
  976MOL0     H31760   9.075   4.993   6.868 -0.9230  0.3918  1.1626
  977MOL0     O31761   6.529   1.390   0.172 -0.3213  0.9035 -0.0398
  977MOL0     C31762   6.567   1.470   0.089  0.6887  0.3377 -0.2435
  977MOL0     O31763   6.473   1.546   0.020  0.2741 -0.2711 -0.5774
  977MOL0     C31764   6.344   1.508   0.031  0.3511 -0.4099  0.0917
  977MOL0     C31765   6.296   1.385  -0.013 -0.3434  0.0717  0.5416
  977MOL0     C31766   6.163   1.347   0.002 -0.2991  0.2053 -0.5206
  977MOL0     C31767   6.071   1.445   0.061  0.6858 -0.5479  0.8226
  977MOL0     O31768   5.930   1.428   0.059  0.2015 -0.2408 -0.6855
  977MOL0     C31769   5.878   1.300   0.016 -0.6351 -0.3558  0.0487
  977MOL0     C31770   5.720   1.318   0.020 -0.2648  0.2696  0.2476
  977MOL0     C31771   5.658   1.178   0.008  0.1936  0.4913 -0.1598
  977MOL0     C31772   5.512   1.187   0.044 -0.9460  0.3615 -0.1069
  977MOL0     C31773   5.452   1.042   0.059  0.1920 -0.2633 -0.1686
  977MOL0     C31774   5.461   0.941  -0.052 -0.0503  0.0229  0.7975
  977MOL0     C31775   5.342   0.954  -0.158  0.2865 -0.1037  0.0178
  977MOL0     C31776   5.331   1.092  -0.225 -0.9701 -0.4476 -0.3027
  977MOL0     N31777   5.249   1.058  -0.340  0.5709 -1.0960  0.0814
  977MOL0     C31778   5.120   1.010  -0.319 -0.3674  0.3654 -0.6521
  977MOL0     C31779   5.095   0.952  -0.438 -0.9524 -0.2707 -0.0568
  977MOL0     C31780   4.963   0.883  -0.468  1.3762 -0.2515 -0.0255
  977MOL0     C31781   4.840   0.976  -0.470  0.1177  0.2811  0.1418
  977MOL0     C31782   4.717   0.915  -0.533 -0.6969 -0.0854  0.4694
  977MOL0     C31783   4.660   0.794  -0.454 -0.5416  0.1003 -0.1746
  977MOL0     O31784   4.581   0.720  -0.546  0.5616 -0.0042 -1.1104
  977MOL0     C31785   4.492   0.641  -0.476  0.0464  0.9757  0.0248
  977MOL0     C31786   4.532   0.527  -0.405  1.2313 -1.1219 -0.5199
  977MOL0     C31787   4.442   0.445  -0.328  0.1691  0.2384 -1.2232
  977MOL0     C31788   4.493   0.324  -0.253 -0.3582  0.7039 -0.7602
  977MOL0     C31789   4.305   0.484  -0.331  0.3807 -0.2120 -0.3132
  977MOL0     C31790   4.212   0.410  -0.240  0.3608  0.2957  0.3257
  977MOL0     O31791   4.088   0.382  -0.300  0.1677 -0.1466  0.4257
  977MOL0     C31792   4.000   0.297  -0.230  0.0334 -0.5114  0.5743
  977MOL0     C31793   4.033   0.171  -0.196  1.2738  0.1547  0.1972
  977MOL0     C31794   3.945   0.085  -0.132 -0.0311 -0.5971  0.4544
  977MOL0     C31795   3.803   0.123  -0.126  0.4216  0.2287  0.7578
  977MOL0     O31796   3.698   0.041  -0.084 -0.1527 -0.3775  0.1495
  977MOL0     C31797   3.733  -0.092  -0.062 -0.0487  0.3746  0.7526
  977MOL0     C31798   3.590  -0.162  -0.079  0.2867 -0.1626  0.9136
  977MOL0     C31799   3.531  -0.162  -0.221  0.1310 -0.8863  0.2338
  977MOL0     C31800   3.403  -0.244  -0.228 -0.0223 -0.2720 -0.1689
  977MOL0     C31801   3.342  -0.262  -0.365 -1.1915  0.5331  0.1621
  977MOL0     C31802   3.195  -0.302  -0.351 -0.5381 -0.5104  0.9888
  977MOL0     C31803   3.104  -0.188  -0.288  0.3672  0.3444 -0.3422
  977MOL0     C31804   3.134  -0.042  -0.320  0.7860 -0.4484 -0.3944
  977MOL0    Cl31805   3.085  -0.023  -0.496  0.4915  0.1243 -0.3802
  977MOL0     C31806   3.765   0.251  -0.175 -0.0035 -1.0037  0.4854
  977MOL0     C31807   3.870   0.327  -0.220  0.9531 -0.5477  0.3435
  977MOL0     O31808   4.244   0.398  -0.120 -0.2348  0.0321  0.6563
  977MOL0     C31809   4.258   0.580  -0.420  0.2010  0.1569 -0.2738
  977MOL0     C31810   4.352   0.650  -0.494 -0.6166 -0.0627 -0.4796
  977MOL0     N31811   5.197   0.972  -0.523 -0.2140  1.0892 -0.0560
  977MOL0     N31812   5.296   1.036  -0.462  0.4403  0.4432  0.3519
  977MOL0     C31813   6.120   1.571   0.097 -0.0051  0.7239  0.0631
  977MOL0     C31814   6.257   1.606   0.083 -0.4820  0.0734  0.3418
  977MOL0     C31815   6.710   1.490   0.057  0.0973  0.1915  0.5549
  977MOL0     C31816   6.754   1.540  -0.064  0.4793  0.9255  0.1678
  977MOL0     C31817   6.885   1.563  -0.096  0.3749 -0.1364  0.1241
  977MOL0     C31818   6.975   1.534   0.004  0.2110 -1.4783 -0.6762
  977MOL0     O31819   7.110   1.535  -0.002 -1.1036  0.3819 -0.0443
  977MOL0     C31820   7.171   1.472  -0.115 -0.1698  1.0412  0.2920
  977MOL0     C31821   7.288   1.375  -0.071 -0.7313 -1.1064  0.3040
  977MOL0     C31822   7.412   1.448  -0.006 -0.5230 -0.9842  0.0641
  977MOL0     C31823   7.517   1.501  -0.113 -0.1279  0.1741  0.3527
  977MOL0     C31824   7.462   1.595  -0.206 -0.3546 -0.0915  0.7520
  977MOL0     C31825   7.405   1.664  -0.287 -0.3661 -0.5513 -0.2556
  977MOL0     C31826   6.934   1.484   0.130 -0.9692 -0.6455 -0.5065
  977MOL0     C31827   6.806   1.452   0.149  0.7825  0.1324  0.2076
  977MOL0     H31828   6.365   1.324  -0.069 -0.0505  0.4298  0.5069
  977MOL0     H31829   6.133   1.244  -0.018  1.0730 -0.2471 -0.3804
  977MOL0     H31830   5.899   1.263  -0.085 -4.5560 -4.4745  0.4389
  977MOL0     H31831   5.913   1.223   0.087 -0.9717 -0.2211  0.3608
  977MOL0     H31832   5.695   1.354   0.120  0.1949  2.0245 -0.2391
  977MOL0     H31833   5.690   1.384  -0.062 -0.3475 -0.3504 -0.2248
  977MOL0     H31834   5.685   1.145  -0.094  2.3830  0.0732  0.4928
  977MOL0     H31835   5.710   1.112   0.078 -1.5573 -0.9871 -0.1824
  977MOL0     H31836   5.513   1.243   0.137  2.2073  3.2932 -1.6863
  977MOL0     H31837   5.452   1.237  -0.034 -0.3878 -0.5045 -1.1155
  977MOL0     H31838   5.501   0.982   0.136  0.3272 -0.2090 -0.2120
  977MOL0     H31839   5.346   1.057   0.078  0.2802 -2.5144  2.8538
  977MOL0     H31840   5.562   0.936  -0.095  0.1168 -0.0168  1.1897
  977MOL0     H31841   5.442   0.841  -0.011  0.0152 -2.1214 -3.7723
  977MOL0     H31842   5.359   0.884  -0.240 -0.8000  3.9480 -4.0320
  977MOL0     H31843   5.251   0.932  -0.101  0.7856 -3.2964 -0.2415
  977MOL0     H31844   5.428   1.123  -0.263 -0.2478 -1.5387  0.6046
  977MOL0     H31845   5.287   1.174  -0.167  0.4755  0.2158 -0.1033
  977MOL0     H31846   5.048   1.013  -0.238 -0.3426  1.2834 -0.6499
  977MOL0     H31847   4.966   0.835  -0.567 -1.4357  0.1412 -0.3792
  977MOL0     H31848   4.958   0.808  -0.389  1.1701 -2.2155 -1.8039
  977MOL0     H31849   4.872   1.066  -0.525  1.7862  1.3989  2.7484
  977MOL0     H31850   4.806   1.001  -0.369 -1.6172  2.8400 -0.9529
  977MOL0     H31851   4.748   0.889  -0.635  1.2432  1.5910  0.5472
  977MOL0     H31852   4.634   0.982  -0.555 -1.7270 -1.5893 -0.4034
  977MOL0     H31853   4.601   0.831  -0.370 -1.8835  1.5885 -1.7038
  977MOL0     H31854   4.733   0.718  -0.425 -0.3492  0.1617 -0.4846
  977MOL0     H31855   4.640   0.513  -0.401  1.4527  0.3306 -0.8885
  977MOL0     H31856   4.512   0.333  -0.146 -1.7227  2.7547 -0.6383
  977MOL0     H31857   4.427   0.239  -0.273 -0.1232  0.2744  0.2524
  977MOL0     H31858   4.589   0.291  -0.293  1.2153  3.2271  0.6814
  977MOL0     H31859   4.134   0.137  -0.214  0.9856 -2.1074  2.2700
  977MOL0     H31860   3.975  -0.015  -0.102  0.4022 -1.0275 -1.2520
  977MOL0     H31861   3.801  -0.142  -0.132 -2.0757  1.2603 -2.0028
  977MOL0     H31862   3.774  -0.113   0.037  0.0337 -1.1826  0.4113
  977MOL0     H31863   3.602  -0.267  -0.051  2.2039  0.2679  1.8856
  977MOL0     H31864   3.517  -0.114  -0.014 -0.3899  1.0765 -0.6994
  977MOL0     H31865   3.597  -0.191  -0.302 -1.9325 -0.7352 -1.6067
  977MOL0     H31866   3.504  -0.058  -0.240 -0.8934 -0.6357  2.6442
  977MOL0     H31867   3.424  -0.344  -0.190  0.7540  0.0803  0.3860
  977MOL0     H31868   3.328  -0.190  -0.168 -0.4434 -0.0712 -0.8695
  977MOL0     H31869   3.392  -0.353  -0.399  0.2932  0.9558  1.0734
  977MOL0     H31870   3.366  -0.181  -0.435  4.2251 -0.7703  0.0774
  977MOL0     H31871   3.155  -0.318  -0.452  1.3170  0.0712  0.1168
  977MOL0     H31872   3.192  -0.390  -0.286  0.7006 -1.8902 -0.7213
  977MOL0     H31873   3.124  -0.215  -0.184  1.1997 -3.1183 -1.2553
  977MOL0     H31874   2.998  -0.203  -0.309  0.5024  0.0735 -0.8541
  977MOL0     H31875   3.242  -0.025  -0.308  0.5970  1.4500 -1.0808
  977MOL0     H31876   3.075   0.024  -0.256  2.1185  0.6883 -0.2943
  977MOL0     H31877   3.661   0.281  -0.178 -0.0677 -1.2831 -0.1231
  977MOL0     H31878   3.846   0.426  -0.257  2.4654 -0.8788 -1.6518
  977MOL0     H31879   4.150   0.588  -0.421  0.1393 -0.6742 -0.6813
  977MOL0     H31880   4.337   0.734  -0.561  1.7288  2.5752  2.0502
  977MOL0     H31881   6.052   1.645   0.137 -1.7992  0.1173 -1.6962
  977MOL0     H31882   6.295   1.702   0.114 -1.9208  1.2608 -1.3655
  977MOL0     H31883   6.690   1.554  -0.151 -0.4690 -0.4085  0.6242
  977MOL0     H31884   6.928   1.590  -0.191  2.2812 -1.8208  0.4453
  977MOL0     H31885   7.096   1.415  -0.172 -0.0160 -0.7723  1.7866
  977MOL0     H31886   7.210   1.551  -0.180 -0.1544 -0.5367 -1.7017
  977MOL0     H31887   7.330   1.333  -0.163 -0.7213  1.3100 -0.9025
  977MOL0     H31888   7.248   1.303   0.001 -1.1848 -2.2043 -1.0081
  977MOL0     H31889   7.456   1.376   0.064 -3.6931 -3.0346  0.1390
  977MOL0     H31890   7.376   1.530   0.058 -0.0977 -1.3077  0.7228
  977MOL0     H31891   7.555   1.416  -0.171 -1.2784  0.3067 -0.6289
  977MOL0     H31892   7.592   1.553  -0.052  0.7560 -0.2960 -0.3229
  977MOL0     H31893   7.360   1.732  -0.357  0.0175 -0.2419 -0.2025
  977MOL0     H31894   7.012   1.444   0.194  0.2753  3.0367  0.5069
  977MOL0     H31895   6.774   1.404   0.241 -1.1058  0.1963 -0.3713
  978MOL0     O31896  11.052   0.455  10.117 -0.6604 -0.2789 -0.1683
  978MOL0     C31897  11.022   0.336  10.102 -0.7309 -0.3197  0.1682
  978MOL0     O31898  10.898   0.294  10.097  0.0219 -0.2693  0.1519
  978MOL0     C31899  10.807   0.386  10.050  0.3944  0.9015  0.5769
  978MOL0     C31900  10.704   0.431  10.141 -0.6686  0.1257  0.4730
  978MOL0     C31901  10.612   0.520  10.094 -0.6296 -0.0560  0.2419
  978MOL0     C31902  10.617   0.580   9.966  0.1748 -0.1550 -0.2891
  978MOL0     O31903  10.514   0.661   9.927 -0.2263  0.0239  0.4230
  978MOL0     C31904  10.527   0.750   9.810  0.1727  0.1715  0.0615
  978MOL0     C31905  10.441   0.873   9.827 -0.5100  0.0923 -0.2598
  978MOL0     C31906  10.300   0.865   9.901  1.4202 -0.6320 -0.3396
  978MOL0     C31907  10.206   0.978   9.853  0.0892 -0.2749  0.4480
  978MOL0     C31908  10.069   0.971   9.914  0.2525 -0.5696 -0.2225
  978MOL0     C31909  10.063   0.953  10.072 -0.5399  0.4183  0.5897
  978MOL0     C31910   9.924   0.979  10.129 -0.4016  0.1697 -0.7482
  978MOL0     C31911   9.946   1.007  10.275 -0.3012 -0.1736  0.5027
  978MOL0     N31912   9.816   1.004  10.350 -0.3669 -0.3381 -0.4174
  978MOL0     C31913   9.816   1.025  10.488  0.1347  0.3019  0.2663
  978MOL0     C31914   9.683   1.059  10.510 -0.7412 -0.5226  0.3002
  978MOL0     C31915   9.656   1.113  10.652 -1.2607  0.0831 -0.6167
  978MOL0     C31916   9.507   1.140  10.686  0.3347  0.4688  0.2000
  978MOL0     C31917   9.416   1.024  10.709  0.3681 -1.0518  0.8202
  978MOL0     C31918   9.322   0.995  10.589 -0.0096 -0.1206  0.7394
  978MOL0     O31919   9.205   1.085  10.572 -0.0981 -0.0580 -0.2300
  978MOL0     C31920   9.138   1.089  10.450 -0.1361 -0.4822  0.3310
  978MOL0     C31921   8.994   1.095  10.439  0.3178 -0.0046 -0.2446
  978MOL0     C31922   8.934   1.101  10.312 -0.5890 -0.2281 -0.2593
  978MOL0     C31923   8.791   1.128  10.302 -0.5641 -0.1439 -1.2598
  978MOL0     C31924   9.005   1.076  10.197 -1.2395 -0.3479  0.1365
  978MOL0     C31925   8.949   1.082  10.057 -0.3796 -0.5454 -0.2724
  978MOL0     O31926   8.824   1.048  10.026  0.3611 -0.3963 -0.2640
  978MOL0     C31927   8.797   1.046   9.887  0.5139  0.2254  0.3045
  978MOL0     C31928   8.714   1.153   9.841  0.3803 -1.0975  0.5755
  978MOL0     C31929   8.656   1.147   9.712 -0.2120 -0.0350 -0.3702
  978MOL0     C31930   8.684   1.043   9.625 -0.0822 -0.4889  0.6975
  978MOL0     O31931   8.627   1.030   9.499  0.7506 -0.2077  0.3751
  978MOL0     C31932   8.620   1.156   9.429  0.3459 -0.1208 -0.7626
  978MOL0     C31933   8.475   1.222   9.435 -0.5373  0.3199  0.2136
  978MOL0     C31934   8.444   1.297   9.312  0.4655  0.2373  0.0660
  978MOL0     C31935   8.302   1.349   9.301  0.0502 -0.1995 -0.7183
  978MOL0     C31936   8.265   1.452   9.418  0.3346 -0.4218  0.6164
  978MOL0     C31937   8.124   1.512   9.388 -0.0445 -0.5311  0.2442
  978MOL0     C31938   8.079   1.598   9.500 -0.4919 -0.5672 -0.5791
  978MOL0     C31939   7.937   1.656   9.494  0.6042  1.0851 -0.3338
  978MOL0    Cl31940   7.891   1.686   9.664  0.3499  0.1431  0.2996
  978MOL0     C31941   8.771   0.942   9.676  0.2704  0.8187  0.4297
  978MOL0     C31942   8.826   0.939   9.807 -0.2105 -0.2550 -0.1677
  978MOL0     O31943   9.038   1.119   9.979  0.3214 -0.1895  0.4797
  978MOL0     C31944   9.146   1.056  10.205  0.2640  0.6468  0.0894
  978MOL0     C31945   9.205   1.069  10.328 -0.8765  0.3568 -0.8209
  978MOL0     N31946   9.615   1.043  10.385  0.1443  0.2001 -0.1743
  978MOL0     N31947   9.694   1.011  10.293  0.3835 -0.5042  0.7022
  978MOL0     C31948  10.717   0.532   9.879  0.2328 -0.0246 -0.0943
  978MOL0     C31949  10.808   0.436   9.921 -0.1254  0.3178  0.6888
  978MOL0     C31950  11.130   0.229  10.101  0.1681  0.6881 -0.3879
  978MOL0     C31951  11.269   0.255  10.093 -0.4648 -0.4325  0.5576
  978MOL0     C31952  11.357   0.152  10.091  0.3939 -0.0822  0.6506
  978MOL0     C31953  11.317   0.020  10.087  0.7574  0.6341 -0.6363
  978MOL0     O31954  11.418  -0.068  10.070  0.6258  0.4244 -0.3381
  978MOL0     C31955  11.400  -0.202  10.050  0.4997  0.4958 -0.6251
  978MOL0     C31956  11.544  -0.249  10.024 -1.1687  0.3331 -0.4867
  978MOL0     C31957  11.597  -0.172   9.892 -0.1813  0.3276 -0.0961
  978MOL0     C31958  11.670  -0.040   9.913  0.3537  0.3917 -0.2966
  978MOL0     C31959  11.798  -0.032   9.844  0.2216 -0.4952  0.8846
  978MOL0     C31960  11.897  -0.034   9.780  0.2384  0.8174  0.6657
  978MOL0     C31961  11.182  -0.007  10.093  0.4071  0.4583 -0.1193
  978MOL0     C31962  11.089   0.096  10.108 -0.5943 -0.1933  0.4796
  978MOL0     H31963  10.688   0.404  10.245  0.4586  0.6863  0.8101
  978MOL0     H31964  10.528   0.550  10.156 -2.1471 -2.7513 -0.3499
  978MOL0     H31965  10.633   0.775   9.804 -0.1842  2.2007  1.5027
  978MOL0     H31966  10.485   0.703   9.719 -1.0944  0.0533  0.6797
  978MOL0     H31967  10.497   0.958   9.867 -0.8419 -0.8884  2.5619
  978MOL0     H31968  10.439   0.911   9.725  1.0572  0.2234 -0.2658
  978MOL0     H31969  10.252   0.768   9.888  0.8229 -0.1250 -2.2371
  978MOL0     H31970  10.318   0.878  10.008 -1.8427 -0.0130  0.2121
  978MOL0     H31971  10.255   1.071   9.884  0.4244 -0.5521  0.7545
  978MOL0     H31972  10.194   0.974   9.745 -2.8418 -0.2845  0.6969
  978MOL0     H31973  10.012   1.062   9.895  0.4318 -0.4244 -0.0739
  978MOL0     H31974  10.009   0.891   9.869  3.1904 -3.3086  0.3304
  978MOL0     H31975  10.095   0.851  10.092 -1.3685  0.1873  0.7871
  978MOL0     H31976  10.139   1.023  10.108  0.2043 -0.5941  1.0249
  978MOL0     H31977   9.881   1.066  10.077 -1.1281  0.1131 -0.2662
  978MOL0     H31978   9.857   0.892  10.131 -0.1746 -0.0111 -0.9648
  978MOL0     H31979   9.996   1.104  10.284 -1.1447  0.3230 -0.0241
  978MOL0     H31980  10.003   0.920  10.309 -2.0286 -1.9931 -0.9725
  978MOL0     H31981   9.893   1.040  10.563  1.1450  1.8660 -1.0011
  978MOL0     H31982   9.678   1.035  10.725 -1.8702 -0.0414 -0.5529
  978MOL0     H31983   9.713   1.205  10.668 -1.1614 -0.1996  0.7934
  978MOL0     H31984   9.459   1.204  10.611 -0.3728  0.5713  0.7280
  978MOL0     H31985   9.518   1.201  10.777 -0.3180 -2.5783  2.4619
  978MOL0     H31986   9.360   1.034  10.802  0.8265 -0.2595  1.0132
  978MOL0     H31987   9.483   0.937  10.710 -1.0441 -2.1699  1.0134
  978MOL0     H31988   9.273   0.899  10.603 -1.9764  0.8572  0.8649
  978MOL0     H31989   9.376   0.981  10.495 -2.0974  0.5364 -0.6213
  978MOL0     H31990   8.935   1.105  10.529  1.4168 -2.6204  0.8690
  978MOL0     H31991   8.737   1.039  10.270  0.1663 -1.4811  1.0055
  978MOL0     H31992   8.756   1.153  10.403  1.6982 -1.6239 -0.0278
  978MOL0     H31993   8.778   1.216  10.237 -2.8125  0.0673 -0.6186
  978MOL0     H31994   8.693   1.227   9.917 -0.4884 -2.0425  1.2793
  978MOL0     H31995   8.585   1.226   9.692 -1.6524 -0.9861  0.7364
  978MOL0     H31996   8.695   1.227   9.465  0.4726 -1.6671  2.2980
  978MOL0     H31997   8.644   1.135   9.324 -1.0322 -0.6546 -0.9993
  978MOL0     H31998   8.399   1.144   9.445 -3.7325  3.2706  0.5482
  978MOL0     H31999   8.447   1.271   9.529 -0.7342 -1.1700  0.9830
  978MOL0     H32000   8.446   1.236   9.221 -0.4412  2.9643 -1.8930
  978MOL0     H32001   8.517   1.377   9.300  0.9177 -0.4204 -1.8362
  978MOL0     H32002   8.309   1.412   9.212  2.2454 -1.4504 -1.5077
  978MOL0     H32003   8.222   1.275   9.292 -0.0798 -0.6434  2.7856
  978MOL0     H32004   8.336   1.536   9.422 -1.1899  0.9512  0.1374
  978MOL0     H32005   8.259   1.390   9.507  1.0495 -0.9408  0.3134
  978MOL0     H32006   8.123   1.571   9.296 -1.6113  1.2621  1.3438
  978MOL0     H32007   8.055   1.427   9.383  0.2253 -0.7413  0.0953
  978MOL0     H32008   8.146   1.684   9.496 -1.9546  0.5681 -3.5727
  978MOL0     H32009   8.087   1.543   9.595 -2.3757  3.7395  2.4040
  978MOL0     H32010   7.867   1.585   9.450  2.4299  1.7319 -4.9174
  978MOL0     H32011   7.943   1.748   9.435 -2.1659 -0.6219 -3.6248
  978MOL0     H32012   8.794   0.875   9.594  0.2632  2.6314 -1.1211
  978MOL0     H32013   8.890   0.857   9.836 -1.3812 -0.7087  1.2472
  978MOL0     H32014   9.218   1.037  10.127  0.5379  0.8196  0.2955
  978MOL0     H32015   9.314   1.071  10.330 -0.8564  0.2487 -1.4740
  978MOL0     H32016  10.722   0.570   9.777 -2.9332 -0.3521 -0.4687
  978MOL0     H32017  10.878   0.397   9.848 -1.2546 -0.3691 -0.0647
  978MOL0     H32018  11.319   0.351  10.098 -2.5321  0.6920  0.9425
  978MOL0     H32019  11.463   0.174  10.081  0.0218  2.3470  1.2810
  978MOL0     H32020  11.356  -0.254  10.136 -0.2267 -1.2351 -1.9811
  978MOL0     H32021  11.330  -0.216   9.968 -1.9368  1.7503  1.1351
  978MOL0     H32022  11.558  -0.357  10.010  1.7152 -0.1629  3.9214
  978MOL0     H32023  11.610  -0.217  10.106 -0.6775 -0.1324 -0.6979
  978MOL0     H32024  11.511  -0.160   9.825  0.3478  1.6001 -0.5683
  978MOL0     H32025  11.663  -0.238   9.836  1.7007  1.4775  0.6845
  978MOL0     H32026  11.675  -0.011  10.018  0.2487  2.1118 -0.7455
  978MOL0     H32027  11.622   0.050   9.873  0.9275  1.1766  0.7446
  978MOL0     H32028  11.982  -0.025   9.716 -0.4329  0.3301 -0.3056
  978MOL0     H32029  11.149  -0.107  10.116 -0.9673  1.4399  2.6650
  978MOL0     H32030  10.985   0.070  10.125 -0.7782 -0.7384 -1.3120
  979MOL0     O32031   3.549   7.116   2.893  0.1457 -0.2642  0.8443
  979MOL0     C32032   3.631   7.206   2.917 -0.1895  0.0237 -0.1369
  979MOL0     O32033   3.610   7.312   3.002 -0.2755  1.1134  0.2992
  979MOL0     C32034   3.485   7.346   3.030 -0.0698 -0.4455 -0.0835
  979MOL0     C32035   3.444   7.346   3.166 -0.7196  1.2573  0.1092
  979MOL0     C32036   3.314   7.388   3.193 -0.3426 -0.9024 -0.3490
  979MOL0     C32037   3.222   7.422   3.098  0.4055  0.1063 -0.9351
  979MOL0     O32038   3.099   7.467   3.133  0.2781  1.0277 -0.4466
  979MOL0     C32039   3.010   7.398   3.225 -0.4632 -0.0552 -0.1266
  979MOL0     C32040   2.864   7.421   3.180 -0.0566  0.4668 -0.0906
  979MOL0     C32041   2.805   7.306   3.097 -0.3856 -0.4092 -0.2158
  979MOL0     C32042   2.669   7.349   3.043  0.9239  0.4374  0.0606
  979MOL0     C32043   2.587   7.233   2.959  0.8761 -1.1421 -0.7578
  979MOL0     C32044   2.532   7.122   3.052  0.0643 -0.6603  0.4661
  979MOL0     C32045   2.443   7.018   2.992  0.3970  0.0220  1.2806
  979MOL0     C32046   2.504   6.922   2.877  0.6505 -0.4677  0.1675
  979MOL0     N32047   2.449   6.788   2.891 -0.0687  0.8512 -0.0034
  979MOL0     C32048   2.318   6.758   2.881  0.1665  0.6380 -0.2121
  979MOL0     C32049   2.315   6.621   2.876  0.3391  0.0408 -0.3381
  979MOL0     C32050   2.187   6.542   2.849  0.0486  0.6186 -0.2350
  979MOL0     C32051   2.204   6.400   2.883  0.2165  0.4373  0.1850
  979MOL0     C32052   2.077   6.323   2.855 -0.2621 -0.5408 -0.4444
  979MOL0     C32053   1.966   6.350   2.958 -0.8705 -0.0120 -0.0532
  979MOL0     O32054   1.860   6.258   2.936 -0.7458  0.1438  0.0973
  979MOL0     C32055   1.764   6.267   3.032 -0.0634  0.1605  1.0913
  979MOL0     C32056   1.778   6.271   3.169 -0.4302 -0.0602 -0.7224
  979MOL0     C32057   1.667   6.251   3.253 -0.4206  0.1846  0.0225
  979MOL0     C32058   1.700   6.241   3.397  0.1346  0.8774 -0.4372
  979MOL0     C32059   1.537   6.234   3.202 -0.3548 -0.7283  0.7915
  979MOL0     C32060   1.415   6.213   3.288 -0.1704 -1.0864  0.2746
  979MOL0     O32061   1.424   6.156   3.415 -0.1912  0.0440  0.5726
  979MOL0     C32062   1.316   6.132   3.486  0.8829 -0.4391  0.3773
  979MOL0     C32063   1.220   6.043   3.439 -0.3072 -0.1336 -0.1348
  979MOL0     C32064   1.091   6.028   3.490  0.3969 -1.0795 -0.3692
  979MOL0     C32065   1.059   6.118   3.603  0.1093  0.9223 -0.0580
  979MOL0     O32066   0.943   6.114   3.671  0.2397 -0.4253 -0.5630
  979MOL0     C32067   0.834   6.038   3.630  0.6128 -0.2600  0.2390
  979MOL0     C32068   0.851   5.888   3.677 -0.3195 -0.7277  0.1171
  979MOL0     C32069   0.761   5.793   3.603 -0.3188 -1.6101  0.6989
  979MOL0     C32070   0.754   5.673   3.687 -0.2693  0.5998 -0.5285
  979MOL0     C32071   0.639   5.573   3.642 -0.5775 -0.0196  0.3391
  979MOL0     C32072   0.644   5.511   3.502 -0.1965 -0.2999 -0.1267
  979MOL0     C32073   0.775   5.441   3.467  0.0927 -0.5418 -0.2674
  979MOL0     C32074   0.764   5.327   3.359 -0.1650 -0.3555 -0.0169
  979MOL0    Cl32075   0.918   5.277   3.294  0.3300  0.0570 -0.3240
  979MOL0     C32076   1.153   6.205   3.654 -0.5579  0.0974  0.8980
  979MOL0     C32077   1.278   6.215   3.596 -0.6945  0.5436  0.5122
  979MOL0     O32078   1.314   6.262   3.240 -0.6066 -0.0217  0.3878
  979MOL0     C32079   1.529   6.245   3.061  0.6255  0.2472 -0.5895
  979MOL0     C32080   1.635   6.256   2.978  0.7032  0.3243  0.1002
  979MOL0     N32081   2.450   6.579   2.872  0.4807 -0.6012 -0.2109
  979MOL0     N32082   2.527   6.677   2.885  0.5132  1.0535 -0.1731
  979MOL0     C32083   3.265   7.431   2.964  0.0536 -0.9413  0.4767
  979MOL0     C32084   3.395   7.387   2.933 -1.3298 -0.8185  0.4546
  979MOL0     C32085   3.757   7.207   2.848  0.0554 -0.2732 -0.5189
  979MOL0     C32086   3.791   7.129   2.731 -0.1053  0.6923 -0.9088
  979MOL0     C32087   3.912   7.124   2.677 -0.7616 -0.9196  1.2604
  979MOL0     C32088   4.016   7.207   2.728 -0.4574 -0.1256  0.0387
  979MOL0     O32089   4.126   7.221   2.655  0.4997  0.0168 -0.0314
  979MOL0     C32090   4.244   7.191   2.731 -0.1519 -0.1210  0.0740
  979MOL0     C32091   4.368   7.192   2.644 -0.3912  0.2783 -0.2088
  979MOL0     C32092   4.488   7.175   2.732  0.1692 -0.2066 -0.0120
  979MOL0     C32093   4.608   7.166   2.649 -0.6436 -0.7570 -0.1793
  979MOL0     C32094   4.735   7.184   2.730  1.6801  0.6756  1.1670
  979MOL0     C32095   4.841   7.214   2.773  0.3393  0.0827  0.5528
  979MOL0     C32096   3.992   7.276   2.847 -0.9843 -0.7675 -0.3918
  979MOL0     C32097   3.865   7.275   2.907 -0.7310  0.1751 -0.2441
  979MOL0     H32098   3.515   7.317   3.242  3.2938 -0.2403 -3.7451
  979MOL0     H32099   3.288   7.401   3.298 -1.9337  1.5755 -0.9678
  979MOL0     H32100   3.033   7.292   3.231 -2.6655 -0.5676  0.0841
  979MOL0     H32101   3.034   7.426   3.328  5.8397 -1.2286 -0.8841
  979MOL0     H32102   2.800   7.453   3.262  3.5339  2.8948  2.0287
  979MOL0     H32103   2.875   7.499   3.104  2.4693  0.8557  0.5920
  979MOL0     H32104   2.869   7.282   3.011 -1.9509  0.4879 -1.6994
  979MOL0     H32105   2.784   7.219   3.160 -5.4264  1.1139  0.6462
  979MOL0     H32106   2.614   7.390   3.128 -0.3254 -0.5293 -0.2589
  979MOL0     H32107   2.687   7.432   2.974 -0.0293  1.1249  0.6063
  979MOL0     H32108   2.507   7.284   2.905  0.3638 -0.2738  0.7484
  979MOL0     H32109   2.661   7.202   2.885  4.1571 -0.0996  1.8369
  979MOL0     H32110   2.611   7.073   3.110  0.9003 -1.3578 -1.2056
  979MOL0     H32111   2.467   7.166   3.128 -0.2879 -1.9797  0.9605
  979MOL0     H32112   2.424   6.951   3.076 -1.7467  2.2998  2.7675
  979MOL0     H32113   2.344   7.057   2.964 -0.7895 -2.5022  1.6904
  979MOL0     H32114   2.613   6.931   2.881  0.5416  0.9229  0.9212
  979MOL0     H32115   2.469   6.963   2.782  1.9705  2.9903  1.0094
  979MOL0     H32116   2.231   6.822   2.890 -1.0118 -0.9019 -0.1343
  979MOL0     H32117   2.111   6.579   2.918 -1.6635 -2.6441 -0.1535
  979MOL0     H32118   2.146   6.543   2.748 -1.2453  2.5946  0.2470
  979MOL0     H32119   2.237   6.383   2.986 -2.8417  0.2821  1.2401
  979MOL0     H32120   2.283   6.355   2.822  0.2856  0.5602  0.1849
  979MOL0     H32121   2.106   6.218   2.863 -1.3121 -0.7132  1.6662
  979MOL0     H32122   2.026   6.350   2.761 -1.5597 -0.7150  0.1855
  979MOL0     H32123   1.932   6.453   2.941  2.6054  1.9695  3.2650
  979MOL0     H32124   2.004   6.345   3.060  0.7180 -1.0715 -0.6680
  979MOL0     H32125   1.876   6.266   3.216  0.6661  1.0559 -2.7502
  979MOL0     H32126   1.669   6.142   3.432  1.0043  0.6042 -0.4269
  979MOL0     H32127   1.806   6.241   3.424  0.6894  2.7332 -2.3181
  979MOL0     H32128   1.650   6.312   3.464  0.2407  0.2496  0.3138
  979MOL0     H32129   1.235   5.991   3.345  0.5877  0.1511 -0.1614
  979MOL0     H32130   1.017   5.960   3.449 -0.1273 -0.6628 -0.1215
  979MOL0     H32131   0.741   6.084   3.665  1.2854  1.9419 -0.7118
  979MOL0     H32132   0.824   6.039   3.521 -0.1558  1.7574  0.2907
  979MOL0     H32133   0.955   5.857   3.668 -1.0939 -3.3569 -0.5089
  979MOL0     H32134   0.837   5.901   3.784  1.7743  2.9810  0.1219
  979MOL0     H32135   0.792   5.772   3.500 -0.8867 -0.5008  0.2807
  979MOL0     H32136   0.666   5.847   3.595  1.3108  1.3997 -0.1861
  979MOL0     H32137   0.845   5.614   3.681 -0.4664  0.0718  1.2353
  979MOL0     H32138   0.738   5.695   3.793  0.7562  0.8531 -0.4145
  979MOL0     H32139   0.549   5.633   3.639 -1.9700 -1.7163  3.4620
  979MOL0     H32140   0.625   5.494   3.717  0.2829 -0.5553 -0.0395
  979MOL0     H32141   0.559   5.443   3.495 -1.1373  0.7805  0.4563
  979MOL0     H32142   0.626   5.587   3.426 -1.4083 -0.8694 -0.4248
  979MOL0     H32143   0.812   5.399   3.560 -0.0806 -1.0435 -0.4227
  979MOL0     H32144   0.851   5.514   3.435  0.2283 -0.5014  0.1446
  979MOL0     H32145   0.698   5.360   3.278 -0.8011 -2.7003 -0.5298
  979MOL0     H32146   0.710   5.242   3.402 -3.7054  1.9260  0.5464
  979MOL0     H32147   1.131   6.255   3.748  0.1875 -0.2839  1.2858
  979MOL0     H32148   1.360   6.281   3.622  0.5567 -1.0335  0.7220
  979MOL0     H32149   1.433   6.226   3.014  1.6356  0.9431 -3.1147
  979MOL0     H32150   1.622   6.246   2.870  1.0652  0.4003  0.0454
  979MOL0     H32151   3.193   7.457   2.886 -0.4577  0.8223  1.4813
  979MOL0     H32152   3.426   7.382   2.829  1.8016 -4.9725  1.3454
  979MOL0     H32153   3.719   7.064   2.682 -0.7190  0.7361 -0.0913
  979MOL0     H32154   3.929   7.071   2.584 -1.1606  2.9966 -1.2743
  979MOL0     H32155   4.259   7.262   2.813  2.2299  0.7783 -1.0398
  979MOL0     H32156   4.232   7.089   2.769 -1.5857  0.0366  0.1060
  979MOL0     H32157   4.374   7.288   2.593 -1.4941  0.3388 -0.2631
  979MOL0     H32158   4.356   7.114   2.568 -1.2151 -0.7174  0.8947
  979MOL0     H32159   4.480   7.080   2.786 -0.9106  0.5319  1.1718
  979MOL0     H32160   4.484   7.261   2.799 -3.5777 -2.2018  2.7782
  979MOL0     H32161   4.604   7.254   2.585  1.5846 -0.9388 -0.6323
  979MOL0     H32162   4.622   7.074   2.592  2.4289  0.1930 -1.1424
  979MOL0     H32163   4.936   7.253   2.806  2.0135 -1.7277 -1.8301
  979MOL0     H32164   4.070   7.330   2.900 -0.3880 -1.3568 -0.6591
  979MOL0     H32165   3.854   7.338   2.995 -1.2415  3.0573 -2.2218
  980MOL0     O32166   4.600   6.645   9.938  0.1857  0.1546 -0.2788
  980MOL0     C32167   4.598   6.757   9.884  0.5050 -0.0892  0.1710
  980MOL0     O32168   4.484   6.831   9.864 -0.4059 -0.1429 -0.4940
  980MOL0     C32169   4.387   6.823   9.969  0.5495  0.2764  0.6284
  980MOL0     C32170   4.279   6.735   9.960 -0.2613  0.4390 -1.2253
  980MOL0     C32171   4.186   6.718  10.063  0.4829 -0.8003  0.0951
  980MOL0     C32172   4.203   6.801  10.180  0.1085 -0.2910  0.2509
  980MOL0     O32173   4.111   6.800  10.286 -0.4716  0.3844  0.3467
  980MOL0     C32174   4.043   6.671  10.326 -1.0351 -1.0745 -0.5103
  980MOL0     C32175   3.899   6.667  10.268 -0.2223 -0.2571 -0.7926
  980MOL0     C32176   3.810   6.564  10.322  0.2257  0.7496  0.6262
  980MOL0     C32177   3.668   6.564  10.267  1.3599 -0.4191 -0.4415
  980MOL0     C32178   3.553   6.509  10.360 -0.5333 -0.1019  0.3485
  980MOL0     C32179   3.415   6.504  10.292  0.7813  0.2997  0.1393
  980MOL0     C32180   3.305   6.425  10.370 -0.3056 -0.7943  0.8878
  980MOL0     C32181   3.303   6.463  10.515  0.0008  0.2443  0.3714
  980MOL0     N32182   3.195   6.398  10.580  0.7202  0.3001  0.1496
  980MOL0     C32183   3.209   6.268  10.608 -0.2605 -0.7424  0.0872
  980MOL0     C32184   3.093   6.240  10.667  0.7609 -0.5613 -0.9661
  980MOL0     C32185   3.066   6.107  10.731 -0.6007  0.1891  0.2066
  980MOL0     C32186   3.051   6.134  10.882 -0.2354 -0.1176  1.1302
  980MOL0     C32187   3.036   5.997  10.962  0.3603  0.2118 -0.1482
  980MOL0     C32188   2.896   5.947  10.980 -0.2010 -0.1631 -0.3021
  980MOL0     O32189   2.809   6.046  11.047  0.2319 -0.2619 -0.0153
  980MOL0     C32190   2.668   6.024  11.059 -1.3370 -0.3557 -0.3647
  980MOL0     C32191   2.580   6.126  11.077  0.3887  0.3950 -0.9883
  980MOL0     C32192   2.447   6.108  11.092  0.3537 -0.5980  0.5842
  980MOL0     C32193   2.369   6.233  11.121  0.3440  0.6499  0.6010
  980MOL0     C32194   2.387   5.983  11.083  0.1385  0.2388 -0.4420
  980MOL0     C32195   2.244   5.941  11.096 -0.5405  0.7063  0.6500
  980MOL0     O32196   2.212   5.818  11.046 -0.1413  1.1850 -0.4334
  980MOL0     C32197   2.078   5.783  11.055 -0.4877  0.9360 -0.2386
  980MOL0     C32198   2.006   5.751  10.937  0.1065 -0.3597  0.5006
  980MOL0     C32199   1.875   5.712  10.939  0.8903  0.0016  1.0587
  980MOL0     C32200   1.805   5.698  11.055 -0.7344 -0.4877  0.5714
  980MOL0     O32201   1.674   5.672  11.044  0.0142 -0.7070 -0.5273
  980MOL0     C32202   1.601   5.669  11.171  0.5837 -0.2648  0.3806
  980MOL0     C32203   1.454   5.620  11.151  0.3235 -0.0310 -0.5402
  980MOL0     C32204   1.370   5.731  11.084  0.1141  0.4993  0.1182
  980MOL0     C32205   1.221   5.691  11.095 -0.2907 -0.2732  0.8034
  980MOL0     C32206   1.191   5.587  10.985  0.2154 -0.0142 -0.7458
  980MOL0     C32207   1.058   5.517  11.011 -0.5124 -0.6702  0.0162
  980MOL0     C32208   1.013   5.420  10.898 -0.7760 -0.4856  0.0365
  980MOL0     C32209   0.879   5.359  10.937 -0.6899 -0.1306  0.1486
  980MOL0    Cl32210   0.793   5.289  10.793  0.2418  0.4032  0.3164
  980MOL0     C32211   1.877   5.712  11.180 -0.9242 -0.2983  0.2803
  980MOL0     C32212   2.012   5.750  11.179 -0.1962  0.1863  0.3048
  980MOL0     O32213   2.158   6.022  11.136  0.1314  0.6201  0.1371
  980MOL0     C32214   2.481   5.880  11.051  0.9026 -0.0958 -0.5154
  980MOL0     C32215   2.617   5.901  11.051  0.0823  0.3264 -0.6437
  980MOL0     N32216   3.011   6.353  10.682  0.2409 -0.3193  0.6971
  980MOL0     N32217   3.076   6.452  10.621  0.0393  0.1265  0.0371
  980MOL0     C32218   4.296   6.902  10.169 -0.7703 -0.6298  0.1974
  980MOL0     C32219   4.397   6.907  10.077 -0.2007 -0.5630  0.5883
  980MOL0     C32220   4.725   6.824   9.853 -0.7517  0.7094 -0.0543
  980MOL0     C32221   4.853   6.751   9.856  0.4042 -0.2267 -0.5356
  980MOL0     C32222   4.972   6.819   9.832  0.2435  0.3136  0.5203
  980MOL0     C32223   4.967   6.956   9.799  0.3298  0.4892 -0.2696
  980MOL0     O32224   5.077   7.034   9.781 -0.0713 -1.0436  0.1839
  980MOL0     C32225   5.212   6.975   9.790 -0.4719  0.2831  0.0893
  980MOL0     C32226   5.273   6.949   9.936 -0.0794  0.3546  0.2118
  980MOL0     C32227   5.351   7.071   9.976 -0.4320 -0.6153 -0.7819
  980MOL0     C32228   5.416   7.057  10.118  0.5699 -0.4701 -0.6734
  980MOL0     C32229   5.527   6.963  10.128  0.0637 -0.1199 -0.6716
  980MOL0     C32230   5.625   6.893  10.120 -0.2574 -0.6053  0.6554
  980MOL0     C32231   4.844   7.025   9.783 -0.6574  0.0771 -0.3077
  980MOL0     C32232   4.728   6.961   9.817 -0.1163 -0.3429  0.8852
  980MOL0     H32233   4.272   6.674   9.871  1.6348 -0.4711 -0.7884
  980MOL0     H32234   4.101   6.652  10.054  0.5857 -0.7405 -1.7312
  980MOL0     H32235   4.096   6.582  10.291 -0.7488 -1.3799  0.6825
  980MOL0     H32236   4.046   6.659  10.434  0.0981 -2.1618 -0.6504
  980MOL0     H32237   3.861   6.767  10.290  1.5139  0.1437  0.6692
  980MOL0     H32238   3.913   6.645  10.162  4.9282 -0.1964 -0.3961
  980MOL0     H32239   3.850   6.468  10.286 -1.5966  0.2979 -0.3146
  980MOL0     H32240   3.813   6.560  10.431 -2.5720  0.0399  0.7409
  980MOL0     H32241   3.629   6.664  10.250 -2.2875 -1.8142 -1.4203
  980MOL0     H32242   3.679   6.510  10.172  1.0154 -2.7576  0.7508
  980MOL0     H32243   3.587   6.407  10.379 -0.6485  0.3415  3.4080
  980MOL0     H32244   3.556   6.557  10.459 -3.1404 -0.5677  0.7071
  980MOL0     H32245   3.376   6.606  10.284 -1.7342 -0.5869  0.1893
  980MOL0     H32246   3.437   6.462  10.194 -0.3959  2.0585 -0.9159
  980MOL0     H32247   3.209   6.449  10.322 -1.0288 -1.9693  1.6870
  980MOL0     H32248   3.331   6.321  10.348  1.9445  0.4189 -3.2651
  980MOL0     H32249   3.291   6.572  10.520  1.3983  0.6999 -3.0904
  980MOL0     H32250   3.396   6.441  10.569 -1.4848 -0.1077  2.9410
  980MOL0     H32251   3.290   6.196  10.602  0.0266 -0.3336 -1.1587
  980MOL0     H32252   2.973   6.064  10.693 -0.8779 -0.5375  1.6354
  980MOL0     H32253   3.144   6.035  10.707 -0.3166  0.9933 -1.4093
  980MOL0     H32254   2.955   6.185  10.896  0.5604  2.3514 -1.4133
  980MOL0     H32255   3.134   6.189  10.927  0.6995 -1.3354  0.9516
  980MOL0     H32256   3.079   6.008  11.062  1.0779  0.3907 -0.4698
  980MOL0     H32257   3.090   5.916  10.911 -0.0946  0.2259 -0.6701
  980MOL0     H32258   2.921   5.856  11.036  4.9419  0.2416 -1.4905
  980MOL0     H32259   2.845   5.920  10.887 -1.8050 -2.7052  1.1851
  980MOL0     H32260   2.629   6.223  11.081  0.4465  0.4478 -2.6064
  980MOL0     H32261   2.342   6.251  11.225 -0.2086  1.0231  0.3952
  980MOL0     H32262   2.425   6.321  11.086  0.6110 -0.4727 -2.0385
  980MOL0     H32263   2.283   6.235  11.054 -0.9193  0.1061  2.1599
  980MOL0     H32264   2.059   5.751  10.842  1.5824  0.1275  1.2965
  980MOL0     H32265   1.822   5.700  10.845  0.4505  0.1275  1.2861
  980MOL0     H32266   1.648   5.591  11.232  2.2703 -1.2743 -2.0573
  980MOL0     H32267   1.612   5.767  11.219  2.1080  1.7420 -3.6532
  980MOL0     H32268   1.434   5.530  11.092 -2.0288  0.4593 -0.6235
  980MOL0     H32269   1.409   5.597  11.248 -1.9875 -0.0266 -1.5254
  980MOL0     H32270   1.413   5.742  10.984  0.8258  1.6201  0.5313
  980MOL0     H32271   1.375   5.823  11.143  0.0010 -2.3965  5.2520
  980MOL0     H32272   1.214   5.651  11.196 -0.7496 -0.4555  0.6984
  980MOL0     H32273   1.145   5.770  11.085 -2.1670 -2.2149 -1.2305
  980MOL0     H32274   1.268   5.509  10.975 -1.2053 -1.2390 -2.8764
  980MOL0     H32275   1.176   5.644  10.893  2.0128 -0.5806 -1.4578
  980MOL0     H32276   1.072   5.452  11.097 -1.4565 -1.2663 -0.2588
  980MOL0     H32277   0.990   5.597  11.042  0.6700  1.2823 -2.0937
  980MOL0     H32278   1.095   5.353  10.870  1.5751  2.8748 -1.8481
  980MOL0     H32279   0.991   5.476  10.806 -0.2792  1.2296  0.9193
  980MOL0     H32280   0.821   5.444  10.973  0.9356  0.2904  1.9602
  980MOL0     H32281   0.902   5.285  11.015  1.9114  0.3088 -0.1030
  980MOL0     H32282   1.836   5.668  11.270 -0.7490 -3.1477 -0.9259
  980MOL0     H32283   2.081   5.752  11.264 -0.4068  0.8062  0.4689
  980MOL0     H32284   2.442   5.780  11.032 -1.0522  1.0599 -3.1376
  980MOL0     H32285   2.670   5.808  11.031 -0.7572  0.3033 -3.1260
  980MOL0     H32286   4.310   6.976  10.247  2.3382  1.6604 -2.2766
  980MOL0     H32287   4.478   6.978  10.080  0.1250 -0.9539  1.7889
  980MOL0     H32288   4.855   6.648   9.890  1.2089 -0.3532 -0.9415
  980MOL0     H32289   5.070   6.775   9.846 -0.0545 -0.1175  1.2961
  980MOL0     H32290   5.205   6.882   9.733 -1.0638 -0.1909  0.8995
  980MOL0     H32291   5.277   7.043   9.735 -0.0992  1.8665  2.3524
  980MOL0     H32292   5.331   6.858   9.920 -0.6393 -0.6614  3.3293
  980MOL0     H32293   5.198   6.916  10.008 -0.5275 -3.9565 -1.9569
  980MOL0     H32294   5.280   7.154   9.977  1.3608  1.1334  3.2722
  980MOL0     H32295   5.429   7.078   9.901 -0.2321  1.1114 -0.4465
  980MOL0     H32296   5.344   7.018  10.191  0.9570  0.0815  0.0159
  980MOL0     H32297   5.439   7.158  10.154 -1.9211  0.2926 -1.0259
  980MOL0     H32298   5.714   6.837  10.097  0.7859  1.3476 -0.3315
  980MOL0     H32299   4.846   7.132   9.767 -0.6108 -0.1409 -1.9010
  980MOL0     H32300   4.637   7.020   9.813 -0.9046 -1.5783 -2.4071
  981MOL0     O32301   6.190   9.730   5.223 -0.1560  0.2568 -0.2358
  981MOL0     C32302   6.194   9.657   5.321  0.2191  0.3213  0.1374
  981MOL0     O32303   6.306   9.594   5.354 -0.0264  0.0995 -0.3323
  981MOL0     C32304   6.421   9.602   5.282  0.4151 -0.1352  1.7763
  981MOL0     C32305   6.494   9.725   5.265 -0.5412 -0.2095 -0.3010
  981MOL0     C32306   6.635   9.706   5.242 -0.2090  0.8841 -0.2682
  981MOL0     C32307   6.693   9.581   5.216  0.5453  0.4841  0.2431
  981MOL0     O32308   6.829   9.560   5.195 -0.2679 -0.4083 -0.3906
  981MOL0     C32309   6.914   9.674   5.216 -0.3938 -1.0901  0.2325
  981MOL0     C32310   7.066   9.639   5.232 -0.0448  0.8277 -0.1283
  981MOL0     C32311   7.105   9.556   5.113  0.0625 -0.0463  0.6801
  981MOL0     C32312   7.255   9.510   5.128  0.0105  0.7081  0.3784
  981MOL0     C32313   7.283   9.409   5.238 -0.9220  0.7747 -0.7145
  981MOL0     C32314   7.441   9.382   5.259  0.5312 -0.8166  0.0305
  981MOL0     C32315   7.474   9.251   5.181  0.3516  0.5735  0.8285
  981MOL0     C32316   7.628   9.249   5.152  0.1908 -0.4186 -0.1052
  981MOL0     N32317   7.676   9.111   5.131  0.4997  0.3644  0.3595
  981MOL0     C32318   7.731   9.059   5.019 -0.0451  0.4409 -0.1792
  981MOL0     C32319   7.763   8.930   5.051  0.2704 -0.3258  0.3147
  981MOL0     C32320   7.800   8.826   4.944 -0.5166 -0.9143 -0.0014
  981MOL0     C32321   7.938   8.856   4.892 -0.6096 -0.1010  0.1474
  981MOL0     C32322   8.056   8.848   4.989 -0.7301  0.1229 -0.9143
  981MOL0     C32323   8.103   8.712   5.050  0.5915 -0.1718 -0.2502
  981MOL0     O32324   8.214   8.722   5.140  0.5259  0.7020  0.0918
  981MOL0     C32325   8.171   8.752   5.270 -0.2657  0.6542 -0.0868
  981MOL0     C32326   8.046   8.771   5.330 -0.2280 -0.4123  0.1426
  981MOL0     C32327   8.029   8.799   5.472  0.2705 -1.1951 -1.4857
  981MOL0     C32328   7.890   8.813   5.514  0.2575 -0.0649  0.4904
  981MOL0     C32329   8.144   8.822   5.549 -0.4446 -0.3655 -0.6641
  981MOL0     C32330   8.136   8.871   5.694  0.0934  1.4482  0.7539
  981MOL0     O32331   8.257   8.904   5.748  0.6960 -0.4630 -0.6490
  981MOL0     C32332   8.272   8.923   5.884 -0.0513  0.0853  0.1309
  981MOL0     C32333   8.378   8.998   5.929 -0.1111 -0.3414  0.4206
  981MOL0     C32334   8.401   9.016   6.069  0.0822 -0.1614  0.4526
  981MOL0     C32335   8.309   8.972   6.158 -0.5931  0.0789 -0.4245
  981MOL0     O32336   8.333   9.022   6.285  0.2308  0.5814 -0.5192
  981MOL0     C32337   8.241   8.987   6.394  0.4253 -0.0702 -0.9951
  981MOL0     C32338   8.314   8.990   6.522 -0.0326 -0.0024 -0.4830
  981MOL0     C32339   8.218   9.021   6.642 -0.5505  0.2634 -0.4235
  981MOL0     C32340   8.294   9.058   6.771  0.3824 -0.3304 -0.4475
  981MOL0     C32341   8.193   9.050   6.884  0.6982 -0.2752  0.3787
  981MOL0     C32342   8.242   9.099   7.011 -0.1177  0.1758  0.1248
  981MOL0     C32343   8.277   9.250   7.030  0.1222  0.0444 -0.0086
  981MOL0     C32344   8.335   9.276   7.172 -0.3027  0.7988 -0.6813
  981MOL0    Cl32345   8.241   9.218   7.316 -0.1307  0.3184  0.6047
  981MOL0     C32346   8.198   8.910   6.108 -0.1046 -0.3342  0.7171
  981MOL0     C32347   8.183   8.866   5.978 -0.1534  0.3056  0.0748
  981MOL0     O32348   8.028   8.898   5.746  0.1174  0.2898 -0.7738
  981MOL0     C32349   8.266   8.811   5.494 -0.2480 -0.5135  0.3688
  981MOL0     C32350   8.279   8.778   5.354 -0.3152  0.0799 -0.3214
  981MOL0     N32351   7.739   8.910   5.185 -0.8303  0.1546  0.1973
  981MOL0     N32352   7.677   9.012   5.231 -1.4651  0.4880  0.0769
  981MOL0     C32353   6.613   9.462   5.214  0.4144  0.3419 -0.2353
  981MOL0     C32354   6.472   9.473   5.253  0.6137  0.5891 -0.3778
  981MOL0     C32355   6.066   9.626   5.388  0.1105  0.7113  0.5095
  981MOL0     C32356   5.949   9.679   5.333  0.4744 -0.7459 -0.1510
  981MOL0     C32357   5.822   9.645   5.394 -0.7836  0.3994 -0.5889
  981MOL0     C32358   5.815   9.557   5.500 -0.6448  0.1826 -0.7041
  981MOL0     O32359   5.686   9.537   5.549  0.8017  0.8456  0.4632
  981MOL0     C32360   5.621   9.403   5.547  0.0801 -0.6147  0.3798
  981MOL0     C32361   5.623   9.344   5.689 -0.0198  0.6794  0.6041
  981MOL0     C32362   5.532   9.415   5.787 -0.0474  0.3246  0.3065
  981MOL0     C32363   5.490   9.324   5.904  0.0350 -0.2746  0.3634
  981MOL0     C32364   5.606   9.298   5.984  1.0536  0.3530  0.8230
  981MOL0     C32365   5.708   9.281   6.044  0.4201  0.1296  0.5688
  981MOL0     C32366   5.931   9.505   5.557 -0.6950 -0.8603  0.2518
  981MOL0     C32367   6.061   9.544   5.502 -0.5901 -0.1214 -0.1521
  981MOL0     H32368   6.453   9.825   5.275 -0.9191 -0.3321 -0.6091
  981MOL0     H32369   6.697   9.794   5.227 -0.3643  0.7994 -1.5004
  981MOL0     H32370   6.909   9.729   5.122  1.0121 -3.5074 -1.3760
  981MOL0     H32371   6.886   9.738   5.300 -1.5112  1.4183 -1.9155
  981MOL0     H32372   7.136   9.722   5.248 -1.2715  2.1377 -1.2979
  981MOL0     H32373   7.079   9.575   5.320  0.6228  1.1684  0.0283
  981MOL0     H32374   7.030   9.481   5.084 -2.7504  2.7523  0.1560
  981MOL0     H32375   7.092   9.625   5.029  2.1087 -1.3699 -0.8144
  981MOL0     H32376   7.286   9.458   5.036  0.6674  1.6705  0.0360
  981MOL0     H32377   7.314   9.600   5.144 -0.0929  0.5629  1.6159
  981MOL0     H32378   7.243   9.446   5.333  1.9005  0.8533  0.5638
  981MOL0     H32379   7.228   9.317   5.220  0.7689 -0.4464  0.0918
  981MOL0     H32380   7.505   9.461   5.221 -0.1724 -2.2566 -4.8583
  981MOL0     H32381   7.452   9.358   5.365  1.5415 -1.6521 -0.2427
  981MOL0     H32382   7.450   9.168   5.248  2.1213 -0.7082 -0.0332
  981MOL0     H32383   7.424   9.252   5.084  1.9305  1.0495 -0.0248
  981MOL0     H32384   7.674   9.295   5.240 -1.1544  2.0117 -0.5630
  981MOL0     H32385   7.656   9.316   5.070  0.9847 -1.0641 -0.3774
  981MOL0     H32386   7.737   9.107   4.921 -4.4217  2.0538  0.1366
  981MOL0     H32387   7.813   8.727   4.989  2.6363 -1.2940 -1.4560
  981MOL0     H32388   7.719   8.820   4.870 -0.8802 -2.3021  0.4681
  981MOL0     H32389   7.943   8.956   4.849  0.1484  0.7690  2.1379
  981MOL0     H32390   7.955   8.774   4.821 -2.5435 -0.7817  0.3979
  981MOL0     H32391   8.026   8.910   5.074 -0.4330 -0.5903 -0.2752
  981MOL0     H32392   8.144   8.887   4.938  0.0489 -0.4230 -0.0324
  981MOL0     H32393   8.148   8.654   4.969  1.8292  2.6213 -1.7084
  981MOL0     H32394   8.022   8.659   5.102  1.4916  0.8735  2.4145
  981MOL0     H32395   7.960   8.760   5.266 -0.5679 -0.7715  0.6533
  981MOL0     H32396   7.871   8.921   5.524  3.4104  0.5454  1.1113
  981MOL0     H32397   7.822   8.786   5.433  0.4850  0.6218  0.0604
  981MOL0     H32398   7.880   8.756   5.607 -2.4461 -0.5918 -0.0324
  981MOL0     H32399   8.446   9.041   5.857  2.3782 -1.6662  1.8462
  981MOL0     H32400   8.482   9.085   6.089  0.5893 -0.6464  0.1079
  981MOL0     H32401   8.158   9.057   6.388  1.0570  0.7766 -0.0088
  981MOL0     H32402   8.195   8.888   6.383  0.2152 -0.3588  1.9045
  981MOL0     H32403   8.370   8.899   6.545  2.7971  2.0364  1.2886
  981MOL0     H32404   8.392   9.066   6.513 -1.9255  1.9302 -1.5970
  981MOL0     H32405   8.136   8.954   6.669 -1.2959  0.1901 -2.6416
  981MOL0     H32406   8.152   9.104   6.615  0.4416  1.6135  1.1146
  981MOL0     H32407   8.367   8.978   6.788  0.7915  0.5112  2.4462
  981MOL0     H32408   8.341   9.154   6.752 -0.0351  0.1294  0.7057
  981MOL0     H32409   8.171   8.944   6.894 -0.1056 -0.4381 -2.2929
  981MOL0     H32410   8.095   9.092   6.859  0.7918  0.4546  1.1907
  981MOL0     H32411   8.162   9.079   7.083 -1.5276  2.3287 -0.7268
  981MOL0     H32412   8.337   9.048   7.032  1.9017  3.1888 -0.9524
  981MOL0     H32413   8.186   9.310   7.029  2.0240  3.2220 -1.1924
  981MOL0     H32414   8.337   9.291   6.948 -1.3096 -0.4244 -1.3285
  981MOL0     H32415   8.347   9.383   7.192 -0.3792  0.1730  3.9266
  981MOL0     H32416   8.434   9.231   7.186  0.0692  1.7603 -0.1116
  981MOL0     H32417   8.126   8.865   6.176 -3.1888  1.0894 -1.3712
  981MOL0     H32418   8.108   8.792   5.950  0.5184 -0.3645 -0.0091
  981MOL0     H32419   8.355   8.821   5.555  1.5154 -1.3336 -1.9204
  981MOL0     H32420   8.377   8.789   5.310 -1.1119  0.0461 -2.1734
  981MOL0     H32421   6.653   9.365   5.187 -3.0596 -1.9064  1.9362
  981MOL0     H32422   6.415   9.381   5.263 -3.2144  2.9759  3.6960
  981MOL0     H32423   5.942   9.742   5.244  0.3215 -1.0725 -0.3754
  981MOL0     H32424   5.733   9.684   5.345 -0.3604 -0.3586 -2.0273
  981MOL0     H32425   5.519   9.420   5.512  0.7781  1.4042 -0.8647
  981MOL0     H32426   5.668   9.329   5.482 -1.0764 -0.7193 -0.3746
  981MOL0     H32427   5.722   9.322   5.730  0.6765 -2.4944 -2.3189
  981MOL0     H32428   5.581   9.244   5.673 -2.3070  1.6881 -0.1458
  981MOL0     H32429   5.434   9.440   5.744 -1.1273 -2.1818  1.1597
  981MOL0     H32430   5.577   9.510   5.818  2.8651 -0.9473  0.3025
  981MOL0     H32431   5.445   9.232   5.866 -1.6664 -0.0033  1.5911
  981MOL0     H32432   5.414   9.381   5.957  0.7853  2.8971 -1.6772
  981MOL0     H32433   5.802   9.265   6.093  0.0407 -1.9440  0.7035
  981MOL0     H32434   5.933   9.435   5.640 -3.8848 -2.4825 -0.8726
  981MOL0     H32435   6.149   9.510   5.555  0.0053 -0.3439 -1.2683
  982MOL0     O32436   7.468   5.711  10.378  0.1628 -0.2316  0.1273
  982MOL0     C32437   7.531   5.644  10.302 -0.2400  0.6855 -0.2411
  982MOL0     O32438   7.491   5.522  10.249  0.3652 -0.9522  0.0682
  982MOL0     C32439   7.350   5.499  10.255  0.4487  0.1781  0.2304
  982MOL0     C32440   7.312   5.374  10.308 -0.1211 -0.5289  0.3433
  982MOL0     C32441   7.183   5.339  10.321  0.0867  1.4064  0.9601
  982MOL0     C32442   7.082   5.433  10.288 -0.2189  1.2243  0.8412
  982MOL0     O32443   6.948   5.427  10.308 -0.2453  0.0495  0.4829
  982MOL0     C32444   6.894   5.303  10.365  0.4013 -0.6346  0.2183
  982MOL0     C32445   6.754   5.312  10.418 -0.3906 -0.5193 -0.7801
  982MOL0     C32446   6.734   5.416  10.536 -0.6805  0.0319 -0.4470
  982MOL0     C32447   6.592   5.428  10.578 -0.5301 -0.4722 -0.9424
  982MOL0     C32448   6.514   5.515  10.494  0.1923  0.0928 -1.2575
  982MOL0     C32449   6.379   5.565  10.551 -0.6835 -0.5623 -0.0495
  982MOL0     C32450   6.392   5.673  10.663  0.2230  0.2615  0.2047
  982MOL0     C32451   6.269   5.774  10.676 -1.0982 -0.1336  0.3863
  982MOL0     N32452   6.150   5.708  10.731 -0.1062  0.6182 -0.2796
  982MOL0     C32453   6.134   5.657  10.856 -0.0406  0.1573 -0.2196
  982MOL0     C32454   6.006   5.618  10.855  0.3985  0.0387 -0.7600
  982MOL0     C32455   5.948   5.560  10.987 -0.0791  0.9373  0.2800
  982MOL0     C32456   5.808   5.511  10.951 -0.0968  0.5935 -0.1372
  982MOL0     C32457   5.702   5.622  10.956 -0.2088 -0.3148 -0.4755
  982MOL0     C32458   5.567   5.543  10.931 -0.3266 -0.1367  0.0311
  982MOL0     O32459   5.458   5.638  10.917  0.1084 -0.8165  0.2118
  982MOL0     C32460   5.332   5.601  10.911 -0.0931 -0.3487 -0.4665
  982MOL0     C32461   5.302   5.492  10.831 -0.1546  0.5479 -0.1474
  982MOL0     C32462   5.172   5.450  10.810 -0.7128 -0.6113  0.6149
  982MOL0     C32463   5.140   5.353  10.699  0.3781  0.4522 -0.4197
  982MOL0     C32464   5.070   5.525  10.878 -0.5458 -0.2451  0.4655
  982MOL0     C32465   4.930   5.475  10.871  0.1906 -0.3591  0.4714
  982MOL0     O32466   4.896   5.340  10.829  0.3081 -0.4495  0.4126
  982MOL0     C32467   4.768   5.298  10.828  0.1851 -0.2288 -0.6689
  982MOL0     C32468   4.701   5.262  10.954 -0.6001 -0.0796  0.1641
  982MOL0     C32469   4.568   5.221  10.957 -1.0965  0.0514 -0.3752
  982MOL0     C32470   4.500   5.203  10.834 -0.4061 -0.7181 -0.3560
  982MOL0     O32471   4.374   5.150  10.849  0.5757  0.5615 -0.1867
  982MOL0     C32472   4.274   5.199  10.758  0.6526 -0.3018 -0.0312
  982MOL0     C32473   4.149   5.114  10.762  0.0927  0.4145  0.1822
  982MOL0     C32474   4.174   4.957  10.751  1.1467  0.4610 -0.8229
  982MOL0     C32475   4.198   4.922  10.605  0.2428  0.1882  0.6472
  982MOL0     C32476   4.226   4.774  10.599  0.0033  0.3517  0.4264
  982MOL0     C32477   4.270   4.736  10.456 -0.0621  0.1536  0.0957
  982MOL0     C32478   4.297   4.587  10.436  0.2528  0.3539 -1.0852
  982MOL0     C32479   4.391   4.555  10.317  0.8416 -0.2580  0.0701
  982MOL0    Cl32480   4.289   4.559  10.165 -0.2707  0.1439 -0.4846
  982MOL0     C32481   4.563   5.239  10.713  0.6450  0.0098  1.0701
  982MOL0     C32482   4.695   5.269  10.713 -0.6836 -0.6599  0.1766
  982MOL0     O32483   4.845   5.569  10.874  0.3332  0.0952 -0.6384
  982MOL0     C32484   5.100   5.627  10.970 -0.0217 -0.3621  0.5196
  982MOL0     C32485   5.235   5.664  10.990 -0.0037  0.5177 -0.2374
  982MOL0     N32486   5.949   5.634  10.729 -0.1329  0.4324  0.4081
  982MOL0     N32487   6.036   5.690  10.652 -1.1097  0.0837 -0.3194
  982MOL0     C32488   7.119   5.549  10.220 -0.5982 -0.4041  0.2477
  982MOL0     C32489   7.254   5.580  10.197  0.3220  0.3187 -0.2150
  982MOL0     C32490   7.676   5.679  10.276 -0.0478  0.1655 -0.2877
  982MOL0     C32491   7.771   5.592  10.219  0.6496  0.2422 -0.5254
  982MOL0     C32492   7.905   5.611  10.220  0.8795 -0.3114  0.2137
  982MOL0     C32493   7.948   5.727  10.287 -0.3696  0.0882 -0.1025
  982MOL0     O32494   8.084   5.744  10.296  0.1828 -0.3771  0.6211
  982MOL0     C32495   8.133   5.870  10.245  0.7946  0.0308  0.0778
  982MOL0     C32496   8.277   5.878  10.244 -0.6992 -0.4916 -0.1099
  982MOL0     C32497   8.339   5.890  10.375 -0.6657  0.5118  0.2368
  982MOL0     C32498   8.494   5.900  10.345  0.5999  1.1938 -0.5786
  982MOL0     C32499   8.558   5.889  10.476 -0.1328  0.2837 -0.8268
  982MOL0     C32500   8.602   5.864  10.588 -0.0747 -0.4785  0.2552
  982MOL0     C32501   7.855   5.827  10.325 -0.7107 -0.4102 -1.0099
  982MOL0     C32502   7.720   5.798  10.321  0.7179  0.3979 -0.3231
  982MOL0     H32503   7.391   5.310  10.345 -0.6327 -1.3473  0.0388
  982MOL0     H32504   7.156   5.239  10.352 -1.0556  1.2483 -0.4620
  982MOL0     H32505   6.881   5.226  10.288 -1.0737  1.2322 -1.5218
  982MOL0     H32506   6.956   5.264  10.446 -0.9724  1.0422  2.1541
  982MOL0     H32507   6.695   5.339  10.330 -0.2738  0.6659 -0.5189
  982MOL0     H32508   6.716   5.218  10.457 -3.0618  1.1071  0.8546
  982MOL0     H32509   6.803   5.368  10.607  0.5959  2.0155 -0.2530
  982MOL0     H32510   6.783   5.511  10.513  0.4382 -1.1046 -3.2020
  982MOL0     H32511   6.554   5.325  10.578 -0.3252 -0.6340 -4.2052
  982MOL0     H32512   6.594   5.467  10.680  3.7479 -0.6656 -0.7699
  982MOL0     H32513   6.575   5.601  10.464  5.5401 -2.9318 -0.3559
  982MOL0     H32514   6.498   5.457  10.402 -0.4421 -2.9046  0.6050
  982MOL0     H32515   6.326   5.597  10.461  1.8982 -0.5167 -1.6242
  982MOL0     H32516   6.328   5.480  10.598  0.1348 -2.3541 -2.2406
  982MOL0     H32517   6.407   5.619  10.757 -5.3430 -0.8151  0.8415
  982MOL0     H32518   6.478   5.734  10.634  0.2121  0.1616 -0.0442
  982MOL0     H32519   6.244   5.828  10.584 -2.1569  0.0121  0.7477
  982MOL0     H32520   6.301   5.861  10.733 -0.6040 -0.7333  1.0401
  982MOL0     H32521   6.190   5.660  10.948  0.0201  0.3254 -0.2625
  982MOL0     H32522   5.999   5.469  11.020 -1.8282 -0.9291 -1.8361
  982MOL0     H32523   5.944   5.630  11.071 -1.2798  1.1683  0.0519
  982MOL0     H32524   5.783   5.428  11.018 -1.3682  1.4943  0.5355
  982MOL0     H32525   5.807   5.470  10.850 -2.5108 -0.6706  0.3133
  982MOL0     H32526   5.718   5.684  10.867 -0.2077 -0.5795 -0.6614
  982MOL0     H32527   5.695   5.675  11.051 -1.1313  0.3847 -0.9184
  982MOL0     H32528   5.548   5.468  11.009  1.8185 -0.9101 -0.1228
  982MOL0     H32529   5.588   5.489  10.838  1.0385  0.9538 -0.3415
  982MOL0     H32530   5.377   5.432  10.780  2.0964  0.3599  3.0982
  982MOL0     H32531   5.066   5.384  10.625 -1.5174 -3.0867 -0.2687
  982MOL0     H32532   5.229   5.326  10.643  0.4763  2.0416 -1.0558
  982MOL0     H32533   5.109   5.255  10.739  0.6586  0.6410  0.2802
  982MOL0     H32534   4.747   5.273  11.052  3.3463  0.0949 -1.4856
  982MOL0     H32535   4.507   5.216  11.047 -3.1842  0.0023 -1.7282
  982MOL0     H32536   4.257   5.303  10.786 -0.7950 -0.8243  1.1710
  982MOL0     H32537   4.303   5.195  10.653  0.1986 -0.1067 -0.1657
  982MOL0     H32538   4.105   5.138  10.859 -3.4273  0.7448 -1.3670
  982MOL0     H32539   4.082   5.150  10.684 -0.3261  0.9731  0.7940
  982MOL0     H32540   4.080   4.911  10.783  1.4360  2.2456  3.1879
  982MOL0     H32541   4.252   4.929  10.821 -0.2690  1.7072  1.3861
  982MOL0     H32542   4.111   4.941  10.542  0.3550 -1.6777 -0.1093
  982MOL0     H32543   4.288   4.967  10.563 -1.0865 -0.0183 -2.6989
  982MOL0     H32544   4.142   4.713  10.635  0.8010  1.3109  4.3972
  982MOL0     H32545   4.313   4.750  10.660 -0.1026  1.0309  0.8524
  982MOL0     H32546   4.209   4.776  10.375  1.6909 -0.1191 -1.4502
  982MOL0     H32547   4.365   4.784  10.429 -1.0940  1.8964 -0.6218
  982MOL0     H32548   4.204   4.531  10.418  0.7418 -0.9710  0.2165
  982MOL0     H32549   4.347   4.556  10.529  1.8041 -0.1023 -2.0423
  982MOL0     H32550   4.448   4.464  10.335  0.4856 -0.7926 -1.3397
  982MOL0     H32551   4.463   4.638  10.314  0.3143  0.1973 -0.1702
  982MOL0     H32552   4.527   5.206  10.616 -0.3653 -1.0076  1.7657
  982MOL0     H32553   4.755   5.280  10.623 -0.3645 -2.6459  0.0988
  982MOL0     H32554   5.022   5.673  11.031  1.0420 -0.7836  2.2823
  982MOL0     H32555   5.262   5.751  11.050  1.2459 -1.0106  1.5528
  982MOL0     H32556   7.046   5.619  10.181 -1.3344 -1.3181 -0.0703
  982MOL0     H32557   7.283   5.664  10.134  1.9045 -1.2972 -1.7964
  982MOL0     H32558   7.742   5.493  10.184 -1.5709  1.2213 -1.6894
  982MOL0     H32559   7.963   5.542  10.160  2.3202  0.2882  0.8570
  982MOL0     H32560   8.086   5.873  10.146 -1.7477  2.0039  1.2173
  982MOL0     H32561   8.094   5.955  10.302  0.4407 -2.1707  3.3990
  982MOL0     H32562   8.319   5.958  10.183  2.7375 -3.3782 -1.9159
  982MOL0     H32563   8.317   5.790  10.192  0.9098 -0.4644  1.0147
  982MOL0     H32564   8.319   5.796  10.427  0.0361  0.2554  0.0555
  982MOL0     H32565   8.305   5.978  10.430 -0.9572  0.0815  0.7518
  982MOL0     H32566   8.509   6.005  10.318 -1.7157  1.4098 -1.2346
  982MOL0     H32567   8.527   5.831  10.267  1.0494  0.8439 -0.0933
  982MOL0     H32568   8.651   5.843  10.681  0.1889 -2.0090 -0.1970
  982MOL0     H32569   7.900   5.922  10.356  0.9779 -1.7070  0.7745
  982MOL0     H32570   7.650   5.875  10.350 -1.8298 -2.6113  2.3320
  983MOL0     O32571  10.438   6.087   2.431  0.0642  0.2566  0.4814
  983MOL0     C32572  10.513   5.995   2.402 -0.2808  0.3637  0.1419
  983MOL0     O32573  10.483   5.882   2.341  0.3382  0.7563  0.3211
  983MOL0     C32574  10.358   5.842   2.309  0.4187  0.3911  0.0912
  983MOL0     C32575  10.249   5.873   2.388 -0.4604  0.7818  0.1193
  983MOL0     C32576  10.120   5.824   2.360 -0.2647  0.5608  0.8721
  983MOL0     C32577  10.099   5.753   2.233 -0.5494 -0.4254  0.0545
  983MOL0     O32578   9.976   5.736   2.171 -0.2687 -0.0450 -0.0816
  983MOL0     C32579   9.846   5.769   2.233  0.2018  0.3109  0.0712
  983MOL0     C32580   9.759   5.831   2.126  0.7668 -0.0422  0.8549
  983MOL0     C32581   9.740   5.736   2.009  1.1652 -0.4296 -0.5509
  983MOL0     C32582   9.681   5.794   1.887  0.0739 -0.3756  0.2114
  983MOL0     C32583   9.627   5.691   1.783  0.1515  0.0927  0.4358
  983MOL0     C32584   9.576   5.756   1.650  0.1169  0.3292 -0.3183
  983MOL0     C32585   9.691   5.802   1.563  0.2436 -0.4180 -0.4930
  983MOL0     C32586   9.665   5.774   1.411 -0.2635  0.9951 -0.7188
  983MOL0     N32587   9.663   5.627   1.380  0.2933 -0.4493  0.2918
  983MOL0     C32588   9.660   5.511   1.461 -0.4190  0.2497  0.5302
  983MOL0     C32589   9.699   5.406   1.376 -1.1769  0.0291 -0.1589
  983MOL0     C32590   9.717   5.258   1.427 -0.1017  0.2597  0.3225
  983MOL0     C32591   9.865   5.232   1.466 -0.7766 -0.0146  0.2194
  983MOL0     C32592   9.967   5.310   1.379  0.5320 -0.5555  0.7939
  983MOL0     C32593  10.115   5.272   1.381  0.3339 -0.2279  0.1391
  983MOL0     O32594  10.185   5.315   1.497  0.0627  0.3941 -0.3428
  983MOL0     C32595  10.317   5.282   1.487 -0.2923  0.0765 -0.6366
  983MOL0     C32596  10.416   5.384   1.480  0.0696  0.1892  0.0592
  983MOL0     C32597  10.551   5.355   1.480  0.2367  0.2716  0.5623
  983MOL0     C32598  10.648   5.470   1.478  1.0080 -0.0409 -0.5051
  983MOL0     C32599  10.594   5.217   1.481  0.7285 -0.0776  0.1331
  983MOL0     C32600  10.738   5.171   1.482 -0.6669 -0.3438 -0.4065
  983MOL0     O32601  10.763   5.074   1.393 -1.1624  0.0293  0.4539
  983MOL0     C32602  10.895   5.040   1.365  0.4319 -0.4024 -0.5693
  983MOL0     C32603  11.007   5.109   1.391 -0.1798  0.3699  0.3371
  983MOL0     C32604  11.134   5.060   1.373 -0.8635  0.0584  0.1462
  983MOL0     C32605  11.148   4.924   1.327 -0.0860 -0.6809  0.3113
  983MOL0     O32606  11.265   4.858   1.290  0.1233 -0.2426 -0.0366
  983MOL0     C32607  11.392   4.914   1.339 -0.9062 -0.0654 -0.1353
  983MOL0     C32608  11.502   4.813   1.314 -0.7328  0.4018  0.4942
  983MOL0     C32609  11.634   4.851   1.390 -0.7109  1.0130  0.4234
  983MOL0     C32610  11.714   4.721   1.395  0.6428 -0.3600 -0.1266
  983MOL0     C32611  11.862   4.758   1.437 -0.0966  0.7733 -0.6620
  983MOL0     C32612  11.879   4.827   1.573 -0.0217  1.2926  0.3531
  983MOL0     C32613  12.023   4.816   1.631  0.0696  0.2117  0.3332
  983MOL0     C32614  12.066   4.679   1.675 -0.0965 -0.4090  0.0078
  983MOL0    Cl32615  12.184   4.701   1.814 -0.5168 -0.3887  0.1305
  983MOL0     C32616  11.031   4.852   1.306 -1.0485  0.3940  0.3475
  983MOL0     C32617  10.906   4.906   1.323  0.7969 -0.3119 -1.4423
  983MOL0     O32618  10.816   5.209   1.577 -0.7217 -0.0916 -0.2375
  983MOL0     C32619  10.498   5.112   1.478  0.3715  0.4396  1.1517
  983MOL0     C32620  10.359   5.146   1.485 -0.2379  0.6554 -0.7172
  983MOL0     N32621   9.708   5.462   1.245 -0.4225  0.0264  0.0774
  983MOL0     N32622   9.677   5.587   1.250 -0.0112 -0.5528 -0.0788
  983MOL0     C32623  10.212   5.706   2.170 -0.5919  0.2824  0.0499
  983MOL0     C32624  10.341   5.752   2.205  0.1152  0.1673 -0.4611
  983MOL0     C32625  10.655   6.008   2.442 -0.2980 -0.3046 -1.1370
  983MOL0     C32626  10.703   6.141   2.479  0.9383  0.1671 -0.0227
  983MOL0     C32627  10.827   6.156   2.527 -0.5022  0.1710 -0.8019
  983MOL0     C32628  10.921   6.049   2.529 -0.1267 -0.5834 -0.4172
  983MOL0     O32629  11.035   6.081   2.589 -0.2869 -0.0913 -0.2276
  983MOL0     C32630  11.143   6.056   2.503 -0.3626 -0.4020  0.1907
  983MOL0     C32631  11.262   6.144   2.549  0.3975  0.2439 -0.4792
  983MOL0     C32632  11.247   6.298   2.533  0.7230  0.4237  0.7873
  983MOL0     C32633  11.377   6.375   2.549 -0.6398  1.4075  0.2617
  983MOL0     C32634  11.349   6.505   2.509 -0.1777  0.1977  0.0984
  983MOL0     C32635  11.323   6.614   2.470 -0.1905  0.6856  1.1734
  983MOL0     C32636  10.886   5.929   2.470 -0.2093  0.3167  0.8340
  983MOL0     C32637  10.751   5.905   2.429  0.4815  0.1391  0.1968
  983MOL0     H32638  10.252   5.926   2.483 -0.3430 -0.6756  0.9587
  983MOL0     H32639  10.032   5.868   2.408 -0.4276  1.1185  0.0889
  983MOL0     H32640   9.800   5.683   2.281  2.2549 -0.6131  0.4820
  983MOL0     H32641   9.869   5.839   2.314  3.6212  0.8739 -1.1984
  983MOL0     H32642   9.661   5.855   2.170  0.2066 -0.2052 -0.2537
  983MOL0     H32643   9.797   5.924   2.083 -1.7905  0.6317 -0.1466
  983MOL0     H32644   9.836   5.692   1.980  0.8814 -1.2628 -0.2528
  983MOL0     H32645   9.662   5.664   2.035 -1.0128  1.4944 -1.2967
  983MOL0     H32646   9.606   5.871   1.910 -0.6558 -1.3967  1.3797
  983MOL0     H32647   9.761   5.856   1.847 -2.4156  1.6458 -2.0451
  983MOL0     H32648   9.707   5.624   1.748  1.1111  1.9413 -1.1403
  983MOL0     H32649   9.561   5.623   1.837 -0.1369  0.4467  0.5344
  983MOL0     H32650   9.508   5.685   1.603 -1.5686  0.7147  1.3848
  983MOL0     H32651   9.520   5.845   1.681  1.3982  1.0218  0.0720
  983MOL0     H32652   9.696   5.911   1.570 -2.7565 -0.0783 -1.9148
  983MOL0     H32653   9.788   5.759   1.586  0.9839  0.8922 -1.0631
  983MOL0     H32654   9.736   5.828   1.348  0.4385  0.6825 -0.2134
  983MOL0     H32655   9.564   5.798   1.377 -0.4849  1.5303  0.3018
  983MOL0     H32656   9.640   5.516   1.567 -2.3303  1.2360  0.1689
  983MOL0     H32657   9.650   5.241   1.512 -0.7633  2.4698  0.3206
  983MOL0     H32658   9.698   5.191   1.344  1.2414 -0.7041  0.7626
  983MOL0     H32659   9.889   5.126   1.455  2.3592  0.8718 -3.4461
  983MOL0     H32660   9.892   5.254   1.570  1.2151  2.0930 -0.6526
  983MOL0     H32661   9.960   5.418   1.398 -2.2048 -0.5564  0.3136
  983MOL0     H32662   9.931   5.291   1.277 -1.5626  3.6722  0.5036
  983MOL0     H32663  10.161   5.327   1.298  1.5130  0.8521  1.4537
  983MOL0     H32664  10.139   5.170   1.350  2.0148  0.9665 -2.9805
  983MOL0     H32665  10.383   5.487   1.485  0.2615  0.1979  1.8489
  983MOL0     H32666  10.617   5.541   1.401 -2.0376 -0.8289 -0.1072
  983MOL0     H32667  10.641   5.529   1.570  0.9619  0.3919 -0.7855
  983MOL0     H32668  10.753   5.441   1.467  0.9215 -0.2816 -0.7041
  983MOL0     H32669  11.009   5.210   1.432  0.7290  1.6998 -2.6998
  983MOL0     H32670  11.219   5.127   1.380 -0.3475 -0.4367 -1.1735
  983MOL0     H32671  11.428   5.007   1.295  1.5826 -0.8155  0.1739
  983MOL0     H32672  11.367   4.933   1.443 -1.9110  0.7581 -0.5078
  983MOL0     H32673  11.464   4.713   1.336  0.1719  0.6793  3.7242
  983MOL0     H32674  11.522   4.802   1.207 -1.7538  0.3219  0.3020
  983MOL0     H32675  11.612   4.896   1.488 -0.6221  3.9180 -0.7872
  983MOL0     H32676  11.692   4.925   1.334 -0.8332  1.0008  0.2824
  983MOL0     H32677  11.675   4.642   1.460  3.1608  0.0110  2.0500
  983MOL0     H32678  11.709   4.674   1.297 -2.0565 -1.5391  0.4872
  983MOL0     H32679  11.899   4.811   1.348 -0.1988 -0.4489 -1.4561
  983MOL0     H32680  11.914   4.662   1.436 -1.8725 -0.3292  2.3495
  983MOL0     H32681  11.852   4.932   1.557  0.8685  1.4391 -0.2575
  983MOL0     H32682  11.810   4.794   1.651  1.8542  2.0031  2.4145
  983MOL0     H32683  12.024   4.883   1.717 -1.0567  3.6679 -2.1047
  983MOL0     H32684  12.088   4.862   1.555 -0.9511  1.2207  0.0526
  983MOL0     H32685  12.096   4.622   1.586 -2.4143 -3.5063  1.0310
  983MOL0     H32686  11.983   4.628   1.724 -0.6481  0.9939  0.5792
  983MOL0     H32687  11.045   4.749   1.276  3.0326  1.2686 -1.4177
  983MOL0     H32688  10.815   4.852   1.300  0.2825  0.8237 -2.1464
  983MOL0     H32689  10.537   5.013   1.462  1.3413  0.9686  0.1427
  983MOL0     H32690  10.280   5.072   1.491  0.5310 -0.1406 -0.1770
  983MOL0     H32691  10.203   5.638   2.086 -2.1415  1.7235 -1.0050
  983MOL0     H32692  10.424   5.710   2.149  0.5450 -3.2930  2.4353
  983MOL0     H32693  10.636   6.226   2.476  0.8083  0.1015  0.8261
  983MOL0     H32694  10.864   6.250   2.568  0.9219 -1.5712  2.3207
  983MOL0     H32695  11.176   5.952   2.509 -0.2271 -0.5822 -2.4661
  983MOL0     H32696  11.119   6.080   2.399 -3.5068 -0.5967  0.7465
  983MOL0     H32697  11.353   6.114   2.497  0.1555 -0.3629 -0.5639
  983MOL0     H32698  11.279   6.108   2.651  2.5302 -0.5656 -1.0794
  983MOL0     H32699  11.180   6.327   2.614  1.4959 -1.8979  2.3701
  983MOL0     H32700  11.207   6.310   2.431 -0.0528 -1.3631  0.8423
  983MOL0     H32701  11.463   6.329   2.499 -0.9683  2.7191 -1.6138
  983MOL0     H32702  11.394   6.378   2.657  1.9056 -0.4100  0.0166
  983MOL0     H32703  11.297   6.707   2.425  0.1914  0.3379  0.2278
  983MOL0     H32704  10.960   5.850   2.458  1.6887  2.3404 -2.1393
  983MOL0     H32705  10.725   5.809   2.385  0.2328 -0.5667  1.8010
  984MOL0     O32706   8.994   4.825   1.603  0.8010 -0.3429  0.0649
  984MOL0     C32707   9.086   4.887   1.651  0.2210  0.4394  0.3303
  984MOL0     O32708   9.139   4.870   1.778  0.1899 -1.0099 -0.0966
  984MOL0     C32709   9.086   4.776   1.864  0.0405  0.2698  0.2747
  984MOL0     C32710   9.069   4.635   1.834  1.1257  0.3340  0.1327
  984MOL0     C32711   9.003   4.551   1.930 -0.0769  0.7615 -0.7241
  984MOL0     C32712   8.956   4.600   2.052  0.4564  0.1295 -0.7201
  984MOL0     O32713   8.895   4.519   2.149  0.1501  0.0208 -0.0212
  984MOL0     C32714   8.853   4.391   2.112 -0.2186 -0.3284  0.3717
  984MOL0     C32715   8.800   4.344   2.241  0.7680 -0.8722  0.1715
  984MOL0     C32716   8.759   4.201   2.231 -0.0174 -0.0233  0.0122
  984MOL0     C32717   8.679   4.160   2.362 -0.1128  0.7806 -0.3755
  984MOL0     C32718   8.666   4.007   2.361  0.1128  0.8754  0.2567
  984MOL0     C32719   8.598   3.957   2.501 -0.7858  0.0693  1.2863
  984MOL0     C32720   8.565   3.802   2.509 -0.4159 -0.0180  0.5412
  984MOL0     C32721   8.699   3.722   2.532 -0.0105 -0.2886 -0.2878
  984MOL0     N32722   8.693   3.574   2.511 -0.2832  0.2472 -0.0144
  984MOL0     C32723   8.795   3.505   2.442  0.4365 -0.1627  0.2376
  984MOL0     C32724   8.746   3.378   2.454 -0.9479  1.0860 -0.3612
  984MOL0     C32725   8.805   3.247   2.416 -0.6170  0.2755 -0.5586
  984MOL0     C32726   8.926   3.258   2.316  0.3196  0.5270 -0.9492
  984MOL0     C32727   8.874   3.290   2.182  0.0079  0.4988 -0.1236
  984MOL0     C32728   8.964   3.364   2.088 -0.0625  0.5618  0.4131
  984MOL0     O32729   8.890   3.395   1.966 -0.1127  0.1637  0.7161
  984MOL0     C32730   8.976   3.417   1.856 -0.1825 -0.5664  0.4256
  984MOL0     C32731   8.993   3.543   1.806  0.0440 -1.2214 -0.2400
  984MOL0     C32732   9.084   3.572   1.710  0.7598 -0.5059  0.4773
  984MOL0     C32733   9.096   3.721   1.670  0.3383 -0.5379 -0.5452
  984MOL0     C32734   9.166   3.470   1.661  0.6367  0.0865 -0.2803
  984MOL0     C32735   9.274   3.500   1.572  0.0481 -0.3213  0.1349
  984MOL0     O32736   9.262   3.501   1.431  0.0906 -0.5488  0.1626
  984MOL0     C32737   9.141   3.457   1.380 -0.7749 -0.1732 -0.3822
  984MOL0     C32738   9.039   3.544   1.332  0.0817  0.0583 -1.1620
  984MOL0     C32739   8.913   3.500   1.292  0.2576  0.1852 -0.5222
  984MOL0     C32740   8.888   3.358   1.282  0.2868 -0.1450  0.0108
  984MOL0     O32741   8.770   3.306   1.237  0.1710 -0.1381 -0.0463
  984MOL0     C32742   8.671   3.392   1.192 -0.3616  0.5247 -0.3858
  984MOL0     C32743   8.536   3.322   1.186 -1.3660 -0.6955  0.9465
  984MOL0     C32744   8.445   3.339   1.313  0.7970 -0.6459 -0.9758
  984MOL0     C32745   8.383   3.214   1.362  0.4659  0.0074  0.2908
  984MOL0     C32746   8.297   3.125   1.266  0.1486  0.1867  0.7317
  984MOL0     C32747   8.174   3.191   1.199  0.5147  0.2029 -0.1801
  984MOL0     C32748   8.083   3.254   1.298  0.0749  0.9636 -0.5327
  984MOL0     C32749   8.020   3.158   1.404  0.3597  0.7228 -0.2123
  984MOL0    Cl32750   7.892   3.039   1.327  0.1203  0.4174 -0.0315
  984MOL0     C32751   8.994   3.274   1.321 -0.1927  0.3944 -1.0555
  984MOL0     C32752   9.116   3.326   1.376  0.5419 -0.2710 -0.4445
  984MOL0     O32753   9.379   3.514   1.631  0.4977  0.5517 -0.1413
  984MOL0     C32754   9.150   3.338   1.716 -0.3650  0.3434 -1.1735
  984MOL0     C32755   9.054   3.313   1.810  0.4507  0.0341 -0.7617
  984MOL0     N32756   8.623   3.375   2.519 -0.4085  0.2560 -0.4143
  984MOL0     N32757   8.581   3.496   2.546  1.0076  0.0057 -0.2390
  984MOL0     C32758   8.994   4.736   2.088 -0.4948  0.7447 -0.5425
  984MOL0     C32759   9.055   4.820   1.999 -0.0923  0.4799 -0.4391
  984MOL0     C32760   9.153   4.988   1.574 -0.6011 -0.6499 -0.0857
  984MOL0     C32761   9.079   5.054   1.475 -0.8484  0.0907  0.5474
  984MOL0     C32762   9.134   5.162   1.404 -0.3984  0.1835 -0.4641
  984MOL0     C32763   9.260   5.211   1.433  0.6696 -0.1903 -0.3786
  984MOL0     O32764   9.316   5.322   1.373 -0.2809 -0.0653 -0.1639
  984MOL0     C32765   9.245   5.395   1.275 -0.2594  0.4386  0.6351
  984MOL0     C32766   9.329   5.495   1.184 -0.1904  1.3422 -1.2102
  984MOL0     C32767   9.409   5.429   1.066 -0.6679  0.6352  0.6856
  984MOL0     C32768   9.472   5.541   0.982  0.0887 -0.0829  0.5356
  984MOL0     C32769   9.370   5.603   0.893  0.2821 -0.0927 -0.2684
  984MOL0     C32770   9.274   5.647   0.830  0.0577  1.1628  0.2105
  984MOL0     C32771   9.341   5.136   1.529 -0.1861 -0.4999  0.6847
  984MOL0     C32772   9.281   5.038   1.599  0.5094 -0.4882 -0.0894
  984MOL0     H32773   9.086   4.601   1.733 -1.9854 -1.5315  0.1131
  984MOL0     H32774   8.980   4.452   1.894  0.5789  1.8392 -4.5873
  984MOL0     H32775   8.782   4.394   2.029  0.0922  1.4158  0.1301
  984MOL0     H32776   8.940   4.333   2.080  1.0078  2.0035 -0.8294
  984MOL0     H32777   8.861   4.364   2.330  1.1022 -3.3613  0.5844
  984MOL0     H32778   8.702   4.391   2.253  1.0124  0.0752 -1.3304
  984MOL0     H32779   8.686   4.193   2.150 -1.1313  5.8215  0.0445
  984MOL0     H32780   8.851   4.149   2.201  1.0738  1.1162  1.2326
  984MOL0     H32781   8.734   4.197   2.449  2.0256 -1.5082 -0.6261
  984MOL0     H32782   8.580   4.207   2.364  0.1630  1.4184 -1.0653
  984MOL0     H32783   8.606   3.970   2.278 -1.9079  1.0303  1.5603
  984MOL0     H32784   8.761   3.954   2.353 -0.0982  0.1740  1.8998
  984MOL0     H32785   8.668   3.975   2.583  2.0510  0.6349 -1.0859
  984MOL0     H32786   8.505   4.014   2.500  0.6496  2.7850 -2.6475
  984MOL0     H32787   8.499   3.787   2.595 -1.7987 -0.2017 -0.5182
  984MOL0     H32788   8.521   3.756   2.420  2.6847 -2.5402  0.1255
  984MOL0     H32789   8.719   3.730   2.640 -1.4653 -0.8439  0.0448
  984MOL0     H32790   8.781   3.769   2.477 -0.2210 -1.0353 -1.2651
  984MOL0     H32791   8.879   3.536   2.380  0.4132 -1.8083 -0.6516
  984MOL0     H32792   8.841   3.205   2.510 -0.4478  1.5102 -0.0577
  984MOL0     H32793   8.726   3.182   2.377  1.5276 -2.8383 -0.0751
  984MOL0     H32794   8.981   3.164   2.326  0.8317  0.8638 -0.5665
  984MOL0     H32795   8.989   3.337   2.358 -1.2592  0.9328  0.7499
  984MOL0     H32796   8.780   3.345   2.173  0.0302  0.6132  0.2959
  984MOL0     H32797   8.864   3.192   2.136 -4.7872 -0.0345  1.5567
  984MOL0     H32798   9.055   3.307   2.068 -0.9974 -0.5910 -0.6887
  984MOL0     H32799   8.986   3.455   2.144 -2.8996 -0.5437  3.7257
  984MOL0     H32800   8.955   3.625   1.866  0.8301 -0.4942 -0.7165
  984MOL0     H32801   9.202   3.746   1.656  0.4339  0.4731  1.5462
  984MOL0     H32802   9.031   3.721   1.582  1.3884 -1.9763 -1.3581
  984MOL0     H32803   9.066   3.794   1.746  2.2376  0.6559 -0.8766
  984MOL0     H32804   9.048   3.652   1.341  0.1768 -0.1066  2.0881
  984MOL0     H32805   8.834   3.571   1.271 -1.8730 -2.3298 -1.5819
  984MOL0     H32806   8.657   3.467   1.270 -0.9006 -0.9351  0.9723
  984MOL0     H32807   8.703   3.445   1.101  0.3111  0.8342  0.0188
  984MOL0     H32808   8.482   3.374   1.106  3.1889  4.6462  0.7258
  984MOL0     H32809   8.560   3.219   1.157 -0.0651 -0.0568 -0.4114
  984MOL0     H32810   8.364   3.409   1.290  0.7683  0.2882  1.6809
  984MOL0     H32811   8.498   3.376   1.401 -0.6677  0.0390 -0.3533
  984MOL0     H32812   8.454   3.146   1.410 -0.9806 -0.0190  2.5349
  984MOL0     H32813   8.323   3.259   1.441  2.8694  2.3477  0.9365
  984MOL0     H32814   8.282   3.029   1.316  3.6065 -0.7379  0.2790
  984MOL0     H32815   8.359   3.099   1.179  0.1585 -1.6224  1.2496
  984MOL0     H32816   8.208   3.275   1.137 -1.4263  1.4684  0.3587
  984MOL0     H32817   8.108   3.126   1.141 -1.2966 -0.0531  1.9949
  984MOL0     H32818   8.000   3.308   1.253 -1.6824  1.3249  2.8208
  984MOL0     H32819   8.135   3.328   1.359 -0.6055  1.1168 -0.1364
  984MOL0     H32820   7.963   3.202   1.487 -2.9381 -3.1127 -0.1245
  984MOL0     H32821   8.111   3.111   1.443  1.3494 -0.2628 -3.4572
  984MOL0     H32822   8.969   3.168   1.311 -3.3226  0.6550  2.1975
  984MOL0     H32823   9.199   3.259   1.398  0.8158  0.4610  0.8916
  984MOL0     H32824   9.218   3.262   1.680 -1.1728 -0.6163 -0.7222
  984MOL0     H32825   9.038   3.214   1.851  0.7650  0.4491  0.3997
  984MOL0     H32826   8.962   4.771   2.186 -2.9652  0.2232 -1.0972
  984MOL0     H32827   9.076   4.920   2.036 -1.1248  0.5140  0.1034
  984MOL0     H32828   8.987   5.014   1.433 -0.8259 -0.3909  0.9410
  984MOL0     H32829   9.070   5.189   1.321  0.8259 -1.1012 -1.8941
  984MOL0     H32830   9.188   5.327   1.211 -0.5779  0.2431  1.1204
  984MOL0     H32831   9.179   5.453   1.340 -0.5930  0.0414  0.6537
  984MOL0     H32832   9.397   5.540   1.257  0.7351 -2.1688  0.3302
  984MOL0     H32833   9.255   5.563   1.140 -1.5644  2.3438  2.3353
  984MOL0     H32834   9.345   5.365   1.006  0.9622  0.5857 -1.1015
  984MOL0     H32835   9.483   5.360   1.108 -1.5599  0.1871  1.5765
  984MOL0     H32836   9.561   5.509   0.928  1.6584  0.3739  2.7383
  984MOL0     H32837   9.516   5.611   1.053  1.6559  0.7151 -1.1610
  984MOL0     H32838   9.195   5.677   0.764 -2.2111 -2.7998  0.8437
  984MOL0     H32839   9.446   5.162   1.532  1.2953 -5.1591 -1.0778
  984MOL0     H32840   9.336   5.001   1.685  0.1554 -2.0679 -0.5127
  985MOL0     O32841   5.152   1.270   6.765  0.1602  0.8616  0.4625
  985MOL0     C32842   5.180   1.150   6.773 -0.5326 -0.5095 -0.3336
  985MOL0     O32843   5.092   1.045   6.779  0.3267  0.1462  0.6137
  985MOL0     C32844   4.955   1.073   6.770  0.6445 -0.6015 -0.1653
  985MOL0     C32845   4.889   1.114   6.655  0.4795  0.0349 -1.0150
  985MOL0     C32846   4.757   1.124   6.652  0.5584 -0.4292 -0.6607
  985MOL0     C32847   4.674   1.088   6.758  0.4972  0.6853  0.2244
  985MOL0     O32848   4.535   1.103   6.756 -0.5430 -0.4629 -0.4665
  985MOL0     C32849   4.474   1.205   6.666  0.1735  0.3967  0.2472
  985MOL0     C32850   4.344   1.248   6.737  0.6938  0.4960  0.0945
  985MOL0     C32851   4.237   1.149   6.697  0.1112  0.2482 -0.6808
  985MOL0     C32852   4.093   1.178   6.766 -0.3650  0.0631  0.2539
  985MOL0     C32853   4.047   1.056   6.861 -0.3528 -0.2044  0.6438
  985MOL0     C32854   3.934   1.092   6.964 -0.7218 -0.0169  0.3328
  985MOL0     C32855   3.966   1.047   7.109  0.8202 -0.0717 -0.4550
  985MOL0     C32856   4.061   1.146   7.178  0.3453  0.4727 -0.0144
  985MOL0     N32857   3.990   1.274   7.186  0.5524  0.7273  0.2391
  985MOL0     C32858   3.870   1.288   7.253 -0.5515 -0.5890 -0.4791
  985MOL0     C32859   3.834   1.414   7.239 -1.0681 -1.4323 -1.0024
  985MOL0     C32860   3.727   1.509   7.284  0.6779  0.9280  0.2944
  985MOL0     C32861   3.613   1.514   7.178  0.3700 -0.7842 -0.1391
  985MOL0     C32862   3.533   1.388   7.158  0.0959  0.1730  0.5792
  985MOL0     C32863   3.410   1.407   7.065 -0.8232 -0.0281 -0.5460
  985MOL0     O32864   3.305   1.455   7.151 -0.7247  0.3779 -0.7908
  985MOL0     C32865   3.178   1.479   7.100  0.2576  0.2878 -0.1588
  985MOL0     C32866   3.071   1.495   7.189  0.0833  0.5511 -0.8332
  985MOL0     C32867   2.937   1.506   7.143 -0.2055 -0.4359 -0.4776
  985MOL0     C32868   2.839   1.537   7.247  0.6480  0.0626  0.3046
  985MOL0     C32869   2.911   1.495   7.009  0.1116 -0.6725  0.7046
  985MOL0     C32870   2.780   1.510   6.955  0.3926  0.2296  0.1035
  985MOL0     O32871   2.757   1.608   6.859  0.3253 -0.4013  0.2779
  985MOL0     C32872   2.632   1.638   6.821  0.3592  0.5427  0.3063
  985MOL0     C32873   2.560   1.729   6.899 -0.3078  0.5077 -1.4260
  985MOL0     C32874   2.437   1.772   6.858  0.1675  0.6408 -0.2547
  985MOL0     C32875   2.383   1.736   6.737  0.9809  0.2361  1.1155
  985MOL0     O32876   2.250   1.766   6.719 -0.6439 -0.5971  0.3069
  985MOL0     C32877   2.185   1.745   6.590 -0.6258  0.4285 -0.4608
  985MOL0     C32878   2.069   1.846   6.588  0.3802  0.1311 -0.1082
  985MOL0     C32879   1.968   1.826   6.703 -0.1383 -0.6012  0.1395
  985MOL0     C32880   1.862   1.717   6.677 -0.1448 -0.5551  0.7583
  985MOL0     C32881   1.735   1.751   6.754  0.1005  0.9858  0.2775
  985MOL0     C32882   1.631   1.643   6.732  0.7664 -0.5308 -0.2690
  985MOL0     C32883   1.497   1.668   6.808  0.8569 -0.6214  0.0820
  985MOL0     C32884   1.438   1.804   6.803 -0.0229 -0.2249  0.1461
  985MOL0    Cl32885   1.299   1.815   6.914 -0.1447  0.0827  0.0220
  985MOL0     C32886   2.456   1.655   6.648 -0.6505  0.9062  0.2816
  985MOL0     C32887   2.579   1.609   6.694 -0.9031  0.6381  0.8287
  985MOL0     O32888   2.687   1.448   7.002 -0.2711  1.0693  0.3898
  985MOL0     C32889   3.017   1.478   6.916  0.3901 -0.2019 -0.0388
  985MOL0     C32890   3.154   1.476   6.962  0.1520 -0.1900 -0.1385
  985MOL0     N32891   3.931   1.473   7.155  0.0536  0.3410 -0.2975
  985MOL0     N32892   4.033   1.393   7.130  0.8601  0.3562  0.2077
  985MOL0     C32893   4.736   1.046   6.875  0.5508 -0.7353  0.5387
  985MOL0     C32894   4.873   1.029   6.886 -0.1825  0.1395  0.3788
  985MOL0     C32895   5.325   1.113   6.750  0.0648 -0.1321 -1.2708
  985MOL0     C32896   5.364   0.983   6.789  0.4030  0.1969 -0.2154
  985MOL0     C32897   5.499   0.954   6.786  1.4624  0.1585 -0.3925
  985MOL0     C32898   5.591   1.046   6.737 -0.0216  0.3897  0.4920
  985MOL0     O32899   5.724   1.014   6.738  0.1134 -0.1365 -0.2471
  985MOL0     C32900   5.783   0.886   6.731 -0.2925  0.0413 -0.2115
  985MOL0     C32901   5.938   0.880   6.704  0.1304 -0.6012  0.7217
  985MOL0     C32902   5.977   0.729   6.681  1.0048 -1.5811  0.1942
  985MOL0     C32903   6.126   0.700   6.662  0.0262 -0.1140  0.3534
  985MOL0     C32904   6.137   0.572   6.588 -0.3421  0.4599 -0.1192
  985MOL0     C32905   6.145   0.466   6.523 -0.1145 -0.3967 -0.2367
  985MOL0     C32906   5.549   1.182   6.703  0.0776  0.8080  0.5163
  985MOL0     C32907   5.411   1.215   6.706  0.1578  0.2901  0.5580
  985MOL0     H32908   4.947   1.135   6.565  0.8013 -0.6991 -0.9849
  985MOL0     H32909   4.699   1.161   6.568 -3.6746  1.2894  2.6884
  985MOL0     H32910   4.538   1.293   6.666  0.9361  0.0129  4.0453
  985MOL0     H32911   4.457   1.163   6.567  3.8965  2.7999 -1.6300
  985MOL0     H32912   4.368   1.251   6.844  0.2064  0.5256  0.2073
  985MOL0     H32913   4.308   1.348   6.709 -0.0221  1.0206  2.6414
  985MOL0     H32914   4.224   1.158   6.589 -1.5810 -1.7732 -0.6990
  985MOL0     H32915   4.266   1.045   6.718  0.1788  0.3966 -0.0024
  985MOL0     H32916   4.090   1.270   6.825  1.4375  0.2321  0.1419
  985MOL0     H32917   4.030   1.198   6.679  1.6522  0.5145 -1.1684
  985MOL0     H32918   4.005   0.983   6.792  2.6584 -1.3945 -0.0675
  985MOL0     H32919   4.129   1.008   6.916  0.8674  1.1036  0.0182
  985MOL0     H32920   3.917   1.199   6.967  0.2010  0.1215  1.6287
  985MOL0     H32921   3.846   1.047   6.918 -0.7617  0.1427  0.2537
  985MOL0     H32922   3.876   1.042   7.171  2.3488  1.7495  2.1293
  985MOL0     H32923   4.003   0.944   7.101  1.2720  0.0981 -0.5915
  985MOL0     H32924   4.150   1.148   7.114 -0.0254  1.8924 -0.5258
  985MOL0     H32925   4.105   1.116   7.274  2.7325  3.3182 -0.0677
  985MOL0     H32926   3.801   1.227   7.310 -1.8623  0.1020 -1.2617
  985MOL0     H32927   3.684   1.497   7.384 -0.7636  1.8578 -0.1780
  985MOL0     H32928   3.767   1.611   7.288 -0.0594  1.1848  1.5424
  985MOL0     H32929   3.643   1.566   7.087 -3.6222  1.0072 -0.6391
  985MOL0     H32930   3.541   1.581   7.227  3.0888  0.0411  3.1325
  985MOL0     H32931   3.496   1.331   7.244  1.5609 -2.0459 -0.1692
  985MOL0     H32932   3.595   1.310   7.112  1.6000  1.3893  0.4392
  985MOL0     H32933   3.384   1.319   7.006  0.3602 -1.4304  0.9456
  985MOL0     H32934   3.428   1.479   6.985  1.4752 -1.8717 -1.8222
  985MOL0     H32935   3.110   1.500   7.291  0.8158 -0.8657 -1.0086
  985MOL0     H32936   2.872   1.589   7.338 -2.6371 -0.5851  2.0003
  985MOL0     H32937   2.773   1.614   7.205 -0.2201 -0.6873  0.2715
  985MOL0     H32938   2.782   1.448   7.275  1.2263  0.5680  3.5047
  985MOL0     H32939   2.607   1.765   6.990  0.5229  1.6884 -2.2888
  985MOL0     H32940   2.368   1.824   6.924  0.7181 -1.3314  2.0164
  985MOL0     H32941   2.247   1.770   6.503  1.5380 -2.5846  0.0439
  985MOL0     H32942   2.157   1.639   6.586 -1.5345  0.4382  2.8734
  985MOL0     H32943   2.119   1.943   6.595  1.4278 -0.3431 -0.8149
  985MOL0     H32944   2.018   1.847   6.491 -1.3472 -2.7779  0.6334
  985MOL0     H32945   1.924   1.926   6.706  1.1043 -0.0413  0.5156
  985MOL0     H32946   2.015   1.817   6.801 -0.2747 -1.6545  0.1187
  985MOL0     H32947   1.849   1.710   6.568 -2.4585 -2.0402  1.0588
  985MOL0     H32948   1.895   1.614   6.693  0.3976 -0.2227  1.7824
  985MOL0     H32949   1.701   1.847   6.713  0.1903  1.3481  1.0382
  985MOL0     H32950   1.756   1.758   6.861  1.0401  1.4094  0.0688
  985MOL0     H32951   1.602   1.652   6.627 -2.9416  3.6537  0.8539
  985MOL0     H32952   1.671   1.544   6.759 -2.2232 -0.8759  3.7977
  985MOL0     H32953   1.525   1.657   6.913 -0.6060  2.4324  0.9013
  985MOL0     H32954   1.424   1.591   6.782 -0.8541  0.0495  2.5111
  985MOL0     H32955   1.405   1.827   6.701 -0.7778  1.6773  0.7912
  985MOL0     H32956   1.513   1.880   6.828  0.1253 -0.3071 -0.0358
  985MOL0     H32957   2.426   1.629   6.547  1.3396 -0.1672 -0.0803
  985MOL0     H32958   2.636   1.541   6.630  1.1474 -0.3105  3.4587
  985MOL0     H32959   3.004   1.473   6.808 -1.3175 -2.2849  0.2041
  985MOL0     H32960   3.236   1.492   6.894  0.2301  2.0766  0.3916
  985MOL0     H32961   4.668   1.033   6.958 -0.8830 -0.2844 -0.5158
  985MOL0     H32962   4.909   0.985   6.978  0.6978  4.7237  2.5296
  985MOL0     H32963   5.292   0.910   6.823  0.3352 -1.3850 -3.4116
  985MOL0     H32964   5.539   0.859   6.818 -3.1248 -1.2286  1.9683
  985MOL0     H32965   5.766   0.817   6.815 -3.2700 -0.9387 -1.4714
  985MOL0     H32966   5.731   0.842   6.645 -2.2489  2.2236 -0.2455
  985MOL0     H32967   5.985   0.919   6.794  1.6857 -0.3155 -0.1894
  985MOL0     H32968   5.969   0.942   6.619 -0.3501 -2.1474 -0.6416
  985MOL0     H32969   5.922   0.696   6.593  1.7668 -1.0885 -0.4808
  985MOL0     H32970   5.935   0.675   6.767  1.6079 -1.5590  0.5060
  985MOL0     H32971   6.175   0.677   6.757  1.0177 -0.6897 -0.2751
  985MOL0     H32972   6.181   0.776   6.606  1.0570 -1.0476  0.0697
  985MOL0     H32973   6.140   0.396   6.442  0.5948  0.9202 -1.4742
  985MOL0     H32974   5.629   1.249   6.676 -0.0057  0.4790 -0.6126
  985MOL0     H32975   5.382   1.319   6.694  2.7780  0.7454 -5.8049
  986MOL0     O32976   0.576   6.493   4.990 -0.1688 -0.3552  0.2593
  986MOL0     C32977   0.570   6.469   4.869  0.3364  0.4857  0.2829
  986MOL0     O32978   0.672   6.503   4.777  0.1518  0.3784  0.7946
  986MOL0     C32979   0.797   6.535   4.833 -0.4754  1.1565 -0.3338
  986MOL0     C32980   0.805   6.653   4.908  0.9585  0.3828 -0.0144
  986MOL0     C32981   0.927   6.702   4.943 -1.4829  0.2369  0.1015
  986MOL0     C32982   1.051   6.635   4.915  0.3848  0.8008 -0.1288
  986MOL0     O32983   1.165   6.702   4.926  0.6986  0.7083 -0.4150
  986MOL0     C32984   1.178   6.813   5.015 -1.0043 -0.9230 -0.0028
  986MOL0     C32985   1.333   6.858   5.043  0.5453  0.1089  1.3715
  986MOL0     C32986   1.352   7.006   5.068 -0.0248  0.3910 -0.3760
  986MOL0     C32987   1.324   7.106   4.959  0.7797 -0.0081  0.5420
  986MOL0     C32988   1.281   7.250   5.015 -0.9624 -0.3145 -0.1136
  986MOL0     C32989   1.150   7.244   5.085  0.4591 -0.0275 -0.1359
  986MOL0     C32990   1.104   7.374   5.148  0.4532 -0.0743  0.4348
  986MOL0     C32991   0.981   7.437   5.086 -0.1397 -0.8066  0.0087
  986MOL0     N32992   0.844   7.374   5.077 -0.6610  0.3432  0.2918
  986MOL0     C32993   0.783   7.310   5.183 -0.3499 -0.0073 -0.9539
  986MOL0     C32994   0.688   7.237   5.121 -0.2650 -0.3890  0.3768
  986MOL0     C32995   0.590   7.144   5.196 -0.4971  0.5976  0.8108
  986MOL0     C32996   0.628   7.000   5.174 -0.0293  0.5297 -0.2769
  986MOL0     C32997   0.527   6.896   5.232 -0.1167 -0.1617  0.1369
  986MOL0     C32998   0.566   6.762   5.182  0.4830  0.0055  0.5918
  986MOL0     O32999   0.507   6.649   5.236  0.6672 -0.5257  0.2013
  986MOL0     C33000   0.373   6.668   5.278  0.2933 -0.0505 -0.1928
  986MOL0     C33001   0.325   6.651   5.404 -0.2469  0.5933  0.9641
  986MOL0     C33002   0.183   6.640   5.435 -0.5947 -0.4801 -0.5159
  986MOL0     C33003   0.141   6.640   5.582  0.5470  0.4787 -0.1630
  986MOL0     C33004   0.088   6.642   5.328  0.0742  1.4231  0.4655
  986MOL0     C33005  -0.063   6.634   5.349  0.4770  0.0201  0.1087
  986MOL0     O33006  -0.114   6.694   5.459 -0.2964  0.1547 -0.5039
  986MOL0     C33007  -0.233   6.668   5.501 -0.2549  0.4490 -0.5705
  986MOL0     C33008  -0.273   6.542   5.537 -0.2618 -0.3580 -0.0100
  986MOL0     C33009  -0.391   6.521   5.609 -0.0777 -0.0333  0.5721
  986MOL0     C33010  -0.476   6.623   5.636 -0.3976 -0.1711  0.5576
  986MOL0     O33011  -0.603   6.599   5.688 -0.3395 -0.5400 -0.1429
  986MOL0     C33012  -0.693   6.573   5.586  0.0686  0.1041 -0.0045
  986MOL0     C33013  -0.836   6.600   5.631 -1.3977  0.2006 -0.1242
  986MOL0     C33014  -0.871   6.517   5.752 -0.3235 -0.2380 -0.2379
  986MOL0     C33015  -1.011   6.525   5.784  0.3107 -0.5434  0.0605
  986MOL0     C33016  -1.062   6.402   5.855 -0.5174 -0.6004  0.1191
  986MOL0     C33017  -1.196   6.450   5.921 -0.7390 -0.6164 -0.0196
  986MOL0     C33018  -1.290   6.333   5.948  0.6061  0.6858  0.2271
  986MOL0     C33019  -1.431   6.358   6.010 -0.4767  0.3472 -0.5093
  986MOL0    Cl33020  -1.509   6.205   6.048  0.2369 -0.4720 -0.2429
  986MOL0     C33021  -0.443   6.755   5.596 -0.3348 -0.3604 -0.0388
  986MOL0     C33022  -0.325   6.771   5.535 -0.5668 -0.4756  0.7542
  986MOL0     O33023  -0.135   6.599   5.254 -0.1369  0.1706  0.0386
  986MOL0     C33024   0.148   6.646   5.202 -0.2036 -0.4948  1.1884
  986MOL0     C33025   0.281   6.668   5.171  0.0386  0.0028  0.2304
  986MOL0     N33026   0.688   7.254   4.984 -0.1682  0.2193 -0.1986
  986MOL0     N33027   0.787   7.340   4.956  1.0926 -0.6585 -0.4292
  986MOL0     C33028   1.052   6.521   4.842 -0.1718  1.0648  0.3750
  986MOL0     C33029   0.925   6.468   4.797 -1.3891  0.2627 -0.3759
  986MOL0     C33030   0.447   6.413   4.827  0.4379  0.6276  0.4180
  986MOL0     C33031   0.421   6.381   4.691  0.5614 -1.0241  0.9584
  986MOL0     C33032   0.292   6.330   4.659 -0.9413  0.4247 -0.4238
  986MOL0     C33033   0.188   6.303   4.749 -0.5433 -0.9728 -0.0283
  986MOL0     O33034   0.067   6.274   4.696  0.2119 -0.5728 -0.6529
  986MOL0     C33035  -0.031   6.229   4.789  0.1092 -0.4593 -0.5103
  986MOL0     C33036  -0.164   6.245   4.721  0.6085 -0.3668 -0.2648
  986MOL0     C33037  -0.180   6.152   4.599  0.3658 -0.9066  0.4244
  986MOL0     C33038  -0.140   6.003   4.622 -0.7721 -0.3709 -0.6045
  986MOL0     C33039  -0.215   5.938   4.731 -0.2345 -0.1296  0.6393
  986MOL0     C33040  -0.279   5.881   4.813  1.0909  0.0571  0.0152
  986MOL0     C33041   0.214   6.344   4.882 -0.2753 -0.6294 -0.0364
  986MOL0     C33042   0.340   6.395   4.920 -1.2949 -0.2991  0.2355
  986MOL0     H33043   0.712   6.708   4.912 -0.7222 -2.2727  3.4518
  986MOL0     H33044   0.929   6.799   4.991  0.4010 -0.6575  1.9745
  986MOL0     H33045   1.132   6.896   4.960  1.5862  0.1055 -0.7790
  986MOL0     H33046   1.132   6.793   5.112 -0.7477 -2.0851 -0.1100
  986MOL0     H33047   1.380   6.797   5.121  2.6734 -0.6543 -0.3866
  986MOL0     H33048   1.386   6.833   4.951 -0.1606  0.9530  0.7186
  986MOL0     H33049   1.284   7.027   5.152 -0.8319  1.9595 -1.3812
  986MOL0     H33050   1.454   7.027   5.104 -0.6625  1.3766  0.9502
  986MOL0     H33051   1.410   7.120   4.893  0.5992  0.6381  0.4389
  986MOL0     H33052   1.240   7.079   4.894  1.1617  0.7616 -0.2985
  986MOL0     H33053   1.363   7.276   5.083 -0.7256 -0.8189 -0.2040
  986MOL0     H33054   1.291   7.320   4.932  3.1740  3.0807  2.7784
  986MOL0     H33055   1.077   7.182   5.032 -1.5912  1.7198  0.4988
  986MOL0     H33056   1.166   7.196   5.182 -0.4199  5.4137  3.0870
  986MOL0     H33057   1.074   7.369   5.253 -1.5350 -3.3360 -0.1197
  986MOL0     H33058   1.194   7.434   5.137  2.3929 -2.9928 -0.7026
  986MOL0     H33059   1.012   7.446   4.982  0.0041 -0.5725  0.0703
  986MOL0     H33060   0.952   7.539   5.114 -2.0980 -0.4797 -2.8816
  986MOL0     H33061   0.796   7.311   5.291 -1.8132 -4.8194 -0.5122
  986MOL0     H33062   0.588   7.183   5.298  0.4752  3.5547 -0.2220
  986MOL0     H33063   0.493   7.154   5.148  1.2762 -1.2409 -3.7287
  986MOL0     H33064   0.721   6.969   5.222 -0.0708  0.8135 -0.0158
  986MOL0     H33065   0.638   6.974   5.068  1.1787 -2.2826  0.4323
  986MOL0     H33066   0.426   6.917   5.196  0.0254  0.0607 -0.1357
  986MOL0     H33067   0.537   6.901   5.341 -0.4625  0.8147  0.1394
  986MOL0     H33068   0.673   6.741   5.192  1.0782 -1.3534 -5.3281
  986MOL0     H33069   0.542   6.769   5.076  0.7676  0.6738  0.5617
  986MOL0     H33070   0.398   6.644   5.484  2.5481  0.9180 -1.3669
  986MOL0     H33071   0.058   6.577   5.615  2.3240 -2.0442 -0.2334
  986MOL0     H33072   0.217   6.598   5.647 -0.4454 -3.5005 -1.3339
  986MOL0     H33073   0.122   6.745   5.607  2.1624  0.8096 -0.2084
  986MOL0     H33074  -0.214   6.456   5.506 -1.9254 -1.4315 -0.3278
  986MOL0     H33075  -0.418   6.421   5.640 -2.3929  0.3290 -0.0859
  986MOL0     H33076  -0.663   6.620   5.492  0.9261 -2.0283 -0.8633
  986MOL0     H33077  -0.674   6.466   5.572  0.5704  0.1987 -0.0643
  986MOL0     H33078  -0.850   6.706   5.650  0.9307  0.3565  1.1061
  986MOL0     H33079  -0.900   6.566   5.549  1.4986  1.4275 -3.1267
  986MOL0     H33080  -0.813   6.535   5.843 -0.1113  3.4999 -0.9700
  986MOL0     H33081  -0.854   6.416   5.713  2.5577 -0.9302  2.3445
  986MOL0     H33082  -1.039   6.609   5.847  0.3727  1.0385 -1.9050
  986MOL0     H33083  -1.082   6.528   5.701 -0.2276 -2.6880  0.3698
  986MOL0     H33084  -0.987   6.363   5.926  0.9204 -1.7379 -1.9348
  986MOL0     H33085  -1.091   6.326   5.782 -0.5130  0.8455 -1.4233
  986MOL0     H33086  -1.179   6.504   6.015 -3.2911 -1.0530  0.7815
  986MOL0     H33087  -1.254   6.518   5.857 -0.6232 -0.1800  0.3328
  986MOL0     H33088  -1.236   6.269   6.017  0.5454  0.4647  0.0702
  986MOL0     H33089  -1.305   6.292   5.848  0.9830  2.1577 -0.4701
  986MOL0     H33090  -1.489   6.424   5.945  0.6879  2.6449  0.6834
  986MOL0     H33091  -1.418   6.406   6.107  3.4468  0.3928 -0.8975
  986MOL0     H33092  -0.511   6.839   5.607 -2.1872 -2.0503  2.8302
  986MOL0     H33093  -0.301   6.865   5.486 -1.6833  0.0812  1.2392
  986MOL0     H33094   0.085   6.633   5.114 -1.7930  0.3699  2.1291
  986MOL0     H33095   0.320   6.659   5.070  0.1692 -2.7465  0.4342
  986MOL0     H33096   1.137   6.456   4.825 -0.1846  0.8378  1.1429
  986MOL0     H33097   0.934   6.393   4.719 -1.1451  1.3174 -1.3870
  986MOL0     H33098   0.493   6.397   4.611 -1.1829  3.0699 -0.0241
  986MOL0     H33099   0.278   6.308   4.553 -0.0336  1.8315 -0.8673
  986MOL0     H33100  -0.018   6.127   4.826 -3.2270 -1.0300 -0.5590
  986MOL0     H33101  -0.038   6.300   4.871  3.3068  1.4801 -1.7434
  986MOL0     H33102  -0.194   6.345   4.688 -0.1926 -1.6263 -3.8812
  986MOL0     H33103  -0.243   6.206   4.786  1.2869 -0.6770  0.3927
  986MOL0     H33104  -0.121   6.192   4.515 -1.9166 -1.1104 -1.3682
  986MOL0     H33105  -0.282   6.170   4.566  1.1037  2.5077 -0.4003
  986MOL0     H33106  -0.034   5.994   4.644 -0.6899 -3.9087 -1.9108
  986MOL0     H33107  -0.162   5.949   4.529 -2.3886  0.8651 -0.9979
  986MOL0     H33108  -0.344   5.830   4.881  1.2990 -1.1101 -0.6156
  986MOL0     H33109   0.149   6.343   4.969  3.9563  0.2962  3.4856
  986MOL0     H33110   0.366   6.421   5.022  0.9378  3.3052 -1.0636
  987MOL0     O33111   7.851   3.529   1.052  0.6479 -0.1537 -0.2710
  987MOL0     C33112   7.925   3.472   0.981  0.0749  0.4858  0.1043
  987MOL0     O33113   7.898   3.389   0.873  0.4350 -0.6643 -0.3359
  987MOL0     C33114   7.814   3.277   0.877  0.0157 -0.2165 -0.1825
  987MOL0     C33115   7.787   3.216   1.006 -0.3994 -0.0087  0.7096
  987MOL0     C33116   7.705   3.101   1.013 -0.1843  0.7386 -0.1973
  987MOL0     C33117   7.646   3.054   0.898  0.6004 -0.9312  1.4285
  987MOL0     O33118   7.557   2.950   0.899  0.4537 -0.6785  0.3852
  987MOL0     C33119   7.451   2.957   0.997 -0.5975 -0.1894  0.2635
  987MOL0     C33120   7.354   2.834   0.990 -0.0076  0.0158  0.3323
  987MOL0     C33121   7.247   2.848   1.104  0.9300  0.2455 -0.3546
  987MOL0     C33122   7.137   2.748   1.091  0.1459 -0.0814  0.0990
  987MOL0     C33123   7.041   2.708   1.203 -0.0753 -0.2450 -0.3123
  987MOL0     C33124   6.956   2.814   1.272 -0.1673 -0.0266 -1.0880
  987MOL0     C33125   6.828   2.756   1.334  0.4677  0.0407 -0.5213
  987MOL0     C33126   6.858   2.645   1.441 -0.1472 -0.1566 -0.2438
  987MOL0     N33127   6.736   2.563   1.478 -0.0164  0.4118  0.4043
  987MOL0     C33128   6.743   2.430   1.489  0.3483 -0.4750  0.6752
  987MOL0     C33129   6.638   2.397   1.563 -0.2611  0.5143 -0.0345
  987MOL0     C33130   6.625   2.253   1.609  0.7583  0.7756  1.0655
  987MOL0     C33131   6.477   2.203   1.632 -0.0982  0.1965  0.0881
  987MOL0     C33132   6.460   2.070   1.705  0.3946 -0.5455 -0.6034
  987MOL0     C33133   6.542   1.956   1.644  0.9073  0.2319  0.8150
  987MOL0     O33134   6.537   1.844   1.735 -1.0065  0.3158 -0.2916
  987MOL0     C33135   6.637   1.749   1.723  0.4094 -0.1271 -0.0366
  987MOL0     C33136   6.723   1.734   1.613 -0.3024  0.7678 -0.2824
  987MOL0     C33137   6.821   1.627   1.601 -0.5086  0.5704  0.4429
  987MOL0     C33138   6.921   1.639   1.487  0.7735 -0.4886  0.4573
  987MOL0     C33139   6.814   1.522   1.693 -0.4176  0.6594 -0.4692
  987MOL0     C33140   6.889   1.404   1.675 -0.6426 -0.0130 -0.3371
  987MOL0     O33141   6.904   1.326   1.789 -0.7333 -0.2120 -0.3756
  987MOL0     C33142   6.993   1.218   1.780 -0.1787 -0.7764  0.1984
  987MOL0     C33143   7.116   1.214   1.856 -0.1246  0.2911  1.0605
  987MOL0     C33144   7.207   1.115   1.838  0.2688 -0.5424 -1.6789
  987MOL0     C33145   7.187   1.016   1.737  0.1039 -0.8591 -0.6771
  987MOL0     O33146   7.272   0.912   1.709 -0.2794 -0.3343 -0.1669
  987MOL0     C33147   7.391   0.915   1.783  0.1003 -0.6012  0.0305
  987MOL0     C33148   7.475   0.805   1.723 -0.2885 -0.1885 -0.3615
  987MOL0     C33149   7.586   0.759   1.824  0.0371 -0.3827 -0.6610
  987MOL0     C33150   7.693   0.862   1.855 -0.0552 -0.2748  0.3146
  987MOL0     C33151   7.798   0.792   1.947  0.5802 -0.3764  1.0173
  987MOL0     C33152   7.929   0.863   1.937  0.0972  0.2928  0.4234
  987MOL0     C33153   8.019   0.825   2.047  0.5734 -0.3235  0.6616
  987MOL0     C33154   8.158   0.822   1.998 -0.1069  0.1699 -0.3782
  987MOL0    Cl33155   8.217   0.967   1.917  0.0659 -0.0794  0.6540
  987MOL0     C33156   7.059   1.005   1.679 -0.6206 -0.1210  0.4965
  987MOL0     C33157   6.967   1.108   1.693 -0.3638 -0.2401  0.0175
  987MOL0     O33158   6.956   1.387   1.570 -0.4508  0.0261 -0.3716
  987MOL0     C33159   6.724   1.538   1.796 -0.0557  0.5999  0.5318
  987MOL0     C33160   6.644   1.645   1.812  0.4306  0.5079 -0.2250
  987MOL0     N33161   6.558   2.501   1.588  0.0798 -0.3868  0.4621
  987MOL0     N33162   6.617   2.604   1.522 -0.4101  0.0133 -0.3270
  987MOL0     C33163   7.679   3.105   0.776 -0.6447  1.1216 -0.4984
  987MOL0     C33164   7.762   3.212   0.761 -0.1423  0.1619 -0.6406
  987MOL0     C33165   8.063   3.532   0.982  0.5057  0.3446  0.0635
  987MOL0     C33166   8.132   3.597   1.089  0.4968  0.0624  0.0707
  987MOL0     C33167   8.268   3.627   1.087  0.0669 -0.6529 -0.1962
  987MOL0     C33168   8.352   3.593   0.973  0.4559  0.2101 -0.1886
  987MOL0     O33169   8.483   3.621   0.950 -0.0329  0.1639  0.2008
  987MOL0     C33170   8.552   3.738   1.001 -0.2095  0.4505  0.3308
  987MOL0     C33171   8.584   3.832   0.890 -0.3395 -0.2315  0.7429
  987MOL0     C33172   8.712   3.784   0.822  0.2025 -0.1591  0.2228
  987MOL0     C33173   8.831   3.837   0.897  0.8873 -0.1393  0.3293
  987MOL0     C33174   8.947   3.842   0.804  0.1802 -0.3891  0.0607
  987MOL0     C33175   9.052   3.871   0.747 -0.0803  0.3203 -0.3252
  987MOL0     C33176   8.284   3.527   0.864  0.4988  0.4931  0.5416
  987MOL0     C33177   8.150   3.501   0.875  0.3168 -0.4218  0.3606
  987MOL0     H33178   7.835   3.251   1.097  2.6547 -2.9848  0.4598
  987MOL0     H33179   7.697   3.062   1.114  0.4376  2.4415  0.5564
  987MOL0     H33180   7.492   2.959   1.099  0.3377 -1.5832 -0.0619
  987MOL0     H33181   7.396   3.050   0.980 -1.3860 -0.6111  0.4614
  987MOL0     H33182   7.313   2.839   0.889  1.7332  1.1540 -0.3616
  987MOL0     H33183   7.419   2.747   1.001  3.7042  2.1129 -2.5715
  987MOL0     H33184   7.297   2.833   1.200  1.7151 -0.6028 -0.8768
  987MOL0     H33185   7.200   2.946   1.099 -1.6647 -0.9428 -1.9595
  987MOL0     H33186   7.071   2.782   1.010  1.4405 -2.5656 -2.1703
  987MOL0     H33187   7.185   2.656   1.056 -1.1786 -0.1035 -1.8086
  987MOL0     H33188   6.991   2.621   1.159 -0.5641  0.6938 -1.6926
  987MOL0     H33189   7.104   2.670   1.284 -1.3694  1.1673  1.4595
  987MOL0     H33190   7.027   2.858   1.342 -1.6906 -1.2675  1.3980
  987MOL0     H33191   6.904   2.885   1.207  0.8638 -0.6682 -2.6711
  987MOL0     H33192   6.767   2.842   1.364 -0.2370  0.1213 -2.0542
  987MOL0     H33193   6.766   2.719   1.251 -0.6026 -0.2215  0.3748
  987MOL0     H33194   6.891   2.686   1.537  0.3214 -0.7042 -0.1632
  987MOL0     H33195   6.942   2.581   1.414  0.7479 -0.5101  2.9882
  987MOL0     H33196   6.823   2.360   1.467  1.0345  1.3727 -3.5545
  987MOL0     H33197   6.666   2.180   1.538  1.2520  1.7448  0.3251
  987MOL0     H33198   6.678   2.252   1.705  0.1408 -2.8928  1.5035
  987MOL0     H33199   6.418   2.211   1.540 -0.2377 -0.1270  0.1435
  987MOL0     H33200   6.426   2.278   1.692 -0.8083  0.5288 -0.9113
  987MOL0     H33201   6.359   2.032   1.719  0.7811 -1.2157  0.5819
  987MOL0     H33202   6.491   2.085   1.809 -0.5900  0.9419 -0.4941
  987MOL0     H33203   6.643   1.977   1.609 -0.1901  2.3993 -1.3908
  987MOL0     H33204   6.490   1.932   1.550 -1.3360  2.6112  1.3309
  987MOL0     H33205   6.733   1.810   1.536  2.9893  1.7150  0.8802
  987MOL0     H33206   7.016   1.645   1.540  0.5508 -0.5188  0.8695
  987MOL0     H33207   6.917   1.554   1.419 -3.8106 -0.6974  0.6761
  987MOL0     H33208   6.894   1.727   1.428  0.2278 -0.6597  0.4483
  987MOL0     H33209   7.127   1.302   1.919  0.1185 -0.1842  1.6909
  987MOL0     H33210   7.300   1.125   1.893  0.1941  0.4439 -1.7202
  987MOL0     H33211   7.443   1.008   1.760  0.2432 -0.1384  1.9800
  987MOL0     H33212   7.371   0.911   1.891  0.1259 -2.4204  0.0000
  987MOL0     H33213   7.409   0.723   1.697  2.1604 -2.1757 -0.7296
  987MOL0     H33214   7.519   0.848   1.633 -0.8346  4.4680  1.2859
  987MOL0     H33215   7.636   0.672   1.780  1.7361  0.6728 -0.9055
  987MOL0     H33216   7.536   0.720   1.913  0.3884 -2.5678 -1.3617
  987MOL0     H33217   7.740   0.912   1.770 -1.9766  0.4596 -0.3701
  987MOL0     H33218   7.646   0.950   1.900 -0.3541 -1.3445  2.1914
  987MOL0     H33219   7.808   0.688   1.914 -2.4676  0.1031 -2.0226
  987MOL0     H33220   7.772   0.798   2.053 -1.2665 -2.8409  0.7996
  987MOL0     H33221   7.983   0.846   1.844 -3.0099  0.9973 -1.6696
  987MOL0     H33222   7.913   0.971   1.936 -2.3687 -0.0135 -0.0389
  987MOL0     H33223   7.989   0.727   2.083 -0.2289 -1.3829 -2.5429
  987MOL0     H33224   8.011   0.906   2.121  2.1509  2.5655 -2.0580
  987MOL0     H33225   8.182   0.730   1.944 -1.6237 -0.0359 -0.7708
  987MOL0     H33226   8.227   0.817   2.082  1.4219  0.9075 -1.5363
  987MOL0     H33227   7.038   0.912   1.626 -0.6030 -1.3314  2.4990
  987MOL0     H33228   6.865   1.108   1.655 -0.3203 -1.1306 -0.1171
  987MOL0     H33229   6.712   1.447   1.853  0.6750 -1.3387 -2.1859
  987MOL0     H33230   6.572   1.639   1.893  0.7932 -3.1703 -0.0280
  987MOL0     H33231   7.655   3.052   0.685 -0.3847  0.9137 -0.4449
  987MOL0     H33232   7.791   3.259   0.668  1.4842 -1.4086 -0.9682
  987MOL0     H33233   8.055   3.622   1.161 -2.6371 -0.1519 -2.8967
  987MOL0     H33234   8.327   3.666   1.169  1.9763 -1.3928 -1.1551
  987MOL0     H33235   8.480   3.775   1.075 -3.1332 -1.7159 -1.2247
  987MOL0     H33236   8.639   3.703   1.058 -0.8209 -4.4251 -1.2235
  987MOL0     H33237   8.599   3.933   0.929 -0.9991 -0.0979  0.6455
  987MOL0     H33238   8.514   3.840   0.807  1.1081 -1.6557 -0.6870
  987MOL0     H33239   8.705   3.815   0.717 -0.9265 -0.2053  0.2719
  987MOL0     H33240   8.722   3.675   0.821 -5.6379 -1.0411  1.4867
  987MOL0     H33241   8.858   3.769   0.978 -0.9765  2.8232  3.7188
  987MOL0     H33242   8.818   3.933   0.947 -1.4647 -1.9175  3.5532
  987MOL0     H33243   9.140   3.878   0.687 -1.0822 -0.9578 -2.0512
  987MOL0     H33244   8.351   3.504   0.782 -0.8341  1.9217 -0.9909
  987MOL0     H33245   8.105   3.455   0.787 -1.4634  0.0384  0.9820
  988MOL0     O33246   2.427   3.771   3.134 -0.5283  0.0610  0.1495
  988MOL0     C33247   2.478   3.678   3.188  0.3513  0.9403 -0.5365
  988MOL0     O33248   2.410   3.607   3.288  0.1876  0.7190  0.3617
  988MOL0     C33249   2.272   3.624   3.311 -1.0536 -0.3440 -0.1906
  988MOL0     C33250   2.196   3.749   3.303  1.0786  1.1741  0.5990
  988MOL0     C33251   2.062   3.749   3.300  0.1074  0.2054  0.3935
  988MOL0     C33252   1.993   3.632   3.347  0.1212 -0.0750 -0.9177
  988MOL0     O33253   1.856   3.631   3.352 -0.4408 -0.0250 -0.1246
  988MOL0     C33254   1.777   3.722   3.282  0.2515 -0.9726 -0.8663
  988MOL0     C33255   1.637   3.659   3.273 -0.3444 -0.7177  0.0543
  988MOL0     C33256   1.554   3.633   3.404  0.1349  0.6738  0.2430
  988MOL0     C33257   1.416   3.599   3.364 -0.3040 -0.4632 -0.3712
  988MOL0     C33258   1.354   3.549   3.504  0.1723 -0.1518  0.0687
  988MOL0     C33259   1.196   3.523   3.498 -0.1282 -0.5091 -0.1438
  988MOL0     C33260   1.154   3.457   3.632  0.0644  0.0526 -0.1772
  988MOL0     C33261   1.003   3.440   3.642  0.4170  0.3388  1.5308
  988MOL0     N33262   0.954   3.365   3.756 -0.0802 -0.0043  0.5176
  988MOL0     C33263   0.917   3.230   3.750 -0.3162  0.3858  0.2095
  988MOL0     C33264   0.868   3.208   3.872 -0.2167  0.2794  0.0600
  988MOL0     C33265   0.829   3.069   3.924  0.4094  0.1348 -1.1362
  988MOL0     C33266   0.676   3.042   3.896 -0.4433  0.2778 -0.1874
  988MOL0     C33267   0.618   2.915   3.969  0.3601 -0.2210 -0.7919
  988MOL0     C33268   0.678   2.774   3.912  0.1960  0.2709  0.5939
  988MOL0     O33269   0.648   2.742   3.774  0.5232 -0.5623 -0.4110
  988MOL0     C33270   0.533   2.677   3.750 -0.1975 -0.1293 -0.2240
  988MOL0     C33271   0.492   2.630   3.620  0.6115  0.2574 -0.6504
  988MOL0     C33272   0.367   2.572   3.577  0.7575 -0.1611 -0.6577
  988MOL0     C33273   0.368   2.531   3.430  0.1125 -0.4094 -0.7213
  988MOL0     C33274   0.273   2.560   3.679 -0.1976  1.1423  0.5377
  988MOL0     C33275   0.136   2.510   3.657  0.6248  0.2083  0.2425
  988MOL0     O33276   0.039   2.547   3.747 -1.2258  0.1381  0.2015
  988MOL0     C33277  -0.095   2.522   3.706  0.2965 -0.1447 -0.6836
  988MOL0     C33278  -0.138   2.560   3.580  0.4914 -0.0428 -0.2817
  988MOL0     C33279  -0.272   2.534   3.536  0.0225  1.4806  0.2038
  988MOL0     C33280  -0.353   2.458   3.622  0.5703 -1.3637  0.2711
  988MOL0     O33281  -0.480   2.421   3.591 -0.3781  0.0505 -1.1103
  988MOL0     C33282  -0.588   2.477   3.664  0.3582  0.5653 -0.4385
  988MOL0     C33283  -0.578   2.628   3.678  0.5061 -0.1540  0.3625
  988MOL0     C33284  -0.707   2.689   3.736 -0.2113  0.1017 -0.2574
  988MOL0     C33285  -0.840   2.636   3.675 -0.1407 -0.1065 -0.4082
  988MOL0     C33286  -0.955   2.723   3.715 -0.2465 -0.2566  0.4519
  988MOL0     C33287  -0.961   2.855   3.636 -0.2324  0.3925 -0.0013
  988MOL0     C33288  -1.063   2.946   3.708 -0.5691  0.2239 -0.2310
  988MOL0     C33289  -1.041   3.091   3.665  0.6996  0.3989  0.4096
  988MOL0    Cl33290  -1.148   3.213   3.742  0.3980  0.4355  0.0281
  988MOL0     C33291  -0.307   2.432   3.757 -0.8847 -0.6580  0.2556
  988MOL0     C33292  -0.189   2.476   3.803 -0.2708  0.5763 -0.1341
  988MOL0     O33293   0.118   2.440   3.557  0.2944  0.3547 -0.0965
  988MOL0     C33294   0.307   2.589   3.813 -0.4604 -0.0863 -0.0935
  988MOL0     C33295   0.426   2.652   3.845 -0.3701 -0.1365  0.1772
  988MOL0     N33296   0.893   3.321   3.955  0.2254  0.8126  0.2234
  988MOL0     N33297   0.939   3.415   3.882  0.8389  0.1236 -0.1995
  988MOL0     C33298   2.058   3.515   3.374 -0.3669  0.3562  0.6015
  988MOL0     C33299   2.195   3.509   3.349  0.3978 -0.2649 -0.9381
  988MOL0     C33300   2.620   3.649   3.162  0.1724 -0.0323 -0.1789
  988MOL0     C33301   2.685   3.547   3.229 -0.3607 -0.4344 -0.3383
  988MOL0     C33302   2.827   3.520   3.203  0.1295 -0.2340  0.1783
  988MOL0     C33303   2.890   3.607   3.117 -0.4294  1.0189  0.9137
  988MOL0     O33304   3.021   3.575   3.094 -0.3369 -0.2125 -0.7050
  988MOL0     C33305   3.104   3.671   3.032  0.4485  0.0126  0.2180
  988MOL0     C33306   3.244   3.649   3.074 -0.1042  0.2862 -0.7128
  988MOL0     C33307   3.338   3.756   3.022 -0.6962 -0.6381  0.8559
  988MOL0     C33308   3.472   3.764   3.089  1.0769  0.4426  0.1798
  988MOL0     C33309   3.548   3.646   3.079 -0.3718 -0.1971  0.1760
  988MOL0     C33310   3.619   3.550   3.066  0.3473  0.1036  0.7270
  988MOL0     C33311   2.823   3.710   3.055  1.0309  0.0698  0.3447
  988MOL0     C33312   2.691   3.729   3.070  0.5906  0.2473  0.5117
  988MOL0     H33313   2.240   3.841   3.267 -1.3864  1.6367 -1.5590
  988MOL0     H33314   1.999   3.836   3.286 -0.1443 -0.3051 -2.1365
  988MOL0     H33315   1.771   3.815   3.339 -1.6148 -1.5672 -0.0049
  988MOL0     H33316   1.820   3.748   3.185  4.8731  0.9865  1.4396
  988MOL0     H33317   1.588   3.721   3.197  1.7081  0.8519 -0.0466
  988MOL0     H33318   1.651   3.559   3.230 -0.2061  0.4839 -2.8920
  988MOL0     H33319   1.603   3.547   3.451  0.4385  0.4824 -0.4054
  988MOL0     H33320   1.565   3.716   3.474  1.4272 -1.3334  2.6350
  988MOL0     H33321   1.367   3.690   3.330 -0.8794  0.1120  1.8541
  988MOL0     H33322   1.410   3.517   3.291  2.0093 -0.5167 -0.5790
  988MOL0     H33323   1.397   3.450   3.523 -1.5965 -1.5268 -2.4633
  988MOL0     H33324   1.382   3.620   3.583 -1.7030  1.8492 -0.9724
  988MOL0     H33325   1.148   3.621   3.490 -0.1203 -0.4544  0.4352
  988MOL0     H33326   1.187   3.469   3.403  2.4094  2.3252 -2.1774
  988MOL0     H33327   1.209   3.363   3.616 -0.6887 -0.3877 -0.2273
  988MOL0     H33328   1.191   3.503   3.724 -2.1327  2.9289 -0.5880
  988MOL0     H33329   0.970   3.400   3.545  2.1179  0.3159  0.9255
  988MOL0     H33330   0.957   3.539   3.648 -2.4264 -0.5988 -1.7182
  988MOL0     H33331   0.922   3.157   3.670 -1.0385 -0.3430  0.8152
  988MOL0     H33332   0.900   3.001   3.876 -0.9413 -0.1814 -2.7840
  988MOL0     H33333   0.839   3.066   4.033 -2.1544  2.2659 -0.7161
  988MOL0     H33334   0.666   3.039   3.787  1.5466 -1.2506 -0.4033
  988MOL0     H33335   0.615   3.124   3.933 -0.9540 -1.1070  2.2560
  988MOL0     H33336   0.509   2.910   3.973  0.4361 -1.0681  0.7973
  988MOL0     H33337   0.654   2.927   4.072  1.4701  0.6223 -1.2483
  988MOL0     H33338   0.644   2.683   3.962 -3.0765 -1.3456 -3.9525
  988MOL0     H33339   0.787   2.782   3.915  0.1558  0.6476  1.2193
  988MOL0     H33340   0.564   2.643   3.540  1.3080 -2.3267 -0.5220
  988MOL0     H33341   0.471   2.536   3.392  0.1607  0.8258 -0.4657
  988MOL0     H33342   0.333   2.427   3.434 -0.2565 -0.3077  3.8189
  988MOL0     H33343   0.297   2.590   3.372  1.2255 -0.2343 -1.9572
  988MOL0     H33344  -0.087   2.627   3.512 -0.8177 -0.6904 -1.9652
  988MOL0     H33345  -0.309   2.566   3.439 -2.1251 -2.1943 -0.3584
  988MOL0     H33346  -0.684   2.447   3.623 -0.5047 -1.9414  3.0386
  988MOL0     H33347  -0.605   2.448   3.768 -0.2038  1.7893 -0.1693
  988MOL0     H33348  -0.501   2.658   3.749  0.5119  0.8988 -0.0736
  988MOL0     H33349  -0.559   2.677   3.582 -3.0730 -0.4812 -0.6835
  988MOL0     H33350  -0.688   2.795   3.719  1.4297 -0.3174 -1.2771
  988MOL0     H33351  -0.717   2.682   3.845 -1.0630  3.6336 -0.0023
  988MOL0     H33352  -0.823   2.631   3.567 -0.0736  0.4356 -0.4270
  988MOL0     H33353  -0.865   2.537   3.715  1.4149  0.0407  1.0608
  988MOL0     H33354  -0.956   2.733   3.824 -0.2330 -0.0066  0.4289
  988MOL0     H33355  -1.049   2.676   3.683 -2.6908  2.8524  2.4243
  988MOL0     H33356  -0.859   2.895   3.645 -0.8164  2.1919 -0.9893
  988MOL0     H33357  -0.978   2.835   3.530 -1.2429 -3.3784  0.7154
  988MOL0     H33358  -1.065   2.923   3.815 -1.6618 -1.1059 -0.5017
  988MOL0     H33359  -1.161   2.905   3.682 -0.3987 -0.6321  0.4148
  988MOL0     H33360  -1.073   3.094   3.561 -0.5823 -2.5998  0.6270
  988MOL0     H33361  -0.935   3.118   3.662  0.4914  1.2338 -2.7131
  988MOL0     H33362  -0.364   2.376   3.830  0.2010 -1.4190  0.5411
  988MOL0     H33363  -0.153   2.453   3.903  1.5405  0.2885 -0.8170
  988MOL0     H33364   0.232   2.578   3.892  1.3595  2.7825  2.2588
  988MOL0     H33365   0.424   2.685   3.948 -0.8149 -0.1108  0.1616
  988MOL0     H33366   2.012   3.420   3.399  0.4323 -0.4313 -0.8012
  988MOL0     H33367   2.247   3.414   3.358 -2.1947 -1.5779  1.9595
  988MOL0     H33368   2.621   3.481   3.287 -0.1230  1.0382  1.6869
  988MOL0     H33369   2.868   3.444   3.269  1.5602 -0.8095 -1.3184
  988MOL0     H33370   3.107   3.650   2.925  1.9713  1.6986 -0.1205
  988MOL0     H33371   3.075   3.777   3.041 -1.7839 -0.5474  0.1399
  988MOL0     H33372   3.276   3.547   3.052 -2.2542 -1.3947  2.9523
  988MOL0     H33373   3.238   3.652   3.183 -0.5299  0.1733 -0.7308
  988MOL0     H33374   3.297   3.858   3.027  0.8722  0.2268 -1.6104
  988MOL0     H33375   3.353   3.744   2.914 -2.6515  3.2458 -0.0516
  988MOL0     H33376   3.473   3.778   3.198  2.0436  0.6111  0.1642
  988MOL0     H33377   3.523   3.850   3.045 -0.5037  1.5790  0.5186
  988MOL0     H33378   3.680   3.465   3.041  1.1145  1.3434 -1.9585
  988MOL0     H33379   2.880   3.763   2.980  1.3178 -2.2238 -1.1310
  988MOL0     H33380   2.657   3.815   3.014 -0.8002 -0.8044 -0.3337
  989MOL0     O33381   4.000   9.007  10.358  0.9604  0.5029  0.6962
  989MOL0     C33382   4.029   9.124  10.354  0.8513  0.0192  0.5304
  989MOL0     O33383   3.945   9.223  10.366 -0.3314 -0.1365  0.5850
  989MOL0     C33384   3.808   9.219  10.382  0.4695 -0.9661  0.8715
  989MOL0     C33385   3.757   9.346  10.399  0.3539  0.6498  0.3695
  989MOL0     C33386   3.619   9.378  10.390 -0.4198 -0.8581  0.9121
  989MOL0     C33387   3.529   9.271  10.366 -0.6110  0.0452  0.8539
  989MOL0     O33388   3.396   9.289  10.366  0.0651  0.6031 -0.5953
  989MOL0     C33389   3.335   9.322  10.490  0.5514  0.3707 -0.3857
  989MOL0     C33390   3.286   9.199  10.579  0.2580  0.1740  0.7711
  989MOL0     C33391   3.166   9.133  10.513  0.3224 -0.0704  0.1134
  989MOL0     C33392   3.097   9.041  10.610  0.1485  0.8075  0.0263
  989MOL0     C33393   2.999   9.130  10.698 -0.1296 -0.1256  0.3137
  989MOL0     C33394   2.903   9.054  10.780  0.3439 -0.2596  0.2276
  989MOL0     C33395   2.793   8.970  10.705 -0.0066 -0.5805  0.1556
  989MOL0     C33396   2.717   8.855  10.772 -0.3090 -0.4565  0.2126
  989MOL0     N33397   2.676   8.891  10.904  0.0348  0.4150 -0.5011
  989MOL0     C33398   2.750   8.874  11.018 -0.0721  0.4256 -0.6838
  989MOL0     C33399   2.659   8.898  11.112 -0.0126 -0.0182 -0.1754
  989MOL0     C33400   2.675   8.896  11.260  0.5217  0.3016 -0.5043
  989MOL0     C33401   2.785   8.986  11.316  0.1233 -0.5682 -0.6889
  989MOL0     C33402   2.842   8.939  11.455  0.7996 -0.2287  1.3500
  989MOL0     C33403   2.945   9.037  11.518  0.0938 -0.7606  0.2278
  989MOL0     O33404   3.016   8.970  11.623 -0.4142 -0.0334 -0.3803
  989MOL0     C33405   2.941   8.915  11.732 -0.5440 -0.5553  0.4265
  989MOL0     C33406   2.988   8.800  11.797  0.4886  0.4198  0.6795
  989MOL0     C33407   2.922   8.741  11.903  0.0967 -0.7716 -0.0334
  989MOL0     C33408   2.955   8.592  11.932 -1.3662  0.1090  0.1261
  989MOL0     C33409   2.807   8.808  11.963 -0.4078  0.0849 -0.0013
  989MOL0     C33410   2.738   8.753  12.080  0.7048  0.5135 -0.0129
  989MOL0     O33411   2.617   8.821  12.114  0.1024  0.6765  0.2183
  989MOL0     C33412   2.536   8.764  12.207 -0.4235  0.1957  0.6237
  989MOL0     C33413   2.462   8.645  12.176 -0.1715  0.6251  0.5254
  989MOL0     C33414   2.415   8.569  12.276 -0.0978 -0.3270  0.1358
  989MOL0     C33415   2.402   8.627  12.413  0.0853  0.0436  0.3306
  989MOL0     O33416   2.350   8.548  12.504  0.0732  0.7149 -0.5126
  989MOL0     C33417   2.274   8.611  12.606  1.1681  0.1689 -0.4074
  989MOL0     C33418   2.143   8.533  12.626 -0.1295 -0.2521 -0.0872
  989MOL0     C33419   2.062   8.527  12.494 -0.4811 -0.3484 -0.1393
  989MOL0     C33420   1.944   8.428  12.499  0.8011  0.3434 -0.2510
  989MOL0     C33421   1.993   8.281  12.508 -0.9885  0.1662  1.0498
  989MOL0     C33422   2.069   8.227  12.382  0.0055 -0.6775  0.6103
  989MOL0     C33423   2.090   8.077  12.379  0.1679 -0.0456  0.0335
  989MOL0     C33424   2.147   8.026  12.239  0.4597 -0.5446 -0.9885
  989MOL0    Cl33425   2.129   7.855  12.224  0.3101 -0.5113 -0.1072
  989MOL0     C33426   2.463   8.747  12.444  0.7491 -0.9096 -0.3436
  989MOL0     C33427   2.539   8.801  12.343  0.0025 -0.4696  0.2586
  989MOL0     O33428   2.782   8.656  12.141 -0.6132  0.0356  0.8285
  989MOL0     C33429   2.766   8.933  11.901  0.2531 -0.7446  0.6032
  989MOL0     C33430   2.829   8.982  11.791  0.4579  0.7733  0.2531
  989MOL0     N33431   2.541   8.943  11.058  0.5636 -0.7141  1.1846
  989MOL0     N33432   2.554   8.951  10.931 -0.3337  0.1381 -0.3861
  989MOL0     C33433   3.578   9.138  10.348  0.0329  0.4818  0.0435
  989MOL0     C33434   3.717   9.114  10.354  0.4613 -0.4039  0.6072
  989MOL0     C33435   4.159   9.157  10.302 -1.1064 -0.2532  0.2428
  989MOL0     C33436   4.185   9.284  10.266 -0.7466 -0.0144 -0.3417
  989MOL0     C33437   4.312   9.319  10.207  0.3604 -0.1752  0.4197
  989MOL0     C33438   4.411   9.225  10.199 -0.7652  0.6123  0.2532
  989MOL0     O33439   4.541   9.250  10.146  0.4148  0.0565 -0.3533
  989MOL0     C33440   4.587   9.385  10.125 -0.3260 -0.5105 -0.5475
  989MOL0     C33441   4.738   9.389  10.087  0.2457  0.0030  0.0750
  989MOL0     C33442   4.781   9.528  10.038  0.3080  0.3289 -0.0484
  989MOL0     C33443   4.928   9.553   9.997  0.3973  0.7187 -0.7850
  989MOL0     C33444   4.966   9.485   9.872 -0.0865  0.6943  0.2474
  989MOL0     C33445   4.976   9.418   9.765 -0.8469 -0.0091 -0.6281
  989MOL0     C33446   4.378   9.091  10.232  0.2709 -0.4864 -0.6785
  989MOL0     C33447   4.257   9.061  10.283  0.4060 -0.0327 -0.3054
  989MOL0     H33448   3.834   9.422  10.411  1.6886 -0.3600 -1.3334
  989MOL0     H33449   3.578   9.477  10.405 -0.1721 -0.3545 -1.3332
  989MOL0     H33450   3.412   9.378  10.543  2.1759  1.9998 -4.1329
  989MOL0     H33451   3.242   9.379  10.478  0.4779  0.3515  0.0573
  989MOL0     H33452   3.360   9.119  10.586  1.1664  1.1303  3.0062
  989MOL0     H33453   3.266   9.226  10.683 -1.0791  1.1984  0.2794
  989MOL0     H33454   3.095   9.204  10.469  1.1914 -0.3989 -1.8785
  989MOL0     H33455   3.207   9.069  10.435 -0.3420 -0.6741  0.2475
  989MOL0     H33456   3.049   8.966  10.546  1.8119 -1.4346  1.2698
  989MOL0     H33457   3.170   8.986  10.671 -0.9595 -2.7032 -1.5075
  989MOL0     H33458   3.049   9.189  10.775 -1.3400 -1.9609  2.6163
  989MOL0     H33459   2.936   9.203  10.646 -4.6952 -1.6866  3.1199
  989MOL0     H33460   2.964   8.982  10.835  1.7608  1.2364  0.6921
  989MOL0     H33461   2.842   9.120  10.841  1.4509  1.5099 -0.5117
  989MOL0     H33462   2.721   9.050  10.682  0.1018 -0.0212  1.6712
  989MOL0     H33463   2.844   8.926  10.618  0.5133  1.4718 -0.6470
  989MOL0     H33464   2.772   8.760  10.767 -0.6647 -0.6082 -2.3327
  989MOL0     H33465   2.628   8.836  10.712 -1.1219 -0.3361  1.3552
  989MOL0     H33466   2.852   8.839  11.029 -0.6671 -0.9912  0.5942
  989MOL0     H33467   2.580   8.924  11.309  1.9139  1.8653  1.4771
  989MOL0     H33468   2.691   8.790  11.279  2.0693  0.6689  0.3675
  989MOL0     H33469   2.747   9.088  11.325 -1.4478 -1.2896  1.8722
  989MOL0     H33470   2.867   8.979  11.244 -0.0888 -0.9365 -0.9045
  989MOL0     H33471   2.875   8.836  11.438 -0.7084 -0.5111 -0.1704
  989MOL0     H33472   2.765   8.936  11.533  1.0683 -2.2968  1.6127
  989MOL0     H33473   2.891   9.126  11.553 -2.5190 -2.8668  2.0616
  989MOL0     H33474   3.015   9.067  11.441  0.5962  3.3775  2.0264
  989MOL0     H33475   3.051   8.734  11.739 -0.9564 -1.9327  1.6582
  989MOL0     H33476   3.008   8.558  11.843 -0.6216  1.3414  0.0865
  989MOL0     H33477   2.997   8.571  12.030 -2.5090  2.1104  1.1116
  989MOL0     H33478   2.864   8.531  11.931 -1.1546 -0.2588 -1.8592
  989MOL0     H33479   2.466   8.608  12.074 -2.6126 -0.0301  0.5832
  989MOL0     H33480   2.380   8.471  12.244 -0.6502  0.0010 -0.2771
  989MOL0     H33481   2.327   8.624  12.701 -0.1909  2.4416  0.1279
  989MOL0     H33482   2.254   8.715  12.576  1.1086  0.8837  1.8997
  989MOL0     H33483   2.166   8.433  12.663  0.5075  0.7993  2.5984
  989MOL0     H33484   2.088   8.586  12.704  1.1463  0.3013  0.4677
  989MOL0     H33485   2.129   8.491  12.415  0.9798  0.7284  0.5516
  989MOL0     H33486   2.010   8.621  12.475 -0.6690  0.2295  2.8063
  989MOL0     H33487   1.875   8.448  12.581  0.4400 -0.6852 -0.2903
  989MOL0     H33488   1.887   8.434  12.406 -0.6925  0.4828  0.6448
  989MOL0     H33489   1.899   8.225  12.519 -1.9531  1.6968  0.8038
  989MOL0     H33490   2.053   8.271  12.600 -0.2076  2.0759  0.7914
  989MOL0     H33491   2.024   8.271  12.293 -0.3087  3.2250  2.4700
  989MOL0     H33492   2.171   8.266  12.376 -0.2894 -0.0132 -0.3459
  989MOL0     H33493   1.994   8.026  12.392  0.2441 -0.7196 -1.7489
  989MOL0     H33494   2.154   8.044  12.461 -2.6665 -0.1197  2.3825
  989MOL0     H33495   2.254   8.049  12.249 -0.1479  1.4402  2.7685
  989MOL0     H33496   2.105   8.082  12.155  0.9908  0.4830 -0.5898
  989MOL0     H33497   2.459   8.789  12.544  3.4176  2.5395 -1.4785
  989MOL0     H33498   2.592   8.893  12.366 -2.3609  0.6192  1.7590
  989MOL0     H33499   2.681   8.988  11.940 -2.4098 -3.0965 -1.4439
  989MOL0     H33500   2.795   9.070  11.738 -2.0709 -0.9423 -1.1555
  989MOL0     H33501   3.503   9.067  10.317  0.0775  0.5364 -0.1908
  989MOL0     H33502   3.749   9.012  10.336  2.3486  0.2480  0.0347
  989MOL0     H33503   4.114   9.366  10.275  2.1501  2.8188 -1.3666
  989MOL0     H33504   4.315   9.419  10.167 -2.0173  0.4087  1.4953
  989MOL0     H33505   4.530   9.430  10.043  0.1384  0.3408 -0.4051
  989MOL0     H33506   4.562   9.443  10.214  3.7166  2.0363 -0.8707
  989MOL0     H33507   4.759   9.308  10.016 -0.2395 -1.8476  1.9355
  989MOL0     H33508   4.786   9.369  10.183  2.7282  2.0055 -0.6580
  989MOL0     H33509   4.776   9.592  10.126  1.7918 -0.6515  0.7884
  989MOL0     H33510   4.706   9.569   9.970 -0.6416 -0.1619  0.6836
  989MOL0     H33511   5.011   9.521  10.061 -0.0658  2.8592  1.0547
  989MOL0     H33512   4.954   9.660   9.998 -2.7919  1.5899  0.5286
  989MOL0     H33513   4.984   9.369   9.670  0.6679 -1.8282  0.3712
  989MOL0     H33514   4.457   9.020  10.208  1.3655 -0.1104  1.5115
  989MOL0     H33515   4.235   8.957  10.303 -3.2456  0.9604  1.7853
  990MOL0     O33516   8.316   3.310   9.170  0.1683  0.2149  0.1086
  990MOL0     C33517   8.329   3.433   9.169 -0.1546 -0.1761 -0.1777
  990MOL0     O33518   8.445   3.501   9.180  0.0257  0.2849  0.1025
  990MOL0     C33519   8.543   3.462   9.266  0.2173 -0.2602 -0.0627
  990MOL0     C33520   8.649   3.546   9.265  0.2957 -1.5640 -0.5268
  990MOL0     C33521   8.763   3.525   9.343 -0.2247 -0.1617  0.5429
  990MOL0     C33522   8.766   3.408   9.418  0.3163 -1.8779 -0.5906
  990MOL0     O33523   8.884   3.404   9.483  0.4190 -0.1531  0.1329
  990MOL0     C33524   8.917   3.307   9.581 -0.4577 -0.1381  0.1566
  990MOL0     C33525   9.063   3.291   9.556 -0.7394 -0.4499 -0.2654
  990MOL0     C33526   9.134   3.201   9.655 -1.5339  0.2318 -0.0233
  990MOL0     C33527   9.209   3.268   9.770 -0.1507  0.4623  0.7155
  990MOL0     C33528   9.117   3.345   9.874 -0.8776  0.0453 -0.2197
  990MOL0     C33529   9.205   3.443   9.955  0.6702  0.5093 -0.9894
  990MOL0     C33530   9.118   3.514  10.058  0.0644 -0.5728  0.9685
  990MOL0     C33531   9.027   3.626   9.995 -0.7454 -0.1006 -0.3624
  990MOL0     N33532   8.930   3.672  10.091  0.1324 -0.3530 -0.6113
  990MOL0     C33533   8.937   3.781  10.172 -1.0978  0.6009 -0.5045
  990MOL0     C33534   8.819   3.799  10.235 -0.1134 -0.0969  0.0030
  990MOL0     C33535   8.783   3.910  10.334  0.1498  0.3902 -0.1653
  990MOL0     C33536   8.745   4.036  10.261 -0.6267 -0.6917  0.1066
  990MOL0     C33537   8.678   4.125  10.365 -0.3484  0.0255  0.3596
  990MOL0     C33538   8.671   4.272  10.306  0.1014  0.5486 -0.9525
  990MOL0     O33539   8.596   4.277  10.183 -0.6134  0.3340  0.0395
  990MOL0     C33540   8.461   4.294  10.197 -0.2222  0.1399  0.4042
  990MOL0     C33541   8.402   4.409  10.248 -0.5818 -0.3742 -0.9963
  990MOL0     C33542   8.265   4.430  10.267 -0.1836  0.5730  0.7694
  990MOL0     C33543   8.218   4.557  10.336  0.4645 -0.6108  0.6708
  990MOL0     C33544   8.185   4.317  10.244  0.6570 -0.5379  0.4077
  990MOL0     C33545   8.038   4.311  10.303 -0.7824 -0.4550 -0.8768
  990MOL0     O33546   8.012   4.329  10.434  0.4559  0.6897 -0.2457
  990MOL0     C33547   7.880   4.327  10.474 -0.0467  0.3753  0.3324
  990MOL0     C33548   7.825   4.204  10.511 -1.2592  0.3006 -0.3165
  990MOL0     C33549   7.698   4.201  10.568  0.3508  0.2595 -0.4687
  990MOL0     C33550   7.621   4.319  10.573  0.6762  0.3059 -0.3764
  990MOL0     O33551   7.489   4.313  10.611 -0.3660 -0.3526 -0.0065
  990MOL0     C33552   7.386   4.307  10.504  0.3836 -0.3652  0.0014
  990MOL0     C33553   7.248   4.335  10.574 -0.8308 -0.4574  0.0142
  990MOL0     C33554   7.122   4.292  10.500 -0.9655  0.2244 -0.0603
  990MOL0     C33555   7.019   4.387  10.553  0.7579 -0.6242 -0.0960
  990MOL0     C33556   6.887   4.384  10.475 -0.0519 -0.5073  0.3195
  990MOL0     C33557   6.784   4.469  10.533 -0.1839 -0.5209 -0.9945
  990MOL0     C33558   6.716   4.564  10.429 -0.1487 -0.2950  1.1773
  990MOL0     C33559   6.625   4.486  10.324  0.0861 -0.2053 -0.4178
  990MOL0    Cl33560   6.486   4.408  10.412  0.4190  0.1428  0.2880
  990MOL0     C33561   7.684   4.448  10.533 -0.7607 -0.3328  0.0184
  990MOL0     C33562   7.817   4.442  10.484  0.1300  0.3763 -0.3643
  990MOL0     O33563   7.955   4.288  10.227  0.3297  0.5997  0.3755
  990MOL0     C33564   8.238   4.201  10.187  0.4309  0.2282  0.3339
  990MOL0     C33565   8.374   4.190  10.160 -0.8369  0.1523  0.8845
  990MOL0     N33566   8.739   3.695  10.195 -0.1358  0.8982  0.6070
  990MOL0     N33567   8.806   3.620  10.110 -0.7971  0.6647 -0.7828
  990MOL0     C33568   8.657   3.323   9.430 -0.1882  0.1198  1.4686
  990MOL0     C33569   8.546   3.356   9.358  1.3380 -0.3458 -0.2349
  990MOL0     C33570   8.203   3.508   9.142  0.2331 -1.1637  0.4418
  990MOL0     C33571   8.089   3.442   9.108  0.2775  0.3546  0.0857
  990MOL0     C33572   7.969   3.506   9.089 -0.2046  0.3462  0.5580
  990MOL0     C33573   7.961   3.645   9.095  0.2158  0.3835 -0.1508
  990MOL0     O33574   7.839   3.703   9.067  0.2044  0.5438 -0.0166
  990MOL0     C33575   7.821   3.844   9.073  0.5905 -0.6305  0.0759
  990MOL0     C33576   7.674   3.884   9.058 -0.9156 -0.1027  0.8002
  990MOL0     C33577   7.598   3.861   9.185  0.2626  0.5507 -0.9763
  990MOL0     C33578   7.451   3.914   9.188 -0.2048  0.0409  0.1411
  990MOL0     C33579   7.364   3.867   9.301 -0.0462  0.2322 -0.0453
  990MOL0     C33580   7.297   3.842   9.397 -0.0192  0.0715 -0.4015
  990MOL0     C33581   8.072   3.714   9.131  0.8504 -0.8036 -0.8159
  990MOL0     C33582   8.186   3.641   9.161  0.0206  0.5538 -0.0601
  990MOL0     H33583   8.643   3.643   9.217  2.0544 -0.2900  1.6100
  990MOL0     H33584   8.848   3.591   9.339 -0.2042 -0.1242  1.4862
  990MOL0     H33585   8.895   3.339   9.684 -1.8900  0.8756 -0.4283
  990MOL0     H33586   8.854   3.217   9.576 -5.4540  2.8759  1.0784
  990MOL0     H33587   9.076   3.258   9.453 -0.8047 -0.8463 -0.1479
  990MOL0     H33588   9.100   3.394   9.554 -0.6113 -0.5134 -1.2634
  990MOL0     H33589   9.059   3.135   9.699 -1.1367  0.4170  0.9564
  990MOL0     H33590   9.197   3.125   9.607 -1.3294  0.9988 -1.0037
  990MOL0     H33591   9.263   3.193   9.828  1.2230  1.8747  1.3448
  990MOL0     H33592   9.280   3.336   9.721  0.4847 -0.6934  0.0007
  990MOL0     H33593   9.048   3.410   9.821 -0.2214  0.0401 -1.0984
  990MOL0     H33594   9.062   3.275   9.939  2.0673  0.2877  2.8250
  990MOL0     H33595   9.276   3.378  10.007  1.0231  1.5452 -0.1269
  990MOL0     H33596   9.265   3.515   9.898  0.0486  2.0569  0.2414
  990MOL0     H33597   9.040   3.452  10.104 -0.6512 -0.4004  0.0151
  990MOL0     H33598   9.185   3.539  10.141  2.1652 -1.2533 -0.4356
  990MOL0     H33599   8.973   3.581   9.912 -1.4988  2.6963 -1.5100
  990MOL0     H33600   9.090   3.706   9.955 -4.7212  3.3705 -0.4130
  990MOL0     H33601   9.028   3.841  10.172 -0.1942 -0.7024 -1.6669
  990MOL0     H33602   8.698   3.881  10.397  0.2464  0.1337 -0.1495
  990MOL0     H33603   8.871   3.941  10.392 -0.3935  0.2528  0.7531
  990MOL0     H33604   8.670   4.013  10.185  0.0886 -2.2295 -0.1797
  990MOL0     H33605   8.831   4.082  10.212  0.2441  0.5084  2.5581
  990MOL0     H33606   8.720   4.121  10.466 -1.1096  0.9758  0.7269
  990MOL0     H33607   8.572   4.108  10.384  0.3985 -1.7342  3.6793
  990MOL0     H33608   8.772   4.306  10.283  1.4140 -2.1271  0.3670
  990MOL0     H33609   8.641   4.347  10.379 -2.1819  2.3467 -3.5435
  990MOL0     H33610   8.465   4.491  10.281 -2.3886  1.3537 -1.6910
  990MOL0     H33611   8.142   4.599  10.270 -0.6002 -3.5340 -0.1373
  990MOL0     H33612   8.160   4.539  10.427  1.0587  1.5572  1.5295
  990MOL0     H33613   8.297   4.624  10.369  1.0180 -0.3075 -1.1530
  990MOL0     H33614   7.896   4.122  10.516  0.3060  1.6380  0.3561
  990MOL0     H33615   7.654   4.108  10.604 -3.5392  1.6602 -1.0510
  990MOL0     H33616   7.416   4.385  10.434  0.5191  0.8939  1.4100
  990MOL0     H33617   7.384   4.208  10.457 -0.3269  0.4376 -1.7343
  990MOL0     H33618   7.253   4.292  10.675  1.9881 -2.8153 -0.9709
  990MOL0     H33619   7.236   4.443  10.584 -1.3244 -0.3920 -1.1880
  990MOL0     H33620   7.096   4.187  10.518  3.1022 -0.6423  1.9708
  990MOL0     H33621   7.124   4.301  10.391  0.9966 -1.3264 -0.2045
  990MOL0     H33622   7.010   4.374  10.661  2.8702 -1.5748  0.0033
  990MOL0     H33623   7.054   4.489  10.535  0.6858 -0.6888 -0.6109
  990MOL0     H33624   6.838   4.287  10.473 -2.3498  0.5800  0.3671
  990MOL0     H33625   6.903   4.420  10.373 -2.2161 -0.3082  0.0104
  990MOL0     H33626   6.709   4.416  10.593 -1.6997  2.8764  0.3992
  990MOL0     H33627   6.838   4.537  10.600 -0.6917 -0.0619 -1.0476
  990MOL0     H33628   6.795   4.618  10.378 -1.1582  0.4813  0.3964
  990MOL0     H33629   6.660   4.648  10.471 -0.5537 -1.0951  2.2859
  990MOL0     H33630   6.695   4.417  10.277  0.8477  0.8605 -0.9039
  990MOL0     H33631   6.595   4.557  10.246 -3.3299  0.1499  1.0265
  990MOL0     H33632   7.643   4.548  10.548 -1.1262 -0.5939  0.8726
  990MOL0     H33633   7.863   4.537  10.457  0.4946  0.0758 -0.8226
  990MOL0     H33634   8.160   4.131  10.160  1.2381 -0.3519 -0.5934
  990MOL0     H33635   8.417   4.107  10.105  1.2331  1.7850 -0.1477
  990MOL0     H33636   8.674   3.230   9.483  2.4309 -1.2459 -1.4119
  990MOL0     H33637   8.458   3.293   9.361 -2.1401  3.4208 -5.2465
  990MOL0     H33638   8.089   3.336   9.084  1.3300  0.6922 -1.5391
  990MOL0     H33639   7.883   3.449   9.055  0.6429  0.2069 -1.5218
  990MOL0     H33640   7.860   3.882   9.168 -0.7560  1.0253  0.0185
  990MOL0     H33641   7.878   3.892   8.994 -0.5755  3.3423  1.4294
  990MOL0     H33642   7.634   3.833   8.970 -0.0611 -2.6298  1.7800
  990MOL0     H33643   7.663   3.991   9.038 -3.5567 -0.0055  2.4126
  990MOL0     H33644   7.646   3.916   9.267 -0.8030 -2.7587  2.0893
  990MOL0     H33645   7.590   3.753   9.200  3.6950  0.2658 -0.3162
  990MOL0     H33646   7.403   3.892   9.092  0.4378  1.1651 -0.4618
  990MOL0     H33647   7.457   4.023   9.194 -1.6656  0.2761 -1.7918
  990MOL0     H33648   7.245   3.833   9.491 -0.3939  1.3300 -0.4618
  990MOL0     H33649   8.072   3.822   9.144  1.2940 -1.0418  1.7059
  990MOL0     H33650   8.281   3.692   9.178 -0.0606  1.4471 -1.9969
  991MOL0     O33651   6.837   6.790   2.003 -0.1329 -0.4985  0.3409
  991MOL0     C33652   6.945   6.733   2.020 -1.1356  0.8664  0.4226
  991MOL0     O33653   6.962   6.597   2.037  0.0674  0.0345  0.1010
  991MOL0     C33654   6.861   6.513   2.048  0.4670  0.4059 -0.0263
  991MOL0     C33655   6.768   6.499   1.944  0.2482 -0.1170  0.5881
  991MOL0     C33656   6.670   6.407   1.956  0.4673  0.5242  0.3130
  991MOL0     C33657   6.673   6.304   2.057 -0.3218  0.2976 -0.2585
  991MOL0     O33658   6.570   6.209   2.067  0.7506  0.0987 -0.4717
  991MOL0     C33659   6.583   6.088   2.143  0.0117  0.1554  0.2459
  991MOL0     C33660   6.452   5.996   2.142  0.6818 -0.1953  0.3550
  991MOL0     C33661   6.464   5.891   2.246  0.5265  0.8776 -0.9728
  991MOL0     C33662   6.326   5.853   2.297  0.4197 -0.1252  0.0802
  991MOL0     C33663   6.260   5.947   2.407  0.2604 -0.0400 -0.5534
  991MOL0     C33664   6.334   5.938   2.544  0.9663 -0.0306 -0.0271
  991MOL0     C33665   6.338   5.790   2.584 -0.0952  0.1304 -0.1790
  991MOL0     C33666   6.376   5.775   2.732  0.5885  0.7500  0.2973
  991MOL0     N33667   6.350   5.627   2.756 -0.6531  0.0134  0.1093
  991MOL0     C33668   6.232   5.583   2.809 -0.8028 -0.0217  0.0015
  991MOL0     C33669   6.247   5.447   2.821 -0.4097 -0.8683  1.5770
  991MOL0     C33670   6.140   5.361   2.871 -0.7458 -0.0994  0.3605
  991MOL0     C33671   6.034   5.433   2.967  0.3811 -0.6786  0.3488
  991MOL0     C33672   5.963   5.342   3.068  0.5996 -0.4585  0.0108
  991MOL0     C33673   5.884   5.223   3.012 -0.3697  1.2317  0.3067
  991MOL0     O33674   5.795   5.288   2.913 -0.3605 -0.0719 -0.8120
  991MOL0     C33675   5.662   5.262   2.934  1.2117  0.6244  0.3971
  991MOL0     C33676   5.614   5.131   2.946  0.3378 -0.5244  0.0856
  991MOL0     C33677   5.476   5.108   2.959 -0.7303  1.1139 -0.1916
  991MOL0     C33678   5.435   4.968   2.959 -0.0235  0.1222  0.8072
  991MOL0     C33679   5.385   5.209   2.934 -0.0902 -0.4604 -0.8172
  991MOL0     C33680   5.235   5.197   2.958  0.2708 -0.0914 -0.4079
  991MOL0     O33681   5.197   5.110   3.058  0.8305 -0.0077  0.8916
  991MOL0     C33682   5.063   5.070   3.070  0.2951  0.4251 -0.1407
  991MOL0     C33683   4.989   5.107   3.180 -1.0812 -0.5254 -0.3036
  991MOL0     C33684   4.857   5.062   3.206 -0.8341 -1.0353  0.1361
  991MOL0     C33685   4.804   4.963   3.113  0.4422 -0.4912 -0.2723
  991MOL0     O33686   4.677   4.922   3.135  0.2648 -0.1853  0.5784
  991MOL0     C33687   4.632   4.813   3.051 -0.1929 -0.9867 -0.2416
  991MOL0     C33688   4.487   4.796   3.080 -0.0669 -0.3409 -0.0253
  991MOL0     C33689   4.433   4.681   2.995  0.0799  0.2001  0.2502
  991MOL0     C33690   4.289   4.641   3.037 -0.1077  0.1569 -0.0201
  991MOL0     C33691   4.227   4.545   2.934 -0.1944 -0.6577  0.4812
  991MOL0     C33692   4.195   4.604   2.789 -0.4462 -0.4185 -0.2697
  991MOL0     C33693   4.118   4.493   2.708  0.4763 -0.5136 -0.1539
  991MOL0     C33694   4.076   4.548   2.575  0.3154  0.4709  0.0965
  991MOL0    Cl33695   3.959   4.684   2.590 -0.2055  0.4671 -0.2153
  991MOL0     C33696   4.882   4.926   3.007  0.0272  0.6915 -0.2170
  991MOL0     C33697   5.006   4.972   2.983 -1.0080  0.0548 -0.4358
  991MOL0     O33698   5.159   5.268   2.888  0.0387  0.3887  0.2069
  991MOL0     C33699   5.438   5.341   2.919  0.4964  0.5518  0.5261
  991MOL0     C33700   5.574   5.369   2.924  1.0459  0.0086  0.6989
  991MOL0     N33701   6.372   5.416   2.775 -0.0940  0.3186  0.2431
  991MOL0     N33702   6.432   5.524   2.742  0.2653 -0.0242  0.0455
  991MOL0     C33703   6.783   6.304   2.145 -0.3087  0.2536 -0.7096
  991MOL0     C33704   6.871   6.407   2.144  0.5620 -0.3595 -0.2667
  991MOL0     C33705   7.058   6.817   2.014  0.8951 -0.8438  0.1379
  991MOL0     C33706   7.180   6.772   1.961  0.4964 -0.0907 -0.9126
  991MOL0     C33707   7.296   6.855   1.969 -0.4519 -0.3069 -0.0600
  991MOL0     C33708   7.294   6.985   2.029  1.3002 -0.1594  0.5147
  991MOL0     O33709   7.404   7.064   2.037 -0.9467 -0.5030 -0.6146
  991MOL0     C33710   7.522   7.022   1.971 -0.0128  0.0621 -1.0202
  991MOL0     C33711   7.610   6.919   2.051  0.6695 -0.7042 -0.3671
  991MOL0     C33712   7.607   6.932   2.211  0.0997  0.3598  1.2575
  991MOL0     C33713   7.702   6.829   2.273  0.1037  1.2801  0.3557
  991MOL0     C33714   7.841   6.857   2.251  0.0051  0.1026  0.1064
  991MOL0     C33715   7.949   6.900   2.222  0.3449  0.2221  0.2768
  991MOL0     C33716   7.171   7.025   2.083 -1.2388  0.3108 -0.1186
  991MOL0     C33717   7.064   6.939   2.080 -0.2903 -0.2553 -0.4409
  991MOL0     H33718   6.773   6.553   1.850  2.3407  1.7018  1.6458
  991MOL0     H33719   6.598   6.406   1.875  0.7805  1.1864  0.0190
  991MOL0     H33720   6.657   6.021   2.098  0.6782  1.6978 -1.0456
  991MOL0     H33721   6.605   6.113   2.247 -2.2654  1.2283  0.5362
  991MOL0     H33722   6.366   6.061   2.160 -0.2010 -1.3357  0.3597
  991MOL0     H33723   6.443   5.947   2.045  1.2310 -1.8744  1.0995
  991MOL0     H33724   6.516   5.803   2.208 -0.8420 -0.4305  0.0626
  991MOL0     H33725   6.523   5.925   2.331 -0.4857  0.8091 -0.2230
  991MOL0     H33726   6.274   5.856   2.201  0.7185  1.2100 -0.0685
  991MOL0     H33727   6.322   5.750   2.333  0.1195  0.2645  1.1888
  991MOL0     H33728   6.255   6.051   2.375 -2.3582 -0.7882 -2.9537
  991MOL0     H33729   6.162   5.909   2.436  1.2119  0.8644  5.1371
  991MOL0     H33730   6.438   5.966   2.525  0.5899  1.2246 -0.2626
  991MOL0     H33731   6.292   6.000   2.624  0.9889  0.8515 -0.6898
  991MOL0     H33732   6.245   5.736   2.565  0.2325 -0.3462 -0.4442
  991MOL0     H33733   6.424   5.747   2.533  0.3585  0.7595  0.0388
  991MOL0     H33734   6.311   5.833   2.798  2.5144 -0.0339  3.0560
  991MOL0     H33735   6.484   5.788   2.745  1.5782 -3.2860 -2.1856
  991MOL0     H33736   6.152   5.651   2.837  1.3435  3.2330 -1.2091
  991MOL0     H33737   6.094   5.312   2.785 -0.4612  1.1984 -0.5626
  991MOL0     H33738   6.201   5.284   2.919 -1.8115 -0.4522  1.1695
  991MOL0     H33739   5.970   5.492   2.901  0.2587 -1.6276 -0.4144
  991MOL0     H33740   6.091   5.500   3.031 -1.6523 -1.3068  2.9805
  991MOL0     H33741   5.888   5.408   3.111 -1.6080  0.1983 -4.2735
  991MOL0     H33742   6.034   5.313   3.146  1.5053  3.3533  0.7789
  991MOL0     H33743   5.847   5.165   3.098  3.4931 -1.7580  0.1901
  991MOL0     H33744   5.953   5.162   2.954  0.3484  2.0400  0.2921
  991MOL0     H33745   5.676   5.042   2.939  1.4705  0.3636 -1.9730
  991MOL0     H33746   5.362   4.961   2.878 -0.7225  4.6963  0.7449
  991MOL0     H33747   5.525   4.911   2.936  0.6758  0.3356  2.8368
  991MOL0     H33748   5.391   4.938   3.055  2.6564 -2.4509  1.3673
  991MOL0     H33749   5.040   5.163   3.258 -0.9991 -0.1488 -0.6225
  991MOL0     H33750   4.809   5.098   3.296 -1.1129 -1.3973  0.1356
  991MOL0     H33751   4.634   4.842   2.946  0.4401  0.5555  0.1715
  991MOL0     H33752   4.689   4.721   3.067  1.9455  0.2247 -0.5430
  991MOL0     H33753   4.484   4.788   3.189  0.3601 -0.3659 -0.0135
  991MOL0     H33754   4.430   4.886   3.052 -0.6378 -0.8641 -0.5851
  991MOL0     H33755   4.493   4.591   3.012 -1.7657 -0.7653  2.0394
  991MOL0     H33756   4.445   4.698   2.887  1.5484 -2.5310 -0.1103
  991MOL0     H33757   4.295   4.597   3.137  0.2367  4.3412  2.0139
  991MOL0     H33758   4.221   4.726   3.051 -1.9479 -0.5457 -3.5335
  991MOL0     H33759   4.142   4.503   2.990 -1.5366  0.0496 -0.9603
  991MOL0     H33760   4.307   4.471   2.926 -0.6231 -1.2804  1.6268
  991MOL0     H33761   4.138   4.695   2.807 -0.4594 -0.6128  0.7171
  991MOL0     H33762   4.291   4.623   2.740  0.8767  2.6070  3.1362
  991MOL0     H33763   4.026   4.467   2.760  1.4073  0.3790  2.0842
  991MOL0     H33764   4.186   4.414   2.674  0.5430  0.5838 -2.7806
  991MOL0     H33765   4.008   4.479   2.526 -1.7762  1.6687  1.1822
  991MOL0     H33766   4.162   4.586   2.519 -1.0633  1.1306 -1.6743
  991MOL0     H33767   4.839   4.857   2.934  0.5580  0.6551 -0.5024
  991MOL0     H33768   5.062   4.939   2.896 -1.0482 -2.2436  0.3573
  991MOL0     H33769   5.359   5.413   2.902 -0.1564  0.4403  2.7762
  991MOL0     H33770   5.605   5.471   2.903  2.2029 -0.7926 -1.8804
  991MOL0     H33771   6.792   6.231   2.224  0.7762  0.6047 -0.4925
  991MOL0     H33772   6.940   6.401   2.228  4.3938  0.9073 -3.0189
  991MOL0     H33773   7.193   6.669   1.929 -3.7941 -1.8353  2.1190
  991MOL0     H33774   7.382   6.801   1.931  0.3146  2.6878 -3.0508
  991MOL0     H33775   7.502   6.991   1.868 -3.1193 -2.2407  0.1245
  991MOL0     H33776   7.592   7.106   1.964  1.1817 -0.7560  0.5708
  991MOL0     H33777   7.713   6.933   2.016  0.5639  1.6694  0.0702
  991MOL0     H33778   7.576   6.821   2.017  0.4272 -0.5702 -0.5073
  991MOL0     H33779   7.505   6.910   2.244 -0.2718  0.5318  0.2589
  991MOL0     H33780   7.642   7.031   2.240  0.9343  0.4993 -0.1162
  991MOL0     H33781   7.681   6.726   2.244  0.6399  1.4573 -0.7003
  991MOL0     H33782   7.683   6.836   2.381  3.4241 -2.0030  1.3865
  991MOL0     H33783   8.049   6.929   2.198 -0.1275  1.5547 -0.1448
  991MOL0     H33784   7.161   7.124   2.126  0.6720  0.6421 -0.3294
  991MOL0     H33785   6.976   6.975   2.132  2.0471  3.0659  1.5796
  992MOL0     O33786   5.355   5.899   6.186 -0.1774  1.0216  0.0750
  992MOL0     C33787   5.334   5.982   6.101 -1.4220 -1.2338  0.8840
  992MOL0     O33788   5.212   6.031   6.064 -0.2749  0.2141  0.0511
  992MOL0     C33789   5.092   5.974   6.101 -0.7779 -0.7520 -0.4948
  992MOL0     C33790   5.075   5.834   6.121  1.4730  0.2537  0.3185
  992MOL0     C33791   4.938   5.799   6.140  0.5616  0.5120 -0.9036
  992MOL0     C33792   4.829   5.885   6.165  0.1430  0.5725  0.0399
  992MOL0     O33793   4.710   5.826   6.196 -0.0965  0.1450 -0.0482
  992MOL0     C33794   4.598   5.891   6.169  0.5297 -0.2025  0.7310
  992MOL0     C33795   4.522   5.834   6.056  0.1866  0.2671  0.2469
  992MOL0     C33796   4.386   5.906   6.020  0.5570 -0.1365 -0.7181
  992MOL0     C33797   4.291   5.903   6.151 -0.0157 -0.1860 -0.1806
  992MOL0     C33798   4.154   5.901   6.117 -0.3382  0.0563  0.5093
  992MOL0     C33799   4.063   5.893   6.241  0.2461  0.2120  0.2137
  992MOL0     C33800   3.912   5.910   6.205 -0.4277  0.6682  0.1571
  992MOL0     C33801   3.853   5.785   6.120  0.2437  0.0054  0.0196
  992MOL0     N33802   3.707   5.794   6.083  0.6141  0.1935  0.8532
  992MOL0     C33803   3.615   5.707   6.095 -0.1098 -0.1585  0.3084
  992MOL0     C33804   3.493   5.758   6.057  0.2069 -1.0141  0.0221
  992MOL0     C33805   3.363   5.684   6.078 -0.1598 -0.0957  0.3964
  992MOL0     C33806   3.266   5.716   5.975  0.4435  0.2585 -0.0990
  992MOL0     C33807   3.202   5.851   5.988  0.0685  0.2385  0.2001
  992MOL0     C33808   3.090   5.879   5.878 -0.0613  0.4564  0.6457
  992MOL0     O33809   2.982   5.786   5.885 -0.6056 -0.9183  0.3361
  992MOL0     C33810   2.887   5.797   5.983  0.2630  0.0688 -0.5483
  992MOL0     C33811   2.807   5.686   5.994  0.3601  0.0782  0.7674
  992MOL0     C33812   2.705   5.672   6.093  0.2500 -0.9283 -0.6595
  992MOL0     C33813   2.626   5.540   6.084 -1.2221 -0.6289 -1.1791
  992MOL0     C33814   2.679   5.790   6.169  0.3825 -0.1158 -0.1352
  992MOL0     C33815   2.558   5.803   6.258 -0.9109 -0.1401  0.5811
  992MOL0     O33816   2.523   5.927   6.287 -0.1371  0.4807  0.3002
  992MOL0     C33817   2.390   5.950   6.322  0.3837 -0.7257  1.0699
  992MOL0     C33818   2.338   5.897   6.439  1.1530 -0.1317  0.2212
  992MOL0     C33819   2.206   5.914   6.480 -1.1632  0.3779  0.5598
  992MOL0     C33820   2.118   5.982   6.391 -0.5904  0.3818 -0.9591
  992MOL0     O33821   1.984   5.978   6.431 -0.8284 -0.4443  0.2319
  992MOL0     C33822   1.878   5.933   6.341  0.2092 -0.7330 -0.8738
  992MOL0     C33823   1.753   6.010   6.376 -0.0909  0.6432 -0.0963
  992MOL0     C33824   1.702   5.985   6.516  0.5588 -0.5920  0.9325
  992MOL0     C33825   1.609   6.100   6.543 -1.2893 -1.7698  0.5385
  992MOL0     C33826   1.553   6.097   6.679 -0.1596 -0.1480 -0.0179
  992MOL0     C33827   1.448   6.214   6.682  0.0071 -0.2767  0.3097
  992MOL0     C33828   1.360   6.219   6.806  0.4328 -0.7943 -0.6150
  992MOL0     C33829   1.315   6.367   6.842 -0.0722 -0.2870 -0.6583
  992MOL0    Cl33830   1.453   6.480   6.861  0.0145  0.0349  0.2685
  992MOL0     C33831   2.164   6.034   6.270 -0.3869  0.3526 -0.3809
  992MOL0     C33832   2.295   6.009   6.230 -0.9738  0.0016 -0.3987
  992MOL0     O33833   2.494   5.703   6.289  0.3459 -0.1542  0.6111
  992MOL0     C33834   2.760   5.897   6.164 -0.5795  0.3571 -0.1958
  992MOL0     C33835   2.873   5.899   6.076  0.5652 -0.4438  0.9625
  992MOL0     N33836   3.520   5.885   6.014  0.5477  0.1278 -0.1817
  992MOL0     N33837   3.650   5.907   6.036  0.5514 -0.2919 -0.2378
  992MOL0     C33838   4.864   6.018   6.168 -0.1983 -0.1738  0.2028
  992MOL0     C33839   4.993   6.059   6.133 -0.1390 -0.0089  0.8879
  992MOL0     C33840   5.450   6.062   6.045  0.7422 -0.1904 -0.2322
  992MOL0     C33841   5.431   6.181   5.975 -0.6824 -0.4866 -0.5616
  992MOL0     C33842   5.546   6.263   5.939 -0.6731  0.2405 -0.1591
  992MOL0     C33843   5.679   6.223   5.970  0.1224 -0.0728 -0.4557
  992MOL0     O33844   5.784   6.315   5.968  0.0025 -0.0805  0.4933
  992MOL0     C33845   5.913   6.291   6.026 -0.0486  0.3865 -0.4873
  992MOL0     C33846   5.985   6.426   6.053 -0.2832 -0.3205  0.7325
  992MOL0     C33847   6.049   6.486   5.923 -0.0073 -0.0217 -0.1669
  992MOL0     C33848   6.143   6.605   5.957 -0.0652 -0.2912  0.4448
  992MOL0     C33849   6.076   6.722   6.019 -0.2388  0.1981 -0.4215
  992MOL0     C33850   6.008   6.805   6.071 -0.3078 -0.1385 -0.3253
  992MOL0     C33851   5.696   6.101   6.044 -0.9073 -0.2500  0.5956
  992MOL0     C33852   5.584   6.028   6.076 -0.4978 -0.8952  0.0475
  992MOL0     H33853   5.157   5.764   6.107  1.0273 -0.7860  2.5932
  992MOL0     H33854   4.914   5.693   6.136  0.3355  0.5715 -1.1922
  992MOL0     H33855   4.542   5.887   6.263 -0.8227 -1.0448 -0.0827
  992MOL0     H33856   4.603   5.999   6.152 -2.7113 -0.0890 -0.2702
  992MOL0     H33857   4.579   5.843   5.963  0.6899  4.2660  0.7912
  992MOL0     H33858   4.504   5.727   6.071  1.4418  0.0864  0.6111
  992MOL0     H33859   4.394   6.005   5.975 -1.2870 -0.6035 -2.2227
  992MOL0     H33860   4.336   5.845   5.945 -2.3598  1.4198 -0.1918
  992MOL0     H33861   4.317   5.818   6.215  0.3537  0.3624  0.4083
  992MOL0     H33862   4.319   5.991   6.209  4.1939  2.0213 -4.7964
  992MOL0     H33863   4.131   5.988   6.055  1.9940  1.8420  1.9529
  992MOL0     H33864   4.129   5.818   6.051  0.3420  0.0059  0.3078
  992MOL0     H33865   4.078   5.802   6.300  1.0251  0.8752  1.0630
  992MOL0     H33866   4.085   5.977   6.308 -0.7685  0.2271  0.5500
  992MOL0     H33867   3.844   5.929   6.288  0.6943 -1.2954  1.6046
  992MOL0     H33868   3.915   5.996   6.137 -2.6632  1.1251  0.5450
  992MOL0     H33869   3.875   5.688   6.167  2.5578  0.1308 -0.6828
  992MOL0     H33870   3.906   5.777   6.025 -1.1290 -0.3429 -0.7479
  992MOL0     H33871   3.631   5.614   6.150 -0.6851  0.1492  1.0163
  992MOL0     H33872   3.393   5.579   6.071  1.9681  0.5741 -2.9010
  992MOL0     H33873   3.319   5.697   6.177 -1.2023  2.9696 -0.3902
  992MOL0     H33874   3.186   5.643   5.978 -1.0427  1.7359 -1.5510
  992MOL0     H33875   3.298   5.695   5.872  0.1051 -2.0463  0.2229
  992MOL0     H33876   3.269   5.936   5.971 -1.4039  1.8410  1.9197
  992MOL0     H33877   3.153   5.868   6.085  1.3998 -0.0819  0.9563
  992MOL0     H33878   3.128   5.868   5.776  3.1803 -2.2802  1.9656
  992MOL0     H33879   3.053   5.982   5.887 -0.3267  0.6837 -2.0231
  992MOL0     H33880   2.844   5.606   5.931  4.2132  1.3832  1.1356
  992MOL0     H33881   2.662   5.481   6.000 -0.0727 -2.6944  0.6611
  992MOL0     H33882   2.634   5.486   6.179 -0.2845  0.2806 -0.7225
  992MOL0     H33883   2.518   5.555   6.075 -1.1707  2.5609  1.4758
  992MOL0     H33884   2.414   5.865   6.510  1.7994  2.4298  0.7586
  992MOL0     H33885   2.180   5.863   6.572  1.3639 -4.4661 -1.0711
  992MOL0     H33886   1.905   5.945   6.236 -0.5032  2.6857 -0.7637
  992MOL0     H33887   1.857   5.830   6.373  1.1355 -0.1117  2.0666
  992MOL0     H33888   1.786   6.113   6.363  1.8829  0.0200 -0.4571
  992MOL0     H33889   1.670   5.980   6.311  0.2509 -1.7075  0.4602
  992MOL0     H33890   1.784   5.981   6.587  1.2342  0.0811  0.2137
  992MOL0     H33891   1.645   5.892   6.525  0.2919 -0.3874  1.4217
  992MOL0     H33892   1.667   6.192   6.529  0.6751 -2.7406  1.8672
  992MOL0     H33893   1.527   6.102   6.470  0.8300 -1.2170 -1.9983
  992MOL0     H33894   1.630   6.126   6.751  1.3171 -1.3800 -1.0425
  992MOL0     H33895   1.504   6.001   6.699 -2.6700  1.1851  0.6554
  992MOL0     H33896   1.500   6.311   6.681 -0.1280 -0.1976  0.6689
  992MOL0     H33897   1.380   6.212   6.597  0.2770 -1.4379  0.1146
  992MOL0     H33898   1.417   6.189   6.895 -0.7034  0.4368  0.5836
  992MOL0     H33899   1.272   6.154   6.801 -0.2071  0.1207 -1.6511
  992MOL0     H33900   1.259   6.355   6.935 -2.5432  2.9748 -1.5529
  992MOL0     H33901   1.239   6.406   6.774 -1.5991  0.0703  1.1830
  992MOL0     H33902   2.090   6.078   6.205  1.2248  0.8988 -1.9104
  992MOL0     H33903   2.334   6.042   6.134  1.2479 -1.5774 -0.1210
  992MOL0     H33904   2.742   5.979   6.233 -1.1573  0.1866 -0.1361
  992MOL0     H33905   2.939   5.984   6.068  1.2899 -1.1679 -1.4785
  992MOL0     H33906   4.791   6.092   6.199 -0.6066  1.0000 -3.1210
  992MOL0     H33907   5.011   6.166   6.123 -2.3323  0.1950 -2.3942
  992MOL0     H33908   5.327   6.204   5.954 -0.9409 -2.3879 -1.6271
  992MOL0     H33909   5.537   6.358   5.888  1.2899  0.3429 -0.4144
  992MOL0     H33910   5.904   6.240   6.123 -1.3287  0.8583 -0.3443
  992MOL0     H33911   5.972   6.221   5.965  1.2823 -1.6845  2.8660
  992MOL0     H33912   6.069   6.410   6.122 -1.0974  2.4406  2.5178
  992MOL0     H33913   5.909   6.493   6.093 -0.0390  0.3857  0.0301
  992MOL0     H33914   5.962   6.519   5.865 -0.7490 -1.0914  0.2905
  992MOL0     H33915   6.102   6.407   5.869  0.7592  2.2130 -2.9172
  992MOL0     H33916   6.198   6.632   5.866 -1.6899 -1.1923 -0.8717
  992MOL0     H33917   6.221   6.573   6.026  0.6146  1.5981  0.5944
  992MOL0     H33918   5.951   6.887   6.110  1.2025  1.2798 -0.9851
  992MOL0     H33919   5.795   6.064   6.067 -0.6890 -0.2871 -0.3391
  992MOL0     H33920   5.606   5.931   6.120 -1.4346 -1.0823  0.1267
  993MOL0     O33921   2.832   7.662   4.713  0.1519 -0.8952 -0.7800
  993MOL0     C33922   2.871   7.742   4.621  0.0955  0.1984 -0.3984
  993MOL0     O33923   2.794   7.834   4.554  1.3221  0.7623  0.0412
  993MOL0     C33924   2.662   7.850   4.585  0.2338  0.0679 -0.0106
  993MOL0     C33925   2.611   7.907   4.709 -0.0034 -0.6241  0.7772
  993MOL0     C33926   2.472   7.929   4.730 -0.2549 -0.1184 -0.4844
  993MOL0     C33927   2.385   7.890   4.620  0.1985  0.0028  0.0030
  993MOL0     O33928   2.243   7.928   4.631  0.0625  0.0002 -0.3092
  993MOL0     C33929   2.150   7.887   4.526  0.5357  0.3712 -0.3095
  993MOL0     C33930   2.004   7.925   4.556  0.0198 -0.6180  0.0249
  993MOL0     C33931   1.897   7.873   4.448  0.3606  0.2637  0.3898
  993MOL0     C33932   1.904   7.953   4.320  0.0837  0.0806  0.3144
  993MOL0     C33933   1.803   7.908   4.215 -0.7844 -0.2749 -0.3322
  993MOL0     C33934   1.660   7.922   4.253  0.3177  0.0207 -0.9439
  993MOL0     C33935   1.574   7.880   4.133  0.7335 -0.2796  0.7570
  993MOL0     C33936   1.438   7.833   4.187  0.0189 -0.2054  0.5750
  993MOL0     N33937   1.348   7.789   4.071 -0.6603  0.4788  0.7674
  993MOL0     C33938   1.240   7.862   4.023  0.2567  0.3929 -0.6186
  993MOL0     C33939   1.182   7.772   3.939 -0.4197  0.1902  0.6457
  993MOL0     C33940   1.055   7.790   3.851 -0.0822 -0.6004 -0.7990
  993MOL0     C33941   0.922   7.794   3.930 -0.2136 -0.6202 -0.7722
  993MOL0     C33942   0.900   7.677   4.010  0.8961 -0.6830 -1.2208
  993MOL0     C33943   0.759   7.667   4.063 -0.1380 -0.0277 -0.1499
  993MOL0     O33944   0.660   7.652   3.960 -0.3040 -0.8722  0.5504
  993MOL0     C33945   0.531   7.621   3.991 -0.7143  0.0845 -1.1898
  993MOL0     C33946   0.439   7.656   3.889  1.0216 -0.2570 -0.1757
  993MOL0     C33947   0.301   7.633   3.900  0.2715  0.5447  0.0020
  993MOL0     C33948   0.216   7.667   3.770  0.3342  0.2905 -0.3877
  993MOL0     C33949   0.247   7.573   4.020  0.0996 -0.1479  0.6530
  993MOL0     C33950   0.095   7.557   4.029 -1.1243  0.7694  0.7520
  993MOL0     O33951   0.052   7.445   4.087  0.4839  0.4680  0.6652
  993MOL0     C33952  -0.069   7.388   4.065  0.0451 -0.3280  0.2850
  993MOL0     C33953  -0.125   7.365   3.935 -0.0728 -0.1652 -1.1518
  993MOL0     C33954  -0.252   7.305   3.926 -0.1271 -1.1748  0.8924
  993MOL0     C33955  -0.327   7.282   4.037 -0.2471  0.7753 -0.8208
  993MOL0     O33956  -0.457   7.233   4.043  0.2312 -0.6753 -0.1157
  993MOL0     C33957  -0.511   7.210   3.915  0.2941 -0.5151  0.0977
  993MOL0     C33958  -0.651   7.138   3.937 -0.6208  0.5986  0.0022
  993MOL0     C33959  -0.778   7.226   3.911 -0.3698  0.3516 -1.3542
  993MOL0     C33960  -0.916   7.150   3.909  0.6729 -0.4465 -0.2255
  993MOL0     C33961  -1.036   7.235   3.856 -0.3639 -0.0048 -0.4286
  993MOL0     C33962  -1.173   7.179   3.874  1.0549 -0.0827 -0.3079
  993MOL0     C33963  -1.261   7.148   3.751  0.4810 -0.1721  0.6515
  993MOL0     C33964  -1.388   7.059   3.758 -0.8248 -0.2157  0.1658
  993MOL0    Cl33965  -1.540   7.163   3.816  0.5352 -0.3498  0.0037
  993MOL0     C33966  -0.273   7.297   4.162  0.6057  0.1436  0.0507
  993MOL0     C33967  -0.142   7.356   4.177  0.4341  0.3393 -0.2384
  993MOL0     O33968   0.024   7.644   3.981  0.0889 -0.4502  0.7186
  993MOL0     C33969   0.332   7.535   4.120  0.8799  0.4807  0.2899
  993MOL0     C33970   0.471   7.558   4.109 -0.3529 -0.0034  0.1896
  993MOL0     N33971   1.251   7.645   3.945 -0.1463 -0.7567  0.0724
  993MOL0     N33972   1.349   7.664   4.027  0.4802  0.0705 -1.0094
  993MOL0     C33973   2.438   7.821   4.505 -0.6381 -0.2065  0.2200
  993MOL0     C33974   2.573   7.812   4.487 -0.4013  0.5861  0.3261
  993MOL0     C33975   3.015   7.733   4.584 -0.6663  0.2988 -0.0430
  993MOL0     C33976   3.099   7.662   4.671 -0.1316  0.1249  0.6303
  993MOL0     C33977   3.236   7.673   4.657  0.1321 -0.2476  0.7881
  993MOL0     C33978   3.284   7.743   4.549 -1.0475  0.1815 -0.3586
  993MOL0     O33979   3.424   7.755   4.545 -0.4054 -0.6085  0.3709
  993MOL0     C33980   3.494   7.852   4.463  0.4007 -0.2659 -0.1890
  993MOL0     C33981   3.520   7.792   4.324  0.3364  0.0687  0.2098
  993MOL0     C33982   3.606   7.889   4.248  0.3776  0.0574  0.2038
  993MOL0     C33983   3.676   7.830   4.126 -0.6435  1.0233  0.0649
  993MOL0     C33984   3.801   7.757   4.163 -0.6073 -0.2048 -0.0757
  993MOL0     C33985   3.893   7.694   4.203  0.4014  0.3114  0.0746
  993MOL0     C33986   3.200   7.802   4.453 -0.8736 -0.5395 -0.1064
  993MOL0     C33987   3.064   7.792   4.468  0.6716  0.4266  0.2946
  993MOL0     H33988   2.676   7.945   4.787 -0.4186  0.9691  0.3751
  993MOL0     H33989   2.424   7.970   4.818  0.3230 -0.2223 -0.1183
  993MOL0     H33990   2.184   7.927   4.430 -0.9276  1.2016 -0.5046
  993MOL0     H33991   2.140   7.778   4.518 -0.8701  0.4793 -0.2430
  993MOL0     H33992   1.970   7.908   4.658  0.8617 -0.3600  0.3558
  993MOL0     H33993   1.989   8.034   4.560 -0.2959 -0.6738  0.3869
  993MOL0     H33994   1.935   7.772   4.428  1.2589  1.0983 -2.5959
  993MOL0     H33995   1.799   7.860   4.494  0.0061  2.5683  0.4195
  993MOL0     H33996   1.877   8.057   4.341 -1.9579 -0.1656 -0.8232
  993MOL0     H33997   2.004   7.940   4.277  0.1355 -0.5988  0.6185
  993MOL0     H33998   1.814   7.965   4.123 -1.6455  0.1665 -0.1721
  993MOL0     H33999   1.842   7.809   4.190  1.0779  0.7571 -1.7796
  993MOL0     H34000   1.638   7.853   4.335  1.9438 -0.7912 -1.1329
  993MOL0     H34001   1.637   8.027   4.274 -0.4063 -0.3761  0.3362
  993MOL0     H34002   1.550   7.971   4.077  3.4500  0.2159  0.2149
  993MOL0     H34003   1.613   7.805   4.063  0.2842  0.7492 -0.6591
  993MOL0     H34004   1.383   7.911   4.242  2.5568  1.9478  0.2464
  993MOL0     H34005   1.457   7.742   4.244  1.8516  0.4699  1.1045
  993MOL0     H34006   1.200   7.958   4.054  0.6833  0.0819  0.9777
  993MOL0     H34007   1.051   7.885   3.797 -2.1937  1.2225  2.2489
  993MOL0     H34008   1.051   7.710   3.776  1.0029 -0.0160 -1.5062
  993MOL0     H34009   0.852   7.789   3.845  1.0459 -2.5982 -1.7693
  993MOL0     H34010   0.909   7.881   3.994  1.2019 -1.1506  0.2757
  993MOL0     H34011   0.978   7.691   4.086  1.8696 -0.4991 -2.2329
  993MOL0     H34012   0.932   7.590   3.953  1.9825 -0.5562 -0.8411
  993MOL0     H34013   0.741   7.750   4.132 -3.4314 -0.1472 -0.7214
  993MOL0     H34014   0.762   7.580   4.129 -0.1365 -0.7625 -1.0921
  993MOL0     H34015   0.483   7.694   3.797  2.0338  0.9409  0.7577
  993MOL0     H34016   0.146   7.589   3.740  0.1562 -0.1139  0.9932
  993MOL0     H34017   0.149   7.751   3.793 -2.5946 -1.7308 -1.0394
  993MOL0     H34018   0.284   7.678   3.685  1.2136  1.9740  0.4728
  993MOL0     H34019  -0.066   7.384   3.846  3.2753  3.7416  1.5604
  993MOL0     H34020  -0.296   7.298   3.828  0.4495  2.0878  0.2627
  993MOL0     H34021  -0.520   7.303   3.858 -0.8510 -1.3043 -1.0585
  993MOL0     H34022  -0.449   7.137   3.862  1.3170 -1.9213  2.9876
  993MOL0     H34023  -0.654   7.056   3.865  0.3811  0.9291 -0.4353
  993MOL0     H34024  -0.652   7.092   4.036  0.9042  1.6130  0.5340
  993MOL0     H34025  -0.766   7.294   3.826 -1.5374  2.1079 -0.1745
  993MOL0     H34026  -0.785   7.287   4.002  4.8491 -0.1185 -0.3065
  993MOL0     H34027  -0.904   7.058   3.852  0.5083 -0.3976 -0.3417
  993MOL0     H34028  -0.955   7.113   4.004 -2.0898 -1.1474 -1.5385
  993MOL0     H34029  -1.032   7.245   3.747  3.2008 -3.1208 -0.8159
  993MOL0     H34030  -1.033   7.328   3.913 -2.0730 -0.2835  0.1855
  993MOL0     H34031  -1.160   7.097   3.946  0.0971 -0.0142 -0.0421
  993MOL0     H34032  -1.227   7.258   3.927  1.6533  0.3252 -0.3016
  993MOL0     H34033  -1.197   7.105   3.675 -0.2807 -0.5969  0.2370
  993MOL0     H34034  -1.299   7.242   3.710 -0.8705 -0.1722  1.7968
  993MOL0     H34035  -1.366   6.972   3.822  1.1644  0.6490  0.7198
  993MOL0     H34036  -1.406   7.022   3.657  0.3587 -1.0797  0.2483
  993MOL0     H34037  -0.327   7.250   4.243 -1.6029 -3.5500 -3.2559
  993MOL0     H34038  -0.112   7.393   4.274  0.4084 -0.9094  0.2643
  993MOL0     H34039   0.291   7.483   4.206  1.9520 -3.7714 -1.5216
  993MOL0     H34040   0.535   7.515   4.184 -0.0525  0.3976  0.1658
  993MOL0     H34041   2.375   7.789   4.422 -0.0386  2.1902 -1.2855
  993MOL0     H34042   2.616   7.761   4.401 -0.3099 -0.2633  0.8594
  993MOL0     H34043   3.064   7.586   4.741  0.7667 -0.4577  0.4540
  993MOL0     H34044   3.300   7.626   4.731  0.8843 -1.9194 -0.8402
  993MOL0     H34045   3.431   7.940   4.442  1.1432 -0.1137 -1.9198
  993MOL0     H34046   3.591   7.873   4.509  1.0736 -3.5182  0.0711
  993MOL0     H34047   3.426   7.768   4.272 -1.3774  2.9668  1.7203
  993MOL0     H34048   3.570   7.695   4.334 -0.5551 -0.4935 -0.5414
  993MOL0     H34049   3.668   7.935   4.324 -0.1696 -2.4906  2.3405
  993MOL0     H34050   3.536   7.966   4.214  2.9076  2.9964  1.2591
  993MOL0     H34051   3.703   7.905   4.051  1.4638 -0.7770 -1.1239
  993MOL0     H34052   3.608   7.756   4.082  3.0462 -2.7835  0.1302
  993MOL0     H34053   3.975   7.639   4.243 -2.6411 -4.1883  0.9306
  993MOL0     H34054   3.249   7.860   4.375 -1.4490  1.7722  1.1600
  993MOL0     H34055   2.995   7.842   4.402 -0.3862 -0.7625  0.4632
  994MOL0     O34056  10.549   4.342   1.963  0.2116 -0.6236 -0.1366
  994MOL0     C34057  10.636   4.359   1.871  0.6410 -0.2832  0.6795
  994MOL0     O34058  10.615   4.353   1.743  0.9177 -0.3442 -0.0831
  994MOL0     C34059  10.483   4.359   1.696 -0.2494 -0.6017 -0.7355
  994MOL0     C34060  10.411   4.472   1.658 -0.8529  0.5506 -0.2221
  994MOL0     C34061  10.275   4.462   1.614 -0.3912  0.8999 -0.5276
  994MOL0     C34062  10.214   4.333   1.600  0.5796  0.2422 -0.3299
  994MOL0     O34063  10.080   4.332   1.556  0.0506  0.1462  0.3454
  994MOL0     C34064   9.993   4.256   1.642  0.1994  0.0604 -0.8693
  994MOL0     C34065   9.882   4.348   1.706  0.4387 -0.2103 -0.0414
  994MOL0     C34066   9.794   4.288   1.820  0.1679  0.4873 -0.0790
  994MOL0     C34067   9.704   4.172   1.778  0.9491 -0.1126  0.1953
  994MOL0     C34068   9.565   4.175   1.850 -0.1991 -0.2827 -1.0845
  994MOL0     C34069   9.457   4.094   1.779 -0.4495 -0.4514  0.5153
  994MOL0     C34070   9.336   4.086   1.875  0.1179  0.0656  0.7012
  994MOL0     C34071   9.229   4.014   1.793 -0.1803  0.3100 -0.5786
  994MOL0     N34072   9.103   4.002   1.864 -0.5433  0.1018  0.2440
  994MOL0     C34073   9.081   3.925   1.973  0.0912 -0.4469  0.4343
  994MOL0     C34074   8.945   3.915   1.973 -0.4570  0.2584  0.0821
  994MOL0     C34075   8.884   3.843   2.085 -0.4678  0.7425 -0.1354
  994MOL0     C34076   8.758   3.789   2.027 -0.3534  0.1359  0.5786
  994MOL0     C34077   8.716   3.663   2.116 -0.8923 -0.2721 -1.1276
  994MOL0     C34078   8.577   3.605   2.081 -0.0053  0.2903  0.7851
  994MOL0     O34079   8.507   3.554   2.194 -0.7642 -0.1730  0.6179
  994MOL0     C34080   8.369   3.540   2.180 -0.8763 -0.5412  0.0618
  994MOL0     C34081   8.291   3.538   2.067  0.0947  0.0912  0.2185
  994MOL0     C34082   8.153   3.534   2.067 -0.7306 -0.7949  0.2815
  994MOL0     C34083   8.080   3.524   1.934 -0.0561  0.5967  0.4808
  994MOL0     C34084   8.092   3.529   2.192 -0.3321  0.0355 -0.7131
  994MOL0     C34085   7.944   3.520   2.214 -1.1150  0.6168 -0.1634
  994MOL0     O34086   7.862   3.525   2.104 -0.5327 -0.3997 -0.3778
  994MOL0     C34087   7.746   3.447   2.105 -0.0873  0.0873  0.3860
  994MOL0     C34088   7.762   3.306   2.084 -0.0756 -0.2980 -0.6264
  994MOL0     C34089   7.651   3.226   2.076  0.6310  0.9275  0.3502
  994MOL0     C34090   7.520   3.277   2.095  0.2727  0.2374 -0.3908
  994MOL0     O34091   7.403   3.208   2.078  1.3490  0.0110 -0.2266
  994MOL0     C34092   7.406   3.081   2.016 -0.9925 -0.2669 -0.0270
  994MOL0     C34093   7.277   3.020   1.984 -0.4584 -0.0516 -0.4090
  994MOL0     C34094   7.201   2.952   2.089 -0.3950  0.2492 -0.0539
  994MOL0     C34095   7.062   3.007   2.106  0.0507 -0.0158 -0.1238
  994MOL0     C34096   6.966   2.918   2.179  0.2718  0.2768 -0.6639
  994MOL0     C34097   6.829   2.978   2.219 -0.3367  0.5360  0.3756
  994MOL0     C34098   6.744   2.874   2.295 -0.2523  0.0622 -0.0797
  994MOL0     C34099   6.612   2.929   2.329  0.8035  0.2545  0.2989
  994MOL0    Cl34100   6.637   3.077   2.428  0.2140 -0.6467 -0.1545
  994MOL0     C34101   7.511   3.408   2.118 -0.3101 -0.0606 -0.2645
  994MOL0     C34102   7.620   3.492   2.114 -0.4442 -0.3820  0.9575
  994MOL0     O34103   7.905   3.509   2.325  0.5881 -0.2266 -0.7631
  994MOL0     C34104   8.172   3.519   2.309 -0.1134 -0.1621 -0.6996
  994MOL0     C34105   8.311   3.525   2.304  0.8020 -1.0604  0.9664
  994MOL0     N34106   8.891   3.982   1.863 -0.0959 -0.1071  0.3634
  994MOL0     N34107   8.988   4.030   1.799  0.4967 -0.0366 -0.4444
  994MOL0     C34108  10.295   4.216   1.627 -0.1714 -0.1820 -0.2575
  994MOL0     C34109  10.419   4.234   1.681 -0.7713 -0.8460  0.5394
  994MOL0     C34110  10.781   4.385   1.909 -0.2172  0.4699  1.2791
  994MOL0     C34111  10.890   4.365   1.813 -0.4563  0.0903  0.1315
  994MOL0     C34112  11.021   4.383   1.855 -0.3158  0.8599  0.2520
  994MOL0     C34113  11.054   4.419   1.988 -0.1910 -0.8032  0.0981
  994MOL0     O34114  11.171   4.437   2.052 -0.0547 -0.0592  0.1167
  994MOL0     C34115  11.285   4.480   1.975  0.3325 -0.8195  0.1053
  994MOL0     C34116  11.414   4.484   2.058 -0.8115 -0.2900  0.7557
  994MOL0     C34117  11.540   4.507   1.964  0.0017 -0.5083  0.4418
  994MOL0     C34118  11.669   4.535   2.054 -0.4336  0.0502  0.4546
  994MOL0     C34119  11.656   4.632   2.159  0.0651 -0.1454  0.0205
  994MOL0     C34120  11.654   4.702   2.262 -0.2805  0.0444  0.1398
  994MOL0     C34121  10.956   4.433   2.079  0.5503  0.2631 -0.6851
  994MOL0     C34122  10.824   4.416   2.039  0.6629 -0.2300 -0.6136
  994MOL0     H34123  10.466   4.565   1.651  1.2487 -0.7622 -3.3880
  994MOL0     H34124  10.230   4.554   1.581 -2.8939 -0.2625 -0.5462
  994MOL0     H34125   9.938   4.178   1.588  0.3992 -0.2925 -0.5724
  994MOL0     H34126  10.043   4.198   1.721 -2.3221  2.1634  2.5587
  994MOL0     H34127   9.926   4.438   1.749 -0.0600 -1.7041  4.0883
  994MOL0     H34128   9.812   4.390   1.634  1.0776  1.2619  0.1479
  994MOL0     H34129   9.849   4.264   1.911 -1.5744 -4.3727 -0.0211
  994MOL0     H34130   9.733   4.374   1.847 -0.1227 -0.7610  3.7587
  994MOL0     H34131   9.673   4.175   1.673 -0.1287 -2.7502  0.3734
  994MOL0     H34132   9.766   4.084   1.798 -0.0313 -0.4524  1.9158
  994MOL0     H34133   9.592   4.133   1.948 -0.1189 -0.6188 -1.2464
  994MOL0     H34134   9.526   4.277   1.852  1.3567  0.3378 -0.3417
  994MOL0     H34135   9.425   4.136   1.684 -1.0825  0.3070  1.0469
  994MOL0     H34136   9.493   3.991   1.769  3.2246  0.7488 -0.0127
  994MOL0     H34137   9.357   4.031   1.967  0.3727 -0.9190  0.0711
  994MOL0     H34138   9.293   4.185   1.893 -3.0871 -0.8602 -1.1043
  994MOL0     H34139   9.267   3.917   1.760  0.7273  1.0064 -1.6059
  994MOL0     H34140   9.207   4.064   1.698  3.1276 -0.3806 -1.8345
  994MOL0     H34141   9.163   3.881   2.030  0.4265  0.0836  0.3654
  994MOL0     H34142   8.956   3.773   2.128  0.2158  1.3955 -0.1826
  994MOL0     H34143   8.866   3.915   2.166  1.7990  1.7227 -0.4371
  994MOL0     H34144   8.778   3.742   1.930  2.4328 -1.7617  1.9132
  994MOL0     H34145   8.671   3.854   2.036 -0.3495 -0.0536  2.4633
  994MOL0     H34146   8.716   3.709   2.216  4.0726  0.8939 -1.3806
  994MOL0     H34147   8.804   3.601   2.100 -0.9455 -0.1377 -1.9840
  994MOL0     H34148   8.592   3.521   2.011 -0.6486  0.0847  0.8817
  994MOL0     H34149   8.521   3.688   2.038  1.8132  2.0974  1.7280
  994MOL0     H34150   8.345   3.537   1.972 -0.2354  1.2368 -0.0004
  994MOL0     H34151   8.146   3.492   1.852  0.1343  2.5254 -0.1852
  994MOL0     H34152   7.996   3.454   1.929  3.5181 -4.1723  1.0339
  994MOL0     H34153   8.036   3.623   1.915 -0.0589  0.6422  0.7244
  994MOL0     H34154   7.864   3.272   2.064  2.1110  3.3953  2.8034
  994MOL0     H34155   7.659   3.122   2.047 -2.9010  0.6956 -0.2284
  994MOL0     H34156   7.467   3.086   1.925  1.7573 -1.3510  1.6033
  994MOL0     H34157   7.448   3.008   2.086  0.5066  3.1768  3.0167
  994MOL0     H34158   7.216   3.086   1.922 -1.4908 -1.7843 -1.3421
  994MOL0     H34159   7.305   2.951   1.903  1.7771  0.7651 -0.4191
  994MOL0     H34160   7.259   2.961   2.181  1.9579  1.4043 -1.5473
  994MOL0     H34161   7.200   2.846   2.062 -0.3537 -0.0740  1.1457
  994MOL0     H34162   7.081   3.100   2.160 -1.8049 -0.3100  1.0955
  994MOL0     H34163   7.016   3.048   2.015 -0.7114 -0.5426  0.0153
  994MOL0     H34164   7.018   2.885   2.269  2.1553 -0.5479 -1.9971
  994MOL0     H34165   6.942   2.830   2.119 -5.1609  0.0719  1.2413
  994MOL0     H34166   6.858   3.066   2.277  2.7534 -2.4929  3.8848
  994MOL0     H34167   6.767   3.004   2.132  0.3118  0.3179 -0.1643
  994MOL0     H34168   6.796   2.857   2.390  2.0383  2.3421 -0.8023
  994MOL0     H34169   6.734   2.777   2.244  1.2839  0.0844 -0.4840
  994MOL0     H34170   6.565   2.845   2.382 -1.5952  1.7735  0.7388
  994MOL0     H34171   6.550   2.945   2.240  1.6635 -0.8092 -0.5239
  994MOL0     H34172   7.414   3.456   2.132 -0.2856 -0.9168  4.2886
  994MOL0     H34173   7.600   3.599   2.112 -0.5699 -0.3913  1.5453
  994MOL0     H34174   8.124   3.517   2.407  0.9952  1.8586 -0.0408
  994MOL0     H34175   8.379   3.514   2.388 -0.2874  1.7764  2.3364
  994MOL0     H34176  10.248   4.119   1.616  0.0068 -0.7156  2.7412
  994MOL0     H34177  10.478   4.145   1.697  1.4822  0.6504  1.0943
  994MOL0     H34178  10.867   4.339   1.711 -0.7070  2.5166 -0.4847
  994MOL0     H34179  11.098   4.361   1.782  1.6659 -0.0969  2.4949
  994MOL0     H34180  11.294   4.398   1.903  0.1736 -1.1168  0.4220
  994MOL0     H34181  11.267   4.578   1.930 -0.6191 -0.7979  0.4925
  994MOL0     H34182  11.428   4.396   2.120 -3.7387 -2.2044 -1.0483
  994MOL0     H34183  11.398   4.569   2.126 -0.0369 -0.7213  1.4908
  994MOL0     H34184  11.516   4.589   1.895 -1.6975 -0.8058  0.6313
  994MOL0     H34185  11.566   4.419   1.905  0.7818 -0.7011  1.0620
  994MOL0     H34186  11.756   4.551   1.990 -0.7325 -2.2625 -0.6208
  994MOL0     H34187  11.692   4.435   2.093  3.1804 -0.2860 -1.9675
  994MOL0     H34188  11.652   4.763   2.350 -0.4139  0.0241  0.1498
  994MOL0     H34189  10.983   4.447   2.183  4.5298  0.9716 -1.6587
  994MOL0     H34190  10.747   4.414   2.116  1.4287  0.4222  0.1998
  995MOL0     O34191   6.194   2.969   2.966  0.9950 -0.4974  0.0045
  995MOL0     C34192   6.138   3.055   2.891 -0.4502  0.3189  0.1193
  995MOL0     O34193   6.214   3.141   2.809 -0.0371  0.1948  0.1970
  995MOL0     C34194   6.353   3.135   2.833  0.1046  1.0625  1.5253
  995MOL0     C34195   6.408   3.208   2.940  0.1522  0.7398  0.5778
  995MOL0     C34196   6.543   3.191   2.976  0.1442  0.5629 -0.4033
  995MOL0     C34197   6.627   3.101   2.903 -0.4212 -0.5202 -0.4431
  995MOL0     O34198   6.759   3.083   2.942  0.3034 -0.3410  0.6706
  995MOL0     C34199   6.860   3.116   2.844  0.3026  0.2931 -0.2073
  995MOL0     C34200   6.931   2.990   2.780 -0.4133 -0.0489  0.3885
  995MOL0     C34201   7.047   3.026   2.694  0.2140  0.2866 -0.0945
  995MOL0     C34202   7.104   2.899   2.634  0.8129  0.1145 -1.1657
  995MOL0     C34203   7.220   2.934   2.540  0.1359  0.2863 -0.1666
  995MOL0     C34204   7.345   2.982   2.613  0.1321 -0.4177  0.1089
  995MOL0     C34205   7.470   2.988   2.528  0.3427 -0.7318 -0.4177
  995MOL0     C34206   7.518   2.844   2.496 -0.4446  0.4229  0.2332
  995MOL0     N34207   7.583   2.839   2.363 -1.2582  0.2231 -0.5918
  995MOL0     C34208   7.708   2.884   2.339  0.5565 -0.7217 -0.2270
  995MOL0     C34209   7.716   2.832   2.211 -1.3709 -0.8470 -1.1900
  995MOL0     C34210   7.844   2.833   2.132  0.4385  0.0435 -0.0019
  995MOL0     C34211   7.965   2.776   2.204  0.5462  0.5258 -0.3850
  995MOL0     C34212   8.089   2.838   2.128  0.1819 -0.1520 -0.2001
  995MOL0     C34213   8.212   2.755   2.140 -0.4995 -0.6262 -0.1045
  995MOL0     O34214   8.327   2.812   2.071 -0.1299 -0.2387  0.7825
  995MOL0     C34215   8.452   2.765   2.100  0.0505  0.2141 -0.8535
  995MOL0     C34216   8.564   2.832   2.049 -0.3384  0.3565 -0.1351
  995MOL0     C34217   8.691   2.802   2.089 -0.0773  0.2390 -0.7878
  995MOL0     C34218   8.798   2.895   2.038 -0.4414 -0.3282  0.1583
  995MOL0     C34219   8.711   2.689   2.175  0.0379  0.9694 -0.5726
  995MOL0     C34220   8.850   2.655   2.227  0.2855 -0.2070 -0.1660
  995MOL0     O34221   8.857   2.558   2.326  0.1117 -0.0205 -0.2176
  995MOL0     C34222   8.981   2.550   2.390  0.4271 -0.4156 -0.4650
  995MOL0     C34223   9.098   2.503   2.330 -0.3686  0.3998 -0.0926
  995MOL0     C34224   9.221   2.493   2.394  0.7851 -0.0263 -0.2933
  995MOL0     C34225   9.237   2.531   2.532 -0.2539  0.4312  1.1892
  995MOL0     O34226   9.365   2.525   2.575  0.4165 -0.0872 -0.8873
  995MOL0     C34227   9.388   2.527   2.713 -1.0175  1.1881 -0.3711
  995MOL0     C34228   9.499   2.620   2.747  0.4679  0.9594 -0.4779
  995MOL0     C34229   9.458   2.746   2.823  0.0618 -0.4958 -0.5044
  995MOL0     C34230   9.338   2.735   2.918  0.3541 -0.3039 -0.5733
  995MOL0     C34231   9.322   2.849   3.023  0.3343 -0.1377  0.6154
  995MOL0     C34232   9.198   2.845   3.112 -0.1909  0.2285  0.1768
  995MOL0     C34233   9.223   2.924   3.244  0.3200  0.0440  0.7467
  995MOL0     C34234   9.089   2.958   3.298  0.3029 -0.9960  0.6437
  995MOL0    Cl34235   9.112   3.075   3.424  0.3562 -0.5402  0.1283
  995MOL0     C34236   9.114   2.561   2.599 -0.4830 -0.3875 -0.1006
  995MOL0     C34237   8.989   2.577   2.528  0.7034  0.3519  0.0951
  995MOL0     O34238   8.946   2.718   2.193  0.1887 -0.2303 -0.1555
  995MOL0     C34239   8.609   2.608   2.212  0.0351 -0.8212 -0.5207
  995MOL0     C34240   8.475   2.647   2.175 -0.3100  1.2488 -0.5750
  995MOL0     N34241   7.603   2.782   2.163 -0.3149  0.1099 -0.3120
  995MOL0     N34242   7.524   2.783   2.256 -0.3626  0.3092 -0.7735
  995MOL0     C34243   6.579   3.049   2.790 -0.3203  0.2571  0.8294
  995MOL0     C34244   6.439   3.057   2.759 -0.8791 -0.0898 -0.2801
  995MOL0     C34245   5.994   3.052   2.879  0.9002 -0.3747  1.0045
  995MOL0     C34246   5.905   2.961   2.945  0.2148 -0.5564  0.0519
  995MOL0     C34247   5.764   2.957   2.925  0.1840 -0.5510  0.3527
  995MOL0     C34248   5.710   3.034   2.824  0.5928  0.2488  1.3008
  995MOL0     O34249   5.583   3.044   2.789  0.1489  0.4059 -0.7964
  995MOL0     C34250   5.483   2.983   2.882  0.2835 -0.7463 -0.0576
  995MOL0     C34251   5.339   3.036   2.864  0.3791 -0.1112 -0.8722
  995MOL0     C34252   5.268   2.992   2.741  0.5154 -0.1975 -0.0958
  995MOL0     C34253   5.296   3.085   2.618 -0.6726  1.2259  0.1884
  995MOL0     C34254   5.244   3.226   2.632 -0.0944  0.1614  0.3647
  995MOL0     C34255   5.192   3.337   2.648  0.0399 -0.2937  0.3325
  995MOL0     C34256   5.796   3.123   2.753  0.2448  0.0639  0.4441
  995MOL0     C34257   5.932   3.135   2.779  0.5282 -0.7869  0.8583
  995MOL0     H34258   6.347   3.277   2.997 -0.2012  0.0728  1.0158
  995MOL0     H34259   6.577   3.237   3.068 -0.5308 -0.6716  0.4905
  995MOL0     H34260   6.812   3.171   2.762 -1.4060  1.9398  1.7795
  995MOL0     H34261   6.934   3.188   2.882  2.2544 -2.1935  1.0094
  995MOL0     H34262   6.967   2.938   2.869 -1.0156  1.0254  1.2903
  995MOL0     H34263   6.867   2.915   2.733  0.6037 -2.6937  2.9563
  995MOL0     H34264   7.013   3.092   2.614 -0.3652 -1.6470 -1.4948
  995MOL0     H34265   7.118   3.085   2.752 -0.2274  1.9197 -1.1454
  995MOL0     H34266   7.129   2.836   2.720  1.2676  1.5600 -0.1936
  995MOL0     H34267   7.025   2.852   2.576  1.5449  0.7416 -2.7375
  995MOL0     H34268   7.236   2.844   2.481 -0.7714 -0.0808  0.1212
  995MOL0     H34269   7.177   3.010   2.474 -0.5445  0.1646  0.1228
  995MOL0     H34270   7.327   3.085   2.644 -0.4208 -0.2512 -0.7350
  995MOL0     H34271   7.365   2.914   2.696 -4.4477 -2.3996 -0.0711
  995MOL0     H34272   7.451   3.036   2.431  1.1510 -0.4474 -0.4443
  995MOL0     H34273   7.540   3.042   2.592 -0.6814 -0.1104  0.1899
  995MOL0     H34274   7.438   2.771   2.479  0.3967  0.0366 -2.6371
  995MOL0     H34275   7.589   2.811   2.572  0.7426  3.2832  0.4678
  995MOL0     H34276   7.777   2.925   2.412 -1.6721 -1.5861  2.5364
  995MOL0     H34277   7.818   2.767   2.048 -4.7583 -0.9255  1.9842
  995MOL0     H34278   7.868   2.935   2.099  1.9120 -0.5532 -0.8921
  995MOL0     H34279   7.962   2.667   2.195 -0.5622  0.7174 -4.1567
  995MOL0     H34280   7.975   2.805   2.309  0.8991 -4.2507  1.1137
  995MOL0     H34281   8.103   2.938   2.172 -0.8732  1.0786 -2.5124
  995MOL0     H34282   8.074   2.857   2.022 -2.1998 -0.8008 -0.0281
  995MOL0     H34283   8.197   2.654   2.102  2.0766  0.7062 -5.5596
  995MOL0     H34284   8.234   2.752   2.248 -1.0352  0.2905  0.0353
  995MOL0     H34285   8.543   2.911   1.978 -2.6849  1.0004  1.1814
  995MOL0     H34286   8.859   2.932   2.121  2.7829 -2.6021 -0.9792
  995MOL0     H34287   8.858   2.835   1.968  0.0088 -2.4431  2.2345
  995MOL0     H34288   8.755   2.982   1.988  2.6454 -0.2438 -2.7512
  995MOL0     H34289   9.084   2.478   2.225 -1.3901  3.2422 -0.7236
  995MOL0     H34290   9.298   2.445   2.335  0.2290 -0.4886 -0.6596
  995MOL0     H34291   9.304   2.536   2.783 -0.0764 -1.2670  1.2088
  995MOL0     H34292   9.416   2.422   2.726 -1.2339  0.7037 -3.1199
  995MOL0     H34293   9.556   2.566   2.823  0.7544  2.7160  0.6134
  995MOL0     H34294   9.557   2.655   2.661 -0.3575 -0.8325 -1.8224
  995MOL0     H34295   9.436   2.827   2.753 -2.2622 -1.9766 -1.6314
  995MOL0     H34296   9.545   2.773   2.884  0.4190  2.4352 -2.1489
  995MOL0     H34297   9.247   2.730   2.858  0.6418 -0.7866 -0.9780
  995MOL0     H34298   9.350   2.643   2.977  0.3291 -1.7656 -2.7339
  995MOL0     H34299   9.341   2.942   2.969 -0.4960 -0.2131  0.1830
  995MOL0     H34300   9.417   2.831   3.076  0.9479 -2.2036 -1.0263
  995MOL0     H34301   9.117   2.880   3.049  0.2347 -3.5291 -2.8428
  995MOL0     H34302   9.170   2.744   3.145 -3.5521  0.6892 -0.9412
  995MOL0     H34303   9.272   3.016   3.211  0.5250 -0.6465 -1.0108
  995MOL0     H34304   9.291   2.883   3.318  0.0652  0.9500  1.5047
  995MOL0     H34305   9.044   2.865   3.334 -0.7119 -1.6257 -2.0541
  995MOL0     H34306   9.020   3.003   3.227  0.5732 -0.1186  0.9243
  995MOL0     H34307   9.096   2.582   2.704 -0.9142 -1.6369  0.0935
  995MOL0     H34308   8.903   2.617   2.583  1.7077  1.1986  1.0996
  995MOL0     H34309   8.625   2.531   2.286  1.6764  1.3163  1.5099
  995MOL0     H34310   8.399   2.595   2.232  1.3895  0.0252  0.6767
  995MOL0     H34311   6.639   2.979   2.733 -3.0485 -1.9169  0.3597
  995MOL0     H34312   6.405   2.999   2.674  2.8214 -2.7257 -0.1722
  995MOL0     H34313   5.952   2.881   3.001 -1.1301 -2.0637 -0.8824
  995MOL0     H34314   5.702   2.887   2.981  1.1569 -1.2637  0.5661
  995MOL0     H34315   5.478   2.875   2.869 -0.6459 -0.7284  0.0893
  995MOL0     H34316   5.525   3.009   2.979  3.5701  0.2152 -1.5668
  995MOL0     H34317   5.336   3.146   2.866  0.2870 -0.0349 -3.0006
  995MOL0     H34318   5.271   3.000   2.941 -0.4203 -4.4036 -3.2446
  995MOL0     H34319   5.160   2.988   2.756 -0.2440 -1.0089 -4.4201
  995MOL0     H34320   5.303   2.891   2.717  2.4759 -0.4361  3.2064
  995MOL0     H34321   5.259   3.040   2.526 -2.1713 -0.8192  1.7039
  995MOL0     H34322   5.403   3.090   2.599 -0.7649  3.0047 -0.0385
  995MOL0     H34323   5.158   3.432   2.685  1.1250  0.4432 -0.5207
  995MOL0     H34324   5.751   3.182   2.673  2.2346  2.0613  0.6988
  995MOL0     H34325   5.982   3.207   2.715 -0.9209  0.1544  0.7373
  996MOL0     O34326   6.862  10.270   2.440 -1.4421 -0.6353  0.6944
  996MOL0     C34327   6.835  10.182   2.361 -0.9593  0.0705 -1.2731
  996MOL0     O34328   6.719  10.165   2.303  0.4880 -0.0467  0.4406
  996MOL0     C34329   6.618  10.261   2.326 -0.2866  0.1785  1.1776
  996MOL0     C34330   6.594  10.367   2.240  0.6162  0.6863 -0.6243
  996MOL0     C34331   6.487  10.450   2.267  0.0293 -0.5529  0.1494
  996MOL0     C34332   6.396  10.428   2.371  0.2838 -0.0655  0.0653
  996MOL0     O34333   6.284  10.502   2.387  0.5223 -0.9546  0.4717
  996MOL0     C34334   6.227  10.563   2.266 -0.1070 -0.4245  0.5766
  996MOL0     C34335   6.092  10.611   2.312 -0.4586 -1.0438 -0.3497
  996MOL0     C34336   5.984  10.499   2.302  0.4770  0.1046 -0.3640
  996MOL0     C34337   5.853  10.535   2.376 -0.2765  0.4113  0.7690
  996MOL0     C34338   5.757  10.423   2.408 -0.4583 -0.7829  0.0249
  996MOL0     C34339   5.665  10.388   2.291 -0.1083 -0.4924 -0.4220
  996MOL0     C34340   5.535  10.304   2.323  0.7500 -0.5926 -0.0574
  996MOL0     C34341   5.563  10.181   2.414  0.0105  1.0983 -0.4257
  996MOL0     N34342   5.436  10.121   2.453  1.3531  0.4878 -0.4855
  996MOL0     C34343   5.308  10.135   2.394  0.1266 -0.3425  0.6307
  996MOL0     C34344   5.223  10.114   2.490 -0.0431  1.2418 -0.6407
  996MOL0     C34345   5.065  10.131   2.486  0.0382 -0.8762  0.0004
  996MOL0     C34346   5.007  10.003   2.421 -0.4596 -0.3092 -0.0913
  996MOL0     C34347   4.859  10.027   2.378 -0.8189 -0.0970  0.1746
  996MOL0     C34348   4.811   9.920   2.279  0.7789  0.0630 -0.0167
  996MOL0     O34349   4.685   9.963   2.227 -0.1125 -0.4201 -0.4189
  996MOL0     C34350   4.573   9.880   2.219 -0.8451  0.6809 -0.3725
  996MOL0     C34351   4.584   9.739   2.226 -0.6394  0.1850  0.6541
  996MOL0     C34352   4.475   9.650   2.227  0.0442  0.5587 -0.3284
  996MOL0     C34353   4.509   9.504   2.252  0.3925  0.2458  0.0698
  996MOL0     C34354   4.347   9.701   2.214  0.2064  0.1378 -0.5256
  996MOL0     C34355   4.228   9.607   2.202  0.6646  0.1402  0.6789
  996MOL0     O34356   4.111   9.675   2.230  0.8102 -0.1066 -0.4538
  996MOL0     C34357   3.983   9.632   2.208  0.3524 -0.1759 -0.8309
  996MOL0     C34358   3.884   9.703   2.286 -0.7250 -0.5240 -0.0731
  996MOL0     C34359   3.746   9.683   2.266 -0.1365 -0.7931  0.2674
  996MOL0     C34360   3.705   9.586   2.170  0.4801  0.0840  0.7278
  996MOL0     O34361   3.573   9.558   2.155  0.2810  0.3209  0.1197
  996MOL0     C34362   3.520   9.552   2.024  0.4178  0.3090 -0.6855
  996MOL0     C34363   3.383   9.487   2.016  0.0890 -0.3911  0.1341
  996MOL0     C34364   3.276   9.579   2.081 -0.2696  0.0646 -0.0431
  996MOL0     C34365   3.247   9.539   2.229  0.3980 -0.1812  0.7450
  996MOL0     C34366   3.189   9.643   2.325 -0.6360 -0.3947  0.1081
  996MOL0     C34367   3.058   9.697   2.270 -0.3586 -0.1745  0.7507
  996MOL0     C34368   3.002   9.795   2.378  0.5341 -0.0044  0.1712
  996MOL0     C34369   2.975   9.923   2.297  0.1578  0.1060 -0.2865
  996MOL0    Cl34370   2.843   9.909   2.188 -0.3968 -0.0063 -0.1077
  996MOL0     C34371   3.802   9.521   2.087 -0.3411  0.0854  0.0866
  996MOL0     C34372   3.939   9.546   2.109 -0.1553 -0.1889  0.1344
  996MOL0     O34373   4.240   9.491   2.173 -0.0128 -0.0411 -0.3064
  996MOL0     C34374   4.329   9.837   2.195 -0.3279 -0.5064  0.4091
  996MOL0     C34375   4.438   9.929   2.199 -0.9225  1.1728 -0.6292
  996MOL0     N34376   5.291  10.071   2.601  0.1541  0.4510  0.0099
  996MOL0     N34377   5.413  10.079   2.579  0.2176  0.3817 -0.6799
  996MOL0     C34378   6.438  10.341   2.472 -0.0309  0.4026 -0.5077
  996MOL0     C34379   6.542  10.247   2.439 -0.3219  0.7598  0.4862
  996MOL0     C34380   6.944  10.086   2.329 -0.1127 -0.1600 -0.4909
  996MOL0     C34381   7.046  10.059   2.421 -0.5238  0.4149 -0.1998
  996MOL0     C34382   7.147   9.965   2.394  0.0571 -1.0042  0.8397
  996MOL0     C34383   7.148   9.885   2.275  0.1776  0.5224 -0.4408
  996MOL0     O34384   7.247   9.797   2.250  0.2734  0.1914  0.2005
  996MOL0     C34385   7.358   9.857   2.172 -0.3805 -0.0424  0.6035
  996MOL0     C34386   7.480   9.759   2.166 -0.6068 -1.0347 -0.3699
  996MOL0     C34387   7.556   9.783   2.040 -0.7582  0.8913 -0.4779
  996MOL0     C34388   7.693   9.710   2.041 -0.3117 -0.5662  0.1927
  996MOL0     C34389   7.677   9.570   2.071  0.7439 -0.2004 -0.3793
  996MOL0     C34390   7.662   9.447   2.094  0.8984  1.3983  0.1022
  996MOL0     C34391   7.056   9.918   2.183  0.2397  0.1441  1.1021
  996MOL0     C34392   6.950  10.010   2.211  0.6924 -0.6773  0.0060
  996MOL0     H34393   6.656  10.371   2.151 -0.6070  0.1360 -1.5295
  996MOL0     H34394   6.467  10.523   2.189 -0.9535 -0.2991  0.6196
  996MOL0     H34395   6.278  10.651   2.227 -0.7039  0.0904  0.9462
  996MOL0     H34396   6.229  10.493   2.182  2.1957  1.5763 -1.1824
  996MOL0     H34397   6.097  10.659   2.410  0.3477  1.1309 -1.4037
  996MOL0     H34398   6.049  10.688   2.247 -2.0782 -0.5163  1.2482
  996MOL0     H34399   5.954  10.494   2.197  0.7442 -1.4555 -0.3856
  996MOL0     H34400   6.025  10.404   2.337 -2.6297 -0.3859  2.4076
  996MOL0     H34401   5.881  10.590   2.467 -0.7312  1.6230  0.1907
  996MOL0     H34402   5.806  10.603   2.305 -0.5812 -3.2236 -2.9513
  996MOL0     H34403   5.806  10.337   2.456  0.0876  0.8810  2.6385
  996MOL0     H34404   5.686  10.447   2.488  0.5568 -2.1414  1.4090
  996MOL0     H34405   5.642  10.487   2.250  1.3251  0.7673  1.6402
  996MOL0     H34406   5.715  10.325   2.217 -1.3950 -0.7435 -1.1274
  996MOL0     H34407   5.451  10.358   2.368  0.4601 -1.7664  0.8466
  996MOL0     H34408   5.491  10.260   2.233 -1.9678 -4.1882  2.7224
  996MOL0     H34409   5.615  10.202   2.509 -3.3279 -2.7350  2.5908
  996MOL0     H34410   5.622  10.111   2.354  0.0740 -0.9217  1.8317
  996MOL0     H34411   5.276  10.165   2.294 -0.2675  1.8049  1.3575
  996MOL0     H34412   5.026  10.148   2.587  3.0448 -1.5089  1.3535
  996MOL0     H34413   5.044  10.215   2.419 -0.3886 -1.1873 -0.2625
  996MOL0     H34414   5.019   9.929   2.500  1.6632 -0.1661 -0.2079
  996MOL0     H34415   5.070   9.974   2.336 -0.7068  1.5918 -0.9721
  996MOL0     H34416   4.847  10.127   2.335 -1.1984 -0.5575 -0.8320
  996MOL0     H34417   4.796  10.008   2.466 -0.8361 -1.0520 -0.0352
  996MOL0     H34418   4.805   9.827   2.335 -0.9483  1.3235  2.0782
  996MOL0     H34419   4.879   9.907   2.195  1.8605  0.5091  0.7720
  996MOL0     H34420   4.686   9.703   2.238  0.7674  3.1030 -1.3740
  996MOL0     H34421   4.487   9.445   2.162 -0.8562  0.9963 -0.1441
  996MOL0     H34422   4.614   9.480   2.273 -0.0655  0.4562  3.0159
  996MOL0     H34423   4.448   9.471   2.337 -0.8540  0.6477 -0.6405
  996MOL0     H34424   3.913   9.767   2.368 -5.0665  0.6809  0.7978
  996MOL0     H34425   3.682   9.730   2.340  1.3504 -3.0238  3.1902
  996MOL0     H34426   3.509   9.655   1.988  0.8654  0.5527 -0.1427
  996MOL0     H34427   3.587   9.493   1.960  0.2457 -0.4271 -0.1976
  996MOL0     H34428   3.351   9.467   1.913  1.2949 -2.0137  0.0419
  996MOL0     H34429   3.380   9.386   2.058 -2.1847 -1.3793 -2.1361
  996MOL0     H34430   3.178   9.570   2.032 -0.6609  4.1246 -0.3138
  996MOL0     H34431   3.309   9.683   2.072  2.9791 -0.8738 -0.1246
  996MOL0     H34432   3.173   9.458   2.224 -0.2909  0.4907 -0.9605
  996MOL0     H34433   3.341   9.508   2.274  0.4652  0.1923  0.8622
  996MOL0     H34434   3.272   9.715   2.327 -0.2082 -0.6825 -3.0294
  996MOL0     H34435   3.174   9.601   2.425  0.1444  2.2070  1.4130
  996MOL0     H34436   3.066   9.744   2.171 -1.3383  1.6581  1.4843
  996MOL0     H34437   2.984   9.617   2.258  0.2665 -0.6258 -0.2033
  996MOL0     H34438   3.066   9.814   2.464  2.1944 -0.1463 -0.9815
  996MOL0     H34439   2.913   9.747   2.419 -0.0813  1.3790  0.5032
  996MOL0     H34440   3.067   9.952   2.246  0.3217 -2.3793 -1.5404
  996MOL0     H34441   2.947  10.000   2.369 -3.7588 -3.1543  2.1621
  996MOL0     H34442   3.781   9.449   2.009  2.2351  0.2021 -0.8176
  996MOL0     H34443   4.006   9.494   2.042 -1.0596  1.2190 -1.9835
  996MOL0     H34444   4.234   9.885   2.174  1.4385  2.5803 -1.2438
  996MOL0     H34445   4.436  10.036   2.182  5.4171  1.5607 -0.9899
  996MOL0     H34446   6.383  10.331   2.565  2.4842  0.6914  1.1160
  996MOL0     H34447   6.578  10.178   2.514  1.9896  1.0912 -0.2462
  996MOL0     H34448   7.049  10.098   2.523  0.5224  2.0855 -0.8290
  996MOL0     H34449   7.227   9.941   2.463 -0.7473  2.2892  3.1648
  996MOL0     H34450   7.318   9.875   2.072 -2.4291  1.0880  1.5612
  996MOL0     H34451   7.393   9.950   2.218 -0.5489 -0.1913  1.0425
  996MOL0     H34452   7.444   9.656   2.171 -0.4191 -1.0658  0.7543
  996MOL0     H34453   7.543   9.775   2.254 -1.4539 -0.0361  0.0919
  996MOL0     H34454   7.574   9.887   2.010 -0.9816  1.3662  0.9367
  996MOL0     H34455   7.497   9.739   1.959 -0.2671 -2.0924  0.6465
  996MOL0     H34456   7.765   9.741   2.118 -0.4953  0.1509  0.0808
  996MOL0     H34457   7.745   9.721   1.945 -3.5256  2.7654 -1.4046
  996MOL0     H34458   7.658   9.341   2.102  1.3427  1.5368  3.6011
  996MOL0     H34459   7.056   9.862   2.090  0.6919 -1.1374  1.8409
  996MOL0     H34460   6.872   9.998   2.136  1.2367 -0.5094 -0.5911
  997MOL0     O34461   5.550   0.018   8.938 -0.2830  0.3844 -0.3078
  997MOL0     C34462   5.601   0.128   8.921 -0.5372  0.6183 -0.5571
  997MOL0     O34463   5.539   0.245   8.903 -0.3626 -0.5692  0.1095
  997MOL0     C34464   5.404   0.245   8.884  0.5288 -1.0352 -0.2179
  997MOL0     C34465   5.323   0.183   8.977  0.3232 -0.7671 -0.1069
  997MOL0     C34466   5.191   0.177   8.948 -0.1039 -0.4848  0.7092
  997MOL0     C34467   5.133   0.238   8.842  0.2540 -0.4050  0.1900
  997MOL0     O34468   4.993   0.237   8.823  0.0772  0.0809 -0.7499
  997MOL0     C34469   4.894   0.179   8.918  0.5351 -0.2323 -0.3834
  997MOL0     C34470   4.892   0.022   8.905 -0.2338  1.1273 -0.4228
  997MOL0     C34471   4.840  -0.021   8.769  1.3836  0.1378 -0.1490
  997MOL0     C34472   4.940  -0.075   8.667 -0.0299 -0.3919  0.2265
  997MOL0     C34473   4.890  -0.064   8.521 -0.6558  0.0924 -0.9594
  997MOL0     C34474   4.763  -0.136   8.471  0.6759 -0.0707 -0.5235
  997MOL0     C34475   4.763  -0.126   8.312  0.0980  0.1944 -0.2310
  997MOL0     C34476   4.653  -0.221   8.247 -0.6151  0.2311 -0.9416
  997MOL0     N34477   4.521  -0.189   8.297 -0.2157 -0.2818 -0.1566
  997MOL0     C34478   4.433  -0.272   8.376 -0.8919  0.0781 -0.1640
  997MOL0     C34479   4.318  -0.204   8.389 -0.1412 -0.7466 -0.5609
  997MOL0     C34480   4.199  -0.245   8.471  0.2136  0.1262  0.0354
  997MOL0     C34481   4.211  -0.196   8.618 -0.4903 -0.2031  0.2361
  997MOL0     C34482   4.083  -0.206   8.700 -0.4352  0.3094 -0.0390
  997MOL0     C34483   4.034  -0.344   8.732  0.9847  0.7510 -0.0120
  997MOL0     O34484   4.111  -0.406   8.836  0.7618  0.9878 -0.5354
  997MOL0     C34485   4.023  -0.452   8.937 -0.1910 -0.2978 -0.2733
  997MOL0     C34486   3.905  -0.533   8.921 -0.2756 -0.8373  0.2572
  997MOL0     C34487   3.817  -0.568   9.028 -0.6504 -0.1756  0.3334
  997MOL0     C34488   3.695  -0.642   9.005  0.2177 -0.4506 -0.3821
  997MOL0     C34489   3.849  -0.515   9.158 -0.3928  0.5310 -0.1220
  997MOL0     C34490   3.768  -0.527   9.283  0.1286 -0.4518 -0.3965
  997MOL0     O34491   3.765  -0.417   9.371  0.2002  0.4843 -0.3338
  997MOL0     C34492   3.700  -0.430   9.493  0.3896 -0.4958 -0.6167
  997MOL0     C34493   3.574  -0.488   9.504 -0.3675  0.5122  0.3469
  997MOL0     C34494   3.506  -0.487   9.625 -0.3617 -0.2095  0.0441
  997MOL0     C34495   3.571  -0.442   9.742  0.1542 -0.0425  0.6220
  997MOL0     O34496   3.500  -0.449   9.855 -0.0613  0.1628  0.0746
  997MOL0     C34497   3.581  -0.476   9.966  0.4306 -0.2221 -0.1179
  997MOL0     C34498   3.525  -0.584  10.046  0.3723  0.3148  0.4826
  997MOL0     C34499   3.388  -0.559  10.118 -0.8052 -1.5037  0.7660
  997MOL0     C34500   3.338  -0.647  10.228 -0.2092  0.3583 -0.5834
  997MOL0     C34501   3.435  -0.652  10.345  0.1740 -0.7372  0.4223
  997MOL0     C34502   3.434  -0.788  10.410  0.0090  0.0600  0.6357
  997MOL0     C34503   3.506  -0.888  10.324  0.6932  0.3562  0.9558
  997MOL0     C34504   3.548  -1.018  10.399 -0.2605 -0.1374  0.4065
  997MOL0    Cl34505   3.625  -1.142  10.285  0.8151  0.3890  0.4512
  997MOL0     C34506   3.699  -0.383   9.723  0.4329  0.6030 -0.5357
  997MOL0     C34507   3.766  -0.382   9.604  0.4193  0.4133  1.0218
  997MOL0     O34508   3.705  -0.631   9.290 -0.1417  0.1946  0.1309
  997MOL0     C34509   3.963  -0.449   9.178  0.9486 -1.3141 -0.0985
  997MOL0     C34510   4.041  -0.412   9.068  0.2198 -0.1732  0.2562
  997MOL0     N34511   4.336  -0.080   8.324 -1.2638  0.0793 -0.0570
  997MOL0     N34512   4.452  -0.076   8.264 -0.4219  0.2862  0.3365
  997MOL0     C34513   5.218   0.302   8.757  0.0702 -0.5998 -0.4505
  997MOL0     C34514   5.349   0.315   8.771  0.6784  0.1627  0.5885
  997MOL0     C34515   5.749   0.134   8.948  0.1062 -1.0209 -0.3486
  997MOL0     C34516   5.808   0.261   8.966  0.2374  0.3645  0.4301
  997MOL0     C34517   5.944   0.273   8.989  0.0317  0.3877 -0.8786
  997MOL0     C34518   6.034   0.165   8.999 -0.1120  0.7544  1.0687
  997MOL0     O34519   6.177   0.173   9.012  0.1071  0.4319 -0.6431
  997MOL0     C34520   6.239   0.303   9.014  0.4332 -0.5826 -0.6539
  997MOL0     C34521   6.200   0.379   9.143 -0.4175 -0.0366 -0.0406
  997MOL0     C34522   6.315   0.346   9.248 -0.0375  0.9747  0.7021
  997MOL0     C34523   6.308   0.427   9.373  0.2381 -0.2457  0.6937
  997MOL0     C34524   6.255   0.363   9.497 -0.2292  0.5908 -0.8466
  997MOL0     C34525   6.225   0.330   9.612  1.1349  0.7426 -0.6347
  997MOL0     C34526   5.966   0.038   8.977 -1.2744 -0.1489  0.2179
  997MOL0     C34527   5.828   0.020   8.950 -0.6946 -0.0784  0.0526
  997MOL0     H34528   5.361   0.162   9.077  1.4432 -2.3007 -0.8166
  997MOL0     H34529   5.125   0.136   9.024 -0.8264  0.6481  0.7280
  997MOL0     H34530   4.924   0.219   9.016  2.5913 -0.4695 -0.8646
  997MOL0     H34531   4.791   0.212   8.903  0.6425 -0.0472 -0.7250
  997MOL0     H34532   4.984  -0.034   8.923 -2.2435 -2.6517 -0.8620
  997MOL0     H34533   4.815  -0.024   8.966 -1.9658  2.1826 -1.7101
  997MOL0     H34534   4.769  -0.104   8.783 -1.4358  2.4510  0.3074
  997MOL0     H34535   4.771   0.055   8.731 -0.0112  0.1558  2.2252
  997MOL0     H34536   5.037  -0.026   8.677 -0.0070  0.2017 -2.3533
  997MOL0     H34537   4.950  -0.181   8.693 -1.7341 -0.4191  0.9528
  997MOL0     H34538   4.850   0.037   8.508 -3.9242 -0.9771 -0.1185
  997MOL0     H34539   4.977  -0.089   8.460 -0.7331 -0.5606 -0.8072
  997MOL0     H34540   4.746  -0.239   8.505  0.0605  0.1143 -0.2757
  997MOL0     H34541   4.683  -0.075   8.511  0.2763 -1.3308  0.6761
  997MOL0     H34542   4.739  -0.025   8.279  1.8210  0.6007 -0.3595
  997MOL0     H34543   4.862  -0.146   8.269 -0.0664  2.1304 -1.6008
  997MOL0     H34544   4.673  -0.327   8.266 -1.8652  0.1040 -0.1966
  997MOL0     H34545   4.658  -0.207   8.139 -3.0925 -3.4505 -1.7345
  997MOL0     H34546   4.462  -0.368   8.417  1.2883 -0.4276 -2.6205
  997MOL0     H34547   4.101  -0.212   8.436 -0.3068 -1.4288 -0.0468
  997MOL0     H34548   4.190  -0.354   8.478 -1.4206  0.1304 -1.4127
  997MOL0     H34549   4.239  -0.090   8.614  0.8636 -0.5609 -0.8494
  997MOL0     H34550   4.297  -0.246   8.664  0.6162  1.9862  0.7053
  997MOL0     H34551   4.010  -0.151   8.641 -0.5444 -0.9575 -1.1410
  997MOL0     H34552   4.093  -0.152   8.794 -1.6699  2.2301 -0.9641
  997MOL0     H34553   4.035  -0.412   8.645 -0.2378 -2.4274  2.2765
  997MOL0     H34554   3.931  -0.329   8.764  0.2564 -2.4500 -0.4900
  997MOL0     H34555   3.867  -0.565   8.825 -1.9143 -3.4007  1.6321
  997MOL0     H34556   3.682  -0.664   8.898  2.5481 -3.1752 -0.2284
  997MOL0     H34557   3.695  -0.737   9.059  0.2602  0.5210  1.3825
  997MOL0     H34558   3.605  -0.588   9.036  1.9880  1.8525  1.0508
  997MOL0     H34559   3.528  -0.521   9.411 -0.6030  3.1575 -0.5557
  997MOL0     H34560   3.401  -0.511   9.629 -1.1069  2.1241 -2.3830
  997MOL0     H34561   3.681  -0.512   9.941 -0.5359 -1.0192 -3.2750
  997MOL0     H34562   3.595  -0.378  10.013  2.1308 -0.5928  0.2345
  997MOL0     H34563   3.513  -0.680   9.996  1.4575 -0.7264  2.1186
  997MOL0     H34564   3.603  -0.614  10.116 -0.6971 -0.5708  1.3355
  997MOL0     H34565   3.314  -0.570  10.038 -1.9079  1.8762  1.1453
  997MOL0     H34566   3.388  -0.452  10.140  0.0709 -1.7156  1.8688
  997MOL0     H34567   3.241  -0.612  10.263 -1.2221  0.8674 -3.5767
  997MOL0     H34568   3.329  -0.752  10.202  2.8746 -0.4630  1.1506
  997MOL0     H34569   3.414  -0.569  10.414  2.2411  0.7583 -0.6348
  997MOL0     H34570   3.532  -0.619  10.307 -0.4892  1.3426  0.4020
  997MOL0     H34571   3.487  -0.788  10.506  1.6465 -5.0142  0.0536
  997MOL0     H34572   3.331  -0.817  10.431 -0.0580 -0.4143 -0.2956
  997MOL0     H34573   3.599  -0.847  10.283  0.4723 -2.2701 -2.7017
  997MOL0     H34574   3.439  -0.914  10.241  3.2290  1.0878 -1.4646
  997MOL0     H34575   3.458  -1.067  10.438 -0.6638 -0.6214 -1.0827
  997MOL0     H34576   3.620  -1.007  10.481  1.0859 -2.4813 -0.3686
  997MOL0     H34577   3.738  -0.337   9.813 -1.7981  0.3260  0.6442
  997MOL0     H34578   3.865  -0.345   9.578  0.3422  0.2255  0.4413
  997MOL0     H34579   3.984  -0.410   9.277  0.6897 -0.9093 -0.2020
  997MOL0     H34580   4.127  -0.351   9.095 -2.2471  1.8565  4.7040
  997MOL0     H34581   5.166   0.343   8.670 -0.9996 -4.5200 -1.8547
  997MOL0     H34582   5.401   0.368   8.692 -1.7276  0.4134 -0.9365
  997MOL0     H34583   5.744   0.347   8.950 -1.4997 -1.0882 -0.8596
  997MOL0     H34584   5.978   0.376   8.997  0.2697  0.4223 -2.0996
  997MOL0     H34585   6.346   0.289   8.997  0.5469  0.0779 -0.4947
  997MOL0     H34586   6.199   0.343   8.920 -3.2607 -0.6641  0.6923
  997MOL0     H34587   6.104   0.344   9.183  0.4797  0.2831  2.5622
  997MOL0     H34588   6.198   0.482   9.106  0.4560 -0.8268 -2.5426
  997MOL0     H34589   6.406   0.372   9.193 -3.0884  1.6195 -4.7138
  997MOL0     H34590   6.314   0.239   9.272 -0.3604  0.5426 -1.1320
  997MOL0     H34591   6.249   0.514   9.344 -0.5185 -1.0506 -0.2751
  997MOL0     H34592   6.406   0.466   9.402  0.3072 -1.6510  2.5454
  997MOL0     H34593   6.209   0.333   9.718  0.0287  1.6043 -0.8008
  997MOL0     H34594   6.035  -0.046   8.980 -2.3266 -1.1628 -1.8813
  997MOL0     H34595   5.797  -0.081   8.928 -0.3670 -0.0108 -0.7662
  998MOL0     O34596   2.916   4.370   1.867  0.4651  0.1136 -0.6109
  998MOL0     C34597   2.952   4.394   1.751  0.2285 -0.9161 -0.7060
  998MOL0     O34598   2.921   4.326   1.634  0.8102  0.3921 -0.4624
  998MOL0     C34599   2.843   4.208   1.645 -0.0211  0.1014  0.8272
  998MOL0     C34600   2.746   4.187   1.743 -0.7452 -0.0102  0.2184
  998MOL0     C34601   2.682   4.060   1.746  0.2825 -0.0472  0.2657
  998MOL0     C34602   2.704   3.971   1.650  0.3673  0.7676 -0.8192
  998MOL0     O34603   2.645   3.849   1.638  0.5446  0.0529 -0.7190
  998MOL0     C34604   2.578   3.800   1.756  0.3983  0.4411  0.5824
  998MOL0     C34605   2.530   3.652   1.748  0.2449  0.0625 -0.3132
  998MOL0     C34606   2.472   3.608   1.877  0.1689  0.4047  0.2103
  998MOL0     C34607   2.505   3.466   1.917 -0.4614  0.4059  0.1702
  998MOL0     C34608   2.460   3.438   2.063 -0.0605 -1.1387  0.3822
  998MOL0     C34609   2.528   3.311   2.127  0.2200 -0.1110  0.5744
  998MOL0     C34610   2.487   3.288   2.268 -0.3388  0.3415  0.5235
  998MOL0     C34611   2.356   3.215   2.253 -0.2419  0.1646  0.0891
  998MOL0     N34612   2.370   3.077   2.201  0.0133  0.9685 -0.1006
  998MOL0     C34613   2.433   2.981   2.270  0.8117  0.0809 -0.3911
  998MOL0     C34614   2.400   2.865   2.213 -0.2951  0.1980  0.4078
  998MOL0     C34615   2.445   2.725   2.269  0.5890 -0.5569 -0.0130
  998MOL0     C34616   2.550   2.654   2.184  0.2790 -0.2648  0.7736
  998MOL0     C34617   2.638   2.753   2.101 -1.3498  0.7710  0.0985
  998MOL0     C34618   2.755   2.809   2.184  0.5401 -0.0507 -0.9379
  998MOL0     O34619   2.815   2.719   2.286  0.6242 -0.4989  1.3791
  998MOL0     C34620   2.888   2.776   2.396  1.1615  0.0555 -0.2459
  998MOL0     C34621   2.879   2.913   2.446  0.1597  0.3886  0.3311
  998MOL0     C34622   2.951   2.954   2.555 -0.0378  1.2605 -0.1684
  998MOL0     C34623   2.917   3.085   2.611 -0.4709  0.0306  0.2209
  998MOL0     C34624   3.047   2.863   2.616  1.8407 -0.5288 -0.2792
  998MOL0     C34625   3.118   2.913   2.735 -0.3734  0.9632 -0.0162
  998MOL0     O34626   3.050   2.933   2.856  0.1529  0.2438 -0.2016
  998MOL0     C34627   3.115   2.984   2.969 -0.2688 -0.3645 -1.7054
  998MOL0     C34628   3.228   2.935   3.029 -0.6576  0.2028  0.6490
  998MOL0     C34629   3.292   3.017   3.121 -0.8983 -0.1630 -0.3635
  998MOL0     C34630   3.249   3.144   3.156 -0.3554  0.5914 -0.8753
  998MOL0     O34631   3.322   3.218   3.241  0.1052  0.6912 -0.5257
  998MOL0     C34632   3.255   3.325   3.306  0.7121  0.1331  0.3717
  998MOL0     C34633   3.328   3.377   3.420 -0.8508 -0.3552  0.1764
  998MOL0     C34634   3.473   3.403   3.394 -0.3346 -0.1874 -0.7289
  998MOL0     C34635   3.523   3.489   3.516  0.1568  0.2444  0.9129
  998MOL0     C34636   3.671   3.514   3.513  0.3315 -0.7313 -0.8393
  998MOL0     C34637   3.757   3.388   3.480  0.1703  0.6920 -0.0021
  998MOL0     C34638   3.901   3.390   3.537  0.4463 -0.2729  0.0081
  998MOL0     C34639   3.979   3.521   3.514 -0.2035 -1.0749  0.2739
  998MOL0    Cl34640   3.968   3.562   3.337 -0.3488 -0.5503 -0.0385
  998MOL0     C34641   3.125   3.185   3.105  0.4102 -0.0041  0.1265
  998MOL0     C34642   3.056   3.102   3.008  0.5205 -0.2119 -0.7029
  998MOL0     O34643   3.236   2.927   2.723  0.4052 -1.2359  0.7526
  998MOL0     C34644   3.067   2.733   2.561  0.5781  0.0749  0.4176
  998MOL0     C34645   2.982   2.691   2.465  0.4639  0.3473 -0.4455
  998MOL0     N34646   2.314   2.893   2.110  0.4757  0.0933  0.1313
  998MOL0     N34647   2.298   3.019   2.107 -0.1407  0.6863  0.5763
  998MOL0     C34648   2.805   3.994   1.554  0.0458  0.0013  0.9810
  998MOL0     C34649   2.876   4.111   1.555  0.4152 -0.1058 -0.2502
  998MOL0     C34650   3.044   4.508   1.742 -0.1201 -0.2847 -0.1658
  998MOL0     C34651   3.078   4.590   1.857 -0.4975 -1.6286  1.0329
  998MOL0     C34652   3.168   4.702   1.837  0.1868  0.2497  0.4384
  998MOL0     C34653   3.242   4.723   1.715 -0.1957  0.0673 -0.7948
  998MOL0     O34654   3.329   4.825   1.678 -0.0546  0.4821  0.4369
  998MOL0     C34655   3.329   4.947   1.755 -0.4140 -0.2463  1.6564
  998MOL0     C34656   3.389   5.053   1.655  0.6847  0.5466  0.4965
  998MOL0     C34657   3.467   5.169   1.717 -0.7223 -0.0456 -1.3096
  998MOL0     C34658   3.437   5.293   1.643 -0.7089 -0.6127  0.1175
  998MOL0     C34659   3.500   5.406   1.710 -1.3096 -0.6215 -0.4782
  998MOL0     C34660   3.530   5.494   1.800  0.5008 -0.8398  0.1516
  998MOL0     C34661   3.205   4.639   1.613  0.1331  0.0009 -0.2800
  998MOL0     C34662   3.104   4.539   1.623  0.3625 -0.7172  0.0930
  998MOL0     H34663   2.719   4.267   1.812  1.1319  1.0789 -0.2226
  998MOL0     H34664   2.605   4.039   1.820 -0.6047 -0.1130 -0.6525
  998MOL0     H34665   2.648   3.801   1.840 -2.4243 -1.8893  3.1772
  998MOL0     H34666   2.501   3.866   1.798 -1.3933 -1.9315  1.2274
  998MOL0     H34667   2.462   3.641   1.663  0.0287  2.2108 -0.4794
  998MOL0     H34668   2.624   3.599   1.729  1.1063  2.0162 -1.8536
  998MOL0     H34669   2.495   3.682   1.954 -0.4471 -1.1788  1.9986
  998MOL0     H34670   2.362   3.613   1.869  0.3099  0.7940 -3.1035
  998MOL0     H34671   2.459   3.400   1.844 -0.4694  1.5986 -0.9482
  998MOL0     H34672   2.613   3.448   1.906 -0.6430  0.4863 -2.2790
  998MOL0     H34673   2.469   3.528   2.125  2.1452 -0.7944 -0.3460
  998MOL0     H34674   2.353   3.418   2.053  0.0773 -2.6669  1.6299
  998MOL0     H34675   2.514   3.233   2.052  3.8175  1.1382 -1.6743
  998MOL0     H34676   2.636   3.326   2.119  0.5112 -0.4949  2.9646
  998MOL0     H34677   2.562   3.225   2.316  1.6102  1.9363 -0.2437
  998MOL0     H34678   2.472   3.376   2.332  2.0047  0.8574  0.4401
  998MOL0     H34679   2.295   3.283   2.193  2.9854  3.7204  0.4520
  998MOL0     H34680   2.301   3.206   2.348 -2.1963  2.5228 -0.7077
  998MOL0     H34681   2.476   3.000   2.368 -0.2172  1.1401 -0.1136
  998MOL0     H34682   2.473   2.743   2.373  3.5236 -0.5093 -0.7248
  998MOL0     H34683   2.366   2.649   2.261  1.2418 -1.0785 -2.5902
  998MOL0     H34684   2.511   2.580   2.112  4.5400 -3.4525  1.3140
  998MOL0     H34685   2.609   2.599   2.258 -0.4066 -0.0351  1.4996
  998MOL0     H34686   2.581   2.835   2.056  0.2335  1.7072 -0.2669
  998MOL0     H34687   2.690   2.695   2.025  3.3157  2.3263  1.7647
  998MOL0     H34688   2.708   2.898   2.227  0.6798 -0.2059 -0.4514
  998MOL0     H34689   2.844   2.837   2.127  2.7491 -0.6431  1.9518
  998MOL0     H34690   2.812   2.991   2.412  2.2156  2.9394  1.7496
  998MOL0     H34691   2.828   3.132   2.567  0.4085  1.4187 -0.1331
  998MOL0     H34692   2.907   3.078   2.720 -2.2873  0.3601  0.0982
  998MOL0     H34693   2.997   3.156   2.590 -0.8926  1.5009  3.0845
  998MOL0     H34694   3.278   2.846   2.993 -0.5682  1.5992 -3.0823
  998MOL0     H34695   3.382   2.983   3.171 -1.1357  0.6755  0.6750
  998MOL0     H34696   3.243   3.405   3.233 -3.1954 -1.7606 -1.3139
  998MOL0     H34697   3.156   3.306   3.347  1.2644 -1.4225  1.0632
  998MOL0     H34698   3.276   3.469   3.447 -0.0835  0.8330 -2.1351
  998MOL0     H34699   3.312   3.298   3.494  0.5654 -1.1670 -0.3413
  998MOL0     H34700   3.498   3.467   3.309  1.0846 -0.2847 -0.4030
  998MOL0     H34701   3.516   3.302   3.391  0.7356  0.1795  0.7389
  998MOL0     H34702   3.471   3.585   3.525 -1.5929 -0.3560 -1.5094
  998MOL0     H34703   3.502   3.415   3.595 -1.0510 -1.4135 -0.8539
  998MOL0     H34704   3.708   3.562   3.604  4.8206  0.2441 -2.9354
  998MOL0     H34705   3.693   3.595   3.443  0.5673  1.7533  1.9270
  998MOL0     H34706   3.715   3.300   3.529  2.1987 -0.9793 -1.1143
  998MOL0     H34707   3.757   3.351   3.378 -2.7106  0.7345 -0.0960
  998MOL0     H34708   3.957   3.302   3.504 -1.4590 -1.3584 -0.4836
  998MOL0     H34709   3.876   3.392   3.644  0.1521 -1.6297 -0.0278
  998MOL0     H34710   4.080   3.517   3.555  0.2497  2.5903 -0.1356
  998MOL0     H34711   3.935   3.605   3.568  2.2047  0.6256 -0.2478
  998MOL0     H34712   3.079   3.280   3.131  2.4499  0.6308  1.7378
  998MOL0     H34713   2.977   3.151   2.952  2.9583  1.4729 -2.9113
  998MOL0     H34714   3.155   2.679   2.594  1.5068  0.3524 -1.4615
  998MOL0     H34715   2.983   2.585   2.442 -1.7362  0.7466 -2.8626
  998MOL0     H34716   2.829   3.928   1.471 -2.8819  2.5420 -2.1718
  998MOL0     H34717   2.946   4.136   1.476 -1.0664  1.3528 -1.1825
  998MOL0     H34718   3.049   4.568   1.959 -1.8482 -3.2757  0.3406
  998MOL0     H34719   3.191   4.762   1.925  0.5579 -0.2937  0.7192
  998MOL0     H34720   3.227   4.983   1.770 -1.2817  0.2612 -3.4417
  998MOL0     H34721   3.398   4.933   1.839  1.8481 -1.0730 -0.2149
  998MOL0     H34722   3.311   5.084   1.585 -0.0842 -4.1055 -1.1272
  998MOL0     H34723   3.460   4.992   1.598  2.0988  3.6085 -1.2288
  998MOL0     H34724   3.573   5.144   1.720 -1.2350 -2.4047 -1.1121
  998MOL0     H34725   3.424   5.172   1.818  0.7631  0.4124 -0.6702
  998MOL0     H34726   3.329   5.307   1.630 -0.3789  2.1626 -0.0657
  998MOL0     H34727   3.491   5.296   1.548  1.4476  1.4852  1.3205
  998MOL0     H34728   3.546   5.574   1.870 -1.9586 -0.3468  0.2201
  998MOL0     H34729   3.264   4.652   1.523  0.1075 -1.2775 -0.4999
  998MOL0     H34730   3.088   4.475   1.536  0.4493 -0.3573 -0.1881
  999MOL0     O34731   0.980   2.153   7.204  0.0974  0.5183  0.1713
  999MOL0     C34732   1.048   2.221   7.276  0.4674  0.0683 -0.5054
  999MOL0     O34733   0.999   2.273   7.396  0.2373  0.5730 -1.4715
  999MOL0     C34734   0.896   2.196   7.452  1.0341 -0.8166 -0.8508
  999MOL0     C34735   0.919   2.057   7.482 -0.2153 -0.2464 -0.0279
  999MOL0     C34736   0.813   1.991   7.541 -0.3604 -0.2055  0.1739
  999MOL0     C34737   0.691   2.050   7.580  0.2933  0.4199  0.5714
  999MOL0     O34738   0.575   1.975   7.621 -0.2656 -0.0919  0.7246
  999MOL0     C34739   0.570   1.827   7.606 -0.7851  0.1567 -0.3014
  999MOL0     C34740   0.434   1.782   7.654 -0.8590  0.6753  0.0034
  999MOL0     C34741   0.327   1.782   7.540 -0.4898 -0.1325  0.0280
  999MOL0     C34742   0.189   1.742   7.580  0.8201  0.4941 -0.3228
  999MOL0     C34743   0.102   1.849   7.650  0.8549 -0.3381 -0.1532
  999MOL0     C34744  -0.045   1.816   7.653  0.4940 -0.1152  0.9197
  999MOL0     C34745  -0.133   1.924   7.716  1.3879 -0.6244  0.8347
  999MOL0     C34746  -0.282   1.908   7.664  0.5236  0.2889 -0.3482
  999MOL0     N34747  -0.364   2.027   7.679  0.4438 -1.3372  0.6865
  999MOL0     C34748  -0.410   2.110   7.578 -0.0469  0.8811  0.3215
  999MOL0     C34749  -0.474   2.216   7.635  0.2555 -0.6988  0.5457
  999MOL0     C34750  -0.547   2.339   7.572  0.1391 -0.0984 -0.6611
  999MOL0     C34751  -0.682   2.311   7.515  0.4413 -0.1857 -0.5912
  999MOL0     C34752  -0.779   2.255   7.627 -0.0526 -0.4402  0.0419
  999MOL0     C34753  -0.904   2.241   7.559 -0.1376  0.2786 -0.0921
  999MOL0     O34754  -1.010   2.182   7.639  0.1648  0.5540  0.0492
  999MOL0     C34755  -1.121   2.157   7.568  0.2221 -0.0288  0.1884
  999MOL0     C34756  -1.211   2.087   7.645  0.7625  0.1771 -0.4693
  999MOL0     C34757  -1.333   2.055   7.596  0.4149  1.0818 -0.0291
  999MOL0     C34758  -1.408   1.970   7.694  0.3622 -0.1222 -0.7543
  999MOL0     C34759  -1.378   2.100   7.469 -0.3051  0.1551  0.8030
  999MOL0     C34760  -1.506   2.065   7.405  0.9153  0.4176  0.4837
  999MOL0     O34761  -1.565   1.939   7.412 -0.1124  0.0369  0.8332
  999MOL0     C34762  -1.693   1.921   7.357  0.3526  0.2342 -0.7190
  999MOL0     C34763  -1.717   1.792   7.301  0.4556 -0.3523 -1.0813
  999MOL0     C34764  -1.841   1.767   7.248 -0.3159  0.0629 -0.3098
  999MOL0     C34765  -1.950   1.854   7.250  0.3747  0.0625 -0.4764
  999MOL0     O34766  -2.070   1.832   7.168 -0.6173 -0.5182 -0.1161
  999MOL0     C34767  -2.196   1.892   7.192  0.4918  0.1950  0.8454
  999MOL0     C34768  -2.204   2.021   7.107 -1.1034  0.4098  0.7493
  999MOL0     C34769  -2.313   2.114   7.151 -0.7594 -0.3930  0.4991
  999MOL0     C34770  -2.385   2.179   7.025 -0.3259  0.4377 -0.2797
  999MOL0     C34771  -2.501   2.259   7.060  0.9283  0.2514 -0.2061
  999MOL0     C34772  -2.579   2.309   6.936  0.0625 -0.8007  0.1051
  999MOL0     C34773  -2.692   2.407   6.974 -0.8573  0.2880 -0.1299
  999MOL0     C34774  -2.772   2.437   6.851  0.3199 -0.1626  0.8448
  999MOL0    Cl34775  -2.868   2.588   6.898  0.0325 -0.2568 -0.4427
  999MOL0     C34776  -1.929   1.978   7.320  0.3874 -0.2526  0.2689
  999MOL0     C34777  -1.803   2.018   7.371 -0.4989 -0.5688  0.7882
  999MOL0     O34778  -1.547   2.151   7.334 -0.4305 -0.2803 -0.1908
  999MOL0     C34779  -1.282   2.176   7.393 -0.6783 -0.3551  0.0219
  999MOL0     C34780  -1.152   2.207   7.442  0.2304  0.2335 -0.3528
  999MOL0     N34781  -0.461   2.190   7.777  0.5203 -0.3255 -0.2149
  999MOL0     N34782  -0.400   2.083   7.800  1.0609  0.5765 -0.6890
  999MOL0     C34783   0.676   2.185   7.566 -0.5729  0.9929  0.4401
  999MOL0     C34784   0.776   2.261   7.501  1.0548 -0.4343 -0.3205
  999MOL0     C34785   1.182   2.276   7.222 -0.8141  0.2621 -0.0335
  999MOL0     C34786   1.241   2.393   7.268 -0.1491 -0.7272 -0.1496
  999MOL0     C34787   1.375   2.432   7.239  1.0236  0.0907  0.6447
  999MOL0     C34788   1.443   2.357   7.141  0.0195 -0.0678 -0.2508
  999MOL0     O34789   1.572   2.401   7.103  0.8121 -0.3257  0.8851
  999MOL0     C34790   1.680   2.308   7.091 -0.3477  0.4078  0.3984
  999MOL0     C34791   1.784   2.351   6.992  0.9150  0.0979  0.4669
  999MOL0     C34792   1.813   2.500   7.000 -0.5440  0.5048 -0.8707
  999MOL0     C34793   1.900   2.544   6.885  0.2898 -0.1053  0.3438
  999MOL0     C34794   2.014   2.457   6.850 -0.4232 -0.7707 -0.0423
  999MOL0     C34795   2.100   2.372   6.831 -0.6510 -0.5442  0.2610
  999MOL0     C34796   1.395   2.233   7.092 -0.1183 -0.4024 -0.2955
  999MOL0     C34797   1.259   2.193   7.136 -0.2525 -1.0681  0.5205
  999MOL0     H34798   1.004   2.012   7.433 -1.0063  0.1901 -1.8673
  999MOL0     H34799   0.825   1.883   7.550 -1.2061 -0.3065  0.1554
  999MOL0     H34800   0.572   1.796   7.501  3.6663  0.0530 -0.3575
  999MOL0     H34801   0.656   1.783   7.656  0.8433  2.3816 -1.0052
  999MOL0     H34802   0.454   1.676   7.673  3.0814  1.1871 -0.6215
  999MOL0     H34803   0.414   1.825   7.752  3.9335 -1.5128  2.2595
  999MOL0     H34804   0.326   1.881   7.494  0.5848 -0.2780 -0.3472
  999MOL0     H34805   0.367   1.721   7.458 -0.3932  3.3780 -2.8078
  999MOL0     H34806   0.132   1.740   7.487  0.9847 -0.7675 -0.4115
  999MOL0     H34807   0.191   1.648   7.635  1.8188  0.5089 -0.3113
  999MOL0     H34808   0.133   1.881   7.750 -0.7730 -2.6549  1.1754
  999MOL0     H34809   0.104   1.935   7.583 -2.7541 -0.3064 -0.4085
  999MOL0     H34810  -0.062   1.795   7.547  3.9545  0.9303  0.0328
  999MOL0     H34811  -0.062   1.729   7.718 -2.6027  0.4221  0.9713
  999MOL0     H34812  -0.143   1.920   7.825  0.0679  0.4411  0.7804
  999MOL0     H34813  -0.099   2.023   7.685 -0.0179 -0.3318  0.1753
  999MOL0     H34814  -0.317   1.820   7.718  0.9197  0.6068  0.4544
  999MOL0     H34815  -0.291   1.880   7.559 -2.8536 -1.7163  0.3515
  999MOL0     H34816  -0.395   2.096   7.472  0.0604 -2.4944  0.6689
  999MOL0     H34817  -0.554   2.413   7.652 -3.7158  0.9365 -1.7777
  999MOL0     H34818  -0.484   2.396   7.504  0.3451 -0.4763 -0.7897
  999MOL0     H34819  -0.679   2.244   7.429 -3.6011  1.4145 -2.2156
  999MOL0     H34820  -0.722   2.403   7.472  0.1760 -1.0042 -2.1423
  999MOL0     H34821  -0.778   2.337   7.699  0.7684  1.4187 -1.9801
  999MOL0     H34822  -0.751   2.155   7.663  1.1235 -1.5818 -3.6227
  999MOL0     H34823  -0.898   2.193   7.461  2.0249 -2.2534  1.1471
  999MOL0     H34824  -0.938   2.344   7.540  0.3207  0.3340 -0.6369
  999MOL0     H34825  -1.183   2.044   7.740 -0.0622  1.3346  0.3278
  999MOL0     H34826  -1.382   1.982   7.799  0.3153 -0.5994 -0.6843
  999MOL0     H34827  -1.516   1.963   7.677  0.3062  1.3254 -1.1813
  999MOL0     H34828  -1.381   1.868   7.664  2.5167  0.0145  0.5579
  999MOL0     H34829  -1.634   1.724   7.317  1.2318  1.1725  2.6180
  999MOL0     H34830  -1.848   1.680   7.185  1.6834 -1.4577  1.4294
  999MOL0     H34831  -2.269   1.816   7.165 -1.7951  1.5783  2.7349
  999MOL0     H34832  -2.206   1.914   7.299  0.8518  0.4199  0.8371
  999MOL0     H34833  -2.114   2.082   7.121 -0.7828  1.4457 -4.1630
  999MOL0     H34834  -2.199   1.999   7.000  0.5493  0.9478  0.6955
  999MOL0     H34835  -2.270   2.190   7.215  3.8271 -2.0195 -0.2953
  999MOL0     H34836  -2.390   2.058   7.206 -2.2528  0.5344 -0.5507
  999MOL0     H34837  -2.308   2.243   6.981  2.0876 -1.6350  0.6872
  999MOL0     H34838  -2.420   2.106   6.953 -1.7237  0.3812  0.4231
  999MOL0     H34839  -2.466   2.340   7.125  0.6209 -0.9653  1.5438
  999MOL0     H34840  -2.563   2.193   7.121 -2.6644  1.9266 -1.7667
  999MOL0     H34841  -2.503   2.366   6.882 -0.6555 -0.6657 -0.7836
  999MOL0     H34842  -2.622   2.228   6.877 -1.9602 -0.9512  1.6686
  999MOL0     H34843  -2.653   2.500   7.016 -3.0218  0.6076  1.3110
  999MOL0     H34844  -2.754   2.361   7.052 -0.0501 -0.8714 -0.1374
  999MOL0     H34845  -2.840   2.356   6.821  1.8382 -0.4576 -2.1774
  999MOL0     H34846  -2.710   2.460   6.764  1.4176 -1.4916  1.2401
  999MOL0     H34847  -1.999   2.061   7.331  2.3338  1.2625  2.3084
  999MOL0     H34848  -1.782   2.114   7.418 -0.7200  0.2949 -0.8051
  999MOL0     H34849  -1.316   2.223   7.301 -0.4994  0.5472  0.3987
  999MOL0     H34850  -1.090   2.265   7.375 -1.8282  2.2069 -0.6713
  999MOL0     H34851   0.582   2.238   7.577  0.2841  2.6140  0.2611
  999MOL0     H34852   0.769   2.369   7.490  0.9648  0.0395  3.1598
  999MOL0     H34853   1.200   2.453   7.350 -0.7524 -0.8386 -0.3662
  999MOL0     H34854   1.428   2.521   7.272  2.2338 -0.2273 -0.3741
  999MOL0     H34855   1.724   2.306   7.191  0.7608 -1.4172 -0.0974
  999MOL0     H34856   1.655   2.203   7.075  2.4024 -0.4236  1.0340
  999MOL0     H34857   1.757   2.329   6.888  0.0112  0.6077  0.5871
  999MOL0     H34858   1.878   2.297   7.009 -0.1395 -2.3965 -1.0383
  999MOL0     H34859   1.876   2.520   7.087 -0.0550 -2.3868 -0.4666
  999MOL0     H34860   1.729   2.569   6.996 -1.0075  0.2956  2.6037
  999MOL0     H34861   1.956   2.635   6.911  2.5765 -1.1455 -0.6629
  999MOL0     H34862   1.837   2.572   6.800  0.7874  2.6905  0.7943
  999MOL0     H34863   2.186   2.315   6.802  1.2723  2.8772 -1.3678
  999MOL0     H34864   1.449   2.183   7.013 -2.9819 -2.3416 -1.2071
  999MOL0     H34865   1.221   2.097   7.104  0.3612 -0.4699 -2.2375
 1000MOL0     O34866   7.033  11.382  11.259  0.0374 -0.6003 -0.0694
 1000MOL0     C34867   7.070  11.332  11.363 -0.0455  0.0699  1.3531
 1000MOL0     O34868   6.994  11.311  11.471 -0.2112  0.1627 -0.6360
 1000MOL0     C34869   6.864  11.358  11.463 -0.7000  0.3469  0.2358
 1000MOL0     C34870   6.754  11.272  11.475  0.4448  0.4070  0.3647
 1000MOL0     C34871   6.625  11.318  11.475  0.2615  0.3051  0.4354
 1000MOL0     C34872   6.599  11.451  11.454 -0.6988 -0.3156 -0.3097
 1000MOL0     O34873   6.477  11.505  11.427  0.0499  0.2686 -0.5743
 1000MOL0     C34874   6.356  11.431  11.466 -0.3765 -0.6464 -0.3142
 1000MOL0     C34875   6.244  11.534  11.455  0.2994  0.4315 -0.1909
 1000MOL0     C34876   6.106  11.485  11.498  0.0021 -0.7540 -0.2320
 1000MOL0     C34877   6.000  11.552  11.405  0.5352  0.2856 -0.5224
 1000MOL0     C34878   5.859  11.521  11.453  0.2301 -0.0312  0.2796
 1000MOL0     C34879   5.752  11.580  11.351  0.0082  0.0389  0.9440
 1000MOL0     C34880   5.623  11.588  11.432  0.3674  0.0222  0.7190
 1000MOL0     C34881   5.504  11.631  11.349  0.1628 -0.1009  0.0755
 1000MOL0     N34882   5.382  11.583  11.406  0.9740  0.0556 -1.3159
 1000MOL0     C34883   5.278  11.677  11.426  0.6068  0.6931 -0.0478
 1000MOL0     C34884   5.175  11.601  11.467 -0.1784 -0.4286  0.0725
 1000MOL0     C34885   5.025  11.632  11.482  0.7834  0.1930  0.5632
 1000MOL0     C34886   4.934  11.608  11.356  0.0612  0.2245  0.2782
 1000MOL0     C34887   4.882  11.463  11.362 -0.3049  0.4139  0.7650
 1000MOL0     C34888   4.835  11.410  11.226 -0.2257  0.1605 -0.4828
 1000MOL0     O34889   4.714  11.469  11.183  0.0908 -0.8158  0.5935
 1000MOL0     C34890   4.594  11.420  11.223  0.4050  0.6298  0.1047
 1000MOL0     C34891   4.562  11.400  11.350  1.4521 -0.7970 -0.3808
 1000MOL0     C34892   4.441  11.325  11.383 -0.2395 -0.0567  0.0416
 1000MOL0     C34893   4.415  11.326  11.533 -0.2098 -0.4239  1.2748
 1000MOL0     C34894   4.355  11.281  11.276 -0.4205  0.0232 -0.5363
 1000MOL0     C34895   4.224  11.212  11.296 -0.0935  1.3066 -0.7017
 1000MOL0     O34896   4.165  11.167  11.186  0.5276 -0.5720  0.3080
 1000MOL0     C34897   4.053  11.091  11.187 -0.7282 -0.0012 -0.6131
 1000MOL0     C34898   3.949  11.121  11.095 -0.0878 -0.3277 -0.1798
 1000MOL0     C34899   3.837  11.031  11.088  0.1222 -1.0741  0.5121
 1000MOL0     C34900   3.821  10.930  11.181 -0.5238  0.1234 -0.7647
 1000MOL0     O34901   3.709  10.856  11.162 -0.0291  0.3072  0.1067
 1000MOL0     C34902   3.686  10.735  11.240 -0.1335  0.8859 -0.9992
 1000MOL0     C34903   3.569  10.666  11.171 -0.2228 -0.4947 -1.1629
 1000MOL0     C34904   3.440  10.749  11.157  0.3923 -0.0040 -0.0686
 1000MOL0     C34905   3.330  10.660  11.113  0.2310  0.6437 -0.4326
 1000MOL0     C34906   3.186  10.723  11.110 -0.3501 -0.5190  0.0629
 1000MOL0     C34907   3.136  10.731  11.254  0.1316  0.5112  0.4980
 1000MOL0     C34908   2.980  10.740  11.268  0.9419 -0.4663  0.3730
 1000MOL0     C34909   2.917  10.873  11.240  0.5000  0.1251 -0.6791
 1000MOL0    Cl34910   2.750  10.860  11.312  0.0296  0.3333  0.0835
 1000MOL0     C34911   3.924  10.904  11.264 -0.9283  0.6009 -0.0900
 1000MOL0     C34912   4.039  10.979  11.270  0.3721 -0.0620 -1.2048
 1000MOL0     O34913   4.181  11.195  11.409  0.8648 -0.2301  0.0404
 1000MOL0     C34914   4.404  11.288  11.146 -0.3845  0.9528  0.5946
 1000MOL0     C34915   4.521  11.360  11.123 -0.3882 -0.3814 -0.0934
 1000MOL0     N34916   5.216  11.467  11.469 -0.2521  0.3335  0.0519
 1000MOL0     N34917   5.339  11.460  11.427 -0.3126  0.2507  0.4445
 1000MOL0     C34918   6.708  11.534  11.435  0.3653  0.0297  0.7925
 1000MOL0     C34919   6.841  11.495  11.439  0.7269  0.6320 -0.5285
 1000MOL0     C34920   7.211  11.300  11.380  0.0841 -1.0149 -0.2287
 1000MOL0     C34921   7.268  11.210  11.478 -0.0011 -0.0238 -0.2471
 1000MOL0     C34922   7.400  11.177  11.486 -0.6754 -0.1673  0.0785
 1000MOL0     C34923   7.484  11.234  11.386 -0.3064 -0.0148  0.5740
 1000MOL0     O34924   7.619  11.203  11.390 -0.0132 -0.3664 -0.1937
 1000MOL0     C34925   7.713  11.262  11.296 -0.4217  0.2765  0.0484
 1000MOL0     C34926   7.859  11.238  11.350 -0.6107  0.6143  0.5126
 1000MOL0     C34927   7.875  11.103  11.428 -0.0896 -0.1844 -0.4258
 1000MOL0     C34928   7.880  10.969  11.350  1.0032  0.0290  0.7436
 1000MOL0     C34929   8.008  10.958  11.285 -0.0598  1.0233 -0.1582
 1000MOL0     C34930   8.119  10.961  11.243  0.2053 -0.4317  0.5429
 1000MOL0     C34931   7.429  11.299  11.275 -0.2778 -0.0228 -0.3332
 1000MOL0     C34932   7.296  11.328  11.270 -0.0901  0.0918  0.0746
 1000MOL0     H34933   6.766  11.165  11.461 -2.6851  0.3533 -4.4698
 1000MOL0     H34934   6.547  11.242  11.487  1.2311 -0.8191 -0.2143
 1000MOL0     H34935   6.339  11.345  11.400 -1.4095 -1.3813  0.8806
 1000MOL0     H34936   6.360  11.391  11.568 -1.6529 -0.8224 -0.3204
 1000MOL0     H34937   6.279  11.615  11.519  0.7139 -0.4466  0.7380
 1000MOL0     H34938   6.230  11.560  11.350  4.3874 -0.7754 -1.1972
 1000MOL0     H34939   6.107  11.376  11.497  0.6815 -0.8310  2.0503
 1000MOL0     H34940   6.080  11.514  11.600  0.2872  1.0434 -0.6276
 1000MOL0     H34941   6.014  11.659  11.391  3.0429 -0.4169 -4.9224
 1000MOL0     H34942   6.013  11.515  11.303  2.3441  0.6058 -0.4406
 1000MOL0     H34943   5.848  11.414  11.473  0.9174 -0.2814 -0.6230
 1000MOL0     H34944   5.851  11.563  11.554  0.9528 -0.8637  0.7047
 1000MOL0     H34945   5.760  11.685  11.321 -0.1813  0.8268  3.4386
 1000MOL0     H34946   5.739  11.510  11.269 -0.3732  1.1645  0.0072
 1000MOL0     H34947   5.598  11.487  11.466 -0.8082 -0.0126 -0.1980
 1000MOL0     H34948   5.642  11.655  11.517 -0.2237 -0.3840  1.1801
 1000MOL0     H34949   5.498  11.578  11.253  1.0821 -0.8585  0.4183
 1000MOL0     H34950   5.508  11.739  11.338 -2.4291  0.5702  3.9619
 1000MOL0     H34951   5.277  11.782  11.399  0.1643  0.6625 -0.1621
 1000MOL0     H34952   4.984  11.572  11.564  0.1805 -1.2809 -0.7664
 1000MOL0     H34953   5.002  11.731  11.521 -1.1438  0.4157 -0.9600
 1000MOL0     H34954   4.990  11.630  11.265  0.1094 -1.2964 -0.0854
 1000MOL0     H34955   4.851  11.679  11.358  0.9904  1.3198  0.5143
 1000MOL0     H34956   4.808  11.438  11.439 -0.8733 -1.7084 -0.3802
 1000MOL0     H34957   4.967  11.401  11.390 -2.8083 -2.9727  1.5628
 1000MOL0     H34958   4.837  11.301  11.233  0.8920  0.1125 -1.2797
 1000MOL0     H34959   4.913  11.435  11.154 -0.5777 -0.5140 -1.1153
 1000MOL0     H34960   4.615  11.465  11.419  2.0068 -1.7470  0.1013
 1000MOL0     H34961   4.348  11.242  11.555 -0.3488 -0.9883 -1.0184
 1000MOL0     H34962   4.506  11.297  11.586  0.9362  0.3132 -0.1869
 1000MOL0     H34963   4.374  11.418  11.574 -0.4103  0.2299 -0.3061
 1000MOL0     H34964   3.959  11.215  11.042 -1.4513 -0.2903 -0.4007
 1000MOL0     H34965   3.766  11.048  11.008  1.0450  0.4159 -0.0353
 1000MOL0     H34966   3.766  10.660  11.238 -0.0288  0.8816  1.2701
 1000MOL0     H34967   3.666  10.760  11.344  1.4766 -0.4202 -0.3285
 1000MOL0     H34968   3.604  10.648  11.068  0.6365  1.0001 -1.1712
 1000MOL0     H34969   3.551  10.578  11.234  1.3729  0.3240  0.5380
 1000MOL0     H34970   3.444  10.829  11.082  1.9450 -0.9869 -1.0901
 1000MOL0     H34971   3.414  10.796  11.253 -2.4436 -1.0966 -0.2289
 1000MOL0     H34972   3.348  10.624  11.011 -1.1655 -0.2842 -0.3777
 1000MOL0     H34973   3.334  10.575  11.182  0.4263  2.2519  1.6141
 1000MOL0     H34974   3.122  10.663  11.045  2.8633 -1.3083 -2.6260
 1000MOL0     H34975   3.181  10.827  11.075 -1.3791 -0.7904 -0.6633
 1000MOL0     H34976   3.168  10.636  11.298  0.8157 -0.6467 -2.2818
 1000MOL0     H34977   3.181  10.817  11.303  0.1015  2.3031 -2.3872
 1000MOL0     H34978   2.951  10.718  11.372 -1.1802  2.6238  0.5839
 1000MOL0     H34979   2.932  10.672  11.197  1.9379  0.2796 -1.0562
 1000MOL0     H34980   2.903  10.895  11.133 -3.5617  1.9399  0.0504
 1000MOL0     H34981   2.983  10.947  11.286  2.5521 -0.8977 -1.8486
 1000MOL0     H34982   3.907  10.824  11.335 -1.2286 -0.2534 -1.0937
 1000MOL0     H34983   4.124  10.955  11.333 -0.3336  1.5672  0.4833
 1000MOL0     H34984   4.357  11.254  11.055  2.4115  0.4025 -0.7546
 1000MOL0     H34985   4.553  11.365  11.019 -1.1163 -2.3945 -0.4523
 1000MOL0     H34986   6.690  11.632  11.392 -0.5731 -1.0454 -1.4254
 1000MOL0     H34987   6.929  11.558  11.431  1.5525 -0.3635  0.4339
 1000MOL0     H34988   7.194  11.175  11.549 -2.0587  2.3311 -1.0710
 1000MOL0     H34989   7.448  11.120  11.565  3.7319  1.5518 -1.0796
 1000MOL0     H34990   7.709  11.210  11.200  0.9134  0.1102  0.0674
 1000MOL0     H34991   7.699  11.367  11.270 -1.3041  0.8360  2.5315
 1000MOL0     H34992   7.881  11.304  11.434 -1.4260  0.1471  1.1012
 1000MOL0     H34993   7.940  11.230  11.277 -1.6189 -2.4712 -0.4383
 1000MOL0     H34994   7.800  11.092  11.507 -1.7959 -0.8154 -2.0384
 1000MOL0     H34995   7.972  11.107  11.477 -0.6446  1.3990  0.6508
 1000MOL0     H34996   7.793  10.972  11.284 -0.3307 -1.8017  2.2919
 1000MOL0     H34997   7.859  10.883  11.414 -0.1980 -0.2566 -0.0004
 1000MOL0     H34998   8.219  10.959  11.203  0.1487 -0.4812  0.4048
 1000MOL0     H34999   7.482  11.340  11.189 -0.9104 -0.9931 -1.2122
 1000MOL0     H35000   7.260  11.381  11.182  0.6093  1.9688  0.8650
 1001MOL0     O35001   2.381   0.654   1.039 -0.1100  0.4507  0.0551
 1001MOL0     C35002   2.411   0.550   1.097 -0.3999 -0.7882  0.2793
 1001MOL0     O35003   2.337   0.459   1.152  0.8532  0.6115 -0.3044
 1001MOL0     C35004   2.201   0.459   1.148  0.3264 -0.6121  0.2116
 1001MOL0     C35005   2.116   0.534   1.068 -1.0763 -0.4281  1.6230
 1001MOL0     C35006   1.978   0.518   1.072  0.1636 -0.1150 -0.2728
 1001MOL0     C35007   1.917   0.416   1.152 -0.2644 -0.0656  0.5704
 1001MOL0     O35008   1.787   0.401   1.165 -0.1959  0.3815 -0.1691
 1001MOL0     C35009   1.712   0.442   1.047 -0.0911  0.7285 -0.1964
 1001MOL0     C35010   1.586   0.358   1.014  1.2420  0.1274 -0.3820
 1001MOL0     C35011   1.481   0.386   1.115 -0.3391 -0.6785 -0.6967
 1001MOL0     C35012   1.344   0.350   1.062 -0.4701 -0.3964  0.1174
 1001MOL0     C35013   1.245   0.317   1.174  0.4030 -0.3738  0.1112
 1001MOL0     C35014   1.106   0.291   1.127 -0.3681  0.1512  0.7087
 1001MOL0     C35015   1.005   0.334   1.229  0.3581 -0.7969  1.0728
 1001MOL0     C35016   1.004   0.263   1.357 -0.7659  0.6885 -0.3777
 1001MOL0     N35017   0.890   0.296   1.439 -0.1105 -0.7348 -0.3410
 1001MOL0     C35018   0.880   0.323   1.573 -0.3904 -0.8297  0.0894
 1001MOL0     C35019   0.751   0.356   1.591 -0.5801  0.0418 -0.1517
 1001MOL0     C35020   0.711   0.401   1.729  0.5528  0.1486  0.5468
 1001MOL0     C35021   0.570   0.375   1.771 -0.6725 -0.0641 -0.2403
 1001MOL0     C35022   0.529   0.482   1.867 -0.4673  0.3564 -0.0726
 1001MOL0     C35023   0.386   0.461   1.917  0.2536  0.3872 -0.4982
 1001MOL0     O35024   0.366   0.344   1.995  0.0643 -0.0608 -0.0118
 1001MOL0     C35025   0.265   0.352   2.084  0.0281 -0.3307  0.3261
 1001MOL0     C35026   0.157   0.440   2.064 -0.5077  0.3923 -0.4405
 1001MOL0     C35027   0.059   0.454   2.169 -0.3258  0.6526  0.1072
 1001MOL0     C35028  -0.044   0.553   2.139 -0.0303 -0.5470 -0.0363
 1001MOL0     C35029   0.062   0.366   2.283 -1.1707  0.6220 -0.2789
 1001MOL0     C35030  -0.033   0.372   2.403 -0.3127 -0.3097  0.2381
 1001MOL0     O35031  -0.139   0.462   2.389  0.6286 -0.0964  0.4634
 1001MOL0     C35032  -0.249   0.441   2.462  0.1965  0.1068  0.5467
 1001MOL0     C35033  -0.309   0.318   2.479 -0.8408  0.4841 -0.8443
 1001MOL0     C35034  -0.437   0.314   2.530 -0.4886 -0.5470 -0.5050
 1001MOL0     C35035  -0.510   0.430   2.547 -0.0780 -0.0178  0.3033
 1001MOL0     O35036  -0.646   0.432   2.576 -0.7486  0.2611 -0.7251
 1001MOL0     C35037  -0.718   0.318   2.531 -0.3886  0.2241  0.3362
 1001MOL0     C35038  -0.859   0.364   2.480 -0.0794 -0.7801  0.6449
 1001MOL0     C35039  -0.970   0.366   2.593 -1.2231  0.6991 -0.0346
 1001MOL0     C35040  -0.949   0.494   2.679 -0.1323  0.0469 -0.0810
 1001MOL0     C35041  -1.032   0.486   2.800  1.1133 -0.9403  0.5258
 1001MOL0     C35042  -1.183   0.463   2.770 -0.4515  0.2267 -0.5052
 1001MOL0     C35043  -1.249   0.452   2.905  0.4665 -0.3268  0.0810
 1001MOL0     C35044  -1.401   0.414   2.891  0.6255 -0.3177 -0.3828
 1001MOL0    Cl35045  -1.483   0.440   3.043  0.0651 -0.0871  0.2368
 1001MOL0     C35046  -0.455   0.560   2.540 -0.7619  0.0243  1.1369
 1001MOL0     C35047  -0.323   0.561   2.489  0.0262  0.3090  0.5588
 1001MOL0     O35048  -0.011   0.283   2.491 -0.9104  0.3115  0.5435
 1001MOL0     C35049   0.172   0.276   2.287  1.2462 -0.2260 -0.0074
 1001MOL0     C35050   0.276   0.266   2.194  0.3241  0.2867  0.1871
 1001MOL0     N35051   0.680   0.349   1.474  0.6450  0.5411 -0.4489
 1001MOL0     N35052   0.765   0.314   1.386 -0.0861  0.4397  0.1149
 1001MOL0     C35053   2.000   0.338   1.235  0.0053  0.0480 -0.8819
 1001MOL0     C35054   2.140   0.361   1.234 -0.3295 -0.2241 -0.3815
 1001MOL0     C35055   2.558   0.529   1.107 -0.6786 -0.0969  0.1760
 1001MOL0     C35056   2.610   0.408   1.167 -0.4367  0.9230 -0.0029
 1001MOL0     C35057   2.753   0.394   1.169  1.0295  0.0154 -0.3606
 1001MOL0     C35058   2.838   0.498   1.125 -1.1140  0.2587  0.4919
 1001MOL0     O35059   2.974   0.472   1.145 -0.7008 -0.0083 -0.3235
 1001MOL0     C35060   3.076   0.563   1.103  0.7036  0.7623  0.7602
 1001MOL0     C35061   3.198   0.490   1.049 -0.0428 -0.3689 -0.0186
 1001MOL0     C35062   3.173   0.405   0.918 -0.4797  0.1709  0.3637
 1001MOL0     C35063   3.062   0.297   0.913 -0.4074 -0.2536  0.2020
 1001MOL0     C35064   3.080   0.202   1.022 -0.1120  0.3449  0.7766
 1001MOL0     C35065   3.109   0.123   1.118  0.3698  0.3857  0.8354
 1001MOL0     C35066   2.782   0.612   1.061  0.7245  0.9835 -0.4941
 1001MOL0     C35067   2.649   0.635   1.065 -0.3525  0.2242 -0.8081
 1001MOL0     H35068   2.151   0.600   0.989 -1.8208 -1.9443 -0.0590
 1001MOL0     H35069   1.920   0.596   1.026  1.6022  0.5746 -0.9995
 1001MOL0     H35070   1.679   0.543   1.070  2.4779  1.0870  2.6924
 1001MOL0     H35071   1.781   0.433   0.963 -0.0962 -1.3271 -0.0331
 1001MOL0     H35072   1.551   0.389   0.915  0.6324  1.4398  0.2197
 1001MOL0     H35073   1.601   0.249   1.019  0.3751 -0.0562 -1.5053
 1001MOL0     H35074   1.496   0.342   1.214 -3.1182  1.9705  1.0709
 1001MOL0     H35075   1.478   0.496   1.116 -4.3782 -0.6267 -0.2287
 1001MOL0     H35076   1.315   0.431   0.995  1.0341  2.0565  2.2506
 1001MOL0     H35077   1.351   0.260   0.999  3.7768 -0.5330  0.5075
 1001MOL0     H35078   1.282   0.226   1.223 -0.7250 -2.4142 -2.5711
 1001MOL0     H35079   1.238   0.397   1.248 -0.5459 -1.8981  1.7437
 1001MOL0     H35080   1.091   0.333   1.027 -0.8767 -1.5234  0.0568
 1001MOL0     H35081   1.101   0.184   1.106  0.2389  0.2373  0.1021
 1001MOL0     H35082   1.020   0.441   1.247 -2.5824  0.6835 -3.5063
 1001MOL0     H35083   0.907   0.341   1.181  1.1196  0.6188 -0.3876
 1001MOL0     H35084   1.103   0.285   1.398  0.4430 -1.8501 -1.7423
 1001MOL0     H35085   1.003   0.156   1.336 -3.2896 -0.0941  2.9352
 1001MOL0     H35086   0.952   0.312   1.654  1.8039 -1.0061 -1.7961
 1001MOL0     H35087   0.775   0.350   1.802  0.0593 -0.0505  0.8451
 1001MOL0     H35088   0.726   0.509   1.728  1.6162  0.0096  0.1256
 1001MOL0     H35089   0.566   0.272   1.807  2.0177 -0.7855 -1.6563
 1001MOL0     H35090   0.501   0.377   1.686  0.2467 -2.9928 -1.1823
 1001MOL0     H35091   0.541   0.579   1.818  3.5002  1.2779  2.2547
 1001MOL0     H35092   0.590   0.492   1.958 -2.5137 -0.4504  1.4668
 1001MOL0     H35093   0.308   0.464   1.841 -2.6411  0.2146  2.2482
 1001MOL0     H35094   0.361   0.553   1.972  1.4266 -0.1548  1.0116
 1001MOL0     H35095   0.145   0.504   1.977 -2.6975 -0.7711 -1.0642
 1001MOL0     H35096  -0.065   0.617   2.224  2.7047 -1.6592  1.6232
 1001MOL0     H35097  -0.011   0.613   2.054 -2.7494  2.5553  0.9095
 1001MOL0     H35098  -0.138   0.506   2.107  0.6891 -2.6445  0.7866
 1001MOL0     H35099  -0.255   0.228   2.451 -0.2185  1.2050 -2.0500
 1001MOL0     H35100  -0.475   0.216   2.555 -1.6341  0.6561  3.0350
 1001MOL0     H35101  -0.667   0.267   2.449 -2.1600  0.3781 -0.9239
 1001MOL0     H35102  -0.726   0.249   2.615 -2.2376  2.0926  1.7989
 1001MOL0     H35103  -0.858   0.460   2.429  0.2567 -0.1697  1.7609
 1001MOL0     H35104  -0.898   0.291   2.409 -1.0385 -2.2410  2.5649
 1001MOL0     H35105  -0.949   0.276   2.653  1.3140  1.6514  0.6337
 1001MOL0     H35106  -1.073   0.369   2.557 -1.4681  0.8153  0.6673
 1001MOL0     H35107  -0.844   0.518   2.695 -0.2422 -1.2182  3.5262
 1001MOL0     H35108  -0.979   0.577   2.615 -2.6702 -0.6668  0.0655
 1001MOL0     H35109  -1.032   0.582   2.853 -2.3576 -2.5629  3.9234
 1001MOL0     H35110  -0.989   0.400   2.852 -0.1875 -3.3612 -2.1876
 1001MOL0     H35111  -1.234   0.533   2.704 -0.6924 -0.2728 -0.8582
 1001MOL0     H35112  -1.192   0.368   2.716 -0.4127  1.0997 -2.0689
 1001MOL0     H35113  -1.234   0.547   2.956  0.3495  0.2822 -0.9849
 1001MOL0     H35114  -1.194   0.377   2.963  2.5774  2.9603  2.6558
 1001MOL0     H35115  -1.403   0.309   2.860 -0.2813 -0.5782  0.4888
 1001MOL0     H35116  -1.460   0.470   2.819  1.9664  1.1998 -0.3514
 1001MOL0     H35117  -0.511   0.650   2.563 -0.1719  0.7594 -0.1866
 1001MOL0     H35118  -0.268   0.653   2.474 -3.8936  3.0811  1.3501
 1001MOL0     H35119   0.188   0.210   2.371 -1.1376  0.4219  1.0469
 1001MOL0     H35120   0.362   0.200   2.202 -1.1243 -1.6128  0.8564
 1001MOL0     H35121   1.954   0.263   1.298  0.3303  0.7993  0.3000
 1001MOL0     H35122   2.204   0.295   1.291 -2.8453  0.2015  3.2571
 1001MOL0     H35123   2.548   0.327   1.203  1.3120 -1.6411 -2.3879
 1001MOL0     H35124   2.793   0.314   1.231 -2.4589  0.0759  2.3246
 1001MOL0     H35125   3.051   0.628   1.018  1.1658 -2.6787 -2.2103
 1001MOL0     H35126   3.098   0.630   1.187  0.0458 -0.0253  1.5755
 1001MOL0     H35127   3.257   0.441   1.127 -0.5298 -0.0839  0.5325
 1001MOL0     H35128   3.270   0.566   1.019 -0.7332  0.9887  1.6019
 1001MOL0     H35129   3.271   0.368   0.888 -1.0494  0.1654 -1.6299
 1001MOL0     H35130   3.151   0.482   0.843 -0.1467  0.9310  1.0264
 1001MOL0     H35131   3.072   0.236   0.823  2.0890 -0.9037  0.8286
 1001MOL0     H35132   2.964   0.346   0.912  0.0769  1.2917  4.7129
 1001MOL0     H35133   3.139   0.050   1.190  2.0130 -0.6946 -0.8666
 1001MOL0     H35134   2.850   0.684   1.016 -1.2205  1.3243 -3.1279
 1001MOL0     H35135   2.615   0.729   1.023 -4.7829  0.2475  2.1199
 1002MOL0     O35136   3.289   1.566   4.090 -0.1660 -0.4867  0.6038
 1002MOL0     C35137   3.229   1.531   4.186 -0.0123  0.0146  0.6151
 1002MOL0     O35138   3.234   1.581   4.317  0.2352  0.3776  0.1437
 1002MOL0     C35139   3.292   1.693   4.338 -0.4694 -0.6217  0.1248
 1002MOL0     C35140   3.220   1.802   4.396  0.4184  0.6818 -0.2180
 1002MOL0     C35141   3.284   1.914   4.441  0.2081 -1.0225 -0.5135
 1002MOL0     C35142   3.422   1.924   4.423  0.5103 -0.1471  0.3329
 1002MOL0     O35143   3.480   2.041   4.459  0.2569 -0.1284 -0.0413
 1002MOL0     C35144   3.476   2.096   4.583  0.5588  0.9656 -1.0226
 1002MOL0     C35145   3.441   2.239   4.584 -0.4555 -0.1998  0.1376
 1002MOL0     C35146   3.531   2.342   4.505 -0.2754 -1.0803  0.4212
 1002MOL0     C35147   3.449   2.471   4.458 -0.6576 -0.9889  0.6592
 1002MOL0     C35148   3.547   2.564   4.390 -0.4483 -1.3340  0.2369
 1002MOL0     C35149   3.566   2.703   4.442  0.4367  0.0886 -0.4494
 1002MOL0     C35150   3.636   2.685   4.578 -0.0124  0.4222  0.4844
 1002MOL0     C35151   3.700   2.812   4.627  0.3070  0.3141  0.7915
 1002MOL0     N35152   3.771   2.816   4.753  0.1018 -0.0673  0.7056
 1002MOL0     C35153   3.888   2.755   4.770 -0.3894  0.9563 -0.8613
 1002MOL0     C35154   3.921   2.794   4.895 -0.3094 -0.5276  0.1034
 1002MOL0     C35155   4.055   2.759   4.963  1.3657  0.3869  0.6773
 1002MOL0     C35156   4.159   2.857   4.930 -0.3788 -0.1481 -0.3232
 1002MOL0     C35157   4.304   2.813   4.996 -0.6754  0.0020  0.2521
 1002MOL0     C35158   4.301   2.804   5.149 -0.0220 -0.4632 -0.4535
 1002MOL0     O35159   4.411   2.715   5.182 -1.5880  0.0509 -0.5434
 1002MOL0     C35160   4.538   2.754   5.163 -0.0305 -0.0722 -0.5763
 1002MOL0     C35161   4.590   2.889   5.183  1.0164 -0.9121 -0.0476
 1002MOL0     C35162   4.723   2.917   5.163 -0.9734  0.3222  0.4123
 1002MOL0     C35163   4.773   3.052   5.176 -0.0168  0.1125  0.2601
 1002MOL0     C35164   4.811   2.811   5.138  0.1132  0.9988  0.1291
 1002MOL0     C35165   4.958   2.827   5.122 -1.1351 -0.6003 -0.7914
 1002MOL0     O35166   5.019   2.920   5.207  0.2379  0.6345 -0.3717
 1002MOL0     C35167   5.157   2.942   5.204 -0.7564 -0.0885  0.5268
 1002MOL0     C35168   5.245   2.903   5.106 -0.1209  0.2514  0.2995
 1002MOL0     C35169   5.382   2.931   5.117 -0.3854 -0.1545 -0.1764
 1002MOL0     C35170   5.439   3.000   5.224  0.5167  0.4159 -0.3245
 1002MOL0     O35171   5.571   3.034   5.222  0.0901 -0.3754  0.6695
 1002MOL0     C35172   5.651   2.987   5.335 -0.0511 -1.0799  1.2292
 1002MOL0     C35173   5.796   3.019   5.309  0.6686 -0.5842  1.1338
 1002MOL0     C35174   5.833   3.169   5.317  0.8015  0.7723  0.0745
 1002MOL0     C35175   5.978   3.175   5.295 -0.2649 -0.8823  0.1456
 1002MOL0     C35176   6.032   3.318   5.281 -0.2014 -0.2294  0.5343
 1002MOL0     C35177   6.171   3.326   5.228  0.3910  0.0226 -1.4806
 1002MOL0     C35178   6.260   3.286   5.345 -0.3098  0.5762 -0.1094
 1002MOL0     C35179   6.412   3.298   5.313  0.0225  1.4227 -0.4451
 1002MOL0    Cl35180   6.469   3.192   5.182  0.1901  0.2360  0.2853
 1002MOL0     C35181   5.349   3.047   5.320  0.0282  0.5937  0.3053
 1002MOL0     C35182   5.211   3.019   5.311 -0.0572 -1.0051 -0.1389
 1002MOL0     O35183   5.020   2.754   5.045  0.6304  0.1373 -0.2739
 1002MOL0     C35184   4.757   2.674   5.122 -0.7363 -0.3433  0.6119
 1002MOL0     C35185   4.625   2.651   5.125  0.4650  0.7227  0.3666
 1002MOL0     N35186   3.819   2.864   4.946 -0.3429  0.0010 -0.1815
 1002MOL0     N35187   3.737   2.895   4.856 -0.8214  0.1227  0.7514
 1002MOL0     C35188   3.488   1.821   4.350 -0.4952  0.6326 -0.9330
 1002MOL0     C35189   3.426   1.703   4.308 -0.1201 -0.2299 -0.5024
 1002MOL0     C35190   3.135   1.419   4.174  0.0469 -0.4817  0.0218
 1002MOL0     C35191   3.138   1.331   4.069 -0.2371 -0.1631  0.3041
 1002MOL0     C35192   3.038   1.231   4.039  0.0356  0.3810 -0.3633
 1002MOL0     C35193   2.937   1.226   4.134  0.3514  0.4538  0.9880
 1002MOL0     O35194   2.835   1.123   4.129  0.0021 -0.3475 -0.0706
 1002MOL0     C35195   2.831   1.012   4.033  0.1915  0.0091 -0.0017
 1002MOL0     C35196   2.680   0.981   4.010  0.1315 -0.0873  0.5339
 1002MOL0     C35197   2.609   0.940   4.136 -0.5294  0.5539  0.5171
 1002MOL0     C35198   2.463   0.931   4.136  0.2870 -0.6838 -0.2251
 1002MOL0     C35199   2.407   0.859   4.023 -1.0743 -0.9904  0.6532
 1002MOL0     C35200   2.343   0.823   3.924 -0.8415 -0.3323  0.0159
 1002MOL0     C35201   2.942   1.303   4.253  0.1508 -0.1200 -0.1245
 1002MOL0     C35202   3.036   1.398   4.270  0.7156  0.3074  0.0289
 1002MOL0     H35203   3.115   1.781   4.412  0.7710 -1.7546 -0.6403
 1002MOL0     H35204   3.222   1.991   4.486 -0.8639 -1.8098 -0.5910
 1002MOL0     H35205   3.397   2.045   4.639  0.8931  1.3179 -0.2114
 1002MOL0     H35206   3.570   2.073   4.635 -0.5074 -1.8611 -0.1333
 1002MOL0     H35207   3.334   2.239   4.558 -0.5156 -0.3537  0.3823
 1002MOL0     H35208   3.447   2.277   4.687 -0.8038  1.3481 -0.3766
 1002MOL0     H35209   3.604   2.377   4.579 -3.4067  2.7816  2.0875
 1002MOL0     H35210   3.576   2.294   4.417  2.7682  1.8119  0.1930
 1002MOL0     H35211   3.370   2.441   4.389 -2.0750  2.0139  0.8200
 1002MOL0     H35212   3.406   2.523   4.544 -2.4541  1.2121 -1.4580
 1002MOL0     H35213   3.644   2.518   4.370 -0.1602 -0.1359 -1.3948
 1002MOL0     H35214   3.514   2.580   4.287  2.1604  2.8055 -0.2189
 1002MOL0     H35215   3.627   2.767   4.378  0.0713  1.6565  0.7121
 1002MOL0     H35216   3.468   2.748   4.458  0.2354  0.0560 -1.5280
 1002MOL0     H35217   3.566   2.652   4.656 -0.2572 -0.3097 -0.0350
 1002MOL0     H35218   3.704   2.600   4.573 -1.4326 -0.8815  1.9173
 1002MOL0     H35219   3.624   2.891   4.614  0.1673  0.0266 -0.2099
 1002MOL0     H35220   3.777   2.836   4.554 -1.5456 -0.0818 -1.4176
 1002MOL0     H35221   3.954   2.705   4.699  0.9873 -0.4896  1.3198
 1002MOL0     H35222   4.036   2.747   5.070 -2.1726 -2.5853 -0.1072
 1002MOL0     H35223   4.088   2.659   4.936  0.7345 -0.2107  1.9955
 1002MOL0     H35224   4.131   2.955   4.968  0.8155 -0.4280  1.4158
 1002MOL0     H35225   4.161   2.857   4.820  1.3682 -2.6504 -0.3839
 1002MOL0     H35226   4.382   2.886   4.972 -2.1698  1.0052 -1.8826
 1002MOL0     H35227   4.340   2.715   4.965 -1.6859  0.2608 -1.9461
 1002MOL0     H35228   4.203   2.770   5.185  0.5488  0.0325  1.7298
 1002MOL0     H35229   4.312   2.909   5.176 -1.1285 -0.6345  0.7660
 1002MOL0     H35230   4.517   2.965   5.210  1.8299 -0.5133  1.1371
 1002MOL0     H35231   4.690   3.122   5.159 -0.4962 -0.4239  0.3704
 1002MOL0     H35232   4.816   3.073   5.274  1.3855 -1.0133 -0.0893
 1002MOL0     H35233   4.837   3.075   5.090 -1.8321 -3.4779 -2.3180
 1002MOL0     H35234   5.219   2.849   5.017 -0.5235  0.2440  0.4216
 1002MOL0     H35235   5.450   2.892   5.042 -1.7855  1.8853 -2.6795
 1002MOL0     H35236   5.632   3.043   5.427  3.7999  0.7956  1.1136
 1002MOL0     H35237   5.626   2.882   5.356  0.2698 -1.6289 -0.8881
 1002MOL0     H35238   5.846   2.962   5.388  0.8288  0.1355  1.5588
 1002MOL0     H35239   5.836   2.970   5.219  0.5486 -0.5968  1.0879
 1002MOL0     H35240   5.806   3.204   5.417 -3.0778  2.6137 -1.4094
 1002MOL0     H35241   5.780   3.225   5.239  0.3700 -1.2929 -1.1814
 1002MOL0     H35242   6.037   3.116   5.365  2.7910  2.4756  0.6745
 1002MOL0     H35243   6.002   3.129   5.199  2.8724 -0.3065  0.5751
 1002MOL0     H35244   6.020   3.384   5.368  1.6742 -0.8507  1.3154
 1002MOL0     H35245   5.970   3.371   5.208  2.0168 -0.4903 -1.6386
 1002MOL0     H35246   6.182   3.255   5.145  0.2204  0.6993 -2.0928
 1002MOL0     H35247   6.198   3.425   5.191 -1.1300  1.0220 -0.0648
 1002MOL0     H35248   6.247   3.179   5.366 -0.9121  0.8093  0.7992
 1002MOL0     H35249   6.234   3.339   5.437 -0.7093 -0.5238  0.4417
 1002MOL0     H35250   6.461   3.262   5.404 -0.9373 -0.9822 -0.8156
 1002MOL0     H35251   6.446   3.399   5.287 -0.9901  1.3352 -2.2525
 1002MOL0     H35252   5.385   3.094   5.411 -0.1267 -0.6274  1.0349
 1002MOL0     H35253   5.139   3.060   5.382 -0.5861 -0.4087 -0.9965
 1002MOL0     H35254   4.826   2.591   5.114  0.9438  1.1503 -1.4174
 1002MOL0     H35255   4.578   2.555   5.109 -1.4115  1.6925 -0.3695
 1002MOL0     H35256   3.596   1.831   4.337  0.0534 -0.5205  2.0865
 1002MOL0     H35257   3.476   1.626   4.250 -0.0116 -1.0707  0.6720
 1002MOL0     H35258   3.208   1.352   3.988  0.3285  0.5447  0.9734
 1002MOL0     H35259   3.037   1.171   3.949 -1.0217  0.8804 -0.6985
 1002MOL0     H35260   2.877   1.042   3.939 -1.1063 -3.5890 -1.9710
 1002MOL0     H35261   2.887   0.927   4.073 -1.3118 -0.5593  1.0034
 1002MOL0     H35262   2.668   0.901   3.936 -2.2089 -0.9810  1.7800
 1002MOL0     H35263   2.634   1.070   3.966  3.5744  1.2244 -0.7419
 1002MOL0     H35264   2.636   1.015   4.212 -0.7582  0.6538  0.4986
 1002MOL0     H35265   2.642   0.842   4.171  3.0896  1.4538  0.0296
 1002MOL0     H35266   2.426   1.034   4.130  0.2628 -0.2869  3.8885
 1002MOL0     H35267   2.409   0.896   4.225 -1.2707  1.0770 -0.3961
 1002MOL0     H35268   2.272   0.798   3.847 -0.0401 -2.0664 -0.2266
 1002MOL0     H35269   2.870   1.286   4.332 -0.2335  0.4852 -0.3343
 1002MOL0     H35270   3.026   1.462   4.357  0.3286  0.5954 -0.2251
 1003MOL0     O35271   1.489   9.626   1.853  0.5159  0.3601 -1.0334
 1003MOL0     C35272   1.536   9.558   1.941  0.3817  1.4156 -0.0744
 1003MOL0     O35273   1.558   9.594   2.070 -0.1638  0.3266  0.6050
 1003MOL0     C35274   1.489   9.697   2.119 -0.0942 -0.1267  0.1695
 1003MOL0     C35275   1.376   9.678   2.197 -0.2260 -0.6754 -0.0299
 1003MOL0     C35276   1.311   9.788   2.248  0.0445 -1.5608  1.7652
 1003MOL0     C35277   1.364   9.920   2.225  0.3462  0.5324  0.1261
 1003MOL0     O35278   1.305  10.030   2.284 -0.7892  0.0622  0.1803
 1003MOL0     C35279   1.269  10.023   2.425 -0.6386  0.1032  0.9587
 1003MOL0     C35280   1.390   9.999   2.514 -0.7690 -0.7479  0.9121
 1003MOL0     C35281   1.347   9.999   2.658  0.0915  0.5913  1.2139
 1003MOL0     C35282   1.464   9.961   2.744  0.6806 -0.5219 -0.0943
 1003MOL0     C35283   1.425   9.960   2.895  0.0845 -0.3974 -0.4914
 1003MOL0     C35284   1.551   9.946   2.980 -0.5023  0.7697 -0.4366
 1003MOL0     C35285   1.522   9.902   3.129 -0.4456  0.1311  0.0737
 1003MOL0     C35286   1.641   9.940   3.216 -0.0478  0.1453 -0.2320
 1003MOL0     N35287   1.614   9.924   3.356  0.3475  0.3273  0.2946
 1003MOL0     C35288   1.545  10.015   3.433  0.6924 -0.7942  0.1756
 1003MOL0     C35289   1.520   9.946   3.552  0.2849 -0.8958 -0.0907
 1003MOL0     C35290   1.441  10.005   3.664 -0.6048  0.2322  0.0405
 1003MOL0     C35291   1.296  10.006   3.627 -0.7592 -0.1309  0.1358
 1003MOL0     C35292   1.217  10.065   3.751  0.2911 -0.3246 -0.0576
 1003MOL0     C35293   1.065  10.074   3.734  0.2248  0.5276 -0.0453
 1003MOL0     O35294   1.045  10.145   3.615 -0.3881  0.9071 -0.6358
 1003MOL0     C35295   0.944  10.118   3.523 -0.2364  0.2778 -0.2009
 1003MOL0     C35296   0.848  10.018   3.530  0.3395 -1.3235 -0.5249
 1003MOL0     C35297   0.746  10.003   3.430  0.3593 -0.1186  0.3850
 1003MOL0     C35298   0.653   9.888   3.448  0.3719  0.4292 -0.8293
 1003MOL0     C35299   0.745  10.078   3.314 -1.1268  0.0662  0.7631
 1003MOL0     C35300   0.649  10.063   3.202 -0.4066 -0.4429  0.2327
 1003MOL0     O35301   0.656  10.164   3.104  0.7354  0.4818  0.6235
 1003MOL0     C35302   0.556  10.165   3.009  0.5502 -0.7634 -0.2598
 1003MOL0     C35303   0.524  10.060   2.919 -0.1374 -0.6723 -0.8140
 1003MOL0     C35304   0.410  10.056   2.842  0.3928 -1.3011  0.1705
 1003MOL0     C35305   0.341  10.176   2.821  0.3151 -0.1835  0.1222
 1003MOL0     O35306   0.238  10.187   2.723  0.1751 -0.0894  0.1645
 1003MOL0     C35307   0.177  10.311   2.682 -1.2641  0.0137  0.0754
 1003MOL0     C35308   0.067  10.292   2.592 -0.0181  0.5257 -0.1520
 1003MOL0     C35309  -0.068  10.230   2.646  0.0732  0.0384  0.8606
 1003MOL0     C35310  -0.165  10.337   2.689  0.5725 -0.1056  0.4357
 1003MOL0     C35311  -0.286  10.268   2.760  0.3277 -0.1780 -0.0978
 1003MOL0     C35312  -0.407  10.232   2.671 -0.1316 -0.1483  0.1078
 1003MOL0     C35313  -0.478  10.347   2.598  0.0647 -0.3143 -0.0785
 1003MOL0     C35314  -0.604  10.308   2.516 -0.0328 -0.0738  0.3969
 1003MOL0    Cl35315  -0.560  10.171   2.400 -0.1597 -0.6827 -0.0647
 1003MOL0     C35316   0.385  10.293   2.892 -0.7585 -0.3305 -0.1829
 1003MOL0     C35317   0.483  10.287   2.982 -0.9115  0.3904 -1.0152
 1003MOL0     O35318   0.565   9.971   3.202  0.5806  0.4487 -0.7954
 1003MOL0     C35319   0.852  10.179   3.305 -0.0363  0.3175  0.3729
 1003MOL0     C35320   0.945  10.196   3.407 -0.8413  0.1496 -0.1550
 1003MOL0     N35321   1.587   9.825   3.546 -0.0802  0.1669 -0.3509
 1003MOL0     N35322   1.643   9.810   3.429 -0.1892  0.5461  0.1259
 1003MOL0     C35323   1.464   9.932   2.130 -0.5678 -0.8900 -0.6772
 1003MOL0     C35324   1.531   9.823   2.080  0.3460  0.1158 -0.0697
 1003MOL0     C35325   1.599   9.428   1.888  0.9439 -0.4815  0.9716
 1003MOL0     C35326   1.570   9.364   1.765 -0.1321 -0.3379  0.8789
 1003MOL0     C35327   1.615   9.246   1.717 -0.7640  0.1754 -0.0777
 1003MOL0     C35328   1.715   9.178   1.781 -0.1283  1.3725 -0.4537
 1003MOL0     O35329   1.773   9.065   1.725  0.6678  0.1845  0.6505
 1003MOL0     C35330   1.902   9.020   1.761  0.6450  0.8224  0.8387
 1003MOL0     C35331   1.905   8.876   1.802  0.0794  0.4909 -0.7247
 1003MOL0     C35332   1.820   8.848   1.927  1.1863  0.4624  0.7357
 1003MOL0     C35333   1.817   8.697   1.985 -0.1212 -0.9665  0.2266
 1003MOL0     C35334   1.949   8.658   2.046 -0.2643  1.0413  1.3573
 1003MOL0     C35335   2.060   8.613   2.073  0.2787  0.9425  0.6484
 1003MOL0     C35336   1.751   9.227   1.909  1.1250  0.6787  0.5193
 1003MOL0     C35337   1.702   9.359   1.955  0.6302 -0.0282 -0.0366
 1003MOL0     H35338   1.346   9.576   2.219  0.5154 -0.3668  2.8871
 1003MOL0     H35339   1.222   9.770   2.308  0.0197 -1.3268  1.7986
 1003MOL0     H35340   1.223  10.119   2.450 -1.1438 -0.4980  2.4796
 1003MOL0     H35341   1.177   9.963   2.431 -1.7303  1.7359  1.2612
 1003MOL0     H35342   1.425   9.902   2.477  0.4525 -0.3671  1.0031
 1003MOL0     H35343   1.464  10.079   2.500 -0.7084 -0.6938  1.5046
 1003MOL0     H35344   1.313  10.100   2.685  2.5637  1.7652  0.3221
 1003MOL0     H35345   1.272   9.920   2.663  3.1334 -2.9527 -2.2478
 1003MOL0     H35346   1.513   9.869   2.711  1.5689  0.5026 -1.7785
 1003MOL0     H35347   1.539  10.036   2.719  0.8174 -0.9662 -1.0753
 1003MOL0     H35348   1.379  10.055   2.925  0.8627  0.2009 -1.1532
 1003MOL0     H35349   1.358   9.879   2.923  1.0272 -0.3954  2.0673
 1003MOL0     H35350   1.625   9.873   2.945 -1.8139 -0.7312 -0.2043
 1003MOL0     H35351   1.605  10.040   2.974  1.1515 -0.2404 -3.7653
 1003MOL0     H35352   1.427   9.944   3.164 -1.7441 -1.5607 -1.2299
 1003MOL0     H35353   1.507   9.793   3.129  3.7486 -0.6506  2.3260
 1003MOL0     H35354   1.668  10.045   3.197 -1.6262  0.2992 -1.9164
 1003MOL0     H35355   1.715   9.866   3.186  0.0228  0.4954 -0.9405
 1003MOL0     H35356   1.518  10.118   3.412 -3.7291 -1.4137  1.7904
 1003MOL0     H35357   1.458   9.940   3.750 -1.2227  0.9144  0.6927
 1003MOL0     H35358   1.464  10.108   3.692 -0.7289  0.4652 -0.6895
 1003MOL0     H35359   1.256   9.911   3.591 -0.0714  0.2471 -1.7380
 1003MOL0     H35360   1.279  10.081   3.550 -2.0261  4.2997  4.2382
 1003MOL0     H35361   1.256  10.162   3.783 -0.9197  0.9183 -2.1326
 1003MOL0     H35362   1.234  10.004   3.840  0.2303  1.3640  1.1670
 1003MOL0     H35363   1.019  10.136   3.811 -0.4951  2.6606 -2.0749
 1003MOL0     H35364   1.021   9.974   3.736 -0.7226  0.9518  0.8421
 1003MOL0     H35365   0.840   9.938   3.603  0.3282 -1.7474 -0.9816
 1003MOL0     H35366   0.548   9.914   3.465  0.9670  2.2127  0.4500
 1003MOL0     H35367   0.663   9.815   3.367  4.3361  1.4004 -1.3953
 1003MOL0     H35368   0.677   9.830   3.537  2.5619  1.1585 -0.8841
 1003MOL0     H35369   0.596   9.980   2.903 -1.3339 -1.6503 -1.4281
 1003MOL0     H35370   0.383   9.975   2.776 -1.3199  0.6914 -1.7637
 1003MOL0     H35371   0.133  10.368   2.765  1.4881  2.0026  0.3580
 1003MOL0     H35372   0.253  10.372   2.632 -0.9137  0.1897  0.8060
 1003MOL0     H35373   0.035  10.391   2.559  0.6503  0.7831 -0.0538
 1003MOL0     H35374   0.112  10.240   2.507  0.5478  2.0431 -0.8236
 1003MOL0     H35375  -0.046  10.162   2.728 -1.2898 -1.9438 -0.3363
 1003MOL0     H35376  -0.107  10.163   2.569  0.9011 -0.9227  1.2513
 1003MOL0     H35377  -0.113  10.404   2.758  1.2713  0.0590 -0.2390
 1003MOL0     H35378  -0.203  10.398   2.607  2.9018  0.7520 -0.0782
 1003MOL0     H35379  -0.321  10.331   2.842 -3.7525  2.7582 -3.6064
 1003MOL0     H35380  -0.259  10.168   2.795  1.7058  1.0081  2.4685
 1003MOL0     H35381  -0.358  10.156   2.609  1.5507  0.7025  0.3361
 1003MOL0     H35382  -0.486  10.184   2.730 -0.5266 -2.1022 -1.8650
 1003MOL0     H35383  -0.406  10.403   2.538 -1.2806  1.8106  0.1712
 1003MOL0     H35384  -0.513  10.428   2.663  1.9969  0.4807  0.0376
 1003MOL0     H35385  -0.645  10.392   2.459 -3.0566 -2.3755 -1.1118
 1003MOL0     H35386  -0.680  10.276   2.588 -0.7946  0.7684  0.0021
 1003MOL0     H35387   0.344  10.391   2.870  1.0603  0.6630  0.6429
 1003MOL0     H35388   0.502  10.380   3.035  1.2996  0.9524 -2.6410
 1003MOL0     H35389   0.865  10.245   3.220 -0.6121  0.1777  0.1693
 1003MOL0     H35390   1.027  10.267   3.402 -0.5373 -0.0299  1.4881
 1003MOL0     H35391   1.487  10.036   2.109  1.9171 -0.3853  3.4280
 1003MOL0     H35392   1.614   9.840   2.012 -0.5208  1.5571 -0.8309
 1003MOL0     H35393   1.501   9.415   1.698  2.0479  0.5248 -0.7928
 1003MOL0     H35394   1.589   9.211   1.618 -1.4450  3.1077 -1.0331
 1003MOL0     H35395   1.958   9.017   1.667 -2.5961 -1.6789 -1.2514
 1003MOL0     H35396   1.961   9.077   1.833  2.4496 -1.0517  0.9144
 1003MOL0     H35397   2.008   8.845   1.823 -0.5952 -0.9359  0.7143
 1003MOL0     H35398   1.870   8.814   1.718 -0.7036 -0.3021  0.1642
 1003MOL0     H35399   1.718   8.860   1.888  1.1992  2.0511  1.1599
 1003MOL0     H35400   1.834   8.918   2.009 -1.1907  1.0543  0.7132
 1003MOL0     H35401   1.787   8.619   1.914 -0.4035 -2.6873  2.1478
 1003MOL0     H35402   1.740   8.705   2.063 -0.6536  0.8189 -0.4387
 1003MOL0     H35403   2.144   8.550   2.094 -1.8623 -2.6508 -0.5777
 1003MOL0     H35404   1.831   9.176   1.961  1.1123 -0.1662 -0.2687
 1003MOL0     H35405   1.719   9.390   2.057  1.9039  2.8835 -1.0395
 1004MOL0     O35406   7.855   8.361   7.266  0.7929 -0.7526 -0.2578
 1004MOL0     C35407   7.850   8.485   7.238 -0.5854  0.1683  0.9037
 1004MOL0     O35408   7.776   8.580   7.301  0.3713  0.3909 -0.3241
 1004MOL0     C35409   7.687   8.543   7.401  0.5334  0.4035 -0.1266
 1004MOL0     C35410   7.666   8.640   7.495  0.8362 -0.3836  0.3014
 1004MOL0     C35411   7.571   8.628   7.598 -0.0473  0.1802  0.3962
 1004MOL0     C35412   7.497   8.511   7.603  0.5611  0.2477 -1.4232
 1004MOL0     O35413   7.405   8.504   7.706 -0.4106  0.3166 -0.1255
 1004MOL0     C35414   7.374   8.375   7.761  0.7265  0.0881  1.0090
 1004MOL0     C35415   7.259   8.372   7.865 -0.1660 -0.1956  0.8982
 1004MOL0     C35416   7.210   8.234   7.886  0.5847  1.6024 -0.8104
 1004MOL0     C35417   7.071   8.233   7.965 -0.0992  0.2992  0.4420
 1004MOL0     C35418   7.042   8.094   8.015  0.1342 -0.0932  0.0952
 1004MOL0     C35419   7.142   8.038   8.116  0.4018 -0.4668  0.3257
 1004MOL0     C35420   7.180   8.124   8.240 -0.0190  0.5876  0.4619
 1004MOL0     C35421   7.072   8.143   8.344 -0.2724 -0.2977  0.4826
 1004MOL0     N35422   6.960   8.234   8.303 -0.4935 -0.5145  0.2672
 1004MOL0     C35423   6.959   8.373   8.287 -0.2281  0.2592  0.6579
 1004MOL0     C35424   6.837   8.407   8.242 -0.2356  0.5848 -1.0005
 1004MOL0     C35425   6.784   8.554   8.219 -0.2527 -0.2946 -0.0618
 1004MOL0     C35426   6.878   8.661   8.279 -1.1444 -0.4547  0.9395
 1004MOL0     C35427   6.873   8.659   8.430  1.1048  0.0554 -0.3035
 1004MOL0     C35428   6.737   8.649   8.489  1.3061  0.0143  0.0825
 1004MOL0     O35429   6.664   8.756   8.427 -0.8196 -0.3369 -1.0972
 1004MOL0     C35430   6.524   8.744   8.439 -0.4556 -0.5444 -0.4266
 1004MOL0     C35431   6.461   8.667   8.539 -0.7246 -0.0551  0.6892
 1004MOL0     C35432   6.328   8.661   8.563  0.5056  0.2649  0.0024
 1004MOL0     C35433   6.295   8.564   8.668 -0.0203 -0.1515 -0.0665
 1004MOL0     C35434   6.238   8.740   8.487 -0.3053 -0.0895  0.2667
 1004MOL0     C35435   6.090   8.729   8.487 -0.5740  0.5467  1.1555
 1004MOL0     O35436   6.038   8.825   8.400  0.2686  0.2019  0.4152
 1004MOL0     C35437   5.899   8.842   8.397 -0.6529 -0.1386  0.0523
 1004MOL0     C35438   5.840   8.944   8.471 -0.3231 -0.6376 -0.0815
 1004MOL0     C35439   5.705   8.945   8.492 -0.1728 -0.5243  0.2277
 1004MOL0     C35440   5.618   8.847   8.445 -0.5586 -0.0401 -1.4024
 1004MOL0     O35441   5.487   8.835   8.474 -0.2236 -0.6545 -0.1184
 1004MOL0     C35442   5.398   8.874   8.373 -0.3250  0.2353  0.4866
 1004MOL0     C35443   5.299   8.971   8.429  0.3396 -0.9196  0.3443
 1004MOL0     C35444   5.182   9.010   8.328  0.0329  1.0836  0.0533
 1004MOL0     C35445   5.066   9.095   8.396  0.3858  0.0802  0.2707
 1004MOL0     C35446   4.953   9.109   8.286 -0.2261 -0.1457 -0.5879
 1004MOL0     C35447   4.855   9.217   8.325  0.6039  0.1593  0.2649
 1004MOL0     C35448   4.736   9.237   8.231  0.0990 -0.7575 -0.4867
 1004MOL0     C35449   4.615   9.170   8.279  1.1116 -0.3183 -0.3988
 1004MOL0    Cl35450   4.641   8.995   8.302 -0.1479 -0.2192  0.9408
 1004MOL0     C35451   5.674   8.734   8.371 -0.8937 -0.0270  0.0524
 1004MOL0     C35452   5.813   8.739   8.353  1.0854  0.7145  0.1689
 1004MOL0     O35453   6.032   8.642   8.551  0.5095  0.1438  0.0125
 1004MOL0     C35454   6.295   8.822   8.386 -0.0372  0.9669  0.5787
 1004MOL0     C35455   6.439   8.827   8.370  0.5121 -0.1861 -0.1611
 1004MOL0     N35456   6.757   8.302   8.247 -0.7020  0.6696  0.1296
 1004MOL0     N35457   6.829   8.194   8.290  0.6849 -0.6307  0.9270
 1004MOL0     C35458   7.519   8.409   7.513 -0.1451  1.0222  0.7732
 1004MOL0     C35459   7.616   8.424   7.411  0.0691  0.0809  0.4830
 1004MOL0     C35460   7.954   8.533   7.155 -0.7819 -0.3525 -1.1529
 1004MOL0     C35461   8.000   8.662   7.181  0.0385  0.1945  0.5710
 1004MOL0     C35462   8.116   8.718   7.112 -0.0583 -0.3075 -0.1960
 1004MOL0     C35463   8.181   8.645   7.013 -1.0852  0.6201  0.2608
 1004MOL0     O35464   8.290   8.708   6.961  0.0340  0.2465  0.4669
 1004MOL0     C35465   8.377   8.654   6.856  0.7982 -0.4187  0.3530
 1004MOL0     C35466   8.469   8.542   6.916  0.5049  0.2680 -0.2517
 1004MOL0     C35467   8.536   8.483   6.795 -0.1788 -0.1310 -0.3179
 1004MOL0     C35468   8.633   8.368   6.828 -0.0741  0.4467 -0.1008
 1004MOL0     C35469   8.702   8.328   6.702 -1.0379 -0.2985  0.7364
 1004MOL0     C35470   8.745   8.308   6.589 -1.0673  0.8283 -0.1098
 1004MOL0     C35471   8.131   8.511   6.983  0.4454 -0.5298 -1.0109
 1004MOL0     C35472   8.028   8.457   7.067 -0.1473  0.4650  1.2961
 1004MOL0     H35473   7.716   8.736   7.494 -0.9403  0.5812 -0.0596
 1004MOL0     H35474   7.548   8.707   7.668 -2.1660 -0.7990  0.9020
 1004MOL0     H35475   7.348   8.304   7.682 -1.9465  2.0934 -0.0615
 1004MOL0     H35476   7.463   8.336   7.812  1.9895  1.5920  0.0569
 1004MOL0     H35477   7.290   8.428   7.954  1.4204 -1.0507  0.9196
 1004MOL0     H35478   7.169   8.415   7.820 -0.4501 -1.8156 -0.1682
 1004MOL0     H35479   7.204   8.162   7.804  0.6456 -1.9727  2.0604
 1004MOL0     H35480   7.279   8.173   7.946 -0.7774  0.9108  0.1319
 1004MOL0     H35481   7.079   8.306   8.047  0.4227  0.1128  0.5564
 1004MOL0     H35482   6.988   8.252   7.896 -1.3038  0.1057  1.7902
 1004MOL0     H35483   6.946   8.102   8.067  0.7517 -1.6773  1.5737
 1004MOL0     H35484   7.042   8.015   7.939  1.7669  0.7556 -0.8563
 1004MOL0     H35485   7.102   7.947   8.162 -1.3856  0.2826  0.3292
 1004MOL0     H35486   7.235   8.006   8.067 -0.4012 -1.9226 -0.2997
 1004MOL0     H35487   7.259   8.065   8.287 -1.4316 -0.6072  1.4462
 1004MOL0     H35488   7.225   8.221   8.218  3.2395 -0.5758  1.4092
 1004MOL0     H35489   7.123   8.174   8.436 -1.7905  1.4210  0.8074
 1004MOL0     H35490   7.024   8.050   8.377  0.9014 -0.9617  0.3712
 1004MOL0     H35491   7.036   8.449   8.301  2.6030 -2.4608  1.0938
 1004MOL0     H35492   6.774   8.572   8.112 -0.4270 -0.5802 -0.0949
 1004MOL0     H35493   6.680   8.563   8.253 -0.2196  2.2817 -0.4423
 1004MOL0     H35494   6.829   8.752   8.242  0.4796  0.5380  1.1248
 1004MOL0     H35495   6.979   8.645   8.242 -0.5383  2.1837  1.2688
 1004MOL0     H35496   6.939   8.740   8.461  1.6099  1.0212 -3.5943
 1004MOL0     H35497   6.926   8.571   8.467  0.8520  0.0403  0.0266
 1004MOL0     H35498   6.737   8.652   8.599 -2.1701 -0.4453  0.1956
 1004MOL0     H35499   6.694   8.550   8.469 -0.9038  1.1370 -0.9478
 1004MOL0     H35500   6.520   8.594   8.593  2.9103  1.3880 -0.9821
 1004MOL0     H35501   6.211   8.594   8.732 -0.2215 -2.1455  0.6672
 1004MOL0     H35502   6.265   8.465   8.634 -0.0534 -0.9660  2.1682
 1004MOL0     H35503   6.379   8.554   8.737 -0.4017 -0.5684  0.3530
 1004MOL0     H35504   5.905   9.016   8.520 -0.0430 -0.8732 -0.1027
 1004MOL0     H35505   5.657   9.013   8.562 -2.0067  0.3684 -1.7861
 1004MOL0     H35506   5.442   8.913   8.281  0.9953 -1.8848  0.1357
 1004MOL0     H35507   5.345   8.782   8.344  0.8624  0.0585 -1.2828
 1004MOL0     H35508   5.258   8.944   8.527 -2.3772  2.9991  0.5260
 1004MOL0     H35509   5.362   9.058   8.451 -1.3015  0.3762  0.1676
 1004MOL0     H35510   5.132   8.921   8.288  2.5519 -0.0553 -0.7695
 1004MOL0     H35511   5.226   9.060   8.241 -2.6340  0.1901 -1.9537
 1004MOL0     H35512   5.025   9.042   8.482 -0.4987  1.1448  0.5340
 1004MOL0     H35513   5.106   9.193   8.423  0.3484  0.0554  0.4139
 1004MOL0     H35514   4.915   9.008   8.274  0.9381 -0.6672 -0.1476
 1004MOL0     H35515   4.999   9.139   8.192 -0.6500 -0.4087 -0.8783
 1004MOL0     H35516   4.823   9.208   8.429  0.3532  1.6063  0.3235
 1004MOL0     H35517   4.909   9.311   8.335 -2.5698  2.1297 -0.0072
 1004MOL0     H35518   4.761   9.191   8.135  0.8682 -5.3330  1.6342
 1004MOL0     H35519   4.709   9.342   8.216 -1.4873 -0.9786  0.4564
 1004MOL0     H35520   4.548   9.175   8.193 -0.3911  1.8373  0.7699
 1004MOL0     H35521   4.567   9.222   8.363  0.3138 -0.7477 -0.5807
 1004MOL0     H35522   5.608   8.661   8.327 -0.2708 -0.7743  0.3460
 1004MOL0     H35523   5.865   8.663   8.294  1.9924  1.5804 -0.1852
 1004MOL0     H35524   6.237   8.873   8.310  0.0670 -1.5002 -1.2602
 1004MOL0     H35525   6.474   8.901   8.298  1.0236 -0.8198 -0.5806
 1004MOL0     H35526   7.466   8.315   7.522  1.6000  0.0846  1.8790
 1004MOL0     H35527   7.628   8.360   7.324 -2.3988  1.4743 -0.9993
 1004MOL0     H35528   7.954   8.719   7.261 -1.0925 -0.6778  0.5653
 1004MOL0     H35529   8.159   8.815   7.133 -0.3844 -0.0387 -0.7521
 1004MOL0     H35530   8.320   8.619   6.769 -0.3965  2.7845 -0.2853
 1004MOL0     H35531   8.433   8.738   6.814 -0.1351 -0.0948 -0.2877
 1004MOL0     H35532   8.422   8.470   6.984 -0.0776  1.8961  1.1459
 1004MOL0     H35533   8.549   8.589   6.975  0.8557  0.6798 -1.0389
 1004MOL0     H35534   8.594   8.562   6.747 -1.5055  0.6988 -0.6191
 1004MOL0     H35535   8.473   8.444   6.714  1.5797 -1.7990 -0.9748
 1004MOL0     H35536   8.585   8.278   6.867 -0.4581 -0.9470 -3.4967
 1004MOL0     H35537   8.709   8.406   6.897  0.1554  1.4982 -0.9145
 1004MOL0     H35538   8.784   8.280   6.493 -0.4743  0.4904  0.2215
 1004MOL0     H35539   8.176   8.439   6.916  0.5670 -0.7544 -0.6877
 1004MOL0     H35540   8.004   8.351   7.065  0.9957  0.1397  2.9907
 1005MOL0     O35541   5.365   5.591   6.757  0.3813  1.0023  0.1152
 1005MOL0     C35542   5.384   5.473   6.759 -0.8942 -0.3512 -0.4464
 1005MOL0     O35543   5.466   5.403   6.668 -0.4832 -0.7119 -0.3874
 1005MOL0     C35544   5.529   5.460   6.563 -0.3856  0.0220 -0.2963
 1005MOL0     C35545   5.484   5.576   6.503 -0.2220  0.0540 -0.0530
 1005MOL0     C35546   5.546   5.630   6.391  0.3916  1.2287  0.0051
 1005MOL0     C35547   5.662   5.560   6.345  0.0704 -0.5979  0.4802
 1005MOL0     O35548   5.721   5.598   6.230  0.5005  0.1850 -0.0154
 1005MOL0     C35549   5.747   5.483   6.141 -0.4053  0.5895  1.7284
 1005MOL0     C35550   5.724   5.527   5.996  0.0198 -0.1531 -0.8107
 1005MOL0     C35551   5.584   5.557   5.946  0.9590 -0.1849 -0.3990
 1005MOL0     C35552   5.545   5.698   5.902  0.5448  0.4330 -0.3346
 1005MOL0     C35553   5.391   5.719   5.870  0.0464  1.1243 -0.0958
 1005MOL0     C35554   5.333   5.592   5.797 -0.1109  0.4233 -0.2882
 1005MOL0     C35555   5.215   5.623   5.711 -0.2548 -0.1426 -0.2889
 1005MOL0     C35556   5.135   5.487   5.698 -1.0349 -0.3511 -0.0951
 1005MOL0     N35557   5.059   5.476   5.575 -0.5541 -0.6649  0.1032
 1005MOL0     C35558   4.961   5.389   5.545 -0.1981  0.5427 -0.0629
 1005MOL0     C35559   4.922   5.427   5.418 -0.7087  0.4048 -0.3128
 1005MOL0     C35560   4.804   5.375   5.341  0.1381  0.7005  0.1573
 1005MOL0     C35561   4.829   5.240   5.268 -1.0474 -0.7478  0.3764
 1005MOL0     C35562   4.770   5.121   5.349 -0.8430  0.8572  0.8442
 1005MOL0     C35563   4.613   5.111   5.343 -0.3350  0.5868  0.2128
 1005MOL0     O35564   4.583   5.002   5.432 -0.3982  0.2343  0.1218
 1005MOL0     C35565   4.454   4.953   5.439  0.5914 -0.2205  0.3927
 1005MOL0     C35566   4.423   4.856   5.529  0.0714  0.3784 -0.4693
 1005MOL0     C35567   4.304   4.785   5.535  0.2288  0.0406  0.2834
 1005MOL0     C35568   4.298   4.662   5.625  0.6848 -0.4678  0.0712
 1005MOL0     C35569   4.208   4.830   5.443  0.6502  0.4137 -0.8961
 1005MOL0     C35570   4.076   4.757   5.427 -0.1742 -0.1080 -0.1001
 1005MOL0     O35571   4.066   4.621   5.477  0.5017  0.2728 -0.7056
 1005MOL0     C35572   3.936   4.565   5.462  0.7368  0.7332 -0.1973
 1005MOL0     C35573   3.886   4.518   5.337 -0.2876  0.0224  0.1359
 1005MOL0     C35574   3.754   4.467   5.326 -0.5715  0.4439  1.5055
 1005MOL0     C35575   3.670   4.472   5.427  0.2374  0.3879  0.8398
 1005MOL0     O35576   3.540   4.449   5.402  0.7305  0.2281  0.2899
 1005MOL0     C35577   3.455   4.528   5.480 -0.6150 -0.2502  0.5100
 1005MOL0     C35578   3.309   4.526   5.436  0.5150  0.7433  0.6628
 1005MOL0     C35579   3.289   4.589   5.301  0.3875  0.2080  0.5398
 1005MOL0     C35580   3.140   4.599   5.260  0.6034 -0.7779 -0.0774
 1005MOL0     C35581   3.127   4.645   5.119 -0.4563 -0.8143 -0.0506
 1005MOL0     C35582   2.985   4.660   5.083  0.5713 -0.1504  0.8063
 1005MOL0     C35583   2.904   4.528   5.072  0.1609  0.5465 -0.7083
 1005MOL0     C35584   2.953   4.430   4.968  0.1120  0.8631 -0.1394
 1005MOL0    Cl35585   2.829   4.290   4.957 -0.1390 -0.0199 -0.4202
 1005MOL0     C35586   3.723   4.502   5.554  0.0465  0.4561 -0.5391
 1005MOL0     C35587   3.852   4.548   5.572 -0.5592 -0.2802  0.1022
 1005MOL0     O35588   3.983   4.813   5.368 -0.1001  0.0878  0.0620
 1005MOL0     C35589   4.232   4.928   5.351  0.3337  0.0795  0.2360
 1005MOL0     C35590   4.351   4.997   5.357 -0.0774  0.9410  1.1399
 1005MOL0     N35591   4.999   5.524   5.372 -0.5817 -0.4001 -0.6945
 1005MOL0     N35592   5.077   5.556   5.466 -0.6752  0.1611 -0.2446
 1005MOL0     C35593   5.716   5.449   6.415 -0.6006 -0.6646 -0.6559
 1005MOL0     C35594   5.644   5.394   6.522  0.4091  0.4598 -0.2110
 1005MOL0     C35595   5.325   5.387   6.875  0.3084 -0.1815  0.1929
 1005MOL0     C35596   5.340   5.251   6.873  0.1391 -0.1797  0.3630
 1005MOL0     C35597   5.281   5.176   6.976  0.2746  0.4173  0.6001
 1005MOL0     C35598   5.201   5.231   7.064  0.0811 -0.2488  0.4269
 1005MOL0     O35599   5.151   5.143   7.153  0.1547 -0.2371  0.0154
 1005MOL0     C35600   5.015   5.164   7.172  0.3336 -1.0753  0.2069
 1005MOL0     C35601   4.951   5.027   7.208 -1.0303 -0.0633 -0.1409
 1005MOL0     C35602   4.812   5.047   7.255 -0.1137  0.5002 -0.7747
 1005MOL0     C35603   4.806   5.084   7.409 -0.5534  1.4035 -0.0234
 1005MOL0     C35604   4.814   5.233   7.427  1.0504  0.0457  0.2905
 1005MOL0     C35605   4.818   5.343   7.473 -0.5170 -0.1696  0.3714
 1005MOL0     C35606   5.173   5.369   7.061  0.8451 -0.1915  0.4705
 1005MOL0     C35607   5.243   5.447   6.975 -0.2004  0.4818  0.0628
 1005MOL0     H35608   5.386   5.612   6.534 -2.2233 -3.8560 -1.0645
 1005MOL0     H35609   5.507   5.709   6.327  3.3873  1.8015 -1.2655
 1005MOL0     H35610   5.850   5.453   6.159  0.3706  2.4888  0.7767
 1005MOL0     H35611   5.677   5.403   6.168 -2.3377  1.8506  0.7452
 1005MOL0     H35612   5.788   5.615   5.980  0.6844 -0.6644 -1.0029
 1005MOL0     H35613   5.764   5.446   5.934 -1.3646 -1.4580 -0.0590
 1005MOL0     H35614   5.555   5.489   5.865 -0.1321 -0.9080  0.5617
 1005MOL0     H35615   5.526   5.535   6.036  3.0720 -1.7360  0.6616
 1005MOL0     H35616   5.580   5.773   5.973  3.0174  1.0507 -2.0850
 1005MOL0     H35617   5.599   5.707   5.807 -1.8667  0.4668 -1.7849
 1005MOL0     H35618   5.337   5.734   5.963  0.7202  1.7912  0.2026
 1005MOL0     H35619   5.383   5.809   5.808  1.1230  2.5606  1.7475
 1005MOL0     H35620   5.411   5.545   5.736 -1.2871 -0.4316 -1.1792
 1005MOL0     H35621   5.310   5.522   5.879  0.1003 -1.8138 -2.0308
 1005MOL0     H35622   5.156   5.704   5.755  3.3914  3.3016 -1.0636
 1005MOL0     H35623   5.254   5.666   5.618 -1.0652  0.1163 -0.5181
 1005MOL0     H35624   5.062   5.464   5.777 -0.6062 -0.3580  0.3016
 1005MOL0     H35625   5.210   5.408   5.693 -0.9655 -0.2049 -1.8032
 1005MOL0     H35626   4.900   5.333   5.615 -1.2685  3.5970  1.6486
 1005MOL0     H35627   4.717   5.374   5.406 -1.2575 -1.4026 -1.5960
 1005MOL0     H35628   4.783   5.441   5.257  3.2972 -0.8460 -2.0524
 1005MOL0     H35629   4.937   5.238   5.255 -0.8913  2.2902  0.3881
 1005MOL0     H35630   4.799   5.236   5.163  0.1923  2.9085 -0.2773
 1005MOL0     H35631   4.796   5.119   5.455  0.0554  2.4496  0.6834
 1005MOL0     H35632   4.816   5.030   5.307 -2.6133 -0.2797  1.2846
 1005MOL0     H35633   4.582   5.098   5.239 -1.7667  0.9227  0.5698
 1005MOL0     H35634   4.556   5.201   5.367 -0.5489  1.2773 -2.5216
 1005MOL0     H35635   4.502   4.827   5.597 -0.4729  0.9386  0.4286
 1005MOL0     H35636   4.209   4.653   5.689  0.9572 -0.2781  0.4831
 1005MOL0     H35637   4.301   4.577   5.556 -0.8513 -0.6180  0.1590
 1005MOL0     H35638   4.380   4.659   5.697  0.3741 -1.6414  0.4029
 1005MOL0     H35639   3.965   4.517   5.263  1.7022  1.4639  2.0986
 1005MOL0     H35640   3.727   4.436   5.225 -1.6714  1.4492  1.4690
 1005MOL0     H35641   3.453   4.483   5.580 -2.6249 -0.7273  0.3112
 1005MOL0     H35642   3.495   4.629   5.473 -0.6233 -0.1057  2.2161
 1005MOL0     H35643   3.274   4.423   5.439 -0.2515  1.0137  2.2201
 1005MOL0     H35644   3.257   4.590   5.508  1.4325  1.1587  0.9756
 1005MOL0     H35645   3.345   4.546   5.218  1.4867  0.6320  1.0389
 1005MOL0     H35646   3.326   4.691   5.318  0.1563 -0.1094  3.4756
 1005MOL0     H35647   3.090   4.502   5.272  1.7512 -1.7586 -2.5664
 1005MOL0     H35648   3.089   4.675   5.319 -0.7773  0.5822 -2.8706
 1005MOL0     H35649   3.179   4.577   5.051 -1.5638  0.0610 -1.8567
 1005MOL0     H35650   3.175   4.743   5.109 -0.6238 -0.9862 -4.2582
 1005MOL0     H35651   2.942   4.738   5.147  2.5450  2.6191 -1.0134
 1005MOL0     H35652   2.982   4.702   4.982  1.4074  0.0078  0.8411
 1005MOL0     H35653   2.803   4.561   5.045 -0.0519 -0.0318 -0.6254
 1005MOL0     H35654   2.886   4.487   5.171 -3.7430  0.9221 -1.1165
 1005MOL0     H35655   3.050   4.385   4.992 -0.1426  0.1949 -0.3328
 1005MOL0     H35656   2.958   4.469   4.866  2.5770  0.6225 -0.1722
 1005MOL0     H35657   3.659   4.507   5.641 -1.2907 -2.8724 -1.1760
 1005MOL0     H35658   3.910   4.570   5.661  1.3488  2.7475 -1.7367
 1005MOL0     H35659   4.164   4.943   5.267  0.8901  0.6875 -0.1099
 1005MOL0     H35660   4.354   5.080   5.287 -3.3583  0.7824  0.6533
 1005MOL0     H35661   5.817   5.409   6.404 -0.1101 -0.0670  1.2863
 1005MOL0     H35662   5.686   5.304   6.566  2.9307  1.0865 -1.1258
 1005MOL0     H35663   5.396   5.200   6.795 -3.3675 -2.4142 -0.9441
 1005MOL0     H35664   5.300   5.069   6.975  0.3543  0.4020  2.1612
 1005MOL0     H35665   5.008   5.239   7.250  4.2016 -1.5370  1.1644
 1005MOL0     H35666   4.967   5.203   7.081  0.5775  1.3214  1.0334
 1005MOL0     H35667   5.006   4.974   7.285 -1.4919  1.3677  1.2282
 1005MOL0     H35668   4.946   4.967   7.116 -0.4104 -0.2920 -0.0281
 1005MOL0     H35669   4.747   4.959   7.243 -2.9094  2.3015  0.0436
 1005MOL0     H35670   4.761   5.135   7.214 -0.3751  1.3708  1.2879
 1005MOL0     H35671   4.876   5.035   7.478 -0.2954  1.5525 -0.1779
 1005MOL0     H35672   4.709   5.058   7.454 -0.0618 -0.3374  0.0969
 1005MOL0     H35673   4.805   5.437   7.523  0.4347  1.3375 -1.9965
 1005MOL0     H35674   5.125   5.417   7.146  3.7481 -2.8085  3.8950
 1005MOL0     H35675   5.226   5.554   6.967  0.6897  0.7280  1.2151
 1006MOL0     O35676   8.663   6.838   0.385 -0.0146  0.1250  0.0897
 1006MOL0     C35677   8.686   6.934   0.311 -0.4058 -0.7516  0.3574
 1006MOL0     O35678   8.587   7.010   0.245  0.1649 -0.2248 -0.4736
 1006MOL0     C35679   8.448   7.008   0.282  0.2529  0.3842 -0.0864
 1006MOL0     C35680   8.385   7.131   0.302  0.0003 -0.7148 -0.5104
 1006MOL0     C35681   8.247   7.146   0.333  0.5508 -0.0751 -0.1705
 1006MOL0     C35682   8.174   7.026   0.359 -0.0365  0.2716  0.3692
 1006MOL0     O35683   8.039   7.047   0.374 -1.1438  0.9074 -0.8866
 1006MOL0     C35684   7.959   6.946   0.435  0.4593  0.9865  0.8282
 1006MOL0     C35685   7.814   6.986   0.416 -0.6448 -0.4018 -0.3781
 1006MOL0     C35686   7.720   6.867   0.434  0.4738  0.1408 -0.4417
 1006MOL0     C35687   7.697   6.828   0.587 -0.0533 -0.4180 -0.0440
 1006MOL0     C35688   7.608   6.712   0.610 -0.6262 -0.1016 -0.0597
 1006MOL0     C35689   7.589   6.671   0.754  0.5810 -0.6597 -0.7954
 1006MOL0     C35690   7.490   6.554   0.784 -0.0732  0.5716  0.4238
 1006MOL0     C35691   7.476   6.538   0.933  0.6757  0.6271 -0.2662
 1006MOL0     N35692   7.386   6.425   0.972  0.2832  0.2670 -0.1522
 1006MOL0     C35693   7.403   6.352   1.087  0.3289  0.2898  0.4967
 1006MOL0     C35694   7.284   6.273   1.094 -1.0340 -0.0823 -0.5289
 1006MOL0     C35695   7.252   6.160   1.185 -0.3869 -0.1582 -0.4261
 1006MOL0     C35696   7.359   6.123   1.290 -0.2588  0.3578 -0.6861
 1006MOL0     C35697   7.298   6.047   1.396  0.0060  0.3909 -0.3641
 1006MOL0     C35698   7.391   6.002   1.504 -0.5573 -0.3854 -0.9276
 1006MOL0     O35699   7.417   6.103   1.601  0.0472 -0.8030  0.3300
 1006MOL0     C35700   7.499   6.063   1.711 -0.2692  1.3295  0.7312
 1006MOL0     C35701   7.541   5.930   1.741 -1.5158 -0.3054  1.1395
 1006MOL0     C35702   7.630   5.908   1.851  0.9070 -0.0941  0.3952
 1006MOL0     C35703   7.675   5.764   1.867  0.7700 -0.3235  0.0833
 1006MOL0     C35704   7.655   6.012   1.944 -0.1746 -0.6443  0.1262
 1006MOL0     C35705   7.742   5.994   2.070 -0.5855 -0.6457 -0.1564
 1006MOL0     O35706   7.755   6.104   2.148  0.8456 -0.6684  0.0691
 1006MOL0     C35707   7.841   6.079   2.256  0.6196 -0.1626  0.2571
 1006MOL0     C35708   7.962   6.154   2.253  0.9309  1.2159  0.3756
 1006MOL0     C35709   8.046   6.156   2.368  0.3857  0.2441 -0.3520
 1006MOL0     C35710   8.017   6.077   2.482  0.9257  0.3315 -0.9541
 1006MOL0     O35711   8.114   6.074   2.581  0.1109  0.0110  0.9134
 1006MOL0     C35712   8.079   6.039   2.714  0.7184 -0.2254  0.5213
 1006MOL0     C35713   7.990   6.146   2.788 -0.5657 -0.2142 -0.1420
 1006MOL0     C35714   7.952   6.138   2.935 -0.5181  0.4557  0.2416
 1006MOL0     C35715   7.825   6.060   2.977 -0.0799  0.0785  0.2506
 1006MOL0     C35716   7.699   6.142   2.976 -0.2467 -1.0608  0.0465
 1006MOL0     C35717   7.664   6.212   3.111  0.8035  0.3740 -0.5359
 1006MOL0     C35718   7.767   6.313   3.172 -0.3323 -0.2681 -0.6526
 1006MOL0     C35719   7.747   6.337   3.322  0.3736  0.3532 -0.1083
 1006MOL0    Cl35720   7.592   6.420   3.361  0.6593  0.4382  0.1407
 1006MOL0     C35721   7.899   6.003   2.484  0.2426  0.0215 -0.2928
 1006MOL0     C35722   7.810   6.007   2.372  0.0656 -0.5305  0.2705
 1006MOL0     O35723   7.796   5.892   2.086 -0.0870 -0.3699  0.1309
 1006MOL0     C35724   7.606   6.139   1.913  0.7824 -0.4432  0.0020
 1006MOL0     C35725   7.522   6.162   1.802 -0.1915  0.7712 -0.6540
 1006MOL0     N35726   7.212   6.294   0.979 -0.4021  0.4158 -0.3668
 1006MOL0     N35727   7.269   6.381   0.905 -0.5319 -0.3115 -0.3579
 1006MOL0     C35728   8.235   6.902   0.342 -0.2447 -0.5202 -0.3649
 1006MOL0     C35729   8.368   6.893   0.299 -0.2556 -0.4234 -0.1157
 1006MOL0     C35730   8.832   6.949   0.264 -1.2454 -0.9142  0.1894
 1006MOL0     C35731   8.863   7.077   0.198  0.1882  0.2577 -0.5948
 1006MOL0     C35732   8.991   7.102   0.141 -0.8809 -0.2820  0.7019
 1006MOL0     C35733   9.093   7.004   0.174 -0.6848 -0.4475 -0.0577
 1006MOL0     O35734   9.218   7.051   0.147  0.3696  0.6881  0.0920
 1006MOL0     C35735   9.332   6.970   0.173  0.7773  0.2412  0.0770
 1006MOL0     C35736   9.457   7.056   0.173 -0.1605  0.6945 -1.3674
 1006MOL0     C35737   9.482   7.127   0.043 -0.1350  0.0514  0.0566
 1006MOL0     C35738   9.555   7.045  -0.064  0.0897  0.5484 -0.9515
 1006MOL0     C35739   9.687   7.004  -0.022 -0.2629  0.3126 -0.1190
 1006MOL0     C35740   9.810   6.991   0.014 -0.3164 -0.3090 -0.4477
 1006MOL0     C35741   9.062   6.885   0.229  0.8225 -0.0200  0.3218
 1006MOL0     C35742   8.933   6.852   0.278  0.7461  1.3389 -0.7338
 1006MOL0     H35743   8.452   7.216   0.304  1.8057 -2.0626 -0.6077
 1006MOL0     H35744   8.201   7.243   0.344 -4.4072 -2.1820  0.4411
 1006MOL0     H35745   7.984   6.851   0.388  1.2645  0.4515  2.2634
 1006MOL0     H35746   7.980   6.939   0.543  2.4445  1.0144  0.4885
 1006MOL0     H35747   7.799   7.074   0.479  1.1433  0.9740 -1.7694
 1006MOL0     H35748   7.799   7.012   0.311 -0.5780 -1.2993 -0.6222
 1006MOL0     H35749   7.624   6.905   0.397  0.7371  0.3335 -0.9354
 1006MOL0     H35750   7.745   6.784   0.367  1.7289 -0.4963  0.7745
 1006MOL0     H35751   7.790   6.817   0.645 -0.3514 -2.3736  0.1381
 1006MOL0     H35752   7.646   6.910   0.638 -1.4269 -0.6118 -1.0577
 1006MOL0     H35753   7.517   6.736   0.555  0.0993  0.4071 -1.0909
 1006MOL0     H35754   7.658   6.628   0.559 -0.3491  0.2877 -0.4402
 1006MOL0     H35755   7.683   6.643   0.805 -0.5259 -3.3380 -0.0526
 1006MOL0     H35756   7.560   6.767   0.799  0.7296 -0.1624 -1.7446
 1006MOL0     H35757   7.395   6.568   0.732  1.2823  1.8963 -1.8556
 1006MOL0     H35758   7.541   6.469   0.738  0.0741  1.5648 -1.3436
 1006MOL0     H35759   7.431   6.633   0.965  1.5357  0.8186  0.4143
 1006MOL0     H35760   7.575   6.527   0.979  0.5110 -0.0228 -0.0543
 1006MOL0     H35761   7.492   6.363   1.149  0.0557 -0.9902  1.1404
 1006MOL0     H35762   7.161   6.199   1.231 -1.7640 -1.2361 -2.1246
 1006MOL0     H35763   7.224   6.066   1.136 -0.3901 -0.9080  0.9524
 1006MOL0     H35764   7.412   6.207   1.336 -1.4495 -0.2002  1.9030
 1006MOL0     H35765   7.437   6.068   1.237  2.4151  4.3699 -1.3042
 1006MOL0     H35766   7.264   5.954   1.349  1.0072  0.8766 -2.1220
 1006MOL0     H35767   7.214   6.094   1.448 -0.4087 -1.5547  0.8226
 1006MOL0     H35768   7.482   5.979   1.447 -0.0784 -1.3605  0.1869
 1006MOL0     H35769   7.348   5.918   1.560  0.3698  1.0591  2.1762
 1006MOL0     H35770   7.527   5.852   1.666  0.6320  0.5856 -0.2768
 1006MOL0     H35771   7.605   5.701   1.812 -1.2263  2.1507 -0.3928
 1006MOL0     H35772   7.781   5.759   1.841  0.7909 -0.0756  0.1140
 1006MOL0     H35773   7.670   5.731   1.971 -0.3386  0.9761  0.4821
 1006MOL0     H35774   7.972   6.220   2.168  3.6757  1.4196  0.7437
 1006MOL0     H35775   8.137   6.213   2.352 -0.0597  0.6844 -1.3928
 1006MOL0     H35776   8.028   5.942   2.707 -1.5044  0.6466  3.1251
 1006MOL0     H35777   8.178   6.035   2.760  0.5317  4.5385  1.7864
 1006MOL0     H35778   8.044   6.238   2.764 -0.1529  0.2167  2.1509
 1006MOL0     H35779   7.893   6.146   2.738 -0.7410 -1.1319  0.1744
 1006MOL0     H35780   7.946   6.242   2.970 -2.0834 -0.8557  4.6027
 1006MOL0     H35781   8.033   6.087   2.988 -0.0280  1.3585  0.3800
 1006MOL0     H35782   7.814   5.981   2.901 -0.9754  0.0811  0.3643
 1006MOL0     H35783   7.838   6.012   3.074 -4.0224  0.5846  1.2147
 1006MOL0     H35784   7.606   6.088   2.953 -1.0486 -0.0025  0.7108
 1006MOL0     H35785   7.711   6.222   2.902  1.6657 -0.0725  1.3548
 1006MOL0     H35786   7.575   6.274   3.102  0.1648 -0.5427 -0.5823
 1006MOL0     H35787   7.645   6.129   3.180 -2.8232  1.2505 -0.3293
 1006MOL0     H35788   7.763   6.410   3.122  0.2420 -1.7487 -3.8110
 1006MOL0     H35789   7.871   6.280   3.156  0.6714  2.7595 -0.9928
 1006MOL0     H35790   7.827   6.399   3.366  1.3415 -1.7086  1.1945
 1006MOL0     H35791   7.757   6.238   3.368 -1.3292  1.0291  1.8754
 1006MOL0     H35792   7.879   5.938   2.568 -2.9261  1.4854  0.2503
 1006MOL0     H35793   7.720   5.946   2.376  0.9542 -1.8924  0.1827
 1006MOL0     H35794   7.623   6.227   1.973  0.3594  0.5455 -1.2844
 1006MOL0     H35795   7.485   6.261   1.777 -1.0267  0.1447 -2.0466
 1006MOL0     H35796   8.192   6.808   0.375  0.0121 -0.1390  1.1241
 1006MOL0     H35797   8.397   6.788   0.298 -0.3999 -0.4626 -1.2109
 1006MOL0     H35798   8.791   7.158   0.200  1.3412  1.3149 -0.1303
 1006MOL0     H35799   9.025   7.190   0.087 -1.7767 -0.6380 -0.4773
 1006MOL0     H35800   9.334   6.922   0.272  5.1052  0.2761  0.1849
 1006MOL0     H35801   9.348   6.886   0.104  0.3538 -0.4604  0.8131
 1006MOL0     H35802   9.544   7.002   0.210 -0.9090  1.1172  1.1556
 1006MOL0     H35803   9.445   7.125   0.256  3.1922  0.7496 -0.8096
 1006MOL0     H35804   9.548   7.213   0.060  0.1907 -0.5037  1.9172
 1006MOL0     H35805   9.384   7.160   0.006  0.2833  2.7115  1.0761
 1006MOL0     H35806   9.561   7.110  -0.152  2.0951  2.2609  0.3554
 1006MOL0     H35807   9.500   6.953  -0.087  2.6697 -1.0747 -0.9857
 1006MOL0     H35808   9.911   6.980   0.049 -0.3052  0.7818 -0.1070
 1006MOL0     H35809   9.144   6.818   0.252  0.5419  0.4223  2.9887
 1006MOL0     H35810   8.927   6.756   0.327  1.5573  1.1356 -1.0287
 1007MOL0     O35811   7.189   2.619   3.313 -0.3574  0.0533  0.7199
 1007MOL0     C35812   7.192   2.500   3.272  0.1409 -0.3317  0.0035
 1007MOL0     O35813   7.084   2.419   3.274  0.5680 -0.6489  0.3713
 1007MOL0     C35814   6.967   2.452   3.340 -0.3115 -0.8637  0.4057
 1007MOL0     C35815   6.859   2.379   3.302  0.7567  0.9280 -0.7203
 1007MOL0     C35816   6.745   2.383   3.382 -0.3879  1.2230  0.3577
 1007MOL0     C35817   6.738   2.455   3.505 -0.0686  0.9952  0.5089
 1007MOL0     O35818   6.637   2.441   3.596 -0.0311  0.9950 -0.3347
 1007MOL0     C35819   6.548   2.544   3.581 -0.2401  0.3895 -0.8086
 1007MOL0     C35820   6.414   2.523   3.658 -0.3944 -0.0912  0.6665
 1007MOL0     C35821   6.316   2.640   3.652 -1.4713 -0.4144 -0.4507
 1007MOL0     C35822   6.186   2.598   3.730  0.4466 -0.7125 -0.6362
 1007MOL0     C35823   6.082   2.708   3.747 -0.4149  0.3598 -0.2371
 1007MOL0     C35824   5.959   2.668   3.827  0.3180 -0.5501 -0.3088
 1007MOL0     C35825   5.868   2.787   3.857  0.9377  1.3168 -0.1301
 1007MOL0     C35826   5.739   2.723   3.909  0.5101 -0.2908  0.5405
 1007MOL0     N35827   5.640   2.829   3.944  0.3442 -0.0809 -0.1104
 1007MOL0     C35828   5.535   2.858   3.866 -0.0222 -0.0457  0.1753
 1007MOL0     C35829   5.480   2.977   3.909 -0.9589  0.2453 -0.1495
 1007MOL0     C35830   5.373   3.047   3.836  0.2046 -0.2010 -0.3313
 1007MOL0     C35831   5.293   2.956   3.743 -0.9224 -0.3135  0.0627
 1007MOL0     C35832   5.153   3.024   3.715 -0.7725 -0.1521 -0.0326
 1007MOL0     C35833   5.088   2.959   3.590  0.1387 -0.2867  0.3756
 1007MOL0     O35834   4.946   2.963   3.595  0.1260 -0.3293 -0.5880
 1007MOL0     C35835   4.873   3.071   3.541  0.3249 -0.8096 -0.0720
 1007MOL0     C35836   4.734   3.055   3.518 -0.5749  0.5165  0.4043
 1007MOL0     C35837   4.651   3.161   3.484 -0.9550 -0.5530 -0.8780
 1007MOL0     C35838   4.500   3.126   3.473 -1.0340 -0.0133  0.2521
 1007MOL0     C35839   4.710   3.286   3.452 -0.9304  0.5275  0.5735
 1007MOL0     C35840   4.633   3.407   3.411 -0.5450  0.1856  0.3110
 1007MOL0     O35841   4.714   3.514   3.372  0.3129  0.0365  0.0247
 1007MOL0     C35842   4.670   3.632   3.333 -0.2319 -0.8107  0.7303
 1007MOL0     C35843   4.768   3.709   3.271  0.2012  0.9200  0.4913
 1007MOL0     C35844   4.738   3.834   3.221 -0.3411  0.1040 -0.6641
 1007MOL0     C35845   4.622   3.904   3.261 -0.3015  0.5926 -0.4029
 1007MOL0     O35846   4.590   4.037   3.229 -0.1149  0.2760  0.3915
 1007MOL0     C35847   4.677   4.088   3.127 -0.1084 -0.7397  0.1682
 1007MOL0     C35848   4.620   4.215   3.072  0.3565  0.1220  0.0267
 1007MOL0     C35849   4.642   4.329   3.179  0.4031  0.5661  0.0333
 1007MOL0     C35850   4.524   4.337   3.284  0.1374 -0.6285  0.6874
 1007MOL0     C35851   4.585   4.424   3.401 -0.0857  0.1171  0.0918
 1007MOL0     C35852   4.483   4.469   3.513 -1.1630 -0.4039 -0.4381
 1007MOL0     C35853   4.376   4.584   3.483 -0.7000  0.3110  0.1370
 1007MOL0     C35854   4.281   4.596   3.595  0.5021  0.1159 -1.1131
 1007MOL0    Cl35855   4.168   4.446   3.595  0.4203 -0.5716 -0.0305
 1007MOL0     C35856   4.518   3.826   3.324  1.3598 -0.5427  0.4129
 1007MOL0     C35857   4.537   3.691   3.349 -0.8533 -0.1107 -0.5269
 1007MOL0     O35858   4.511   3.401   3.407  0.2043  0.1729  0.5896
 1007MOL0     C35859   4.847   3.302   3.473  0.2363 -0.8253  0.3907
 1007MOL0     C35860   4.930   3.193   3.520  0.1405 -0.7429  0.2976
 1007MOL0     N35861   5.562   3.020   4.015 -0.7828  0.1490  0.6281
 1007MOL0     N35862   5.659   2.930   4.038 -0.3687  0.6411  0.1797
 1007MOL0     C35863   6.856   2.521   3.542  0.8357 -0.2033 -0.0617
 1007MOL0     C35864   6.968   2.525   3.458  0.1732 -0.4712 -0.0960
 1007MOL0     C35865   7.335   2.454   3.234  0.0891 -0.9104  0.2590
 1007MOL0     C35866   7.450   2.536   3.239 -0.2273 -0.1971  0.2320
 1007MOL0     C35867   7.576   2.466   3.215  0.6306 -0.1694 -0.3184
 1007MOL0     C35868   7.588   2.332   3.176  1.3931  0.2718  0.1439
 1007MOL0     O35869   7.695   2.260   3.137  0.0505  0.0234  0.1219
 1007MOL0     C35870   7.749   2.301   3.011 -0.3076 -0.8314 -0.0817
 1007MOL0     C35871   7.876   2.217   2.969 -0.2790  0.0471 -0.2112
 1007MOL0     C35872   8.003   2.257   3.048 -0.0386 -0.4222  0.1636
 1007MOL0     C35873   8.121   2.163   3.008  0.6876 -0.0377  0.1101
 1007MOL0     C35874   8.153   2.171   2.869 -0.0613  0.4497 -0.1470
 1007MOL0     C35875   8.164   2.179   2.751  0.4006  0.0467  0.5031
 1007MOL0     C35876   7.471   2.257   3.162  0.4200 -0.4554  0.1820
 1007MOL0     C35877   7.354   2.319   3.197  0.3503 -0.4060 -0.2355
 1007MOL0     H35878   6.861   2.336   3.202 -2.1997 -2.3558  0.4156
 1007MOL0     H35879   6.658   2.325   3.352  0.3736  0.9315 -1.4040
 1007MOL0     H35880   6.594   2.635   3.620  0.1756  0.3098 -1.1060
 1007MOL0     H35881   6.524   2.565   3.476 -2.2403 -2.3652 -1.0272
 1007MOL0     H35882   6.363   2.431   3.624 -1.9684  1.8078 -2.6586
 1007MOL0     H35883   6.448   2.517   3.762  4.0720  3.5539 -0.2851
 1007MOL0     H35884   6.360   2.731   3.694 -1.2655 -1.8507  2.6648
 1007MOL0     H35885   6.292   2.667   3.548  1.2042  1.1525 -0.7709
 1007MOL0     H35886   6.145   2.522   3.662 -0.5983 -0.2159 -0.5846
 1007MOL0     H35887   6.218   2.556   3.826  1.1562  0.3232 -0.4131
 1007MOL0     H35888   6.126   2.800   3.788 -3.1543  0.2395  3.4849
 1007MOL0     H35889   6.044   2.722   3.645 -1.2227 -1.0164 -0.1444
 1007MOL0     H35890   5.897   2.593   3.778 -0.4895 -0.7694  0.9968
 1007MOL0     H35891   5.989   2.621   3.921  0.1413 -0.3399 -0.1460
 1007MOL0     H35892   5.903   2.846   3.943 -1.1461 -1.0045  2.5156
 1007MOL0     H35893   5.849   2.842   3.764  0.0915 -0.5460 -1.1093
 1007MOL0     H35894   5.760   2.655   3.992  0.6307  0.5834  1.2359
 1007MOL0     H35895   5.699   2.655   3.833  1.2331 -0.0022 -0.1139
 1007MOL0     H35896   5.499   2.791   3.788 -1.6475  2.2142 -1.1564
 1007MOL0     H35897   5.305   3.098   3.905  0.2615 -0.1303 -0.3274
 1007MOL0     H35898   5.416   3.131   3.779 -1.5727  0.9069 -0.1287
 1007MOL0     H35899   5.275   2.865   3.801  1.9237 -0.0910  1.4418
 1007MOL0     H35900   5.332   2.935   3.643 -1.6479  1.3355 -0.5976
 1007MOL0     H35901   5.157   3.132   3.704 -0.7799  0.0197  1.4236
 1007MOL0     H35902   5.092   2.994   3.800 -0.5996  0.0724  0.1707
 1007MOL0     H35903   5.115   2.853   3.589  1.3351 -0.0192  1.5897
 1007MOL0     H35904   5.121   3.016   3.502 -1.5398  1.8560  1.0436
 1007MOL0     H35905   4.701   2.955   3.542  2.8638 -1.8895 -3.6480
 1007MOL0     H35906   4.490   3.023   3.508 -2.1812  0.3247  0.9927
 1007MOL0     H35907   4.434   3.184   3.539 -2.6967 -2.5992  1.0011
 1007MOL0     H35908   4.464   3.135   3.370 -1.3663 -0.2108  0.3475
 1007MOL0     H35909   4.863   3.663   3.246  0.4380  2.1699 -1.0633
 1007MOL0     H35910   4.810   3.888   3.161  4.1149 -1.5853  2.6353
 1007MOL0     H35911   4.777   4.107   3.166  0.4838 -2.9782 -0.1271
 1007MOL0     H35912   4.682   4.021   3.040  1.9868  0.4915 -0.7455
 1007MOL0     H35913   4.671   4.240   2.979  5.1165 -1.8500  1.7953
 1007MOL0     H35914   4.512   4.201   3.067 -0.4913  4.8910 -0.1159
 1007MOL0     H35915   4.645   4.424   3.126  2.7381  1.3111  1.3648
 1007MOL0     H35916   4.734   4.325   3.237 -0.6602 -4.5163  1.8875
 1007MOL0     H35917   4.436   4.387   3.244  0.2691  2.1047  3.4212
 1007MOL0     H35918   4.498   4.244   3.336  1.5545 -0.1172  2.4082
 1007MOL0     H35919   4.613   4.521   3.358  1.0253 -0.6150 -0.9222
 1007MOL0     H35920   4.669   4.369   3.444  0.4269 -0.7682 -1.9048
 1007MOL0     H35921   4.430   4.380   3.549 -1.5094  0.0642  0.2232
 1007MOL0     H35922   4.544   4.503   3.596  1.2656  0.5671 -2.4906
 1007MOL0     H35923   4.317   4.555   3.396  0.0578 -2.8903  0.5462
 1007MOL0     H35924   4.433   4.676   3.467  1.6539 -1.2799 -1.2888
 1007MOL0     H35925   4.222   4.686   3.575 -1.2629 -0.0673  2.4383
 1007MOL0     H35926   4.325   4.610   3.694 -0.3822 -0.5104 -0.6170
 1007MOL0     H35927   4.415   3.863   3.328  0.5224 -1.7377 -4.0647
 1007MOL0     H35928   4.457   3.631   3.390 -0.8655 -0.3534 -0.8959
 1007MOL0     H35929   4.901   3.393   3.452  0.2077 -1.4447 -3.0302
 1007MOL0     H35930   5.038   3.204   3.528  0.6336 -2.6369 -2.4112
 1007MOL0     H35931   6.866   2.569   3.639  4.3624  1.9377 -1.2686
 1007MOL0     H35932   7.052   2.575   3.506 -1.0764 -0.1866  1.9102
 1007MOL0     H35933   7.445   2.638   3.274 -0.0584 -0.3310  0.6627
 1007MOL0     H35934   7.664   2.528   3.226  0.4955 -0.2185  1.3207
 1007MOL0     H35935   7.674   2.289   2.932  0.1465 -1.1761 -0.4666
 1007MOL0     H35936   7.779   2.406   3.014  0.9639 -1.1095 -1.6448
 1007MOL0     H35937   7.880   2.227   2.861 -1.4562 -0.4780 -0.3180
 1007MOL0     H35938   7.848   2.114   2.996 -1.9844 -0.5716 -3.7225
 1007MOL0     H35939   7.977   2.249   3.154  1.0690  5.0444  1.1332
 1007MOL0     H35940   8.024   2.364   3.040 -2.0481  0.0845  1.0005
 1007MOL0     H35941   8.091   2.060   3.030 -0.9953  1.0186  3.6227
 1007MOL0     H35942   8.207   2.184   3.072  0.6293 -0.8330  0.4591
 1007MOL0     H35943   8.172   2.195   2.645 -0.0764 -3.2883 -0.1307
 1007MOL0     H35944   7.457   2.156   3.123 -0.9005  0.2677 -1.3576
 1007MOL0     H35945   7.270   2.253   3.215 -0.9210  1.3094  0.3688
 1008MOL0     O35946   6.979   5.324   4.439 -0.1507 -0.2852 -0.0854
 1008MOL0     C35947   7.082   5.389   4.415 -0.2697  0.3062 -0.3277
 1008MOL0     O35948   7.109   5.460   4.305 -0.3986  0.6934 -0.0524
 1008MOL0     C35949   6.996   5.503   4.241  0.7144 -0.9325  0.8288
 1008MOL0     C35950   6.890   5.421   4.191 -0.1418  0.0308  0.6021
 1008MOL0     C35951   6.786   5.465   4.113  0.8390 -0.9888  0.1805
 1008MOL0     C35952   6.776   5.605   4.086  0.2427  0.2134  0.3683
 1008MOL0     O35953   6.666   5.658   4.025  0.7452  0.1703 -0.3607
 1008MOL0     C35954   6.538   5.581   4.023  0.4243 -0.1227  0.5830
 1008MOL0     C35955   6.430   5.672   3.964 -0.0789 -0.1517  0.0017
 1008MOL0     C35956   6.289   5.608   3.942  0.3629 -0.0129 -0.1707
 1008MOL0     C35957   6.193   5.686   3.845 -0.4188 -0.4966  0.1548
 1008MOL0     C35958   6.080   5.602   3.789  0.3824 -0.5272 -0.2991
 1008MOL0     C35959   5.988   5.552   3.900 -1.0582  0.5208  0.4698
 1008MOL0     C35960   5.877   5.462   3.860  0.1695 -0.1541  0.1228
 1008MOL0     C35961   5.773   5.458   3.975  0.5004  0.2774  0.2984
 1008MOL0     N35962   5.678   5.341   3.945 -0.0611  0.0574  0.7757
 1008MOL0     C35963   5.709   5.200   3.949 -0.2075 -0.7422 -0.0002
 1008MOL0     C35964   5.598   5.146   3.905  0.1751 -0.7007 -0.7068
 1008MOL0     C35965   5.591   4.993   3.882  0.0101 -0.4147  0.0953
 1008MOL0     C35966   5.591   4.916   4.016 -0.0798 -0.2849  0.0953
 1008MOL0     C35967   5.468   4.949   4.106  0.1488 -0.0846 -0.3565
 1008MOL0     C35968   5.438   4.843   4.199  0.0470 -0.2223 -0.3277
 1008MOL0     O35969   5.304   4.869   4.235  0.3120  0.2252  0.4737
 1008MOL0     C35970   5.198   4.780   4.204 -0.2849 -0.8469 -0.1715
 1008MOL0     C35971   5.091   4.791   4.298 -0.1617  0.0410  0.5073
 1008MOL0     C35972   4.977   4.714   4.285  0.1336  0.6462 -0.0463
 1008MOL0     C35973   4.900   4.688   4.417 -0.3341  0.0500 -0.0056
 1008MOL0     C35974   4.965   4.634   4.170  0.2573  0.2907  0.4029
 1008MOL0     C35975   4.853   4.535   4.145  0.5686 -0.7613 -0.7616
 1008MOL0     O35976   4.874   4.435   4.056  0.0469 -0.3053  0.2936
 1008MOL0     C35977   4.768   4.370   3.998 -0.2078 -0.1008  0.1645
 1008MOL0     C35978   4.775   4.235   3.968 -0.0787 -0.2724  0.3521
 1008MOL0     C35979   4.670   4.170   3.918  1.2265 -0.2522  0.5930
 1008MOL0     C35980   4.550   4.239   3.891 -0.3402  0.1194 -0.4620
 1008MOL0     O35981   4.422   4.184   3.849 -0.0948  0.4555 -0.0347
 1008MOL0     C35982   4.437   4.085   3.747  0.7219  0.5471 -0.6176
 1008MOL0     C35983   4.302   4.079   3.666 -0.1643  0.3607 -0.5353
 1008MOL0     C35984   4.190   4.022   3.743 -0.0745 -0.2301  0.4621
 1008MOL0     C35985   4.066   4.032   3.650  0.3779 -1.6117  0.3360
 1008MOL0     C35986   3.938   3.965   3.695 -0.2878 -0.0910  0.0566
 1008MOL0     C35987   3.818   3.985   3.598  0.4877  0.0208 -0.1600
 1008MOL0     C35988   3.854   3.914   3.467 -0.1824  0.2316  0.1853
 1008MOL0     C35989   3.752   3.936   3.365 -0.7211 -0.6024 -0.1528
 1008MOL0    Cl35990   3.703   4.106   3.348 -0.0478  0.1341 -0.3304
 1008MOL0     C35991   4.536   4.372   3.924 -0.1417 -0.4679 -0.9514
 1008MOL0     C35992   4.646   4.437   3.971  0.0051  0.2994 -0.1004
 1008MOL0     O35993   4.747   4.548   4.209  0.0062 -0.0495  0.6229
 1008MOL0     C35994   5.070   4.637   4.068  1.1242  0.2988  0.6282
 1008MOL0     C35995   5.196   4.699   4.090  0.3806 -0.0707  0.0495
 1008MOL0     N35996   5.507   5.240   3.862 -0.0655  0.0878 -0.2779
 1008MOL0     N35997   5.552   5.353   3.880  0.3504  0.0008 -1.0660
 1008MOL0     C35998   6.879   5.688   4.134 -0.5050  0.5388  0.0883
 1008MOL0     C35999   6.993   5.632   4.194 -0.1379 -0.3347 -0.4759
 1008MOL0     C36000   7.201   5.354   4.490  0.7064  0.7804  0.2529
 1008MOL0     C36001   7.331   5.385   4.446 -0.6758  0.6575 -0.0382
 1008MOL0     C36002   7.434   5.341   4.532 -0.3552  0.4384  1.0016
 1008MOL0     C36003   7.413   5.285   4.659  0.0199 -0.4985  0.7459
 1008MOL0     O36004   7.525   5.257   4.724  0.2804  0.4861  0.4162
 1008MOL0     C36005   7.524   5.214   4.864  1.2912  0.3150 -0.1553
 1008MOL0     C36006   7.650   5.252   4.932 -0.9416 -0.5590  0.1415
 1008MOL0     C36007   7.665   5.226   5.089  0.4341  1.5321 -0.1311
 1008MOL0     C36008   7.628   5.336   5.186  1.0856  0.2150 -0.0275
 1008MOL0     C36009   7.494   5.397   5.166  0.5137  0.3860 -0.4597
 1008MOL0     C36010   7.377   5.431   5.170 -0.3377 -1.8424 -0.0695
 1008MOL0     C36011   7.284   5.262   4.701  0.2902 -0.1802 -0.0416
 1008MOL0     C36012   7.178   5.298   4.620  1.0368 -0.7994 -0.3652
 1008MOL0     H36013   6.909   5.315   4.199 -1.7257 -0.4312 -1.1332
 1008MOL0     H36014   6.712   5.397   4.072 -1.7257  2.5022 -1.4972
 1008MOL0     H36015   6.539   5.491   3.961 -1.7748 -2.6670  3.9195
 1008MOL0     H36016   6.508   5.548   4.122  1.6375  1.7609  1.6511
 1008MOL0     H36017   6.428   5.760   4.028 -3.6582  0.3536 -0.6205
 1008MOL0     H36018   6.461   5.708   3.865 -0.7176  1.0132  0.2115
 1008MOL0     H36019   6.310   5.509   3.902  1.9959  1.0230 -2.1179
 1008MOL0     H36020   6.235   5.606   4.037 -1.4674  0.9296 -1.1480
 1008MOL0     H36021   6.151   5.776   3.890  0.0225 -0.0068 -0.4076
 1008MOL0     H36022   6.244   5.734   3.760  1.1101 -1.1001  0.6940
 1008MOL0     H36023   6.028   5.670   3.720 -1.5001 -2.6341 -1.0512
 1008MOL0     H36024   6.098   5.513   3.728 -3.1402 -3.7481  2.8862
 1008MOL0     H36025   6.059   5.497   3.963 -0.1230  0.5605 -0.5253
 1008MOL0     H36026   5.950   5.629   3.967 -0.7448  0.9511  0.1548
 1008MOL0     H36027   5.826   5.491   3.767  1.5538  0.3890 -0.4980
 1008MOL0     H36028   5.913   5.362   3.836  1.7860  0.3782  0.2025
 1008MOL0     H36029   5.715   5.549   3.985 -0.5220 -0.5327  2.3019
 1008MOL0     H36030   5.817   5.443   4.074  0.7570  0.9462  0.2898
 1008MOL0     H36031   5.803   5.156   3.981  0.2009 -0.3907 -0.6795
 1008MOL0     H36032   5.506   4.962   3.819 -2.5382  2.0886  2.0342
 1008MOL0     H36033   5.681   4.974   3.823 -1.2453  0.9185 -2.4282
 1008MOL0     H36034   5.678   4.940   4.077 -1.6823  1.3144  1.9073
 1008MOL0     H36035   5.582   4.810   3.992 -0.8201 -0.6358  1.7667
 1008MOL0     H36036   5.381   4.959   4.041  0.4377 -0.0872 -0.7506
 1008MOL0     H36037   5.471   5.046   4.156  2.0249 -0.0098 -0.5159
 1008MOL0     H36038   5.515   4.846   4.277 -1.0305 -0.7785  0.7765
 1008MOL0     H36039   5.451   4.742   4.158  0.2202 -1.9683  3.6318
 1008MOL0     H36040   5.109   4.861   4.379  1.7528  0.3127 -0.0914
 1008MOL0     H36041   4.797   4.718   4.395 -0.1470 -0.8951 -2.4173
 1008MOL0     H36042   4.907   4.583   4.447  2.0181  0.3017  0.4813
 1008MOL0     H36043   4.947   4.742   4.500  1.6722 -1.5272 -0.0515
 1008MOL0     H36044   4.863   4.173   3.983 -2.0080 -3.1789  0.3014
 1008MOL0     H36045   4.675   4.066   3.886 -1.0898 -0.0379 -0.7377
 1008MOL0     H36046   4.529   4.106   3.691  1.6110 -1.6810 -0.0744
 1008MOL0     H36047   4.469   3.994   3.797  0.0247 -0.2205 -1.5151
 1008MOL0     H36048   4.271   4.181   3.641 -0.8109  0.1983 -0.4203
 1008MOL0     H36049   4.310   4.028   3.570  0.2654 -2.0152  0.6902
 1008MOL0     H36050   4.176   4.087   3.829 -4.2026 -0.8151  0.4478
 1008MOL0     H36051   4.198   3.915   3.767 -4.6187 -0.7019  0.8264
 1008MOL0     H36052   4.034   4.136   3.638  1.3140 -1.4884 -1.3338
 1008MOL0     H36053   4.093   4.002   3.549 -3.4784 -0.4922 -1.1718
 1008MOL0     H36054   3.921   4.011   3.792 -0.3069  2.2779 -0.9964
 1008MOL0     H36055   3.967   3.860   3.701 -0.1014  0.0366  2.2561
 1008MOL0     H36056   3.728   3.938   3.640  0.8177  1.3735  2.2252
 1008MOL0     H36057   3.805   4.093   3.584 -0.3671  0.0137  0.4852
 1008MOL0     H36058   3.861   3.806   3.487 -2.8073  0.0883  0.6717
 1008MOL0     H36059   3.944   3.954   3.420  0.5749 -1.3139  0.2458
 1008MOL0     H36060   3.662   3.877   3.383 -1.5312  1.2554  2.3919
 1008MOL0     H36061   3.791   3.910   3.266  6.3380  0.6580  1.7530
 1008MOL0     H36062   4.448   4.431   3.900  0.5195  1.4909  1.0905
 1008MOL0     H36063   4.637   4.544   3.981  0.2871  0.4055 -0.9018
 1008MOL0     H36064   5.063   4.572   3.982 -0.7963  1.6261 -0.2871
 1008MOL0     H36065   5.273   4.691   4.014 -0.2529 -1.1119 -0.4934
 1008MOL0     H36066   6.878   5.794   4.111 -0.0267  0.1382 -1.9903
 1008MOL0     H36067   7.064   5.707   4.228 -1.3838  0.2339  1.0364
 1008MOL0     H36068   7.342   5.426   4.346 -0.8078  0.8677  0.0348
 1008MOL0     H36069   7.537   5.362   4.506 -0.6609 -0.5885 -1.3076
 1008MOL0     H36070   7.439   5.252   4.922 -0.0259  1.0694 -2.4469
 1008MOL0     H36071   7.507   5.106   4.857  1.3592  0.2661  0.3835
 1008MOL0     H36072   7.663   5.358   4.905  3.6699 -1.3944 -1.7411
 1008MOL0     H36073   7.730   5.192   4.889  0.9842  2.5628 -1.0100
 1008MOL0     H36074   7.772   5.207   5.105  0.4455 -3.1893 -3.7155
 1008MOL0     H36075   7.613   5.133   5.115  0.7417  0.6983 -2.2955
 1008MOL0     H36076   7.709   5.407   5.168  1.0636  0.5038  0.9662
 1008MOL0     H36077   7.626   5.286   5.283 -0.8382 -0.1555 -0.2198
 1008MOL0     H36078   7.273   5.459   5.170  0.3355  1.0799 -1.3775
 1008MOL0     H36079   7.262   5.231   4.803 -1.5032 -0.5082 -0.4811
 1008MOL0     H36080   7.078   5.287   4.660 -0.1840  0.8514 -2.6825
 1009MOL0     O36081   1.606  10.328   7.178  0.5109 -0.1724  0.0796
 1009MOL0     C36082   1.634  10.279   7.278 -0.3936 -0.2914 -0.8060
 1009MOL0     O36083   1.546  10.222   7.365  0.1946 -0.1077  0.0893
 1009MOL0     C36084   1.421  10.205   7.318 -0.2272 -0.3634  0.1159
 1009MOL0     C36085   1.334  10.311   7.326  0.1062 -0.0969  0.2610
 1009MOL0     C36086   1.199  10.302   7.284  0.4312  0.8094 -0.2441
 1009MOL0     C36087   1.150  10.175   7.239  0.0837  0.2365 -0.4120
 1009MOL0     O36088   1.020  10.180   7.193 -0.7193 -0.3863  0.6603
 1009MOL0     C36089   0.938  10.060   7.194  0.3542  0.3265  0.0267
 1009MOL0     C36090   0.945   9.995   7.059 -0.4312  0.2353  0.3179
 1009MOL0     C36091   0.941  10.094   6.936 -0.3552  1.5743  0.6624
 1009MOL0     C36092   0.799  10.163   6.911  0.1565 -1.2716 -0.7038
 1009MOL0     C36093   0.683  10.066   6.895 -0.1843 -0.2271  0.5547
 1009MOL0     C36094   0.704   9.973   6.765  0.3422 -0.2846  0.6766
 1009MOL0     C36095   0.739  10.058   6.637  0.0720 -0.6702  0.2128
 1009MOL0     C36096   0.720   9.984   6.502 -0.6425  0.1167  0.1327
 1009MOL0     N36097   0.804   9.862   6.498 -0.5058  0.4738  0.3287
 1009MOL0     C36098   0.949   9.849   6.489  0.2764  0.5327 -0.2376
 1009MOL0     C36099   0.978   9.715   6.516  0.0577 -0.5188 -0.2378
 1009MOL0     C36100   1.110   9.649   6.535 -0.1336 -0.6493 -1.1019
 1009MOL0     C36101   1.226   9.742   6.604  0.3506 -0.2362  0.3630
 1009MOL0     C36102   1.182   9.822   6.723  0.3828 -0.7085  1.0177
 1009MOL0     C36103   1.286   9.838   6.831 -0.7578 -0.2324 -0.5592
 1009MOL0     O36104   1.306   9.719   6.914 -0.6473 -0.0054 -0.0724
 1009MOL0     C36105   1.417   9.706   7.006 -0.4175  0.4471  0.7735
 1009MOL0     C36106   1.512   9.803   7.028 -0.6590  0.0687  0.0714
 1009MOL0     C36107   1.619   9.799   7.127  0.0237  0.2099 -0.4113
 1009MOL0     C36108   1.711   9.924   7.126  0.3234 -0.0364 -0.1731
 1009MOL0     C36109   1.617   9.678   7.209  0.1210 -0.1518 -0.2971
 1009MOL0     C36110   1.712   9.643   7.315  0.7648  0.1360  0.9098
 1009MOL0     O36111   1.692   9.520   7.373  0.3000  0.4976 -0.4574
 1009MOL0     C36112   1.755   9.483   7.491  0.6210 -0.1222  0.5963
 1009MOL0     C36113   1.687   9.382   7.575 -0.4087 -0.1886  0.2896
 1009MOL0     C36114   1.737   9.345   7.701  0.5787  0.1659 -0.4173
 1009MOL0     C36115   1.862   9.398   7.741 -0.2981 -0.4602 -0.3471
 1009MOL0     O36116   1.928   9.355   7.855  0.1226 -0.1129  0.6018
 1009MOL0     C36117   1.854   9.382   7.975  0.2493  0.2274 -0.0646
 1009MOL0     C36118   1.951   9.410   8.090  0.3645 -0.3397  0.3997
 1009MOL0     C36119   2.069   9.509   8.061 -0.1587 -0.3174 -0.4086
 1009MOL0     C36120   2.190   9.444   7.999  0.1781 -0.4620  1.2502
 1009MOL0     C36121   2.327   9.505   8.024  0.7452  0.7739  0.5721
 1009MOL0     C36122   2.334   9.651   8.003  0.2381 -0.7941  0.4359
 1009MOL0     C36123   2.477   9.703   7.983 -0.8001  0.7429 -0.0015
 1009MOL0     C36124   2.584   9.679   8.092  0.2855  0.1799 -0.5236
 1009MOL0    Cl36125   2.546   9.787   8.226  0.0530  0.0351  0.1356
 1009MOL0     C36126   1.927   9.498   7.663 -0.2622 -0.2382  0.3820
 1009MOL0     C36127   1.873   9.548   7.543 -0.1772 -0.2199 -0.7053
 1009MOL0     O36128   1.797   9.728   7.349  0.6064 -0.2584  1.0114
 1009MOL0     C36129   1.507   9.586   7.191  0.7734 -0.1636  0.2807
 1009MOL0     C36130   1.409   9.601   7.092 -0.1061  0.4629 -0.6998
 1009MOL0     N36131   0.855   9.654   6.530 -0.1764  0.1931 -0.2761
 1009MOL0     N36132   0.757   9.740   6.517 -0.3179 -0.0169 -0.0748
 1009MOL0     C36133   1.236  10.065   7.230 -0.0998  0.4298 -0.8293
 1009MOL0     C36134   1.368  10.084   7.278  0.5906  0.1133 -0.4236
 1009MOL0     C36135   1.775  10.290   7.331 -0.1389  0.2884 -0.1559
 1009MOL0     C36136   1.861  10.388   7.275  0.0981  0.0238 -0.0763
 1009MOL0     C36137   1.994  10.409   7.309 -0.6138  0.1356 -0.0492
 1009MOL0     C36138   2.044  10.337   7.409  0.7091  0.6477  0.9293
 1009MOL0     O36139   2.174  10.342   7.448  0.1491 -0.2430  0.2424
 1009MOL0     C36140   2.231  10.472   7.488 -0.2277  0.7582  0.1458
 1009MOL0     C36141   2.284  10.462   7.626 -1.1197 -0.1420 -0.5095
 1009MOL0     C36142   2.165  10.426   7.722 -0.2155 -0.5498 -0.6163
 1009MOL0     C36143   2.210  10.448   7.872  0.2137  0.5097  0.5445
 1009MOL0     C36144   2.312  10.351   7.926 -0.1178  0.5628  0.0337
 1009MOL0     C36145   2.398  10.284   7.968 -0.7157  0.1196  0.8055
 1009MOL0     C36146   1.965  10.233   7.454  0.9123  0.5009 -0.3519
 1009MOL0     C36147   1.832  10.210   7.422  0.2285  0.5559 -0.8118
 1009MOL0     H36148   1.372  10.398   7.378 -4.0482  0.8699  2.0733
 1009MOL0     H36149   1.128  10.380   7.309 -1.4495 -0.2317 -1.9940
 1009MOL0     H36150   0.964   9.987   7.271 -0.4679  0.1414  0.1393
 1009MOL0     H36151   0.834  10.088   7.217  0.4854 -0.6607  2.0391
 1009MOL0     H36152   1.041   9.947   7.039 -1.7829 -1.4346 -2.9478
 1009MOL0     H36153   0.870   9.916   7.043  0.8244 -0.9622  0.0830
 1009MOL0     H36154   1.018  10.171   6.932 -1.3691  2.6120  0.3116
 1009MOL0     H36155   0.951  10.027   6.849 -2.8841  0.4634  1.1212
 1009MOL0     H36156   0.777  10.206   7.010 -0.8831 -1.2269 -0.9410
 1009MOL0     H36157   0.804  10.248   6.843  3.0982  0.3358  1.2871
 1009MOL0     H36158   0.679  10.008   6.987  2.8468  0.0771  0.9792
 1009MOL0     H36159   0.592  10.119   6.866  1.8082  3.0755 -0.2132
 1009MOL0     H36160   0.768   9.889   6.792 -1.3084 -1.7915  0.0458
 1009MOL0     H36161   0.614   9.918   6.734  0.3625  0.2699 -0.4034
 1009MOL0     H36162   0.673  10.145   6.633  1.3849  0.3502 -3.0523
 1009MOL0     H36163   0.841  10.091   6.658 -0.3671  0.4828  0.6641
 1009MOL0     H36164   0.759  10.034   6.412 -0.7009 -0.6677 -0.3427
 1009MOL0     H36165   0.614   9.958   6.494 -0.9169  1.4225 -0.8838
 1009MOL0     H36166   1.019   9.924   6.455 -1.6006  1.7830 -1.5650
 1009MOL0     H36167   1.111   9.554   6.588  0.5592  0.1101  0.3021
 1009MOL0     H36168   1.139   9.610   6.437  0.2598 -3.8156  0.1750
 1009MOL0     H36169   1.274   9.807   6.530 -0.4741  1.8347  1.5584
 1009MOL0     H36170   1.306   9.672   6.630  1.1609  0.6353  0.2997
 1009MOL0     H36171   1.096   9.771   6.767 -1.9317  1.1503 -1.0410
 1009MOL0     H36172   1.151   9.922   6.689 -1.8766 -0.3154  3.8706
 1009MOL0     H36173   1.266   9.927   6.892  2.8579 -1.2796  2.5228
 1009MOL0     H36174   1.378   9.872   6.782 -1.7144  2.0795 -0.9181
 1009MOL0     H36175   1.511   9.890   6.963  1.1092  2.3613  2.9008
 1009MOL0     H36176   1.805   9.913   7.182  0.5438  0.2135 -0.4910
 1009MOL0     H36177   1.735   9.956   7.024  1.2291  1.7114  0.5403
 1009MOL0     H36178   1.650  10.007   7.162 -0.5493 -0.3098 -0.9613
 1009MOL0     H36179   1.595   9.338   7.540  0.2616 -1.0109 -0.4848
 1009MOL0     H36180   1.685   9.272   7.762  1.3928 -0.5704 -0.5878
 1009MOL0     H36181   1.787   9.468   7.974 -0.2045 -0.1216  0.0114
 1009MOL0     H36182   1.787   9.297   7.995 -2.6899  1.5316 -3.2988
 1009MOL0     H36183   1.885   9.450   8.168  0.2881 -0.0241  0.1752
 1009MOL0     H36184   1.993   9.315   8.126 -0.4149 -1.1489 -0.7588
 1009MOL0     H36185   2.096   9.558   8.155  1.3700  1.6662 -1.7892
 1009MOL0     H36186   2.037   9.593   8.000 -3.5165 -1.9822 -1.1611
 1009MOL0     H36187   2.202   9.342   8.039  2.9640 -0.7109  0.0504
 1009MOL0     H36188   2.176   9.435   7.890 -1.2286 -0.4177  1.4054
 1009MOL0     H36189   2.403   9.459   7.961 -0.4155  0.3496 -0.5621
 1009MOL0     H36190   2.359   9.482   8.126  1.8302  2.6373  0.7000
 1009MOL0     H36191   2.271   9.677   7.917  0.1959  0.3736  0.8064
 1009MOL0     H36192   2.290   9.703   8.089  0.2793  1.7700 -0.9969
 1009MOL0     H36193   2.470   9.811   7.969 -2.6255  0.4503 -1.6272
 1009MOL0     H36194   2.507   9.676   7.881  0.0434  1.5707  0.0119
 1009MOL0     H36195   2.675   9.708   8.038 -0.2551  1.7888 -0.6194
 1009MOL0     H36196   2.586   9.574   8.124  0.4959  0.8414  1.8242
 1009MOL0     H36197   2.017   9.546   7.700 -1.6461  2.2560  0.7236
 1009MOL0     H36198   1.937   9.624   7.499  1.8611  0.5297  3.1128
 1009MOL0     H36199   1.480   9.493   7.242 -1.3429 -0.2510 -0.8787
 1009MOL0     H36200   1.335   9.523   7.082 -0.0268 -0.2056  2.8307
 1009MOL0     H36201   1.201   9.964   7.213 -4.5709  1.3721  1.3007
 1009MOL0     H36202   1.438  10.003   7.295  0.9188  0.9753  3.3324
 1009MOL0     H36203   1.825  10.450   7.194  2.0223  0.9920 -0.2433
 1009MOL0     H36204   2.051  10.482   7.253 -1.0671  0.2914 -0.3101
 1009MOL0     H36205   2.318  10.503   7.431 -1.1278  0.9818 -1.1566
 1009MOL0     H36206   2.153  10.549   7.483 -1.7284 -0.4355  2.9221
 1009MOL0     H36207   2.325  10.560   7.655 -2.1073  0.2046 -0.2485
 1009MOL0     H36208   2.359  10.383   7.627 -1.5753 -0.6875  3.0836
 1009MOL0     H36209   2.112  10.331   7.710 -2.2013  0.3606  0.4156
 1009MOL0     H36210   2.097  10.511   7.714  0.8382  0.7475  2.4514
 1009MOL0     H36211   2.118  10.453   7.930  0.7807 -0.6753  1.6042
 1009MOL0     H36212   2.252  10.549   7.879 -3.2841  2.1497 -0.0184
 1009MOL0     H36213   2.486  10.231   7.997 -2.1672 -1.3935  2.8304
 1009MOL0     H36214   2.001  10.173   7.537  0.2496  1.6624  0.8143
 1009MOL0     H36215   1.784  10.125   7.469  0.0063  1.4016  0.5580
 1010MOL0     O36216   4.349   4.178   0.525 -0.0907  0.7592 -0.2032
 1010MOL0     C36217   4.260   4.166   0.604  0.0818 -0.5125 -1.1037
 1010MOL0     O36218   4.284   4.123   0.728 -0.0578  0.1133 -0.5216
 1010MOL0     C36219   4.412   4.076   0.751  0.6273 -0.3861 -1.7153
 1010MOL0     C36220   4.481   4.127   0.864  0.2166 -0.2001  0.2657
 1010MOL0     C36221   4.605   4.083   0.906 -0.5909 -0.3185 -0.4223
 1010MOL0     C36222   4.664   3.973   0.849  0.4949  0.7284  0.4581
 1010MOL0     O36223   4.784   3.928   0.894 -0.4256  0.6594 -0.6511
 1010MOL0     C36224   4.861   3.842   0.803  0.0789  0.2162 -0.3219
 1010MOL0     C36225   5.002   3.861   0.849 -0.2496 -0.4800 -0.4558
 1010MOL0     C36226   5.096   3.758   0.803 -0.1437  0.5957 -0.3446
 1010MOL0     C36227   5.246   3.783   0.845  0.2157 -0.1511 -0.1547
 1010MOL0     C36228   5.293   3.722   0.977 -1.0251 -0.2990  0.2359
 1010MOL0     C36229   5.445   3.731   0.990 -0.4687  0.3325 -0.4736
 1010MOL0     C36230   5.475   3.685   1.129  1.2189  0.1286  0.7382
 1010MOL0     C36231   5.609   3.736   1.180  0.5530  0.1332  0.2153
 1010MOL0     N36232   5.643   3.668   1.308 -0.1083  0.2239  0.8674
 1010MOL0     C36233   5.570   3.632   1.418  0.7516  0.4394  0.2646
 1010MOL0     C36234   5.653   3.581   1.510  0.4706  0.4461  0.0463
 1010MOL0     C36235   5.586   3.528   1.631  0.2341 -0.6005  0.2509
 1010MOL0     C36236   5.575   3.371   1.621  0.0028 -0.0540  0.3298
 1010MOL0     C36237   5.489   3.316   1.510  0.3280 -0.6422  0.0116
 1010MOL0     C36238   5.496   3.167   1.524 -0.5688  0.9911  1.4133
 1010MOL0     O36239   5.411   3.114   1.412  0.0822  0.9083  0.0563
 1010MOL0     C36240   5.274   3.117   1.417  0.3462  1.1227  0.5900
 1010MOL0     C36241   5.211   3.079   1.299  0.2301  0.4672  1.4980
 1010MOL0     C36242   5.075   3.077   1.278  0.5142 -0.9306 -0.5652
 1010MOL0     C36243   5.030   3.035   1.144  0.9285 -0.1429  0.2680
 1010MOL0     C36244   4.991   3.118   1.387 -0.1939  0.1397  0.0806
 1010MOL0     C36245   4.842   3.105   1.382  0.1188 -0.1842 -0.6263
 1010MOL0     O36246   4.785   3.069   1.269  0.3641 -0.0066 -0.5063
 1010MOL0     C36247   4.676   3.124   1.220  0.3659 -0.7290 -0.4238
 1010MOL0     C36248   4.586   3.215   1.278  1.6488  0.9147  0.3807
 1010MOL0     C36249   4.483   3.274   1.209 -0.1130 -0.3714 -0.3704
 1010MOL0     C36250   4.469   3.252   1.073  0.6506 -0.3842 -0.8140
 1010MOL0     O36251   4.366   3.310   1.014 -0.0603 -0.2115 -0.1801
 1010MOL0     C36252   4.271   3.222   0.949 -0.6126 -0.4858  0.2488
 1010MOL0     C36253   4.165   3.300   0.862 -0.2577  0.6437  0.4118
 1010MOL0     C36254   4.052   3.210   0.797 -0.2375  0.1000 -0.5967
 1010MOL0     C36255   4.109   3.110   0.699  0.2352 -0.1368 -0.5746
 1010MOL0     C36256   3.986   3.031   0.644 -0.5453  0.1597  0.2057
 1010MOL0     C36257   3.922   3.104   0.530 -0.8812  0.4530  0.4502
 1010MOL0     C36258   3.834   3.018   0.446 -0.0130  0.5581 -0.0256
 1010MOL0     C36259   3.695   3.006   0.512  0.5086  0.0115 -0.1608
 1010MOL0    Cl36260   3.618   2.882   0.420  0.0200  0.8495  0.4443
 1010MOL0     C36261   4.545   3.166   1.006 -0.7987  0.4224 -0.0572
 1010MOL0     C36262   4.649   3.099   1.079  1.4746 -0.7069  0.1742
 1010MOL0     O36263   4.779   3.135   1.485 -0.1700  0.2327  0.8595
 1010MOL0     C36264   5.053   3.152   1.509 -0.0853 -0.4908  0.2127
 1010MOL0     C36265   5.198   3.162   1.520 -0.2815 -0.1420  0.3157
 1010MOL0     N36266   5.771   3.560   1.451 -0.3048  0.0752 -0.5074
 1010MOL0     N36267   5.768   3.616   1.332  0.0858  0.4569  0.2755
 1010MOL0     C36268   4.594   3.906   0.746 -0.3786  0.5998  0.1868
 1010MOL0     C36269   4.471   3.962   0.696  0.1264 -0.2768  1.2440
 1010MOL0     C36270   4.130   4.223   0.577 -0.7291 -0.0053  0.5440
 1010MOL0     C36271   4.092   4.283   0.457  0.7964 -1.0325  0.3039
 1010MOL0     C36272   3.972   4.362   0.443  0.5904  0.1268  0.5338
 1010MOL0     C36273   3.892   4.371   0.553  0.5758 -0.1786 -0.1265
 1010MOL0     O36274   3.775   4.445   0.553 -0.2014 -0.2520  0.0755
 1010MOL0     C36275   3.714   4.500   0.435  0.1440 -0.2440 -0.1463
 1010MOL0     C36276   3.568   4.552   0.466  0.9183  1.2523 -0.2168
 1010MOL0     C36277   3.460   4.572   0.355  0.2510 -0.5627  0.2550
 1010MOL0     C36278   3.425   4.428   0.295 -0.6115  0.3188 -0.1439
 1010MOL0     C36279   3.495   4.398   0.174  0.0938 -0.6989  0.4051
 1010MOL0     C36280   3.563   4.377   0.072  0.2299  0.7874  0.5629
 1010MOL0     C36281   3.936   4.311   0.672  0.3925 -0.3309 -1.3414
 1010MOL0     C36282   4.062   4.252   0.689  0.3113 -0.2882  0.6868
 1010MOL0     H36283   4.430   4.211   0.912 -2.8865 -1.5060 -0.4840
 1010MOL0     H36284   4.658   4.142   0.979  0.7399 -2.1907  0.1985
 1010MOL0     H36285   4.833   3.739   0.825 -1.5465  1.0391  1.7942
 1010MOL0     H36286   4.857   3.870   0.697  3.2260  1.0159 -0.3225
 1010MOL0     H36287   5.045   3.958   0.823 -0.5396  0.9774  3.8105
 1010MOL0     H36288   5.013   3.864   0.958 -1.6191  2.1958 -0.3153
 1010MOL0     H36289   5.073   3.659   0.841 -0.0363  0.3664 -0.8629
 1010MOL0     H36290   5.097   3.759   0.693  3.7898  1.2296 -0.4408
 1010MOL0     H36291   5.306   3.740   0.764  1.6080  2.2500 -0.5071
 1010MOL0     H36292   5.272   3.889   0.856  0.4644 -0.3657  1.5348
 1010MOL0     H36293   5.237   3.770   1.058  1.3007  1.5435  0.8797
 1010MOL0     H36294   5.272   3.615   0.971  2.1282 -0.9901 -0.4399
 1010MOL0     H36295   5.496   3.670   0.915  0.5832 -0.4285  0.7978
 1010MOL0     H36296   5.466   3.838   0.977 -0.8909  0.5609  0.5443
 1010MOL0     H36297   5.389   3.705   1.194 -0.5189 -1.1360 -1.0418
 1010MOL0     H36298   5.465   3.576   1.129 -1.4019  0.2646 -1.0625
 1010MOL0     H36299   5.602   3.844   1.199  1.8717  0.5467 -1.4437
 1010MOL0     H36300   5.683   3.717   1.102  1.1144  2.3183  0.1422
 1010MOL0     H36301   5.464   3.651   1.433  0.5247  1.1218 -1.9273
 1010MOL0     H36302   5.650   3.552   1.716  1.7407  5.2158 -2.0939
 1010MOL0     H36303   5.487   3.567   1.656  1.2572 -0.0025  3.9485
 1010MOL0     H36304   5.544   3.339   1.721  1.8888  1.9994  1.6575
 1010MOL0     H36305   5.675   3.332   1.598 -0.5516 -2.0034  1.0241
 1010MOL0     H36306   5.538   3.348   1.418  0.6854 -3.5766 -0.9156
 1010MOL0     H36307   5.390   3.362   1.521  0.5274 -0.5134  1.4698
 1010MOL0     H36308   5.468   3.122   1.619 -0.0440 -0.8319  0.7500
 1010MOL0     H36309   5.594   3.123   1.501 -0.8089 -0.4636  3.0021
 1010MOL0     H36310   5.285   3.047   1.227  1.5923  0.7421  2.7166
 1010MOL0     H36311   5.102   3.013   1.066  0.5801 -2.6506  0.5866
 1010MOL0     H36312   4.968   2.946   1.149 -0.0734  0.5897  2.1159
 1010MOL0     H36313   4.959   3.108   1.103  2.1028  1.0868  0.3289
 1010MOL0     H36314   4.588   3.215   1.386  0.9372 -1.8672  0.4591
 1010MOL0     H36315   4.427   3.354   1.258  0.2111 -0.4855  0.1885
 1010MOL0     H36316   4.320   3.169   0.867 -0.7533  0.2538 -0.3298
 1010MOL0     H36317   4.235   3.154   1.027 -0.1952 -1.7261 -0.6017
 1010MOL0     H36318   4.119   3.374   0.929 -1.0321 -0.8833  1.6320
 1010MOL0     H36319   4.212   3.364   0.787  1.8138 -0.9003  0.3271
 1010MOL0     H36320   3.989   3.282   0.744 -1.7425  0.7233  1.9027
 1010MOL0     H36321   4.003   3.164   0.883  0.7353  0.4506  0.1634
 1010MOL0     H36322   4.175   3.154   0.624  1.4744  0.6621  0.9238
 1010MOL0     H36323   4.164   3.039   0.762 -2.1770 -0.4469  1.3833
 1010MOL0     H36324   3.913   2.997   0.718 -2.3200  2.3144 -0.4523
 1010MOL0     H36325   4.028   2.939   0.602  1.8697  1.6837 -0.9243
 1010MOL0     H36326   3.880   3.200   0.563 -1.3949  1.0968 -1.8716
 1010MOL0     H36327   4.002   3.128   0.460 -1.2892  0.1429 -0.1382
 1010MOL0     H36328   3.870   2.915   0.447 -3.7148 -0.9625 -2.2581
 1010MOL0     H36329   3.833   3.061   0.345 -1.6237 -0.0412 -0.2898
 1010MOL0     H36330   3.646   3.103   0.500  2.0980  0.4707 -6.1546
 1010MOL0     H36331   3.706   2.970   0.615 -3.6656 -3.7920 -0.7502
 1010MOL0     H36332   4.530   3.138   0.902  1.7232 -2.5236  0.2238
 1010MOL0     H36333   4.709   3.022   1.031  0.2226 -1.7359  0.2195
 1010MOL0     H36334   4.994   3.159   1.600  1.8729 -1.6919  1.6759
 1010MOL0     H36335   5.243   3.202   1.611  2.5386 -1.0804 -0.5760
 1010MOL0     H36336   4.631   3.819   0.693  2.7693  1.9879 -0.0637
 1010MOL0     H36337   4.438   3.911   0.606  1.2928  0.6043  0.2843
 1010MOL0     H36338   4.151   4.260   0.369  1.6872  3.4637 -0.5105
 1010MOL0     H36339   3.945   4.398   0.345 -1.2299 -2.1410  0.1212
 1010MOL0     H36340   3.759   4.591   0.393 -1.8496  0.4810 -0.8274
 1010MOL0     H36341   3.717   4.421   0.359  0.7867  2.7179 -3.4788
 1010MOL0     H36342   3.581   4.648   0.517  1.0163  0.7843  0.6581
 1010MOL0     H36343   3.528   4.477   0.535 -0.2119  1.4532 -0.6246
 1010MOL0     H36344   3.483   4.641   0.274 -2.0945 -0.8442 -0.7422
 1010MOL0     H36345   3.367   4.606   0.402 -0.6069 -0.6196 -1.2966
 1010MOL0     H36346   3.320   4.421   0.267 -1.2263 -1.7110  2.3953
 1010MOL0     H36347   3.445   4.348   0.367 -0.7508 -0.6060 -1.1153
 1010MOL0     H36348   3.630   4.369  -0.011 -1.8814 -0.5308 -1.1388
 1010MOL0     H36349   3.881   4.319   0.765  1.3676  1.2517 -0.8758
 1010MOL0     H36350   4.093   4.230   0.791  2.4727  0.0313  0.1481
 1011MOL0     O36351   6.757   7.077  10.001 -0.5371 -0.0295  0.7665
 1011MOL0     C36352   6.707   7.069  10.109 -0.0074 -0.5250 -0.4096
 1011MOL0     O36353   6.751   7.124  10.226 -0.6121  0.5702 -0.3777
 1011MOL0     C36354   6.849   7.221  10.217 -0.1947 -0.3403  0.1845
 1011MOL0     C36355   6.831   7.355  10.261  0.9585  0.4181 -0.8564
 1011MOL0     C36356   6.930   7.442  10.246 -0.6193  0.7168 -0.6779
 1011MOL0     C36357   7.062   7.411  10.190  0.8817  0.2243  0.0456
 1011MOL0     O36358   7.157   7.514  10.188 -0.7898  0.9396  0.4881
 1011MOL0     C36359   7.292   7.490  10.158  0.0318  0.8095 -0.1423
 1011MOL0     C36360   7.385   7.617  10.180 -0.1081 -0.1006  0.3399
 1011MOL0     C36361   7.348   7.731  10.087  0.0450 -0.8172  0.5104
 1011MOL0     C36362   7.457   7.845  10.111 -0.0891 -0.1552 -0.3527
 1011MOL0     C36363   7.424   7.987  10.066 -0.8360 -0.3537  0.0363
 1011MOL0     C36364   7.394   8.001   9.920  0.1663  0.1440  0.5776
 1011MOL0     C36365   7.360   8.144   9.880 -0.2655  0.0800 -0.3209
 1011MOL0     C36366   7.471   8.246   9.878 -0.1647  0.2373 -0.4843
 1011MOL0     N36367   7.552   8.245   9.757 -0.1166  0.7171  0.5427
 1011MOL0     C36368   7.674   8.311   9.737  0.0652  0.0618  0.4246
 1011MOL0     C36369   7.682   8.327   9.602 -0.0125  0.6403 -0.1117
 1011MOL0     C36370   7.789   8.382   9.515 -0.9190 -0.4540 -0.0583
 1011MOL0     C36371   7.871   8.280   9.431 -0.1414 -0.2461  0.1269
 1011MOL0     C36372   7.942   8.175   9.505 -0.2693 -0.0250  0.1256
 1011MOL0     C36373   8.021   8.080   9.418  0.3647 -0.0534  0.2229
 1011MOL0     O36374   8.086   7.987   9.515  0.0336  0.7388 -0.5073
 1011MOL0     C36375   8.167   7.888   9.461 -0.5819  0.2058 -0.0380
 1011MOL0     C36376   8.209   7.780   9.542  0.4738  0.2869 -0.2553
 1011MOL0     C36377   8.292   7.677   9.502  0.5554  0.8732 -0.4571
 1011MOL0     C36378   8.307   7.549   9.581  0.6808 -0.5605 -1.1938
 1011MOL0     C36379   8.356   7.698   9.372  0.4407 -0.2382 -1.0636
 1011MOL0     C36380   8.468   7.607   9.324  0.9599 -0.8131  0.1676
 1011MOL0     O36381   8.531   7.535   9.420 -0.4719 -0.1706  0.3513
 1011MOL0     C36382   8.640   7.461   9.399  0.7982 -0.5993  0.8196
 1011MOL0     C36383   8.736   7.503   9.304 -0.2677 -0.8861  0.3707
 1011MOL0     C36384   8.863   7.448   9.306 -0.5607 -0.0390 -0.6495
 1011MOL0     C36385   8.905   7.350   9.389  0.5147  1.4670 -1.1972
 1011MOL0     O36386   9.028   7.302   9.391 -0.8336 -0.5848  0.4298
 1011MOL0     C36387   9.057   7.216   9.276  0.4035 -0.1148  0.4923
 1011MOL0     C36388   9.204   7.177   9.287  0.0757  0.2597 -0.3087
 1011MOL0     C36389   9.228   7.051   9.213 -0.3560  1.4859  0.3655
 1011MOL0     C36390   9.380   7.033   9.181 -0.4408  0.2800  0.6573
 1011MOL0     C36391   9.412   6.886   9.122  0.5104 -0.6830 -0.1685
 1011MOL0     C36392   9.556   6.854   9.094 -0.6557  0.3222  0.2570
 1011MOL0     C36393   9.571   6.723   9.017  0.5631  0.0704  0.5578
 1011MOL0     C36394   9.498   6.600   9.076  0.7920  0.9259  0.2346
 1011MOL0    Cl36395   9.566   6.440   9.026 -0.0392  0.1430 -0.0638
 1011MOL0     C36396   8.809   7.300   9.475 -0.5284  0.1668 -0.0370
 1011MOL0     C36397   8.679   7.357   9.478 -0.1514 -0.2961 -0.3120
 1011MOL0     O36398   8.487   7.609   9.201 -0.2222 -0.5225 -0.0165
 1011MOL0     C36399   8.309   7.801   9.292  0.2091 -0.8503 -0.0143
 1011MOL0     C36400   8.225   7.896   9.338 -0.2200  0.5454  0.2849
 1011MOL0     N36401   7.576   8.287   9.540  0.0586  0.2192  0.5025
 1011MOL0     N36402   7.491   8.244   9.634 -0.4926  0.1230 -0.3489
 1011MOL0     C36403   7.084   7.278  10.157 -0.1540 -0.3233 -0.4853
 1011MOL0     C36404   6.980   7.186  10.169  0.0226  0.3472  0.0541
 1011MOL0     C36405   6.588   6.988  10.118  0.0176 -0.2900  0.5492
 1011MOL0     C36406   6.532   6.928  10.004  0.0308 -0.1900  0.0945
 1011MOL0     C36407   6.411   6.850  10.017  0.3494  0.1264 -0.7209
 1011MOL0     C36408   6.342   6.833  10.137  1.1086 -0.4627  0.2416
 1011MOL0     O36409   6.231   6.753  10.139  0.6124  0.1597 -0.4986
 1011MOL0     C36410   6.139   6.770  10.237 -0.1057  0.7453 -0.2630
 1011MOL0     C36411   6.016   6.674  10.224 -0.3320 -0.7081  0.8791
 1011MOL0     C36412   5.911   6.680  10.348 -0.2013 -0.6068 -0.7789
 1011MOL0     C36413   5.807   6.573  10.346 -0.4354 -0.6170  0.8471
 1011MOL0     C36414   5.863   6.441  10.345  0.0374 -0.6261  0.1127
 1011MOL0     C36415   5.913   6.333  10.362  0.0864 -0.2117  0.5299
 1011MOL0     C36416   6.404   6.897  10.248  0.3989 -0.4830  0.3109
 1011MOL0     C36417   6.524   6.966  10.244 -0.4529  0.6386  0.3691
 1011MOL0     H36418   6.738   7.397  10.299  0.6413 -2.0936  1.3949
 1011MOL0     H36419   6.912   7.543  10.280  0.1102 -0.0245  2.1104
 1011MOL0     H36420   7.333   7.422  10.233  5.7188  4.2659  0.5037
 1011MOL0     H36421   7.300   7.445  10.059 -0.2688 -2.8083  1.3344
 1011MOL0     H36422   7.378   7.653  10.283 -1.4468 -1.3079  0.7004
 1011MOL0     H36423   7.487   7.588  10.154 -0.3731 -1.0081  0.2900
 1011MOL0     H36424   7.347   7.701   9.982 -2.4489  1.5663 -0.2718
 1011MOL0     H36425   7.247   7.768  10.109 -0.2186 -0.6374 -0.9138
 1011MOL0     H36426   7.484   7.839  10.217  1.2295 -0.0126 -0.6666
 1011MOL0     H36427   7.547   7.816  10.056 -1.5917 -1.0838 -2.4202
 1011MOL0     H36428   7.350   8.038  10.128  0.5212  2.4195 -0.4410
 1011MOL0     H36429   7.510   8.054  10.077  0.2219 -1.2511 -2.0649
 1011MOL0     H36430   7.486   7.972   9.868 -0.0714 -3.4676  1.9028
 1011MOL0     H36431   7.315   7.938   9.877 -0.4604  2.5561 -2.1477
 1011MOL0     H36432   7.309   8.131   9.784 -0.3981  0.4935 -0.3056
 1011MOL0     H36433   7.287   8.169   9.957 -1.0082  1.7855 -1.5238
 1011MOL0     H36434   7.538   8.238   9.964 -0.0469  1.4663 -0.4444
 1011MOL0     H36435   7.426   8.345   9.878  0.5690  0.6112  1.8684
 1011MOL0     H36436   7.746   8.337   9.813 -0.1362  1.0005  0.3072
 1011MOL0     H36437   7.751   8.466   9.455  1.7998  2.3929  1.8978
 1011MOL0     H36438   7.860   8.432   9.581  0.2295 -1.7591 -0.2461
 1011MOL0     H36439   7.945   8.340   9.378 -0.5588 -1.2527 -1.6536
 1011MOL0     H36440   7.804   8.230   9.361  1.3589 -1.7506 -0.2804
 1011MOL0     H36441   7.867   8.121   9.563  1.4169  0.1306  2.5944
 1011MOL0     H36442   8.008   8.225   9.576  1.0187 -0.0520 -1.0120
 1011MOL0     H36443   8.093   8.140   9.362 -0.2797  0.4887 -0.0402
 1011MOL0     H36444   7.953   8.024   9.353  0.0420  0.6503 -0.0558
 1011MOL0     H36445   8.154   7.767   9.635  2.7955  0.5240  1.2052
 1011MOL0     H36446   8.409   7.530   9.617  1.0375  4.4901  1.4593
 1011MOL0     H36447   8.245   7.550   9.672  0.3275  1.3107 -1.4194
 1011MOL0     H36448   8.284   7.458   9.526  2.1020 -1.8065  0.1814
 1011MOL0     H36449   8.725   7.585   9.234 -2.6444 -1.1162  0.3622
 1011MOL0     H36450   8.954   7.493   9.267 -1.4780  3.5132  0.9013
 1011MOL0     H36451   8.995   7.127   9.291 -0.0796 -0.0226 -0.8207
 1011MOL0     H36452   9.028   7.265   9.182  1.0193  0.4571  0.5949
 1011MOL0     H36453   9.268   7.260   9.257  0.0041  0.9300  1.2380
 1011MOL0     H36454   9.225   7.143   9.389 -1.3867 -1.8584 -0.6628
 1011MOL0     H36455   9.166   7.051   9.124  2.0016 -3.4095 -1.6678
 1011MOL0     H36456   9.194   6.968   9.276  1.9532  1.2745  1.4461
 1011MOL0     H36457   9.423   7.118   9.126  2.0728 -0.9139  0.6568
 1011MOL0     H36458   9.432   7.048   9.276  0.8406  2.8586 -0.3308
 1011MOL0     H36459   9.352   6.864   9.033  0.3433 -1.9183  0.2322
 1011MOL0     H36460   9.378   6.819   9.201 -2.6679  1.6889  0.7022
 1011MOL0     H36461   9.597   6.936   9.034  1.7912 -0.4476  0.7647
 1011MOL0     H36462   9.615   6.845   9.186  0.8083 -0.9339 -0.7650
 1011MOL0     H36463   9.676   6.694   9.005  0.0842 -0.9142 -2.0265
 1011MOL0     H36464   9.536   6.749   8.916 -0.8680  0.1947  1.0594
 1011MOL0     H36465   9.391   6.608   9.056  0.2079 -2.3926  1.2606
 1011MOL0     H36466   9.498   6.610   9.185  1.1914  0.5967  0.2671
 1011MOL0     H36467   8.834   7.229   9.554  4.3538 -1.3772 -2.5174
 1011MOL0     H36468   8.624   7.319   9.564  0.8083  1.7575  1.3229
 1011MOL0     H36469   8.346   7.807   9.190  1.5362 -0.6383  0.4571
 1011MOL0     H36470   8.193   7.963   9.259  0.8058 -1.6845 -2.1951
 1011MOL0     H36471   7.182   7.234  10.141 -0.1520 -0.4224 -0.2060
 1011MOL0     H36472   6.998   7.083  10.142  2.3686 -0.1822  3.1001
 1011MOL0     H36473   6.583   6.935   9.908  1.7417 -0.4130  0.9509
 1011MOL0     H36474   6.367   6.798   9.933  1.1158 -2.6560  0.4955
 1011MOL0     H36475   6.177   6.757  10.339 -2.2512 -2.2039  0.3011
 1011MOL0     H36476   6.105   6.874  10.233  2.5179  1.8146  1.8465
 1011MOL0     H36477   6.050   6.570  10.223 -0.7739 -0.8527 -0.2582
 1011MOL0     H36478   5.966   6.701  10.131 -0.4270  0.4148  1.2453
 1011MOL0     H36479   5.865   6.779  10.354  2.9457  0.9585 -0.2961
 1011MOL0     H36480   5.969   6.683  10.441 -0.0505 -0.7089 -0.8695
 1011MOL0     H36481   5.747   6.585  10.255  0.2065  0.1723  0.5173
 1011MOL0     H36482   5.736   6.588  10.427 -1.1446  0.6098  0.0317
 1011MOL0     H36483   5.967   6.241  10.373  2.4762  1.0780  0.3784
 1011MOL0     H36484   6.363   6.885  10.348  0.4652  3.9261  1.0673
 1011MOL0     H36485   6.562   7.007  10.337 -0.7916 -0.4607  0.9981
 1012MOL0     O36486   2.126   1.260   0.622  0.4515 -0.1928 -0.2296
 1012MOL0     C36487   2.111   1.355   0.707 -0.7250 -0.2480 -0.3125
 1012MOL0     O36488   1.985   1.401   0.750 -0.1109 -0.0298  0.6751
 1012MOL0     C36489   1.884   1.361   0.665  0.1647 -0.0652 -0.3207
 1012MOL0     C36490   1.797   1.264   0.706 -0.6196  0.2834 -0.0155
 1012MOL0     C36491   1.697   1.218   0.623 -0.4196 -0.0860  0.1347
 1012MOL0     C36492   1.675   1.270   0.498  0.7341  0.4983 -0.4567
 1012MOL0     O36493   1.579   1.231   0.410  0.3121  0.5701 -0.2578
 1012MOL0     C36494   1.575   1.091   0.365 -0.8891 -0.2372 -0.2162
 1012MOL0     C36495   1.477   1.071   0.253  0.4234 -0.3682  0.4030
 1012MOL0     C36496   1.473   0.932   0.201 -0.0745  1.3299 -0.5256
 1012MOL0     C36497   1.340   0.911   0.127  0.0293  0.3338 -0.6071
 1012MOL0     C36498   1.354   0.800   0.018 -0.2790  0.1717  0.0780
 1012MOL0     C36499   1.208   0.739   0.014  0.0072  0.6342 -0.2227
 1012MOL0     C36500   1.172   0.678  -0.120  0.7118  0.0179 -0.0162
 1012MOL0     C36501   1.040   0.729  -0.171 -0.0708  0.1615 -0.2478
 1012MOL0     N36502   0.928   0.659  -0.113 -0.3809  0.1299  0.1304
 1012MOL0     C36503   0.896   0.529  -0.146  0.6814  0.1532  0.1023
 1012MOL0     C36504   0.771   0.508  -0.099  0.4163 -0.4862 -0.5555
 1012MOL0     C36505   0.693   0.385  -0.104  0.1970  0.9003  0.4221
 1012MOL0     C36506   0.692   0.322  -0.256  0.4210 -0.9810 -1.1081
 1012MOL0     C36507   0.561   0.255  -0.275  0.3587 -0.8935 -0.2534
 1012MOL0     C36508   0.555   0.202  -0.417  0.4651 -0.6635  0.3862
 1012MOL0     O36509   0.427   0.138  -0.426  0.6111  0.1317  0.3151
 1012MOL0     C36510   0.322   0.206  -0.490  0.4323  0.3162  0.2331
 1012MOL0     C36511   0.310   0.343  -0.493 -0.4319 -0.2251 -0.0425
 1012MOL0     C36512   0.195   0.409  -0.530  0.1843  0.6356 -0.5433
 1012MOL0     C36513   0.197   0.554  -0.507  0.8652  0.3078 -0.6749
 1012MOL0     C36514   0.089   0.330  -0.561  1.1886 -0.3685 -0.0332
 1012MOL0     C36515  -0.057   0.374  -0.582 -0.8390 -0.5746  0.5196
 1012MOL0     O36516  -0.151   0.290  -0.528  0.2933  0.2471 -0.4528
 1012MOL0     C36517  -0.284   0.332  -0.534 -0.7952  0.4644 -0.4838
 1012MOL0     C36518  -0.359   0.320  -0.414  0.1302 -0.4942  0.6185
 1012MOL0     C36519  -0.498   0.339  -0.423  0.0739  0.3845  0.6639
 1012MOL0     C36520  -0.567   0.370  -0.539 -0.2863 -0.9087  0.3216
 1012MOL0     O36521  -0.702   0.375  -0.515  0.4194 -0.2290 -0.7176
 1012MOL0     C36522  -0.790   0.421  -0.624 -0.3596 -0.1920 -0.0370
 1012MOL0     C36523  -0.931   0.447  -0.576  0.2475  0.1611 -0.3991
 1012MOL0     C36524  -1.016   0.312  -0.561 -0.5339 -0.6404 -0.0075
 1012MOL0     C36525  -1.152   0.342  -0.489 -0.2708  0.1500 -0.7348
 1012MOL0     C36526  -1.233   0.228  -0.467  0.3478 -0.6949  0.3043
 1012MOL0     C36527  -1.355   0.253  -0.372 -1.3805  0.1781  1.3496
 1012MOL0     C36528  -1.412   0.124  -0.318  0.4916  0.6317  0.7918
 1012MOL0     C36529  -1.463   0.027  -0.439 -0.0023  0.0458 -0.6781
 1012MOL0    Cl36530  -1.615   0.098  -0.525  0.0450  0.3492  0.1229
 1012MOL0     C36531  -0.486   0.398  -0.655  0.1810 -0.4775 -0.5033
 1012MOL0     C36532  -0.348   0.367  -0.659 -0.5406 -0.5349  0.0545
 1012MOL0     O36533  -0.073   0.489  -0.631 -0.1105  0.1305  0.2099
 1012MOL0     C36534   0.098   0.184  -0.559  0.9708  0.4194  0.2573
 1012MOL0     C36535   0.215   0.128  -0.524  1.0204  0.2723 -0.6231
 1012MOL0     N36536   0.731   0.621  -0.033 -0.1288 -0.2887 -0.2920
 1012MOL0     N36537   0.831   0.707  -0.036  0.0801  0.5598 -0.4901
 1012MOL0     C36538   1.759   1.372   0.452 -0.5758  0.2746 -0.5403
 1012MOL0     C36539   1.868   1.414   0.537  0.4493 -0.4985  0.5997
 1012MOL0     C36540   2.242   1.402   0.774  0.3776 -0.2976  0.6707
 1012MOL0     C36541   2.246   1.483   0.889  0.1446 -0.2588  0.9418
 1012MOL0     C36542   2.357   1.545   0.930 -0.4695 -0.3237  0.0627
 1012MOL0     C36543   2.475   1.539   0.858 -0.8803  0.8118  1.0776
 1012MOL0     O36544   2.599   1.581   0.919  0.5330  0.3821 -0.7095
 1012MOL0     C36545   2.716   1.614   0.839  0.0100  0.2152 -0.0806
 1012MOL0     C36546   2.818   1.681   0.934  0.0730  0.6965 -0.6435
 1012MOL0     C36547   2.959   1.655   0.877  0.1282 -0.0709 -1.0792
 1012MOL0     C36548   3.079   1.722   0.959  0.0802 -0.2263 -0.1193
 1012MOL0     C36549   3.213   1.698   0.903 -0.1014 -0.2313 -0.3112
 1012MOL0     C36550   3.326   1.683   0.852 -0.0090 -0.5935 -0.6981
 1012MOL0     C36551   2.479   1.453   0.744 -0.7940 -0.1233 -0.3218
 1012MOL0     C36552   2.363   1.390   0.705  0.2996 -0.4500 -0.0359
 1012MOL0     H36553   1.801   1.214   0.802 -1.5198  0.4309  0.1136
 1012MOL0     H36554   1.649   1.128   0.662 -0.1256 -0.8137 -1.1435
 1012MOL0     H36555   1.676   1.065   0.334 -1.3557  0.2919 -2.2690
 1012MOL0     H36556   1.553   1.025   0.450  1.7112  3.5801  3.9037
 1012MOL0     H36557   1.380   1.100   0.295  1.4095  2.8752  0.7231
 1012MOL0     H36558   1.489   1.141   0.170 -0.6482 -0.3142  0.2830
 1012MOL0     H36559   1.552   0.916   0.127 -0.3428 -3.9479 -0.0475
 1012MOL0     H36560   1.474   0.860   0.282  0.6230 -0.3217 -1.9420
 1012MOL0     H36561   1.266   0.882   0.202 -0.2611  1.4484 -0.4422
 1012MOL0     H36562   1.287   0.994   0.078 -4.3782 -2.7684 -1.7636
 1012MOL0     H36563   1.395   0.833  -0.077  3.8486 -1.4430  1.0996
 1012MOL0     H36564   1.426   0.725   0.054  0.9402  1.0699 -0.4386
 1012MOL0     H36565   1.208   0.660   0.089 -0.1352 -1.6495 -2.4618
 1012MOL0     H36566   1.129   0.810   0.039  0.7702  1.3434  0.2287
 1012MOL0     H36567   1.246   0.714  -0.193  0.6563  0.7787  0.2985
 1012MOL0     H36568   1.177   0.569  -0.111  1.9466  0.0101 -0.5697
 1012MOL0     H36569   1.049   0.722  -0.280 -0.4486  0.0655 -0.2723
 1012MOL0     H36570   1.022   0.835  -0.149 -4.2997 -0.2517 -1.0024
 1012MOL0     H36571   0.951   0.460  -0.209  1.5425  0.7852  0.1361
 1012MOL0     H36572   0.727   0.308  -0.034 -0.3010  1.7716  1.6560
 1012MOL0     H36573   0.589   0.404  -0.076  0.5299  2.2461  0.8050
 1012MOL0     H36574   0.765   0.242  -0.254  1.5353  0.0045  1.5749
 1012MOL0     H36575   0.708   0.394  -0.337  3.0715  0.4083  0.5288
 1012MOL0     H36576   0.475   0.319  -0.255  2.9276  3.1259 -1.0378
 1012MOL0     H36577   0.561   0.163  -0.215  0.5920 -0.5247  0.3176
 1012MOL0     H36578   0.639   0.132  -0.413 -0.7133 -2.2132 -0.7637
 1012MOL0     H36579   0.577   0.275  -0.496  4.1115 -1.3648  0.5890
 1012MOL0     H36580   0.395   0.393  -0.447 -0.3290 -1.1376  0.7974
 1012MOL0     H36581   0.191   0.593  -0.609  2.1590 -1.7794 -1.6127
 1012MOL0     H36582   0.108   0.591  -0.456  2.0822  0.8953  1.1249
 1012MOL0     H36583   0.292   0.584  -0.461  1.1371  0.8579 -1.5633
 1012MOL0     H36584  -0.309   0.283  -0.325  1.1588  3.8044  2.0746
 1012MOL0     H36585  -0.559   0.335  -0.333  0.1537 -1.7590  0.6670
 1012MOL0     H36586  -0.749   0.512  -0.668 -2.9829  0.6876 -0.8656
 1012MOL0     H36587  -0.801   0.342  -0.698  1.6676 -1.8953  1.3696
 1012MOL0     H36588  -0.925   0.492  -0.477 -3.0851  2.9065 -1.2221
 1012MOL0     H36589  -0.988   0.516  -0.640 -1.8980  0.7381  1.9490
 1012MOL0     H36590  -0.957   0.241  -0.501  1.0636  0.3718 -0.3215
 1012MOL0     H36591  -1.031   0.267  -0.660  0.3172 -0.1594 -0.3671
 1012MOL0     H36592  -1.134   0.392  -0.393  0.8028 -0.5259 -0.5701
 1012MOL0     H36593  -1.208   0.411  -0.553 -0.0147 -2.0913 -3.5815
 1012MOL0     H36594  -1.174   0.147  -0.422  0.2469  0.7000  3.1382
 1012MOL0     H36595  -1.267   0.202  -0.567 -1.1562 -1.0888  0.8978
 1012MOL0     H36596  -1.336   0.321  -0.288  2.3520  0.2334  0.6414
 1012MOL0     H36597  -1.430   0.298  -0.438 -0.9068 -0.0070  0.6717
 1012MOL0     H36598  -1.492   0.146  -0.247 -0.2562 -0.8375  0.4467
 1012MOL0     H36599  -1.331   0.073  -0.265 -1.2563 -3.0471  0.2651
 1012MOL0     H36600  -1.499  -0.069  -0.400 -3.1876  1.0358 -0.8768
 1012MOL0     H36601  -1.381   0.011  -0.510  1.1617 -1.9673  0.9886
 1012MOL0     H36602  -0.533   0.436  -0.745  2.2196 -0.9538 -1.8336
 1012MOL0     H36603  -0.291   0.376  -0.750  0.8464 -0.4953  0.8995
 1012MOL0     H36604   0.013   0.123  -0.590  1.3547  0.4554 -0.9144
 1012MOL0     H36605   0.222   0.020  -0.516 -2.2993 -0.2885 -3.1449
 1012MOL0     H36606   1.748   1.419   0.355  1.1396  0.7862 -0.5160
 1012MOL0     H36607   1.932   1.495   0.503 -2.2486  0.8911 -1.5719
 1012MOL0     H36608   2.148   1.493   0.935  0.8129  1.0952  2.1720
 1012MOL0     H36609   2.351   1.609   1.018 -0.9515 -0.3900  0.0766
 1012MOL0     H36610   2.766   1.531   0.789 -1.5666 -1.7832  1.4873
 1012MOL0     H36611   2.679   1.681   0.762 -1.2590  0.8724  1.0655
 1012MOL0     H36612   2.797   1.627   1.027 -3.3234 -1.2863 -2.4007
 1012MOL0     H36613   2.791   1.787   0.934 -0.9162  0.4537 -0.5556
 1012MOL0     H36614   2.959   1.694   0.775 -1.3207  2.2638 -0.2574
 1012MOL0     H36615   2.964   1.545   0.876  0.5816 -0.0620 -0.4275
 1012MOL0     H36616   3.084   1.667   1.054 -0.1957  1.9415  1.2196
 1012MOL0     H36617   3.055   1.825   0.989  3.3340  0.4745  0.4797
 1012MOL0     H36618   3.425   1.695   0.812 -0.7667  2.3187 -1.9255
 1012MOL0     H36619   2.565   1.424   0.684  0.4066 -1.9048  2.0663
 1012MOL0     H36620   2.375   1.333   0.614  0.9369 -0.4991  0.0750
 1013MOL0     O36621   0.554   1.496   2.257  0.1343 -0.1688  0.5590
 1013MOL0     C36622   0.574   1.443   2.147  0.4178  0.7695  0.1935
 1013MOL0     O36623   0.478   1.426   2.050 -0.0479 -0.4326  0.4722
 1013MOL0     C36624   0.353   1.486   2.067 -0.0346  0.6245 -0.5423
 1013MOL0     C36625   0.238   1.408   2.076 -0.2845  0.5333  0.2447
 1013MOL0     C36626   0.108   1.475   2.081 -0.3337  0.1186 -0.0863
 1013MOL0     C36627   0.095   1.611   2.081  0.2893 -0.4417 -0.2543
 1013MOL0     O36628  -0.021   1.682   2.106 -0.1900  0.8754  0.4023
 1013MOL0     C36629  -0.141   1.599   2.086  0.3401 -0.4393 -0.0410
 1013MOL0     C36630  -0.271   1.684   2.077  0.0266 -0.0465  0.2839
 1013MOL0     C36631  -0.380   1.609   2.000 -0.5791 -0.3372 -0.7651
 1013MOL0     C36632  -0.518   1.683   2.007  0.4172 -0.2270  0.2711
 1013MOL0     C36633  -0.612   1.567   1.960  0.0656  0.2649 -0.6380
 1013MOL0     C36634  -0.757   1.616   1.934  0.2286 -0.1002 -0.3769
 1013MOL0     C36635  -0.808   1.710   2.048  0.4736  0.4659  0.5747
 1013MOL0     C36636  -0.822   1.859   2.008  0.2222  0.2153 -0.3183
 1013MOL0     N36637  -0.893   1.944   2.102  0.2938  0.0780  0.1788
 1013MOL0     C36638  -0.915   2.082   2.079 -0.3554 -0.5447  0.9308
 1013MOL0     C36639  -0.981   2.123   2.190  0.0571  0.1238 -0.9916
 1013MOL0     C36640  -1.055   2.259   2.196 -0.7015  0.4402 -0.0217
 1013MOL0     C36641  -1.052   2.318   2.341 -0.1414 -0.3987 -0.2010
 1013MOL0     C36642  -1.076   2.474   2.335  0.3051  0.0132  0.8771
 1013MOL0     C36643  -0.962   2.546   2.264 -0.1936  0.0544 -0.1361
 1013MOL0     O36644  -0.982   2.690   2.296 -0.2775  0.5236 -0.0702
 1013MOL0     C36645  -0.887   2.777   2.286 -0.0501  0.1979  0.0850
 1013MOL0     C36646  -0.918   2.897   2.339 -0.3590  0.0880  0.0263
 1013MOL0     C36647  -0.828   3.003   2.339  0.1741 -0.1055 -0.5885
 1013MOL0     C36648  -0.876   3.132   2.404 -0.2310  0.6290  0.8116
 1013MOL0     C36649  -0.694   2.990   2.283 -0.3239  0.0794  0.0421
 1013MOL0     C36650  -0.592   3.082   2.278 -0.0716  0.3480 -0.3386
 1013MOL0     O36651  -0.493   3.063   2.190  0.2402  0.3672  0.1035
 1013MOL0     C36652  -0.384   3.138   2.193 -0.2594 -0.7394  0.0491
 1013MOL0     C36653  -0.388   3.276   2.149  0.3051 -1.0597 -0.2132
 1013MOL0     C36654  -0.276   3.354   2.144 -0.5954  0.4532 -0.6485
 1013MOL0     C36655  -0.152   3.299   2.194  0.3520 -0.1513  0.4484
 1013MOL0     O36656  -0.049   3.376   2.215 -0.4641 -0.2359 -0.3778
 1013MOL0     C36657  -0.048   3.441   2.344  0.1690  0.4926  1.1437
 1013MOL0     C36658   0.043   3.564   2.360  0.0658 -0.3451  0.3222
 1013MOL0     C36659   0.187   3.521   2.328  0.3882  0.1940  0.0635
 1013MOL0     C36660   0.271   3.647   2.320 -0.4863 -0.1819  0.8714
 1013MOL0     C36661   0.397   3.594   2.243 -0.0623  0.1464 -0.6993
 1013MOL0     C36662   0.502   3.705   2.232 -0.4004 -1.0522 -0.8392
 1013MOL0     C36663   0.552   3.758   2.379  0.1225  0.7617 -0.0299
 1013MOL0     C36664   0.679   3.840   2.363  0.1108 -0.3750 -0.2978
 1013MOL0    Cl36665   0.814   3.733   2.315 -0.2264  0.2120 -0.0331
 1013MOL0     C36666  -0.144   3.158   2.232 -0.4662 -0.5996  0.1406
 1013MOL0     C36667  -0.260   3.081   2.219  1.0828 -0.5051 -0.4821
 1013MOL0     O36668  -0.593   3.173   2.354  0.0632 -0.8424 -0.1663
 1013MOL0     C36669  -0.661   2.858   2.243 -0.5547  0.9675  0.1604
 1013MOL0     C36670  -0.762   2.759   2.235 -0.7388  0.5324 -0.2823
 1013MOL0     N36671  -1.002   2.007   2.273  0.3335 -0.3101 -0.5137
 1013MOL0     N36672  -0.947   1.903   2.218 -0.1754 -0.5661  0.1280
 1013MOL0     C36673   0.216   1.688   2.076  0.3299  0.6452 -0.0328
 1013MOL0     C36674   0.343   1.626   2.082  0.1955  0.0121  0.1056
 1013MOL0     C36675   0.705   1.372   2.137 -0.9795  0.2410  0.5609
 1013MOL0     C36676   0.719   1.256   2.047  0.9356  0.2639 -0.5454
 1013MOL0     C36677   0.833   1.170   2.072 -0.1890 -0.2732 -0.5962
 1013MOL0     C36678   0.933   1.206   2.161  0.1629  0.4410  0.7476
 1013MOL0     O36679   1.044   1.121   2.167 -0.0725 -0.5797  0.2990
 1013MOL0     C36680   1.141   1.134   2.272 -0.0281  0.2025  0.5353
 1013MOL0     C36681   1.237   1.019   2.245 -0.8813  0.4123 -0.7269
 1013MOL0     C36682   1.326   0.995   2.368  0.3138 -0.6173  0.7489
 1013MOL0     C36683   1.455   0.925   2.344 -0.8737  0.6493 -0.7730
 1013MOL0     C36684   1.543   1.014   2.270 -0.0202  1.2954  0.9178
 1013MOL0     C36685   1.624   1.081   2.208 -0.3208  0.5198  0.8864
 1013MOL0     C36686   0.923   1.321   2.244  0.4293 -0.5902  0.5163
 1013MOL0     C36687   0.809   1.405   2.220  0.3432 -0.4496 -0.6405
 1013MOL0     H36688   0.245   1.300   2.085 -0.1878  0.5203  0.0254
 1013MOL0     H36689   0.021   1.411   2.086 -0.9865  0.7131 -2.4799
 1013MOL0     H36690  -0.120   1.546   1.993  1.9969 -2.9462  1.6376
 1013MOL0     H36691  -0.146   1.519   2.161 -1.7220 -3.3513 -2.9983
 1013MOL0     H36692  -0.319   1.698   2.174 -1.3710  0.9507 -0.5138
 1013MOL0     H36693  -0.262   1.788   2.042  0.1246  0.0491  0.5868
 1013MOL0     H36694  -0.346   1.601   1.896 -3.0462 -0.3269 -1.6635
 1013MOL0     H36695  -0.381   1.509   2.044 -0.7932 -0.3729 -0.8493
 1013MOL0     H36696  -0.548   1.734   2.100 -1.5395 -0.6493 -0.0741
 1013MOL0     H36697  -0.515   1.762   1.931  0.6809 -1.2061 -0.7503
 1013MOL0     H36698  -0.578   1.517   1.869  0.3633 -1.5303  0.4231
 1013MOL0     H36699  -0.605   1.492   2.039  0.4914 -1.8578 -2.5814
 1013MOL0     H36700  -0.759   1.667   1.837 -1.9290  1.4504  0.3920
 1013MOL0     H36701  -0.815   1.524   1.934 -2.3556  1.4295 -0.4774
 1013MOL0     H36702  -0.913   1.682   2.053  0.7366 -1.2866 -1.7421
 1013MOL0     H36703  -0.748   1.695   2.138 -0.2253 -2.0722  0.6966
 1013MOL0     H36704  -0.862   1.854   1.907  0.2263 -1.2306 -0.2672
 1013MOL0     H36705  -0.717   1.891   2.000  0.2002 -0.0737 -2.3248
 1013MOL0     H36706  -0.905   2.153   1.998  0.3856  0.5832  1.9685
 1013MOL0     H36707  -1.000   2.325   2.128 -0.3274  0.4461  0.2834
 1013MOL0     H36708  -1.159   2.255   2.164 -0.9754 -1.8942  0.9504
 1013MOL0     H36709  -0.958   2.295   2.390  1.9003  2.6468 -2.3369
 1013MOL0     H36710  -1.132   2.269   2.398 -0.5524 -0.1784 -0.5778
 1013MOL0     H36711  -1.104   2.516   2.431 -1.2582  1.8057 -0.3059
 1013MOL0     H36712  -1.163   2.491   2.271 -0.9119 -2.5251  1.7283
 1013MOL0     H36713  -0.956   2.530   2.156 -1.1948 -1.4750  0.0055
 1013MOL0     H36714  -0.863   2.504   2.287 -0.2481  0.6557  1.3499
 1013MOL0     H36715  -1.021   2.918   2.365 -0.2026 -0.2392  0.9170
 1013MOL0     H36716  -0.851   3.133   2.510 -0.2591 -1.4915  0.8853
 1013MOL0     H36717  -0.832   3.221   2.357  0.7269  0.2688  1.0041
 1013MOL0     H36718  -0.982   3.154   2.390 -0.1255  0.2605 -0.8242
 1013MOL0     H36719  -0.480   3.326   2.120  1.7130  1.3745 -0.7461
 1013MOL0     H36720  -0.290   3.459   2.123 -4.1522 -0.0230 -1.3169
 1013MOL0     H36721  -0.146   3.466   2.386  1.3925  0.8632  4.0386
 1013MOL0     H36722  -0.001   3.371   2.414  3.6349 -0.9111 -2.2319
 1013MOL0     H36723   0.002   3.650   2.306 -0.8361 -1.5533 -0.9978
 1013MOL0     H36724   0.022   3.589   2.465 -4.8129  0.0049 -0.4809
 1013MOL0     H36725   0.183   3.466   2.234  0.6321 -1.1227  0.7928
 1013MOL0     H36726   0.221   3.456   2.409 -0.9026 -2.1743 -1.1844
 1013MOL0     H36727   0.234   3.723   2.251 -0.5737 -0.5187  0.5411
 1013MOL0     H36728   0.289   3.683   2.422 -2.8729  4.1808 -0.0315
 1013MOL0     H36729   0.366   3.572   2.140  0.4915 -1.7137 -0.5045
 1013MOL0     H36730   0.450   3.508   2.286  1.3298  2.1666  1.9119
 1013MOL0     H36731   0.590   3.674   2.175 -1.6095 -2.4948 -2.0145
 1013MOL0     H36732   0.450   3.783   2.177 -1.2898  0.3007  1.7486
 1013MOL0     H36733   0.589   3.673   2.436 -0.0198 -1.8696 -3.5457
 1013MOL0     H36734   0.469   3.797   2.438  0.6101 -0.1190  1.2633
 1013MOL0     H36735   0.689   3.902   2.452 -0.1422 -0.5747 -0.1290
 1013MOL0     H36736   0.672   3.911   2.280  0.5873 -2.3045 -2.0737
 1013MOL0     H36737  -0.052   3.116   2.271  0.1555  0.5358 -0.0552
 1013MOL0     H36738  -0.260   2.975   2.241  0.5533  0.0570  2.6938
 1013MOL0     H36739  -0.567   2.838   2.194 -0.1434  2.0058  0.5034
 1013MOL0     H36740  -0.737   2.663   2.190 -2.6496 -0.6848  1.0762
 1013MOL0     H36741   0.192   1.794   2.075 -0.3434  0.4946 -0.0063
 1013MOL0     H36742   0.436   1.681   2.076  1.0736 -1.1725  2.0234
 1013MOL0     H36743   0.642   1.241   1.973  2.1756 -0.2376 -1.7694
 1013MOL0     H36744   0.854   1.084   2.009 -3.1221 -1.4575 -0.1250
 1013MOL0     H36745   1.196   1.228   2.266 -0.1746  0.2360 -0.4334
 1013MOL0     H36746   1.089   1.140   2.368  0.5336  0.8563  0.8074
 1013MOL0     H36747   1.304   1.041   2.162  0.9924  1.0258  0.8746
 1013MOL0     H36748   1.188   0.922   2.230 -2.6329  1.0155  0.6574
 1013MOL0     H36749   1.277   0.927   2.438  1.3128 -1.6078  0.5109
 1013MOL0     H36750   1.347   1.095   2.408  0.7308  1.1981 -3.5053
 1013MOL0     H36751   1.443   0.833   2.287  2.3551  0.0752 -0.6978
 1013MOL0     H36752   1.499   0.910   2.443 -0.2384  1.0817 -0.9811
 1013MOL0     H36753   1.670   1.138   2.130 -2.2056  3.3868  1.7268
 1013MOL0     H36754   1.005   1.352   2.308  1.9288 -2.2671 -0.4875
 1013MOL0     H36755   0.815   1.495   2.279  4.2142 -0.7071 -0.3744
 1014MOL0     O36756   6.228   2.349   0.334 -0.4880 -0.7437 -0.3486
 1014MOL0     C36757   6.305   2.445   0.332  0.1356  0.6865  0.0484
 1014MOL0     O36758   6.267   2.573   0.303 -0.0399 -0.6182  0.0781
 1014MOL0     C36759   6.134   2.611   0.308 -0.4558 -0.1181  0.1793
 1014MOL0     C36760   6.055   2.599   0.424 -0.5481  0.8522  0.4513
 1014MOL0     C36761   5.917   2.639   0.415 -0.1304 -0.1892  0.2237
 1014MOL0     C36762   5.859   2.695   0.296 -0.2195  0.1376  0.0960
 1014MOL0     O36763   5.720   2.718   0.275  0.2320 -0.1557 -0.1746
 1014MOL0     C36764   5.643   2.731   0.396 -0.6581  0.1576  0.1741
 1014MOL0     C36765   5.500   2.768   0.366  0.3757  0.0367 -0.1383
 1014MOL0     C36766   5.397   2.669   0.303 -0.1897 -0.0158  0.3412
 1014MOL0     C36767   5.254   2.713   0.314 -0.2286 -0.5786 -0.4640
 1014MOL0     C36768   5.172   2.638   0.206  0.1358 -0.4176 -0.4706
 1014MOL0     C36769   5.027   2.684   0.204  0.1085 -0.1378  0.2845
 1014MOL0     C36770   4.932   2.626   0.100 -0.0011 -0.0176  0.1544
 1014MOL0     C36771   4.823   2.721   0.069  0.2110  0.4265 -0.9112
 1014MOL0     N36772   4.699   2.654   0.011  0.1944  0.0599  0.4436
 1014MOL0     C36773   4.670   2.627  -0.119 -0.4160 -0.1870 -0.2090
 1014MOL0     C36774   4.556   2.559  -0.119  0.3527 -0.3725 -0.0883
 1014MOL0     C36775   4.487   2.511  -0.246 -0.2884  0.2217  0.1268
 1014MOL0     C36776   4.395   2.613  -0.313 -0.4518 -0.8370  0.0181
 1014MOL0     C36777   4.247   2.579  -0.277 -0.0298 -0.3890  0.8039
 1014MOL0     C36778   4.151   2.654  -0.371  0.2010  0.1169 -0.1110
 1014MOL0     O36779   4.163   2.580  -0.502 -0.2087  1.1758  0.2692
 1014MOL0     C36780   4.092   2.616  -0.612  0.3825  0.0284 -0.3176
 1014MOL0     C36781   4.149   2.626  -0.743 -0.0758 -0.0949 -0.3422
 1014MOL0     C36782   4.066   2.653  -0.856  0.4242 -0.7642  0.6459
 1014MOL0     C36783   4.133   2.641  -0.995  0.4525  0.0434  0.0089
 1014MOL0     C36784   3.921   2.669  -0.849  0.4911  0.5266 -0.3027
 1014MOL0     C36785   3.832   2.684  -0.966 -1.0637  0.0315 -0.9317
 1014MOL0     O36786   3.706   2.736  -0.925 -0.6390 -0.2413  0.1190
 1014MOL0     C36787   3.609   2.768  -1.008 -0.3142 -0.9946 -0.2066
 1014MOL0     C36788   3.486   2.794  -0.933 -0.5979 -0.3493  0.1366
 1014MOL0     C36789   3.372   2.825  -1.003  0.6641 -0.0830 -0.5617
 1014MOL0     C36790   3.375   2.852  -1.143  0.4731  0.1806  0.5018
 1014MOL0     O36791   3.264   2.881  -1.215  0.1753 -0.1746 -0.3231
 1014MOL0     C36792   3.150   2.922  -1.137 -0.0512 -0.0785 -0.5518
 1014MOL0     C36793   3.045   2.972  -1.242 -0.3257  0.7775  0.1391
 1014MOL0     C36794   3.089   3.110  -1.309 -0.0686 -0.1437 -0.0546
 1014MOL0     C36795   2.974   3.153  -1.403  1.1823 -0.4590  0.3688
 1014MOL0     C36796   2.999   3.291  -1.460  0.1363  0.4807 -0.4047
 1014MOL0     C36797   3.130   3.329  -1.527  0.5462 -0.6860  0.0549
 1014MOL0     C36798   3.114   3.475  -1.569  0.6375  0.9592 -0.0849
 1014MOL0     C36799   3.254   3.538  -1.589 -0.4042 -0.3695 -0.7210
 1014MOL0    Cl36800   3.203   3.701  -1.613  0.1146  0.3900  0.5080
 1014MOL0     C36801   3.493   2.824  -1.216  1.0101  0.3431 -0.2600
 1014MOL0     C36802   3.608   2.782  -1.153 -0.2913  0.2317 -0.7086
 1014MOL0     O36803   3.876   2.669  -1.078  0.8374 -0.9958  0.4973
 1014MOL0     C36804   3.871   2.668  -0.712  0.3834 -0.0374 -0.8859
 1014MOL0     C36805   3.965   2.645  -0.602  1.1212 -0.6025  0.3737
 1014MOL0     N36806   4.515   2.544   0.005  0.1359 -0.4159  0.3868
 1014MOL0     N36807   4.599   2.591   0.089 -0.1237 -0.3760  0.3036
 1014MOL0     C36808   5.945   2.711   0.187  0.0398  0.6104  0.5938
 1014MOL0     C36809   6.078   2.662   0.191  0.0171 -0.9538  0.1805
 1014MOL0     C36810   6.451   2.414   0.336 -0.1768 -0.4095 -0.1194
 1014MOL0     C36811   6.497   2.286   0.297 -0.5532  0.8655  0.0549
 1014MOL0     C36812   6.633   2.257   0.313  0.2120 -0.6076  0.3077
 1014MOL0     C36813   6.725   2.361   0.351  0.8964  0.4894 -0.2577
 1014MOL0     O36814   6.861   2.337   0.355 -0.5891  0.3075  0.5948
 1014MOL0     C36815   6.948   2.446   0.373 -0.3156 -0.6125  0.0453
 1014MOL0     C36816   7.090   2.413   0.317  0.3501 -1.1231 -0.7781
 1014MOL0     C36817   7.172   2.539   0.292  0.1472 -0.7189 -0.2754
 1014MOL0     C36818   7.313   2.484   0.285 -0.1309 -0.7215 -0.2607
 1014MOL0     C36819   7.407   2.590   0.243  0.4518 -0.7067  1.3131
 1014MOL0     C36820   7.493   2.675   0.206  0.3372 -0.0304 -0.1006
 1014MOL0     C36821   6.675   2.482   0.393 -0.6124 -0.1595 -0.2202
 1014MOL0     C36822   6.540   2.509   0.372  0.0644  0.0218 -0.4071
 1014MOL0     H36823   6.070   2.537   0.512 -0.5779  0.5560  0.2472
 1014MOL0     H36824   5.850   2.623   0.499  0.5304  2.0251  1.2631
 1014MOL0     H36825   5.636   2.642   0.460 -2.5324 -0.2438 -0.5305
 1014MOL0     H36826   5.690   2.808   0.458  0.5810 -1.6414  1.5546
 1014MOL0     H36827   5.469   2.796   0.466  2.8037  0.5060  0.5508
 1014MOL0     H36828   5.500   2.847   0.290 -0.3656 -1.8245 -2.2063
 1014MOL0     H36829   5.431   2.663   0.199  0.0271  0.5435  0.3774
 1014MOL0     H36830   5.400   2.570   0.351 -1.1048 -0.2983 -0.1554
 1014MOL0     H36831   5.214   2.682   0.410 -0.1320 -2.0237 -0.8664
 1014MOL0     H36832   5.251   2.821   0.299 -1.3392 -0.6653 -0.9999
 1014MOL0     H36833   5.221   2.675   0.116 -1.6711 -0.2977 -1.4486
 1014MOL0     H36834   5.180   2.530   0.224  1.8168 -0.1868  0.3729
 1014MOL0     H36835   4.991   2.644   0.300 -1.8325  1.1142  0.1388
 1014MOL0     H36836   5.016   2.793   0.213 -1.7938 -0.3345  0.7739
 1014MOL0     H36837   4.997   2.606   0.014  0.6515  0.6532  0.4844
 1014MOL0     H36838   4.891   2.533   0.139  0.7571 -0.7744 -0.7915
 1014MOL0     H36839   4.863   2.794  -0.002 -0.0077  2.1204  0.6473
 1014MOL0     H36840   4.796   2.776   0.159  5.3633  1.6113  0.2518
 1014MOL0     H36841   4.720   2.664  -0.209 -0.9742  0.7731 -0.1364
 1014MOL0     H36842   4.566   2.486  -0.317 -0.1753  0.2922  0.2267
 1014MOL0     H36843   4.432   2.420  -0.219 -2.5796  1.2619 -0.7456
 1014MOL0     H36844   4.411   2.613  -0.421  1.7940  2.3624  0.1963
 1014MOL0     H36845   4.420   2.714  -0.279  0.2914 -1.4353  1.3383
 1014MOL0     H36846   4.218   2.605  -0.175  0.0668  0.7787  0.5495
 1014MOL0     H36847   4.240   2.470  -0.287  0.9294 -0.2871 -1.8618
 1014MOL0     H36848   4.190   2.752  -0.397  0.4406  0.2232  0.6317
 1014MOL0     H36849   4.051   2.637  -0.331 -0.3388 -3.6410 -2.4702
 1014MOL0     H36850   4.255   2.617  -0.759 -0.1194 -0.6711 -0.3110
 1014MOL0     H36851   4.240   2.622  -0.985 -0.1354 -2.7250  2.4515
 1014MOL0     H36852   4.091   2.556  -1.049 -0.5648  0.7357 -0.3247
 1014MOL0     H36853   4.120   2.733  -1.052 -0.4185 -0.3530 -0.4530
 1014MOL0     H36854   3.481   2.796  -0.824  0.4833  2.6356  0.2326
 1014MOL0     H36855   3.300   2.871  -0.937  1.0456 -1.2710  0.7237
 1014MOL0     H36856   3.107   2.846  -1.071 -0.0301  2.1037  2.1417
 1014MOL0     H36857   3.172   3.010  -1.076  0.5313  3.9089 -5.7849
 1014MOL0     H36858   3.029   2.893  -1.316 -1.7365  2.6859 -1.7319
 1014MOL0     H36859   2.956   2.977  -1.180  1.4542  1.0732  2.8271
 1014MOL0     H36860   3.183   3.100  -1.364  0.4281  1.9477  0.3325
 1014MOL0     H36861   3.093   3.192  -1.237  0.5733 -2.9816  3.4313
 1014MOL0     H36862   2.965   3.079  -1.483  2.2850 -1.2929  0.9897
 1014MOL0     H36863   2.881   3.157  -1.345 -0.2488  2.2121 -1.8949
 1014MOL0     H36864   2.974   3.352  -1.373 -1.0390 -2.0822  1.1544
 1014MOL0     H36865   2.922   3.302  -1.536 -0.9042  1.5357  0.7665
 1014MOL0     H36866   3.220   3.330  -1.464  0.0807  1.7827  0.7864
 1014MOL0     H36867   3.146   3.274  -1.620  0.2288  0.0647 -0.4588
 1014MOL0     H36868   3.055   3.520  -1.488  2.4701  1.1998  1.1957
 1014MOL0     H36869   3.053   3.472  -1.659  0.1040  0.1031  0.2891
 1014MOL0     H36870   3.302   3.507  -1.682 -1.6420  1.1734 -1.9406
 1014MOL0     H36871   3.320   3.527  -1.503 -1.1417 -2.9256 -0.3990
 1014MOL0     H36872   3.487   2.842  -1.323 -2.1472 -2.4441 -0.7238
 1014MOL0     H36873   3.689   2.748  -1.217 -0.1736  1.1555 -1.0617
 1014MOL0     H36874   3.767   2.670  -0.681  0.7029 -0.1826  0.2445
 1014MOL0     H36875   3.914   2.638  -0.506 -0.5296 -2.5260 -0.5687
 1014MOL0     H36876   5.908   2.757   0.096 -2.3045  0.0763  1.2137
 1014MOL0     H36877   6.144   2.649   0.105 -1.4767 -1.6225 -0.9071
 1014MOL0     H36878   6.420   2.218   0.262 -0.1364  1.0354 -1.2220
 1014MOL0     H36879   6.684   2.164   0.291 -1.0220 -0.9738 -1.1709
 1014MOL0     H36880   6.915   2.534   0.317  1.8940 -0.1788 -0.6966
 1014MOL0     H36881   6.958   2.460   0.481  3.0461 -0.5810 -0.1713
 1014MOL0     H36882   7.077   2.366   0.219 -2.5395 -1.6864 -0.2085
 1014MOL0     H36883   7.136   2.356   0.398 -0.7907 -1.6941 -0.5160
 1014MOL0     H36884   7.156   2.600   0.381  0.5470  2.7918 -2.4416
 1014MOL0     H36885   7.141   2.597   0.206  4.0323  2.1175 -0.0144
 1014MOL0     H36886   7.322   2.407   0.208 -0.3023  0.8423 -1.9104
 1014MOL0     H36887   7.337   2.445   0.384  1.6433  1.1516  0.1009
 1014MOL0     H36888   7.573   2.741   0.179  0.3492 -0.0650 -0.1478
 1014MOL0     H36889   6.742   2.562   0.423 -1.3470 -0.0198  1.1342
 1014MOL0     H36890   6.504   2.610   0.387  0.0118  0.0830 -0.9024
 1015MOL0     O36891   0.240   9.918   8.675  0.4554  0.7077 -0.0019
 1015MOL0     C36892   0.265   9.829   8.758 -0.0486 -0.1742 -0.2826
 1015MOL0     O36893   0.175   9.746   8.811 -0.2779 -0.0401 -0.4959
 1015MOL0     C36894   0.044   9.754   8.777  0.3979 -0.4170 -0.1926
 1015MOL0     C36895  -0.010   9.754   8.648 -0.4242  0.2236 -0.0911
 1015MOL0     C36896  -0.149   9.767   8.633  0.9791 -0.1617  0.0899
 1015MOL0     C36897  -0.232   9.798   8.744 -0.6154  0.8752 -0.5782
 1015MOL0     O36898  -0.368   9.809   8.737  0.1703  0.2853 -0.7462
 1015MOL0     C36899  -0.423   9.844   8.614  0.4904  0.2609 -0.9311
 1015MOL0     C36900  -0.498   9.725   8.565 -0.7834  0.2782 -0.4219
 1015MOL0     C36901  -0.553   9.762   8.431 -0.3088 -0.8523 -0.0017
 1015MOL0     C36902  -0.649   9.659   8.371 -0.6617 -0.7617 -0.6860
 1015MOL0     C36903  -0.660   9.703   8.222  0.0588 -0.6297 -1.3066
 1015MOL0     C36904  -0.779   9.815   8.217 -0.3793 -0.1911  0.1273
 1015MOL0     C36905  -0.793   9.871   8.075  0.5199 -0.3365 -0.0362
 1015MOL0     C36906  -0.885   9.997   8.091  0.1051  0.2193  0.0765
 1015MOL0     N36907  -1.022   9.955   8.076  0.5139 -0.4655 -0.4760
 1015MOL0     C36908  -1.112   9.997   7.985 -0.8598 -0.7586 -0.0922
 1015MOL0     C36909  -1.226   9.929   8.009  0.0931 -0.2483 -0.3374
 1015MOL0     C36910  -1.366   9.940   7.946  0.6842  0.2391  0.6547
 1015MOL0     C36911  -1.448  10.062   7.993  0.5727 -0.7745  0.8193
 1015MOL0     C36912  -1.392  10.200   7.935  0.6664  0.2567 -0.1716
 1015MOL0     C36913  -1.507  10.306   7.927  0.4538 -0.6450  0.0351
 1015MOL0     O36914  -1.595  10.297   7.812  0.6131  0.0276 -0.5115
 1015MOL0     C36915  -1.679  10.401   7.780 -0.4358  0.4742  0.2928
 1015MOL0     C36916  -1.678  10.534   7.818 -0.7246  0.0182 -1.2799
 1015MOL0     C36917  -1.784  10.623   7.794 -0.0339 -1.1826  0.4669
 1015MOL0     C36918  -1.761  10.768   7.850  0.2797 -0.3189  0.4864
 1015MOL0     C36919  -1.898  10.586   7.712 -0.1208  0.0347  0.4329
 1015MOL0     C36920  -2.000  10.674   7.673  1.0267  0.3381 -0.0909
 1015MOL0     O36921  -1.977  10.808   7.660  1.0117  0.3434 -0.3848
 1015MOL0     C36922  -2.081  10.891   7.603  0.2224 -0.7814 -0.3921
 1015MOL0     C36923  -2.114  11.010   7.676  0.3166  0.7902  0.0491
 1015MOL0     C36924  -2.230  11.076   7.636 -0.4832 -0.1323 -0.1873
 1015MOL0     C36925  -2.295  11.050   7.512 -0.2376  0.2866 -0.4179
 1015MOL0     O36926  -2.399  11.119   7.471  0.3954 -0.0658 -0.4266
 1015MOL0     C36927  -2.453  11.220   7.553 -0.3252 -0.7141 -1.6716
 1015MOL0     C36928  -2.566  11.299   7.481 -0.0403 -0.0141  0.7307
 1015MOL0     C36929  -2.514  11.368   7.352 -0.4115  0.1604 -0.1064
 1015MOL0     C36930  -2.638  11.426   7.268 -0.9935  0.0830  0.1378
 1015MOL0     C36931  -2.574  11.499   7.151  0.8702  0.1524  0.4881
 1015MOL0     C36932  -2.686  11.547   7.059 -0.2598  0.7205 -0.4090
 1015MOL0     C36933  -2.643  11.665   6.972 -0.1431 -0.1773 -0.4553
 1015MOL0     C36934  -2.694  11.643   6.827 -0.8091  0.2159 -0.4622
 1015MOL0    Cl36935  -2.866  11.636   6.830 -0.2226 -0.0586 -0.2827
 1015MOL0     C36936  -2.253  10.940   7.438  0.3496 -0.2900 -0.4075
 1015MOL0     C36937  -2.148  10.865   7.482 -1.1629 -0.6235  0.4951
 1015MOL0     O36938  -2.105  10.618   7.639  0.1508  0.7003 -0.0455
 1015MOL0     C36939  -1.891  10.457   7.655  0.0829  0.6341  0.7735
 1015MOL0     C36940  -1.788  10.366   7.692 -0.5516 -0.1837  0.5208
 1015MOL0     N36941  -1.201   9.844   8.116 -0.1155  0.1989  0.2992
 1015MOL0     N36942  -1.078   9.865   8.157 -0.7282  0.0695 -0.2333
 1015MOL0     C36943  -0.172   9.803   8.863 -0.1672 -0.0394  0.1804
 1015MOL0     C36944  -0.039   9.790   8.886 -0.0032 -0.8587 -0.1082
 1015MOL0     C36945   0.404   9.807   8.785 -0.4244  0.1039  0.4060
 1015MOL0     C36946   0.495   9.911   8.762 -0.1276 -0.2468  0.1939
 1015MOL0     C36947   0.627   9.898   8.808  0.0321  1.0249 -0.7974
 1015MOL0     C36948   0.681   9.778   8.857 -0.0072  0.1195 -1.0250
 1015MOL0     O36949   0.818   9.782   8.880 -0.0956 -0.0808  0.0157
 1015MOL0     C36950   0.895   9.672   8.820 -0.7501  0.5058  0.1407
 1015MOL0     C36951   0.932   9.706   8.680  0.4976 -0.2560  0.6234
 1015MOL0     C36952   1.036   9.821   8.667  0.6778 -0.6425 -0.2296
 1015MOL0     C36953   1.077   9.832   8.513  0.2482  1.0505 -0.3014
 1015MOL0     C36954   1.185   9.931   8.506 -0.3404 -0.4523  0.5530
 1015MOL0     C36955   1.257  10.034   8.506  1.1345 -0.5128 -0.3526
 1015MOL0     C36956   0.592   9.668   8.859  0.6219  0.0767  0.0255
 1015MOL0     C36957   0.451   9.680   8.834 -1.1441  0.3383  0.2440
 1015MOL0     H36958   0.055   9.723   8.566 -0.8729 -1.2749  0.0768
 1015MOL0     H36959  -0.179   9.752   8.530  0.9755  0.9635 -0.0929
 1015MOL0     H36960  -0.493   9.928   8.623  0.0828 -0.2811  1.9420
 1015MOL0     H36961  -0.345   9.883   8.548 -0.1419  0.9880 -1.2676
 1015MOL0     H36962  -0.434   9.639   8.541 -1.6098 -0.2671 -0.6850
 1015MOL0     H36963  -0.577   9.689   8.631 -0.9780 -1.3006 -1.4628
 1015MOL0     H36964  -0.607   9.857   8.439  1.9641  0.6797 -1.6906
 1015MOL0     H36965  -0.472   9.787   8.361 -2.4892 -0.6055 -2.6320
 1015MOL0     H36966  -0.609   9.557   8.376 -0.5750 -0.6922  0.2697
 1015MOL0     H36967  -0.746   9.657   8.421 -2.1141  2.8903 -2.9114
 1015MOL0     H36968  -0.563   9.737   8.183 -0.2044  0.0597 -1.3699
 1015MOL0     H36969  -0.697   9.617   8.166 -2.9010 -0.2651 -0.0532
 1015MOL0     H36970  -0.864   9.760   8.258 -1.3936  1.0648 -0.2197
 1015MOL0     H36971  -0.758   9.897   8.287  2.0076 -1.7418  1.3997
 1015MOL0     H36972  -0.695   9.905   8.041  1.3558 -2.6520 -0.0528
 1015MOL0     H36973  -0.823   9.789   8.009  0.4165 -0.4351  0.1341
 1015MOL0     H36974  -0.859  10.075   8.019  1.7432 -0.4295 -0.0901
 1015MOL0     H36975  -0.879  10.043   8.190 -1.4153 -1.3592  0.9555
 1015MOL0     H36976  -1.101  10.080   7.916  0.4013  1.0521  2.1441
 1015MOL0     H36977  -1.356   9.940   7.837 -0.4059  2.1025  0.4981
 1015MOL0     H36978  -1.433   9.861   7.979  0.9302 -0.6287 -0.8600
 1015MOL0     H36979  -1.459  10.069   8.102  0.1360  0.9426  0.6935
 1015MOL0     H36980  -1.553  10.059   7.965  0.2649  2.1827  1.3172
 1015MOL0     H36981  -1.342  10.188   7.838 -0.2498  1.2606 -0.7776
 1015MOL0     H36982  -1.321  10.245   8.005 -0.9492 -1.0438  2.4829
 1015MOL0     H36983  -1.454  10.402   7.929 -1.3667  0.3939  0.1066
 1015MOL0     H36984  -1.577  10.289   8.008 -0.0315 -4.6874 -1.0497
 1015MOL0     H36985  -1.593  10.573   7.873  0.2433 -2.7921 -0.6384
 1015MOL0     H36986  -1.851  10.793   7.907  1.3677  0.3463  1.9911
 1015MOL0     H36987  -1.672  10.787   7.911  1.5100  0.9459 -1.5558
 1015MOL0     H36988  -1.752  10.835   7.764 -1.4612 -1.3965 -0.5779
 1015MOL0     H36989  -2.051  11.024   7.764  3.0408 -2.3264 -1.2247
 1015MOL0     H36990  -2.247  11.159   7.704  3.2498  1.1275 -0.5777
 1015MOL0     H36991  -2.486  11.166   7.642  2.4746  1.3321  0.7968
 1015MOL0     H36992  -2.370  11.285   7.582 -0.0832 -1.0010 -1.7187
 1015MOL0     H36993  -2.635  11.222   7.447  2.1215 -0.4481 -3.3600
 1015MOL0     H36994  -2.615  11.369   7.550 -1.4681  0.3367 -0.5848
 1015MOL0     H36995  -2.460  11.295   7.292  2.9651  2.5815 -0.3265
 1015MOL0     H36996  -2.439  11.443   7.380 -0.8458  0.0254  1.5088
 1015MOL0     H36997  -2.700  11.343   7.232 -0.2182 -0.2250 -0.5191
 1015MOL0     H36998  -2.701  11.499   7.319 -3.5170  0.3726 -3.0661
 1015MOL0     H36999  -2.517  11.418   7.104  0.3939 -1.5375  2.6247
 1015MOL0     H37000  -2.516  11.582   7.191  0.9341 -0.1820  1.1011
 1015MOL0     H37001  -2.729  11.462   7.005 -1.5996 -1.3327  3.4848
 1015MOL0     H37002  -2.765  11.586   7.124 -0.1972 -1.4287  1.0653
 1015MOL0     H37003  -2.537  11.691   6.975 -0.0590 -0.6021  0.4054
 1015MOL0     H37004  -2.704  11.751   7.003  0.6472 -0.1008  0.9276
 1015MOL0     H37005  -2.646  11.553   6.786 -0.0334 -0.0509  0.9539
 1015MOL0     H37006  -2.672  11.726   6.760  1.4210 -0.0992 -0.1924
 1015MOL0     H37007  -2.311  10.906   7.352  4.0661 -2.9660 -2.1517
 1015MOL0     H37008  -2.115  10.776   7.430  1.1870  0.1602  0.5301
 1015MOL0     H37009  -1.954  10.424   7.573  0.2709  0.1596  0.8171
 1015MOL0     H37010  -1.791  10.269   7.642  0.4880  0.8565 -1.7230
 1015MOL0     H37011  -0.235   9.824   8.949  0.3940  1.2017  0.3140
 1015MOL0     H37012   0.023   9.813   8.972  0.6360  1.4731 -1.1009
 1015MOL0     H37013   0.465  10.004   8.714 -0.9106 -1.4740 -1.8103
 1015MOL0     H37014   0.697   9.980   8.794 -0.5916  1.4326 -1.6141
 1015MOL0     H37015   0.980   9.646   8.883  1.2642 -1.0789 -3.0069
 1015MOL0     H37016   0.835   9.580   8.825 -1.6105  0.8650 -2.1181
 1015MOL0     H37017   0.843   9.732   8.622  0.8792  0.7403  0.4579
 1015MOL0     H37018   0.976   9.621   8.627  2.5714  1.4068 -0.5303
 1015MOL0     H37019   1.123   9.822   8.734  0.9425  0.8663 -0.5604
 1015MOL0     H37020   0.984   9.914   8.691  3.3750  0.2288  3.2111
 1015MOL0     H37021   0.989   9.838   8.448 -0.2315 -1.1813  0.0439
 1015MOL0     H37022   1.119   9.732   8.499 -1.3360  0.1688  0.9002
 1015MOL0     H37023   1.328  10.114   8.506 -0.7727  1.2968 -1.7028
 1015MOL0     H37024   0.618   9.569   8.895  1.9283  0.1316 -0.7255
 1015MOL0     H37025   0.400   9.584   8.838  1.0077 -0.8363  1.2842
 1016MOL0     O37026   6.699  10.900   5.156 -0.4222  0.7344  0.0191
 1016MOL0     C37027   6.599  10.962   5.195  0.0227  0.5227  0.6160
 1016MOL0     O37028   6.593  11.028   5.309  1.0072 -0.5625  0.0606
 1016MOL0     C37029   6.697  11.029   5.396  0.8879  0.2555  0.3945
 1016MOL0     C37030   6.751  11.139   5.452 -0.0619  0.3582 -0.2087
 1016MOL0     C37031   6.858  11.129   5.546 -0.1740 -0.0731  1.5364
 1016MOL0     C37032   6.918  11.002   5.576  1.0843 -0.8942 -0.1634
 1016MOL0     O37033   7.033  10.986   5.651  0.3006  0.3161 -0.6196
 1016MOL0     C37034   7.134  11.090   5.649  0.3661  0.0956 -1.0878
 1016MOL0     C37035   7.113  11.195   5.768  0.1899 -0.6218  0.2510
 1016MOL0     C37036   7.097  11.132   5.912  0.7285 -1.5102 -0.7640
 1016MOL0     C37037   7.083  11.244   6.024  0.8051 -0.2639 -0.2728
 1016MOL0     C37038   7.207  11.306   6.067 -0.1430  0.0555 -0.3993
 1016MOL0     C37039   7.204  11.399   6.196  0.6293  0.1386  0.0426
 1016MOL0     C37040   7.346  11.425   6.262  0.6102 -0.2957 -0.6169
 1016MOL0     C37041   7.379  11.299   6.349  1.3986 -0.1149 -0.3581
 1016MOL0     N37042   7.304  11.294   6.483  0.0433 -0.6879  0.5827
 1016MOL0     C37043   7.221  11.191   6.526  0.7394  0.2014 -0.9093
 1016MOL0     C37044   7.168  11.255   6.646  0.0522  0.3512 -0.5720
 1016MOL0     C37045   7.068  11.204   6.734  0.0507  0.6332  0.4888
 1016MOL0     C37046   7.125  11.155   6.863  0.3035  0.2482  0.0648
 1016MOL0     C37047   7.037  11.035   6.906 -0.2104  0.0724  0.0461
 1016MOL0     C37048   7.068  11.018   7.051 -0.4389  0.7224  0.6798
 1016MOL0     O37049   7.199  10.962   7.058 -0.0730 -0.2746  0.1309
 1016MOL0     C37050   7.256  10.958   7.183  0.5077  0.7078 -0.5552
 1016MOL0     C37051   7.202  11.018   7.300  0.2909  1.0336 -1.0400
 1016MOL0     C37052   7.271  11.002   7.426 -0.8831 -0.3766 -0.3664
 1016MOL0     C37053   7.224  11.085   7.534  0.4945  0.3077  0.6502
 1016MOL0     C37054   7.392  10.933   7.437  0.3671  0.5122  0.1569
 1016MOL0     C37055   7.479  10.904   7.554  0.4659  0.5130 -0.4557
 1016MOL0     O37056   7.617  10.903   7.536  0.2802  0.5202  0.7835
 1016MOL0     C37057   7.712  10.930   7.617 -0.2889  0.8061 -0.0965
 1016MOL0     C37058   7.819  11.019   7.574 -0.3229 -0.3771 -0.2244
 1016MOL0     C37059   7.938  11.020   7.648 -0.1754  0.5588 -0.0087
 1016MOL0     C37060   7.960  10.934   7.750 -0.5868 -0.0659  0.0956
 1016MOL0     O37061   8.086  10.938   7.813  0.3454 -0.4532  0.0209
 1016MOL0     C37062   8.085  11.027   7.923 -0.1415  0.2911  0.5478
 1016MOL0     C37063   8.226  11.062   7.952 -0.1387 -1.1532  0.4261
 1016MOL0     C37064   8.238  11.141   8.084 -0.1142  0.2772 -0.7246
 1016MOL0     C37065   8.381  11.125   8.146 -0.3893 -0.1345 -0.0230
 1016MOL0     C37066   8.392  11.182   8.285 -0.2015  0.0558  0.5512
 1016MOL0     C37067   8.372  11.333   8.302 -0.2409  0.5153 -0.4670
 1016MOL0     C37068   8.449  11.428   8.211 -0.2663  0.9206 -0.1443
 1016MOL0     C37069   8.402  11.571   8.235  0.0806  0.6015 -0.2295
 1016MOL0    Cl37070   8.442  11.619   8.406 -0.0665  0.6233  0.2928
 1016MOL0     C37071   7.858  10.854   7.797  0.1868  0.4482  0.3514
 1016MOL0     C37072   7.733  10.854   7.726 -0.5621  0.4912 -0.8870
 1016MOL0     O37073   7.424  10.881   7.663  0.3604  0.2121 -0.8323
 1016MOL0     C37074   7.447  10.883   7.319 -0.6249  0.1914 -0.5418
 1016MOL0     C37075   7.379  10.881   7.200 -0.0836  0.0639  0.3528
 1016MOL0     N37076   7.244  11.367   6.679 -0.4738 -0.3839  0.6824
 1016MOL0     N37077   7.328  11.379   6.588  0.9120  0.1491  0.1192
 1016MOL0     C37078   6.852  10.890   5.534  0.0035 -0.1015  0.2469
 1016MOL0     C37079   6.751  10.903   5.438 -0.4313 -0.4028 -0.1554
 1016MOL0     C37080   6.475  10.951   5.115  0.3691 -0.1390  0.1412
 1016MOL0     C37081   6.353  11.025   5.151  0.0995  0.9379 -0.4537
 1016MOL0     C37082   6.230  11.006   5.078 -1.2258  0.8033  0.4125
 1016MOL0     C37083   6.230  10.925   4.962 -0.0205  0.7521 -0.2250
 1016MOL0     O37084   6.106  10.901   4.907 -0.1588 -0.3555 -0.2401
 1016MOL0     C37085   6.017  10.805   4.968  0.3185  0.7142  0.1331
 1016MOL0     C37086   5.904  10.880   5.031  0.9166 -0.1367 -1.1542
 1016MOL0     C37087   5.822  10.786   5.128  0.0707  0.0644  0.3189
 1016MOL0     C37088   5.705  10.875   5.161 -0.1678 -0.1759 -0.0430
 1016MOL0     C37089   5.624  10.797   5.252  0.2663 -0.0595 -0.4796
 1016MOL0     C37090   5.553  10.735   5.333  0.1734 -0.2503 -0.1353
 1016MOL0     C37091   6.343  10.856   4.919  0.4391  0.5954  0.5340
 1016MOL0     C37092   6.461  10.877   4.992 -0.1300  0.8955 -0.7471
 1016MOL0     H37093   6.701  11.230   5.424  1.6574  0.5757 -2.9321
 1016MOL0     H37094   6.881  11.223   5.596  1.0035 -1.5383  3.9236
 1016MOL0     H37095   7.229  11.040   5.668  1.1924  2.7872  3.1586
 1016MOL0     H37096   7.135  11.147   5.556 -1.4473  0.3788 -0.9676
 1016MOL0     H37097   7.184  11.278   5.761 -0.5112 -0.0957 -1.2519
 1016MOL0     H37098   7.020  11.248   5.743  0.5854 -0.5555 -1.2281
 1016MOL0     H37099   7.009  11.066   5.912  1.0608 -2.0061  1.1917
 1016MOL0     H37100   7.180  11.067   5.938  3.2621  1.6597 -0.2407
 1016MOL0     H37101   7.012  11.320   5.992  0.8461  0.9254  2.2494
 1016MOL0     H37102   7.037  11.202   6.114  1.9864 -0.5136  0.2388
 1016MOL0     H37103   7.275  11.221   6.082 -1.7652 -1.0489  1.0298
 1016MOL0     H37104   7.254  11.369   5.991  0.7288 -1.9810 -1.6286
 1016MOL0     H37105   7.172  11.495   6.153 -1.8940 -1.8525 -3.0506
 1016MOL0     H37106   7.122  11.367   6.261 -1.4482 -1.2527 -3.0163
 1016MOL0     H37107   7.435  11.441   6.199  1.7623  2.7198  1.5381
 1016MOL0     H37108   7.337  11.518   6.319  0.4782 -1.4245  1.3040
 1016MOL0     H37109   7.487  11.295   6.366  1.8023  1.5278 -2.1314
 1016MOL0     H37110   7.358  11.206   6.296  0.5779 -1.1786  1.7178
 1016MOL0     H37111   7.197  11.094   6.484 -1.3499  0.4667 -0.4704
 1016MOL0     H37112   6.986  11.274   6.750 -0.6932 -0.3223  0.9086
 1016MOL0     H37113   7.017  11.126   6.677  1.3761 -0.8614  1.2624
 1016MOL0     H37114   7.121  11.227   6.945  2.6669 -1.8909  2.2666
 1016MOL0     H37115   7.224  11.114   6.842 -0.4145  0.7853 -6.1800
 1016MOL0     H37116   7.059  10.941   6.856 -5.0793 -0.6099 -1.2931
 1016MOL0     H37117   6.929  11.048   6.897 -0.3621 -0.6993  0.6523
 1016MOL0     H37118   6.997  10.943   7.087  3.0584 -2.2887  1.9452
 1016MOL0     H37119   7.043  11.107   7.110  0.5620  2.2749 -1.1121
 1016MOL0     H37120   7.115  11.083   7.297  0.9224  2.0480  0.7969
 1016MOL0     H37121   7.138  11.034   7.578  0.7656 -0.6132  0.1484
 1016MOL0     H37122   7.287  11.119   7.616  0.8489  1.9036 -0.2461
 1016MOL0     H37123   7.190  11.179   7.489  2.1203  1.1050  1.0438
 1016MOL0     H37124   7.801  11.067   7.479  1.4719  0.2827 -0.2642
 1016MOL0     H37125   8.006  11.086   7.596 -0.9916 -0.1388 -2.1190
 1016MOL0     H37126   8.024  11.116   7.903  1.3743  0.6972 -2.9768
 1016MOL0     H37127   8.047  10.983   8.016 -3.4142 -0.4137 -0.9988
 1016MOL0     H37128   8.292  10.975   7.957 -1.0495 -1.9168 -0.5011
 1016MOL0     H37129   8.263  11.112   7.862  0.0739  1.6703  1.9708
 1016MOL0     H37130   8.164  11.109   8.159 -1.2965  2.3712 -0.9361
 1016MOL0     H37131   8.216  11.245   8.060 -1.2498  0.3839  0.6161
 1016MOL0     H37132   8.400  11.018   8.157 -0.8752  0.0241  3.8069
 1016MOL0     H37133   8.459  11.154   8.075 -2.0970 -2.7089 -3.2225
 1016MOL0     H37134   8.486  11.155   8.334 -1.0097 -0.5101  1.8383
 1016MOL0     H37135   8.317  11.121   8.336  1.9370 -4.2750 -0.8941
 1016MOL0     H37136   8.265  11.355   8.294  0.3614  3.7629 -1.0629
 1016MOL0     H37137   8.398  11.358   8.405  0.2855 -0.1335 -0.4375
 1016MOL0     H37138   8.434  11.396   8.108 -1.8213  0.2062  0.2761
 1016MOL0     H37139   8.555  11.425   8.238  0.2826 -0.5957 -2.2024
 1016MOL0     H37140   8.295  11.586   8.226 -0.4767 -1.5972  1.6612
 1016MOL0     H37141   8.454  11.631   8.160 -0.9664  2.2986  0.3765
 1016MOL0     H37142   7.872  10.794   7.886  0.4573 -1.0023 -0.6307
 1016MOL0     H37143   7.649  10.802   7.772  0.4837  0.9496  1.6656
 1016MOL0     H37144   7.541  10.829   7.317  0.0221  1.2049  0.7101
 1016MOL0     H37145   7.426  10.836   7.114 -1.6784 -1.3692  0.1720
 1016MOL0     H37146   6.899  10.797   5.566 -2.4078 -1.6184 -0.2843
 1016MOL0     H37147   6.706  10.806   5.419  0.9510 -1.2975  0.9538
 1016MOL0     H37148   6.351  11.088   5.239 -2.8600 -1.4756  1.4335
 1016MOL0     H37149   6.144  11.056   5.121 -1.1084  0.5553  0.9384
 1016MOL0     H37150   5.981  10.736   4.891 -0.7322 -2.5854  3.2943
 1016MOL0     H37151   6.073  10.739   5.035 -0.9547 -1.2885 -0.6748
 1016MOL0     H37152   5.833  10.918   4.957  0.1778 -0.3371 -0.5681
 1016MOL0     H37153   5.955  10.956   5.091  2.5786 -2.8604  1.1330
 1016MOL0     H37154   5.885  10.756   5.213  0.6983 -0.1642 -0.2160
 1016MOL0     H37155   5.781  10.699   5.076  0.1262  0.7313 -0.8728
 1016MOL0     H37156   5.646  10.897   5.071 -0.0777 -0.2809 -0.1287
 1016MOL0     H37157   5.738  10.965   5.213 -1.4691  0.5877 -0.4877
 1016MOL0     H37158   5.496  10.687   5.409 -0.9676  0.2650 -0.6468
 1016MOL0     H37159   6.349  10.806   4.822  0.9804 -0.0553  0.8906
 1016MOL0     H37160   6.551  10.826   4.960 -1.0015 -0.5932 -0.9217
 1017MOL0     O37161   2.270   9.882   9.054  0.1360 -0.4592  0.0417
 1017MOL0     C37162   2.353   9.826   8.981 -0.0084 -0.1293  0.5749
 1017MOL0     O37163   2.338   9.798   8.855  0.6542 -0.4874 -0.3835
 1017MOL0     C37164   2.212   9.804   8.794 -0.2316 -0.1808  0.0017
 1017MOL0     C37165   2.212   9.881   8.684  0.5344 -0.9222 -0.1283
 1017MOL0     C37166   2.102   9.897   8.600  0.0658  0.5009 -1.3866
 1017MOL0     C37167   1.988   9.818   8.632 -0.0839 -0.3725  0.1440
 1017MOL0     O37168   1.878   9.823   8.548  0.0072 -0.0141 -0.6163
 1017MOL0     C37169   1.787   9.923   8.591 -0.2957 -0.3857  0.0647
 1017MOL0     C37170   1.705   9.966   8.470 -1.1119  0.0019  0.6158
 1017MOL0     C37171   1.587   9.875   8.434 -0.9379 -0.2435 -0.1208
 1017MOL0     C37172   1.529   9.940   8.305  0.0210  0.5752 -1.1241
 1017MOL0     C37173   1.418   9.861   8.250  0.3579  0.0957 -0.6740
 1017MOL0     C37174   1.361   9.921   8.122 -0.1586  0.1792 -0.4476
 1017MOL0     C37175   1.249   9.830   8.071  0.3760  0.9324  0.1520
 1017MOL0     C37176   1.154   9.908   7.979 -0.0581 -0.4178  0.0842
 1017MOL0     N37177   1.034   9.830   7.934  0.0162 -0.3224  0.1372
 1017MOL0     C37178   0.908   9.879   7.917 -0.0171 -0.0094 -0.1761
 1017MOL0     C37179   0.835   9.777   7.874 -0.1209  0.1560  0.6331
 1017MOL0     C37180   0.689   9.772   7.849  0.1101  0.0437 -0.2408
 1017MOL0     C37181   0.649   9.805   7.706 -0.3837  0.2908 -0.4193
 1017MOL0     C37182   0.495   9.839   7.704  0.4994 -0.4374 -0.4695
 1017MOL0     C37183   0.422   9.804   7.577  0.2581 -0.5361  0.2965
 1017MOL0     O37184   0.278   9.810   7.589 -0.9800 -0.0690 -0.7178
 1017MOL0     C37185   0.202   9.887   7.503  0.5022 -1.0071  0.0723
 1017MOL0     C37186   0.122   9.984   7.558 -0.5835 -0.5140 -0.1909
 1017MOL0     C37187   0.044  10.063   7.476  0.0513 -0.5855 -0.0160
 1017MOL0     C37188  -0.040  10.165   7.550 -0.7705  0.2758 -0.2620
 1017MOL0     C37189   0.035  10.057   7.333 -0.3357 -0.3892 -0.1167
 1017MOL0     C37190  -0.058  10.135   7.247  0.0374  0.1843  0.0311
 1017MOL0     O37191  -0.092  10.268   7.274  0.4984  0.1325  0.3886
 1017MOL0     C37192  -0.201  10.314   7.189  0.5883  0.7239  0.5469
 1017MOL0     C37193  -0.194  10.365   7.062  0.5112 -0.3532  0.9923
 1017MOL0     C37194  -0.318  10.387   6.994 -0.9751 -0.2683 -0.1608
 1017MOL0     C37195  -0.443  10.384   7.055  1.0450 -1.1233 -0.0372
 1017MOL0     O37196  -0.544  10.420   6.973 -0.1382  0.1079  0.3095
 1017MOL0     C37197  -0.669  10.383   7.013  0.3779  0.8569 -0.0788
 1017MOL0     C37198  -0.751  10.375   6.883 -1.3673 -0.4499 -0.3090
 1017MOL0     C37199  -0.869  10.272   6.890 -0.3941  0.0150 -0.5111
 1017MOL0     C37200  -0.908  10.244   6.739 -0.1102 -0.6269 -0.1608
 1017MOL0     C37201  -1.057  10.212   6.718  0.0558  0.4125  0.1486
 1017MOL0     C37202  -1.100  10.218   6.571 -0.2047 -0.4362  0.0417
 1017MOL0     C37203  -1.252  10.205   6.573  0.0201 -0.0788  0.0077
 1017MOL0     C37204  -1.305  10.150   6.437  0.1560 -0.2847  0.5868
 1017MOL0    Cl37205  -1.476  10.214   6.424  0.1807 -0.0721  0.0235
 1017MOL0     C37206  -0.442  10.350   7.190 -0.3982  0.6855 -0.1317
 1017MOL0     C37207  -0.323  10.311   7.262 -0.4161 -0.7220  0.4980
 1017MOL0     O37208  -0.089  10.078   7.142 -0.4775 -0.4257  1.0606
 1017MOL0     C37209   0.124   9.958   7.284  0.8334  0.1457  0.3259
 1017MOL0     C37210   0.202   9.871   7.364 -0.4845  0.1706 -0.1453
 1017MOL0     N37211   0.919   9.665   7.856  0.1088  0.5677 -0.7152
 1017MOL0     N37212   1.035   9.697   7.896  0.2964 -0.2207  0.5563
 1017MOL0     C37213   1.989   9.723   8.740  0.7411 -0.8564  0.0721
 1017MOL0     C37214   2.102   9.730   8.826  0.5140  0.9283 -0.1127
 1017MOL0     C37215   2.484   9.798   9.025 -0.4627  0.0870  0.1186
 1017MOL0     C37216   2.525   9.871   9.139 -0.2348 -0.4142 -0.5702
 1017MOL0     C37217   2.649   9.844   9.199 -0.0602  0.1277  0.7818
 1017MOL0     C37218   2.724   9.745   9.137  0.3937 -0.1860 -0.0736
 1017MOL0     O37219   2.843   9.700   9.190 -0.1010  0.7412  1.0381
 1017MOL0     C37220   2.875   9.735   9.321  0.9924  0.3854 -1.0019
 1017MOL0     C37221   2.975   9.854   9.334 -0.1634  0.1976  0.4374
 1017MOL0     C37222   3.118   9.809   9.293  0.5603 -0.1457  0.5211
 1017MOL0     C37223   3.127   9.752   9.154 -0.6213  0.0266 -0.5533
 1017MOL0     C37224   3.259   9.772   9.102 -0.5262  0.1713  0.2016
 1017MOL0     C37225   3.376   9.762   9.059  0.1506 -0.7988 -0.0040
 1017MOL0     C37226   2.698   9.678   9.019  0.0848  0.6901 -0.4201
 1017MOL0     C37227   2.573   9.708   8.962 -0.2110 -0.8382  0.2134
 1017MOL0     H37228   2.301   9.942   8.667 -1.6683  1.9726 -2.3500
 1017MOL0     H37229   2.087   9.962   8.514  0.0490  1.1520 -0.8974
 1017MOL0     H37230   1.723   9.882   8.669  2.2977 -0.9649  1.9881
 1017MOL0     H37231   1.837  10.007   8.639  0.6397 -0.9808  0.1458
 1017MOL0     H37232   1.668  10.069   8.482  1.3947  1.3042 -1.7054
 1017MOL0     H37233   1.760   9.960   8.376 -0.4766  3.5138  0.6145
 1017MOL0     H37234   1.629   9.776   8.416 -0.8278 -0.0578 -0.9131
 1017MOL0     H37235   1.516   9.874   8.517 -0.8224 -0.9195 -0.0278
 1017MOL0     H37236   1.497  10.040   8.335 -1.3485 -0.8009  2.5368
 1017MOL0     H37237   1.598   9.970   8.225  0.2894  1.4918 -0.5593
 1017MOL0     H37238   1.467   9.767   8.223  1.7551 -0.2193  2.5746
 1017MOL0     H37239   1.343   9.828   8.322 -0.7070  1.4122 -1.1236
 1017MOL0     H37240   1.317  10.020   8.142 -0.5590 -0.2662  1.0173
 1017MOL0     H37241   1.432   9.947   8.043 -0.0282 -0.8857 -0.6863
 1017MOL0     H37242   1.291   9.748   8.011 -2.4414 -0.2241 -0.3677
 1017MOL0     H37243   1.195   9.798   8.160  3.0458  0.2589  1.6258
 1017MOL0     H37244   1.197   9.953   7.889  0.3784 -0.3458  0.3286
 1017MOL0     H37245   1.116   9.997   8.030 -0.2348 -0.2303 -0.3742
 1017MOL0     H37246   0.870   9.981   7.917 -1.9616 -0.6255 -3.1104
 1017MOL0     H37247   0.646   9.675   7.874 -1.3998  0.4992 -0.9137
 1017MOL0     H37248   0.638   9.844   7.914  0.2528  0.8723 -1.0234
 1017MOL0     H37249   0.667   9.726   7.631 -1.2361  0.9538 -1.3438
 1017MOL0     H37250   0.711   9.890   7.679  0.2091 -0.0306 -0.0805
 1017MOL0     H37251   0.478   9.945   7.724 -2.1798 -0.9633  0.4040
 1017MOL0     H37252   0.447   9.793   7.790  3.9033 -2.8472  0.3457
 1017MOL0     H37253   0.450   9.706   7.537 -3.2630 -0.4422 -3.0612
 1017MOL0     H37254   0.451   9.878   7.502  0.1890 -2.1115 -1.3428
 1017MOL0     H37255   0.123   9.987   7.666 -1.8869 -5.2749  0.1779
 1017MOL0     H37256  -0.003  10.258   7.506 -1.2902 -0.2914 -1.9725
 1017MOL0     H37257  -0.146  10.145   7.532 -0.2726 -2.5412 -0.4821
 1017MOL0     H37258  -0.017  10.171   7.657  1.1911 -0.1974 -0.6300
 1017MOL0     H37259  -0.099  10.373   7.009  0.0057 -2.6045 -0.4062
 1017MOL0     H37260  -0.316  10.422   6.891  1.4221  0.8038  0.1828
 1017MOL0     H37261  -0.682  10.292   7.071  0.3766 -0.1731 -1.6395
 1017MOL0     H37262  -0.717  10.463   7.071 -2.1960  0.2111 -1.1836
 1017MOL0     H37263  -0.787  10.476   6.863  1.0172  0.5009 -0.0372
 1017MOL0     H37264  -0.686  10.336   6.804 -0.7549  0.2421 -0.1556
 1017MOL0     H37265  -0.952  10.324   6.939  1.6582  2.1405  0.9570
 1017MOL0     H37266  -0.850  10.181   6.949  1.4005  2.2930  2.7324
 1017MOL0     H37267  -0.898  10.336   6.682  2.0007 -1.2726 -0.9016
 1017MOL0     H37268  -0.841  10.173   6.690 -1.8863 -0.9557 -2.2730
 1017MOL0     H37269  -1.110  10.291   6.772 -1.6913 -0.0210 -0.8443
 1017MOL0     H37270  -1.072  10.109   6.751  0.1838 -0.5749 -2.5782
 1017MOL0     H37271  -1.067  10.311   6.522 -0.9121 -1.1552 -1.8992
 1017MOL0     H37272  -1.056  10.141   6.507  1.4790 -1.1008  1.8728
 1017MOL0     H37273  -1.297  10.302   6.600  0.7519  0.1399  0.4813
 1017MOL0     H37274  -1.289  10.137   6.650  1.3555  0.4816  1.1885
 1017MOL0     H37275  -1.307  10.041   6.428 -2.3769 -0.1179 -2.9860
 1017MOL0     H37276  -1.243  10.193   6.358  0.9163  1.1578  1.9162
 1017MOL0     H37277  -0.531  10.366   7.250  0.6570  2.5649  1.0499
 1017MOL0     H37278  -0.320  10.295   7.369 -0.9851  2.1618  1.0205
 1017MOL0     H37279   0.110   9.947   7.177 -0.2591 -0.2019  0.4948
 1017MOL0     H37280   0.258   9.798   7.306 -2.3012  0.2553 -2.1317
 1017MOL0     H37281   1.909   9.653   8.761 -1.9904  1.8051 -0.7531
 1017MOL0     H37282   2.108   9.667   8.914 -0.3396  1.8959  0.6604
 1017MOL0     H37283   2.469   9.953   9.182  0.9997 -0.8356  2.1068
 1017MOL0     H37284   2.668   9.907   9.285 -1.5278  2.5647 -0.5356
 1017MOL0     H37285   2.782   9.755   9.374  1.7093 -0.8146  0.8034
 1017MOL0     H37286   2.921   9.645   9.364 -1.7195 -1.0523 -0.8985
 1017MOL0     H37287   2.973   9.889   9.437 -0.7527  1.0572  0.1423
 1017MOL0     H37288   2.936   9.930   9.266  0.2209 -0.5227 -0.6144
 1017MOL0     H37289   3.159   9.732   9.359  1.3918 -0.3109 -0.1669
 1017MOL0     H37290   3.186   9.892   9.315  0.4400  0.0649  0.1016
 1017MOL0     H37291   3.059   9.803   9.085  1.0657 -1.2222 -3.3433
 1017MOL0     H37292   3.097   9.646   9.154  0.0599 -0.1857  0.6901
 1017MOL0     H37293   3.481   9.778   9.040  0.3520  2.4861  2.7701
 1017MOL0     H37294   2.755   9.600   8.970  0.6458  2.1616 -2.2648
 1017MOL0     H37295   2.546   9.661   8.868  0.1781  1.0901 -0.9148
 1018MOL0     O37296   7.445   2.739   6.415  0.2382 -0.7993  0.0701
 1018MOL0     C37297   7.461   2.679   6.517  0.3172  0.5432 -0.3176
 1018MOL0     O37298   7.358   2.640   6.598  0.2507  0.3141 -0.0948
 1018MOL0     C37299   7.231   2.660   6.566  0.2686 -0.3231 -1.6723
 1018MOL0     C37300   7.185   2.787   6.544  1.1727  0.5380  0.2885
 1018MOL0     C37301   7.057   2.805   6.489 -0.2079 -0.4115  0.0364
 1018MOL0     C37302   6.970   2.696   6.464 -0.5770 -0.2077  0.0490
 1018MOL0     O37303   6.850   2.724   6.402  0.1844  0.5210 -0.3391
 1018MOL0     C37304   6.748   2.630   6.392  0.6728 -1.0297  0.4679
 1018MOL0     C37305   6.692   2.589   6.528  0.5571 -0.0746 -0.6554
 1018MOL0     C37306   6.542   2.539   6.500  0.3137 -0.4132 -0.1424
 1018MOL0     C37307   6.535   2.415   6.414 -0.6406 -0.9186 -0.4646
 1018MOL0     C37308   6.400   2.351   6.422  0.0897 -0.2101 -0.6732
 1018MOL0     C37309   6.289   2.455   6.384  0.2297  0.0312 -0.0755
 1018MOL0     C37310   6.155   2.382   6.340  0.9829 -0.6153  0.2645
 1018MOL0     C37311   6.034   2.465   6.344  0.1657 -0.6141 -0.5220
 1018MOL0     N37312   6.036   2.552   6.222 -0.5455 -0.1711 -0.8387
 1018MOL0     C37313   6.003   2.514   6.098  0.4324 -0.1134 -0.0752
 1018MOL0     C37314   6.000   2.619   6.020  0.6909 -0.5310 -0.1267
 1018MOL0     C37315   5.956   2.616   5.873 -0.2900 -0.0349 -0.5750
 1018MOL0     C37316   5.854   2.510   5.839  0.2377  0.1525  1.5736
 1018MOL0     C37317   5.727   2.522   5.931 -0.0652 -0.2855 -0.9489
 1018MOL0     C37318   5.607   2.471   5.841  0.6869 -0.6349 -0.2887
 1018MOL0     O37319   5.487   2.472   5.916  0.0647  0.1384  0.5072
 1018MOL0     C37320   5.367   2.448   5.856  1.0658 -0.3877  0.3346
 1018MOL0     C37321   5.252   2.472   5.937 -0.2101 -0.5595  0.5925
 1018MOL0     C37322   5.116   2.433   5.897 -1.4012 -0.6059  0.5921
 1018MOL0     C37323   4.998   2.451   5.992  0.4386 -1.1689 -0.0163
 1018MOL0     C37324   5.104   2.370   5.771 -0.1227 -0.2602  0.6464
 1018MOL0     C37325   4.972   2.310   5.727  0.0853  0.7818  0.9993
 1018MOL0     O37326   4.892   2.261   5.823  0.1099 -0.0670  0.0748
 1018MOL0     C37327   4.777   2.186   5.796 -0.6055 -0.9654 -0.0550
 1018MOL0     C37328   4.779   2.057   5.764  1.2890  1.4552  0.0784
 1018MOL0     C37329   4.663   1.986   5.722  0.1748 -0.0473  0.1956
 1018MOL0     C37330   4.542   2.059   5.709 -0.9228  0.0067  0.6007
 1018MOL0     O37331   4.419   2.005   5.681 -0.9404 -0.6976 -0.6370
 1018MOL0     C37332   4.424   1.924   5.561  0.3790  0.3265 -0.0830
 1018MOL0     C37333   4.287   1.926   5.496  0.4049 -0.2788  0.1946
 1018MOL0     C37334   4.162   1.909   5.586 -0.1892 -0.5268 -0.1445
 1018MOL0     C37335   4.033   1.933   5.512 -1.0830 -0.1192  0.2826
 1018MOL0     C37336   3.912   1.988   5.598 -0.5604  0.3171  0.4930
 1018MOL0     C37337   3.778   1.962   5.520  0.0802  0.5030 -0.0366
 1018MOL0     C37338   3.634   2.004   5.588 -0.5241 -0.0943  0.5554
 1018MOL0     C37339   3.525   2.034   5.482 -0.3904  0.2931 -0.1495
 1018MOL0    Cl37340   3.540   2.196   5.403 -0.2897 -0.1483  0.3529
 1018MOL0     C37341   4.541   2.191   5.756  0.3004 -0.5709  0.3014
 1018MOL0     C37342   4.658   2.255   5.794 -0.4322  0.6260  0.2535
 1018MOL0     O37343   4.967   2.284   5.607 -0.2391  0.0930  1.0674
 1018MOL0     C37344   5.215   2.351   5.681  0.1794 -0.3019 -1.1663
 1018MOL0     C37345   5.341   2.399   5.728  0.4352 -0.2715 -0.6146
 1018MOL0     N37346   6.025   2.730   6.101  0.1897  0.3074  0.3632
 1018MOL0     N37347   6.033   2.690   6.226 -0.7148  0.2099  0.2180
 1018MOL0     C37348   7.014   2.569   6.500 -0.7838 -0.3309 -0.9091
 1018MOL0     C37349   7.141   2.555   6.559  0.6193 -0.5245  0.7331
 1018MOL0     C37350   7.603   2.659   6.554 -0.7881  0.3183  0.3411
 1018MOL0     C37351   7.635   2.622   6.682  0.3831 -0.2987  0.4968
 1018MOL0     C37352   7.765   2.582   6.713 -0.4197 -0.4686 -0.2710
 1018MOL0     C37353   7.862   2.573   6.615 -0.0609  0.5049  0.5070
 1018MOL0     O37354   7.983   2.516   6.632  0.3375  0.1544 -0.4656
 1018MOL0     C37355   8.032   2.482   6.761  0.6669 -0.9194 -0.1232
 1018MOL0     C37356   8.160   2.393   6.756 -0.3944  0.7327  0.7366
 1018MOL0     C37357   8.155   2.294   6.639  0.5939 -0.7113 -0.3274
 1018MOL0     C37358   8.298   2.248   6.596  0.1431  0.6436  0.3590
 1018MOL0     C37359   8.364   2.171   6.696 -0.2139  0.2916 -0.5816
 1018MOL0     C37360   8.423   2.111   6.786 -0.3147 -0.8392 -0.5933
 1018MOL0     C37361   7.830   2.607   6.485 -0.0697  0.7580 -0.9097
 1018MOL0     C37362   7.703   2.655   6.454 -0.1746 -0.2004  0.0558
 1018MOL0     H37363   7.233   2.882   6.560  0.3552  1.2773 -1.3595
 1018MOL0     H37364   7.009   2.901   6.480 -1.7034 -1.2881 -6.0917
 1018MOL0     H37365   6.676   2.680   6.327  1.7527 -2.9282 -2.3969
 1018MOL0     H37366   6.776   2.542   6.333  0.7568 -0.1654 -0.8144
 1018MOL0     H37367   6.744   2.505   6.574 -1.4148 -1.4333 -0.7651
 1018MOL0     H37368   6.691   2.678   6.593 -2.8751 -0.6919  0.3872
 1018MOL0     H37369   6.491   2.505   6.591  1.9936 -3.4858 -0.2058
 1018MOL0     H37370   6.489   2.627   6.464  3.6867  1.8950  0.0864
 1018MOL0     H37371   6.547   2.449   6.311 -0.0715  0.7499  0.1152
 1018MOL0     H37372   6.611   2.347   6.453 -0.1943  0.6409  1.5908
 1018MOL0     H37373   6.404   2.276   6.343 -0.5993 -0.8664 -0.0919
 1018MOL0     H37374   6.379   2.298   6.515 -1.3223 -4.4146 -3.1298
 1018MOL0     H37375   6.274   2.519   6.472 -2.4663  0.2953 -0.6163
 1018MOL0     H37376   6.323   2.526   6.308 -0.5256  1.5734  0.9549
 1018MOL0     H37377   6.173   2.334   6.243 -0.1567  1.6208 -1.1491
 1018MOL0     H37378   6.124   2.299   6.404 -0.7849 -0.2371 -0.0460
 1018MOL0     H37379   6.032   2.528   6.434 -0.4811  0.3072 -1.1546
 1018MOL0     H37380   5.943   2.405   6.341 -0.1490 -0.1437 -0.5072
 1018MOL0     H37381   5.985   2.411   6.068  1.3721 -0.2770 -0.1039
 1018MOL0     H37382   5.908   2.706   5.833 -1.6793 -1.1562 -1.5395
 1018MOL0     H37383   6.050   2.610   5.819 -0.0952 -0.6626 -0.1870
 1018MOL0     H37384   5.909   2.416   5.851  1.0287  0.1744 -1.2863
 1018MOL0     H37385   5.823   2.514   5.734 -1.5653  0.6926  2.0966
 1018MOL0     H37386   5.700   2.627   5.942  0.5865 -0.2592  0.7821
 1018MOL0     H37387   5.740   2.472   6.028  0.2716 -0.9628 -1.3346
 1018MOL0     H37388   5.627   2.373   5.797 -2.5152 -2.9005  2.8128
 1018MOL0     H37389   5.587   2.540   5.758 -0.6640  0.9267  1.2517
 1018MOL0     H37390   5.284   2.500   6.037 -0.0441  0.3467  0.2956
 1018MOL0     H37391   5.025   2.509   6.081 -1.5066 -0.9721  0.4757
 1018MOL0     H37392   4.921   2.505   5.936  1.5569 -0.9607 -1.4433
 1018MOL0     H37393   4.956   2.362   6.037  0.9150 -2.4243 -1.9173
 1018MOL0     H37394   4.871   2.001   5.783  0.4986 -1.0108 -2.5854
 1018MOL0     H37395   4.667   1.880   5.699 -0.7998  0.5919 -3.6444
 1018MOL0     H37396   4.503   1.951   5.491  0.0573 -1.1107 -1.0305
 1018MOL0     H37397   4.442   1.824   5.601  0.3471 -0.2476 -1.4715
 1018MOL0     H37398   4.284   2.029   5.458  3.1457  1.4896  4.0722
 1018MOL0     H37399   4.284   1.853   5.416  0.9579 -1.4688  1.2234
 1018MOL0     H37400   4.176   1.983   5.665 -0.4633 -0.0426 -0.5463
 1018MOL0     H37401   4.163   1.806   5.625  0.7126 -0.7542 -0.7374
 1018MOL0     H37402   4.053   2.016   5.444  1.1501 -0.6654  0.2125
 1018MOL0     H37403   4.002   1.847   5.452  0.7968 -0.1103 -0.7509
 1018MOL0     H37404   3.931   2.094   5.615 -0.3536  0.6687 -1.6707
 1018MOL0     H37405   3.895   1.936   5.693  1.2028  0.3457  0.8534
 1018MOL0     H37406   3.783   2.022   5.429  0.7420  0.8010  0.1902
 1018MOL0     H37407   3.763   1.856   5.495 -0.0314  0.5440 -0.1430
 1018MOL0     H37408   3.647   2.091   5.652 -1.1365  1.2503 -1.0751
 1018MOL0     H37409   3.599   1.918   5.646  0.7694 -0.4131  0.9013
 1018MOL0     H37410   3.429   2.034   5.534  1.1672  1.2900  2.9927
 1018MOL0     H37411   3.519   1.958   5.404  3.0759  1.9069 -2.1995
 1018MOL0     H37412   4.451   2.252   5.752 -0.6771 -1.3605  4.7827
 1018MOL0     H37413   4.652   2.359   5.824 -4.9901  0.0869  2.1117
 1018MOL0     H37414   5.206   2.313   5.580  1.0826  4.3326 -3.2638
 1018MOL0     H37415   5.420   2.394   5.653 -2.6278  1.6986 -4.3694
 1018MOL0     H37416   6.944   2.488   6.483 -0.2262 -1.3848  1.4903
 1018MOL0     H37417   7.181   2.457   6.585 -1.0244 -1.6913 -0.8722
 1018MOL0     H37418   7.556   2.637   6.754 -4.1860  0.5691 -4.0652
 1018MOL0     H37419   7.778   2.550   6.816  1.8392 -1.4673 -0.7964
 1018MOL0     H37420   8.068   2.573   6.809 -1.7416 -0.6217  1.2965
 1018MOL0     H37421   7.951   2.429   6.811  0.4710 -0.7519 -0.2604
 1018MOL0     H37422   8.178   2.342   6.851  2.7525  4.5161  2.4619
 1018MOL0     H37423   8.242   2.461   6.730 -0.9636  0.4841 -1.9532
 1018MOL0     H37424   8.111   2.340   6.550  1.4446  0.5101 -0.1442
 1018MOL0     H37425   8.093   2.206   6.660  0.3995 -0.3832  0.5243
 1018MOL0     H37426   8.361   2.329   6.558  1.9792 -1.7916 -2.2366
 1018MOL0     H37427   8.296   2.177   6.513 -1.2253 -1.2370  1.8923
 1018MOL0     H37428   8.458   2.049   6.865 -4.5089 -3.2825 -0.3269
 1018MOL0     H37429   7.899   2.588   6.403  0.4068 -2.4393  0.1136
 1018MOL0     H37430   7.689   2.676   6.348  0.2406 -0.7328 -0.1071
 1019MOL0     O37431   2.079   4.119   6.758 -0.1218 -0.0482  1.1216
 1019MOL0     C37432   2.021   4.019   6.731  0.1029  0.5801  0.0668
 1019MOL0     O37433   1.886   4.012   6.713 -0.3543  0.2681 -0.5569
 1019MOL0     C37434   1.811   4.126   6.693  0.5835  0.6606 -0.6775
 1019MOL0     C37435   1.671   4.111   6.715  0.8962 -0.4342 -0.3223
 1019MOL0     C37436   1.590   4.221   6.703  0.4959  0.2233 -0.1251
 1019MOL0     C37437   1.639   4.347   6.685 -0.1205 -0.2613 -0.4119
 1019MOL0     O37438   1.545   4.439   6.677  0.2188 -0.1204  0.1289
 1019MOL0     C37439   1.568   4.563   6.614 -0.5425  0.5002  0.4994
 1019MOL0     C37440   1.421   4.618   6.607 -0.3160  0.6710 -0.3362
 1019MOL0     C37441   1.418   4.747   6.526  0.2953 -0.4576  0.3868
 1019MOL0     C37442   1.461   4.865   6.609 -0.5196  0.4076 -0.2517
 1019MOL0     C37443   1.449   4.992   6.530  0.4498  1.0005  0.1079
 1019MOL0     C37444   1.475   5.121   6.600 -0.1066 -0.0414  0.6876
 1019MOL0     C37445   1.495   5.234   6.499  0.2779 -0.5984  0.4424
 1019MOL0     C37446   1.552   5.362   6.560 -0.2799  0.3539 -0.3948
 1019MOL0     N37447   1.581   5.476   6.474  0.0575  1.2316 -0.4524
 1019MOL0     C37448   1.553   5.480   6.338  0.2081 -0.1919 -1.1282
 1019MOL0     C37449   1.612   5.599   6.298  0.9769  0.5267 -0.1261
 1019MOL0     C37450   1.612   5.645   6.160  0.0591 -1.2145 -0.1857
 1019MOL0     C37451   1.474   5.709   6.146  0.0434  0.3933 -0.6207
 1019MOL0     C37452   1.464   5.766   6.009  0.5333 -0.0461 -0.3259
 1019MOL0     C37453   1.331   5.835   5.971 -0.3523 -0.1348 -0.6977
 1019MOL0     O37454   1.311   5.956   6.050  0.6685  0.5402  1.0409
 1019MOL0     C37455   1.213   5.952   6.152 -0.2941 -0.1492  0.4936
 1019MOL0     C37456   1.081   5.909   6.134  0.7667  1.7111 -0.0493
 1019MOL0     C37457   0.985   5.919   6.230 -0.7585  0.7973  1.7883
 1019MOL0     C37458   0.852   5.863   6.172 -0.0836  0.4763 -0.3590
 1019MOL0     C37459   1.013   5.960   6.364 -0.0389  0.0133 -0.2614
 1019MOL0     C37460   0.921   5.937   6.483  0.8052 -0.5338  0.9373
 1019MOL0     O37461   0.971   5.958   6.602 -0.1809 -1.2953 -0.4774
 1019MOL0     C37462   0.929   5.895   6.712  0.2929 -0.2186 -0.1348
 1019MOL0     C37463   0.906   5.752   6.709 -0.0799  0.0545 -0.0349
 1019MOL0     C37464   0.881   5.678   6.824  0.7906 -0.2422  0.6259
 1019MOL0     C37465   0.871   5.745   6.949 -0.6810  0.8319  0.5733
 1019MOL0     O37466   0.866   5.675   7.068  0.6254  0.5667 -0.3556
 1019MOL0     C37467   0.933   5.550   7.074 -0.5330 -0.3863  0.4579
 1019MOL0     C37468   0.944   5.491   7.213  0.3670 -0.0976  0.2793
 1019MOL0     C37469   1.001   5.584   7.317 -0.3119  0.5792  0.5638
 1019MOL0     C37470   0.999   5.534   7.461 -0.2087 -1.0799  0.2660
 1019MOL0     C37471   1.109   5.609   7.536  0.2024 -0.1527 -0.5725
 1019MOL0     C37472   1.120   5.582   7.688 -0.5777 -0.4249  0.5862
 1019MOL0     C37473   1.250   5.631   7.748  0.9312 -0.1906  0.1150
 1019MOL0     C37474   1.248   5.621   7.901 -0.3641  0.3140 -0.1776
 1019MOL0    Cl37475   1.411   5.669   7.961  0.2015  0.3030 -0.3693
 1019MOL0     C37476   0.888   5.885   6.956 -1.9303 -0.0216  0.7882
 1019MOL0     C37477   0.922   5.962   6.841 -0.1538  0.0326 -0.1843
 1019MOL0     O37478   0.805   5.906   6.462 -0.8248 -0.3716 -0.0498
 1019MOL0     C37479   1.150   6.010   6.385  0.0839  0.2356 -0.6194
 1019MOL0     C37480   1.242   6.007   6.276 -0.5645  0.9343  0.2990
 1019MOL0     N37481   1.660   5.665   6.405  0.1762  0.1402 -0.1298
 1019MOL0     N37482   1.634   5.591   6.505 -0.0803  0.0278  0.9676
 1019MOL0     C37483   1.771   4.360   6.659  0.0973  0.2155 -0.0021
 1019MOL0     C37484   1.855   4.247   6.656  0.0847  0.3095 -0.6452
 1019MOL0     C37485   2.095   3.897   6.754  0.6801  0.7654 -0.1774
 1019MOL0     C37486   2.226   3.896   6.826  0.2409 -0.0294  0.0073
 1019MOL0     C37487   2.278   3.774   6.867 -0.0947  0.2961 -0.4798
 1019MOL0     C37488   2.218   3.651   6.833 -0.6133  0.6238  0.1813
 1019MOL0     O37489   2.266   3.525   6.848  0.0844 -0.1534  0.2171
 1019MOL0     C37490   2.409   3.517   6.873  0.4583 -0.8432 -1.0566
 1019MOL0     C37491   2.453   3.370   6.887 -0.1013 -0.2429 -0.3186
 1019MOL0     C37492   2.463   3.324   7.031  0.5508 -0.2772  0.5369
 1019MOL0     C37493   2.531   3.186   7.037 -0.2175  0.1432 -0.8884
 1019MOL0     C37494   2.657   3.178   6.959  0.3779  0.5799 -0.0310
 1019MOL0     C37495   2.759   3.162   6.897 -0.5297 -0.2813  0.7246
 1019MOL0     C37496   2.094   3.658   6.766  0.1031 -0.3881  0.3982
 1019MOL0     C37497   2.039   3.775   6.722  0.4476  0.0882  1.0650
 1019MOL0     H37498   1.627   4.015   6.741  2.9513 -1.1046  0.9496
 1019MOL0     H37499   1.485   4.197   6.716  1.2022 -2.9421  0.5392
 1019MOL0     H37500   1.624   4.621   6.688 -1.4426  1.7723  0.2017
 1019MOL0     H37501   1.620   4.562   6.518  1.2706  1.0801  1.4122
 1019MOL0     H37502   1.370   4.538   6.552  1.1738 -0.1380 -0.6019
 1019MOL0     H37503   1.373   4.636   6.703 -3.2313  1.5152 -1.8451
 1019MOL0     H37504   1.472   4.750   6.431  0.0105 -1.0961  0.1975
 1019MOL0     H37505   1.316   4.771   6.493  0.4690  0.3832  0.4268
 1019MOL0     H37506   1.402   4.874   6.701 -0.1150  0.5771 -0.0079
 1019MOL0     H37507   1.560   4.852   6.655 -0.1410  2.5350 -0.3850
 1019MOL0     H37508   1.516   4.987   6.443  0.4656 -0.9896  0.2062
 1019MOL0     H37509   1.345   4.993   6.498  1.1014  0.9846 -2.2638
 1019MOL0     H37510   1.391   5.148   6.666 -0.2871  0.9783  0.0709
 1019MOL0     H37511   1.567   5.102   6.656 -1.3047 -3.2863  1.7394
 1019MOL0     H37512   1.570   5.214   6.423 -0.0649 -0.0832 -0.0394
 1019MOL0     H37513   1.401   5.260   6.450 -0.5984  2.4525  3.3061
 1019MOL0     H37514   1.640   5.337   6.620 -2.4437  0.8899  3.3709
 1019MOL0     H37515   1.477   5.403   6.629 -0.1293 -0.3918  0.2263
 1019MOL0     H37516   1.487   5.417   6.279 -1.3549  2.4350 -2.3563
 1019MOL0     H37517   1.699   5.710   6.149 -0.5792 -0.0426  1.2980
 1019MOL0     H37518   1.631   5.566   6.087  0.8320  0.2217 -1.6080
 1019MOL0     H37519   1.439   5.792   6.209 -3.6617  0.2314 -2.2042
 1019MOL0     H37520   1.402   5.628   6.158 -0.1130  0.8070  1.8935
 1019MOL0     H37521   1.481   5.688   5.935 -0.6362 -0.9502  0.3314
 1019MOL0     H37522   1.550   5.834   5.997 -0.5975  0.8966 -5.6585
 1019MOL0     H37523   1.257   5.755   5.978  2.3455 -3.0091 -2.2382
 1019MOL0     H37524   1.332   5.860   5.864 -3.4509  1.4867 -0.4742
 1019MOL0     H37525   1.059   5.879   6.032  0.7184  2.5886 -0.3082
 1019MOL0     H37526   0.773   5.930   6.206 -0.5439 -0.1335 -0.2052
 1019MOL0     H37527   0.853   5.844   6.064 -0.9904 -0.6269 -0.1945
 1019MOL0     H37528   0.828   5.764   6.212 -0.7960 -0.1356 -2.1660
 1019MOL0     H37529   0.920   5.702   6.614 -0.9348 -1.5104  0.6220
 1019MOL0     H37530   0.855   5.576   6.800 -1.1904  0.3244  0.1649
 1019MOL0     H37531   0.873   5.481   7.014 -0.5881 -0.4547  0.5915
 1019MOL0     H37532   1.034   5.559   7.032  0.7174  2.5085  3.5716
 1019MOL0     H37533   0.836   5.484   7.234 -0.1010  1.3198 -1.4503
 1019MOL0     H37534   0.986   5.390   7.206  0.3329 -0.0265 -1.3548
 1019MOL0     H37535   0.952   5.682   7.318  0.7552  1.2054 -1.5214
 1019MOL0     H37536   1.105   5.600   7.285 -0.3655 -0.3090 -0.0925
 1019MOL0     H37537   0.908   5.572   7.508 -1.2748 -1.2681 -1.5624
 1019MOL0     H37538   1.015   5.426   7.471 -0.6730 -1.4369 -2.2133
 1019MOL0     H37539   1.088   5.715   7.519  1.3009  0.1075 -0.4099
 1019MOL0     H37540   1.206   5.593   7.487  1.4114  3.3449  0.4517
 1019MOL0     H37541   1.027   5.615   7.734 -1.0003 -0.3411 -0.3021
 1019MOL0     H37542   1.103   5.474   7.695 -2.3072 -0.5769 -3.4371
 1019MOL0     H37543   1.276   5.734   7.722  1.3376 -0.5617 -0.9661
 1019MOL0     H37544   1.336   5.574   7.712  0.6500 -0.7343  0.2921
 1019MOL0     H37545   1.240   5.517   7.933  0.7177  0.1642 -0.3814
 1019MOL0     H37546   1.159   5.672   7.941 -0.9283 -0.7047 -0.0953
 1019MOL0     H37547   0.868   5.929   7.053  3.5808  0.4157  2.0465
 1019MOL0     H37548   0.946   6.067   6.857 -0.1538 -0.2551  1.9239
 1019MOL0     H37549   1.173   6.060   6.479 -2.4542  0.7400 -0.1908
 1019MOL0     H37550   1.346   6.038   6.277  1.0172 -3.3918 -1.5630
 1019MOL0     H37551   1.803   4.460   6.630  1.5937  0.7197  2.9891
 1019MOL0     H37552   1.960   4.263   6.632  0.7980 -1.7500  0.8735
 1019MOL0     H37553   2.274   3.991   6.850  3.8322 -1.5784 -0.4072
 1019MOL0     H37554   2.373   3.775   6.918 -0.5738  0.6659  0.4313
 1019MOL0     H37555   2.467   3.548   6.786  1.4337 -2.7895 -1.1675
 1019MOL0     H37556   2.440   3.571   6.963 -1.4464 -0.9070 -0.3085
 1019MOL0     H37557   2.556   3.369   6.850  0.3220 -0.5878  0.8128
 1019MOL0     H37558   2.386   3.301   6.834 -1.3514  0.3282  0.4931
 1019MOL0     H37559   2.365   3.312   7.076  0.2612 -2.3872 -0.4935
 1019MOL0     H37560   2.531   3.387   7.088  1.3889 -0.8408  0.1869
 1019MOL0     H37561   2.465   3.113   6.991  0.4298 -1.2130  0.2691
 1019MOL0     H37562   2.544   3.145   7.138  0.0786  0.4981 -0.7778
 1019MOL0     H37563   2.840   3.138   6.830 -1.8935 -2.8243 -0.1634
 1019MOL0     H37564   2.058   3.568   6.717 -0.6658  0.2272 -0.2003
 1019MOL0     H37565   1.943   3.764   6.671  0.1733  1.0056  1.3582
 1020MOL0     O37566   8.060   8.408   3.715  0.6158  0.6900  0.3291
 1020MOL0     C37567   7.945   8.396   3.677 -1.3152  0.9954  0.9390
 1020MOL0     O37568   7.864   8.500   3.648  0.4673 -0.0768 -0.1148
 1020MOL0     C37569   7.898   8.625   3.684 -0.2744 -0.2013  0.1860
 1020MOL0     C37570   7.861   8.684   3.807 -0.1982 -0.8188 -0.3237
 1020MOL0     C37571   7.890   8.812   3.827 -0.7869  0.0661 -0.2373
 1020MOL0     C37572   7.975   8.881   3.737  0.4387 -0.4928 -0.5818
 1020MOL0     O37573   8.017   9.007   3.776 -0.4557  0.2001  0.0719
 1020MOL0     C37574   8.141   9.059   3.727  0.0198  0.2851 -0.3528
 1020MOL0     C37575   8.185   9.195   3.794  0.1473 -0.0674 -0.0088
 1020MOL0     C37576   8.124   9.323   3.747 -0.3928  0.0704 -0.1186
 1020MOL0     C37577   8.189   9.442   3.822 -0.4435 -0.3890 -0.8280
 1020MOL0     C37578   8.156   9.584   3.757 -0.6907 -0.5817  0.2554
 1020MOL0     C37579   8.149   9.705   3.853 -0.4250 -0.3088 -0.2648
 1020MOL0     C37580   8.156   9.834   3.775 -0.1715 -0.0100 -0.6578
 1020MOL0     C37581   8.102   9.950   3.845 -0.0760 -0.1521  0.4552
 1020MOL0     N37582   7.962   9.968   3.837 -0.8690  0.4769  0.5665
 1020MOL0     C37583   7.875   9.963   3.726  0.0961 -0.2575  0.5078
 1020MOL0     C37584   7.753   9.958   3.786  0.0761 -0.3569 -0.1048
 1020MOL0     C37585   7.624   9.945   3.701  0.1947 -0.5261 -0.2848
 1020MOL0     C37586   7.565  10.086   3.664 -1.0152  0.4720  0.2631
 1020MOL0     C37587   7.494  10.156   3.784  0.1417 -0.0235  0.5657
 1020MOL0     C37588   7.337  10.135   3.784 -0.2383  0.1139 -1.4590
 1020MOL0     O37589   7.302   9.998   3.817  0.4122 -0.1282  0.3411
 1020MOL0     C37590   7.184   9.978   3.885 -0.8915 -0.8637 -0.0161
 1020MOL0     C37591   7.164   9.879   3.980 -0.0075  0.5086 -0.3001
 1020MOL0     C37592   7.034   9.833   4.025 -0.0064  0.1374 -0.1506
 1020MOL0     C37593   7.024   9.714   4.114 -0.7192 -0.2459 -0.1704
 1020MOL0     C37594   6.922   9.903   3.973  0.4739  0.0491  0.1476
 1020MOL0     C37595   6.776   9.882   4.014  0.6622 -0.1927 -0.2406
 1020MOL0     O37596   6.679   9.927   3.922 -0.2029  0.8678  0.8713
 1020MOL0     C37597   6.554   9.974   3.968 -0.6656 -0.5195  0.7972
 1020MOL0     C37598   6.455   9.995   3.866  0.4832  0.3573  0.7136
 1020MOL0     C37599   6.326  10.040   3.886  0.3298  0.1341 -0.1952
 1020MOL0     C37600   6.284  10.046   4.019  0.0457 -0.0921 -0.8269
 1020MOL0     O37601   6.151  10.043   4.058 -0.6866 -0.4453 -0.9857
 1020MOL0     C37602   6.107  10.164   4.111 -0.2149  0.2067  0.0606
 1020MOL0     C37603   5.979  10.141   4.185  0.1689  0.3701 -0.3440
 1020MOL0     C37604   6.001  10.089   4.331  0.6514 -0.8797  0.0158
 1020MOL0     C37605   5.972  10.198   4.427  0.1538 -0.5106 -1.1963
 1020MOL0     C37606   5.991  10.165   4.581 -0.1165 -1.1455  0.7366
 1020MOL0     C37607   5.892  10.065   4.642 -0.2473  0.5969  1.1653
 1020MOL0     C37608   5.913  10.055   4.791 -0.4441 -0.1522 -0.0129
 1020MOL0     C37609   5.788   9.990   4.853  0.1597 -0.2512  0.0882
 1020MOL0    Cl37610   5.792   9.813   4.853 -0.0002 -0.0843  0.3335
 1020MOL0     C37611   6.383  10.035   4.118 -0.4067 -0.5517  0.7673
 1020MOL0     C37612   6.521  10.010   4.094 -0.1227 -0.7010 -0.4438
 1020MOL0     O37613   6.747   9.833   4.126 -0.7546  0.0355  0.1986
 1020MOL0     C37614   6.944  10.008   3.878 -0.2584 -0.7878 -0.0699
 1020MOL0     C37615   7.072  10.044   3.832 -0.1710  0.2614 -0.9117
 1020MOL0     N37616   7.760   9.960   3.923  0.3599  0.3805  0.7408
 1020MOL0     N37617   7.890   9.980   3.947 -0.4390 -0.2357  0.2790
 1020MOL0     C37618   8.022   8.815   3.629  0.0817  0.1535  0.8285
 1020MOL0     C37619   7.965   8.696   3.589  0.1722 -0.1124  0.0138
 1020MOL0     C37620   7.897   8.260   3.635  0.3673  0.9048  1.0612
 1020MOL0     C37621   7.765   8.235   3.608 -0.0034 -1.0177 -0.1931
 1020MOL0     C37622   7.724   8.122   3.545 -0.0345  0.3166 -1.2651
 1020MOL0     C37623   7.799   8.007   3.540 -0.5239 -0.2000  0.5579
 1020MOL0     O37624   7.758   7.883   3.490  0.3460  0.3198  0.1502
 1020MOL0     C37625   7.637   7.874   3.415  0.2129  0.6163  0.1397
 1020MOL0     C37626   7.612   7.726   3.387  0.6831 -0.5184  0.2029
 1020MOL0     C37627   7.580   7.641   3.517 -0.6962  0.0534  0.9716
 1020MOL0     C37628   7.585   7.499   3.472  0.7796 -0.6081 -0.4946
 1020MOL0     C37629   7.537   7.416   3.585  0.1084  0.4378 -0.3478
 1020MOL0     C37630   7.481   7.348   3.667 -0.8044  0.5703 -0.2988
 1020MOL0     C37631   7.932   8.019   3.589 -0.9593 -0.0894  0.0953
 1020MOL0     C37632   7.989   8.145   3.620 -1.0867  0.3477 -0.2320
 1020MOL0     H37633   7.797   8.635   3.880 -0.0049 -1.2091 -0.4132
 1020MOL0     H37634   7.844   8.853   3.916  1.9583  1.6008  0.6011
 1020MOL0     H37635   8.221   8.985   3.741 -0.7408 -0.9020 -1.9682
 1020MOL0     H37636   8.125   9.075   3.620 -3.2221 -3.3022 -0.6122
 1020MOL0     H37637   8.162   9.187   3.900  3.9684  0.3773  0.9845
 1020MOL0     H37638   8.290   9.208   3.768 -0.1333 -0.1139 -1.2688
 1020MOL0     H37639   8.151   9.333   3.641  2.0258  0.2586  0.4546
 1020MOL0     H37640   8.017   9.322   3.769 -0.1320 -2.5952  1.5092
 1020MOL0     H37641   8.169   9.434   3.929  0.6255  3.6736 -0.1351
 1020MOL0     H37642   8.298   9.444   3.807 -0.4813 -0.6748 -1.1630
 1020MOL0     H37643   8.223   9.615   3.677  0.2514  1.0251  1.5949
 1020MOL0     H37644   8.054   9.574   3.717 -1.7499  2.1506  1.9380
 1020MOL0     H37645   8.053   9.708   3.906 -1.5064  3.1456 -2.1066
 1020MOL0     H37646   8.232   9.700   3.924 -1.0332 -2.6627  0.3682
 1020MOL0     H37647   8.264   9.846   3.771  0.0056 -0.5987  1.3257
 1020MOL0     H37648   8.116   9.825   3.673 -2.5101  0.5549  0.1458
 1020MOL0     H37649   8.150  10.042   3.808 -0.3315  0.5337  1.7356
 1020MOL0     H37650   8.150   9.957   3.944 -0.5317  2.2659  0.5829
 1020MOL0     H37651   7.879   9.960   3.618 -2.7823 -0.3942  0.3401
 1020MOL0     H37652   7.649   9.895   3.606  2.0081 -1.5889  0.6856
 1020MOL0     H37653   7.547   9.882   3.746  1.4425 -2.8313 -1.1916
 1020MOL0     H37654   7.500  10.075   3.576  1.9728  0.6245 -2.1469
 1020MOL0     H37655   7.654  10.145   3.639 -1.8209  2.0461  0.9951
 1020MOL0     H37656   7.509  10.265   3.779 -0.8395  0.0598 -2.0944
 1020MOL0     H37657   7.539  10.133   3.881  2.5809 -0.4963 -0.5969
 1020MOL0     H37658   7.293  10.178   3.693 -0.5442 -0.3555 -1.5402
 1020MOL0     H37659   7.310  10.207   3.861  1.8755  1.6256 -2.0371
 1020MOL0     H37660   7.248   9.820   4.014 -1.2313  0.3310  2.7431
 1020MOL0     H37661   7.093   9.643   4.069 -1.7659 -0.7742 -1.0052
 1020MOL0     H37662   7.061   9.753   4.210 -2.4553  3.5174 -0.8469
 1020MOL0     H37663   6.924   9.673   4.133 -1.0136  1.2999  2.0934
 1020MOL0     H37664   6.468   9.992   3.759 -0.3717  2.8822  0.4767
 1020MOL0     H37665   6.267  10.050   3.796 -1.7819  0.3635  1.1568
 1020MOL0     H37666   6.178  10.212   4.180 -0.0519  1.3032 -0.8462
 1020MOL0     H37667   6.083  10.232   4.029 -0.6810  1.0561  0.8825
 1020MOL0     H37668   5.913  10.228   4.175 -0.7438 -0.2203  0.3260
 1020MOL0     H37669   5.926  10.058   4.136 -0.6893  0.0505  1.0701
 1020MOL0     H37670   6.108  10.066   4.329  0.4513 -1.9583 -2.5775
 1020MOL0     H37671   5.931  10.006   4.346  2.0965 -1.8306  1.8802
 1020MOL0     H37672   6.035  10.285   4.406  0.7767 -0.4814  0.5905
 1020MOL0     H37673   5.864  10.213   4.417 -0.0295 -0.8230  0.1387
 1020MOL0     H37674   5.981  10.259   4.636  0.5951 -3.0921  4.5612
 1020MOL0     H37675   6.091  10.123   4.599 -0.5996 -2.9500 -0.4862
 1020MOL0     H37676   5.793  10.104   4.616 -0.2853 -0.6643 -0.7842
 1020MOL0     H37677   5.896   9.967   4.594  0.4057  1.6276 -1.0301
 1020MOL0     H37678   5.921  10.156   4.830  3.2153 -0.6976  0.9901
 1020MOL0     H37679   6.004  10.000   4.814 -0.3151 -0.0960 -0.3762
 1020MOL0     H37680   5.702  10.029   4.797 -0.8318 -2.0097  0.2890
 1020MOL0     H37681   5.768  10.012   4.958  1.8592 -0.1487  0.4063
 1020MOL0     H37682   6.353  10.035   4.222  0.2960  1.5725  1.0220
 1020MOL0     H37683   6.590  10.000   4.177  0.2584  0.6204 -0.5730
 1020MOL0     H37684   6.859  10.055   3.829 -0.2359 -1.0079 -0.3212
 1020MOL0     H37685   7.084  10.119   3.754 -1.8554  1.2770 -0.2570
 1020MOL0     H37686   8.095   8.847   3.555 -0.4455 -1.1751 -0.3291
 1020MOL0     H37687   7.974   8.642   3.496 -0.1846 -2.0400  1.0509
 1020MOL0     H37688   7.694   8.315   3.630 -3.5560 -2.8625 -3.6911
 1020MOL0     H37689   7.624   8.130   3.504 -0.6457 -2.1892 -0.3894
 1020MOL0     H37690   7.551   7.920   3.463  1.0144  3.1807 -0.7257
 1020MOL0     H37691   7.637   7.916   3.314  3.2590  0.2875 -0.0922
 1020MOL0     H37692   7.689   7.673   3.329  3.0357  0.1793  2.4929
 1020MOL0     H37693   7.526   7.734   3.320  0.2075  0.4512  0.8965
 1020MOL0     H37694   7.484   7.673   3.560 -1.2398  2.4892 -1.7473
 1020MOL0     H37695   7.663   7.664   3.585  1.5281 -0.2883 -1.4869
 1020MOL0     H37696   7.681   7.469   3.429  1.8248 -0.8617  1.8477
 1020MOL0     H37697   7.497   7.482   3.409 -0.7678  0.4884  1.2481
 1020MOL0     H37698   7.422   7.284   3.729  0.8896  0.4785  1.2938
 1020MOL0     H37699   7.980   7.922   3.584 -0.1080  0.3896 -1.7030
 1020MOL0     H37700   8.094   8.139   3.647 -1.5177  0.5540  1.6286
 1021MOL0     O37701   0.600  10.518   1.031  0.6048  0.7644 -0.0452
 1021MOL0     C37702   0.661  10.514   0.924  0.6865  0.6802 -0.7119
 1021MOL0     O37703   0.603  10.517   0.798  0.2816  0.7636 -0.1028
 1021MOL0     C37704   0.470  10.522   0.773 -0.0697 -0.2859  0.1741
 1021MOL0     C37705   0.452  10.497   0.641 -0.2564 -0.1174 -0.4555
 1021MOL0     C37706   0.323  10.484   0.593 -0.5856 -0.9486 -0.5337
 1021MOL0     C37707   0.204  10.517   0.660 -0.2630  0.1886  0.2224
 1021MOL0     O37708   0.072  10.512   0.616 -0.3490 -0.3534 -0.6652
 1021MOL0     C37709   0.043  10.495   0.476 -0.2268  0.3056  0.0636
 1021MOL0     C37710  -0.103  10.473   0.446 -0.7692 -0.6528  0.0853
 1021MOL0     C37711  -0.135  10.483   0.296  0.1610  0.2926 -0.0597
 1021MOL0     C37712  -0.284  10.470   0.272  0.4124  0.5167 -0.3257
 1021MOL0     C37713  -0.329  10.502   0.129  0.3983 -0.0915  0.5324
 1021MOL0     C37714  -0.475  10.458   0.094 -0.6807  0.1471 -0.7871
 1021MOL0     C37715  -0.592  10.537   0.151  0.7170 -0.0495  0.0527
 1021MOL0     C37716  -0.724  10.466   0.152  0.1742  0.7487 -0.1985
 1021MOL0     N37717  -0.769  10.422   0.014 -0.1475 -0.1779 -0.1781
 1021MOL0     C37718  -0.733  10.302  -0.049 -0.2150  0.8917  0.5373
 1021MOL0     C37719  -0.798  10.300  -0.167 -0.0950 -0.0127  1.2836
 1021MOL0     C37720  -0.798  10.198  -0.280  0.6746  0.2951  0.1289
 1021MOL0     C37721  -0.933  10.126  -0.300 -1.1128  1.2386  0.2003
 1021MOL0     C37722  -0.987  10.052  -0.178 -0.3788  0.4655  0.6391
 1021MOL0     C37723  -1.132  10.027  -0.200  0.1401  0.6175  0.0744
 1021MOL0     O37724  -1.202   9.970  -0.086  0.1359  0.3271 -0.1360
 1021MOL0     C37725  -1.341   9.947  -0.093  0.7462 -0.4698 -0.1604
 1021MOL0     C37726  -1.406   9.939   0.028  0.5932  0.1839  0.2702
 1021MOL0     C37727  -1.546   9.920   0.046  0.0098 -0.8709  0.4099
 1021MOL0     C37728  -1.599   9.923   0.190  0.0992 -0.2182  0.0641
 1021MOL0     C37729  -1.625   9.906  -0.069  0.0559 -0.3698 -0.4174
 1021MOL0     C37730  -1.771   9.905  -0.051 -0.1897  0.7733 -0.1970
 1021MOL0     O37731  -1.849   9.965  -0.150  0.1497 -0.3900  0.2507
 1021MOL0     C37732  -1.988   9.934  -0.164  0.0571 -0.0014 -0.4291
 1021MOL0     C37733  -2.046   9.923  -0.293 -0.3172  1.4950  0.3357
 1021MOL0     C37734  -2.177   9.894  -0.315 -0.1350 -0.7405 -0.2356
 1021MOL0     C37735  -2.266   9.905  -0.202 -0.1088  0.4497 -0.1396
 1021MOL0     O37736  -2.407   9.915  -0.207 -0.3345  0.4819 -0.6799
 1021MOL0     C37737  -2.470   9.865  -0.328 -0.2574  0.3725 -0.0921
 1021MOL0     C37738  -2.622   9.895  -0.319 -0.4559 -0.1524  0.1106
 1021MOL0     C37739  -2.695   9.875  -0.455 -0.2433  0.7296 -0.1776
 1021MOL0     C37740  -2.847   9.882  -0.456  0.1568 -1.1866 -0.4008
 1021MOL0     C37741  -2.895   9.817  -0.589  0.2382  1.3894  0.7500
 1021MOL0     C37742  -3.052   9.839  -0.613  1.0333 -0.1354  0.0245
 1021MOL0     C37743  -3.123   9.825  -0.481  0.0852  0.3121 -0.1562
 1021MOL0     C37744  -3.279   9.806  -0.502 -1.2010 -0.0586  1.0738
 1021MOL0    Cl37745  -3.344   9.949  -0.582 -0.2781  0.3501 -0.3383
 1021MOL0     C37746  -2.215   9.931  -0.076  0.0857  0.2805  0.5505
 1021MOL0     C37747  -2.079   9.952  -0.060  0.4830 -0.1486 -0.8422
 1021MOL0     O37748  -1.824   9.836   0.042  0.0866  0.3261 -0.2517
 1021MOL0     C37749  -1.567   9.914  -0.190  0.7461  0.2383  0.3069
 1021MOL0     C37750  -1.426   9.929  -0.205  1.1159  0.3711 -0.0738
 1021MOL0     N37751  -0.883  10.410  -0.168 -0.1713 -0.7910 -0.6310
 1021MOL0     N37752  -0.864  10.474  -0.063 -0.5749  0.0483 -0.6251
 1021MOL0     C37753   0.237  10.550   0.797 -0.1544 -0.2430 -0.5692
 1021MOL0     C37754   0.364  10.556   0.856 -0.4922 -0.2879  0.9174
 1021MOL0     C37755   0.805  10.540   0.937  1.0466  0.4278  0.1568
 1021MOL0     C37756   0.866  10.552   1.068  0.3582  0.0178  0.1127
 1021MOL0     C37757   1.004  10.581   1.075  0.7630  0.6237  0.1825
 1021MOL0     C37758   1.076  10.610   0.957  0.2940  0.1044 -0.1751
 1021MOL0     O37759   1.202  10.655   0.959 -0.4247 -0.0679 -0.4650
 1021MOL0     C37760   1.310  10.568   0.982 -0.3730  0.3630 -0.4767
 1021MOL0     C37761   1.429  10.639   1.036 -0.0579 -0.3345  0.3439
 1021MOL0     C37762   1.396  10.707   1.166  1.5004 -0.2968  0.4505
 1021MOL0     C37763   1.513  10.793   1.222 -0.0584  0.2397  0.3259
 1021MOL0     C37764   1.556  10.910   1.143 -0.4072  0.0308 -0.1558
 1021MOL0     C37765   1.582  10.989   1.060  0.6646 -0.0328 -0.8137
 1021MOL0     C37766   1.017  10.594   0.833  0.3032  0.1507  0.9247
 1021MOL0     C37767   0.887  10.555   0.821  0.5322 -0.2384 -0.8848
 1021MOL0     H37768   0.530  10.480   0.568  0.7099  0.7885  0.3372
 1021MOL0     H37769   0.303  10.448   0.493 -1.3433  1.3903 -1.2880
 1021MOL0     H37770   0.069  10.584   0.418 -3.2282  1.1658 -0.1174
 1021MOL0     H37771   0.093  10.408   0.434 -0.1383  0.3822  0.0076
 1021MOL0     H37772  -0.128  10.373   0.481  2.6093 -1.4930  0.4421
 1021MOL0     H37773  -0.157  10.542   0.511  0.0961 -0.2124  0.3603
 1021MOL0     H37774  -0.093  10.578   0.260 -1.1229  0.0412 -2.4569
 1021MOL0     H37775  -0.084  10.394   0.257  1.1909  0.2656  1.2651
 1021MOL0     H37776  -0.308  10.369   0.305  1.2364  0.1703 -0.7454
 1021MOL0     H37777  -0.329  10.542   0.341 -1.1359  0.0344 -0.8061
 1021MOL0     H37778  -0.320  10.611   0.123  2.7171 -0.3196 -2.5463
 1021MOL0     H37779  -0.261  10.459   0.055  1.9240 -2.4888  3.1563
 1021MOL0     H37780  -0.474  10.482  -0.013 -1.4665  4.1161 -0.0636
 1021MOL0     H37781  -0.483  10.351   0.117 -2.0718  0.3143 -0.4200
 1021MOL0     H37782  -0.565  10.557   0.255 -3.5917 -2.3656  1.8707
 1021MOL0     H37783  -0.607  10.638   0.112 -0.2525  0.4194  1.5661
 1021MOL0     H37784  -0.798  10.539   0.186  1.3193  2.4070 -1.1724
 1021MOL0     H37785  -0.715  10.377   0.216 -0.5621  3.1836  3.5910
 1021MOL0     H37786  -0.663  10.227  -0.015 -0.5051 -0.2174 -1.1707
 1021MOL0     H37787  -0.770  10.246  -0.375 -3.1168  2.1940 -0.2286
 1021MOL0     H37788  -0.722  10.127  -0.246  0.4358  0.7676  1.6917
 1021MOL0     H37789  -0.919  10.057  -0.383  3.9747 -0.2580  1.9286
 1021MOL0     H37790  -1.013  10.193  -0.334 -1.1977  0.5755 -0.9534
 1021MOL0     H37791  -0.978  10.117  -0.091 -1.6338  2.3324 -0.5527
 1021MOL0     H37792  -0.940   9.954  -0.164  1.7082  1.3886  0.4112
 1021MOL0     H37793  -1.144   9.963  -0.288 -0.3791 -1.9642  1.8779
 1021MOL0     H37794  -1.175  10.126  -0.215 -1.0283  0.5281  2.3562
 1021MOL0     H37795  -1.346   9.970   0.113 -1.5765  1.6783  1.3586
 1021MOL0     H37796  -1.523   9.906   0.267  0.1517 -1.3616 -0.2251
 1021MOL0     H37797  -1.666  10.008   0.204 -1.1896 -1.2244  0.1607
 1021MOL0     H37798  -1.658   9.834   0.214  0.3094  0.4502  3.5337
 1021MOL0     H37799  -1.986   9.906  -0.381 -1.3921  3.4021 -0.8366
 1021MOL0     H37800  -2.209   9.889  -0.419 -1.1503 -1.0745  0.0768
 1021MOL0     H37801  -2.425   9.910  -0.417  2.2322 -2.1945 -0.2712
 1021MOL0     H37802  -2.443   9.759  -0.338  1.8065  0.4640  3.0672
 1021MOL0     H37803  -2.680   9.852  -0.237 -1.5071  2.9437  1.1308
 1021MOL0     H37804  -2.623  10.001  -0.293  1.0980  0.8817 -3.4279
 1021MOL0     H37805  -2.663   9.775  -0.488  0.1751  0.9232 -0.3650
 1021MOL0     H37806  -2.651   9.936  -0.535  0.9967 -0.7586 -0.6987
 1021MOL0     H37807  -2.886   9.829  -0.370 -2.8111 -3.7144 -3.0631
 1021MOL0     H37808  -2.870   9.989  -0.450  1.0774 -1.0598  1.5320
 1021MOL0     H37809  -2.883   9.708  -0.587  0.2936  1.4085  1.7124
 1021MOL0     H37810  -2.844   9.871  -0.669 -1.6114  1.5170 -0.4173
 1021MOL0     H37811  -3.073   9.942  -0.644 -3.8101 -1.3410 -1.5069
 1021MOL0     H37812  -3.100   9.778  -0.689  2.5072 -0.4974 -0.6516
 1021MOL0     H37813  -3.107   9.913  -0.418 -0.8311  0.5364 -0.2178
 1021MOL0     H37814  -3.087   9.728  -0.446 -0.7717 -1.9726 -4.7666
 1021MOL0     H37815  -3.322   9.797  -0.401 -1.4716 -1.3028  0.8595
 1021MOL0     H37816  -3.309   9.719  -0.560 -1.3261 -0.7259  2.1090
 1021MOL0     H37817  -2.279   9.929   0.012 -0.7051 -2.4134 -0.0186
 1021MOL0     H37818  -2.049   9.976   0.042 -0.4426 -2.4108  0.0117
 1021MOL0     H37819  -1.629   9.909  -0.279  1.5140 -1.5902 -0.1808
 1021MOL0     H37820  -1.386   9.931  -0.306 -0.8890 -3.7018 -1.1438
 1021MOL0     H37821   0.144  10.574   0.847 -0.4456 -2.6035  0.1267
 1021MOL0     H37822   0.387  10.585   0.958  1.1490  1.8702  0.0057
 1021MOL0     H37823   0.802  10.551   1.156  0.0968  1.4376 -0.0490
 1021MOL0     H37824   1.053  10.595   1.170 -0.1992 -0.4053  0.8548
 1021MOL0     H37825   1.279  10.489   1.050 -0.4304 -0.9538 -1.9825
 1021MOL0     H37826   1.319  10.517   0.886  0.5333  0.6689 -0.5657
 1021MOL0     H37827   1.458  10.714   0.961  3.0368 -1.0398  0.6840
 1021MOL0     H37828   1.516  10.573   1.041  0.4663  0.1570 -1.4412
 1021MOL0     H37829   1.357  10.635   1.238 -3.7948  0.8035 -0.8900
 1021MOL0     H37830   1.320  10.785   1.151  3.6114  2.5307  2.9333
 1021MOL0     H37831   1.591  10.718   1.238 -0.4640 -0.2897 -0.0986
 1021MOL0     H37832   1.487  10.830   1.322  2.0536  1.0398  0.6087
 1021MOL0     H37833   1.594  11.065   0.985 -0.7994  1.1269  0.0753
 1021MOL0     H37834   1.079  10.632   0.752  1.0136 -1.8828  0.4394
 1021MOL0     H37835   0.851  10.539   0.720 -0.5460  2.6366 -1.0691
 1022MOL0     O37836   1.682   3.268   0.268  0.1720 -0.1177 -0.3695
 1022MOL0     C37837   1.664   3.353   0.187 -0.4707 -0.4609  1.0523
 1022MOL0     O37838   1.583   3.463   0.204 -0.3552 -0.0609  0.1206
 1022MOL0     C37839   1.493   3.457   0.310 -0.1593 -0.3198  1.2923
 1022MOL0     C37840   1.530   3.506   0.447 -0.5337 -0.3110  0.0680
 1022MOL0     C37841   1.436   3.501   0.545  0.7227  0.7598 -0.3495
 1022MOL0     C37842   1.304   3.458   0.508  0.1015 -0.2796  0.1461
 1022MOL0     O37843   1.210   3.465   0.603 -0.0360  0.2278 -0.1532
 1022MOL0     C37844   1.080   3.428   0.575  0.7867  0.3654  0.5381
 1022MOL0     C37845   1.014   3.426   0.710  0.3727 -0.5049 -0.7878
 1022MOL0     C37846   0.867   3.375   0.697 -0.3600  0.6290  0.4264
 1022MOL0     C37847   0.789   3.426   0.821 -0.6112  0.2720  0.2926
 1022MOL0     C37848   0.639   3.415   0.811 -0.3918 -0.2343 -0.3274
 1022MOL0     C37849   0.569   3.509   0.902 -0.8143  0.1969  1.3681
 1022MOL0     C37850   0.580   3.653   0.861  0.4370  0.2400  0.3927
 1022MOL0     C37851   0.474   3.750   0.912 -0.4694  0.0569  0.3458
 1022MOL0     N37852   0.481   3.760   1.061  0.1470  0.0196  0.3879
 1022MOL0     C37853   0.408   3.675   1.144  0.2535 -0.5970 -0.1920
 1022MOL0     C37854   0.415   3.736   1.262  0.7856 -0.2510 -0.3744
 1022MOL0     C37855   0.369   3.665   1.387 -0.0054 -0.6774  0.7026
 1022MOL0     C37856   0.256   3.749   1.447  0.7024  0.4172  0.2023
 1022MOL0     C37857   0.126   3.762   1.361 -0.5687  0.1541  0.6064
 1022MOL0     C37858   0.054   3.637   1.319  0.3162 -0.7160  0.0659
 1022MOL0     O37859   0.107   3.608   1.189 -0.5873 -0.1254 -1.0894
 1022MOL0     C37860   0.050   3.497   1.127  0.1332  0.5215  0.5962
 1022MOL0     C37861  -0.013   3.387   1.186 -0.1813 -0.0490 -0.2901
 1022MOL0     C37862  -0.076   3.280   1.118 -0.4423 -0.6329  0.3464
 1022MOL0     C37863  -0.132   3.162   1.193  0.9590 -0.0553  0.4963
 1022MOL0     C37864  -0.074   3.285   0.972  0.2056 -0.4101 -0.2392
 1022MOL0     C37865  -0.146   3.182   0.884  0.0107 -0.1676 -1.3029
 1022MOL0     O37866  -0.088   3.165   0.765  0.0925 -0.1173 -0.6409
 1022MOL0     C37867  -0.114   3.081   0.665 -0.6918  0.1781  0.2363
 1022MOL0     C37868  -0.116   3.124   0.528 -0.4821 -0.6543 -0.3384
 1022MOL0     C37869  -0.121   3.037   0.415  0.0731 -0.1864 -0.6534
 1022MOL0     C37870  -0.115   2.902   0.435  0.8115  0.0844 -0.1839
 1022MOL0     O37871  -0.129   2.826   0.325  0.7295 -0.3291  0.2508
 1022MOL0     C37872  -0.184   2.693   0.331 -0.0311 -0.7005  0.6759
 1022MOL0     C37873  -0.215   2.650   0.185  0.6280  0.1043  0.2091
 1022MOL0     C37874  -0.321   2.730   0.107 -0.3191  0.3211  0.4839
 1022MOL0     C37875  -0.467   2.728   0.165  0.1805 -0.5774  0.1592
 1022MOL0     C37876  -0.542   2.849   0.096 -0.3978 -0.6635  0.1559
 1022MOL0     C37877  -0.688   2.833   0.118  0.1750 -0.5838  0.4078
 1022MOL0     C37878  -0.770   2.954   0.069  0.2489  0.6009  0.3410
 1022MOL0     C37879  -0.763   3.080   0.157  0.3821 -0.1494 -0.1542
 1022MOL0    Cl37880  -0.884   3.201   0.099  0.5101 -0.0245  0.0836
 1022MOL0     C37881  -0.124   2.860   0.567  0.3784  1.0261 -0.7504
 1022MOL0     C37882  -0.116   2.947   0.680 -0.7032 -0.4017  0.0067
 1022MOL0     O37883  -0.247   3.125   0.925 -0.3248 -0.0613 -0.4391
 1022MOL0     C37884  -0.012   3.388   0.910 -0.2470  0.2131  0.5947
 1022MOL0     C37885   0.049   3.492   0.985  0.2756  0.3504 -0.7510
 1022MOL0     N37886   0.495   3.847   1.257 -0.1046  0.3804  0.3454
 1022MOL0     N37887   0.524   3.869   1.129 -0.5807 -0.3954 -0.4742
 1022MOL0     C37888   1.271   3.411   0.378  0.2645 -0.1539  0.2720
 1022MOL0     C37889   1.362   3.412   0.275  0.3907  0.2012  0.0160
 1022MOL0     C37890   1.735   3.348   0.058 -0.0331  0.4548  2.0564
 1022MOL0     C37891   1.774   3.457  -0.019  0.4754 -0.1920 -0.2297
 1022MOL0     C37892   1.859   3.442  -0.137 -0.8434  0.4259  0.0427
 1022MOL0     C37893   1.866   3.316  -0.199 -0.1874 -0.2062  1.1820
 1022MOL0     O37894   1.940   3.306  -0.319  0.5539 -0.6392 -0.6514
 1022MOL0     C37895   1.926   3.186  -0.402  0.1146 -0.5269 -0.6669
 1022MOL0     C37896   2.036   3.158  -0.502 -0.3470 -0.6585  0.3804
 1022MOL0     C37897   2.182   3.149  -0.440 -0.1401 -0.5403 -0.9148
 1022MOL0     C37898   2.268   3.068  -0.545  0.5673 -0.5110  0.3318
 1022MOL0     C37899   2.405   3.065  -0.508  0.2035 -0.0531 -1.0847
 1022MOL0     C37900   2.526   3.071  -0.478 -0.5084  0.2282  0.6016
 1022MOL0     C37901   1.811   3.208  -0.128 -0.1589 -0.7119 -0.2251
 1022MOL0     C37902   1.751   3.220  -0.000 -0.4813  0.1286 -0.1333
 1022MOL0     H37903   1.630   3.545   0.462 -0.1740 -2.0385  2.8519
 1022MOL0     H37904   1.445   3.526   0.650 -3.6791  1.5250  0.0503
 1022MOL0     H37905   1.021   3.495   0.512  0.0526 -0.7695 -0.0110
 1022MOL0     H37906   1.064   3.329   0.531  1.9137 -1.6292  4.2096
 1022MOL0     H37907   1.067   3.355   0.774  1.4253 -0.7419 -1.8883
 1022MOL0     H37908   1.022   3.523   0.760  1.0371 -2.1643  2.6175
 1022MOL0     H37909   0.831   3.414   0.601 -0.4246 -0.0716  0.1581
 1022MOL0     H37910   0.864   3.266   0.688  1.6078  0.6921 -2.9848
 1022MOL0     H37911   0.818   3.378   0.915  0.6013  0.7167  0.1680
 1022MOL0     H37912   0.805   3.533   0.839 -0.4076 -0.0518  2.3760
 1022MOL0     H37913   0.610   3.439   0.708 -0.1430  2.1410  0.0920
 1022MOL0     H37914   0.606   3.311   0.819  2.1058 -1.0485  0.0166
 1022MOL0     H37915   0.463   3.482   0.904 -0.8884  0.3064 -0.2950
 1022MOL0     H37916   0.609   3.491   1.003 -0.4456 -0.5066  1.1030
 1022MOL0     H37917   0.677   3.693   0.894  1.5166  1.3366 -3.6047
 1022MOL0     H37918   0.577   3.647   0.752 -0.2612 -0.8807  0.4542
 1022MOL0     H37919   0.380   3.715   0.869  0.2636  1.7459 -2.9245
 1022MOL0     H37920   0.502   3.846   0.868  0.0135 -1.0156 -1.7913
 1022MOL0     H37921   0.365   3.581   1.111 -1.1295  0.3050 -1.0939
 1022MOL0     H37922   0.326   3.571   1.351 -1.5177  0.1410  0.2939
 1022MOL0     H37923   0.452   3.646   1.456 -0.0025  3.0204  1.9051
 1022MOL0     H37924   0.296   3.850   1.457 -1.5172  1.5900 -1.7436
 1022MOL0     H37925   0.230   3.719   1.549 -1.3109  2.5234  0.4008
 1022MOL0     H37926   0.156   3.823   1.276  2.4833 -1.9593  0.0016
 1022MOL0     H37927   0.056   3.817   1.424  0.5081  2.1083  0.1521
 1022MOL0     H37928  -0.052   3.652   1.296  0.6100 -1.6381 -2.1599
 1022MOL0     H37929   0.064   3.558   1.394  0.8663 -0.3222  0.4150
 1022MOL0     H37930  -0.013   3.388   1.294  0.4129  1.3143 -0.2880
 1022MOL0     H37931  -0.239   3.183   1.201  0.9786  0.3081 -0.1203
 1022MOL0     H37932  -0.109   3.067   1.143 -1.9376 -0.2119 -0.7389
 1022MOL0     H37933  -0.096   3.158   1.296  1.0704  0.7000  0.4878
 1022MOL0     H37934  -0.106   3.230   0.507 -0.5370 -0.6310 -0.2490
 1022MOL0     H37935  -0.111   3.089   0.321 -2.2956  0.7091 -0.4709
 1022MOL0     H37936  -0.116   2.626   0.385 -0.5344 -0.6286  1.4036
 1022MOL0     H37937  -0.274   2.700   0.392  0.4067 -1.1687  1.3920
 1022MOL0     H37938  -0.123   2.652   0.126  0.2140 -2.2619 -0.6520
 1022MOL0     H37939  -0.245   2.545   0.178 -1.3394  0.7394 -2.0286
 1022MOL0     H37940  -0.332   2.684   0.009 -3.0661  0.5290  0.6100
 1022MOL0     H37941  -0.286   2.832   0.086  0.7919 -0.5037 -1.9971
 1022MOL0     H37942  -0.515   2.631   0.146 -2.5216  0.5836  0.6246
 1022MOL0     H37943  -0.464   2.744   0.273  1.9150  1.1772 -0.0887
 1022MOL0     H37944  -0.515   2.845  -0.010  0.5687  0.5338  0.3334
 1022MOL0     H37945  -0.511   2.942   0.144 -1.6677 -1.0409  1.7757
 1022MOL0     H37946  -0.716   2.744   0.060 -1.7853  1.4092 -1.9119
 1022MOL0     H37947  -0.720   2.803   0.218 -0.2080  0.8596  0.7350
 1022MOL0     H37948  -0.873   2.920   0.056 -0.1373  1.2263  1.6031
 1022MOL0     H37949  -0.741   2.978  -0.033  1.9134  4.3260  1.5422
 1022MOL0     H37950  -0.663   3.123   0.164  0.9894 -1.4107 -0.7034
 1022MOL0     H37951  -0.790   3.056   0.261 -2.1798  2.7734  0.0179
 1022MOL0     H37952  -0.120   2.754   0.589  0.6749  0.7515 -2.0473
 1022MOL0     H37953  -0.127   2.901   0.778  0.9510  0.9463  0.8784
 1022MOL0     H37954  -0.017   3.410   0.803  0.5293 -0.3934  0.4280
 1022MOL0     H37955   0.100   3.574   0.935 -1.1065 -0.8698 -4.5188
 1022MOL0     H37956   1.169   3.383   0.356  0.3408 -0.0186 -0.2920
 1022MOL0     H37957   1.345   3.364   0.179  1.1643  0.2096 -0.1360
 1022MOL0     H37958   1.749   3.558   0.014 -0.6048  0.2241 -2.1073
 1022MOL0     H37959   1.900   3.525  -0.193 -0.3278 -1.2536 -2.2182
 1022MOL0     H37960   1.920   3.096  -0.341 -3.7381 -1.5899 -2.2685
 1022MOL0     H37961   1.837   3.186  -0.467  0.0658  4.2935 -0.9706
 1022MOL0     H37962   2.026   3.226  -0.587 -0.1452 -3.4016 -1.9661
 1022MOL0     H37963   2.009   3.059  -0.540  2.1036 -0.9465 -0.8171
 1022MOL0     H37964   2.169   3.099  -0.343  1.2112 -1.9507 -1.4170
 1022MOL0     H37965   2.222   3.250  -0.421 -0.1223 -0.9957  2.0261
 1022MOL0     H37966   2.245   3.106  -0.645 -2.0026 -2.0901  0.2486
 1022MOL0     H37967   2.229   2.966  -0.547  0.5055 -0.5134 -2.6806
 1022MOL0     H37968   2.629   3.084  -0.452 -0.4185  0.8085 -0.0227
 1022MOL0     H37969   1.833   3.111  -0.172  0.0493 -0.6010 -0.3673
 1022MOL0     H37970   1.719   3.127   0.045  2.7709 -2.2095 -2.1768
 1023MOL0     O37971   4.253   6.071   7.812 -0.5264  0.4015  0.0336
 1023MOL0     C37972   4.213   6.182   7.786  0.1869 -0.5642 -0.0917
 1023MOL0     O37973   4.280   6.298   7.810  0.0094 -0.5339  1.4045
 1023MOL0     C37974   4.398   6.288   7.876 -0.9706 -1.4300 -0.5536
 1023MOL0     C37975   4.514   6.297   7.796  0.2879  0.2596 -0.9655
 1023MOL0     C37976   4.641   6.310   7.849  0.5891 -0.5422  0.9202
 1023MOL0     C37977   4.648   6.302   7.989 -0.0814  0.7514 -0.5099
 1023MOL0     O37978   4.764   6.307   8.068 -0.6610  0.0885 -0.0773
 1023MOL0     C37979   4.870   6.224   8.019  0.2312 -1.0486  0.0465
 1023MOL0     C37980   4.983   6.228   8.125 -0.1269  0.1247 -0.2771
 1023MOL0     C37981   5.103   6.130   8.090  0.3142 -0.1545  0.7501
 1023MOL0     C37982   5.194   6.106   8.208 -0.3635 -0.5831  0.4488
 1023MOL0     C37983   5.294   5.996   8.189 -1.0292  0.1701  0.3504
 1023MOL0     C37984   5.403   5.991   8.296 -0.2724  0.0866  0.4696
 1023MOL0     C37985   5.538   5.915   8.252 -0.2327 -0.0502 -0.2857
 1023MOL0     C37986   5.636   5.903   8.367  0.5138  0.0227  0.4072
 1023MOL0     N37987   5.759   5.818   8.349  0.0382  0.1417  0.1705
 1023MOL0     C37988   5.863   5.873   8.270  0.4270 -0.0982  0.1507
 1023MOL0     C37989   5.913   5.772   8.205  0.4204  0.6614 -0.1926
 1023MOL0     C37990   6.030   5.769   8.104  0.1714  1.0558 -0.6296
 1023MOL0     C37991   6.009   5.838   7.973 -0.4556 -0.6740  1.2695
 1023MOL0     C37992   6.130   5.864   7.882 -0.0808  0.1638 -0.1562
 1023MOL0     C37993   6.178   5.746   7.804 -1.3871  0.8960  0.4643
 1023MOL0     O37994   6.327   5.746   7.791  0.0118  0.4142 -0.3897
 1023MOL0     C37995   6.367   5.653   7.699 -0.9738  0.2141  1.0445
 1023MOL0     C37996   6.380   5.695   7.567  0.0273  0.0154  0.2062
 1023MOL0     C37997   6.452   5.609   7.476  0.2790 -0.2256 -1.3008
 1023MOL0     C37998   6.490   5.676   7.346 -0.2312 -0.5346  0.5442
 1023MOL0     C37999   6.498   5.481   7.527  0.7565 -0.2225  1.0609
 1023MOL0     C38000   6.564   5.385   7.429  0.1480  0.1271  0.2971
 1023MOL0     O38001   6.561   5.407   7.292 -0.2516  0.0364  0.3053
 1023MOL0     C38002   6.649   5.337   7.208 -0.0313  0.1131  0.0745
 1023MOL0     C38003   6.762   5.399   7.167 -1.1464  0.0740 -0.6658
 1023MOL0     C38004   6.855   5.339   7.079 -0.7176 -0.2968 -0.7583
 1023MOL0     C38005   6.822   5.220   7.020 -0.0045  0.7820 -0.1752
 1023MOL0     O38006   6.922   5.184   6.930  0.6657 -0.3830 -0.4650
 1023MOL0     C38007   6.922   5.043   6.895  1.4484  0.0260  0.1490
 1023MOL0     C38008   7.056   4.998   6.831 -0.0753 -0.0059  0.5651
 1023MOL0     C38009   7.155   4.978   6.946  0.8215 -0.1043 -0.8162
 1023MOL0     C38010   7.289   4.921   6.909  0.7641  0.5686 -0.5406
 1023MOL0     C38011   7.365   4.884   7.036  0.2015 -0.2330 -0.8245
 1023MOL0     C38012   7.504   4.817   7.002 -0.0185 -0.4658 -0.4868
 1023MOL0     C38013   7.597   4.808   7.127  0.3698 -0.4109 -0.4108
 1023MOL0     C38014   7.538   4.738   7.245 -0.4183 -0.0990 -0.4939
 1023MOL0    Cl38015   7.500   4.560   7.211 -0.2522 -0.4467 -0.4522
 1023MOL0     C38016   6.705   5.148   7.063 -0.6577 -0.8911  0.4774
 1023MOL0     C38017   6.625   5.214   7.160 -1.3038  0.9356  0.1417
 1023MOL0     O38018   6.625   5.292   7.484  0.7373  0.1427  0.3281
 1023MOL0     C38019   6.484   5.443   7.656  0.5332  0.1174  1.2310
 1023MOL0     C38020   6.424   5.533   7.746  0.4405  0.2333  0.6339
 1023MOL0     N38021   5.838   5.655   8.239 -0.2848 -0.8498  0.0314
 1023MOL0     N38022   5.757   5.685   8.329  0.4319 -0.3428 -1.1797
 1023MOL0     C38023   4.534   6.292   8.064 -0.4147 -0.0116 -0.1506
 1023MOL0     C38024   4.411   6.276   8.012  0.2234  0.7943 -0.3958
 1023MOL0     C38025   4.087   6.198   7.707  0.6830 -0.1741  0.1490
 1023MOL0     C38026   4.031   6.326   7.696 -0.2852  0.2776 -0.3487
 1023MOL0     C38027   3.909   6.341   7.645  0.3941 -0.0101 -0.1398
 1023MOL0     C38028   3.823   6.239   7.611 -0.7973 -0.2227  0.9637
 1023MOL0     O38029   3.693   6.248   7.563  0.8911  0.1056 -0.2911
 1023MOL0     C38030   3.597   6.350   7.604 -0.4774 -0.0995  1.3751
 1023MOL0     C38031   3.463   6.347   7.528  0.1626  1.2770 -0.2776
 1023MOL0     C38032   3.392   6.215   7.561 -0.9528 -0.0388 -0.1802
 1023MOL0     C38033   3.245   6.215   7.512  0.9406 -1.0043  0.2548
 1023MOL0     C38034   3.203   6.151   7.373 -0.8581  0.0878 -0.5325
 1023MOL0     C38035   3.155   6.107   7.270 -1.1854 -0.2255 -0.3248
 1023MOL0     C38036   3.877   6.112   7.612 -0.2888 -1.3247 -0.2414
 1023MOL0     C38037   4.002   6.091   7.669 -0.4888  0.1902  1.7538
 1023MOL0     H38038   4.499   6.292   7.689 -2.0746  2.0346 -0.8002
 1023MOL0     H38039   4.720   6.322   7.776 -0.9600 -2.3115 -1.1851
 1023MOL0     H38040   4.841   6.119   8.014  2.0283 -1.5414 -1.8793
 1023MOL0     H38041   4.910   6.250   7.920 -1.8177  0.1835 -0.4999
 1023MOL0     H38042   5.014   6.332   8.137  0.5971  0.0088 -1.0365
 1023MOL0     H38043   4.940   6.201   8.222 -2.9910 -1.0067 -1.7573
 1023MOL0     H38044   5.064   6.034   8.054 -0.9573 -1.7891  5.6723
 1023MOL0     H38045   5.159   6.179   8.010 -0.4788 -0.3237  0.0737
 1023MOL0     H38046   5.239   6.198   8.247  0.8759  0.0049 -2.1832
 1023MOL0     H38047   5.129   6.066   8.287 -2.0088 -1.2050 -1.1599
 1023MOL0     H38048   5.248   5.897   8.194 -0.1689 -0.2191  0.6831
 1023MOL0     H38049   5.327   6.004   8.085 -0.7428 -2.8565  0.1054
 1023MOL0     H38050   5.417   6.097   8.319  2.1280 -0.2169  0.5851
 1023MOL0     H38051   5.353   5.939   8.379 -1.3169  0.3401  0.0167
 1023MOL0     H38052   5.498   5.819   8.217 -3.6775  1.6339 -1.3517
 1023MOL0     H38053   5.586   5.977   8.176 -3.0082 -1.8620 -3.7932
 1023MOL0     H38054   5.583   5.863   8.455 -0.7467 -0.8564 -0.7126
 1023MOL0     H38055   5.676   6.002   8.387  0.8934  0.1631 -0.9594
 1023MOL0     H38056   5.891   5.977   8.267 -3.3883  1.0865  0.3884
 1023MOL0     H38057   6.118   5.797   8.163 -0.8303 -0.5917  1.8321
 1023MOL0     H38058   6.056   5.666   8.077  2.3953  1.4452 -0.1626
 1023MOL0     H38059   5.985   5.943   7.994  2.3065 -0.0788  1.8857
 1023MOL0     H38060   5.933   5.785   7.914 -1.1972  0.5523  1.0840
 1023MOL0     H38061   6.207   5.900   7.951  0.4759 -0.0738 -0.6485
 1023MOL0     H38062   6.108   5.943   7.810  0.6734  1.2024  0.7244
 1023MOL0     H38063   6.149   5.747   7.699  4.3724 -0.1269 -1.5360
 1023MOL0     H38064   6.142   5.657   7.858 -1.3250  0.5092 -0.1191
 1023MOL0     H38065   6.353   5.795   7.536 -2.2405 -0.8580 -0.8455
 1023MOL0     H38066   6.439   5.632   7.260 -2.4178  0.9864  1.0008
 1023MOL0     H38067   6.475   5.784   7.345 -1.3164 -0.6776 -0.1714
 1023MOL0     H38068   6.595   5.645   7.333 -0.1079  0.3862 -0.9306
 1023MOL0     H38069   6.786   5.494   7.213 -1.5163 -0.5778  0.9511
 1023MOL0     H38070   6.941   5.395   7.044 -0.6246  0.0452  0.0129
 1023MOL0     H38071   6.883   4.984   6.979 -0.9481  2.8708  1.2171
 1023MOL0     H38072   6.844   5.015   6.823  2.5433 -2.3153 -0.2387
 1023MOL0     H38073   7.057   4.897   6.791  1.6199 -0.3662  1.4335
 1023MOL0     H38074   7.096   5.066   6.755  0.8594 -2.6662 -1.4722
 1023MOL0     H38075   7.108   4.904   7.011  1.6944 -0.1775 -0.2455
 1023MOL0     H38076   7.169   5.071   7.002  0.4452  1.4715 -3.1933
 1023MOL0     H38077   7.282   4.833   6.845 -0.4785 -1.2939  2.0331
 1023MOL0     H38078   7.349   4.997   6.857  0.8839 -0.0015 -1.2445
 1023MOL0     H38079   7.304   4.830   7.109 -2.6192  2.4013 -1.0318
 1023MOL0     H38080   7.377   4.980   7.087 -0.0258 -0.6279 -0.0157
 1023MOL0     H38081   7.488   4.712   6.975  0.7926 -0.6605 -0.2261
 1023MOL0     H38082   7.548   4.877   6.922  1.0948 -0.2478  0.2630
 1023MOL0     H38083   7.626   4.910   7.153 -2.7989  0.8374 -1.3020
 1023MOL0     H38084   7.686   4.760   7.086 -0.5889 -2.0155 -0.6922
 1023MOL0     H38085   7.453   4.794   7.286  1.3738  1.0975  1.7690
 1023MOL0     H38086   7.620   4.750   7.316 -1.8063  3.0880  0.7661
 1023MOL0     H38087   6.678   5.051   7.022  0.3073 -1.2161  0.6010
 1023MOL0     H38088   6.529   5.176   7.191 -1.8727  1.3896 -1.0248
 1023MOL0     H38089   6.497   5.341   7.690 -1.4728 -0.7010 -0.2169
 1023MOL0     H38090   6.418   5.509   7.851  4.8445  1.9718  1.4795
 1023MOL0     H38091   4.539   6.300   8.172 -0.4043  2.2453 -0.2776
 1023MOL0     H38092   4.326   6.257   8.077  0.2539  2.6072  0.2079
 1023MOL0     H38093   4.089   6.412   7.728 -2.9601  2.6957 -1.5219
 1023MOL0     H38094   3.882   6.446   7.634  3.2693  0.7006 -1.3392
 1023MOL0     H38095   3.584   6.339   7.712  1.6830  0.2578  1.7121
 1023MOL0     H38096   3.646   6.444   7.577 -0.3476  0.1373  2.4096
 1023MOL0     H38097   3.492   6.355   7.422  1.8353 -0.5893 -0.0118
 1023MOL0     H38098   3.410   6.437   7.559  2.4052  3.1820 -1.5931
 1023MOL0     H38099   3.408   6.214   7.669  1.2079 -0.7400 -0.4520
 1023MOL0     H38100   3.451   6.140   7.508 -1.2748  0.8714 -1.9103
 1023MOL0     H38101   3.197   6.313   7.510  1.7882 -0.5926 -1.0121
 1023MOL0     H38102   3.200   6.145   7.583  3.3275 -2.6523  0.2790
 1023MOL0     H38103   3.106   6.068   7.183 -1.6734 -0.9039  0.2380
 1023MOL0     H38104   3.815   6.026   7.591 -2.5086 -0.0028  0.5396
 1023MOL0     H38105   4.043   5.990   7.671 -1.5495 -0.2657  1.1086
 1024MOL0     O38106   7.793   6.285  10.530 -0.8703 -0.1826 -0.9496
 1024MOL0     C38107   7.742   6.315  10.638  0.2553 -0.0717 -0.9733
 1024MOL0     O38108   7.782   6.409  10.729 -0.1575  0.1760  0.4548
 1024MOL0     C38109   7.909   6.463  10.740 -0.0226  0.6860 -0.7192
 1024MOL0     C38110   8.025   6.429  10.674 -0.1575 -0.7490 -0.4881
 1024MOL0     C38111   8.142   6.514  10.684  0.8982  0.7448  1.0182
 1024MOL0     C38112   8.150   6.620  10.772 -1.0423 -0.3072  0.5091
 1024MOL0     O38113   8.256   6.708  10.790 -0.7030 -0.2982  0.0380
 1024MOL0     C38114   8.386   6.651  10.803 -0.7277  0.4449 -0.0820
 1024MOL0     C38115   8.481   6.715  10.710 -0.0490  0.3035  0.4123
 1024MOL0     C38116   8.622   6.661  10.755  0.3578  0.2023 -0.8638
 1024MOL0     C38117   8.718   6.758  10.703 -0.7372 -0.1516  0.9252
 1024MOL0     C38118   8.855   6.715  10.752  0.1926  0.2997 -0.0935
 1024MOL0     C38119   8.922   6.608  10.669 -0.0972 -0.7216  0.3777
 1024MOL0     C38120   9.069   6.591  10.681  0.4679 -0.2084 -0.3827
 1024MOL0     C38121   9.123   6.561  10.816  1.0276  0.7374  0.5607
 1024MOL0     N38122   9.262   6.515  10.816 -0.3866  0.5302  0.5490
 1024MOL0     C38123   9.368   6.604  10.805  0.0596  0.8283 -0.2404
 1024MOL0     C38124   9.482   6.528  10.824 -0.3183  0.7127 -0.6140
 1024MOL0     C38125   9.622   6.577  10.811 -0.1628 -0.2764  1.1234
 1024MOL0     C38126   9.680   6.510  10.686 -0.3499 -0.3148  0.3546
 1024MOL0     C38127   9.653   6.587  10.559  0.7034  0.0224 -0.9504
 1024MOL0     C38128   9.708   6.498  10.443 -0.6490  0.1560  0.2054
 1024MOL0     O38129   9.700   6.577  10.331 -0.5062  0.3311  0.9000
 1024MOL0     C38130   9.609   6.540  10.233  0.0523 -0.4679  0.4676
 1024MOL0     C38131   9.619   6.609  10.110  0.1045 -0.1525 -0.0711
 1024MOL0     C38132   9.540   6.577   9.992 -0.2313  0.6961  0.1252
 1024MOL0     C38133   9.569   6.641   9.863  0.0598  0.4939 -0.9940
 1024MOL0     C38134   9.422   6.494  10.012 -0.2290  0.0413  0.0409
 1024MOL0     C38135   9.309   6.482   9.908  0.4223  0.3646 -0.2355
 1024MOL0     O38136   9.188   6.455   9.954 -0.1381 -0.5074  0.0509
 1024MOL0     C38137   9.080   6.482   9.872 -0.1973 -0.3081  0.0085
 1024MOL0     C38138   9.055   6.607   9.813 -0.2887  0.6065  0.6561
 1024MOL0     C38139   8.929   6.621   9.743  0.4630  0.9701 -0.2953
 1024MOL0     C38140   8.844   6.511   9.721 -0.2509 -0.0151 -0.0286
 1024MOL0     O38141   8.727   6.512   9.645 -0.1188 -0.3747  0.2362
 1024MOL0     C38142   8.753   6.566   9.510  0.3593 -0.0034 -0.7132
 1024MOL0     C38143   8.649   6.510   9.408 -0.3394 -1.1512 -0.5103
 1024MOL0     C38144   8.502   6.517   9.456 -0.1009  0.0689 -0.0999
 1024MOL0     C38145   8.445   6.656   9.485 -0.0104  0.2920 -0.0980
 1024MOL0     C38146   8.298   6.667   9.537 -0.5979  0.7909 -1.2422
 1024MOL0     C38147   8.266   6.605   9.678  0.3855 -0.1338  0.2642
 1024MOL0     C38148   8.366   6.668   9.791  0.2150 -0.4983 -0.5858
 1024MOL0     C38149   8.327   6.630   9.932 -1.0194  0.4150 -0.6110
 1024MOL0    Cl38150   8.187   6.723   9.982  0.0879 -0.0165  0.2046
 1024MOL0     C38151   8.867   6.394   9.774 -0.4739 -0.7115 -0.5011
 1024MOL0     C38152   8.985   6.379   9.843 -0.9622  0.2125 -0.4778
 1024MOL0     O38153   9.323   6.502   9.780 -0.0337  0.2992 -0.1865
 1024MOL0     C38154   9.405   6.442  10.142  0.3974  0.2859  0.2362
 1024MOL0     C38155   9.499   6.447  10.245  0.6403  0.0196 -0.1709
 1024MOL0     N38156   9.440   6.398  10.837  0.9406  0.3206  0.7511
 1024MOL0     N38157   9.312   6.386  10.829  0.2162 -0.0439  0.1502
 1024MOL0     C38158   8.036   6.652  10.844 -1.0730  0.2028 -0.5400
 1024MOL0     C38159   7.925   6.566  10.832 -0.4454 -0.1550 -0.3336
 1024MOL0     C38160   7.624   6.234  10.679 -0.2419  0.8741 -0.3439
 1024MOL0     C38161   7.539   6.282  10.779  0.1496  0.4568 -0.3291
 1024MOL0     C38162   7.417   6.214  10.808  0.1956  0.2354  0.3726
 1024MOL0     C38163   7.382   6.101  10.730 -0.0064 -0.4572  0.1999
 1024MOL0     O38164   7.261   6.035  10.732 -0.3985  0.7444 -0.8481
 1024MOL0     C38165   7.157   6.078  10.808  0.4625  0.2482  0.1080
 1024MOL0     C38166   7.083   6.188  10.753  0.0633 -0.4271  0.1122
 1024MOL0     C38167   6.974   6.238  10.855  0.5762  0.1807  0.2295
 1024MOL0     C38168   6.840   6.158  10.823  0.9107  0.2028  0.8598
 1024MOL0     C38169   6.727   6.213  10.892  0.2959  0.1531  0.1964
 1024MOL0     C38170   6.631   6.245  10.960  0.1647  0.4725 -0.9150
 1024MOL0     C38171   7.468   6.058  10.625  0.5610 -0.1440 -0.5243
 1024MOL0     C38172   7.588   6.113  10.613 -0.2131  0.1656  0.2409
 1024MOL0     H38173   8.027   6.349  10.601  0.6239 -0.1177 -1.1818
 1024MOL0     H38174   8.226   6.480  10.624 -0.2192 -0.9123  0.3134
 1024MOL0     H38175   8.412   6.677  10.906 -2.2272 -1.3877  0.8246
 1024MOL0     H38176   8.397   6.543  10.788 -2.9579  0.2614 -0.7841
 1024MOL0     H38177   8.452   6.685  10.609 -3.8528 -6.1592  2.8484
 1024MOL0     H38178   8.462   6.822  10.724 -4.6884 -0.4064  1.0538
 1024MOL0     H38179   8.627   6.664  10.864 -2.1360  4.3924 -0.6390
 1024MOL0     H38180   8.641   6.560  10.718  1.6354  0.3894 -0.7546
 1024MOL0     H38181   8.720   6.747  10.594 -2.5061 -1.2395  0.9589
 1024MOL0     H38182   8.701   6.860  10.739  0.9597 -0.3193  2.3364
 1024MOL0     H38183   8.921   6.801  10.740  2.5647 -1.4076  0.0112
 1024MOL0     H38184   8.853   6.685  10.857  1.2920  3.6699  1.0330
 1024MOL0     H38185   8.879   6.509  10.683  0.7007 -1.2213 -0.5919
 1024MOL0     H38186   8.905   6.625  10.562 -0.8036  0.1604  0.6171
 1024MOL0     H38187   9.095   6.507  10.616 -0.7390  1.1503 -2.7653
 1024MOL0     H38188   9.123   6.681  10.651  0.9563 -0.6392 -0.8181
 1024MOL0     H38189   9.055   6.486  10.856  0.8728  1.6946  2.2234
 1024MOL0     H38190   9.105   6.646  10.883 -1.8995  0.2060  0.5647
 1024MOL0     H38191   9.375   6.707  10.770  1.5174  1.1909  1.0369
 1024MOL0     H38192   9.615   6.687  10.810  1.5725 -0.1177  2.4970
 1024MOL0     H38193   9.683   6.556  10.899  0.0059 -3.1313  0.4178
 1024MOL0     H38194   9.652   6.404  10.688  1.2404 -0.7523  0.7740
 1024MOL0     H38195   9.789   6.511  10.692 -0.0973  3.4166 -1.7854
 1024MOL0     H38196   9.715   6.677  10.562  0.9960 -0.1747 -0.9960
 1024MOL0     H38197   9.547   6.614  10.551  0.4236 -0.5314  0.5825
 1024MOL0     H38198   9.659   6.401  10.433  1.5735 -0.9325 -0.8780
 1024MOL0     H38199   9.815   6.474  10.453 -0.8293 -0.9342 -0.3960
 1024MOL0     H38200   9.702   6.679  10.106  0.2473 -0.2569  0.8371
 1024MOL0     H38201   9.664   6.695   9.865 -0.6519  1.8486 -1.9176
 1024MOL0     H38202   9.564   6.577   9.775  1.6883  2.0506 -2.3100
 1024MOL0     H38203   9.484   6.704   9.835 -0.9340  0.6789  2.1360
 1024MOL0     H38204   9.121   6.693   9.813  0.6174 -0.0077  3.5102
 1024MOL0     H38205   8.901   6.712   9.692  3.1496  2.0446 -0.0477
 1024MOL0     H38206   8.742   6.675   9.512  2.3075  0.2413 -1.7869
 1024MOL0     H38207   8.851   6.543   9.469  1.0049 -0.4571  0.9871
 1024MOL0     H38208   8.657   6.588   9.332 -1.8234 -1.6317 -1.1838
 1024MOL0     H38209   8.677   6.409   9.379 -0.0952 -1.8667  1.9446
 1024MOL0     H38210   8.489   6.453   9.543  1.5626 -0.7294 -0.4087
 1024MOL0     H38211   8.449   6.458   9.380 -1.8460  2.0627 -0.5315
 1024MOL0     H38212   8.518   6.706   9.550  0.5253 -2.1451  1.2980
 1024MOL0     H38213   8.439   6.691   9.382 -1.3951 -3.6332 -1.5487
 1024MOL0     H38214   8.231   6.625   9.461 -1.1121  0.3202 -0.5439
 1024MOL0     H38215   8.276   6.774   9.543 -0.3708  0.8333 -1.1704
 1024MOL0     H38216   8.162   6.633   9.691  0.0696 -0.2046 -1.8375
 1024MOL0     H38217   8.270   6.495   9.673 -0.0118 -0.2208  1.5309
 1024MOL0     H38218   8.361   6.777   9.784  1.8408 -0.2288  1.5173
 1024MOL0     H38219   8.469   6.634   9.779  0.4431 -0.0033 -0.0529
 1024MOL0     H38220   8.397   6.655  10.012  1.3900 -3.0128 -1.4131
 1024MOL0     H38221   8.305   6.523   9.935  0.9028 -0.0163 -0.4793
 1024MOL0     H38222   8.796   6.311   9.780 -0.6637 -0.5046  0.3667
 1024MOL0     H38223   8.998   6.277   9.877 -0.7393 -0.3754 -2.2607
 1024MOL0     H38224   9.314   6.386  10.163 -1.2885  3.3263  1.6735
 1024MOL0     H38225   9.474   6.394  10.336 -2.9557 -1.0665 -1.6277
 1024MOL0     H38226   8.034   6.737  10.912 -2.0327 -0.1331 -0.1323
 1024MOL0     H38227   7.838   6.591  10.891 -1.1507 -3.6641  0.3493
 1024MOL0     H38228   7.543   6.372  10.841 -2.4528  0.7477 -0.5000
 1024MOL0     H38229   7.355   6.233  10.895  0.4416  2.4677  0.1327
 1024MOL0     H38230   7.083   5.998  10.817 -0.5545  1.3457  2.5896
 1024MOL0     H38231   7.192   6.106  10.908  1.4865  2.6268 -0.8417
 1024MOL0     H38232   7.039   6.172  10.654  2.1555 -2.2961 -0.5888
 1024MOL0     H38233   7.160   6.263  10.737  1.0613 -1.1489  1.3533
 1024MOL0     H38234   6.956   6.341  10.824  2.7395  0.5179 -0.1014
 1024MOL0     H38235   7.009   6.224  10.958 -2.2994 -3.3971  0.9277
 1024MOL0     H38236   6.848   6.050  10.841 -1.9130 -0.6321 -1.8770
 1024MOL0     H38237   6.825   6.164  10.714 -0.9816  1.1452  1.1375
 1024MOL0     H38238   6.542   6.263  11.017  1.6579  1.1826  1.3302
 1024MOL0     H38239   7.428   5.991  10.549  0.2161  0.4295 -0.8542
 1024MOL0     H38240   7.644   6.056  10.539  0.4151  0.6135  0.3635
  11.41278  11.41278  11.41278
